FOO
138240
    1MOL0     O    1  10.954   4.644   9.924 -0.2186 -0.9854  0.8052
    1MOL0     C    2  11.005   4.596  10.026 -0.0980 -0.4193 -0.1425
    1MOL0     O    3  11.142   4.570  10.050 -0.7240 -0.7841  0.2477
    1MOL0     C    4  11.247   4.599   9.966  0.1672 -0.1191  0.3522
    1MOL0     C    5  11.365   4.641  10.021 -0.0138 -0.1028  0.1660
    1MOL0     C    6  11.476   4.670   9.938 -0.8305  0.2664 -0.0966
    1MOL0     C    7  11.464   4.679   9.798  0.2272 -0.4490 -0.3130
    1MOL0     O    8  11.565   4.733   9.729  0.0086 -0.0555  0.9510
    1MOL0     C    9  11.548   4.873   9.706 -0.7482 -0.2760 -0.1127
    1MOL0     C   10  11.633   4.969   9.791 -0.1024  0.1419 -0.7081
    1MOL0     C   11  11.570   5.104   9.765 -1.0674 -0.1214 -0.8478
    1MOL0     C   12  11.470   5.140   9.879 -0.4233  0.3169  0.6775
    1MOL0     C   13  11.424   5.284   9.865  0.4161  1.1286  0.6536
    1MOL0     C   14  11.338   5.329   9.983 -0.3518  0.0359  0.2379
    1MOL0     C   15  11.208   5.259  10.014  0.3388  0.5821 -0.1341
    1MOL0     C   16  11.114   5.269   9.892  0.1596  0.4039 -0.0279
    1MOL0     N   17  10.983   5.239   9.931  0.4479  0.0594 -0.6897
    1MOL0     C   18  10.878   5.327   9.918 -0.7366  0.0807  0.1877
    1MOL0     C   19  10.768   5.271   9.972  0.6148  0.4991  1.0804
    1MOL0     C   20  10.624   5.321   9.973 -0.6399  0.5573 -0.4659
    1MOL0     C   21  10.563   5.306  10.111  1.1421 -0.4322 -0.4251
    1MOL0     C   22  10.417   5.364  10.146 -0.1554  0.6955 -0.0007
    1MOL0     C   23  10.308   5.351  10.036 -0.1915  0.2252 -0.5947
    1MOL0     O   24  10.292   5.210  10.015  0.1547 -0.4349 -1.0743
    1MOL0     C   25  10.308   5.166   9.886  0.3922  0.0467  0.5127
    1MOL0     C   26  10.348   5.041   9.870  0.8171  0.7838  1.1470
    1MOL0     C   27  10.377   4.978   9.758  0.2593  0.2529  1.1312
    1MOL0     C   28  10.412   4.839   9.768 -0.9664 -0.5867 -0.2600
    1MOL0     C   29  10.354   5.050   9.630  0.7280  0.6160 -0.0598
    1MOL0     C   30  10.358   4.987   9.498 -1.1065 -0.0079  0.4611
    1MOL0     O   31  10.280   5.053   9.403  0.7613 -0.4700 -0.3762
    1MOL0     C   32  10.281   5.016   9.276  0.6532 -0.0551 -0.6568
    1MOL0     C   33  10.238   4.892   9.228 -0.7514 -0.4491 -1.0577
    1MOL0     C   34  10.248   4.864   9.092  0.1826 -0.2583  0.2243
    1MOL0     C   35  10.275   4.956   8.997  0.0409  0.5619  0.3349
    1MOL0     O   36  10.286   4.927   8.865 -0.3138  0.5283  0.9284
    1MOL0     C   37  10.212   4.824   8.807  0.4651 -0.7219 -0.0905
    1MOL0     C   38  10.063   4.882   8.772 -0.1539 -0.7207  0.0533
    1MOL0     C   39   9.956   4.771   8.750 -0.0574 -0.3705  0.4099
    1MOL0     C   40   9.820   4.837   8.714 -0.3305  0.0152 -0.6206
    1MOL0     C   41   9.700   4.744   8.722  0.4203 -0.5547 -0.4755
    1MOL0     C   42   9.657   4.715   8.871 -0.1853 -0.1977 -0.1759
    1MOL0     C   43   9.565   4.595   8.896  0.5413  0.8227  0.0376
    1MOL0     C   44   9.626   4.452   8.889  0.7908 -1.0844  0.0508
    1MOL0    Cl   45   9.645   4.387   8.723  0.1402  0.4579  0.0562
    1MOL0     C   46  10.311   5.078   9.045 -1.0848 -0.6207 -0.2191
    1MOL0     C   47  10.319   5.111   9.177  1.0940 -0.7104 -0.4826
    1MOL0     O   48  10.435   4.890   9.473 -0.3696 -0.3606 -0.3950
    1MOL0     C   49  10.298   5.181   9.644  0.3264 -0.3682 -0.8012
    1MOL0     C   50  10.274   5.238   9.770  0.7893  0.2198  0.1068
    1MOL0     N   51  10.805   5.158  10.031 -0.6728 -0.3453 -0.9345
    1MOL0     N   52  10.935   5.137  10.011 -0.0137 -0.4616 -0.0306
    1MOL0     C   53  11.343   4.644   9.745  0.5483  0.1871  0.2329
    1MOL0     C   54  11.235   4.606   9.828 -1.0210  0.1973  0.7422
    1MOL0     C   55  10.909   4.545  10.122 -0.3693  0.3838  0.1647
    1MOL0     C   56  10.951   4.494  10.244 -0.4647  1.2691 -0.6177
    1MOL0     C   57  10.859   4.437  10.332 -0.4107  0.2419 -0.3868
    1MOL0     C   58  10.718   4.443  10.312 -0.2853  0.1833  0.2046
    1MOL0     O   59  10.642   4.392  10.407 -0.0038  0.5094 -0.0629
    1MOL0     C   60  10.500   4.360  10.395  0.3217 -0.3066  0.1608
    1MOL0     C   61  10.475   4.224  10.324  0.1339 -0.3154  0.0104
    1MOL0     C   62  10.356   4.154  10.386  0.1546 -0.1331 -0.4787
    1MOL0     C   63  10.355   3.995  10.353 -0.7145 -0.0596 -0.1577
    1MOL0     C   64  10.468   3.918  10.399 -1.2645 -0.0468 -0.3968
    1MOL0     C   65  10.577   3.865  10.440  0.3778  0.1464  0.0352
    1MOL0     C   66  10.673   4.499  10.193  0.1059 -0.6215  0.3279
    1MOL0     C   67  10.772   4.552  10.101  0.4134  0.5633  0.3381
    1MOL0     H   68  11.378   4.635  10.128 -0.8033 -1.7000  0.2056
    1MOL0     H   69  11.572   4.694   9.982 -0.0350  0.0670 -1.6393
    1MOL0     H   70  11.572   4.881   9.599 -1.3288  0.8889 -0.1683
    1MOL0     H   71  11.441   4.894   9.718 -1.1377 -0.6469 -2.4488
    1MOL0     H   72  11.620   4.943   9.896  4.1303  2.1571  0.5233
    1MOL0     H   73  11.737   4.981   9.760  0.2910  1.5575  1.0499
    1MOL0     H   74  11.646   5.183   9.764 -1.5958  0.3930 -1.9345
    1MOL0     H   75  11.536   5.113   9.662  0.1467  4.3886 -1.0433
    1MOL0     H   76  11.380   5.078   9.888  1.9567 -3.3092  1.7679
    1MOL0     H   77  11.518   5.112   9.974  3.4343  1.3608 -0.7892
    1MOL0     H   78  11.512   5.348   9.863  0.5124  1.1059  2.6244
    1MOL0     H   79  11.367   5.288   9.771 -0.1683 -3.0800  0.6425
    1MOL0     H   80  11.398   5.317  10.074 -1.4158 -1.4282  0.7986
    1MOL0     H   81  11.310   5.433   9.966 -0.2016 -0.3437 -2.7005
    1MOL0     H   82  11.228   5.154  10.038  1.1814  0.2997 -1.9572
    1MOL0     H   83  11.158   5.316  10.093 -4.2243 -1.5371 -1.1300
    1MOL0     H   84  11.144   5.199   9.813  0.2572 -0.5202  0.8059
    1MOL0     H   85  11.116   5.368   9.847 -1.1282 -0.5186 -2.3032
    1MOL0     H   86  10.887   5.425   9.872  5.0514  0.0136  0.4237
    1MOL0     H   87  10.631   5.428   9.954  1.9850  0.6890  0.8172
    1MOL0     H   88  10.564   5.266   9.900  0.1791 -1.0808  0.0410
    1MOL0     H   89  10.638   5.359  10.172  0.5394  0.0913 -0.1243
    1MOL0     H   90  10.562   5.203  10.148  0.1546  0.3683  1.9675
    1MOL0     H   91  10.427   5.468  10.179  3.9564  0.8823 -1.2828
    1MOL0     H   92  10.375   5.310  10.232 -1.9212 -0.4816 -1.5395
    1MOL0     H   93  10.343   5.409   9.950  0.0439  1.1512  0.1019
    1MOL0     H   94  10.213   5.396  10.066 -0.1120  0.2651 -0.4033
    1MOL0     H   95  10.358   4.983   9.962 -2.1095 -3.8604 -1.0614
    1MOL0     H   96  10.518   4.816   9.760 -0.7178 -0.4426  1.8801
    1MOL0     H   97  10.387   4.796   9.866 -0.8882  0.2385  0.1285
    1MOL0     H   98  10.366   4.778   9.689 -3.5440  1.2898 -0.3396
    1MOL0     H   99  10.223   4.806   9.293  3.2418 -0.4534  0.1061
    1MOL0     H  100  10.245   4.759   9.064  1.5675 -0.5198  0.9600
    1MOL0     H  101  10.262   4.796   8.714  3.8642  4.4304 -0.2456
    1MOL0     H  102  10.199   4.735   8.868 -1.8514  0.4487  1.2866
    1MOL0     H  103  10.034   4.942   8.859 -1.9278  0.9338 -1.5732
    1MOL0     H  104  10.067   4.946   8.683 -1.0612 -1.5181 -0.5726
    1MOL0     H  105   9.941   4.719   8.845  1.3313  0.6493  1.2102
    1MOL0     H  106   9.985   4.695   8.677  1.1827 -0.4254  0.9452
    1MOL0     H  107   9.805   4.928   8.774 -3.2051 -1.6504  1.4525
    1MOL0     H  108   9.821   4.857   8.607 -3.9674 -1.0118 -0.9857
    1MOL0     H  109   9.704   4.652   8.662 -0.3071 -0.7367 -0.2568
    1MOL0     H  110   9.612   4.793   8.678 -0.1034  0.0756  1.1875
    1MOL0     H  111   9.740   4.705   8.941 -0.2662 -0.1719 -0.0754
    1MOL0     H  112   9.609   4.806   8.908  2.4223  1.4801 -0.7078
    1MOL0     H  113   9.469   4.609   8.844 -0.4596  0.5619  1.7520
    1MOL0     H  114   9.521   4.604   8.995  0.4275  2.5514 -0.1391
    1MOL0     H  115   9.571   4.378   8.948  3.2940 -3.9161 -0.9199
    1MOL0     H  116   9.720   4.471   8.941 -1.5730  1.7880  3.8639
    1MOL0     H  117  10.342   5.159   8.980 -3.3528  0.9856  0.5758
    1MOL0     H  118  10.364   5.205   9.208 -0.6394 -0.3903  1.3025
    1MOL0     H  119  10.264   5.239   9.560 -0.3104 -1.9316 -1.6681
    1MOL0     H  120  10.236   5.338   9.788  0.3022 -0.0832  0.8240
    1MOL0     H  121  11.332   4.659   9.638  3.5897  1.0982 -0.0317
    1MOL0     H  122  11.141   4.588   9.776 -0.5240 -1.2161  0.2674
    1MOL0     H  123  11.052   4.500  10.282 -0.5699  0.5475 -0.2200
    1MOL0     H  124  10.910   4.382  10.411  0.5351 -1.9664 -2.4001
    1MOL0     H  125  10.456   4.340  10.493 -3.6933 -4.6858 -2.1581
    1MOL0     H  126  10.441   4.439  10.347  0.7766  1.1279  1.8489
    1MOL0     H  127  10.567   4.165  10.318  1.2260  1.1046  1.8001
    1MOL0     H  128  10.453   4.244  10.218  3.6200  2.9786 -0.3040
    1MOL0     H  129  10.260   4.191  10.350  0.0564 -0.3664 -0.4566
    1MOL0     H  130  10.351   4.165  10.495  0.2385  0.1766 -0.5049
    1MOL0     H  131  10.354   3.978  10.245 -1.5023  0.6887 -0.2804
    1MOL0     H  132  10.261   3.961  10.396  0.0719  0.0204  1.7220
    1MOL0     H  133  10.662   3.811  10.476  0.3170 -1.6045 -2.2715
    1MOL0     H  134  10.575   4.502  10.147  0.4615 -0.4523 -0.4384
    1MOL0     H  135  10.736   4.573  10.001  1.5153 -1.5442 -0.5600
    2MOL0     O  136  10.916   8.441   7.576 -0.6127  0.2686 -0.0708
    2MOL0     C  137  10.943   8.325   7.556  0.2232  0.3508 -0.0879
    2MOL0     O  138  11.014   8.274   7.452 -0.0683  0.5028 -0.2155
    2MOL0     C  139  11.029   8.350   7.345  0.0917  0.1611  0.2480
    2MOL0     C  140  11.155   8.350   7.278 -0.5944  0.8247 -0.4244
    2MOL0     C  141  11.175   8.427   7.169 -0.1547  0.7954  0.6989
    2MOL0     C  142  11.065   8.503   7.115  0.5201 -0.1044  0.3068
    2MOL0     O  143  11.085   8.588   7.010  0.0602  0.3364  0.2569
    2MOL0     C  144  11.136   8.531   6.890  0.7359  0.3305  0.5040
    2MOL0     C  145  11.025   8.459   6.814  0.4683 -0.1887  0.1249
    2MOL0     C  146  11.059   8.397   6.671 -0.7122 -0.1667 -1.1282
    2MOL0     C  147  11.000   8.260   6.644 -0.2482 -0.3380  0.6221
    2MOL0     C  148  11.044   8.223   6.501  0.3861  0.7286  0.1175
    2MOL0     C  149  11.005   8.080   6.457  0.5341 -0.0905 -0.5138
    2MOL0     C  150  11.096   7.959   6.478 -0.0497  0.5386 -0.8054
    2MOL0     C  151  11.039   7.828   6.410 -0.4891 -0.6098 -0.0570
    2MOL0     N  152  11.063   7.835   6.269  0.4448 -0.2492  0.4677
    2MOL0     C  153  11.189   7.814   6.218  0.1815 -1.7077 -0.1882
    2MOL0     C  154  11.177   7.817   6.085 -0.5623  0.9546  0.2430
    2MOL0     C  155  11.282   7.814   5.985  0.5778 -0.7132 -1.0564
    2MOL0     C  156  11.371   7.692   5.964  0.0847 -0.1435 -0.3571
    2MOL0     C  157  11.308   7.582   5.869 -0.0414 -0.3062  0.4934
    2MOL0     C  158  11.395   7.460   5.847  0.5129  0.8435 -0.3101
    2MOL0     O  159  11.317   7.366   5.780  0.2351  0.9716  0.3340
    2MOL0     C  160  11.389   7.306   5.680 -0.9409  1.4059  0.7118
    2MOL0     C  161  11.410   7.367   5.557 -0.2394  0.0048 -0.6574
    2MOL0     C  162  11.472   7.312   5.449 -0.8627  0.2739  0.4018
    2MOL0     C  163  11.478   7.384   5.318  0.3190 -0.4614  0.0600
    2MOL0     C  164  11.513   7.177   5.455 -0.5889  0.8943 -0.8258
    2MOL0     C  165  11.592   7.106   5.354  0.0312  0.3318  0.8271
    2MOL0     O  166  11.673   7.174   5.273 -0.7126  0.3802 -0.5088
    2MOL0     C  167  11.735   7.099   5.180 -0.4925 -0.1657  1.2610
    2MOL0     C  168  11.872   7.111   5.190 -0.2573 -0.1357 -0.2267
    2MOL0     C  169  11.951   7.029   5.105  0.4763 -0.0175 -0.4721
    2MOL0     C  170  11.892   6.946   5.009 -0.0747  0.6339  0.2515
    2MOL0     O  171  11.974   6.865   4.946 -0.2695 -0.3989 -0.4663
    2MOL0     C  172  11.927   6.789   4.831 -0.1097 -0.5616 -0.8713
    2MOL0     C  173  12.055   6.726   4.759 -0.2949  0.7748  0.3267
    2MOL0     C  174  12.179   6.816   4.775  0.7818  0.4712 -0.4193
    2MOL0     C  175  12.305   6.742   4.728  0.3477 -0.1346  0.1030
    2MOL0     C  176  12.356   6.763   4.585 -0.6965 -0.5301 -0.1548
    2MOL0     C  177  12.264   6.692   4.474  0.0614  0.6721  0.6006
    2MOL0     C  178  12.301   6.545   4.432 -0.2578 -0.5893  0.3946
    2MOL0     C  179  12.449   6.533   4.378  0.3951  0.7809  0.9129
    2MOL0    Cl  180  12.493   6.641   4.242  0.1258  0.4832  0.0165
    2MOL0     C  181  11.753   6.947   4.984 -0.2475 -0.3660 -0.7567
    2MOL0     C  182  11.680   7.033   5.072  0.5324  0.0282 -0.4357
    2MOL0     O  183  11.593   6.980   5.364  0.2752 -0.2998  0.4977
    2MOL0     C  184  11.495   7.110   5.580  0.4031  0.8658  0.2936
    2MOL0     C  185  11.442   7.180   5.689 -0.4456  0.0313  0.1488
    2MOL0     N  186  11.050   7.863   6.055 -0.3561 -0.3529 -0.1816
    2MOL0     N  187  10.977   7.867   6.159  0.3140  0.5038 -0.7250
    2MOL0     C  188  10.934   8.489   7.168 -0.4077  0.4019 -0.8289
    2MOL0     C  189  10.921   8.416   7.284 -0.0764  0.1553 -0.4613
    2MOL0     C  190  10.894   8.224   7.644  0.4724  0.2716  0.0337
    2MOL0     C  191  10.914   8.085   7.616 -0.3285 -0.0289 -0.5461
    2MOL0     C  192  10.871   7.996   7.707  0.9498 -0.3646  0.6862
    2MOL0     C  193  10.819   8.031   7.834  0.1865  0.0686  0.2163
    2MOL0     O  194  10.755   7.941   7.918  0.3697  0.1580 -0.6349
    2MOL0     C  195  10.856   7.881   8.007 -0.1638  0.9703  0.2640
    2MOL0     C  196  10.907   7.746   7.960 -0.6939  0.6258 -0.2436
    2MOL0     C  197  10.797   7.636   7.948 -0.8791  0.0498  0.5108
    2MOL0     C  198  10.782   7.555   8.073 -0.4636 -0.5495  0.6915
    2MOL0     C  199  10.895   7.465   8.081  0.7253 -0.2072 -0.0686
    2MOL0     C  200  10.973   7.376   8.099 -0.8601  0.6566 -0.1732
    2MOL0     C  201  10.812   8.165   7.865  0.9964 -0.2044 -0.5500
    2MOL0     C  202  10.844   8.261   7.771  0.6768  0.4447 -0.4364
    2MOL0     H  203  11.237   8.292   7.321 -2.3443 -0.8397  0.8840
    2MOL0     H  204  11.273   8.429   7.123 -1.0760  0.6250 -1.3424
    2MOL0     H  205  11.160   8.606   6.814  0.3434  0.0011  0.0503
    2MOL0     H  206  11.218   8.459   6.901  0.2485 -1.2445 -3.9872
    2MOL0     H  207  10.978   8.382   6.875 -2.1744  2.6113  1.9517
    2MOL0     H  208  10.934   8.519   6.803 -1.3608 -2.3767  2.0617
    2MOL0     H  209  11.018   8.466   6.597 -1.2208  1.2143  0.3696
    2MOL0     H  210  11.168   8.390   6.655 -0.7904 -0.4512 -1.5533
    2MOL0     H  211  11.027   8.181   6.715  1.5044  1.7653  2.4252
    2MOL0     H  212  10.890   8.266   6.641 -0.1870  1.0704  0.7006
    2MOL0     H  213  10.990   8.291   6.434  1.7381  2.0026  0.2855
    2MOL0     H  214  11.148   8.252   6.484  0.1473  0.6074 -1.8292
    2MOL0     H  215  10.909   8.064   6.506 -0.6510  0.3050 -2.5934
    2MOL0     H  216  11.005   8.084   6.348  4.0322  1.8746 -0.6095
    2MOL0     H  217  11.199   7.967   6.443  0.5856  0.7270  1.0083
    2MOL0     H  218  11.102   7.924   6.582 -3.8829 -4.0202 -1.7553
    2MOL0     H  219  10.931   7.810   6.418 -0.3684 -2.2321 -1.4050
    2MOL0     H  220  11.086   7.744   6.461 -0.0155  1.0509  2.4044
    2MOL0     H  221  11.279   7.794   6.276  0.5539  1.7590  0.6686
    2MOL0     H  222  11.235   7.833   5.888  0.1864 -0.0089 -0.7392
    2MOL0     H  223  11.333   7.910   6.005  1.0401 -1.1126 -0.2614
    2MOL0     H  224  11.373   7.646   6.063 -5.6258  1.0140  0.6812
    2MOL0     H  225  11.467   7.719   5.919  1.4983 -0.9122  2.0428
    2MOL0     H  226  11.273   7.616   5.771 -0.3290 -1.5014  0.1683
    2MOL0     H  227  11.216   7.537   5.905 -0.7617 -0.2860 -1.2233
    2MOL0     H  228  11.441   7.414   5.935  0.8002  2.4023  0.3949
    2MOL0     H  229  11.485   7.490   5.793  1.8541 -1.3345  0.5910
    2MOL0     H  230  11.362   7.464   5.550 -2.5441 -1.0265 -0.1438
    2MOL0     H  231  11.578   7.428   5.304  0.4316 -0.7355  0.0075
    2MOL0     H  232  11.455   7.323   5.230 -1.1996  2.2772 -1.5973
    2MOL0     H  233  11.413   7.472   5.315  2.4205  1.1449 -1.1492
    2MOL0     H  234  11.929   7.166   5.265  2.2366 -2.8519  0.0098
    2MOL0     H  235  12.059   7.032   5.117  0.5631 -0.8086 -0.9721
    2MOL0     H  236  11.853   6.718   4.869 -1.4320  2.0645  1.9511
    2MOL0     H  237  11.878   6.855   4.758 -0.5745  0.1933  0.1024
    2MOL0     H  238  12.069   6.628   4.806  0.7194  0.6419 -0.2375
    2MOL0     H  239  12.020   6.715   4.656 -0.3621 -3.3723  0.6242
    2MOL0     H  240  12.194   6.860   4.874 -2.0737  0.4414  0.1111
    2MOL0     H  241  12.159   6.902   4.710 -1.5463 -0.3113 -0.8277
    2MOL0     H  242  12.382   6.762   4.803 -0.4723  1.1859  0.6249
    2MOL0     H  243  12.286   6.634   4.731 -0.3435 -0.2286 -3.4520
    2MOL0     H  244  12.463   6.741   4.580 -0.1463  1.4023  1.8740
    2MOL0     H  245  12.351   6.871   4.566 -3.9798  0.2826  3.8500
    2MOL0     H  246  12.160   6.698   4.508  0.3256  2.5754  1.2102
    2MOL0     H  247  12.268   6.749   4.381  1.2099 -1.5515 -0.8135
    2MOL0     H  248  12.241   6.498   4.353  2.1144 -2.6073 -0.3675
    2MOL0     H  249  12.290   6.483   4.521 -1.2924 -0.8405  0.1045
    2MOL0     H  250  12.477   6.430   4.354  2.4702  1.2693  1.0958
    2MOL0     H  251  12.509   6.556   4.466  1.1022  0.5441  0.4957
    2MOL0     H  252  11.703   6.887   4.909  0.1218 -2.0293  0.2781
    2MOL0     H  253  11.571   7.027   5.069  0.3996  0.2722  2.0188
    2MOL0     H  254  11.510   7.002   5.585  1.3230  0.8654 -1.5150
    2MOL0     H  255  11.422   7.123   5.779 -2.3955  3.2687  1.9982
    2MOL0     H  256  10.851   8.550   7.134  0.1136  1.6481  0.0485
    2MOL0     H  257  10.818   8.409   7.316  0.7421 -2.9462  2.0845
    2MOL0     H  258  10.955   8.052   7.521  0.5264  2.0137 -0.9257
    2MOL0     H  259  10.889   7.890   7.690 -0.9617 -0.3182 -2.2812
    2MOL0     H  260  10.935   7.953   8.031 -0.3526  0.7838  1.5325
    2MOL0     H  261  10.805   7.861   8.102  1.0762 -1.8939  0.4181
    2MOL0     H  262  10.991   7.713   8.021 -0.0041  0.6813 -1.1390
    2MOL0     H  263  10.938   7.767   7.857 -1.1789  0.5274 -0.4158
    2MOL0     H  264  10.821   7.579   7.858  1.4862  0.7964  0.5880
    2MOL0     H  265  10.702   7.683   7.922 -1.2951 -0.7019  0.6530
    2MOL0     H  266  10.682   7.511   8.076 -0.6531 -0.0830  1.3874
    2MOL0     H  267  10.788   7.616   8.164  1.6116  0.2595  0.0604
    2MOL0     H  268  11.052   7.307   8.117  1.5076  3.0790 -0.7058
    2MOL0     H  269  10.781   8.193   7.965 -1.2770  1.9886 -1.7621
    2MOL0     H  270  10.829   8.364   7.799  1.3633  0.3446  0.3576
    3MOL0     O  271   9.443   7.348   4.405 -0.8401  0.0039  0.2578
    3MOL0     C  272   9.559   7.386   4.394 -0.1087  0.1849  0.3343
    3MOL0     O  273   9.654   7.335   4.307 -0.5533  0.1544  0.0263
    3MOL0     C  274   9.639   7.250   4.199  0.6310  0.2000 -0.4223
    3MOL0     C  275   9.520   7.248   4.123  0.2105 -0.7167 -0.1729
    3MOL0     C  276   9.494   7.152   4.025 -0.3969  0.5328  0.3021
    3MOL0     C  277   9.608   7.071   3.991 -0.1335 -1.0708 -0.5116
    3MOL0     O  278   9.624   6.980   3.891 -0.0338 -0.5681 -0.2180
    3MOL0     C  279   9.507   6.981   3.801  0.6136 -0.7453 -0.9888
    3MOL0     C  280   9.500   7.116   3.719 -0.0488  0.1350 -0.4069
    3MOL0     C  281   9.389   7.116   3.616 -0.5604  0.4535  0.0841
    3MOL0     C  282   9.257   7.090   3.686 -0.2249 -0.4174  0.2950
    3MOL0     C  283   9.139   7.109   3.601  0.8629  0.5387 -0.6095
    3MOL0     C  284   9.009   7.066   3.677 -0.1363  0.8453 -0.4760
    3MOL0     C  285   8.884   7.040   3.584 -0.0881  1.0556 -1.2528
    3MOL0     C  286   8.766   7.135   3.588 -0.5317 -0.3265 -1.2129
    3MOL0     N  287   8.823   7.270   3.536 -0.4279  0.0576 -0.3167
    3MOL0     C  288   8.855   7.311   3.413 -0.8658 -1.0213 -0.0765
    3MOL0     C  289   8.917   7.435   3.423 -0.3747  0.3494 -0.3111
    3MOL0     C  290   9.000   7.500   3.325 -0.5501 -0.4487 -0.3176
    3MOL0     C  291   8.914   7.588   3.230  0.1470 -0.7804  0.1631
    3MOL0     C  292   9.006   7.627   3.112  0.1338  0.8469 -1.4742
    3MOL0     C  293   9.046   7.507   3.024 -0.3282  0.6033  0.6236
    3MOL0     O  294   9.034   7.546   2.884 -0.0478 -0.4182 -0.0206
    3MOL0     C  295   9.073   7.459   2.783 -0.7137  0.0846 -0.1208
    3MOL0     C  296   9.117   7.330   2.803 -0.3329  0.1071  0.0578
    3MOL0     C  297   9.146   7.251   2.692 -0.5490  0.3147  0.5019
    3MOL0     C  298   9.189   7.111   2.716 -0.3017  0.2516  0.2027
    3MOL0     C  299   9.123   7.295   2.555 -0.3946  0.2276  0.1547
    3MOL0     C  300   9.126   7.215   2.431  0.9428  0.7792  0.7235
    3MOL0     O  301   9.206   7.101   2.424  0.3304 -0.3599  0.1812
    3MOL0     C  302   9.207   7.021   2.316  0.7228  0.7378  0.1154
    3MOL0     C  303   9.225   6.884   2.353  0.5186  0.2836  0.8470
    3MOL0     C  304   9.245   6.778   2.257 -0.3528 -1.0639 -0.0843
    3MOL0     C  305   9.246   6.811   2.125 -0.1940 -0.6861 -0.0453
    3MOL0     O  306   9.278   6.707   2.036 -0.8179  0.1678 -0.0022
    3MOL0     C  307   9.319   6.748   1.900 -0.7199  0.8471  0.7757
    3MOL0     C  308   9.388   6.627   1.816  0.5772 -1.0774 -1.1190
    3MOL0     C  309   9.307   6.499   1.849 -0.0233  0.7439 -0.1083
    3MOL0     C  310   9.343   6.384   1.752  0.2284 -0.1933  0.4335
    3MOL0     C  311   9.257   6.256   1.781  0.0278  0.3678  0.4279
    3MOL0     C  312   9.341   6.136   1.742  0.4245  0.1002  0.2950
    3MOL0     C  313   9.250   6.017   1.734 -0.3741 -0.1586 -0.0238
    3MOL0     C  314   9.310   5.904   1.659 -0.1876  0.4199 -0.2687
    3MOL0    Cl  315   9.205   5.764   1.658 -0.2639  0.1762 -0.2195
    3MOL0     C  316   9.223   6.949   2.087  0.3013  0.3919  0.0209
    3MOL0     C  317   9.212   7.045   2.186 -0.2026 -0.3182  0.5285
    3MOL0     O  318   9.052   7.248   2.337  0.4363  0.2104 -0.0308
    3MOL0     C  319   9.069   7.423   2.541 -0.0690 -0.5595  0.3670
    3MOL0     C  320   9.055   7.505   2.654 -0.7174 -0.1562 -0.3712
    3MOL0     N  321   8.927   7.459   3.558 -0.2746 -0.0497  1.1497
    3MOL0     N  322   8.872   7.361   3.626 -0.4222  0.5490 -0.3724
    3MOL0     C  323   9.728   7.081   4.061 -0.8774 -0.2637 -0.5876
    3MOL0     C  324   9.748   7.165   4.170 -0.2786  1.1680  0.5593
    3MOL0     C  325   9.611   7.487   4.495 -0.2799  0.1280 -0.6439
    3MOL0     C  326   9.752   7.492   4.524  0.2850 -0.3842  0.8633
    3MOL0     C  327   9.806   7.589   4.603  0.1453 -0.3708  0.5037
    3MOL0     C  328   9.732   7.681   4.658 -0.1039 -0.3024 -1.0608
    3MOL0     O  329   9.774   7.781   4.738 -0.5564 -0.0367 -0.3231
    3MOL0     C  330   9.896   7.748   4.806  0.1777 -0.2277 -0.3915
    3MOL0     C  331   9.923   7.848   4.909 -0.5144 -0.5918 -0.3449
    3MOL0     C  332   9.966   7.995   4.868 -0.7712  0.0041 -0.3883
    3MOL0     C  333   9.981   8.082   4.989  0.0895  0.6360  0.4179
    3MOL0     C  334   9.857   8.107   5.063 -0.2882 -0.3426 -1.3889
    3MOL0     C  335   9.763   8.137   5.128 -0.1095 -0.3523  0.0900
    3MOL0     C  336   9.589   7.669   4.646  0.6921 -0.1911  0.3753
    3MOL0     C  337   9.527   7.573   4.567 -0.7628 -0.0797 -0.8758
    3MOL0     H  338   9.437   7.306   4.164 -0.8652 -3.6941  2.2166
    3MOL0     H  339   9.398   7.142   3.974  0.4126  2.3003 -1.7187
    3MOL0     H  340   9.521   6.903   3.726  2.0342 -1.4515 -0.0443
    3MOL0     H  341   9.411   6.960   3.850  0.3466 -0.0180 -1.1837
    3MOL0     H  342   9.493   7.212   3.771 -1.6212 -1.0789  1.7863
    3MOL0     H  343   9.593   7.106   3.663 -0.4718 -1.4305 -0.8798
    3MOL0     H  344   9.393   7.214   3.569 -1.1081 -0.1791 -1.3418
    3MOL0     H  345   9.404   7.047   3.531  3.1051  2.6955 -1.3637
    3MOL0     H  346   9.256   6.988   3.727 -2.6425 -0.1108  1.1611
    3MOL0     H  347   9.251   7.160   3.769  0.5678 -2.3515  2.0861
    3MOL0     H  348   9.130   7.209   3.559  0.8244  0.7235 -0.1678
    3MOL0     H  349   9.147   7.042   3.515 -2.1252  0.5689 -1.0045
    3MOL0     H  350   9.021   6.971   3.729  3.7889  0.9049 -0.9574
    3MOL0     H  351   8.978   7.144   3.747 -1.1002 -1.0378  1.2798
    3MOL0     H  352   8.911   7.028   3.479 -2.1319 -1.0985 -1.6130
    3MOL0     H  353   8.846   6.941   3.612  0.8965  0.9443 -0.2446
    3MOL0     H  354   8.715   7.142   3.685  1.0705 -3.0210 -0.0709
    3MOL0     H  355   8.682   7.100   3.528 -2.9785 -0.9841  2.2492
    3MOL0     H  356   8.866   7.250   3.324  1.8347  1.7254 -1.8087
    3MOL0     H  357   9.072   7.563   3.379  2.9066 -3.3988 -1.1255
    3MOL0     H  358   9.058   7.424   3.273  3.7314  3.4539 -1.9957
    3MOL0     H  359   8.887   7.677   3.287  1.2569  1.7744 -2.9883
    3MOL0     H  360   8.825   7.546   3.182  1.9112 -0.6741 -3.6382
    3MOL0     H  361   9.091   7.684   3.151  0.5166 -1.9905  2.5162
    3MOL0     H  362   8.947   7.695   3.050 -0.3480 -0.1448 -2.1392
    3MOL0     H  363   8.979   7.426   3.054 -0.0696  0.7770  1.7414
    3MOL0     H  364   9.143   7.471   3.062 -1.4566 -0.7940  2.3404
    3MOL0     H  365   9.142   7.290   2.901  3.5953  1.3336 -0.2804
    3MOL0     H  366   9.298   7.107   2.707 -0.1528  3.0649 -0.0728
    3MOL0     H  367   9.157   7.090   2.818 -2.8616  2.0232 -0.1371
    3MOL0     H  368   9.147   7.038   2.646  0.2526  1.2483 -1.2118
    3MOL0     H  369   9.232   6.865   2.459  2.2752 -2.0536  0.4154
    3MOL0     H  370   9.244   6.675   2.292 -2.2873 -0.3833  2.1506
    3MOL0     H  371   9.223   6.762   1.849 -0.2430  2.7533  0.3319
    3MOL0     H  372   9.377   6.841   1.901  4.4264 -1.9847  0.5922
    3MOL0     H  373   9.365   6.651   1.712 -0.0345 -0.0205 -0.7587
    3MOL0     H  374   9.496   6.617   1.832  1.0612  1.3126 -2.4335
    3MOL0     H  375   9.201   6.519   1.835 -0.1872 -0.4268 -0.7162
    3MOL0     H  376   9.327   6.475   1.954 -1.2844  0.5669  0.1018
    3MOL0     H  377   9.325   6.421   1.651 -1.5806 -1.4668  0.2370
    3MOL0     H  378   9.449   6.356   1.755  0.4598  0.5297 -0.5021
    3MOL0     H  379   9.168   6.256   1.718 -0.1174 -1.9927  0.5430
    3MOL0     H  380   9.225   6.237   1.884  0.4809 -2.1466  0.1872
    3MOL0     H  381   9.386   6.154   1.644  1.6177  0.1191  0.8278
    3MOL0     H  382   9.415   6.121   1.820  0.4291 -0.0289  0.2664
    3MOL0     H  383   9.158   6.041   1.680 -0.9409 -1.7323  0.1830
    3MOL0     H  384   9.230   5.975   1.833  1.3189 -2.3481 -0.5349
    3MOL0     H  385   9.400   5.882   1.716 -0.7800  0.7651  0.8379
    3MOL0     H  386   9.341   5.928   1.557  0.8346  1.1768  0.2020
    3MOL0     H  387   9.222   6.982   1.984 -0.7465 -1.1897 -0.5172
    3MOL0     H  388   9.202   7.145   2.147 -0.1924 -0.4489  0.1831
    3MOL0     H  389   9.050   7.475   2.447  1.2076  1.0535  0.9392
    3MOL0     H  390   9.016   7.606   2.649 -0.5924 -0.0309  0.7979
    3MOL0     H  391   9.809   7.016   4.032  0.7553  1.0325  0.8232
    3MOL0     H  392   9.842   7.171   4.225  1.1420 -0.6900 -1.4865
    3MOL0     H  393   9.830   7.422   4.495 -2.2428 -1.9996 -2.7524
    3MOL0     H  394   9.912   7.573   4.623  0.3761 -0.6456 -0.8246
    3MOL0     H  395   9.887   7.650   4.854  0.0790  0.0643  0.1815
    3MOL0     H  396   9.979   7.750   4.735 -0.9587 -1.0864 -1.8101
    3MOL0     H  397  10.007   7.818   4.972  1.4255  2.3208 -1.3226
    3MOL0     H  398   9.832   7.855   4.970 -0.2574 -2.2531  0.2946
    3MOL0     H  399   9.900   8.045   4.797 -3.0628  0.0599  1.6474
    3MOL0     H  400  10.066   7.987   4.824 -0.7477  2.0985 -0.8168
    3MOL0     H  401  10.028   8.177   4.963 -0.3444  1.1276  1.3742
    3MOL0     H  402  10.055   8.032   5.052  0.6348 -2.6106 -2.4817
    3MOL0     H  403   9.676   8.176   5.176 -0.8818 -0.8139 -0.8983
    3MOL0     H  404   9.527   7.735   4.706 -0.3992 -1.6593  0.9158
    3MOL0     H  405   9.421   7.569   4.544 -1.7225 -0.9813  3.0815
    4MOL0     O  406   1.120   3.197   3.624  0.4376  0.2592 -0.0088
    4MOL0     C  407   1.236   3.160   3.630  0.3471 -0.1500 -0.2940
    4MOL0     O  408   1.285   3.074   3.723  0.3241 -0.3821 -0.2124
    4MOL0     C  409   1.220   3.048   3.846  0.3467  0.0539 -0.0447
    4MOL0     C  410   1.154   3.146   3.912  0.3098 -0.0998 -0.1533
    4MOL0     C  411   1.076   3.101   4.020  0.3457  0.7585 -0.0580
    4MOL0     C  412   1.078   2.971   4.075  0.2146 -1.0140  0.2781
    4MOL0     O  413   1.007   2.944   4.186 -0.5771  0.4518  1.3622
    4MOL0     C  414   0.975   3.050   4.271  0.5672  0.4703 -0.8731
    4MOL0     C  415   0.904   3.003   4.404 -0.2151  0.0885 -0.0526
    4MOL0     C  416   1.012   2.938   4.503  0.5503 -0.9152 -0.1886
    4MOL0     C  417   1.054   2.800   4.436  0.6567 -0.3485 -0.2694
    4MOL0     C  418   1.126   2.716   4.533 -0.1974  0.1320 -0.3338
    4MOL0     C  419   1.025   2.628   4.612  0.0702 -0.1237 -0.3119
    4MOL0     C  420   1.086   2.543   4.724  0.4684 -0.5987  0.0389
    4MOL0     C  421   1.232   2.509   4.705 -0.2052  0.0651 -0.2500
    4MOL0     N  422   1.271   2.402   4.790  0.7443  0.2919  0.2024
    4MOL0     C  423   1.223   2.269   4.771  1.0583 -0.3463  0.2627
    4MOL0     C  424   1.233   2.217   4.895  0.0796 -0.7198 -0.1106
    4MOL0     C  425   1.190   2.083   4.946 -0.0958  0.0274  0.6494
    4MOL0     C  426   1.201   1.974   4.836 -0.7581  0.5069 -0.8856
    4MOL0     C  427   1.076   1.953   4.741  0.2902 -0.2609  0.4260
    4MOL0     C  428   1.112   1.916   4.602  0.2821  1.3307 -0.6055
    4MOL0     O  429   1.162   2.024   4.524 -0.1179 -0.5473 -0.7002
    4MOL0     C  430   1.082   2.122   4.468 -0.2428 -0.5427  0.0622
    4MOL0     C  431   1.137   2.228   4.400 -0.1238 -0.2531 -0.3653
    4MOL0     C  432   1.066   2.334   4.334 -0.3391  0.0642 -0.0668
    4MOL0     C  433   1.149   2.432   4.260 -0.3766  0.3691  0.1932
    4MOL0     C  434   0.929   2.343   4.351  0.3207  0.9044 -0.9053
    4MOL0     C  435   0.852   2.446   4.282  1.0975  0.8887 -0.0869
    4MOL0     O  436   0.853   2.427   4.146  0.0582 -0.3610  0.7381
    4MOL0     C  437   0.774   2.514   4.072  0.3816  0.1846 -0.6317
    4MOL0     C  438   0.808   2.645   4.043 -0.4930 -0.7605  0.2704
    4MOL0     C  439   0.733   2.733   3.956 -0.6674 -0.0734  0.4351
    4MOL0     C  440   0.616   2.682   3.896 -1.3037  0.7505  0.0617
    4MOL0     O  441   0.559   2.767   3.811  0.6080  0.4441  0.0260
    4MOL0     C  442   0.442   2.727   3.741  0.6602 -0.3027 -0.6891
    4MOL0     C  443   0.399   2.842   3.656 -0.5859 -1.0619  0.7784
    4MOL0     C  444   0.287   2.808   3.560  0.1746 -0.1825  0.2958
    4MOL0     C  445   0.162   2.780   3.654 -0.3793 -0.3940  0.0829
    4MOL0     C  446   0.027   2.839   3.593 -0.2349  0.3042  0.0057
    4MOL0     C  447  -0.008   2.774   3.450  0.3712  0.3792 -0.4153
    4MOL0     C  448  -0.045   2.882   3.350 -0.7362 -0.7079 -0.7221
    4MOL0     C  449  -0.127   2.844   3.225 -1.2811  1.1922 -0.1137
    4MOL0    Cl  450  -0.118   2.976   3.109  0.3107  0.3854 -0.1219
    4MOL0     C  451   0.569   2.549   3.923 -0.3184 -0.6035 -0.7706
    4MOL0     C  452   0.647   2.482   4.018 -0.1308 -0.5712  0.4198
    4MOL0     O  453   0.766   2.508   4.349 -0.4923  0.0033  0.6340
    4MOL0     C  454   0.871   2.241   4.434 -0.4092 -0.8995  0.4438
    4MOL0     C  455   0.946   2.123   4.475 -0.1034  0.3112 -0.3552
    4MOL0     N  456   1.282   2.308   4.978 -0.4914  0.0613  0.4083
    4MOL0     N  457   1.318   2.414   4.919  0.0398 -0.2597  0.5850
    4MOL0     C  458   1.144   2.875   3.996  0.5979 -0.4656 -0.0171
    4MOL0     C  459   1.215   2.915   3.884 -1.3144  0.6185 -0.4655
    4MOL0     C  460   1.334   3.194   3.526 -0.1328  0.6784  0.0271
    4MOL0     C  461   1.468   3.230   3.550  0.3787  0.2030 -0.1107
    4MOL0     C  462   1.555   3.272   3.442  1.3853  0.0993 -0.2057
    4MOL0     C  463   1.517   3.276   3.310 -0.4902 -0.7441  0.5877
    4MOL0     O  464   1.600   3.327   3.214 -0.0316  0.4545 -0.2843
    4MOL0     C  465   1.631   3.472   3.229 -0.8633 -0.1129 -0.7950
    4MOL0     C  466   1.722   3.527   3.122 -0.0298  0.2798  0.0244
    4MOL0     C  467   1.850   3.445   3.094  0.2438 -0.3507 -0.5761
    4MOL0     C  468   1.934   3.493   2.978  0.2875  0.3899  0.8616
    4MOL0     C  469   2.052   3.406   2.956  1.3407  0.3399  0.3662
    4MOL0     C  470   2.134   3.320   2.920 -0.9672 -0.5671  0.3664
    4MOL0     C  471   1.388   3.247   3.290  0.0958  0.7033  0.3415
    4MOL0     C  472   1.290   3.201   3.393 -0.5725 -0.0327  0.7460
    4MOL0     H  473   1.148   3.247   3.874 -1.7504  0.7063  2.0651
    4MOL0     H  474   1.021   3.184   4.064 -2.7292 -0.5156 -1.2356
    4MOL0     H  475   1.067   3.104   4.295 -0.0424  0.8850  0.6594
    4MOL0     H  476   0.919   3.127   4.217  1.9456  1.9518 -0.2631
    4MOL0     H  477   0.850   3.079   4.460 -1.7255 -2.6943  2.5358
    4MOL0     H  478   0.833   2.929   4.365  2.6765 -2.9541  0.0454
    4MOL0     H  479   1.103   2.999   4.501 -0.4622  0.6675 -3.0685
    4MOL0     H  480   0.973   2.925   4.604  3.3389  0.2320  1.1502
    4MOL0     H  481   0.961   2.755   4.399  1.1581 -0.0940 -1.9208
    4MOL0     H  482   1.120   2.821   4.351 -1.7433  1.8889 -1.7204
    4MOL0     H  483   1.186   2.650   4.470 -3.7995  0.3572 -4.5242
    4MOL0     H  484   1.195   2.782   4.587 -0.9463  0.6495  0.0122
    4MOL0     H  485   0.958   2.698   4.663 -2.6978 -3.0353  0.3387
    4MOL0     H  486   0.965   2.565   4.546 -0.0477  0.2837 -0.5973
    4MOL0     H  487   1.061   2.588   4.821 -0.8207  2.2177 -1.4837
    4MOL0     H  488   1.026   2.452   4.725 -1.9881  0.9207 -1.1507
    4MOL0     H  489   1.290   2.602   4.717 -1.6782  1.2377 -1.7526
    4MOL0     H  490   1.246   2.475   4.602 -1.0369  0.6332 -0.5574
    4MOL0     H  491   1.159   2.223   4.696 -2.1711  2.0124  1.3427
    4MOL0     H  492   1.246   2.063   5.038 -0.5779  4.1937  2.0734
    4MOL0     H  493   1.082   2.092   4.964 -0.9663 -1.6613 -2.8883
    4MOL0     H  494   1.217   1.888   4.901  0.5041  2.5633  1.7414
    4MOL0     H  495   1.292   1.983   4.776 -0.3737 -0.9994 -0.5657
    4MOL0     H  496   1.013   2.042   4.734 -3.6649 -2.7428  0.8766
    4MOL0     H  497   1.015   1.875   4.789 -1.9553  2.5387  2.4613
    4MOL0     H  498   1.036   1.867   4.540  2.1174 -1.2267 -0.9784
    4MOL0     H  499   1.187   1.837   4.613 -2.2094 -1.1570 -0.3387
    4MOL0     H  500   1.245   2.231   4.401  0.0369  5.9780  0.5058
    4MOL0     H  501   1.097   2.504   4.197  0.8587  0.2602 -1.0018
    4MOL0     H  502   1.210   2.484   4.335 -0.7753 -0.6631  1.2780
    4MOL0     H  503   1.223   2.389   4.191 -1.0197  3.1190 -2.4183
    4MOL0     H  504   0.909   2.673   4.073 -0.8097 -0.9770  1.6032
    4MOL0     H  505   0.765   2.831   3.922 -0.2017  0.1669  1.4991
    4MOL0     H  506   0.460   2.641   3.676 -0.2583 -0.0563 -1.2922
    4MOL0     H  507   0.364   2.707   3.815 -0.7648 -0.1378 -2.0886
    4MOL0     H  508   0.377   2.936   3.708 -1.7818  0.6928 -2.6273
    4MOL0     H  509   0.487   2.862   3.594 -1.9308  2.6558 -0.1616
    4MOL0     H  510   0.312   2.732   3.485  2.0508  0.1469  0.5535
    4MOL0     H  511   0.254   2.893   3.499 -0.0917 -0.9183 -0.6052
    4MOL0     H  512   0.165   2.677   3.690  1.3806 -0.3298  0.2333
    4MOL0     H  513   0.159   2.838   3.747 -3.7412 -2.0561  1.1684
    4MOL0     H  514   0.050   2.946   3.593  1.2269  0.0322 -1.7701
    4MOL0     H  515  -0.062   2.816   3.652  0.5933  1.1146  1.6471
    4MOL0     H  516   0.074   2.715   3.410 -1.4246 -1.2152 -1.9601
    4MOL0     H  517  -0.089   2.701   3.456  2.5317 -2.1268 -0.2784
    4MOL0     H  518   0.052   2.919   3.316 -2.5684  2.8861 -2.5026
    4MOL0     H  519  -0.085   2.974   3.393 -0.8532 -0.1691 -1.9360
    4MOL0     H  520  -0.231   2.821   3.247 -2.2108 -0.0555 -4.8205
    4MOL0     H  521  -0.086   2.755   3.177 -5.7027 -0.3295 -1.4919
    4MOL0     H  522   0.483   2.506   3.874 -0.4730 -0.2926 -0.7751
    4MOL0     H  523   0.629   2.376   4.035 -1.2655  0.0907  4.3269
    4MOL0     H  524   0.764   2.244   4.453 -0.1102 -0.5315  2.2810
    4MOL0     H  525   0.898   2.034   4.514 -0.0833  1.2727  2.0604
    4MOL0     H  526   1.138   2.769   4.021  1.2011  0.0807  2.7267
    4MOL0     H  527   1.275   2.845   3.826 -1.8528 -0.0665 -0.2136
    4MOL0     H  528   1.521   3.234   3.645  3.3526 -3.8194 -1.3058
    4MOL0     H  529   1.654   3.310   3.465  2.3404 -0.4019 -3.0426
    4MOL0     H  530   1.536   3.528   3.228 -1.9183 -1.8319 -0.7127
    4MOL0     H  531   1.663   3.488   3.332 -0.9406 -4.4255  0.0609
    4MOL0     H  532   1.747   3.630   3.149  2.4901 -0.7970  2.2466
    4MOL0     H  533   1.670   3.526   3.026  3.0555 -0.1445 -1.7862
    4MOL0     H  534   1.822   3.341   3.073 -0.5363  0.1871 -2.3418
    4MOL0     H  535   1.917   3.460   3.180 -0.1612  1.7190 -0.5836
    4MOL0     H  536   1.956   3.597   3.003  0.3364  1.4962 -3.0977
    4MOL0     H  537   1.877   3.492   2.885  3.2154 -1.6004 -1.0781
    4MOL0     H  538   2.207   3.243   2.902  1.4319  1.5321  0.5333
    4MOL0     H  539   1.356   3.252   3.187  0.0155  4.5265  0.4266
    4MOL0     H  540   1.183   3.187   3.382 -0.2134 -1.4758 -1.3748
    5MOL0     O  541   6.360   3.309   9.923 -0.0840  0.3588 -0.5380
    5MOL0     C  542   6.432   3.328  10.017  0.3968 -0.4586 -0.2242
    5MOL0     O  543   6.470   3.457  10.057  0.3464  0.0593  0.1476
    5MOL0     C  544   6.411   3.566   9.997  0.3810 -0.0622  0.2863
    5MOL0     C  545   6.458   3.621   9.874 -0.1759 -0.1764 -0.1496
    5MOL0     C  546   6.392   3.723   9.806  0.6603 -0.4870  0.3020
    5MOL0     C  547   6.277   3.780   9.870 -0.2027  0.7509 -0.8359
    5MOL0     O  548   6.224   3.888   9.805  0.8883 -0.3664  0.8195
    5MOL0     C  549   6.096   3.858   9.758  0.4893 -0.6808  0.8321
    5MOL0     C  550   6.035   3.989   9.711  0.2114  0.4431  0.1739
    5MOL0     C  551   6.068   4.001   9.559 -0.0200 -0.0304 -0.6620
    5MOL0     C  552   6.090   4.146   9.526 -1.0650 -0.5867 -0.8119
    5MOL0     C  553   6.110   4.153   9.379  0.7892 -0.8632 -0.4603
    5MOL0     C  554   6.130   4.302   9.333  0.1410  0.5662  0.4868
    5MOL0     C  555   6.158   4.315   9.183  0.2345  0.3592 -0.0127
    5MOL0     C  556   6.023   4.294   9.116 -0.0381 -0.1067  0.0537
    5MOL0     N  557   5.927   4.402   9.139 -0.3324  0.4605  0.3571
    5MOL0     C  558   5.947   4.535   9.096  0.4793  0.5781  0.1358
    5MOL0     C  559   5.826   4.590   9.105 -0.9681  0.3068  0.4049
    5MOL0     C  560   5.807   4.736   9.080  1.0690  0.2882 -0.2701
    5MOL0     C  561   5.841   4.774   8.934  0.0537 -0.5564 -0.5798
    5MOL0     C  562   5.804   4.919   8.909  0.3736 -0.7751 -0.8324
    5MOL0     C  563   5.880   5.036   8.974 -0.4497  0.2649  0.5614
    5MOL0     O  564   5.832   5.050   9.109 -0.1801 -0.2095  0.1926
    5MOL0     C  565   5.872   5.153   9.183 -1.5292 -0.7823 -0.4668
    5MOL0     C  566   5.838   5.152   9.321 -0.2994 -0.0223 -0.0631
    5MOL0     C  567   5.876   5.254   9.416  0.5747 -0.8455  0.8536
    5MOL0     C  568   5.833   5.228   9.563 -0.1405  0.8997  0.0990
    5MOL0     C  569   5.955   5.370   9.361  0.0427  1.0338  0.6252
    5MOL0     C  570   5.994   5.485   9.445 -0.4843 -0.0883  0.1727
    5MOL0     O  571   6.029   5.465   9.576 -0.4254 -0.3878 -0.0491
    5MOL0     C  572   6.084   5.563   9.658  0.9197  0.2714 -0.3559
    5MOL0     C  573   6.070   5.696   9.654  0.2383 -0.0506 -0.0912
    5MOL0     C  574   6.145   5.785   9.732  0.2397 -0.3912 -0.1119
    5MOL0     C  575   6.241   5.741   9.814  0.7585  0.3429 -0.6814
    5MOL0     O  576   6.308   5.842   9.877 -0.1121  0.1833 -0.3525
    5MOL0     C  577   6.364   5.804  10.007  0.1217 -0.1849  0.6712
    5MOL0     C  578   6.366   5.928  10.093 -1.4792 -0.2121  0.2486
    5MOL0     C  579   6.231   5.997  10.106 -1.1957  0.1069 -0.0361
    5MOL0     C  580   6.129   5.905  10.157 -0.6451 -1.2311  0.3284
    5MOL0     C  581   6.002   5.988  10.189  0.3573  0.0899 -0.2318
    5MOL0     C  582   5.912   6.021  10.070 -0.2277  0.0962 -0.3616
    5MOL0     C  583   5.816   6.139  10.096  0.1572 -0.0331 -0.2847
    5MOL0     C  584   5.717   6.084  10.193  0.8681  0.6361 -0.1229
    5MOL0    Cl  585   5.602   6.218  10.219 -0.0616  0.0524  0.5564
    5MOL0     C  586   6.254   5.601   9.831  0.6655  0.3383  0.4188
    5MOL0     C  587   6.174   5.513   9.756  0.5291  1.0119  0.5562
    5MOL0     O  588   6.014   5.585   9.378  0.8771 -0.0896  0.0119
    5MOL0     C  589   5.975   5.371   9.216 -0.5778  0.1400  0.8921
    5MOL0     C  590   5.937   5.270   9.128  0.2480  0.2265 -0.7091
    5MOL0     N  591   5.735   4.503   9.157  0.3388 -0.3951  0.1842
    5MOL0     N  592   5.796   4.390   9.187 -0.4399  0.0045 -0.8682
    5MOL0     C  593   6.228   3.717   9.990 -0.4241 -1.2643  0.4206
    5MOL0     C  594   6.306   3.623  10.055  0.0114 -0.2441 -0.7268
    5MOL0     C  595   6.501   3.210  10.077 -0.6526  0.1105 -0.1819
    5MOL0     C  596   6.618   3.232  10.152  0.1610  1.0094  0.5563
    5MOL0     C  597   6.676   3.118  10.208 -0.2698  0.3339 -1.0717
    5MOL0     C  598   6.625   2.988  10.193 -0.7011 -0.3251 -1.1245
    5MOL0     O  599   6.698   2.884  10.265  0.0438 -0.0699 -0.3721
    5MOL0     C  600   6.642   2.750  10.257 -0.2450 -0.0193  0.2352
    5MOL0     C  601   6.720   2.646  10.321 -0.6633 -0.7134  0.0634
    5MOL0     C  602   6.869   2.661  10.292  0.6363  0.4129 -0.2418
    5MOL0     C  603   6.945   2.535  10.311 -0.3993 -0.5022 -0.2619
    5MOL0     C  604   6.945   2.493  10.453 -0.3361 -0.2043 -0.0896
    5MOL0     C  605   6.948   2.437  10.560 -0.8469 -0.2076  0.0255
    5MOL0     C  606   6.513   2.977  10.116  0.3233  0.6250  0.1001
    5MOL0     C  607   6.449   3.082  10.061  0.1642  0.5390  0.2295
    5MOL0     H  608   6.532   3.569   9.813  3.0922 -0.4614  3.6513
    5MOL0     H  609   6.411   3.761   9.706 -3.5261 -1.7422 -1.1686
    5MOL0     H  610   6.094   3.778   9.684 -2.0633  1.1482 -1.2342
    5MOL0     H  611   6.036   3.837   9.847 -1.4750  1.6179  0.1338
    5MOL0     H  612   5.928   3.975   9.723  0.4945 -0.1907  2.4326
    5MOL0     H  613   6.058   4.083   9.762 -1.5311  0.7127  0.5295
    5MOL0     H  614   6.152   3.945   9.517  0.1460  0.1060 -0.5071
    5MOL0     H  615   5.979   3.966   9.505  0.2572 -0.4448 -0.8544
    5MOL0     H  616   6.008   4.210   9.561 -0.0677  0.8256 -0.9818
    5MOL0     H  617   6.180   4.187   9.572 -2.1970 -0.1140  1.1041
    5MOL0     H  618   6.191   4.092   9.340  1.0733  0.5078 -2.1085
    5MOL0     H  619   6.019   4.106   9.341 -1.1299  0.9155  1.5706
    5MOL0     H  620   6.033   4.344   9.357 -0.6324  0.4419 -2.0836
    5MOL0     H  621   6.207   4.346   9.397  1.0858 -0.8831  0.3980
    5MOL0     H  622   6.198   4.411   9.148 -0.5878  0.7428  0.0853
    5MOL0     H  623   6.234   4.238   9.168 -2.2513 -2.3293  0.4415
    5MOL0     H  624   5.970   4.202   9.142  0.8958 -0.8558 -0.6381
    5MOL0     H  625   6.049   4.287   9.011 -1.6528 -0.0416 -0.3768
    5MOL0     H  626   6.035   4.592   9.070 -1.3225  3.1894 -0.6321
    5MOL0     H  627   5.705   4.765   9.107  0.8048  0.3489 -1.2812
    5MOL0     H  628   5.877   4.784   9.149  1.0849 -4.2053  3.2424
    5MOL0     H  629   5.787   4.702   8.872 -1.5728 -1.7431  2.0570
    5MOL0     H  630   5.945   4.756   8.904  0.9101 -0.3726  2.0261
    5MOL0     H  631   5.698   4.942   8.916  0.0998 -1.6454 -1.8669
    5MOL0     H  632   5.810   4.929   8.800 -0.9217  2.3228 -0.7122
    5MOL0     H  633   5.869   5.128   8.916  0.9000 -0.5130 -0.9798
    5MOL0     H  634   5.987   5.013   8.985 -0.0814  0.9971 -1.2069
    5MOL0     H  635   5.781   5.065   9.352 -0.1631 -0.7904 -1.8453
    5MOL0     H  636   5.913   5.198   9.632 -2.1727 -3.3456  0.9705
    5MOL0     H  637   5.787   5.314   9.613  0.9904  0.7610  1.4323
    5MOL0     H  638   5.754   5.152   9.569 -1.7440  2.3596 -1.4097
    5MOL0     H  639   6.003   5.756   9.592 -2.7762 -0.5091  2.4418
    5MOL0     H  640   6.108   5.885   9.716 -0.8347 -0.8888 -0.8473
    5MOL0     H  641   6.311   5.729  10.066  2.1640 -0.9760  1.5979
    5MOL0     H  642   6.463   5.761   9.987  2.0654  3.2942  1.9009
    5MOL0     H  643   6.391   5.894  10.194  1.7744 -5.2782 -1.8648
    5MOL0     H  644   6.437   5.995  10.044 -1.5543 -0.9493 -0.9055
    5MOL0     H  645   6.203   6.045  10.012 -0.2973  2.1574  0.6923
    5MOL0     H  646   6.235   6.076  10.181 -0.1850 -1.9280  2.1757
    5MOL0     H  647   6.102   5.829  10.083 -1.7572  0.0673 -0.6238
    5MOL0     H  648   6.162   5.849  10.245  1.0442  1.4171  1.4940
    5MOL0     H  649   6.022   6.083  10.239 -2.4692 -0.6735  2.7294
    5MOL0     H  650   5.942   5.933  10.263 -0.5278  0.3126 -0.7719
    5MOL0     H  651   5.978   6.050   9.988  0.1848  0.1229 -0.0245
    5MOL0     H  652   5.861   5.930  10.037  2.4529 -1.5039 -0.3489
    5MOL0     H  653   5.769   6.179  10.006 -1.5804  1.5617  1.2401
    5MOL0     H  654   5.864   6.221  10.149  0.3863  0.6247 -1.4916
    5MOL0     H  655   5.764   6.064  10.290  1.1132  3.2506  0.3878
    5MOL0     H  656   5.661   5.995  10.163  0.0323  1.4796 -1.1511
    5MOL0     H  657   6.340   5.577   9.893  1.1895  1.3615  0.1109
    5MOL0     H  658   6.187   5.405   9.755 -1.2174  0.7697  0.4838
    5MOL0     H  659   6.036   5.444   9.165  4.7319 -2.8965  2.0957
    5MOL0     H  660   5.955   5.289   9.023  0.5305  0.3542 -0.6387
    5MOL0     H  661   6.143   3.766  10.037  0.6139  0.5620  0.5110
    5MOL0     H  662   6.283   3.603  10.159 -0.9126  0.4673 -0.7756
    5MOL0     H  663   6.661   3.330  10.167  0.1617  1.2184 -0.6869
    5MOL0     H  664   6.770   3.138  10.258  1.1339 -2.0307 -2.5747
    5MOL0     H  665   6.544   2.748  10.305  0.4969 -1.4854  1.7727
    5MOL0     H  666   6.626   2.715  10.154  1.8613 -1.2697  0.2579
    5MOL0     H  667   6.675   2.553  10.283 -2.1042 -0.3588  0.8287
    5MOL0     H  668   6.698   2.652  10.428 -1.4394  1.4136 -0.1613
    5MOL0     H  669   6.906   2.745  10.352 -0.3267 -1.0691  2.5861
    5MOL0     H  670   6.881   2.683  10.186  0.3390 -0.9476 -0.5729
    5MOL0     H  671   7.048   2.543  10.275 -0.6307  0.1311 -0.8201
    5MOL0     H  672   6.895   2.459  10.250 -0.2263 -0.2173 -0.7666
    5MOL0     H  673   6.961   2.382  10.651  1.4894 -0.9132 -0.6507
    5MOL0     H  674   6.453   2.888  10.103 -2.8302  2.3474  1.7351
    5MOL0     H  675   6.356   3.071  10.006 -0.3598  1.9505  0.7992
    6MOL0     O  676   8.392   0.441   1.466 -0.7021  0.1594 -0.9007
    6MOL0     C  677   8.417   0.396   1.580 -0.5601 -0.2097 -0.4098
    6MOL0     O  678   8.515   0.442   1.667  0.1669  0.2396 -0.5666
    6MOL0     C  679   8.618   0.515   1.626  0.1578 -1.0448  0.6423
    6MOL0     C  680   8.676   0.511   1.497 -0.0342  0.0679  0.6115
    6MOL0     C  681   8.793   0.589   1.464 -0.3886  1.0569  0.3200
    6MOL0     C  682   8.856   0.662   1.566 -0.5466  0.1232 -0.2777
    6MOL0     O  683   8.974   0.726   1.523 -0.2516 -0.3560 -0.2125
    6MOL0     C  684   9.060   0.775   1.627  0.7984 -0.6338 -0.4082
    6MOL0     C  685   9.036   0.914   1.692 -0.5656  0.6930 -0.1057
    6MOL0     C  686   9.091   1.016   1.591 -0.0333 -0.2787 -0.4137
    6MOL0     C  687   9.063   1.169   1.607 -0.7446 -0.2009  0.0381
    6MOL0     C  688   8.904   1.179   1.614 -0.7251 -0.5839  0.7587
    6MOL0     C  689   8.848   1.322   1.590  0.4220 -0.3859  0.0152
    6MOL0     C  690   8.859   1.398   1.723 -0.1170 -0.0594  0.4763
    6MOL0     C  691   8.795   1.537   1.714 -0.9318 -0.3531 -0.1883
    6MOL0     N  692   8.804   1.624   1.831 -0.8230  0.0990 -0.2240
    6MOL0     C  693   8.720   1.616   1.943  0.2392 -0.7380  0.8991
    6MOL0     C  694   8.761   1.726   2.006 -0.2877 -0.4026 -0.3587
    6MOL0     C  695   8.716   1.761   2.139  0.0572 -0.0212 -0.1776
    6MOL0     C  696   8.816   1.763   2.250  0.6141 -0.2293  0.3222
    6MOL0     C  697   8.866   1.620   2.284 -0.3481  0.2499 -0.1595
    6MOL0     C  698   8.750   1.525   2.334 -0.7974 -0.4392  0.2440
    6MOL0     O  699   8.806   1.412   2.399 -0.2358 -0.4396  0.1050
    6MOL0     C  700   8.865   1.304   2.331 -0.0005 -0.5756  0.6124
    6MOL0     C  701   8.877   1.290   2.197 -0.0872 -0.3082  0.4820
    6MOL0     C  702   8.915   1.172   2.140 -0.6232  0.6266 -0.4318
    6MOL0     C  703   8.926   1.163   1.999  0.6909 -0.5445  0.3546
    6MOL0     C  704   8.937   1.056   2.227  0.3856  0.4270 -0.1613
    6MOL0     C  705   8.945   0.925   2.179 -0.6413  0.0944 -0.3131
    6MOL0     O  706   9.043   0.851   2.249  0.4431  0.0815  0.1942
    6MOL0     C  707   9.095   0.746   2.183  0.4682  0.2041  0.6846
    6MOL0     C  708   9.185   0.763   2.081 -0.5071 -0.4359 -0.3401
    6MOL0     C  709   9.220   0.654   2.001  0.9175  0.6873 -0.4436
    6MOL0     C  710   9.176   0.526   2.024 -0.9042 -0.3409 -1.6319
    6MOL0     O  711   9.223   0.426   1.946  0.0631 -0.2957  0.2609
    6MOL0     C  712   9.120   0.325   1.928 -0.5287 -0.3907  0.7468
    6MOL0     C  713   9.193   0.205   1.863  0.1848  0.4168  0.0600
    6MOL0     C  714   9.262   0.251   1.732 -0.0391  0.3117  0.1398
    6MOL0     C  715   9.340   0.127   1.671 -0.4187 -0.2141  0.3652
    6MOL0     C  716   9.352   0.128   1.513 -0.2123 -0.1584  0.1547
    6MOL0     C  717   9.429   0.002   1.466 -0.5800  1.2682  0.8856
    6MOL0     C  718   9.413  -0.029   1.311 -0.2629 -0.8342 -0.4582
    6MOL0     C  719   9.456   0.093   1.215  0.1797  0.1437 -0.6040
    6MOL0    Cl  720   9.440   0.079   1.042 -0.0099 -0.4486  0.5828
    6MOL0     C  721   9.095   0.510   2.144  0.9642 -0.0019 -0.1573
    6MOL0     C  722   9.043   0.623   2.216  1.1909 -0.4931 -0.2772
    6MOL0     O  723   8.883   0.887   2.078 -0.1388 -0.1976  0.6931
    6MOL0     C  724   8.945   1.077   2.363  0.0914 -0.0027  0.0060
    6MOL0     C  725   8.905   1.198   2.409  0.6703  0.2688 -0.6203
    6MOL0     N  726   8.867   1.788   1.949  0.2209 -0.0019  0.2356
    6MOL0     N  727   8.886   1.731   1.837  0.1165 -0.2540 -0.1509
    6MOL0     C  728   8.805   0.669   1.700 -0.3742  0.2211 -0.6894
    6MOL0     C  729   8.693   0.591   1.724  0.3024  1.4378  0.1922
    6MOL0     C  730   8.321   0.300   1.634  0.9233 -0.2379 -0.6417
    6MOL0     C  731   8.369   0.197   1.721 -0.7044 -0.6766 -1.2029
    6MOL0     C  732   8.280   0.093   1.761  0.2087 -1.1201  0.3043
    6MOL0     C  733   8.147   0.091   1.717  0.5178  0.5646 -0.6552
    6MOL0     O  734   8.071  -0.006   1.774  0.2745  0.8409  0.8345
    6MOL0     C  735   7.969  -0.073   1.702 -0.5438  0.4070 -0.3446
    6MOL0     C  736   7.941  -0.213   1.755 -0.5625  0.8480  1.3176
    6MOL0     C  737   7.824  -0.278   1.680 -1.0142 -0.0077 -0.8499
    6MOL0     C  738   7.803  -0.426   1.723 -0.0393 -0.1338  0.1980
    6MOL0     C  739   7.666  -0.464   1.736  0.3834  0.6133 -0.2010
    6MOL0     C  740   7.552  -0.512   1.731 -0.7109  0.2103  0.3513
    6MOL0     C  741   8.094   0.182   1.633 -0.3892 -0.1612 -0.3130
    6MOL0     C  742   8.178   0.295   1.597 -0.1360  0.0484  0.4609
    6MOL0     H  743   8.641   0.444   1.419 -0.2968 -0.0852  0.8640
    6MOL0     H  744   8.840   0.595   1.366 -0.1384  1.0420  0.4366
    6MOL0     H  745   9.060   0.707   1.712  1.1411  0.7089  0.6951
    6MOL0     H  746   9.163   0.765   1.591  0.2634 -2.1974 -1.6405
    6MOL0     H  747   8.928   0.922   1.707 -0.5081  1.0930  0.0961
    6MOL0     H  748   9.087   0.918   1.788 -2.8348 -0.4646  1.2323
    6MOL0     H  749   9.199   1.009   1.576  0.0152 -0.9345  0.1668
    6MOL0     H  750   9.053   0.982   1.494  0.8400  0.5343 -1.0508
    6MOL0     H  751   9.099   1.214   1.700 -1.7512  1.6215 -0.3893
    6MOL0     H  752   9.092   1.225   1.517 -1.2427 -2.1095 -1.3904
    6MOL0     H  753   8.859   1.118   1.535  1.7036 -3.9779  1.7641
    6MOL0     H  754   8.873   1.128   1.706 -0.4129 -1.9919  0.1237
    6MOL0     H  755   8.893   1.373   1.504  2.4630 -0.2870  1.0851
    6MOL0     H  756   8.741   1.310   1.567  0.2471  1.9723 -0.6211
    6MOL0     H  757   8.809   1.347   1.806 -1.1622  0.9265  0.4759
    6MOL0     H  758   8.965   1.399   1.748  0.0611  1.5461 -0.2897
    6MOL0     H  759   8.690   1.520   1.687 -1.2888  2.2011 -0.7314
    6MOL0     H  760   8.850   1.587   1.634 -0.4403  1.2583  1.1043
    6MOL0     H  761   8.642   1.542   1.963  1.1307 -2.1184 -0.4605
    6MOL0     H  762   8.677   1.862   2.129  1.8742  0.7991  0.5699
    6MOL0     H  763   8.625   1.707   2.166  0.5042 -1.4484 -1.3521
    6MOL0     H  764   8.756   1.794   2.337 -1.2512 -0.9033 -0.6591
    6MOL0     H  765   8.904   1.825   2.232 -0.3561  1.1240  0.0757
    6MOL0     H  766   8.941   1.624   2.364  2.2839  0.2396 -2.4857
    6MOL0     H  767   8.919   1.569   2.204 -3.1187 -2.5255 -0.4290
    6MOL0     H  768   8.674   1.506   2.257  0.7428 -1.8755 -0.9957
    6MOL0     H  769   8.707   1.581   2.418  1.5498  1.5215  0.2668
    6MOL0     H  770   8.850   1.368   2.126  0.5911  0.0395  0.5983
    6MOL0     H  771   8.961   1.259   1.963 -0.0733  0.2750  1.6918
    6MOL0     H  772   8.986   1.082   1.956 -2.6170 -3.0486  0.0116
    6MOL0     H  773   8.824   1.143   1.963  0.1818  0.2558  1.2942
    6MOL0     H  774   9.234   0.859   2.069 -0.8336 -0.3544 -1.0286
    6MOL0     H  775   9.288   0.656   1.916  2.1829  2.0404  0.5501
    6MOL0     H  776   9.067   0.291   2.018  0.0210 -2.0703  0.4820
    6MOL0     H  777   9.046   0.364   1.857  2.4243 -0.1662 -2.4456
    6MOL0     H  778   9.251   0.140   1.929 -3.6796 -2.1972  1.2258
    6MOL0     H  779   9.116   0.137   1.827 -0.0059 -0.3762  1.8447
    6MOL0     H  780   9.337   0.328   1.754 -2.1156  3.2333 -2.2833
    6MOL0     H  781   9.186   0.281   1.660  0.3027  1.0618  0.0866
    6MOL0     H  782   9.441   0.138   1.712 -0.2484 -0.2709 -0.0370
    6MOL0     H  783   9.300   0.030   1.700  1.6653 -1.3292 -0.3261
    6MOL0     H  784   9.406   0.217   1.479 -0.6623  1.1039  2.5036
    6MOL0     H  785   9.252   0.138   1.470 -0.7904 -1.5214  1.1044
    6MOL0     H  786   9.535   0.021   1.482 -0.2685  0.6824 -0.3503
    6MOL0     H  787   9.402  -0.075   1.539  3.7898 -1.0803  0.3009
    6MOL0     H  788   9.306  -0.052   1.300  0.4023 -4.6887 -0.2186
    6MOL0     H  789   9.469  -0.120   1.289  0.6955 -0.7539  1.4683
    6MOL0     H  790   9.563   0.108   1.234 -0.2617  3.0018  0.1163
    6MOL0     H  791   9.407   0.185   1.250  0.9271 -0.1248  1.2799
    6MOL0     H  792   9.059   0.409   2.163  1.1938 -0.4022 -1.7396
    6MOL0     H  793   8.964   0.606   2.288  2.9403 -2.3901  1.3480
    6MOL0     H  794   8.973   1.000   2.434 -0.1642  1.1443  1.3908
    6MOL0     H  795   8.877   1.219   2.511 -2.1076  1.2400 -1.5074
    6MOL0     H  796   8.849   0.722   1.784 -1.2115 -1.5090  0.8939
    6MOL0     H  797   8.663   0.581   1.828  1.8777 -2.8799  0.4190
    6MOL0     H  798   8.476   0.199   1.737 -0.7182  0.3889 -1.1720
    6MOL0     H  799   8.317   0.014   1.825  1.4489 -0.7573  0.0513
    6MOL0     H  800   7.874  -0.019   1.707 -0.4423  0.8457 -2.4860
    6MOL0     H  801   7.997  -0.076   1.596 -0.4885  0.5454 -0.3355
    6MOL0     H  802   7.924  -0.211   1.863 -0.3089  3.4896  1.3746
    6MOL0     H  803   8.033  -0.270   1.743 -1.3743 -0.2208 -0.0032
    6MOL0     H  804   7.836  -0.269   1.571 -1.0008  0.3461 -0.8223
    6MOL0     H  805   7.731  -0.226   1.708 -2.3609 -1.8986 -1.6087
    6MOL0     H  806   7.848  -0.448   1.820  0.0343 -1.3788 -0.1051
    6MOL0     H  807   7.847  -0.487   1.644 -1.4749 -1.3371  0.2847
    6MOL0     H  808   7.454  -0.554   1.741 -1.1708  1.3200  0.7827
    6MOL0     H  809   7.999   0.168   1.583  0.0004  0.0625 -1.1424
    6MOL0     H  810   8.141   0.369   1.526  1.8824 -0.0888 -0.8026
    7MOL0     O  811   3.606   4.170   4.574  0.3197 -1.0504  0.2675
    7MOL0     C  812   3.653   4.226   4.677 -0.4665  0.5693 -0.2354
    7MOL0     O  813   3.602   4.334   4.732 -0.0133 -0.5771  0.5471
    7MOL0     C  814   3.484   4.389   4.678 -0.3563  0.3651 -0.2411
    7MOL0     C  815   3.472   4.468   4.563 -0.4552 -0.5127  0.1221
    7MOL0     C  816   3.341   4.519   4.533  0.4307  0.1290  0.1284
    7MOL0     C  817   3.231   4.506   4.614 -0.3272  0.0302 -0.3418
    7MOL0     O  818   3.120   4.576   4.573 -0.7333 -0.0445 -0.3278
    7MOL0     C  819   3.001   4.567   4.654  0.2363 -0.4702 -0.4740
    7MOL0     C  820   2.878   4.622   4.581  0.4519 -0.3348 -0.0944
    7MOL0     C  821   2.876   4.565   4.443 -0.5587 -0.0662  0.2358
    7MOL0     C  822   2.850   4.413   4.433  0.2449  0.3112 -0.5313
    7MOL0     C  823   2.818   4.380   4.284 -0.1207  1.2415 -0.8858
    7MOL0     C  824   2.944   4.346   4.202 -1.0917  0.5968 -0.4629
    7MOL0     C  825   2.887   4.302   4.065 -0.2294 -0.3795 -0.5319
    7MOL0     C  826   2.999   4.239   3.971  0.8617  0.6140 -0.1345
    7MOL0     N  827   2.950   4.183   3.846 -0.5093  0.8101 -0.3527
    7MOL0     C  828   2.886   4.253   3.742  0.1093 -0.3398  0.5548
    7MOL0     C  829   2.821   4.158   3.679 -0.1276 -0.6063 -0.6111
    7MOL0     C  830   2.750   4.181   3.557 -0.7649  0.0655  0.9543
    7MOL0     C  831   2.840   4.217   3.434  0.6099 -0.2157 -0.2769
    7MOL0     C  832   2.942   4.115   3.383 -1.0411  1.3275 -0.5670
    7MOL0     C  833   2.900   3.996   3.284  0.9045 -0.7523  0.4893
    7MOL0     O  834   2.840   3.883   3.348  1.0756 -0.3292 -0.5177
    7MOL0     C  835   2.934   3.789   3.386 -1.1341 -0.0480  0.0852
    7MOL0     C  836   3.012   3.797   3.501  0.1649  0.0594 -0.3648
    7MOL0     C  837   3.122   3.717   3.523  0.1481 -0.1567 -0.3475
    7MOL0     C  838   3.188   3.737   3.661  1.2566 -0.2273 -0.4174
    7MOL0     C  839   3.162   3.614   3.431  0.4294  0.1489 -0.6379
    7MOL0     C  840   3.264   3.515   3.462 -1.2407  0.1930 -0.0043
    7MOL0     O  841   3.341   3.515   3.571 -0.0304  0.1900  1.0696
    7MOL0     C  842   3.467   3.463   3.556  0.4274  0.7766 -0.0146
    7MOL0     C  843   3.496   3.349   3.636 -0.1969 -0.9705  0.3444
    7MOL0     C  844   3.609   3.272   3.589 -0.0355 -0.0099 -0.6974
    7MOL0     C  845   3.690   3.315   3.490  0.0009 -0.2346  0.0899
    7MOL0     O  846   3.778   3.223   3.456 -0.0926  0.4100  0.1923
    7MOL0     C  847   3.862   3.241   3.327 -0.4084 -0.1288 -0.2107
    7MOL0     C  848   3.914   3.105   3.281 -0.4467 -1.2781  0.0309
    7MOL0     C  849   3.811   3.004   3.264  0.1841  0.1970  0.7137
    7MOL0     C  850   3.860   2.874   3.193 -0.3779  0.0765  0.0196
    7MOL0     C  851   3.868   2.882   3.042 -0.2379 -1.3078  0.5652
    7MOL0     C  852   3.737   2.912   2.969 -0.1212 -0.0409 -0.2141
    7MOL0     C  853   3.745   2.914   2.815  0.3119 -0.3038  0.0410
    7MOL0     C  854   3.613   2.956   2.744 -0.3328 -0.3098 -1.0280
    7MOL0    Cl  855   3.594   2.904   2.570 -0.0466 -0.0687  0.0668
    7MOL0     C  856   3.668   3.435   3.427  0.5847 -0.4969 -0.5243
    7MOL0     C  857   3.557   3.515   3.459  0.9107  0.3673 -0.3121
    7MOL0     O  858   3.276   3.429   3.376  0.1176  0.2243  0.5023
    7MOL0     C  859   3.066   3.596   3.317 -0.3236  1.4850 -0.8001
    7MOL0     C  860   2.964   3.689   3.294 -0.1623 -0.0085  0.1184
    7MOL0     N  861   2.835   4.036   3.740  0.0425  0.8145 -0.7481
    7MOL0     N  862   2.916   4.054   3.843  0.9944  0.3318  0.3613
    7MOL0     C  863   3.247   4.426   4.730  0.1874  0.1278  0.6034
    7MOL0     C  864   3.369   4.370   4.757 -0.2395  0.2287 -0.6209
    7MOL0     C  865   3.786   4.180   4.722 -0.2280  0.7561  0.7608
    7MOL0     C  866   3.843   4.053   4.692 -0.6989 -0.5191 -0.1767
    7MOL0     C  867   3.965   4.012   4.726 -0.3127 -0.6352 -0.2371
    7MOL0     C  868   4.036   4.090   4.814  0.6161 -0.0270  0.1026
    7MOL0     O  869   4.159   4.036   4.850  0.2498  0.0286 -0.4516
    7MOL0     C  870   4.259   4.132   4.908  0.6840 -0.5162  0.3471
    7MOL0     C  871   4.387   4.065   4.954 -0.0719 -0.0926  0.2123
    7MOL0     C  872   4.514   4.150   4.941  0.1798  0.0886 -0.1798
    7MOL0     C  873   4.503   4.274   5.034  0.6325 -0.3763 -0.0377
    7MOL0     C  874   4.615   4.354   4.986  0.0346  0.0356  0.8133
    7MOL0     C  875   4.714   4.419   4.939  0.4133 -0.4612  0.2671
    7MOL0     C  876   3.986   4.210   4.858  0.0738 -0.4186 -0.5178
    7MOL0     C  877   3.859   4.258   4.813  0.1412  0.3673 -0.1385
    7MOL0     H  878   3.544   4.492   4.485 -2.7750  2.5140 -1.3043
    7MOL0     H  879   3.333   4.588   4.449 -0.0962  0.7678  0.6930
    7MOL0     H  880   2.970   4.463   4.664  0.9089 -0.5922  0.4102
    7MOL0     H  881   3.017   4.623   4.747 -0.1095 -1.2191  0.0437
    7MOL0     H  882   2.786   4.602   4.637  0.5667 -1.3047 -0.2372
    7MOL0     H  883   2.881   4.730   4.565 -0.6774 -0.2473  0.1796
    7MOL0     H  884   2.796   4.619   4.391 -1.3160 -0.1475  1.2954
    7MOL0     H  885   2.972   4.588   4.395 -0.2888 -1.1444  0.2439
    7MOL0     H  886   2.933   4.350   4.466 -0.1107 -1.0214 -2.0311
    7MOL0     H  887   2.770   4.380   4.500 -1.8889  0.1686 -2.9994
    7MOL0     H  888   2.761   4.287   4.283  0.0334  1.1185 -2.9547
    7MOL0     H  889   2.747   4.455   4.248 -1.8048  0.4509  0.6421
    7MOL0     H  890   3.019   4.425   4.210 -0.0619 -0.4159  0.2923
    7MOL0     H  891   3.012   4.269   4.240  2.4029  2.8529 -1.6410
    7MOL0     H  892   2.801   4.236   4.081 -0.6954  0.7219  1.8201
    7MOL0     H  893   2.847   4.394   4.020  0.1259 -0.2895 -0.6665
    7MOL0     H  894   3.038   4.160   4.037 -2.5118  0.7244  2.2031
    7MOL0     H  895   3.092   4.296   3.960  1.7861 -0.1220  2.9457
    7MOL0     H  896   2.890   4.359   3.720  1.5859 -0.5090 -0.0599
    7MOL0     H  897   2.696   4.088   3.541  0.3656 -0.6161  0.9433
    7MOL0     H  898   2.683   4.264   3.580 -1.4792  0.9027 -3.3414
    7MOL0     H  899   2.894   4.309   3.457  0.0586  0.8486 -2.9208
    7MOL0     H  900   2.780   4.244   3.347  2.6167  2.2634 -1.0016
    7MOL0     H  901   3.000   4.069   3.464 -0.5689  0.3108 -1.4669
    7MOL0     H  902   3.010   4.178   3.326 -0.1886  1.3478  0.4364
    7MOL0     H  903   2.991   3.969   3.230  0.0718 -0.3833 -1.1844
    7MOL0     H  904   2.831   4.031   3.206  0.6253  1.3435  1.6126
    7MOL0     H  905   2.974   3.865   3.577 -0.6985  0.9771 -1.5899
    7MOL0     H  906   3.157   3.828   3.714  3.0037 -0.9171  1.9771
    7MOL0     H  907   3.169   3.657   3.734 -0.6773 -0.0675 -0.6981
    7MOL0     H  908   3.294   3.755   3.645  0.9381  1.3431 -0.9158
    7MOL0     H  909   3.441   3.309   3.721  0.1122 -1.8891  0.1344
    7MOL0     H  910   3.642   3.178   3.634 -1.6733 -1.5712 -2.5517
    7MOL0     H  911   3.800   3.282   3.247  0.0734 -2.4361 -1.8628
    7MOL0     H  912   3.952   3.301   3.342  1.2942 -2.1124 -2.0079
    7MOL0     H  913   3.971   3.123   3.190  1.1527 -0.9967  1.0461
    7MOL0     H  914   3.987   3.059   3.349  3.9156  1.7511 -2.1406
    7MOL0     H  915   3.724   3.045   3.211 -2.2508 -3.7397  1.2669
    7MOL0     H  916   3.779   2.983   3.366  2.1085 -1.3139  1.0665
    7MOL0     H  917   3.960   2.838   3.221  0.3861 -0.7661 -3.3711
    7MOL0     H  918   3.787   2.793   3.200 -2.6877  1.9140 -1.4546
    7MOL0     H  919   3.909   2.792   2.996  0.7578  0.4758 -2.2750
    7MOL0     H  920   3.942   2.957   3.012 -0.6810 -0.5292  1.3569
    7MOL0     H  921   3.666   2.833   2.996 -0.7640  0.6247  0.0841
    7MOL0     H  922   3.688   3.006   2.996  0.4903 -0.0992  1.1901
    7MOL0     H  923   3.766   2.814   2.777  0.0148 -0.5545  0.5182
    7MOL0     H  924   3.827   2.979   2.783  0.2055 -0.9050 -1.5282
    7MOL0     H  925   3.596   3.064   2.744  2.7330  0.3545  2.2144
    7MOL0     H  926   3.530   2.909   2.798  0.1462  0.8195  0.7888
    7MOL0     H  927   3.726   3.477   3.346 -2.2333  1.6615 -1.5686
    7MOL0     H  928   3.529   3.604   3.403 -0.9718 -1.6116 -2.7793
    7MOL0     H  929   3.071   3.509   3.252 -1.0614 -0.4797  1.6253
    7MOL0     H  930   2.888   3.681   3.218  0.1542 -0.7817 -0.1292
    7MOL0     H  931   3.168   4.415   4.804  0.2530 -1.3828  0.4808
    7MOL0     H  932   3.380   4.325   4.855  1.6612 -0.8060 -1.2638
    7MOL0     H  933   3.786   3.991   4.624  2.1058 -0.4895 -2.7377
    7MOL0     H  934   4.008   3.918   4.693  1.7962  0.2950 -0.3185
    7MOL0     H  935   4.283   4.207   4.833  0.7121 -0.9646 -0.0994
    7MOL0     H  936   4.210   4.195   4.983 -2.1913  0.2709 -2.0183
    7MOL0     H  937   4.397   3.974   4.893  1.0857  0.1551 -0.0012
    7MOL0     H  938   4.377   4.042   5.060  2.7889  0.1755  0.6351
    7MOL0     H  939   4.517   4.187   4.838  2.8745 -0.3189 -0.3238
    7MOL0     H  940   4.609   4.107   4.972  0.5845  1.5025  0.6451
    7MOL0     H  941   4.519   4.243   5.137  2.6584 -0.0145 -0.2029
    7MOL0     H  942   4.410   4.331   5.022  0.7789 -0.5104 -2.2011
    7MOL0     H  943   4.798   4.469   4.897 -1.6768  2.2081 -1.0991
    7MOL0     H  944   4.034   4.278   4.927 -3.9474  0.9569  1.2348
    7MOL0     H  945   3.823   4.358   4.833  1.3734  1.6230 -3.6337
    8MOL0     O  946   0.601   2.133  10.187  0.3430 -0.4627 -0.2893
    8MOL0     C  947   0.689   2.058  10.233  0.4431  0.7263 -0.0379
    8MOL0     O  948   0.782   2.091  10.316 -0.7888  0.0010 -0.0425
    8MOL0     C  949   0.794   2.228  10.344  0.3185 -0.6088  0.5528
    8MOL0     C  950   0.772   2.273  10.471  0.8732 -0.0536  0.0800
    8MOL0     C  951   0.794   2.418  10.485 -1.1096 -0.0796  0.5748
    8MOL0     C  952   0.846   2.500  10.381  0.7225  1.1000  0.7002
    8MOL0     O  953   0.869   2.631  10.406  0.2853 -0.6224  0.3596
    8MOL0     C  954   0.839   2.727  10.304 -0.2541 -0.5321  0.1910
    8MOL0     C  955   0.968   2.796  10.263 -0.4328  0.2536  0.9739
    8MOL0     C  956   1.067   2.701  10.194 -0.6492 -0.1702  0.6338
    8MOL0     C  957   1.197   2.770  10.155 -0.1997  0.3450  0.0698
    8MOL0     C  958   1.281   2.679  10.063 -0.4202 -0.2820 -0.7961
    8MOL0     C  959   1.361   2.749   9.958 -0.0059  0.9186  0.1244
    8MOL0     C  960   1.500   2.804  10.002  0.0782 -0.2246 -0.4128
    8MOL0     C  961   1.547   2.929   9.926 -0.3889 -0.5825  0.1325
    8MOL0     N  962   1.550   2.904   9.780 -0.3006 -0.0769 -0.0262
    8MOL0     C  963   1.586   2.789   9.725  0.1641  0.0427  0.2846
    8MOL0     C  964   1.595   2.818   9.588 -0.0203 -0.2529 -1.0328
    8MOL0     C  965   1.639   2.718   9.476 -0.3518 -0.3787  0.3555
    8MOL0     C  966   1.789   2.692   9.478  0.1254 -0.2703 -0.1230
    8MOL0     C  967   1.832   2.609   9.355 -0.3320 -0.0971  0.5362
    8MOL0     C  968   1.982   2.577   9.345 -0.5341  0.5256  0.2065
    8MOL0     O  969   2.003   2.498   9.224  0.3260 -0.5110  0.4662
    8MOL0     C  970   2.129   2.447   9.195 -0.1812 -0.6815 -0.6666
    8MOL0     C  971   2.242   2.493   9.257  0.2235 -0.3091  0.6059
    8MOL0     C  972   2.367   2.430   9.227 -0.3186 -0.5185  1.9271
    8MOL0     C  973   2.483   2.501   9.284 -0.6479  0.0866 -1.2491
    8MOL0     C  974   2.375   2.312   9.147 -0.3516  0.1790  0.4282
    8MOL0     C  975   2.502   2.240   9.131  0.1194 -0.3838  0.8825
    8MOL0     O  976   2.500   2.141   9.027  0.0102 -0.4976 -0.0887
    8MOL0     C  977   2.573   2.027   9.048 -0.3616  0.0485 -0.0260
    8MOL0     C  978   2.704   2.007   8.984  0.8544 -0.6579 -0.1007
    8MOL0     C  979   2.765   1.880   8.981  0.2889  0.0079  0.2182
    8MOL0     C  980   2.696   1.771   9.046 -0.3083  0.0989 -0.9895
    8MOL0     O  981   2.761   1.647   9.052  0.0731 -0.0692 -0.2416
    8MOL0     C  982   2.844   1.610   8.947 -0.9399  0.0662 -0.4777
    8MOL0     C  983   2.835   1.454   8.938  1.1067 -0.1814  0.3132
    8MOL0     C  984   2.901   1.386   9.063 -0.4398  0.2166 -0.2278
    8MOL0     C  985   2.905   1.239   9.036 -0.2127  0.7773 -0.3397
    8MOL0     C  986   2.901   1.141   9.150 -0.2558 -0.9089 -0.4333
    8MOL0     C  987   2.907   0.996   9.102  0.5867  0.1146 -0.3929
    8MOL0     C  988   2.883   0.881   9.196  0.0140 -0.9202 -0.7886
    8MOL0     C  989   2.976   0.880   9.323 -0.5198 -0.3223  0.3616
    8MOL0    Cl  990   2.961   0.728   9.409  0.3138  0.1690  0.0453
    8MOL0     C  991   2.576   1.789   9.108  0.2006  0.0991 -1.2003
    8MOL0     C  992   2.515   1.918   9.118  0.1009 -0.7421  0.0669
    8MOL0     O  993   2.599   2.257   9.212 -1.0178  0.4479  0.9814
    8MOL0     C  994   2.253   2.269   9.088  0.8917  0.0910 -0.0970
    8MOL0     C  995   2.135   2.340   9.115 -0.3428  0.0159 -0.1845
    8MOL0     N  996   1.555   2.947   9.565 -0.1356  0.1660  0.0675
    8MOL0     N  997   1.533   2.997   9.682 -0.0317  0.3362 -0.6352
    8MOL0     C  998   0.849   2.451  10.252  0.1729  0.5743  0.4587
    8MOL0     C  999   0.816   2.319  10.240  0.6757 -0.5487 -0.6708
    8MOL0     C 1000   0.686   1.916  10.193 -0.1526 -0.4330 -0.0849
    8MOL0     C 1001   0.588   1.867  10.101  0.3893 -0.1545  0.5333
    8MOL0     C 1002   0.595   1.741  10.043 -0.3940  1.3028  0.2955
    8MOL0     C 1003   0.700   1.656  10.083 -0.3480 -0.5917 -0.6738
    8MOL0     O 1004   0.710   1.526  10.025  0.6479  0.0099 -0.3436
    8MOL0     C 1005   0.756   1.519   9.891 -0.2258  0.9551  0.8494
    8MOL0     C 1006   0.686   1.397   9.828  0.5484  0.1613  0.3675
    8MOL0     C 1007   0.550   1.422   9.763  0.5307 -0.4764 -0.4529
    8MOL0     C 1008   0.427   1.444   9.859  0.0740 -0.2261 -0.0768
    8MOL0     C 1009   0.315   1.537   9.820 -0.4159 -0.2571  0.2128
    8MOL0     C 1010   0.231   1.613   9.785 -0.7590 -0.2533 -0.2893
    8MOL0     C 1011   0.794   1.694  10.176 -0.6041  0.2506  0.2912
    8MOL0     C 1012   0.791   1.825  10.233  0.5082  0.1309  0.0157
    8MOL0     H 1013   0.763   2.203  10.553 -0.7237  0.9387  0.8002
    8MOL0     H 1014   0.777   2.464  10.582 -2.9759  0.7841 -0.1114
    8MOL0     H 1015   0.798   2.677  10.216 -2.2084  0.2764  0.5929
    8MOL0     H 1016   0.773   2.804  10.345 -1.1974 -0.9054 -0.5929
    8MOL0     H 1017   0.936   2.868  10.187 -3.7035 -1.2366  0.7214
    8MOL0     H 1018   1.009   2.845  10.352  1.1398 -0.1476  0.4889
    8MOL0     H 1019   1.086   2.612  10.255 -2.7870 -1.0820  0.0809
    8MOL0     H 1020   1.015   2.665  10.105 -2.8233  0.5078  1.5651
    8MOL0     H 1021   1.165   2.864  10.108  0.3112  0.7515  0.5210
    8MOL0     H 1022   1.251   2.799  10.245 -1.8786  2.3215  0.5143
    8MOL0     H 1023   1.358   2.617  10.109  1.8365  0.5683 -3.2020
    8MOL0     H 1024   1.216   2.608  10.011  1.5592 -1.8207 -1.2870
    8MOL0     H 1025   1.377   2.678   9.876 -3.1030 -3.1925  2.7000
    8MOL0     H 1026   1.307   2.836   9.920 -0.9641  1.0708  1.7862
    8MOL0     H 1027   1.501   2.830  10.108 -3.5266 -0.0434 -0.2788
    8MOL0     H 1028   1.572   2.725   9.979  1.5088  1.1048 -0.6172
    8MOL0     H 1029   1.648   2.949   9.963  0.1114 -2.1758 -0.2964
    8MOL0     H 1030   1.485   3.019   9.933  0.2007 -0.1165 -0.5319
    8MOL0     H 1031   1.622   2.700   9.776 -1.7103  0.1207  1.8426
    8MOL0     H 1032   1.590   2.622   9.498  0.7803 -1.0522 -0.0100
    8MOL0     H 1033   1.600   2.743   9.377  1.1276 -0.3218 -0.2242
    8MOL0     H 1034   1.811   2.628   9.564 -0.6297  1.3511  1.3292
    8MOL0     H 1035   1.846   2.785   9.484  1.3005 -0.9810  0.1734
    8MOL0     H 1036   1.802   2.654   9.260  0.5278  1.2027  0.8625
    8MOL0     H 1037   1.764   2.523   9.354 -1.2586  0.5751  2.1503
    8MOL0     H 1038   2.024   2.526   9.432  3.4349 -0.6005 -2.1140
    8MOL0     H 1039   2.046   2.664   9.327  0.7835 -0.3572  0.5223
    8MOL0     H 1040   2.236   2.585   9.313  0.0271  0.3251 -0.4310
    8MOL0     H 1041   2.455   2.594   9.333  1.4196  0.7209 -1.1874
    8MOL0     H 1042   2.533   2.441   9.360 -3.7643 -0.4393  0.5356
    8MOL0     H 1043   2.558   2.528   9.209  0.9273 -0.7674 -0.0411
    8MOL0     H 1044   2.759   2.086   8.934 -0.0734 -0.0288 -0.1397
    8MOL0     H 1045   2.858   1.870   8.925 -0.6183  2.9504 -2.0365
    8MOL0     H 1046   2.809   1.650   8.852 -2.1952 -2.5833 -1.2315
    8MOL0     H 1047   2.940   1.657   8.971 -0.9636 -0.3994  0.6009
    8MOL0     H 1048   2.729   1.426   8.932  0.5332  1.2574  2.6530
    8MOL0     H 1049   2.887   1.420   8.848  1.6013  2.8559 -0.6312
    8MOL0     H 1050   2.856   1.410   9.160 -1.2546 -0.1482 -0.5116
    8MOL0     H 1051   3.004   1.418   9.081 -0.7368 -0.8023  4.5641
    8MOL0     H 1052   2.815   1.219   8.976  0.4787 -1.2069 -0.8207
    8MOL0     H 1053   2.984   1.211   8.965 -1.6605 -2.9179 -0.7260
    8MOL0     H 1054   2.807   1.163   9.201  0.3755  1.2000 -0.0793
    8MOL0     H 1055   2.984   1.155   9.220 -0.4180 -0.4306 -0.3277
    8MOL0     H 1056   2.847   0.985   9.011 -0.9701 -2.4205  0.8437
    8MOL0     H 1057   3.012   0.984   9.075  1.6056  0.5967  2.9252
    8MOL0     H 1058   2.915   0.794   9.138 -0.3403 -1.2318 -0.5227
    8MOL0     H 1059   2.777   0.869   9.219 -0.0522 -1.8790 -1.5290
    8MOL0     H 1060   2.953   0.958   9.395  0.6527 -0.7837  1.2665
    8MOL0     H 1061   3.082   0.900   9.301 -1.1955  2.5342 -0.6786
    8MOL0     H 1062   2.531   1.714   9.172 -0.5155  1.9346  0.5752
    8MOL0     H 1063   2.421   1.941   9.168  0.4190  2.7740 -0.6462
    8MOL0     H 1064   2.255   2.183   9.021  0.7801 -1.5371  1.9085
    8MOL0     H 1065   2.040   2.312   9.070 -1.2524  2.2261  0.2604
    8MOL0     H 1066   0.882   2.498  10.161  1.5718 -1.0250  0.0984
    8MOL0     H 1067   0.834   2.283  10.139 -0.7247  1.3710 -1.6625
    8MOL0     H 1068   0.501   1.918  10.062  0.3515 -0.7439 -0.1852
    8MOL0     H 1069   0.522   1.722   9.965  0.0086  1.3413 -0.0953
    8MOL0     H 1070   0.726   1.613   9.845  0.8247  0.4828 -0.8864
    8MOL0     H 1071   0.866   1.516   9.884 -0.2279 -0.1600  0.9997
    8MOL0     H 1072   0.675   1.314   9.897 -2.3001  0.4148  0.3508
    8MOL0     H 1073   0.759   1.365   9.753  1.1887  0.0112  1.0392
    8MOL0     H 1074   0.525   1.337   9.699 -0.3517  0.3378 -1.2441
    8MOL0     H 1075   0.564   1.511   9.699 -1.5223 -1.8884 -3.1112
    8MOL0     H 1076   0.469   1.463   9.958  1.5597 -2.5060 -0.1857
    8MOL0     H 1077   0.381   1.345   9.869 -1.3256  0.2645 -1.2577
    8MOL0     H 1078   0.158   1.675   9.736  0.3776  1.1466 -0.2891
    8MOL0     H 1079   0.884   1.636  10.195 -1.3389 -1.0846 -0.1976
    8MOL0     H 1080   0.876   1.855  10.293  0.3952 -1.6778  1.1618
    9MOL0     O 1081   7.052   1.144   9.156  0.0683  0.4191 -0.2513
    9MOL0     C 1082   7.067   1.035   9.216 -0.0067  0.2025 -0.2782
    9MOL0     O 1083   7.050   0.910   9.166  0.0743 -1.2511 -0.7740
    9MOL0     C 1084   6.969   0.898   9.063 -0.1328 -1.2730 -0.2909
    9MOL0     C 1085   6.842   0.954   9.054 -0.7829  0.0970 -0.2984
    9MOL0     C 1086   6.753   0.909   8.955 -0.3418  0.6127  0.6887
    9MOL0     C 1087   6.783   0.800   8.884  0.1504  0.9891  0.3135
    9MOL0     O 1088   6.696   0.762   8.788  0.5645 -0.0447  0.1382
    9MOL0     C 1089   6.558   0.735   8.824  0.1040 -0.9605  0.0214
    9MOL0     C 1090   6.515   0.622   8.745 -1.0521 -0.0614  0.4870
    9MOL0     C 1091   6.393   0.548   8.790  0.7540  0.5384  0.5791
    9MOL0     C 1092   6.339   0.464   8.676 -0.1924  0.1515  0.2720
    9MOL0     C 1093   6.262   0.347   8.720  0.2376 -0.1149 -0.3462
    9MOL0     C 1094   6.262   0.244   8.614  0.0901 -0.5653  0.6487
    9MOL0     C 1095   6.159   0.133   8.622 -0.4651  0.0063  1.0553
    9MOL0     C 1096   6.012   0.178   8.615  0.4733 -0.5202 -0.2228
    9MOL0     N 1097   5.916   0.132   8.722  0.4573  0.1335  0.4030
    9MOL0     C 1098   5.880  -0.000   8.752 -0.1256 -0.3285  0.1945
    9MOL0     C 1099   5.798   0.005   8.860 -0.3174 -0.0492 -0.8810
    9MOL0     C 1100   5.738  -0.101   8.945 -0.1275  0.1891  1.4374
    9MOL0     C 1101   5.598  -0.149   8.900 -1.0873 -0.0329  0.4703
    9MOL0     C 1102   5.544  -0.130   8.760  0.1103 -0.0735  0.2383
    9MOL0     C 1103   5.385  -0.144   8.756 -0.4566  0.7417  0.5494
    9MOL0     O 1104   5.336  -0.143   8.615 -0.6186 -0.5334  0.3246
    9MOL0     C 1105   5.369  -0.235   8.522  0.1945 -0.1952 -0.7623
    9MOL0     C 1106   5.443  -0.200   8.410  0.5612 -1.5462  0.2712
    9MOL0     C 1107   5.481  -0.298   8.311 -0.2738 -0.3807  0.1310
    9MOL0     C 1108   5.568  -0.243   8.199 -0.3643 -0.4886  0.5009
    9MOL0     C 1109   5.461  -0.433   8.337 -0.4601  0.3052  0.1804
    9MOL0     C 1110   5.497  -0.548   8.247 -0.1563 -0.7014 -0.0245
    9MOL0     O 1111   5.508  -0.666   8.298  0.4272 -0.6567 -0.3156
    9MOL0     C 1112   5.515  -0.788   8.225 -0.1332 -0.8713 -0.2855
    9MOL0     C 1113   5.525  -0.819   8.089 -0.1678 -0.6093  0.5485
    9MOL0     C 1114   5.509  -0.943   8.037 -0.4614  0.2514  1.1180
    9MOL0     C 1115   5.503  -1.058   8.125 -0.4234 -0.0493 -0.2952
    9MOL0     O 1116   5.512  -1.188   8.083  0.7256 -0.1825  0.5269
    9MOL0     C 1117   5.453  -1.215   7.953 -0.3840  0.1644 -0.4233
    9MOL0     C 1118   5.470  -1.361   7.924  0.1606  0.1714 -0.7254
    9MOL0     C 1119   5.390  -1.426   7.815  0.6118 -0.1609  0.5020
    9MOL0     C 1120   5.372  -1.331   7.694 -0.1121  0.2448 -0.5935
    9MOL0     C 1121   5.305  -1.395   7.575  0.5383  0.3737  0.4571
    9MOL0     C 1122   5.313  -1.312   7.439  0.0212 -0.4071 -0.2157
    9MOL0     C 1123   5.268  -1.405   7.320 -0.5464 -0.6584 -0.5087
    9MOL0     C 1124   5.121  -1.452   7.320  0.4641  0.7116  0.1286
    9MOL0    Cl 1125   4.992  -1.334   7.308 -0.0042  0.2061 -0.0786
    9MOL0     C 1126   5.497  -1.028   8.265 -0.8422 -0.2901  0.1805
    9MOL0     C 1127   5.491  -0.895   8.307 -1.1877 -0.2565 -0.1047
    9MOL0     O 1128   5.533  -0.519   8.134  0.5779 -0.5896  0.5422
    9MOL0     C 1129   5.391  -0.466   8.454  0.0572 -1.2113 -0.1228
    9MOL0     C 1130   5.348  -0.372   8.543  0.5314 -0.9158 -0.4752
    9MOL0     N 1131   5.774   0.133   8.883 -0.2524  0.1448  0.3390
    9MOL0     N 1132   5.839   0.201   8.802 -0.3982 -0.6722  0.0194
    9MOL0     C 1133   6.912   0.746   8.895 -1.6828 -0.4436 -0.6756
    9MOL0     C 1134   7.005   0.795   8.980  0.6490  0.1144 -0.3038
    9MOL0     C 1135   7.129   1.041   9.350  0.3931 -0.5487 -0.5407
    9MOL0     C 1136   7.077   0.962   9.456  0.1391 -0.1467 -0.1162
    9MOL0     C 1137   7.138   0.982   9.581  0.5617 -0.5501 -0.0445
    9MOL0     C 1138   7.229   1.089   9.603  0.1706 -0.2726 -0.3434
    9MOL0     O 1139   7.281   1.110   9.732  0.6747 -0.5631  0.1760
    9MOL0     C 1140   7.301   1.241   9.777 -0.7775 -0.1591 -0.0003
    9MOL0     C 1141   7.291   1.245   9.937 -0.0330  0.5718  0.0743
    9MOL0     C 1142   7.251   1.374  10.007 -1.1192 -0.7046  0.1133
    9MOL0     C 1143   7.172   1.363  10.136 -0.0243  0.5440  0.2144
    9MOL0     C 1144   7.127   1.498  10.184 -0.1169 -0.9432 -0.0331
    9MOL0     C 1145   7.099   1.612  10.221 -0.2518  0.0085 -0.4424
    9MOL0     C 1146   7.271   1.170   9.502  0.8100  0.3715 -0.5853
    9MOL0     C 1147   7.211   1.150   9.373  0.1081 -0.4649  0.4287
    9MOL0     H 1148   6.808   1.029   9.124 -0.2810  1.4764 -1.4761
    9MOL0     H 1149   6.652   0.948   8.950 -1.7816 -2.7253  1.1875
    9MOL0     H 1150   6.556   0.704   8.929 -1.8396  0.9654  0.6436
    9MOL0     H 1151   6.490   0.821   8.816 -0.7282 -1.5107  0.8797
    9MOL0     H 1152   6.513   0.664   8.644 -1.3102  0.7764  0.8315
    9MOL0     H 1153   6.591   0.543   8.748 -2.9581 -1.9756  2.9935
    9MOL0     H 1154   6.420   0.482   8.873 -1.3084  1.0759  1.7285
    9MOL0     H 1155   6.315   0.616   8.825 -2.5186 -1.3911 -2.2945
    9MOL0     H 1156   6.282   0.530   8.610 -1.0157 -0.5222  0.3055
    9MOL0     H 1157   6.426   0.428   8.620  0.7867  1.8623  0.5814
    9MOL0     H 1158   6.305   0.295   8.806 -0.8594  2.0753  1.6447
    9MOL0     H 1159   6.165   0.382   8.757  0.2648  0.1317 -0.5053
    9MOL0     H 1160   6.236   0.292   8.519  0.8789 -2.4010 -0.5670
    9MOL0     H 1161   6.363   0.204   8.599 -0.2920 -0.9189 -1.3419
    9MOL0     H 1162   6.177   0.061   8.541  2.7907  2.0963 -0.2820
    9MOL0     H 1163   6.185   0.081   8.715  1.1348 -1.5315 -0.1647
    9MOL0     H 1164   5.973   0.147   8.517 -0.7412 -1.7269  0.6139
    9MOL0     H 1165   6.013   0.287   8.612 -0.3486 -0.5268 -1.1016
    9MOL0     H 1166   5.916  -0.090   8.703 -1.3525 -1.0368  0.5492
    9MOL0     H 1167   5.797  -0.192   8.937 -0.7207 -0.0329 -2.0998
    9MOL0     H 1168   5.733  -0.072   9.051  1.0266 -0.9207  1.8168
    9MOL0     H 1169   5.517  -0.104   8.958  0.8996  1.2718  2.3896
    9MOL0     H 1170   5.598  -0.253   8.931  0.0149 -1.2752 -3.1614
    9MOL0     H 1171   5.586  -0.203   8.691  1.9587 -0.6418  1.8703
    9MOL0     H 1172   5.572  -0.031   8.723  0.5821 -0.5411 -0.6990
    9MOL0     H 1173   5.345  -0.055   8.805  0.9575  1.1695  0.9822
    9MOL0     H 1174   5.347  -0.230   8.813 -1.3171  0.2543 -0.7107
    9MOL0     H 1175   5.478  -0.098   8.406  0.7260 -1.6365 -2.0508
    9MOL0     H 1176   5.519  -0.259   8.102 -0.5206  1.9122  0.1136
    9MOL0     H 1177   5.568  -0.134   8.205 -1.0958 -0.3038 -1.8458
    9MOL0     H 1178   5.668  -0.287   8.198  0.0703 -0.0877  5.0662
    9MOL0     H 1179   5.540  -0.739   8.017  1.3915  0.5504  2.0708
    9MOL0     H 1180   5.503  -0.951   7.929  1.9764 -1.2710  1.0316
    9MOL0     H 1181   5.350  -1.183   7.940 -0.5012 -0.1551 -0.2820
    9MOL0     H 1182   5.520  -1.159   7.886  0.5156  1.0215  1.1211
    9MOL0     H 1183   5.572  -1.380   7.887 -0.1565 -1.8138 -0.7069
    9MOL0     H 1184   5.457  -1.421   8.015  1.6769 -3.3866 -2.6073
    9MOL0     H 1185   5.292  -1.445   7.860 -0.3053  2.4680 -0.1939
    9MOL0     H 1186   5.445  -1.509   7.771 -0.1867  0.8665 -2.7153
    9MOL0     H 1187   5.310  -1.249   7.732  1.0299  0.4374  0.9321
    9MOL0     H 1188   5.471  -1.287   7.679  0.6163 -1.0560  0.2240
    9MOL0     H 1189   5.199  -1.394   7.601  1.1706  2.9703  3.5721
    9MOL0     H 1190   5.335  -1.498   7.554 -1.8370  0.0524 -1.8063
    9MOL0     H 1191   5.245  -1.226   7.443  0.0889 -0.2990 -1.1424
    9MOL0     H 1192   5.416  -1.277   7.426 -0.4159  0.3782 -1.8095
    9MOL0     H 1193   5.337  -1.489   7.326  0.7967  0.4713  0.5631
    9MOL0     H 1194   5.294  -1.353   7.228  2.1660 -2.2460 -0.7265
    9MOL0     H 1195   5.094  -1.485   7.421 -0.8951  1.9081  0.1832
    9MOL0     H 1196   5.099  -1.540   7.259 -0.6642  1.6140 -0.8009
    9MOL0     H 1197   5.485  -1.109   8.336  1.7737 -1.0625 -0.1545
    9MOL0     H 1198   5.462  -0.873   8.409 -0.0212  0.4949  0.0802
    9MOL0     H 1199   5.387  -0.569   8.488 -2.6793 -0.1135  3.5894
    9MOL0     H 1200   5.307  -0.417   8.633 -0.6515  0.9971 -0.0073
    9MOL0     H 1201   6.945   0.663   8.833  0.3199  2.4791 -3.9671
    9MOL0     H 1202   7.104   0.755   8.999 -0.1399 -1.5764  0.3592
    9MOL0     H 1203   6.993   0.894   9.449  0.0450 -0.2523  1.7111
    9MOL0     H 1204   7.109   0.927   9.670  0.5839 -0.1777  0.1945
    9MOL0     H 1205   7.400   1.278   9.749 -0.7648 -0.5540 -0.4959
    9MOL0     H 1206   7.229   1.317   9.742 -0.2782  0.9965  1.3811
    9MOL0     H 1207   7.386   1.204   9.971 -0.4150  0.7251  1.3849
    9MOL0     H 1208   7.215   1.170   9.965 -0.8742  1.3741 -0.0211
    9MOL0     H 1209   7.198   1.445   9.944  1.3201  0.9198 -0.2571
    9MOL0     H 1210   7.350   1.417  10.028 -0.2397 -0.2407 -4.1017
    9MOL0     H 1211   7.232   1.307  10.207  0.3876 -0.9837 -1.2818
    9MOL0     H 1212   7.074   1.315  10.129 -2.1715  3.4542  5.0342
    9MOL0     H 1213   7.110   1.708  10.268  0.8376 -0.6446  0.6981
    9MOL0     H 1214   7.341   1.248   9.528 -0.1582  0.8566  0.6931
    9MOL0     H 1215   7.227   1.227   9.299  0.8026  0.0146  1.0673
   10MOL0     O 1216   6.929   8.413   1.754  0.5602  0.1186  0.0213
   10MOL0     C 1217   6.910   8.344   1.854  0.5195  0.0595  0.3306
   10MOL0     O 1218   6.782   8.302   1.906  0.2661  0.0642 -0.1862
   10MOL0     C 1219   6.669   8.333   1.828 -0.2299  0.8761 -0.7580
   10MOL0     C 1220   6.658   8.281   1.695 -1.1185  0.4426 -0.0722
   10MOL0     C 1221   6.549   8.308   1.614  1.0182 -0.6517 -0.8818
   10MOL0     C 1222   6.444   8.392   1.660 -0.6550 -0.1987  0.9941
   10MOL0     O 1223   6.343   8.423   1.566 -0.0778 -0.1432 -0.3909
   10MOL0     C 1224   6.211   8.477   1.601 -0.2068  0.5754  0.1780
   10MOL0     C 1225   6.119   8.488   1.481 -0.7002 -0.0865  0.0695
   10MOL0     C 1226   6.200   8.566   1.371 -1.1757 -0.4454  0.3935
   10MOL0     C 1227   6.094   8.607   1.267 -0.4200  0.7502 -0.0197
   10MOL0     C 1228   6.151   8.650   1.123  0.1966  0.2857  0.1329
   10MOL0     C 1229   6.034   8.711   1.043  0.3984 -1.0702  0.5181
   10MOL0     C 1230   6.067   8.725   0.890 -0.7717  0.4326  0.1429
   10MOL0     C 1231   5.943   8.708   0.804  0.4133  0.0711  0.0713
   10MOL0     N 1232   5.981   8.745   0.673  0.7273 -0.1010  0.0704
   10MOL0     C 1233   5.997   8.873   0.637 -0.1870 -0.1500 -0.0140
   10MOL0     C 1234   6.015   8.848   0.504 -0.5092 -0.7292 -0.5851
   10MOL0     C 1235   6.029   8.961   0.409 -0.2748 -0.0636 -0.8415
   10MOL0     C 1236   6.103   8.926   0.281  0.8475 -0.2179  0.5098
   10MOL0     C 1237   6.073   9.025   0.164  0.1916 -0.8345 -0.6222
   10MOL0     C 1238   6.199   9.047   0.076  0.5004  0.4441  0.9134
   10MOL0     O 1239   6.295   9.135   0.135 -0.0516  0.1674  0.8179
   10MOL0     C 1240   6.391   9.194   0.050  0.9370  0.1189  0.6498
   10MOL0     C 1241   6.487   9.258   0.117 -0.1897 -0.3455 -0.2987
   10MOL0     C 1242   6.602   9.312   0.059  1.0043 -0.6277  0.1071
   10MOL0     C 1243   6.697   9.387   0.148  0.1422 -0.9990 -0.8399
   10MOL0     C 1244   6.608   9.326  -0.079 -0.5114  0.2684  1.0058
   10MOL0     C 1245   6.717   9.398  -0.153 -0.4516 -0.3234 -0.4973
   10MOL0     O 1246   6.710   9.381  -0.294  0.5362 -0.1391  0.5377
   10MOL0     C 1247   6.788   9.445  -0.390 -0.2728 -0.7714 -0.8179
   10MOL0     C 1248   6.733   9.469  -0.515  0.0370  0.5841  0.0552
   10MOL0     C 1249   6.813   9.521  -0.627 -0.5524  0.6097  0.1022
   10MOL0     C 1250   6.948   9.555  -0.600  0.1553  0.6030  0.8623
   10MOL0     O 1251   7.019   9.619  -0.704  0.0960 -0.0670 -0.3632
   10MOL0     C 1252   7.136   9.695  -0.674  0.2513 -0.9202 -0.9249
   10MOL0     C 1253   7.184   9.793  -0.783  0.1463  0.0608 -0.2331
   10MOL0     C 1254   7.205   9.731  -0.918 -0.2663  0.4873  0.3097
   10MOL0     C 1255   7.283   9.814  -1.015 -0.3489  0.5214  0.3239
   10MOL0     C 1256   7.268   9.751  -1.156  0.5983  0.4920 -0.7567
   10MOL0     C 1257   7.340   9.838  -1.257  0.2278 -0.5830 -0.6371
   10MOL0     C 1258   7.335   9.794  -1.402  0.0711 -1.5217  0.1359
   10MOL0     C 1259   7.191   9.765  -1.438 -0.9329  0.6998  0.6632
   10MOL0    Cl 1260   7.175   9.741  -1.610 -0.3869  0.1240 -0.3862
   10MOL0     C 1261   7.006   9.526  -0.481 -0.1524 -1.1810  0.3722
   10MOL0     C 1262   6.930   9.471  -0.379 -0.0984 -1.7602 -1.0677
   10MOL0     O 1263   6.788   9.488  -0.109  0.0391 -0.0476 -0.4604
   10MOL0     C 1264   6.494   9.271  -0.153  0.2197 -0.2907  0.3972
   10MOL0     C 1265   6.395   9.201  -0.091  0.3476  0.4096 -0.2795
   10MOL0     N 1266   6.016   8.720   0.469 -0.6096 -0.6135  0.1214
   10MOL0     N 1267   5.980   8.660   0.573  0.3971 -0.3956  0.1141
   10MOL0     C 1268   6.454   8.436   1.795 -0.6325  0.3282  0.3617
   10MOL0     C 1269   6.563   8.409   1.878 -0.9675  0.5073 -0.7294
   10MOL0     C 1270   7.031   8.324   1.935  0.2195  1.0388 -0.4937
   10MOL0     C 1271   7.163   8.326   1.878  0.5255  0.3786 -0.4378
   10MOL0     C 1272   7.281   8.307   1.956 -0.6588 -0.0221 -0.0421
   10MOL0     C 1273   7.272   8.274   2.098  0.2977 -0.1772  0.8380
   10MOL0     O 1274   7.385   8.255   2.173 -0.4235 -0.7397 -0.5032
   10MOL0     C 1275   7.398   8.115   2.204 -0.1189  0.1075 -0.0911
   10MOL0     C 1276   7.345   8.073   2.346 -1.8806 -0.5418  0.0634
   10MOL0     C 1277   7.435   7.965   2.418 -0.1739  0.1293 -0.4915
   10MOL0     C 1278   7.462   7.846   2.342 -0.2419 -0.8862  0.2500
   10MOL0     C 1279   7.349   7.750   2.349  0.9089  0.7150  0.0146
   10MOL0     C 1280   7.256   7.667   2.355 -0.2908  0.2952  1.4030
   10MOL0     C 1281   7.139   8.290   2.151  0.2166  0.4899 -0.6339
   10MOL0     C 1282   7.028   8.319   2.075  0.1332  0.5843  0.3684
   10MOL0     H 1283   6.726   8.217   1.640 -2.2319  1.7847 -3.2294
   10MOL0     H 1284   6.527   8.269   1.515  0.2932  0.9203 -1.3628
   10MOL0     H 1285   6.165   8.403   1.667  0.8480  1.5601  2.1241
   10MOL0     H 1286   6.231   8.578   1.639  0.7171 -0.3636  2.3839
   10MOL0     H 1287   6.089   8.390   1.442  1.1523 -0.3189 -0.8754
   10MOL0     H 1288   6.035   8.550   1.514  1.7937  3.0337  1.0981
   10MOL0     H 1289   6.247   8.656   1.411 -0.7879  0.4863 -1.9561
   10MOL0     H 1290   6.278   8.503   1.329 -1.3365 -2.2261  2.6097
   10MOL0     H 1291   6.042   8.512   1.253  0.1155  0.4354  0.0885
   10MOL0     H 1292   6.031   8.689   1.303 -0.6065  0.3966  0.4720
   10MOL0     H 1293   6.229   8.726   1.121 -0.1355  0.6559  0.8489
   10MOL0     H 1294   6.195   8.558   1.084 -1.8241 -2.3669  3.4657
   10MOL0     H 1295   5.953   8.638   1.058 -0.3043 -0.3951  0.0397
   10MOL0     H 1296   6.010   8.815   1.065 -2.3697 -1.0275 -2.0219
   10MOL0     H 1297   6.119   8.819   0.871  1.5388 -0.8460 -0.2851
   10MOL0     H 1298   6.141   8.648   0.866  0.4510  1.7495 -0.4381
   10MOL0     H 1299   5.862   8.765   0.851 -0.5018 -1.3248  0.2536
   10MOL0     H 1300   5.900   8.607   0.808 -3.2113  1.3349 -1.8343
   10MOL0     H 1301   5.997   8.966   0.692  1.1462  0.3778 -0.8504
   10MOL0     H 1302   5.926   8.994   0.395  0.3278  2.4642  0.1358
   10MOL0     H 1303   6.083   9.046   0.453 -2.3763  2.3146 -2.6069
   10MOL0     H 1304   6.093   8.826   0.239  2.1412 -0.6736  1.2604
   10MOL0     H 1305   6.206   8.953   0.305 -0.2185 -0.0969  6.3324
   10MOL0     H 1306   6.040   9.121   0.205  2.2241 -0.9658  1.5442
   10MOL0     H 1307   5.997   8.988   0.095 -0.9544  0.0702  0.1129
   10MOL0     H 1308   6.156   9.086  -0.017 -0.1318 -3.2136 -0.5231
   10MOL0     H 1309   6.239   8.948   0.050  0.6183  0.7751 -0.2517
   10MOL0     H 1310   6.487   9.275   0.225  1.3626  1.3159 -0.5027
   10MOL0     H 1311   6.800   9.349   0.147  0.0702 -1.1805 -1.3872
   10MOL0     H 1312   6.707   9.494   0.125 -1.4110 -0.5705  0.3206
   10MOL0     H 1313   6.672   9.386   0.255  0.0682  1.7565 -0.7591
   10MOL0     H 1314   6.626   9.453  -0.529 -0.4729  1.8127  2.1122
   10MOL0     H 1315   6.767   9.545  -0.722  0.5666  1.8025 -0.1738
   10MOL0     H 1316   7.121   9.759  -0.586  1.0503 -2.6001  0.4894
   10MOL0     H 1317   7.226   9.636  -0.656  2.9706  2.6397 -1.5913
   10MOL0     H 1318   7.112   9.874  -0.800  1.7107  1.5296 -0.1868
   10MOL0     H 1319   7.273   9.849  -0.750  0.2139  1.1244 -2.0422
   10MOL0     H 1320   7.106   9.714  -0.963  0.9581 -0.2384 -2.3054
   10MOL0     H 1321   7.248   9.631  -0.911 -2.3425 -0.4563  0.5921
   10MOL0     H 1322   7.240   9.914  -1.011 -2.0602 -0.2018  0.7674
   10MOL0     H 1323   7.388   9.816  -0.983 -0.5579  1.3264  0.9880
   10MOL0     H 1324   7.160   9.746  -1.176 -0.0843  1.0090  2.2518
   10MOL0     H 1325   7.311   9.650  -1.152 -1.4976 -0.4879 -1.4695
   10MOL0     H 1326   7.300   9.939  -1.250  0.2678 -0.4989 -1.5254
   10MOL0     H 1327   7.448   9.841  -1.237  0.2910  2.3791 -1.0598
   10MOL0     H 1328   7.409   9.713  -1.409  1.1939 -1.3018  5.3425
   10MOL0     H 1329   7.363   9.880  -1.464  0.4009 -0.7254  1.3458
   10MOL0     H 1330   7.114   9.838  -1.409 -0.3745  2.0407 -1.0473
   10MOL0     H 1331   7.169   9.669  -1.390  2.1182 -0.4549 -0.0171
   10MOL0     H 1332   7.114   9.540  -0.476 -0.1396 -1.2360  0.2586
   10MOL0     H 1333   6.973   9.447  -0.282  0.3130  0.0575 -0.7653
   10MOL0     H 1334   6.492   9.274  -0.262 -0.6107 -0.9437  0.3846
   10MOL0     H 1335   6.313   9.147  -0.138 -2.8886  1.9955  3.0277
   10MOL0     H 1336   6.370   8.501   1.818 -2.7831 -1.6628 -1.2990
   10MOL0     H 1337   6.566   8.446   1.980  0.2165  1.8164 -1.2121
   10MOL0     H 1338   7.173   8.328   1.770 -0.8703  2.2831 -0.5743
   10MOL0     H 1339   7.383   8.309   1.919 -0.4685 -1.5969  0.3174
   10MOL0     H 1340   7.352   8.052   2.128 -1.0177  0.2462  0.3283
   10MOL0     H 1341   7.499   8.074   2.196  0.3628  1.2077  0.1686
   10MOL0     H 1342   7.240   8.044   2.332 -2.1936 -0.3202  1.7309
   10MOL0     H 1343   7.353   8.155   2.418  2.1361 -3.5556  3.5008
   10MOL0     H 1344   7.400   7.941   2.519  0.8963 -0.4288 -0.2415
   10MOL0     H 1345   7.526   8.022   2.439  1.0825 -2.0888  0.3609
   10MOL0     H 1346   7.558   7.811   2.381 -0.4035 -1.9547 -0.2908
   10MOL0     H 1347   7.472   7.862   2.234 -2.7604 -2.9752 -0.3933
   10MOL0     H 1348   7.176   7.598   2.337  0.6110 -1.5815  4.0390
   10MOL0     H 1349   7.119   8.268   2.255 -1.0714 -0.1502 -1.0062
   10MOL0     H 1350   6.929   8.325   2.120 -0.5689 -1.8941 -0.6586
   11MOL0     O 1351   0.431   8.991  10.418  0.8760  0.1304  0.0973
   11MOL0     C 1352   0.363   8.917  10.491 -0.8736  0.7833  0.3063
   11MOL0     O 1353   0.294   8.948  10.603 -0.9047  0.4846  0.0414
   11MOL0     C 1354   0.260   9.076  10.614 -0.0430  0.5792  0.2645
   11MOL0     C 1355   0.133   9.117  10.606  0.5703 -0.1529 -0.0000
   11MOL0     C 1356   0.089   9.255  10.596  0.1847  0.2096 -0.7843
   11MOL0     C 1357   0.177   9.361  10.614  0.0144 -0.0341 -0.4591
   11MOL0     O 1358   0.147   9.495  10.601  0.3083 -0.5278  0.6801
   11MOL0     C 1359   0.232   9.602  10.652 -0.8025  0.1327  0.3245
   11MOL0     C 1360   0.157   9.738  10.667  0.3546  0.5174 -0.2079
   11MOL0     C 1361   0.062   9.718  10.786 -0.7390  0.0996  0.1602
   11MOL0     C 1362  -0.036   9.832  10.794  1.0528  1.0695  0.0537
   11MOL0     C 1363  -0.123   9.806  10.909  0.2275  0.5997  0.4073
   11MOL0     C 1364  -0.060   9.859  11.047  0.3137  0.8351 -0.1267
   11MOL0     C 1365  -0.146   9.825  11.172 -0.1046 -0.1419 -0.1276
   11MOL0     C 1366  -0.165   9.672  11.219 -0.0341 -0.3360 -0.1256
   11MOL0     N 1367  -0.035   9.597  11.227 -1.0999  0.6829 -0.0594
   11MOL0     C 1368   0.011   9.518  11.125  0.8558 -0.5144 -1.0886
   11MOL0     C 1369   0.107   9.441  11.174  0.5362 -0.0660 -0.0890
   11MOL0     C 1370   0.195   9.346  11.101  0.0721 -0.8311 -0.3154
   11MOL0     C 1371   0.122   9.226  11.023  0.3479 -1.1404 -0.3631
   11MOL0     C 1372   0.033   9.141  11.112  0.9190 -0.0292 -0.0317
   11MOL0     C 1373  -0.022   9.026  11.020  0.1236  0.0422  0.2861
   11MOL0     O 1374  -0.135   9.078  10.947  0.7026  0.0859 -0.1622
   11MOL0     C 1375  -0.205   9.008  10.856  0.2096 -0.4598  0.3094
   11MOL0     C 1376  -0.230   8.872  10.884 -0.2687 -1.0988 -0.5817
   11MOL0     C 1377  -0.320   8.792  10.810 -0.0719 -0.0231 -0.3117
   11MOL0     C 1378  -0.349   8.654  10.859  1.0653 -0.1495 -0.5547
   11MOL0     C 1379  -0.386   8.853  10.704 -0.8473 -0.3935 -0.4669
   11MOL0     C 1380  -0.469   8.775  10.609 -0.3940  0.1272 -0.4915
   11MOL0     O 1381  -0.567   8.832  10.551  0.5210 -0.3009  0.4847
   11MOL0     C 1382  -0.651   8.765  10.460 -0.2942  0.1745 -0.8910
   11MOL0     C 1383  -0.789   8.800  10.452  0.0489 -0.7659  0.1323
   11MOL0     C 1384  -0.877   8.724  10.363  0.1538 -0.5877 -0.0539
   11MOL0     C 1385  -0.826   8.631  10.277 -0.7618 -0.4172 -0.7175
   11MOL0     O 1386  -0.914   8.562  10.199 -0.5682 -0.5257 -0.3737
   11MOL0     C 1387  -0.888   8.446  10.139  0.0739  0.4998 -0.5667
   11MOL0     C 1388  -1.021   8.378  10.093 -0.4103  0.1387 -0.2743
   11MOL0     C 1389  -1.000   8.268   9.979  0.4725 -0.5342 -0.8708
   11MOL0     C 1390  -0.923   8.165  10.035  0.0090  0.1996 -0.5861
   11MOL0     C 1391  -0.922   8.043   9.939 -0.0700  0.5819  0.2057
   11MOL0     C 1392  -0.797   7.946   9.954 -0.5542  0.6101  0.1747
   11MOL0     C 1393  -0.795   7.829  10.055 -0.6631 -1.6527  0.1133
   11MOL0     C 1394  -0.785   7.867  10.198  0.8447  0.0183  0.4982
   11MOL0    Cl 1395  -0.726   7.724  10.282  0.3287  0.4452 -0.2182
   11MOL0     C 1396  -0.686   8.603  10.279 -0.2078 -0.3394 -0.2177
   11MOL0     C 1397  -0.603   8.662  10.374 -0.1586 -0.7323  0.2040
   11MOL0     O 1398  -0.431   8.659  10.582  0.1998 -0.1451  0.3446
   11MOL0     C 1399  -0.357   8.986  10.674 -0.8785  0.3706  0.3139
   11MOL0     C 1400  -0.264   9.066  10.746  0.0093  0.2605  0.2416
   11MOL0     N 1401   0.131   9.480  11.305 -0.2934  0.7526  1.5303
   11MOL0     N 1402   0.051   9.578  11.342  0.0996  0.1308  0.8711
   11MOL0     C 1403   0.310   9.318  10.633 -0.0732 -0.1256  0.8928
   11MOL0     C 1404   0.348   9.181  10.619 -0.5473  0.2959  0.1404
   11MOL0     C 1405   0.384   8.767  10.469  0.3016  0.1458  0.5077
   11MOL0     C 1406   0.326   8.662  10.547 -1.1323 -0.3311  0.6358
   11MOL0     C 1407   0.363   8.531  10.522  0.1365  0.3240  0.5974
   11MOL0     C 1408   0.440   8.499  10.404 -0.5565  0.2169 -0.5472
   11MOL0     O 1409   0.495   8.378  10.373  0.7524  0.0698 -0.7757
   11MOL0     C 1410   0.449   8.255  10.433  0.5810  1.0513  0.3616
   11MOL0     C 1411   0.531   8.140  10.367  0.3821  1.1369 -0.0676
   11MOL0     C 1412   0.456   8.007  10.387 -0.2859 -0.1693  0.2178
   11MOL0     C 1413   0.426   7.971  10.535 -0.6724  0.5114  0.4460
   11MOL0     C 1414   0.413   7.824  10.560  0.0656 -0.7142 -0.0800
   11MOL0     C 1415   0.405   7.703  10.572 -0.0920 -0.2344 -0.1806
   11MOL0     C 1416   0.490   8.598  10.325 -0.5372 -0.1439 -0.8157
   11MOL0     C 1417   0.456   8.735  10.353  0.7148 -0.8098  0.3783
   11MOL0     H 1418   0.047   9.051  10.601  1.5140 -1.2892 -2.6426
   11MOL0     H 1419  -0.011   9.280  10.563 -1.5260 -1.9988  2.2171
   11MOL0     H 1420   0.262   9.563  10.749 -0.1864  0.9973  0.4893
   11MOL0     H 1421   0.315   9.610  10.581 -0.1430  1.9925  1.2606
   11MOL0     H 1422   0.228   9.819  10.687  0.3006  1.3693 -2.9554
   11MOL0     H 1423   0.104   9.752  10.572 -0.8182 -1.1056  0.1672
   11MOL0     H 1424   0.012   9.621  10.777  0.5573 -0.9910  3.1462
   11MOL0     H 1425   0.122   9.719  10.878 -0.4274  2.9456  0.0221
   11MOL0     H 1426   0.021   9.924  10.808  3.2611  0.0178 -1.4801
   11MOL0     H 1427  -0.100   9.825  10.705  1.8625 -1.6178 -0.4270
   11MOL0     H 1428  -0.211   9.868  10.893 -1.2855 -0.9602  2.1785
   11MOL0     H 1429  -0.154   9.702  10.923  1.3082  0.3227  0.9011
   11MOL0     H 1430   0.040   9.819  11.065  0.3162  1.9820  2.8990
   11MOL0     H 1431  -0.052   9.968  11.039 -1.7323  0.9349 -1.9364
   11MOL0     H 1432  -0.105   9.879  11.258  0.8775  1.1865 -1.3806
   11MOL0     H 1433  -0.241   9.873  11.150 -1.6926 -2.3225  1.5373
   11MOL0     H 1434  -0.232   9.627  11.146  0.3831 -0.1218 -0.6465
   11MOL0     H 1435  -0.207   9.674  11.320  0.1591 -0.4671 -0.0418
   11MOL0     H 1436  -0.036   9.513  11.027  0.7150 -0.1963 -1.0374
   11MOL0     H 1437   0.249   9.394  11.020  0.0779 -0.0979  0.1166
   11MOL0     H 1438   0.279   9.310  11.162  0.1505 -1.1686 -0.6218
   11MOL0     H 1439   0.200   9.170  10.970  1.2255  0.7168 -1.1066
   11MOL0     H 1440   0.059   9.273  10.948  1.4413  1.8051  0.4341
   11MOL0     H 1441  -0.055   9.202  11.133 -0.3621 -0.3932 -3.6309
   11MOL0     H 1442   0.093   9.091  11.189  2.0332 -2.2095 -2.1841
   11MOL0     H 1443  -0.063   8.947  11.083  2.2865 -1.4338 -0.0307
   11MOL0     H 1444   0.054   8.982  10.954 -0.4184 -0.0919 -0.2552
   11MOL0     H 1445  -0.182   8.826  10.969  1.1673 -1.5576 -1.5957
   11MOL0     H 1446  -0.339   8.657  10.968 -1.8597  1.2584 -0.2061
   11MOL0     H 1447  -0.451   8.629  10.827  0.8011 -1.4349  1.1684
   11MOL0     H 1448  -0.286   8.579  10.811  0.4168 -0.4137 -1.0149
   11MOL0     H 1449  -0.833   8.878  10.514 -0.4121 -1.8241  1.1728
   11MOL0     H 1450  -0.984   8.736  10.360  0.2255 -0.1340 -2.7533
   11MOL0     H 1451  -0.836   8.477  10.048 -0.2450  1.4223 -0.4444
   11MOL0     H 1452  -0.835   8.382  10.210 -0.3196 -1.9478 -2.3490
   11MOL0     H 1453  -1.091   8.336  10.167  0.3054  0.8216  0.8239
   11MOL0     H 1454  -1.083   8.462  10.062  0.9047  1.7149  1.1404
   11MOL0     H 1455  -0.937   8.305   9.897  0.5676  1.7492  0.1562
   11MOL0     H 1456  -1.094   8.233   9.936  0.2387 -1.6186  0.4839
   11MOL0     H 1457  -0.821   8.201  10.049 -1.2133  3.1776  1.6314
   11MOL0     H 1458  -0.954   8.151  10.139 -1.5474 -0.0393 -1.0562
   11MOL0     H 1459  -0.936   8.085   9.839 -0.0184  0.8844  0.3242
   11MOL0     H 1460  -1.015   7.987   9.952  1.4149 -1.9906  0.3017
   11MOL0     H 1461  -0.757   7.913   9.858  0.5131  1.5917  0.2561
   11MOL0     H 1462  -0.712   8.013   9.976 -0.6507  2.4035 -3.9693
   11MOL0     H 1463  -0.707   7.767  10.036  0.0119 -1.0569  1.1612
   11MOL0     H 1464  -0.889   7.777  10.036 -0.2306 -2.7568  0.8536
   11MOL0     H 1465  -0.882   7.909  10.225 -0.9979 -2.8245 -1.2839
   11MOL0     H 1466  -0.702   7.939  10.194  0.0385  0.9748 -2.7800
   11MOL0     H 1467  -0.651   8.520  10.218 -2.9849 -1.2452 -0.7608
   11MOL0     H 1468  -0.501   8.624  10.369  0.7911  1.6658 -0.5398
   11MOL0     H 1469  -0.408   9.031  10.589  1.9278  0.9282 -1.2129
   11MOL0     H 1470  -0.252   9.173  10.730 -0.6235  0.3660  0.4322
   11MOL0     H 1471   0.382   9.399  10.631 -0.0317  0.0400 -4.0494
   11MOL0     H 1472   0.453   9.151  10.613 -0.8781 -0.7405 -0.8741
   11MOL0     H 1473   0.262   8.690  10.631 -2.4548 -1.0242 -0.0967
   11MOL0     H 1474   0.335   8.450  10.588  3.1744 -1.8633 -0.5725
   11MOL0     H 1475   0.468   8.249  10.540  1.0323 -3.3505  0.2230
   11MOL0     H 1476   0.343   8.248  10.408  0.5371  4.8573 -1.3143
   11MOL0     H 1477   0.625   8.139  10.422 -0.1708  2.3881  0.9226
   11MOL0     H 1478   0.538   8.173  10.263  0.1144  2.6496  0.3781
   11MOL0     H 1479   0.528   7.927  10.369 -0.8510 -0.3852 -1.2453
   11MOL0     H 1480   0.367   8.002  10.324  0.5218  1.1342 -1.0827
   11MOL0     H 1481   0.338   8.027  10.571  0.4127  0.1361  4.0659
   11MOL0     H 1482   0.508   8.013  10.593  0.6643  0.8949 -1.6294
   11MOL0     H 1483   0.393   7.597  10.580  2.8712 -0.5920  0.5877
   11MOL0     H 1484   0.548   8.578  10.235  0.4719  2.1837 -0.7328
   11MOL0     H 1485   0.507   8.807  10.291 -1.6519  1.2937  0.7302
   12MOL0     O 1486   7.638   6.987   6.585  0.3476  0.7525  0.5756
   12MOL0     C 1487   7.706   6.985   6.688 -0.3916 -0.0378  0.0303
   12MOL0     O 1488   7.810   7.067   6.712 -0.2922 -0.0949 -0.1819
   12MOL0     C 1489   7.806   7.189   6.661 -0.2974  0.7659  0.2962
   12MOL0     C 1490   7.821   7.292   6.755  0.9731 -0.1325 -0.0154
   12MOL0     C 1491   7.847   7.423   6.702 -0.3731  0.0277 -0.2252
   12MOL0     C 1492   7.873   7.450   6.564  0.9854 -0.4148 -0.1632
   12MOL0     O 1493   7.881   7.580   6.516  0.4403 -0.4171  0.6858
   12MOL0     C 1494   8.001   7.646   6.543 -0.8550  0.1098  0.2677
   12MOL0     C 1495   8.040   7.734   6.421  0.0935 -0.7087  0.0670
   12MOL0     C 1496   8.141   7.652   6.329  0.0416  0.1753 -0.0076
   12MOL0     C 1497   8.178   7.738   6.211 -0.8020 -0.0885  0.5981
   12MOL0     C 1498   8.276   7.663   6.122 -0.5044 -0.8577 -1.5428
   12MOL0     C 1499   8.304   7.742   5.992 -0.5861  0.4199  0.5455
   12MOL0     C 1500   8.412   7.848   6.003 -0.3646  0.1130  0.9211
   12MOL0     C 1501   8.463   7.898   5.867  0.0574 -0.0530 -0.5043
   12MOL0     N 1502   8.555   8.007   5.895  0.1113 -1.4645 -0.9195
   12MOL0     C 1503   8.669   8.013   5.977 -0.1946  0.0336  0.1971
   12MOL0     C 1504   8.708   8.143   5.979  0.1754 -0.3393  0.5633
   12MOL0     C 1505   8.815   8.209   6.058 -0.2112  0.4010  0.0100
   12MOL0     C 1506   8.748   8.262   6.188  0.8821  0.4795  0.5924
   12MOL0     C 1507   8.856   8.322   6.280  0.6513  0.0036 -0.0464
   12MOL0     C 1508   8.937   8.222   6.349  0.1277 -0.7247  1.1999
   12MOL0     O 1509   8.887   8.086   6.334  0.0297  0.3258 -0.1999
   12MOL0     C 1510   8.953   7.985   6.390  0.0774  1.2291  0.9453
   12MOL0     C 1511   8.892   7.862   6.369 -0.2332  0.2599 -0.8006
   12MOL0     C 1512   8.949   7.742   6.420 -0.5566  1.2329  0.6560
   12MOL0     C 1513   8.866   7.613   6.385  0.4267  0.1072 -0.3299
   12MOL0     C 1514   9.059   7.747   6.508  0.2364  0.2003  1.1827
   12MOL0     C 1515   9.138   7.620   6.559 -0.1803  0.1273  0.9957
   12MOL0     O 1516   9.107   7.494   6.500  0.2182 -0.6914  0.5518
   12MOL0     C 1517   9.109   7.385   6.578  1.0034  0.3942 -0.1676
   12MOL0     C 1518   9.004   7.287   6.575  0.3054 -0.6320  0.1915
   12MOL0     C 1519   9.015   7.172   6.661 -0.0904 -0.5507  1.0379
   12MOL0     C 1520   9.134   7.152   6.727 -0.0872  0.5691  0.8880
   12MOL0     O 1521   9.136   7.041   6.801 -0.7049  0.0190  0.1432
   12MOL0     C 1522   9.199   7.050   6.929 -0.1952 -0.6518  1.0789
   12MOL0     C 1523   9.162   6.920   7.005 -0.2114 -0.7411  0.0423
   12MOL0     C 1524   9.178   6.928   7.158 -0.8373  1.1610  0.0037
   12MOL0     C 1525   9.138   6.792   7.206  1.0291 -0.4540  0.2149
   12MOL0     C 1526   9.135   6.782   7.354  0.1220 -0.0958  0.9777
   12MOL0     C 1527   9.280   6.798   7.403  0.6994  0.0502  0.6553
   12MOL0     C 1528   9.301   6.760   7.544 -1.0278  0.3835  0.5222
   12MOL0     C 1529   9.308   6.608   7.566  0.0198  0.8637  0.1767
   12MOL0    Cl 1530   9.384   6.564   7.725  0.4456  0.1815 -0.0314
   12MOL0     C 1531   9.245   7.234   6.711  1.3282  0.1532 -0.1564
   12MOL0     C 1532   9.221   7.353   6.645 -0.0878 -0.0570 -0.2396
   12MOL0     O 1533   9.214   7.630   6.650 -0.2129  0.3013  0.4989
   12MOL0     C 1534   9.104   7.877   6.541 -0.9906  0.2304  0.4555
   12MOL0     C 1535   9.064   7.992   6.476 -1.1884  0.4498 -0.1344
   12MOL0     N 1536   8.629   8.210   5.887 -0.6652  0.1080  0.0116
   12MOL0     N 1537   8.542   8.129   5.837 -0.0028 -0.3683  0.0215
   12MOL0     C 1538   7.870   7.342   6.477  0.1910 -0.1362 -0.5355
   12MOL0     C 1539   7.840   7.213   6.521  0.0110  0.2684 -0.5431
   12MOL0     C 1540   7.679   6.886   6.786 -0.5073  0.4503 -0.3388
   12MOL0     C 1541   7.754   6.881   6.903 -0.6582 -0.3864  0.1786
   12MOL0     C 1542   7.742   6.790   7.010  0.3085  0.5560 -0.6564
   12MOL0     C 1543   7.641   6.693   6.999 -0.0092  0.0994 -0.9497
   12MOL0     O 1544   7.637   6.585   7.084  0.2614 -0.0305  0.0179
   12MOL0     C 1545   7.521   6.509   7.092  1.3403 -1.1908  0.6260
   12MOL0     C 1546   7.521   6.423   7.217  0.0258 -0.1992 -0.2789
   12MOL0     C 1547   7.440   6.289   7.206 -0.3807  0.1692 -0.8695
   12MOL0     C 1548   7.483   6.177   7.310  0.0658  0.0400  0.3112
   12MOL0     C 1549   7.617   6.149   7.270 -0.1502  0.3112  1.8835
   12MOL0     C 1550   7.727   6.103   7.238 -1.0467 -0.9623 -0.6538
   12MOL0     C 1551   7.557   6.702   6.886 -0.5349  0.4431  0.1218
   12MOL0     C 1552   7.573   6.794   6.786  0.3804  0.2168  0.0962
   12MOL0     H 1553   7.812   7.291   6.863 -0.3376  0.1176 -0.1099
   12MOL0     H 1554   7.853   7.510   6.767 -2.0520  1.0671 -1.3874
   12MOL0     H 1555   7.982   7.715   6.626  0.5423  0.8775 -0.0292
   12MOL0     H 1556   8.080   7.575   6.566  0.8531  2.4636  2.2028
   12MOL0     H 1557   7.949   7.768   6.370 -2.0124 -3.7362  1.5165
   12MOL0     H 1558   8.092   7.824   6.457 -0.9559 -1.3705  3.7393
   12MOL0     H 1559   8.231   7.631   6.387 -0.1263  1.8846  0.9294
   12MOL0     H 1560   8.099   7.555   6.300 -0.6609  0.4739 -0.0107
   12MOL0     H 1561   8.095   7.792   6.164 -0.5653  0.6490  0.9955
   12MOL0     H 1562   8.250   7.804   6.261  0.5380  0.1372 -1.5082
   12MOL0     H 1563   8.378   7.654   6.161 -0.1405  0.4895 -2.0875
   12MOL0     H 1564   8.241   7.567   6.084  2.1894 -1.7582 -2.0290
   12MOL0     H 1565   8.330   7.674   5.910 -2.3545  0.7679 -0.3543
   12MOL0     H 1566   8.212   7.798   5.971  0.0257  1.1323 -0.2944
   12MOL0     H 1567   8.374   7.938   6.053  0.2767  1.4302 -0.8578
   12MOL0     H 1568   8.495   7.802   6.058 -0.8909 -1.5288  0.3894
   12MOL0     H 1569   8.371   7.933   5.819 -1.7034 -1.5931  1.5254
   12MOL0     H 1570   8.510   7.828   5.798  2.0100  1.9745 -1.3544
   12MOL0     H 1571   8.705   7.925   6.029 -1.0438  1.5257  3.6123
   12MOL0     H 1572   8.904   8.146   6.069  0.9000  2.2446  2.4025
   12MOL0     H 1573   8.844   8.295   5.996  3.3613  0.7231  1.8592
   12MOL0     H 1574   8.691   8.182   6.236  2.1911 -0.1168  1.2011
   12MOL0     H 1575   8.682   8.346   6.163  1.1721  0.2891 -0.9224
   12MOL0     H 1576   8.797   8.370   6.360 -0.3236  0.6184 -1.1022
   12MOL0     H 1577   8.923   8.399   6.240  2.7699 -2.1907 -0.9096
   12MOL0     H 1578   8.950   8.253   6.453  1.5351  3.4910 -0.0261
   12MOL0     H 1579   9.036   8.230   6.303 -0.8492  0.2138 -0.8891
   12MOL0     H 1580   8.794   7.848   6.326  0.0291  2.3358 -2.2296
   12MOL0     H 1581   8.864   7.549   6.473 -0.0582 -1.1297 -1.2075
   12MOL0     H 1582   8.763   7.641   6.358  0.9793  0.9223 -1.7488
   12MOL0     H 1583   8.912   7.568   6.296 -0.8139 -1.0728 -0.4187
   12MOL0     H 1584   8.911   7.293   6.519 -1.3351 -1.3346  2.6954
   12MOL0     H 1585   8.947   7.088   6.654  2.5027 -2.6335 -1.9299
   12MOL0     H 1586   9.308   7.046   6.916 -0.3354  1.0895 -1.0896
   12MOL0     H 1587   9.173   7.133   6.994 -1.1262 -0.8805  1.0165
   12MOL0     H 1588   9.055   6.900   6.993 -0.2019 -0.0382 -1.4521
   12MOL0     H 1589   9.225   6.840   6.965 -1.2346 -1.2784 -0.5238
   12MOL0     H 1590   9.115   7.010   7.195  1.3427  2.5193  0.9141
   12MOL0     H 1591   9.284   6.936   7.183  0.1716 -1.3281 -2.9495
   12MOL0     H 1592   9.035   6.777   7.172  0.0551  1.5431  2.0250
   12MOL0     H 1593   9.191   6.704   7.168 -2.9389 -2.7090 -0.6671
   12MOL0     H 1594   9.100   6.687   7.395 -0.2165  0.0732  1.0791
   12MOL0     H 1595   9.072   6.862   7.393 -1.5920 -0.1243 -1.4847
   12MOL0     H 1596   9.344   6.731   7.344  0.0596  0.4315 -0.5224
   12MOL0     H 1597   9.304   6.904   7.390  0.5001  0.0202 -0.0361
   12MOL0     H 1598   9.222   6.812   7.599 -1.6698 -0.0620  0.0241
   12MOL0     H 1599   9.395   6.803   7.582 -0.0192  0.0179 -1.3861
   12MOL0     H 1600   9.352   6.552   7.484  0.0827  2.7594 -1.1595
   12MOL0     H 1601   9.203   6.579   7.574  0.1717  0.5764  1.2585
   12MOL0     H 1602   9.337   7.203   6.759  2.4502  0.9057 -1.7388
   12MOL0     H 1603   9.305   7.417   6.623  0.0054 -0.7044 -1.9824
   12MOL0     H 1604   9.191   7.879   6.605  0.4401 -2.9891 -1.1822
   12MOL0     H 1605   9.117   8.084   6.501  0.0880  0.4701 -2.6281
   12MOL0     H 1606   7.872   7.366   6.371 -1.8886 -2.5880 -1.2523
   12MOL0     H 1607   7.847   7.134   6.448  0.3598  0.0777 -0.3059
   12MOL0     H 1608   7.831   6.955   6.919 -1.1201 -0.2538  2.0342
   12MOL0     H 1609   7.800   6.787   7.102  1.5413 -4.3327 -1.3178
   12MOL0     H 1610   7.429   6.567   7.088  0.7819 -1.9701 -3.8981
   12MOL0     H 1611   7.515   6.445   7.003  0.2722  1.1032 -1.0444
   12MOL0     H 1612   7.479   6.494   7.289  3.4360  2.2528 -0.4395
   12MOL0     H 1613   7.627   6.423   7.245 -0.3090  1.0616  1.1393
   12MOL0     H 1614   7.458   6.242   7.109 -0.8718 -3.6579  0.7011
   12MOL0     H 1615   7.334   6.307   7.226 -1.1552 -1.4151 -3.1782
   12MOL0     H 1616   7.413   6.094   7.295 -0.1646  0.0521  1.2803
   12MOL0     H 1617   7.500   6.203   7.415 -0.3748 -0.3043  0.4729
   12MOL0     H 1618   7.827   6.078   7.210  0.4233 -1.1184  3.9308
   12MOL0     H 1619   7.486   6.621   6.872 -1.2214  1.1886 -0.8454
   12MOL0     H 1620   7.525   6.784   6.690 -1.1513 -4.3141  1.1101
   13MOL0     O 1621   5.278   7.003   4.187  0.2526  0.1978  0.1437
   13MOL0     C 1622   5.275   6.887   4.135 -0.0604 -0.7614 -0.9792
   13MOL0     O 1623   5.205   6.853   4.023 -0.1598 -0.0100 -0.1950
   13MOL0     C 1624   5.151   6.959   3.956 -0.1355 -1.4724  0.9763
   13MOL0     C 1625   5.217   7.026   3.846 -0.5911  0.4923 -0.0004
   13MOL0     C 1626   5.159   7.138   3.780 -0.2032  0.8667  0.1051
   13MOL0     C 1627   5.034   7.182   3.821  0.0807  0.0338 -1.0913
   13MOL0     O 1628   4.962   7.282   3.762  0.3043  0.7190  1.1144
   13MOL0     C 1629   5.012   7.363   3.658 -0.8871  0.0378 -0.0952
   13MOL0     C 1630   4.898   7.440   3.600 -0.2414 -0.8575 -0.1817
   13MOL0     C 1631   4.938   7.544   3.491 -0.3854 -0.8039 -1.1861
   13MOL0     C 1632   4.994   7.673   3.555 -0.3256  0.2585 -0.4924
   13MOL0     C 1633   4.983   7.782   3.442  0.6112 -0.0953 -0.6635
   13MOL0     C 1634   5.034   7.924   3.488 -0.1194 -0.3477  0.0167
   13MOL0     C 1635   5.010   8.040   3.396 -0.1298  0.2282 -0.0723
   13MOL0     C 1636   5.134   8.095   3.324 -0.3128 -0.2309 -0.1248
   13MOL0     N 1637   5.210   8.187   3.403 -0.6255  0.5708 -0.1713
   13MOL0     C 1638   5.335   8.172   3.450 -0.0088  0.0620 -0.6632
   13MOL0     C 1639   5.348   8.267   3.545 -0.4725 -0.1979 -0.5416
   13MOL0     C 1640   5.469   8.307   3.618  0.3159 -0.3706  0.5279
   13MOL0     C 1641   5.452   8.311   3.767 -0.0407  0.5175 -0.2608
   13MOL0     C 1642   5.566   8.390   3.838 -0.3714 -1.1388 -0.4391
   13MOL0     C 1643   5.534   8.417   3.984  0.0394  0.3764  0.5070
   13MOL0     O 1644   5.639   8.492   4.052  0.4214  0.2617  0.1615
   13MOL0     C 1645   5.594   8.544   4.167  0.2286 -0.6921 -1.3378
   13MOL0     C 1646   5.471   8.524   4.237  1.2538 -0.9986 -0.2173
   13MOL0     C 1647   5.432   8.599   4.357 -0.6241 -0.2105 -1.0741
   13MOL0     C 1648   5.300   8.565   4.409 -0.5846  0.1666  0.3009
   13MOL0     C 1649   5.530   8.693   4.404 -0.3353  0.7291  0.0666
   13MOL0     C 1650   5.506   8.787   4.520 -0.3669  0.4751  0.5346
   13MOL0     O 1651   5.422   8.753   4.615 -0.3055  0.4679  0.3135
   13MOL0     C 1652   5.371   8.841   4.711 -1.5755  0.5750 -0.6416
   13MOL0     C 1653   5.389   8.977   4.709 -0.8141  0.6779 -0.6205
   13MOL0     C 1654   5.345   9.064   4.807 -0.0321 -0.4058  0.0507
   13MOL0     C 1655   5.277   9.003   4.920  0.0756  0.3277 -0.9464
   13MOL0     O 1656   5.236   9.087   5.020  0.3737 -0.1622 -0.2554
   13MOL0     C 1657   5.163   9.037   5.135  0.1967 -0.2752 -1.2099
   13MOL0     C 1658   5.018   9.012   5.099  0.3739 -0.0339 -0.2465
   13MOL0     C 1659   4.935   9.027   5.227  0.1427  0.9394  0.7325
   13MOL0     C 1660   4.785   9.022   5.193 -0.1287  0.3907  0.6349
   13MOL0     C 1661   4.690   9.062   5.311  0.9143  0.6604  0.5599
   13MOL0     C 1662   4.660   9.214   5.315  0.0639 -0.0285  0.1414
   13MOL0     C 1663   4.611   9.262   5.449  0.5239  0.4659  1.7001
   13MOL0     C 1664   4.701   9.237   5.564 -0.5440 -0.2393 -0.0486
   13MOL0    Cl 1665   4.842   9.348   5.558 -0.1668  0.0293  0.2111
   13MOL0     C 1666   5.270   8.859   4.934  0.0143 -0.5650  0.2742
   13MOL0     C 1667   5.310   8.781   4.826  0.6839  0.0142 -0.5010
   13MOL0     O 1668   5.578   8.880   4.519  0.1831 -0.3064  0.3020
   13MOL0     C 1669   5.651   8.709   4.331  0.5864 -0.1602  0.0595
   13MOL0     C 1670   5.687   8.631   4.216 -0.5577 -0.2806 -0.2856
   13MOL0     N 1671   5.241   8.355   3.540  0.0726  0.4925  0.2423
   13MOL0     N 1672   5.156   8.301   3.460  0.6358  0.9214  0.3803
   13MOL0     C 1673   4.973   7.116   3.928 -0.0945 -1.1601 -0.3936
   13MOL0     C 1674   5.036   7.016   4.001  0.4701 -0.4595 -0.4330
   13MOL0     C 1675   5.338   6.776   4.211 -0.5810 -0.0568 -0.5738
   13MOL0     C 1676   5.417   6.789   4.328 -0.5557 -0.0057  0.9915
   13MOL0     C 1677   5.485   6.681   4.386  0.6415  0.8177  0.4352
   13MOL0     C 1678   5.461   6.550   4.349 -0.2928  0.3090 -0.1731
   13MOL0     O 1679   5.521   6.449   4.422  0.4036 -0.4577 -0.1620
   13MOL0     C 1680   5.581   6.339   4.352  0.7422  0.0348 -0.0742
   13MOL0     C 1681   5.726   6.367   4.305  0.0303 -0.1096  0.4036
   13MOL0     C 1682   5.745   6.310   4.159 -0.0955 -0.3933 -0.9790
   13MOL0     C 1683   5.762   6.160   4.138 -0.1797  0.3768  0.0678
   13MOL0     C 1684   5.782   6.082   4.262  0.4080 -0.7277  1.0311
   13MOL0     C 1685   5.805   6.024   4.364  0.5867 -0.8480  0.2904
   13MOL0     C 1686   5.379   6.528   4.233  0.1875 -0.4449 -0.9522
   13MOL0     C 1687   5.330   6.644   4.163  0.8250  0.5659  1.2653
   13MOL0     H 1688   5.317   7.001   3.811  0.1663  1.8122  1.1110
   13MOL0     H 1689   5.198   7.179   3.688  0.9978  0.2567  0.3164
   13MOL0     H 1690   5.087   7.434   3.694  0.8390 -1.7049 -0.0771
   13MOL0     H 1691   5.053   7.300   3.579  1.9649  0.9035  0.5711
   13MOL0     H 1692   4.845   7.362   3.544 -0.4384 -0.0270 -1.1855
   13MOL0     H 1693   4.827   7.476   3.675 -0.7547 -1.3611 -0.4118
   13MOL0     H 1694   5.019   7.514   3.423 -0.0988  0.0433 -1.2320
   13MOL0     H 1695   4.853   7.571   3.428  0.5789  1.4132 -1.6454
   13MOL0     H 1696   4.939   7.708   3.642 -0.8935 -0.6759 -0.4607
   13MOL0     H 1697   5.099   7.661   3.584  0.2616 -1.0762 -2.8135
   13MOL0     H 1698   5.033   7.747   3.351  0.0049 -2.0514 -0.3024
   13MOL0     H 1699   4.877   7.795   3.418  0.3617 -0.4554  0.2065
   13MOL0     H 1700   4.999   7.951   3.588  1.4147  2.5022 -0.1033
   13MOL0     H 1701   5.138   7.892   3.502 -0.4395 -1.3704  0.2043
   13MOL0     H 1702   4.941   8.001   3.320  0.4404 -2.1440  0.5211
   13MOL0     H 1703   4.961   8.114   3.459 -0.5627  0.9072 -1.1677
   13MOL0     H 1704   5.100   8.153   3.238 -1.1170 -0.0153  0.3351
   13MOL0     H 1705   5.197   8.021   3.273 -0.2625  1.1610 -2.2249
   13MOL0     H 1706   5.419   8.113   3.414  1.1059  2.2045 -1.8341
   13MOL0     H 1707   5.554   8.243   3.592 -0.5982 -2.2701  2.0105
   13MOL0     H 1708   5.517   8.399   3.583  0.8701 -0.9575 -0.3259
   13MOL0     H 1709   5.436   8.212   3.810 -0.7146  1.0594  0.8100
   13MOL0     H 1710   5.361   8.367   3.795 -0.3150  0.0766 -0.2624
   13MOL0     H 1711   5.595   8.486   3.796  2.2180 -1.1454  1.1511
   13MOL0     H 1712   5.659   8.333   3.840  0.2835 -0.0957  0.9592
   13MOL0     H 1713   5.538   8.319   4.033 -0.2748 -0.9447 -1.9414
   13MOL0     H 1714   5.435   8.463   3.982 -0.1371 -0.0065 -2.0013
   13MOL0     H 1715   5.399   8.450   4.204 -0.4088  1.4207 -2.3935
   13MOL0     H 1716   5.224   8.629   4.364 -1.3861 -1.9682 -1.5780
   13MOL0     H 1717   5.263   8.465   4.386  0.8896  0.0702 -1.9860
   13MOL0     H 1718   5.314   8.576   4.517 -0.2741  3.4885  0.0277
   13MOL0     H 1719   5.448   9.027   4.633  0.9961 -2.2481 -1.3187
   13MOL0     H 1720   5.371   9.169   4.800  2.5876 -0.6952  3.1444
   13MOL0     H 1721   5.210   8.956   5.191 -3.2921 -0.2739  2.0705
   13MOL0     H 1722   5.163   9.122   5.203  0.4552  0.4501 -2.1013
   13MOL0     H 1723   4.986   9.083   5.022  2.0344 -0.0029 -0.9525
   13MOL0     H 1724   4.997   8.911   5.062  2.8796 -0.3526 -0.9447
   13MOL0     H 1725   4.964   9.114   5.286 -0.0944  2.2856 -1.0766
   13MOL0     H 1726   4.954   8.940   5.291 -2.4980 -0.3669 -0.1379
   13MOL0     H 1727   4.748   9.079   5.106 -2.2522 -1.0562  0.5344
   13MOL0     H 1728   4.756   8.921   5.165 -3.2760  0.7477  2.1341
   13MOL0     H 1729   4.731   9.026   5.405 -1.4294  2.4894  2.4068
   13MOL0     H 1730   4.597   9.005   5.307  2.2156 -1.5128 -1.2088
   13MOL0     H 1731   4.754   9.269   5.308 -1.5328  2.8483 -0.4422
   13MOL0     H 1732   4.592   9.256   5.239  0.3180 -1.9733 -1.2331
   13MOL0     H 1733   4.544   9.182   5.482  2.6725 -1.3344  1.9473
   13MOL0     H 1734   4.556   9.357   5.454 -0.5673  0.0354 -0.7690
   13MOL0     H 1735   4.732   9.132   5.563  3.2555  0.7228 -2.1318
   13MOL0     H 1736   4.642   9.237   5.656  0.7014 -0.1406  0.7644
   13MOL0     H 1737   5.239   8.818   5.030 -1.5214 -3.4017 -1.2869
   13MOL0     H 1738   5.303   8.675   4.848 -2.6688  0.6274  2.2819
   13MOL0     H 1739   5.721   8.788   4.356  1.9697 -1.9476  2.2145
   13MOL0     H 1740   5.781   8.655   4.168  0.4417 -0.0922  1.6706
   13MOL0     H 1741   4.874   7.153   3.949  0.2363 -0.3267 -0.2667
   13MOL0     H 1742   4.994   6.963   4.086 -0.7359 -0.7952 -1.2164
   13MOL0     H 1743   5.438   6.885   4.373 -0.8315  0.3797  0.3158
   13MOL0     H 1744   5.559   6.704   4.462  1.7086 -1.6213  0.2220
   13MOL0     H 1745   5.595   6.254   4.419 -0.5926  0.2564  0.4974
   13MOL0     H 1746   5.515   6.295   4.277  1.9707 -4.2913  1.1003
   13MOL0     H 1747   5.799   6.335   4.379 -1.0290  2.0043  2.4733
   13MOL0     H 1748   5.745   6.474   4.298  1.2269  0.0126  3.6964
   13MOL0     H 1749   5.836   6.360   4.127 -1.1884  1.3983 -1.4291
   13MOL0     H 1750   5.668   6.358   4.097 -1.3868 -2.2935 -0.9477
   13MOL0     H 1751   5.834   6.135   4.060 -0.4058 -1.9588  0.5520
   13MOL0     H 1752   5.662   6.129   4.106  0.0837 -0.3242 -0.0959
   13MOL0     H 1753   5.839   5.978   4.455  0.4107 -1.4744  0.0467
   13MOL0     H 1754   5.363   6.427   4.195  1.9759 -0.1506 -2.6213
   13MOL0     H 1755   5.276   6.624   4.071  1.8498  1.3328  0.4602
   14MOL0     O 1756   4.799   4.772   6.566 -0.4213 -0.1015  0.8292
   14MOL0     C 1757   4.865   4.685   6.514 -0.2449  0.0353 -0.3394
   14MOL0     O 1758   4.861   4.663   6.383 -0.2444  0.3416  0.6265
   14MOL0     C 1759   4.796   4.739   6.302 -0.5914  0.0282  0.5638
   14MOL0     C 1760   4.878   4.809   6.218  0.2013 -0.2777 -1.2192
   14MOL0     C 1761   4.818   4.886   6.117  0.0153  1.4888 -0.0201
   14MOL0     C 1762   4.675   4.881   6.096  1.2373 -0.1883 -1.4250
   14MOL0     O 1763   4.604   4.945   5.995 -0.7222  0.0637  0.2466
   14MOL0     C 1764   4.691   5.039   5.931  0.6804  0.3360 -0.1024
   14MOL0     C 1765   4.624   5.137   5.844  0.0303 -0.7746 -0.4715
   14MOL0     C 1766   4.717   5.227   5.755  0.5245  0.6777 -0.7313
   14MOL0     C 1767   4.619   5.328   5.679 -0.4778  0.2537 -0.5215
   14MOL0     C 1768   4.699   5.428   5.588 -0.4475 -0.4220 -0.6960
   14MOL0     C 1769   4.608   5.529   5.524 -0.6578  0.2085 -1.2085
   14MOL0     C 1770   4.702   5.610   5.438  0.3264 -0.3776  0.1448
   14MOL0     C 1771   4.625   5.727   5.367  0.1920  0.3918 -0.3962
   14MOL0     N 1772   4.689   5.782   5.248  0.0173 -0.2528 -0.6836
   14MOL0     C 1773   4.690   5.708   5.132  0.1591  0.6066  0.3333
   14MOL0     C 1774   4.773   5.776   5.047  0.2735  0.1755  0.5307
   14MOL0     C 1775   4.810   5.731   4.908  0.3783  0.7501  0.3637
   14MOL0     C 1776   4.693   5.719   4.805  0.4537 -0.0951  0.6473
   14MOL0     C 1777   4.745   5.666   4.661  0.9266  0.7463  0.0235
   14MOL0     C 1778   4.845   5.549   4.661  0.0143 -0.7844  0.0900
   14MOL0     O 1779   4.852   5.466   4.546  0.0377  0.0446  0.8424
   14MOL0     C 1780   4.906   5.519   4.430 -1.9644  1.0248 -0.1807
   14MOL0     C 1781   4.886   5.453   4.313  0.3143 -0.0107  0.4619
   14MOL0     C 1782   4.936   5.482   4.189 -0.7111 -0.7818  0.9733
   14MOL0     C 1783   4.916   5.384   4.070 -0.1232  0.4237  0.0769
   14MOL0     C 1784   5.003   5.605   4.179  0.4448 -0.1224  0.7675
   14MOL0     C 1785   5.055   5.662   4.048 -0.5185 -0.5090 -0.1687
   14MOL0     O 1786   5.008   5.602   3.932 -0.1804 -0.8891  0.1554
   14MOL0     C 1787   4.979   5.687   3.823  0.6289  0.1695  0.4344
   14MOL0     C 1788   4.915   5.810   3.839 -0.6832 -0.0495 -0.1905
   14MOL0     C 1789   4.887   5.884   3.726  0.2683  0.4265  0.3913
   14MOL0     C 1790   4.939   5.842   3.608  0.0649 -0.2038 -0.0823
   14MOL0     O 1791   4.917   5.911   3.489 -0.8097  0.3288 -0.2777
   14MOL0     C 1792   4.934   6.049   3.474  0.4257 -1.0507 -0.0858
   14MOL0     C 1793   4.931   6.068   3.322  0.9217 -0.7241  0.7749
   14MOL0     C 1794   4.986   6.193   3.252  0.4715  0.2578  0.1973
   14MOL0     C 1795   5.013   6.162   3.106  0.7474  0.1941  0.4068
   14MOL0     C 1796   5.029   6.283   3.006 -0.0797  0.4359 -0.6624
   14MOL0     C 1797   5.102   6.402   3.062 -0.8962  0.0013 -0.0043
   14MOL0     C 1798   5.136   6.515   2.967 -0.4508 -1.3327  0.6646
   14MOL0     C 1799   5.015   6.583   2.912 -0.6854 -0.3610  0.5509
   14MOL0    Cl 1800   4.991   6.522   2.743 -0.3388 -0.2554 -0.1999
   14MOL0     C 1801   5.006   5.721   3.598 -0.2683  0.2157  0.7879
   14MOL0     C 1802   5.024   5.634   3.700 -0.0033  0.6707  1.0590
   14MOL0     O 1803   5.117   5.766   4.059 -0.4097 -0.4418  0.0668
   14MOL0     C 1804   5.028   5.686   4.298 -0.3155 -1.1612 -0.3825
   14MOL0     C 1805   4.983   5.638   4.422 -0.4858 -0.2090  0.0689
   14MOL0     N 1806   4.831   5.873   5.114 -0.0136  1.0362  0.5012
   14MOL0     N 1807   4.784   5.877   5.238 -0.0561 -0.3396  0.5510
   14MOL0     C 1808   4.598   4.817   6.194 -0.3249  0.7833 -0.1251
   14MOL0     C 1809   4.657   4.739   6.294 -0.4135  0.0145 -0.7499
   14MOL0     C 1810   4.930   4.602   6.615  0.4253  0.3788  0.3453
   14MOL0     C 1811   4.964   4.652   6.746  0.5643  0.3269 -0.7824
   14MOL0     C 1812   4.997   4.565   6.850  0.1037  1.3828 -0.1660
   14MOL0     C 1813   5.036   4.435   6.826 -0.1583 -0.4430 -0.6443
   14MOL0     O 1814   5.085   4.348   6.920  0.0059  0.0219 -0.1087
   14MOL0     C 1815   5.092   4.389   7.062 -0.8405 -0.6880  0.4956
   14MOL0     C 1816   5.104   4.266   7.155  0.0801  0.1418 -0.9147
   14MOL0     C 1817   4.998   4.161   7.134 -0.0196  0.1769 -1.2958
   14MOL0     C 1818   4.869   4.232   7.102  0.4789  0.2272 -0.2262
   14MOL0     C 1819   4.760   4.141   7.083  0.0102  0.0226  0.7656
   14MOL0     C 1820   4.678   4.058   7.058 -0.0553 -0.7969  1.1706
   14MOL0     C 1821   5.029   4.389   6.690 -0.0735 -0.2148 -0.6160
   14MOL0     C 1822   4.983   4.473   6.586 -0.8898 -0.0731 -0.0835
   14MOL0     H 1823   4.985   4.806   6.237 -0.2656 -1.1489  1.7565
   14MOL0     H 1824   4.886   4.934   6.047  1.5229 -1.6129 -0.8759
   14MOL0     H 1825   4.741   5.101   6.006  0.5270  1.3596 -0.8304
   14MOL0     H 1826   4.766   4.984   5.874 -0.2413 -1.0337 -0.0534
   14MOL0     H 1827   4.557   5.077   5.782 -2.9718  0.2152  1.6303
   14MOL0     H 1828   4.563   5.204   5.904  2.2946 -2.9511  4.9696
   14MOL0     H 1829   4.798   5.265   5.818  1.4151 -1.7987 -0.2729
   14MOL0     H 1830   4.766   5.163   5.681  1.6850  0.5590  0.1076
   14MOL0     H 1831   4.550   5.277   5.612  0.4528  0.0027 -1.3085
   14MOL0     H 1832   4.560   5.376   5.757  1.2403 -0.9360  1.6120
   14MOL0     H 1833   4.775   5.479   5.648 -1.3486  0.2457 -0.1058
   14MOL0     H 1834   4.749   5.369   5.510  0.2171  1.1217 -1.4912
   14MOL0     H 1835   4.530   5.483   5.463 -1.1573  0.3557 -0.6867
   14MOL0     H 1836   4.563   5.589   5.604 -0.9015 -1.6437  0.0873
   14MOL0     H 1837   4.783   5.658   5.494 -2.4791  0.8501  3.4994
   14MOL0     H 1838   4.745   5.533   5.373  0.6177 -3.5960  3.7883
   14MOL0     H 1839   4.611   5.808   5.439  0.2580  0.2601 -0.2344
   14MOL0     H 1840   4.527   5.688   5.339 -0.8377  1.4968  1.4920
   14MOL0     H 1841   4.627   5.623   5.108  3.5617 -1.0857 -3.7309
   14MOL0     H 1842   4.896   5.788   4.871  1.3621 -0.3265  0.8917
   14MOL0     H 1843   4.847   5.628   4.919 -0.4582  0.5560  1.4138
   14MOL0     H 1844   4.632   5.807   4.784  0.6217 -0.4872 -1.6997
   14MOL0     H 1845   4.627   5.640   4.843 -1.5432  1.2521  0.1083
   14MOL0     H 1846   4.788   5.745   4.599  2.2977 -1.2585 -1.6998
   14MOL0     H 1847   4.657   5.626   4.608  0.6995  1.1635  0.0759
   14MOL0     H 1848   4.811   5.484   4.742  0.0751 -1.6427 -0.5568
   14MOL0     H 1849   4.945   5.589   4.678  1.0161 -1.4846 -3.2368
   14MOL0     H 1850   4.827   5.361   4.317 -0.9811  0.7697  0.1200
   14MOL0     H 1851   5.015   5.372   4.025  0.7458 -1.1947  2.2019
   14MOL0     H 1852   4.892   5.285   4.111  3.0823 -0.0539  1.1466
   14MOL0     H 1853   4.852   5.418   3.989  2.6511  3.9911 -0.8543
   14MOL0     H 1854   4.880   5.832   3.939 -1.1704  2.5302 -0.8555
   14MOL0     H 1855   4.832   5.978   3.722 -2.8024 -1.1841  1.4240
   14MOL0     H 1856   4.861   6.108   3.529  0.1097 -3.9008  2.8147
   14MOL0     H 1857   5.034   6.077   3.509 -1.8335  1.2807  5.5660
   14MOL0     H 1858   4.964   5.980   3.267  0.2881 -0.0405 -0.7639
   14MOL0     H 1859   4.825   6.059   3.298  0.7354  2.3714 -0.0140
   14MOL0     H 1860   5.083   6.225   3.292  2.8123 -3.4389 -1.9160
   14MOL0     H 1861   4.911   6.273   3.256  3.6529  3.7180 -2.0434
   14MOL0     H 1862   5.088   6.085   3.085 -0.7397 -1.7261  1.8621
   14MOL0     H 1863   4.918   6.119   3.073 -0.1455  2.7970 -0.7302
   14MOL0     H 1864   4.930   6.312   2.970 -0.8426 -1.1864  0.0253
   14MOL0     H 1865   5.083   6.247   2.918  1.2595  1.5529 -0.3453
   14MOL0     H 1866   5.028   6.447   3.129 -0.7865 -1.8089  1.4159
   14MOL0     H 1867   5.187   6.356   3.112 -1.6677 -2.5880 -0.8783
   14MOL0     H 1868   5.199   6.478   2.886 -2.0584  0.9567 -1.7707
   14MOL0     H 1869   5.185   6.595   3.023  0.4469 -1.6080  0.2884
   14MOL0     H 1870   5.046   6.687   2.897  1.3661 -0.9601  0.4434
   14MOL0     H 1871   4.930   6.591   2.980 -4.0800  1.0041 -3.3993
   14MOL0     H 1872   5.040   5.691   3.500  1.0507 -2.6252  1.9999
   14MOL0     H 1873   5.090   5.548   3.685 -1.4484 -0.2380 -0.3408
   14MOL0     H 1874   5.083   5.779   4.289  2.2258 -2.1607  2.8859
   14MOL0     H 1875   5.004   5.699   4.509  0.8214  3.5384 -2.6322
   14MOL0     H 1876   4.490   4.825   6.204 -0.7005  1.6262 -3.4690
   14MOL0     H 1877   4.610   4.685   6.376 -2.4260  3.1160  0.3457
   14MOL0     H 1878   4.947   4.757   6.766 -2.5470 -0.4546  1.4314
   14MOL0     H 1879   5.007   4.605   6.951  0.8414 -0.6046  0.6056
   14MOL0     H 1880   5.175   4.460   7.071 -2.2475  1.2248 -0.8246
   14MOL0     H 1881   5.008   4.450   7.097 -0.5866 -0.2680  0.3824
   14MOL0     H 1882   5.094   4.305   7.256 -1.8257 -3.2234  0.3838
   14MOL0     H 1883   5.201   4.216   7.143 -0.4826 -1.2660  0.0686
   14MOL0     H 1884   4.975   4.100   7.222 -1.8811 -2.2023 -3.2639
   14MOL0     H 1885   5.042   4.096   7.057  1.6392  1.6648 -1.6523
   14MOL0     H 1886   4.858   4.290   7.010  0.4715 -1.2561 -1.2010
   14MOL0     H 1887   4.844   4.297   7.187  0.3232  0.4913 -0.4691
   14MOL0     H 1888   4.607   3.985   7.027 -0.1739 -0.5643  0.8842
   14MOL0     H 1889   5.047   4.286   6.659 -4.0491 -0.5473 -2.4202
   14MOL0     H 1890   4.963   4.425   6.491  1.4233 -1.3321  0.0028
   15MOL0     O 1891   8.546   3.176   1.096  0.1950 -0.4544  0.7116
   15MOL0     C 1892   8.474   3.077   1.122 -0.9471  0.2447  0.6901
   15MOL0     O 1893   8.383   3.068   1.220  0.1012  0.5308 -0.4049
   15MOL0     C 1894   8.376   3.163   1.314  0.5060 -0.0735  0.2836
   15MOL0     C 1895   8.475   3.256   1.363 -0.8454 -0.0391 -0.4917
   15MOL0     C 1896   8.437   3.358   1.457  0.2240  1.1660  1.3033
   15MOL0     C 1897   8.304   3.351   1.521  0.2366  0.6174  0.6144
   15MOL0     O 1898   8.258   3.431   1.627 -0.4308  0.2878 -0.4693
   15MOL0     C 1899   8.337   3.552   1.666 -0.8286 -0.3834 -0.7088
   15MOL0     C 1900   8.270   3.634   1.775 -1.2031  1.0487  0.2659
   15MOL0     C 1901   8.176   3.745   1.719 -0.0007 -0.7533 -1.0782
   15MOL0     C 1902   8.186   3.887   1.778 -0.4816  0.0053  0.1410
   15MOL0     C 1903   8.316   3.957   1.731 -0.2670 -0.4242 -0.0959
   15MOL0     C 1904   8.346   4.088   1.810 -0.4353 -0.1274  0.3866
   15MOL0     C 1905   8.472   4.169   1.763 -0.2813 -0.4075 -0.1725
   15MOL0     C 1906   8.472   4.196   1.609  0.4790 -0.3993  0.2763
   15MOL0     N 1907   8.550   4.314   1.570  0.1178 -0.6552 -0.0327
   15MOL0     C 1908   8.685   4.315   1.590 -0.9798 -0.0340  0.1461
   15MOL0     C 1909   8.724   4.434   1.540  0.4382  0.1633 -0.1870
   15MOL0     C 1910   8.858   4.489   1.536  0.8433  0.8116  0.0694
   15MOL0     C 1911   8.906   4.479   1.396  0.0270 -0.3148  0.1545
   15MOL0     C 1912   9.052   4.527   1.367 -0.4757 -0.3573  0.8771
   15MOL0     C 1913   9.141   4.412   1.413  1.5075  0.3610  0.5282
   15MOL0     O 1914   9.281   4.451   1.408 -0.7365 -1.1590 -0.2614
   15MOL0     C 1915   9.326   4.515   1.297 -0.3077 -0.3489 -0.7127
   15MOL0     C 1916   9.399   4.638   1.302  0.5655 -0.3587 -0.0040
   15MOL0     C 1917   9.431   4.704   1.186  0.8744 -0.0458  0.0793
   15MOL0     C 1918   9.511   4.834   1.205  1.2167 -0.3231 -0.4866
   15MOL0     C 1919   9.387   4.651   1.055 -0.9573 -0.3729 -0.3678
   15MOL0     C 1920   9.433   4.720   0.927  0.2107 -0.4586 -0.1941
   15MOL0     O 1921   9.348   4.740   0.823  0.8696 -0.5422  0.1805
   15MOL0     C 1922   9.213   4.746   0.856 -0.2778 -0.3513  0.2228
   15MOL0     C 1923   9.137   4.638   0.811 -0.3223 -0.8507 -0.0679
   15MOL0     C 1924   8.995   4.639   0.833  0.5335 -0.2602 -0.0662
   15MOL0     C 1925   8.930   4.743   0.908 -0.6998  0.3244  0.4227
   15MOL0     O 1926   8.802   4.740   0.954  0.5070  0.0591 -0.8105
   15MOL0     C 1927   8.722   4.629   0.916 -0.2145 -0.0743 -0.5940
   15MOL0     C 1928   8.573   4.653   0.948  1.1173  0.0475  0.9357
   15MOL0     C 1929   8.532   4.629   1.087  0.3458 -1.2890  0.3327
   15MOL0     C 1930   8.553   4.481   1.138  0.1279 -0.7987 -0.3050
   15MOL0     C 1931   8.467   4.380   1.062  0.2571  1.4279 -0.1095
   15MOL0     C 1932   8.310   4.390   1.068 -0.2971  0.3034  0.9815
   15MOL0     C 1933   8.251   4.356   1.210 -0.1742 -0.4893  0.4877
   15MOL0     C 1934   8.099   4.364   1.229 -0.7734  0.1032 -0.2855
   15MOL0    Cl 1935   8.090   4.383   1.409  0.0112  0.4316  0.3479
   15MOL0     C 1936   9.017   4.840   0.953 -0.3735 -0.1452  0.2883
   15MOL0     C 1937   9.155   4.846   0.929  0.2493 -0.2872 -0.1028
   15MOL0     O 1938   9.556   4.758   0.928  0.3778 -0.0754  0.2635
   15MOL0     C 1939   9.327   4.525   1.055 -0.5222 -0.2483 -0.6752
   15MOL0     C 1940   9.300   4.459   1.171  0.1857  0.4546 -0.3603
   15MOL0     N 1941   8.612   4.509   1.499 -0.5717 -0.9662  0.6700
   15MOL0     N 1942   8.504   4.427   1.506  0.2765 -0.0806 -0.3211
   15MOL0     C 1943   8.218   3.249   1.478 -0.2911  0.2873  0.0704
   15MOL0     C 1944   8.249   3.160   1.374 -1.1756 -0.4070  0.0190
   15MOL0     C 1945   8.487   2.957   1.044 -0.2561 -0.3228 -0.8760
   15MOL0     C 1946   8.420   2.844   1.095 -0.2447 -1.0270  0.4513
   15MOL0     C 1947   8.437   2.720   1.042 -0.0568 -0.4767 -0.3099
   15MOL0     C 1948   8.510   2.699   0.926  0.3647  0.5652 -0.3578
   15MOL0     O 1949   8.505   2.577   0.877  0.2336 -0.4862 -0.1561
   15MOL0     C 1950   8.507   2.581   0.732 -0.5068 -0.2718 -0.0010
   15MOL0     C 1951   8.411   2.465   0.704 -0.6473 -0.0622  0.5401
   15MOL0     C 1952   8.398   2.434   0.553 -0.1096 -0.5309 -0.5347
   15MOL0     C 1953   8.353   2.560   0.480 -0.2779  0.6257 -0.0931
   15MOL0     C 1954   8.317   2.528   0.343 -0.6991 -0.1547  0.6671
   15MOL0     C 1955   8.265   2.503   0.235  0.1743 -0.1547 -0.1282
   15MOL0     C 1956   8.559   2.818   0.862 -0.2292  0.0821 -0.2762
   15MOL0     C 1957   8.558   2.941   0.923  0.2610  0.1922 -0.2640
   15MOL0     H 1958   8.576   3.262   1.325 -0.5007 -1.8761  0.0532
   15MOL0     H 1959   8.508   3.435   1.487  0.8857  0.1772  2.3713
   15MOL0     H 1960   8.428   3.514   1.712 -0.1036  1.3204 -0.6717
   15MOL0     H 1961   8.362   3.624   1.588 -0.2349 -1.3654 -1.4546
   15MOL0     H 1962   8.215   3.570   1.845  0.9187  1.4482  2.4681
   15MOL0     H 1963   8.346   3.677   1.842  1.0764 -0.0919 -1.4407
   15MOL0     H 1964   8.187   3.748   1.610 -1.3531  0.2299 -1.2125
   15MOL0     H 1965   8.069   3.722   1.731 -0.5177  1.4483 -1.0479
   15MOL0     H 1966   8.100   3.942   1.739 -1.6413 -2.7209 -1.4432
   15MOL0     H 1967   8.186   3.870   1.886 -1.3167 -0.7526  0.0297
   15MOL0     H 1968   8.394   3.881   1.744  0.3839  0.5032  1.7311
   15MOL0     H 1969   8.318   3.975   1.624 -1.7333 -2.1302 -0.4668
   15MOL0     H 1970   8.263   4.159   1.810  0.5509  1.0693 -0.0114
   15MOL0     H 1971   8.359   4.086   1.919  1.8904  1.4425  0.2287
   15MOL0     H 1972   8.471   4.263   1.819  1.4477  0.9016 -2.1630
   15MOL0     H 1973   8.556   4.114   1.807 -0.0095 -1.1219 -1.5121
   15MOL0     H 1974   8.366   4.205   1.581  0.4386  2.1747  0.9960
   15MOL0     H 1975   8.528   4.117   1.559  2.2712  1.1776 -0.3229
   15MOL0     H 1976   8.745   4.231   1.623  0.5396  1.7329  2.1316
   15MOL0     H 1977   8.843   4.593   1.569  1.6149  0.3979  1.8301
   15MOL0     H 1978   8.931   4.435   1.597  0.5700  0.0929 -0.2306
   15MOL0     H 1979   8.844   4.554   1.344 -1.4307 -0.3609  1.7474
   15MOL0     H 1980   8.889   4.379   1.354 -1.4476 -0.1618  0.3227
   15MOL0     H 1981   9.072   4.625   1.411  0.1353  0.0726 -0.3141
   15MOL0     H 1982   9.057   4.544   1.259  0.0574 -0.3722  0.8942
   15MOL0     H 1983   9.125   4.329   1.344  0.5496 -0.3631  1.5815
   15MOL0     H 1984   9.110   4.385   1.515 -2.0156  0.9553 -0.2653
   15MOL0     H 1985   9.424   4.665   1.404  1.0074 -0.3052 -0.1244
   15MOL0     H 1986   9.455   4.928   1.207  0.9933 -0.4625  1.2828
   15MOL0     H 1987   9.558   4.841   1.303  3.6875 -1.0991 -1.5395
   15MOL0     H 1988   9.591   4.846   1.131  0.1847  0.6262 -1.4959
   15MOL0     H 1989   9.179   4.554   0.756 -0.1021  0.1420 -1.4692
   15MOL0     H 1990   8.935   4.556   0.797  0.3589 -0.2401  0.1712
   15MOL0     H 1991   8.725   4.620   0.807 -0.7255  0.6800 -0.6779
   15MOL0     H 1992   8.754   4.531   0.953  0.9051 -0.0558 -1.4397
   15MOL0     H 1993   8.547   4.756   0.921  3.2228  0.7098  1.2574
   15MOL0     H 1994   8.519   4.580   0.887 -1.2720  3.2730 -1.1304
   15MOL0     H 1995   8.427   4.659   1.093  0.0701 -1.4172 -2.4079
   15MOL0     H 1996   8.589   4.680   1.166  0.1111 -1.5623  0.6801
   15MOL0     H 1997   8.659   4.453   1.134  1.7435  3.3704  3.9911
   15MOL0     H 1998   8.518   4.482   1.241  1.4056  3.2090  0.2348
   15MOL0     H 1999   8.485   4.279   1.102  0.1581  1.3568 -0.2432
   15MOL0     H 2000   8.484   4.387   0.955 -1.8848  3.4441 -0.3803
   15MOL0     H 2001   8.274   4.487   1.034 -2.1322 -1.0964 -1.3396
   15MOL0     H 2002   8.268   4.330   0.987  0.4522  0.0395  0.7752
   15MOL0     H 2003   8.301   4.419   1.284  2.8071 -0.4497 -1.3909
   15MOL0     H 2004   8.282   4.252   1.228  0.5624 -0.6563 -1.5688
   15MOL0     H 2005   8.041   4.280   1.189 -1.5750  1.7585 -2.7537
   15MOL0     H 2006   8.065   4.453   1.176 -2.1004 -0.8466 -1.1150
   15MOL0     H 2007   8.971   4.912   1.020 -1.5625  2.8990 -3.4571
   15MOL0     H 2008   9.216   4.929   0.966  1.3335 -0.2915 -1.7966
   15MOL0     H 2009   9.304   4.486   0.956 -0.6311 -0.1938 -0.6708
   15MOL0     H 2010   9.248   4.363   1.170 -0.8178  0.8936  1.9685
   15MOL0     H 2011   8.119   3.236   1.519 -0.9518 -0.7094 -1.7016
   15MOL0     H 2012   8.184   3.083   1.334 -0.4937 -0.0446 -1.9074
   15MOL0     H 2013   8.356   2.851   1.182 -0.8884  0.5467 -0.1115
   15MOL0     H 2014   8.385   2.635   1.085  0.4603 -1.5127 -1.6555
   15MOL0     H 2015   8.463   2.673   0.691 -0.1222 -0.0567  0.0598
   15MOL0     H 2016   8.606   2.561   0.689 -0.5090 -0.8035  0.2440
   15MOL0     H 2017   8.316   2.483   0.755 -0.6528 -2.3832  1.4747
   15MOL0     H 2018   8.451   2.376   0.755 -1.9836 -1.3153 -0.4875
   15MOL0     H 2019   8.315   2.364   0.542 -3.7331  3.4147 -0.9479
   15MOL0     H 2020   8.491   2.391   0.517 -0.0098  0.5999 -1.7305
   15MOL0     H 2021   8.429   2.638   0.493  0.3875 -0.2355  1.4869
   15MOL0     H 2022   8.257   2.595   0.519  0.0887  2.5586 -0.8063
   15MOL0     H 2023   8.224   2.468   0.142  2.4845  0.2274 -1.3590
   15MOL0     H 2024   8.619   2.819   0.771  1.4157 -1.5992  0.7221
   15MOL0     H 2025   8.626   3.017   0.884  2.0736 -0.2546  1.8414
   16MOL0     O 2026   8.782   9.763   6.525 -1.0332 -0.2232 -0.2085
   16MOL0     C 2027   8.752   9.717   6.636 -0.3162 -0.0794 -0.6095
   16MOL0     O 2028   8.691   9.595   6.658 -0.0421  0.1388  0.4087
   16MOL0     C 2029   8.638   9.522   6.554 -0.0626  0.0382 -0.8509
   16MOL0     C 2030   8.510   9.547   6.498  0.9507  0.3358 -0.8354
   16MOL0     C 2031   8.458   9.449   6.416 -0.5914 -1.0082 -0.5477
   16MOL0     C 2032   8.535   9.341   6.370  0.1425  0.7320 -1.1880
   16MOL0     O 2033   8.479   9.257   6.275  0.0531  0.0659  0.3416
   16MOL0     C 2034   8.545   9.242   6.155  0.1243  0.1158  0.5761
   16MOL0     C 2035   8.474   9.135   6.068 -0.0794 -0.2903 -0.5936
   16MOL0     C 2036   8.501   8.996   6.113 -0.1922  0.7613  0.0869
   16MOL0     C 2037   8.421   8.947   6.233 -0.2748  0.6608 -0.3167
   16MOL0     C 2038   8.453   8.814   6.311  0.0898  0.3321 -0.3055
   16MOL0     C 2039   8.593   8.791   6.360 -0.8708  0.8235  0.1210
   16MOL0     C 2040   8.581   8.663   6.440 -0.9437 -0.1384 -0.7666
   16MOL0     C 2041   8.724   8.636   6.482  0.1220  0.5763 -0.2126
   16MOL0     N 2042   8.741   8.547   6.596  0.3394 -0.2734  0.3271
   16MOL0     C 2043   8.679   8.427   6.618 -1.0673 -0.1337  1.1123
   16MOL0     C 2044   8.762   8.355   6.699 -0.1708 -0.4200  0.1397
   16MOL0     C 2045   8.741   8.206   6.718  0.4758 -0.4168 -0.1014
   16MOL0     C 2046   8.797   8.149   6.855 -0.2466  0.4484  0.2915
   16MOL0     C 2047   8.810   8.001   6.860  0.0750 -0.5436  1.1737
   16MOL0     C 2048   8.801   7.935   6.991 -0.5517 -0.3493  0.4932
   16MOL0     O 2049   8.827   7.796   6.975 -0.3697 -0.6988  0.0776
   16MOL0     C 2050   8.850   7.712   7.084 -0.6149  0.9019 -0.0554
   16MOL0     C 2051   8.866   7.756   7.218  0.6710  0.0357 -0.0911
   16MOL0     C 2052   8.889   7.666   7.318 -0.5625 -0.9520 -0.3302
   16MOL0     C 2053   8.921   7.731   7.455  0.5151  0.0805 -0.2477
   16MOL0     C 2054   8.901   7.531   7.296  0.1992  0.0194  0.1072
   16MOL0     C 2055   8.897   7.426   7.398 -0.6178  0.0685  0.0551
   16MOL0     O 2056   8.942   7.300   7.360 -0.6680 -0.3215 -0.4127
   16MOL0     C 2057   8.922   7.188   7.444 -0.5169 -0.6392  0.1325
   16MOL0     C 2058   8.994   7.174   7.573  0.3787  0.4175  0.1928
   16MOL0     C 2059   8.974   7.052   7.644 -0.6706 -0.1874  0.7918
   16MOL0     C 2060   8.887   6.958   7.596  0.5456 -0.4662 -0.2340
   16MOL0     O 2061   8.878   6.851   7.679  0.2593 -0.4285  0.3767
   16MOL0     C 2062   8.807   6.739   7.630  0.1956 -0.0628 -1.5053
   16MOL0     C 2063   8.809   6.632   7.745  0.4739 -0.7943  0.0459
   16MOL0     C 2064   8.944   6.578   7.750  1.0719  0.1418 -0.6988
   16MOL0     C 2065   8.942   6.482   7.864 -0.5799  0.1838  0.3992
   16MOL0     C 2066   9.055   6.382   7.849 -0.1111 -0.7100  0.0502
   16MOL0     C 2067   9.086   6.311   7.978  0.4443  0.9896 -0.5888
   16MOL0     C 2068   9.156   6.165   7.964 -0.5079 -0.3602  0.1001
   16MOL0     C 2069   9.168   6.100   8.103  0.3306  0.1981 -0.5002
   16MOL0    Cl 2070   9.299   6.173   8.200 -0.3077 -0.0403 -0.3663
   16MOL0     C 2071   8.819   6.983   7.475 -0.6457  0.6237 -0.0498
   16MOL0     C 2072   8.842   7.090   7.392 -0.4143 -0.1894  0.8528
   16MOL0     O 2073   8.844   7.449   7.508  0.8546 -0.8928  0.7986
   16MOL0     C 2074   8.892   7.495   7.163  0.6272  0.5542  0.2643
   16MOL0     C 2075   8.868   7.577   7.054  0.3947 -0.8997 -0.1700
   16MOL0     N 2076   8.875   8.432   6.732 -0.0462 -0.6199 -0.1720
   16MOL0     N 2077   8.855   8.546   6.672 -0.1756 -0.3645  0.1939
   16MOL0     C 2078   8.658   9.309   6.427  0.3112 -0.0728  0.1822
   16MOL0     C 2079   8.702   9.396   6.527 -0.0956  1.2128  1.0446
   16MOL0     C 2080   8.795   9.800   6.764 -0.6552  1.1870  0.8091
   16MOL0     C 2081   8.865   9.924   6.764  0.3639  0.1843  0.9299
   16MOL0     C 2082   8.909   9.988   6.881 -0.1015 -0.5642 -0.6009
   16MOL0     C 2083   8.874   9.934   7.006 -0.0342  0.0718 -0.3127
   16MOL0     O 2084   8.916  10.018   7.110  0.6506 -0.8564 -0.4243
   16MOL0     C 2085   8.939   9.965   7.240  0.0153 -0.1306 -0.2630
   16MOL0     C 2086   9.072   9.895   7.226 -0.6317  0.0535 -1.0389
   16MOL0     C 2087   9.173   9.941   7.334  0.2903  0.1145 -0.2582
   16MOL0     C 2088   9.297   9.845   7.356 -0.0234 -0.1339  0.7519
   16MOL0     C 2089   9.412   9.913   7.412  1.1067 -0.1994  0.1749
   16MOL0     C 2090   9.502   9.970   7.469  0.0073  0.2683 -0.9210
   16MOL0     C 2091   8.809   9.813   7.011  0.0932 -0.1662 -0.2274
   16MOL0     C 2092   8.774   9.745   6.889  0.2263  0.3913 -0.9234
   16MOL0     H 2093   8.455   9.639   6.511  4.5181  2.7914 -1.5296
   16MOL0     H 2094   8.365   9.468   6.363 -0.6610 -2.8174 -1.1501
   16MOL0     H 2095   8.548   9.336   6.099  0.4728  0.0953  0.5613
   16MOL0     H 2096   8.650   9.218   6.175  0.1033 -1.8935 -1.2733
   16MOL0     H 2097   8.368   9.160   6.071 -0.0384 -0.1766  1.0947
   16MOL0     H 2098   8.498   9.149   5.962  1.7455  1.4194 -0.0124
   16MOL0     H 2099   8.508   8.929   6.027 -0.2769 -0.9342  1.3653
   16MOL0     H 2100   8.603   8.992   6.152 -0.1922 -1.6960 -0.0213
   16MOL0     H 2101   8.423   9.028   6.307  1.8231  1.5167 -1.2304
   16MOL0     H 2102   8.314   8.931   6.213 -0.3468 -0.2098  0.6717
   16MOL0     H 2103   8.381   8.807   6.393  0.8744  0.6019  0.4334
   16MOL0     H 2104   8.432   8.725   6.251 -0.6393 -0.9987  1.8114
   16MOL0     H 2105   8.665   8.780   6.279 -0.8137 -0.3080  0.3081
   16MOL0     H 2106   8.621   8.862   6.439  0.4528  1.0841 -0.5568
   16MOL0     H 2107   8.519   8.675   6.529  0.5450 -0.3479  0.3351
   16MOL0     H 2108   8.554   8.576   6.380 -1.6631  0.3550 -1.1797
   16MOL0     H 2109   8.762   8.732   6.519 -2.5556  0.6597  2.7545
   16MOL0     H 2110   8.780   8.592   6.399 -1.4444 -0.9741 -0.4895
   16MOL0     H 2111   8.591   8.383   6.573 -0.3218 -0.6623  0.1410
   16MOL0     H 2112   8.634   8.189   6.706  0.0739  1.7471 -0.1108
   16MOL0     H 2113   8.795   8.153   6.640 -0.5601 -2.5142  0.5475
   16MOL0     H 2114   8.731   8.186   6.934 -1.7870  2.5435 -1.8511
   16MOL0     H 2115   8.894   8.196   6.875 -0.2648 -0.1004  1.8020
   16MOL0     H 2116   8.902   7.964   6.812  0.4482  1.1314  0.5185
   16MOL0     H 2117   8.725   7.960   6.805  0.5857 -1.2177  0.8656
   16MOL0     H 2118   8.709   7.961   7.044 -0.2326 -0.6506  1.2014
   16MOL0     H 2119   8.874   7.977   7.061 -2.4171  2.6170  0.8439
   16MOL0     H 2120   8.867   7.862   7.240  3.4718 -0.1201  0.8974
   16MOL0     H 2121   9.012   7.685   7.494  0.6323  0.8081  0.3651
   16MOL0     H 2122   8.951   7.836   7.449  0.5632 -0.0286 -3.3774
   16MOL0     H 2123   8.843   7.719   7.532 -1.8211  5.9585 -1.1433
   16MOL0     H 2124   9.055   7.254   7.612  1.6285  0.4319 -1.6537
   16MOL0     H 2125   9.025   7.050   7.740 -0.3935 -1.2457  0.6291
   16MOL0     H 2126   8.703   6.759   7.603 -0.1794 -0.2923 -0.2808
   16MOL0     H 2127   8.855   6.706   7.538  1.2627  2.1574 -1.8078
   16MOL0     H 2128   8.793   6.676   7.844  1.3584  3.5682 -1.5232
   16MOL0     H 2129   8.731   6.555   7.740  0.2599 -0.5490 -0.3948
   16MOL0     H 2130   9.008   6.656   7.793  0.2614 -0.5989  2.0413
   16MOL0     H 2131   8.980   6.540   7.655  1.2157  0.9955 -0.9975
   16MOL0     H 2132   8.943   6.546   7.953 -1.0122 -0.2218  0.7034
   16MOL0     H 2133   8.846   6.429   7.858  0.4350 -1.5146 -2.3906
   16MOL0     H 2134   9.148   6.431   7.820  0.0910 -1.9312 -1.4613
   16MOL0     H 2135   9.026   6.302   7.780 -4.7188 -0.1927  1.0707
   16MOL0     H 2136   9.156   6.372   8.035  0.1302 -0.0199  0.9488
   16MOL0     H 2137   8.990   6.300   8.029 -0.5143  4.4410 -1.3770
   16MOL0     H 2138   9.253   6.177   7.915  1.1233  1.4363  3.4519
   16MOL0     H 2139   9.094   6.101   7.900  1.5819 -2.9781  0.5085
   16MOL0     H 2140   9.192   5.994   8.096  3.2458  0.8439 -1.3490
   16MOL0     H 2141   9.078   6.106   8.166  1.6051  3.1411  1.2325
   16MOL0     H 2142   8.775   6.894   7.432  2.2311 -1.4016  0.9085
   16MOL0     H 2143   8.783   7.100   7.302 -2.3991  0.7912  2.1800
   16MOL0     H 2144   8.900   7.393   7.127  1.0561  1.4527 -2.3543
   16MOL0     H 2145   8.883   7.545   6.951  0.7511 -0.3243 -0.3056
   16MOL0     H 2146   8.711   9.219   6.396  1.2769  0.2156  0.9660
   16MOL0     H 2147   8.800   9.362   6.557 -0.9902 -1.9206  0.7457
   16MOL0     H 2148   8.893   9.955   6.664 -2.3552  1.7428  0.5435
   16MOL0     H 2149   8.962  10.082   6.867 -2.0368  0.7620  0.4211
   16MOL0     H 2150   8.940  10.055   7.302 -2.1548 -0.4812  0.3578
   16MOL0     H 2151   8.865   9.893   7.275  2.1940 -1.5277  1.6754
   16MOL0     H 2152   9.105   9.915   7.123  1.4366 -0.4377 -0.5223
   16MOL0     H 2153   9.044   9.789   7.235 -2.4007  0.5832  0.1682
   16MOL0     H 2154   9.119   9.942   7.429 -0.1473 -3.1246 -0.3536
   16MOL0     H 2155   9.209  10.041   7.308  0.2179  0.2334  0.1014
   16MOL0     H 2156   9.322   9.800   7.260  1.7178  3.3804 -0.6183
   16MOL0     H 2157   9.266   9.756   7.413 -0.2183  0.6264  1.8597
   16MOL0     H 2158   9.588  10.010   7.518 -0.4220 -0.6005  0.5918
   16MOL0     H 2159   8.774   9.774   7.106  0.1697 -4.6678 -1.8132
   16MOL0     H 2160   8.737   9.646   6.911  0.1961  0.5930 -0.0194
   17MOL0     O 2161   0.664   4.474   9.005 -0.4522 -0.1141  0.1089
   17MOL0     C 2162   0.699   4.450   9.124  0.5605  0.2113 -0.1992
   17MOL0     O 2163   0.798   4.514   9.194 -0.2804  0.0156  0.1286
   17MOL0     C 2164   0.880   4.614   9.139 -0.6565  0.0693 -0.3782
   17MOL0     C 2165   0.932   4.695   9.232  0.0179  0.2365  0.2182
   17MOL0     C 2166   1.031   4.793   9.202 -0.3385  0.1856 -0.5412
   17MOL0     C 2167   1.074   4.809   9.073  0.3312  0.5928 -0.4751
   17MOL0     O 2168   1.171   4.890   9.027  0.2985  0.2486 -0.1315
   17MOL0     C 2169   1.228   5.003   9.095  1.6424 -0.0740  1.2540
   17MOL0     C 2170   1.135   5.123   9.121  0.3839  0.0727 -0.5481
   17MOL0     C 2171   1.067   5.181   8.990  0.1388  0.9334  0.5810
   17MOL0     C 2172   1.175   5.262   8.911  1.3782 -0.4257 -0.2063
   17MOL0     C 2173   1.125   5.379   8.812  0.4333  0.2808  0.4501
   17MOL0     C 2174   1.077   5.505   8.882  0.2756 -0.9273 -0.4235
   17MOL0     C 2175   0.997   5.599   8.791  0.7159 -0.5327  0.2166
   17MOL0     C 2176   0.919   5.708   8.873 -0.2285 -0.2766  0.3605
   17MOL0     N 2177   0.893   5.817   8.781  0.5299  0.1577  0.1902
   17MOL0     C 2178   0.885   5.812   8.641 -0.3241  0.2526 -0.2518
   17MOL0     C 2179   0.859   5.951   8.614 -0.5146  0.8002  0.0705
   17MOL0     C 2180   0.846   6.029   8.482 -0.0354  0.6667  0.7403
   17MOL0     C 2181   0.712   6.014   8.423 -0.2043  0.9139  0.0465
   17MOL0     C 2182   0.668   6.136   8.355  0.9520 -0.5766  0.6547
   17MOL0     C 2183   0.537   6.121   8.280  0.0703 -0.8188 -1.0677
   17MOL0     O 2184   0.478   5.993   8.310 -0.6003 -0.3479  0.3986
   17MOL0     C 2185   0.376   5.961   8.218  0.4294 -0.7217 -0.3926
   17MOL0     C 2186   0.293   6.058   8.158 -1.0539  0.1421 -0.3911
   17MOL0     C 2187   0.186   6.022   8.073  0.5348  0.0272 -0.5686
   17MOL0     C 2188   0.097   6.141   8.016 -0.7479  0.2328 -0.5327
   17MOL0     C 2189   0.147   5.886   8.061 -0.5790 -0.8637 -0.0362
   17MOL0     C 2190   0.025   5.837   8.007 -0.5541  1.0570 -0.5525
   17MOL0     O 2191   0.038   5.726   7.930 -0.2430 -0.0375 -1.1988
   17MOL0     C 2192  -0.068   5.661   7.875  0.6191 -0.9169  1.1983
   17MOL0     C 2193  -0.058   5.522   7.857  0.6547 -0.2355 -0.3843
   17MOL0     C 2194  -0.163   5.449   7.791  0.1353 -0.6862  0.1940
   17MOL0     C 2195  -0.273   5.513   7.748  0.1834  0.1694 -0.1060
   17MOL0     O 2196  -0.371   5.452   7.682  0.2329 -0.1468 -0.5066
   17MOL0     C 2197  -0.503   5.504   7.684 -0.2047 -0.5701 -0.2935
   17MOL0     C 2198  -0.592   5.407   7.607  0.1973  0.0840  0.2075
   17MOL0     C 2199  -0.618   5.273   7.682 -0.2313  0.0252 -0.4057
   17MOL0     C 2200  -0.723   5.185   7.611 -1.0940 -0.1566 -0.7959
   17MOL0     C 2201  -0.745   5.047   7.659  0.4176  0.5873  0.3092
   17MOL0     C 2202  -0.813   5.044   7.788  0.5779 -0.2576 -0.6863
   17MOL0     C 2203  -0.850   4.905   7.850  0.1649  0.2778  0.3494
   17MOL0     C 2204  -0.722   4.837   7.887  0.5751  0.2122 -0.6466
   17MOL0    Cl 2205  -0.775   4.677   7.955  0.6111  0.2358  0.1690
   17MOL0     C 2206  -0.277   5.652   7.760 -0.7415 -0.3853  0.3243
   17MOL0     C 2207  -0.180   5.734   7.816 -1.0545  0.5496  0.0986
   17MOL0     O 2208  -0.083   5.886   8.044 -0.7006  0.4600 -1.0637
   17MOL0     C 2209   0.228   5.792   8.132  0.2443 -0.0839  0.0774
   17MOL0     C 2210   0.337   5.829   8.211 -0.2296 -0.4634 -0.5554
   17MOL0     N 2211   0.870   6.031   8.726 -0.3944 -0.2921 -0.1695
   17MOL0     N 2212   0.880   5.946   8.820 -0.0794  0.0438 -0.6752
   17MOL0     C 2213   1.005   4.745   8.970 -0.3759  0.0265  0.0227
   17MOL0     C 2214   0.908   4.645   9.002  0.7070 -0.3971  0.6180
   17MOL0     C 2215   0.633   4.342   9.199  0.1546  0.3692 -0.2245
   17MOL0     C 2216   0.554   4.251   9.126 -0.1099  0.2428 -0.2754
   17MOL0     C 2217   0.486   4.148   9.204 -0.6949 -0.0689  0.3334
   17MOL0     C 2218   0.477   4.148   9.339  0.6209 -0.7516  0.1833
   17MOL0     O 2219   0.398   4.049   9.398 -0.1426 -0.4882  0.0444
   17MOL0     C 2220   0.392   4.031   9.533  1.1573  0.4304 -0.1240
   17MOL0     C 2221   0.275   3.933   9.555  0.3555  0.0667 -0.3898
   17MOL0     C 2222   0.136   4.009   9.535  1.4525 -0.7292  0.1657
   17MOL0     C 2223   0.100   4.130   9.615  0.5803  0.3340 -0.9452
   17MOL0     C 2224   0.127   4.110   9.765 -0.0629  0.0276 -0.3362
   17MOL0     C 2225   0.135   4.090   9.884  1.0141 -0.1222  0.4179
   17MOL0     C 2226   0.541   4.257   9.406  0.0175  0.3533  1.2915
   17MOL0     C 2227   0.620   4.349   9.339  0.4695  0.1652  0.1648
   17MOL0     H 2228   0.892   4.678   9.332 -0.3459 -4.2164 -0.4726
   17MOL0     H 2229   1.083   4.858   9.272  0.0958  0.2933 -0.9613
   17MOL0     H 2230   1.272   4.974   9.191 -0.3023  0.1110  2.2406
   17MOL0     H 2231   1.311   5.037   9.032 -0.4030  0.4156 -1.3255
   17MOL0     H 2232   1.048   5.090   9.179 -0.6602  2.8697 -0.3614
   17MOL0     H 2233   1.184   5.205   9.175  0.0047  0.0978 -0.2353
   17MOL0     H 2234   1.035   5.096   8.930  1.1229  0.7618  0.2794
   17MOL0     H 2235   0.984   5.250   9.010 -1.1443 -0.4922  0.4028
   17MOL0     H 2236   1.241   5.299   8.990  0.1253 -1.8374  1.5784
   17MOL0     H 2237   1.231   5.193   8.846 -1.2495 -2.4854 -0.4817
   17MOL0     H 2238   1.203   5.399   8.739 -0.6009  0.3412 -0.6813
   17MOL0     H 2239   1.040   5.337   8.757 -1.5926  2.0863  1.9727
   17MOL0     H 2240   1.005   5.475   8.960 -2.5153  0.3288 -2.3550
   17MOL0     H 2241   1.164   5.561   8.916 -0.2064 -0.3859 -0.0789
   17MOL0     H 2242   1.065   5.641   8.717  2.4013 -1.6367  1.0656
   17MOL0     H 2243   0.927   5.527   8.748 -2.0420  1.7057  0.6573
   17MOL0     H 2244   0.982   5.736   8.957 -0.6898 -0.5691  0.8130
   17MOL0     H 2245   0.825   5.678   8.921 -2.1277  0.6383 -2.4600
   17MOL0     H 2246   0.894   5.728   8.573 -2.6168 -0.0610 -0.2338
   17MOL0     H 2247   0.853   6.134   8.512 -1.3012  0.6091  1.2895
   17MOL0     H 2248   0.921   6.002   8.407 -1.2658 -0.0526 -0.2651
   17MOL0     H 2249   0.633   6.003   8.497 -0.2823  2.9536  0.3106
   17MOL0     H 2250   0.721   5.935   8.348 -1.0286  0.1977  0.6792
   17MOL0     H 2251   0.740   6.185   8.289  0.4422  0.0821  0.5751
   17MOL0     H 2252   0.655   6.214   8.431 -0.4908 -0.7618  0.6127
   17MOL0     H 2253   0.543   6.144   8.173 -2.5288  0.4504 -1.0193
   17MOL0     H 2254   0.469   6.193   8.326  1.1787 -0.2839 -0.2146
   17MOL0     H 2255   0.322   6.163   8.167 -1.0833  0.1038  0.1784
   17MOL0     H 2256   0.146   6.237   8.037 -2.2488  0.6134  1.5991
   17MOL0     H 2257   0.084   6.118   7.910  2.2497 -1.3817 -0.6779
   17MOL0     H 2258   0.003   6.144   8.073 -0.0474  0.3378  0.6605
   17MOL0     H 2259   0.026   5.468   7.900  0.4948  0.4324  0.7949
   17MOL0     H 2260  -0.171   5.341   7.802 -2.4204 -0.4375  1.6348
   17MOL0     H 2261  -0.542   5.511   7.786  2.3568  0.4038  0.7087
   17MOL0     H 2262  -0.514   5.598   7.630  0.9581 -0.8235 -1.0209
   17MOL0     H 2263  -0.695   5.444   7.595  0.8308  1.1526 -3.1837
   17MOL0     H 2264  -0.540   5.393   7.512 -0.1911 -0.2883  0.0464
   17MOL0     H 2265  -0.670   5.294   7.776 -1.4668  1.3483 -1.3338
   17MOL0     H 2266  -0.521   5.222   7.689 -0.8910 -1.2314 -0.1089
   17MOL0     H 2267  -0.816   5.242   7.619 -0.0232  1.5105  0.1987
   17MOL0     H 2268  -0.706   5.176   7.503  0.3303 -2.0243 -0.4827
   17MOL0     H 2269  -0.657   4.983   7.662  1.4341  1.9208  0.0304
   17MOL0     H 2270  -0.814   4.998   7.589  0.9857  1.9276 -1.2552
   17MOL0     H 2271  -0.758   5.106   7.859 -1.0035  1.2219 -0.7121
   17MOL0     H 2272  -0.908   5.096   7.774  0.3404 -0.2886  0.6860
   17MOL0     H 2273  -0.894   4.850   7.766  1.4249  2.1264 -1.6281
   17MOL0     H 2274  -0.927   4.925   7.925 -0.0386  1.8807 -0.2340
   17MOL0     H 2275  -0.657   4.891   7.956 -0.6577  0.9319 -0.0008
   17MOL0     H 2276  -0.660   4.806   7.803  0.0220 -1.5716 -0.4423
   17MOL0     H 2277  -0.359   5.713   7.723 -2.5856 -1.7315  1.9892
   17MOL0     H 2278  -0.179   5.841   7.798  1.7041  0.2286 -2.3497
   17MOL0     H 2279   0.206   5.687   8.144 -1.7515  0.2807 -0.0374
   17MOL0     H 2280   0.383   5.750   8.270 -3.2849 -1.9910 -0.0218
   17MOL0     H 2281   1.028   4.756   8.865 -0.0340 -2.0199 -0.1592
   17MOL0     H 2282   0.866   4.586   8.922  2.1802 -2.2797  1.1672
   17MOL0     H 2283   0.554   4.247   9.017  2.6470 -1.7458 -0.3230
   17MOL0     H 2284   0.444   4.061   9.154  0.7372 -0.1781 -0.7673
   17MOL0     H 2285   0.489   4.002   9.575  1.8854  0.7891 -1.4810
   17MOL0     H 2286   0.375   4.127   9.583  0.5790  1.1550 -1.6241
   17MOL0     H 2287   0.278   3.898   9.659 -1.5717 -0.3800 -0.4415
   17MOL0     H 2288   0.285   3.851   9.484 -0.6834 -2.1974  1.9037
   17MOL0     H 2289   0.048   3.945   9.541 -0.1318  1.1695 -1.6343
   17MOL0     H 2290   0.138   4.053   9.435  0.8927  0.7261  0.7734
   17MOL0     H 2291  -0.007   4.152   9.620  0.4766 -0.3465  0.7839
   17MOL0     H 2292   0.162   4.210   9.574  1.6503 -0.5320 -1.0528
   17MOL0     H 2293   0.156   4.081   9.988  1.8923  0.8374  0.3454
   17MOL0     H 2294   0.528   4.262   9.514 -0.4494  1.4861  1.1883
   17MOL0     H 2295   0.669   4.436   9.381  2.4381 -1.4030  1.3269
   18MOL0     O 2296   1.786   9.421   0.992  0.0709 -1.1217  1.0015
   18MOL0     C 2297   1.830   9.459   0.883 -0.0173  0.1443  1.0015
   18MOL0     O 2298   1.950   9.511   0.855 -0.4942 -0.7815  0.3991
   18MOL0     C 2299   2.022   9.571   0.954 -0.1390 -0.3799  0.1242
   18MOL0     C 2300   2.154   9.533   0.969  0.0002 -0.0340  1.0969
   18MOL0     C 2301   2.234   9.594   1.062 -0.2767 -0.1616  0.1045
   18MOL0     C 2302   2.182   9.700   1.145 -0.3223 -0.4752  0.0173
   18MOL0     O 2303   2.255   9.777   1.231  0.4329 -0.0572 -0.2732
   18MOL0     C 2304   2.393   9.757   1.245 -0.3841 -1.6808 -0.4666
   18MOL0     C 2305   2.455   9.855   1.334 -0.1122  0.7192 -0.3572
   18MOL0     C 2306   2.413   9.834   1.480  0.8756 -0.4187  0.1859
   18MOL0     C 2307   2.448   9.966   1.550 -0.3769 -0.7225 -1.0409
   18MOL0     C 2308   2.380   9.945   1.688  0.9543  0.4776  1.3484
   18MOL0     C 2309   2.387  10.079   1.779  0.1767  0.2603 -0.1431
   18MOL0     C 2310   2.324  10.204   1.721 -0.5344  0.3312 -0.2519
   18MOL0     C 2311   2.418  10.310   1.665  1.1173  0.9659  0.5864
   18MOL0     N 2312   2.500  10.379   1.764  0.4930 -0.1328 -0.1673
   18MOL0     C 2313   2.439  10.445   1.865  0.5598 -0.2089 -0.5355
   18MOL0     C 2314   2.539  10.450   1.960 -0.0665  0.1306  0.5665
   18MOL0     C 2315   2.516  10.504   2.099  0.8082  1.0650  1.1226
   18MOL0     C 2316   2.571  10.409   2.213 -0.2960 -0.7594 -0.3818
   18MOL0     C 2317   2.513  10.268   2.209 -0.4028  0.1675 -0.2042
   18MOL0     C 2318   2.577  10.176   2.316  0.3480 -0.6074  0.3141
   18MOL0     O 2319   2.519  10.208   2.444 -0.5135 -0.6745  0.3819
   18MOL0     C 2320   2.582  10.290   2.531  0.1172  0.1592  0.4673
   18MOL0     C 2321   2.499  10.359   2.621 -0.0450 -0.2718  0.3102
   18MOL0     C 2322   2.553  10.458   2.712  0.4645 -0.0550 -1.2320
   18MOL0     C 2323   2.457  10.527   2.807  0.0385  0.6551  0.0916
   18MOL0     C 2324   2.687  10.495   2.712  0.9031  0.3406  0.4166
   18MOL0     C 2325   2.755  10.585   2.804 -0.8207 -0.6058  0.6393
   18MOL0     O 2326   2.881  10.620   2.765  0.2121  0.0880 -0.5301
   18MOL0     C 2327   2.936  10.738   2.813  0.0942  0.0743  0.4614
   18MOL0     C 2328   3.073  10.734   2.857 -0.7446 -0.3668  0.2434
   18MOL0     C 2329   3.136  10.849   2.903 -0.5730 -0.1655  0.6760
   18MOL0     C 2330   3.058  10.966   2.925 -0.0439  0.5385 -1.1432
   18MOL0     O 2331   3.113  11.079   2.993  0.5508  0.2275  0.8464
   18MOL0     C 2332   3.250  11.078   3.022 -0.2005  1.4869 -0.0393
   18MOL0     C 2333   3.301  11.206   3.096 -0.6407  0.8929 -1.1355
   18MOL0     C 2334   3.452  11.216   3.075  0.4466 -0.6130 -0.1152
   18MOL0     C 2335   3.531  11.090   3.097  0.2796 -0.1334  0.4184
   18MOL0     C 2336   3.668  11.097   3.176  0.7480 -1.2467  0.5079
   18MOL0     C 2337   3.703  10.959   3.222  0.8360  0.3976 -0.8260
   18MOL0     C 2338   3.845  10.936   3.248 -0.8512 -0.4477  0.0327
   18MOL0     C 2339   3.923  10.903   3.124 -0.6968 -0.6491  0.1203
   18MOL0    Cl 2340   4.101  10.924   3.144 -0.1620 -0.0126 -0.4668
   18MOL0     C 2341   2.926  10.968   2.890  1.0604  0.0158  0.4911
   18MOL0     C 2342   2.858  10.852   2.838 -0.2586  0.6137  0.1735
   18MOL0     O 2343   2.705  10.623   2.908 -0.0160 -0.2075 -0.1787
   18MOL0     C 2344   2.765  10.433   2.613  0.0182 -1.3021  0.6286
   18MOL0     C 2345   2.715  10.332   2.524  0.4009 -0.1691  0.5081
   18MOL0     N 2346   2.648  10.380   1.914  0.7142 -0.3627  0.2784
   18MOL0     N 2347   2.623  10.334   1.795  0.4467  0.5246 -0.0866
   18MOL0     C 2348   2.048   9.747   1.122 -0.1231  0.3269  0.7379
   18MOL0     C 2349   1.975   9.684   1.026  0.0691  0.2711 -1.3016
   18MOL0     C 2350   1.743   9.432   0.768 -0.9015 -0.3019  0.5782
   18MOL0     C 2351   1.762   9.502   0.650  0.3956 -1.2073  0.0010
   18MOL0     C 2352   1.694   9.461   0.528  1.2724 -0.6186 -0.3182
   18MOL0     C 2353   1.596   9.362   0.527 -0.0479 -0.1091  0.4305
   18MOL0     O 2354   1.540   9.303   0.414 -0.3953  0.5849  0.8109
   18MOL0     C 2355   1.549   9.365   0.281  0.4681 -0.0777 -0.6241
   18MOL0     C 2356   1.417   9.367   0.218  0.1724  0.8112 -0.5294
   18MOL0     C 2357   1.308   9.434   0.306  0.8181 -0.6812 -0.5099
   18MOL0     C 2358   1.331   9.586   0.326  0.0250 -0.7399  0.0559
   18MOL0     C 2359   1.374   9.668   0.215  0.3388 -0.6092  1.1774
   18MOL0     C 2360   1.389   9.752   0.124 -0.1438 -1.0368  0.2864
   18MOL0     C 2361   1.555   9.319   0.652  0.1323  0.0119 -0.1633
   18MOL0     C 2362   1.636   9.346   0.770 -0.1514  0.2898 -0.1172
   18MOL0     H 2363   2.189   9.451   0.908  0.6812  1.3789 -0.5096
   18MOL0     H 2364   2.335   9.560   1.084 -0.2605 -1.1227 -1.3039
   18MOL0     H 2365   2.420   9.652   1.264  0.6117 -1.7806 -2.1839
   18MOL0     H 2366   2.432   9.763   1.143 -3.0844 -1.6473 -1.5705
   18MOL0     H 2367   2.561   9.830   1.327 -0.8355 -2.1963 -3.7573
   18MOL0     H 2368   2.427   9.953   1.292 -0.1691  0.7912 -0.1527
   18MOL0     H 2369   2.304   9.828   1.490  0.7978  0.7281  0.1964
   18MOL0     H 2370   2.461   9.744   1.519  1.0544  0.3287  1.7693
   18MOL0     H 2371   2.557   9.983   1.551 -0.6231  1.3867  1.4790
   18MOL0     H 2372   2.399  10.054   1.506 -0.2713  0.0644  0.3557
   18MOL0     H 2373   2.276   9.916   1.676  1.5455 -1.4065  0.4058
   18MOL0     H 2374   2.436   9.866   1.740  1.9381 -0.4854 -1.0391
   18MOL0     H 2375   2.343  10.061   1.878 -2.4387  0.3437 -1.2007
   18MOL0     H 2376   2.492  10.100   1.798 -0.5122  1.2067  3.4433
   18MOL0     H 2377   2.266  10.163   1.639  0.1498  2.8115 -2.0712
   18MOL0     H 2378   2.269  10.261   1.796 -0.0579 -0.2548  0.5738
   18MOL0     H 2379   2.356  10.385   1.615  0.4085  2.0104  2.8488
   18MOL0     H 2380   2.486  10.265   1.593 -0.0274 -0.2695  0.2557
   18MOL0     H 2381   2.335  10.473   1.876  0.2887 -1.5214  0.5111
   18MOL0     H 2382   2.577  10.594   2.112 -1.6276  2.8640  0.7344
   18MOL0     H 2383   2.412  10.536   2.105  0.1986  0.4442 -3.0990
   18MOL0     H 2384   2.544  10.453   2.309  0.5776  0.7486 -0.7898
   18MOL0     H 2385   2.680  10.399   2.211 -0.4352 -3.5172  0.9359
   18MOL0     H 2386   2.541  10.225   2.113 -0.2625  0.4869 -0.3101
   18MOL0     H 2387   2.404  10.263   2.212 -0.4011  0.2676  0.1118
   18MOL0     H 2388   2.685  10.187   2.304  0.0978 -0.4588 -2.3665
   18MOL0     H 2389   2.553  10.071   2.296  2.4329 -1.1670  0.5067
   18MOL0     H 2390   2.397  10.333   2.646 -0.1428  2.8836  4.5190
   18MOL0     H 2391   2.356  10.489   2.789  0.1156  0.5471 -0.1099
   18MOL0     H 2392   2.487  10.500   2.909  2.9666 -0.2136 -0.9135
   18MOL0     H 2393   2.461  10.634   2.784  0.5798  0.1627 -2.3378
   18MOL0     H 2394   3.131  10.644   2.841  0.4435  0.0902  1.6958
   18MOL0     H 2395   3.241  10.842   2.926  0.4430  4.3820 -1.5526
   18MOL0     H 2396   3.273  10.993   3.086  1.8580  1.0801 -1.2323
   18MOL0     H 2397   3.314  11.062   2.934  2.9917  3.4765  1.7125
   18MOL0     H 2398   3.248  11.293   3.057 -2.7143 -1.8734 -5.2047
   18MOL0     H 2399   3.265  11.195   3.199 -1.3284 -0.2725 -1.4773
   18MOL0     H 2400   3.495  11.299   3.132  1.8746 -2.5776  1.8414
   18MOL0     H 2401   3.451  11.236   2.968 -4.8019 -2.4023 -0.7251
   18MOL0     H 2402   3.470  11.028   3.164  0.3777  1.5364  2.1273
   18MOL0     H 2403   3.523  11.046   2.997 -0.6347  2.9508 -0.9614
   18MOL0     H 2404   3.656  11.154   3.269  0.4015 -0.5210  0.0264
   18MOL0     H 2405   3.754  11.132   3.118 -0.8559  0.7112 -0.8146
   18MOL0     H 2406   3.651  10.934   3.315  3.8538  0.1670  0.9041
   18MOL0     H 2407   3.676  10.881   3.150 -0.2864 -1.1475  1.1391
   18MOL0     H 2408   3.857  10.855   3.320 -3.2427 -1.9112 -1.0800
   18MOL0     H 2409   3.886  11.028   3.291  2.0985 -1.6190  0.0051
   18MOL0     H 2410   3.897  10.967   3.039  0.3502 -4.5462 -3.4720
   18MOL0     H 2411   3.906  10.799   3.095  4.0203 -0.7656 -3.3903
   18MOL0     H 2412   2.865  11.057   2.895  2.1032  0.6937  1.6106
   18MOL0     H 2413   2.751  10.860   2.821 -0.0153  4.7456 -0.4151
   18MOL0     H 2414   2.866  10.468   2.596 -0.6259  0.1872 -0.3372
   18MOL0     H 2415   2.781  10.289   2.450  0.6876 -0.8601  1.1562
   18MOL0     H 2416   1.991   9.831   1.161 -3.3062 -1.5489  0.4282
   18MOL0     H 2417   1.877   9.722   0.998 -0.8806 -3.5431 -3.9557
   18MOL0     H 2418   1.828   9.588   0.639 -2.4662  0.9351 -2.2784
   18MOL0     H 2419   1.721   9.514   0.437  0.0034  1.4529  0.4436
   18MOL0     H 2420   1.566   9.473   0.294  1.4841 -0.3080  0.1257
   18MOL0     H 2421   1.620   9.316   0.213 -2.1658 -1.5457 -2.4901
   18MOL0     H 2422   1.387   9.265   0.191  0.7299  0.7488 -0.9207
   18MOL0     H 2423   1.418   9.424   0.124 -1.1310  1.9801  0.1104
   18MOL0     H 2424   1.300   9.378   0.400  2.6362 -2.2098 -1.2125
   18MOL0     H 2425   1.213   9.418   0.254 -1.3295 -1.8220  3.3957
   18MOL0     H 2426   1.401   9.601   0.409  1.0002 -0.7101 -0.7579
   18MOL0     H 2427   1.230   9.616   0.358 -0.2045  0.3375 -1.5987
   18MOL0     H 2428   1.400   9.839   0.063 -3.2701  0.4266  1.5819
   18MOL0     H 2429   1.479   9.241   0.657  4.3816 -4.6068  1.8296
   18MOL0     H 2430   1.600   9.286   0.853  2.4429 -0.9041  0.2559
   19MOL0     O 2431   5.227   8.922   6.008 -0.0399  0.1088  0.5276
   19MOL0     C 2432   5.350   8.907   5.992  0.5052  1.1110 -0.4961
   19MOL0     O 2433   5.447   9.008   6.001 -0.2422 -0.3455  0.1506
   19MOL0     C 2434   5.395   9.134   6.030 -0.6094 -0.9595 -0.6162
   19MOL0     C 2435   5.307   9.207   5.948  1.0137  1.4123 -0.7933
   19MOL0     C 2436   5.258   9.337   5.984 -0.6271 -0.0858  0.0803
   19MOL0     C 2437   5.294   9.395   6.110  0.4081 -0.0056 -0.2464
   19MOL0     O 2438   5.232   9.514   6.146  0.1923 -0.2640  0.7072
   19MOL0     C 2439   5.190   9.538   6.282 -0.5511 -0.9873 -0.0455
   19MOL0     C 2440   5.062   9.625   6.297  0.0363  0.3712 -1.4376
   19MOL0     C 2441   5.057   9.769   6.242  1.3652 -0.3903  0.0714
   19MOL0     C 2442   4.906   9.824   6.245 -0.1741 -0.3425 -0.3650
   19MOL0     C 2443   4.910   9.968   6.211 -0.4175  0.3516 -0.2713
   19MOL0     C 2444   4.783  10.035   6.270 -0.6405 -0.3232 -0.6318
   19MOL0     C 2445   4.798  10.183   6.247 -1.0828 -0.3777  0.3187
   19MOL0     C 2446   4.716  10.274   6.339 -0.3606  0.4834 -0.1708
   19MOL0     N 2447   4.574  10.254   6.324 -0.7237  0.0855  0.7800
   19MOL0     C 2448   4.484  10.353   6.295  0.0483  0.0889  0.7559
   19MOL0     C 2449   4.366  10.307   6.332 -0.1862 -0.2192  0.3759
   19MOL0     C 2450   4.237  10.385   6.326 -0.1390  0.2224  0.7502
   19MOL0     C 2451   4.221  10.447   6.184  0.6767 -0.4005 -0.4616
   19MOL0     C 2452   4.304  10.579   6.163  0.3508  0.8682  0.1640
   19MOL0     C 2453   4.219  10.694   6.096 -0.2622  0.2504  0.0916
   19MOL0     O 2454   4.252  10.820   6.158 -0.1602 -0.1914 -0.2131
   19MOL0     C 2455   4.177  10.932   6.131  0.8949  0.2733  0.5080
   19MOL0     C 2456   4.210  11.055   6.180  0.8212 -0.9126 -0.6480
   19MOL0     C 2457   4.150  11.176   6.129 -0.3330 -0.3541  0.4784
   19MOL0     C 2458   4.197  11.312   6.181 -0.2603 -0.3174 -0.0910
   19MOL0     C 2459   4.040  11.157   6.037  0.0353  0.3817 -0.0487
   19MOL0     C 2460   3.969  11.270   5.970  0.0999  0.1969  0.7986
   19MOL0     O 2461   3.980  11.400   6.025 -0.4928  0.5893 -1.0201
   19MOL0     C 2462   3.901  11.500   5.980  0.8638 -0.2134 -0.2591
   19MOL0     C 2463   3.756  11.480   5.999  0.0517 -0.2314 -0.1216
   19MOL0     C 2464   3.663  11.578   5.951 -0.8823  0.4399  0.1797
   19MOL0     C 2465   3.708  11.703   5.899  0.2277  0.5203  0.1782
   19MOL0     O 2466   3.601  11.775   5.858 -0.1016 -0.3935  0.2001
   19MOL0     C 2467   3.632  11.882   5.768 -1.2796  0.8202  0.0235
   19MOL0     C 2468   3.502  11.953   5.733 -0.7550 -0.3413 -1.1542
   19MOL0     C 2469   3.460  11.911   5.591 -0.3645  1.2845  0.4844
   19MOL0     C 2470   3.415  11.753   5.580  0.3295  0.2755  0.4067
   19MOL0     C 2471   3.402  11.720   5.429 -1.1347  0.2057  0.0483
   19MOL0     C 2472   3.310  11.806   5.341 -0.1608  0.7082  0.4359
   19MOL0     C 2473   3.294  11.763   5.194 -0.9128 -0.8267 -0.4178
   19MOL0     C 2474   3.219  11.635   5.189 -0.2120 -0.4687 -0.1921
   19MOL0    Cl 2475   3.177  11.601   5.018 -0.3465  0.0781  0.5605
   19MOL0     C 2476   3.845  11.718   5.877  0.0061 -0.9326 -0.0329
   19MOL0     C 2477   3.940  11.623   5.921 -0.1999 -0.3367  0.1206
   19MOL0     O 2478   3.922  11.249   5.861  0.0071  0.6566  0.0921
   19MOL0     C 2479   4.003  11.029   6.000 -0.3704  0.0818  0.7715
   19MOL0     C 2480   4.068  10.924   6.044 -0.7449  0.4297 -0.4379
   19MOL0     N 2481   4.391  10.188   6.391  0.5170  0.1692  1.1725
   19MOL0     N 2482   4.510  10.153   6.387 -0.2969  0.8075  0.7493
   19MOL0     C 2483   5.388   9.323   6.194  0.9069 -0.8355  0.0545
   19MOL0     C 2484   5.433   9.196   6.151 -0.2476 -1.5693 -0.7451
   19MOL0     C 2485   5.398   8.772   5.961 -0.8517 -1.2917 -0.3172
   19MOL0     C 2486   5.313   8.678   5.903  0.4589  0.1723  0.1855
   19MOL0     C 2487   5.358   8.548   5.882  1.1812 -0.2611 -1.4826
   19MOL0     C 2488   5.477   8.501   5.911  0.3363 -0.5182 -0.2372
   19MOL0     O 2489   5.506   8.374   5.894  0.2798 -0.2680  0.1315
   19MOL0     C 2490   5.406   8.276   5.888 -0.1266 -0.4220  0.2755
   19MOL0     C 2491   5.474   8.144   5.923 -0.2046 -0.1300  0.3672
   19MOL0     C 2492   5.375   8.026   5.954 -0.7361  0.5180  0.1187
   19MOL0     C 2493   5.468   7.900   5.984 -0.4566 -0.1333  0.0774
   19MOL0     C 2494   5.477   7.889   6.127  0.1785 -0.1163 -1.3821
   19MOL0     C 2495   5.500   7.879   6.248  0.5174 -0.4928 -0.7490
   19MOL0     C 2496   5.565   8.592   5.977 -0.3434  0.6413  0.3793
   19MOL0     C 2497   5.533   8.725   6.002 -0.5580 -0.2311  0.8848
   19MOL0     H 2498   5.265   9.172   5.854  2.3632  3.4874 -2.2294
   19MOL0     H 2499   5.196   9.393   5.914 -0.2645 -0.7613 -0.8037
   19MOL0     H 2500   5.173   9.438   6.322  0.9272 -0.8672  0.9780
   19MOL0     H 2501   5.274   9.591   6.329 -1.8156  2.4097 -1.3002
   19MOL0     H 2502   4.979   9.571   6.251  1.8059 -3.6375 -0.3381
   19MOL0     H 2503   5.034   9.641   6.402 -1.0090 -0.2256 -1.6119
   19MOL0     H 2504   5.116   9.835   6.307  0.0431 -0.6730  1.6263
   19MOL0     H 2505   5.094   9.773   6.139 -2.0080  0.6160 -1.2538
   19MOL0     H 2506   4.853   9.769   6.166  1.8145 -2.8041 -0.1180
   19MOL0     H 2507   4.864   9.799   6.342 -0.9089 -0.3383 -0.6787
   19MOL0     H 2508   4.995  10.023   6.254 -0.1996 -0.2904  0.1292
   19MOL0     H 2509   4.908   9.965   6.102  1.8418  0.2740 -0.3483
   19MOL0     H 2510   4.691  10.002   6.221 -1.2523  2.5397 -1.6303
   19MOL0     H 2511   4.768  10.014   6.376  0.0808  2.0770  0.0121
   19MOL0     H 2512   4.899  10.224   6.256 -1.5940  1.5109 -1.6871
   19MOL0     H 2513   4.771  10.201   6.142 -0.2647 -1.7219 -0.1398
   19MOL0     H 2514   4.748  10.376   6.316  3.4237 -0.2055  1.2340
   19MOL0     H 2515   4.746  10.246   6.440  1.8585 -4.1316 -1.8303
   19MOL0     H 2516   4.508  10.445   6.244 -0.7966  0.1943  0.5235
   19MOL0     H 2517   4.150  10.321   6.344  1.1645 -2.2611 -1.1908
   19MOL0     H 2518   4.231  10.462   6.404 -0.9817  0.1666  0.7500
   19MOL0     H 2519   4.115  10.470   6.170  0.1609 -2.5966 -0.5849
   19MOL0     H 2520   4.223  10.379   6.098 -0.1231  2.1484 -2.6711
   19MOL0     H 2521   4.398  10.561   6.110  0.6349  3.0497 -0.1682
   19MOL0     H 2522   4.336  10.633   6.253 -3.4191  2.5829  0.6570
   19MOL0     H 2523   4.112  10.674   6.091 -0.7974  2.8057  0.3169
   19MOL0     H 2524   4.262  10.706   5.997  1.7269  0.9261  0.9763
   19MOL0     H 2525   4.281  11.058   6.262 -0.5503 -1.5896  0.6020
   19MOL0     H 2526   4.121  11.374   6.229  2.0692  3.0114 -0.3437
   19MOL0     H 2527   4.283  11.304   6.249  0.4302 -0.2546 -0.9427
   19MOL0     H 2528   4.226  11.367   6.092  0.6141  1.6414  1.3285
   19MOL0     H 2529   3.714  11.389   6.039 -1.7140  1.1897  1.4455
   19MOL0     H 2530   3.555  11.578   5.946 -0.8304  0.0192 -1.9494
   19MOL0     H 2531   3.689  11.959   5.821 -1.1658  1.7584 -1.4128
   19MOL0     H 2532   3.695  11.862   5.680 -0.8087 -1.0969  0.7542
   19MOL0     H 2533   3.429  11.915   5.805 -1.2007  1.0162 -0.8672
   19MOL0     H 2534   3.516  12.059   5.753 -1.3068 -0.7530  1.8069
   19MOL0     H 2535   3.529  11.940   5.511 -1.8725 -1.2605 -1.8740
   19MOL0     H 2536   3.368  11.966   5.571 -1.3329 -0.0255  1.1667
   19MOL0     H 2537   3.490  11.690   5.629  1.7048  1.2248 -0.3952
   19MOL0     H 2538   3.324  11.743   5.639  0.5658  2.1065  1.1442
   19MOL0     H 2539   3.359  11.619   5.420  1.0205 -0.9510  1.7136
   19MOL0     H 2540   3.504  11.714   5.390 -1.1007 -0.1836  0.1910
   19MOL0     H 2541   3.207  11.808   5.378  0.0043  0.3093  0.9405
   19MOL0     H 2542   3.348  11.909   5.342  1.9777  0.1892  5.1790
   19MOL0     H 2543   3.391  11.754   5.144  1.2051  0.2158  3.1466
   19MOL0     H 2544   3.244  11.849   5.148  0.8663  0.1439 -0.6310
   19MOL0     H 2545   3.128  11.660   5.245  0.8313  3.3061  0.0681
   19MOL0     H 2546   3.266  11.552   5.242 -0.6363 -0.6203 -0.0435
   19MOL0     H 2547   3.878  11.800   5.814  2.0711 -1.3373  0.4402
   19MOL0     H 2548   4.046  11.644   5.908 -0.2348 -1.3206 -2.2194
   19MOL0     H 2549   3.914  11.003   5.943 -2.0922  0.2908  3.2256
   19MOL0     H 2550   4.028  10.832   6.003  0.2657  0.4783 -1.5953
   19MOL0     H 2551   5.429   9.359   6.288  1.1186  0.7889 -0.6170
   19MOL0     H 2552   5.508   9.141   6.207  0.4946 -0.3193 -0.4794
   19MOL0     H 2553   5.212   8.712   5.881 -0.3341 -1.2373  1.4935
   19MOL0     H 2554   5.285   8.490   5.826  1.4302 -1.1198 -0.9384
   19MOL0     H 2555   5.344   8.290   5.977  2.4879  1.6451  1.9045
   19MOL0     H 2556   5.344   8.276   5.797  3.9123  0.6950 -2.7762
   19MOL0     H 2557   5.538   8.159   6.010 -0.4140 -2.6390  1.0344
   19MOL0     H 2558   5.529   8.106   5.837  1.3466  2.4218  0.1503
   19MOL0     H 2559   5.302   8.002   5.876 -1.5104 -2.2742  1.5463
   19MOL0     H 2560   5.314   8.052   6.041 -0.2699  1.9077  0.0504
   19MOL0     H 2561   5.568   7.897   5.941 -1.9366 -0.4199 -3.7877
   19MOL0     H 2562   5.419   7.806   5.954  1.5039 -0.6199 -1.7826
   19MOL0     H 2563   5.543   7.863   6.344 -2.2377  0.3746  0.7471
   19MOL0     H 2564   5.660   8.554   6.012  0.2432  1.0714 -0.7050
   19MOL0     H 2565   5.605   8.800   6.034 -0.8619  3.1064 -4.8047
   20MOL0     O 2566   6.334   7.759   6.459  0.4397 -0.0700 -0.4627
   20MOL0     C 2567   6.390   7.802   6.562 -0.7447  0.7761  0.9189
   20MOL0     O 2568   6.326   7.871   6.666  0.1448  0.2869 -0.0989
   20MOL0     C 2569   6.192   7.891   6.667  0.2837 -0.0179 -0.0662
   20MOL0     C 2570   6.108   7.807   6.745 -0.6381 -0.0190  0.2117
   20MOL0     C 2571   5.971   7.806   6.725 -0.2336 -1.0370  0.0102
   20MOL0     C 2572   5.911   7.886   6.633  0.4487 -0.7015  0.4089
   20MOL0     O 2573   5.780   7.870   6.607 -0.0883  0.0966 -0.4300
   20MOL0     C 2574   5.681   7.978   6.621 -0.4782 -0.8489  0.8614
   20MOL0     C 2575   5.580   7.948   6.734 -0.0699  0.0728  0.1401
   20MOL0     C 2576   5.634   7.962   6.876 -0.1870  0.3038 -0.6273
   20MOL0     C 2577   5.513   7.949   6.973 -0.2971 -0.2089  0.0200
   20MOL0     C 2578   5.562   7.983   7.108 -0.3174  1.3871 -0.3290
   20MOL0     C 2579   5.453   7.975   7.214  0.4336 -0.0501  0.7681
   20MOL0     C 2580   5.499   7.982   7.348 -0.7647 -0.1601 -1.0006
   20MOL0     C 2581   5.394   7.972   7.449 -0.3575 -0.5300 -0.1487
   20MOL0     N 2582   5.351   7.834   7.490  1.1990  0.0019  0.9259
   20MOL0     C 2583   5.421   7.717   7.483  0.2749  0.0677  0.2521
   20MOL0     C 2584   5.340   7.621   7.530 -0.4374 -1.1968 -0.0955
   20MOL0     C 2585   5.375   7.474   7.565 -0.7649 -0.4553 -0.2470
   20MOL0     C 2586   5.375   7.438   7.717  0.1425 -0.4440  0.2579
   20MOL0     C 2587   5.505   7.469   7.786 -0.5141  0.4919 -0.8615
   20MOL0     C 2588   5.556   7.615   7.787  0.5092 -0.1905 -0.9481
   20MOL0     O 2589   5.453   7.720   7.815  0.2522  0.0382 -0.1208
   20MOL0     C 2590   5.491   7.844   7.849 -0.5213  1.2114  0.1803
   20MOL0     C 2591   5.398   7.941   7.826 -0.8378 -0.5417 -0.8716
   20MOL0     C 2592   5.411   8.081   7.870 -0.8901  0.3213 -0.5011
   20MOL0     C 2593   5.314   8.178   7.802 -0.1791  1.1768 -0.0291
   20MOL0     C 2594   5.537   8.113   7.929  0.0984 -0.0896  0.2609
   20MOL0     C 2595   5.573   8.252   7.961  0.5905 -0.6256  0.4213
   20MOL0     O 2596   5.531   8.336   7.863 -0.1636 -0.3973  0.4404
   20MOL0     C 2597   5.513   8.472   7.895  0.8751 -0.7206 -0.0537
   20MOL0     C 2598   5.424   8.514   8.001 -0.9651 -0.4860  0.3140
   20MOL0     C 2599   5.381   8.650   8.008 -0.0757  1.3144 -0.3090
   20MOL0     C 2600   5.426   8.748   7.924 -0.1475  0.6805  0.9718
   20MOL0     O 2601   5.385   8.877   7.918 -0.0721 -0.6043 -0.1297
   20MOL0     C 2602   5.248   8.896   7.960  0.5271 -0.2153  0.2238
   20MOL0     C 2603   5.186   9.032   7.926 -0.3798 -0.3758  0.2815
   20MOL0     C 2604   5.257   9.159   7.981  0.3701  0.0856 -0.2264
   20MOL0     C 2605   5.252   9.270   7.875 -0.7317 -0.3111 -0.3435
   20MOL0     C 2606   5.312   9.405   7.925  0.6130  0.2854  0.0537
   20MOL0     C 2607   5.241   9.489   8.029 -0.1168  0.5794  0.7757
   20MOL0     C 2608   5.335   9.581   8.108 -0.3162  0.6155 -0.1925
   20MOL0     C 2609   5.409   9.673   8.017  0.5984 -0.5325 -0.1460
   20MOL0    Cl 2610   5.530   9.786   8.102 -0.1093 -0.3415 -0.0542
   20MOL0     C 2611   5.523   8.704   7.827 -0.2291 -0.0793 -0.9212
   20MOL0     C 2612   5.566   8.571   7.808  0.2159  0.5504 -0.1597
   20MOL0     O 2613   5.652   8.270   8.052 -0.5321  0.0696  0.5274
   20MOL0     C 2614   5.639   8.010   7.940 -1.5542  0.7682 -0.1211
   20MOL0     C 2615   5.611   7.881   7.901  0.0660 -0.2134 -0.6685
   20MOL0     N 2616   5.213   7.683   7.555 -0.3936 -1.1559 -0.1914
   20MOL0     N 2617   5.214   7.804   7.513 -0.0870 -0.3990  0.1722
   20MOL0     C 2618   5.982   7.978   6.560 -0.1128  0.1499  0.3290
   20MOL0     C 2619   6.121   7.991   6.593 -1.3091 -0.0679  0.8934
   20MOL0     C 2620   6.530   7.763   6.580 -0.9256 -0.3058  0.0081
   20MOL0     C 2621   6.573   7.708   6.699  0.3861  0.4127  0.5374
   20MOL0     C 2622   6.708   7.670   6.715 -0.8437  0.0807  0.3135
   20MOL0     C 2623   6.806   7.708   6.621  0.1038  0.1079  0.2564
   20MOL0     O 2624   6.933   7.668   6.648  0.1097  0.5791 -0.7490
   20MOL0     C 2625   7.041   7.694   6.565 -0.2803  0.5545 -0.2857
   20MOL0     C 2626   7.038   7.596   6.446  0.3631 -0.1666 -0.0535
   20MOL0     C 2627   7.169   7.577   6.370  0.1221  0.2664 -0.3401
   20MOL0     C 2628   7.149   7.474   6.269 -0.3362 -0.1875  0.2138
   20MOL0     C 2629   7.117   7.527   6.138  0.6347 -0.8199 -0.0378
   20MOL0     C 2630   7.081   7.573   6.027  0.4930  0.5721 -1.0540
   20MOL0     C 2631   6.763   7.758   6.498 -0.3155  0.9767  0.3744
   20MOL0     C 2632   6.624   7.787   6.480 -1.1809 -0.7138  0.6072
   20MOL0     H 2633   6.161   7.742   6.814 -0.5568  1.9117  2.1078
   20MOL0     H 2634   5.896   7.746   6.774 -0.6648 -1.2862 -0.9251
   20MOL0     H 2635   5.729   8.073   6.644 -2.0155  1.1421 -3.1075
   20MOL0     H 2636   5.628   7.998   6.527 -3.3322  2.0920  2.8747
   20MOL0     H 2637   5.499   8.019   6.717 -0.2975 -0.2146  0.0024
   20MOL0     H 2638   5.526   7.852   6.729 -1.3019  0.6377  1.7211
   20MOL0     H 2639   5.705   7.883   6.901  0.3591  1.7757  3.1281
   20MOL0     H 2640   5.675   8.063   6.889  1.7683 -0.5631  0.4413
   20MOL0     H 2641   5.424   8.003   6.939  0.1459  1.9984  2.1188
   20MOL0     H 2642   5.487   7.844   6.983  2.1212 -0.7195  1.6662
   20MOL0     H 2643   5.644   7.917   7.140  0.8624  1.7010 -2.5564
   20MOL0     H 2644   5.610   8.081   7.115  2.4255  0.1748 -0.9604
   20MOL0     H 2645   5.393   8.065   7.196 -0.3484 -0.5905  0.6272
   20MOL0     H 2646   5.407   7.877   7.204  2.9563 -1.2712  0.4676
   20MOL0     H 2647   5.570   7.903   7.375 -0.2276  0.7817  0.4547
   20MOL0     H 2648   5.549   8.079   7.359 -2.1499  0.6347 -1.4978
   20MOL0     H 2649   5.300   8.024   7.426 -0.5352 -1.3971 -1.5441
   20MOL0     H 2650   5.434   8.020   7.538 -3.5733  3.0935 -0.3776
   20MOL0     H 2651   5.524   7.708   7.451 -0.2433  0.4620 -1.6690
   20MOL0     H 2652   5.301   7.422   7.503 -0.4314  0.1970 -1.2120
   20MOL0     H 2653   5.474   7.451   7.525 -0.1335  5.2451 -2.9999
   20MOL0     H 2654   5.352   7.332   7.734  1.0150 -0.6282  0.3247
   20MOL0     H 2655   5.293   7.493   7.764 -1.2283 -0.2586 -2.2166
   20MOL0     H 2656   5.582   7.401   7.749 -0.6923  0.5721 -1.3975
   20MOL0     H 2657   5.504   7.436   7.890 -1.5751 -0.7400 -1.2240
   20MOL0     H 2658   5.602   7.637   7.690  1.3819 -1.0829 -0.7519
   20MOL0     H 2659   5.627   7.627   7.870 -0.6121  0.9922 -0.1216
   20MOL0     H 2660   5.299   7.919   7.787 -0.0559  1.2851 -4.2542
   20MOL0     H 2661   5.229   8.119   7.766  0.9904 -0.9612  0.5391
   20MOL0     H 2662   5.266   8.246   7.872 -2.5259  2.0636 -2.3225
   20MOL0     H 2663   5.356   8.225   7.712 -0.5466  1.2382 -0.1710
   20MOL0     H 2664   5.388   8.445   8.075  1.0433  0.6316  2.4787
   20MOL0     H 2665   5.335   8.685   8.100  1.4742  0.1549  0.9567
   20MOL0     H 2666   5.184   8.820   7.915  2.0371 -1.6541  0.3996
   20MOL0     H 2667   5.242   8.889   8.069 -1.6210  0.6491  0.2089
   20MOL0     H 2668   5.189   9.036   7.817  2.7663 -3.2107  0.1029
   20MOL0     H 2669   5.083   9.042   7.964  0.6687  1.7446  2.8772
   20MOL0     H 2670   5.363   9.134   7.995 -0.1281 -1.7849  0.4654
   20MOL0     H 2671   5.212   9.186   8.077 -0.5900  0.7621 -0.8481
   20MOL0     H 2672   5.303   9.244   7.782 -1.3695 -2.8765 -0.0378
   20MOL0     H 2673   5.149   9.300   7.856 -1.0179 -1.1677 -0.1388
   20MOL0     H 2674   5.342   9.463   7.837  4.5632  0.5193  1.3641
   20MOL0     H 2675   5.412   9.376   7.960  0.5050 -1.2688 -0.8703
   20MOL0     H 2676   5.172   9.555   7.975  1.0087 -0.0973 -1.6484
   20MOL0     H 2677   5.178   9.425   8.091 -3.4660  1.4007 -1.4991
   20MOL0     H 2678   5.415   9.523   8.155 -0.2476  0.9174  0.0656
   20MOL0     H 2679   5.272   9.634   8.181 -2.1187 -0.0756 -1.1731
   20MOL0     H 2680   5.334   9.740   7.973 -0.1255 -1.0779  0.2187
   20MOL0     H 2681   5.459   9.623   7.934 -0.7236  0.4279 -1.5732
   20MOL0     H 2682   5.569   8.776   7.759  1.3578 -0.1118  0.0575
   20MOL0     H 2683   5.632   8.541   7.728  0.8415 -0.0267  0.5594
   20MOL0     H 2684   5.734   8.023   7.991 -1.2602 -1.3788 -0.0207
   20MOL0     H 2685   5.706   7.827   7.910  1.0831  1.6741  0.4872
   20MOL0     H 2686   5.930   8.044   6.491 -1.8801 -2.5758 -1.0942
   20MOL0     H 2687   6.180   8.070   6.548 -2.1924  0.0305 -0.1331
   20MOL0     H 2688   6.503   7.675   6.775 -1.1293 -0.5184 -1.1718
   20MOL0     H 2689   6.741   7.623   6.807  3.3317 -1.7007 -1.7918
   20MOL0     H 2690   7.036   7.792   6.518 -0.5872 -0.7565 -3.2401
   20MOL0     H 2691   7.128   7.693   6.631  2.1242 -0.0059 -3.2123
   20MOL0     H 2692   6.949   7.616   6.387 -0.6022  3.5475  2.3465
   20MOL0     H 2693   7.005   7.499   6.486 -5.4840  1.0152 -1.1062
   20MOL0     H 2694   7.231   7.524   6.443  1.6311  1.1721 -0.9146
   20MOL0     H 2695   7.218   7.671   6.344  1.4931 -0.5413 -0.8209
   20MOL0     H 2696   7.095   7.384   6.302 -1.1581 -0.1998 -1.0856
   20MOL0     H 2697   7.252   7.443   6.250  0.3018  1.1967  1.2621
   20MOL0     H 2698   7.049   7.588   5.926 -2.9919  0.3213 -0.1139
   20MOL0     H 2699   6.820   7.777   6.408 -0.4718 -4.5804 -1.3008
   20MOL0     H 2700   6.604   7.818   6.378 -0.5188 -0.2588  0.6092
   21MOL0     O 2701   6.600   6.078   5.275 -0.4731 -0.8066 -0.4837
   21MOL0     C 2702   6.626   5.976   5.341 -0.1889  0.9031  0.3701
   21MOL0     O 2703   6.746   5.913   5.352 -0.5240 -0.1815  0.5532
   21MOL0     C 2704   6.864   5.983   5.336 -0.3118  0.9768 -0.0860
   21MOL0     C 2705   6.890   6.109   5.277 -0.2437 -0.2760  0.5286
   21MOL0     C 2706   7.014   6.166   5.276  0.3062 -0.1179  0.8923
   21MOL0     C 2707   7.119   6.098   5.336 -0.2608 -0.7644  0.4895
   21MOL0     O 2708   7.248   6.154   5.328 -0.3253  0.4262  0.0151
   21MOL0     C 2709   7.341   6.137   5.434  0.6333 -0.1856  0.3440
   21MOL0     C 2710   7.462   6.211   5.396  0.3151  0.5734  0.3452
   21MOL0     C 2711   7.570   6.210   5.504 -0.3581  0.2253  0.2590
   21MOL0     C 2712   7.540   6.301   5.626 -0.2960  0.1692  0.0136
   21MOL0     C 2713   7.631   6.278   5.732 -1.0471 -0.1428  0.2797
   21MOL0     C 2714   7.593   6.352   5.864 -0.2139 -0.1033 -0.4533
   21MOL0     C 2715   7.527   6.251   5.961 -0.0372 -0.4972  0.0612
   21MOL0     C 2716   7.625   6.162   6.030 -0.9352 -0.4068 -0.2533
   21MOL0     N 2717   7.567   6.057   6.110 -0.3980  0.0249  0.4758
   21MOL0     C 2718   7.602   6.007   6.232  0.3396  0.2943  0.2599
   21MOL0     C 2719   7.547   5.882   6.240  0.3882 -0.7180  0.7901
   21MOL0     C 2720   7.543   5.786   6.357  1.0703 -0.4079  0.4579
   21MOL0     C 2721   7.422   5.800   6.446 -0.8118 -0.3193  0.0705
   21MOL0     C 2722   7.283   5.778   6.379  0.1241  0.3058  0.2328
   21MOL0     C 2723   7.164   5.793   6.453  0.4932 -0.7630 -0.3398
   21MOL0     O 2724   7.142   5.677   6.534 -0.0427 -0.3991  0.7527
   21MOL0     C 2725   7.016   5.644   6.580  0.5200  0.8932  0.0198
   21MOL0     C 2726   7.007   5.557   6.690 -0.6257  0.3045 -0.6179
   21MOL0     C 2727   6.887   5.520   6.741 -0.1953  1.0854 -0.3807
   21MOL0     C 2728   6.895   5.420   6.849 -0.1770 -0.2392 -0.1562
   21MOL0     C 2729   6.766   5.548   6.676  0.5845 -1.3324  0.5324
   21MOL0     C 2730   6.627   5.514   6.728 -0.5572 -0.4875 -0.2572
   21MOL0     O 2731   6.532   5.472   6.637 -0.9444 -0.0871 -0.0029
   21MOL0     C 2732   6.404   5.468   6.676  0.2816 -0.0421  0.3763
   21MOL0     C 2733   6.345   5.572   6.749  0.3518 -0.9018 -0.2104
   21MOL0     C 2734   6.211   5.565   6.784 -0.2367  0.4058  0.1346
   21MOL0     C 2735   6.134   5.446   6.769  0.9124 -0.6615  0.3831
   21MOL0     O 2736   6.007   5.452   6.834 -0.2063 -0.3990 -0.2231
   21MOL0     C 2737   5.936   5.328   6.820  0.4705  0.0564 -0.1858
   21MOL0     C 2738   5.798   5.320   6.889  0.6060 -1.0596  0.3660
   21MOL0     C 2739   5.809   5.324   7.038 -0.7489  0.5181 -0.3295
   21MOL0     C 2740   5.682   5.289   7.121  0.1135 -0.0620  1.0424
   21MOL0     C 2741   5.707   5.311   7.274  0.1838  0.3118  0.4186
   21MOL0     C 2742   5.596   5.251   7.367  0.5704  0.3329 -0.1434
   21MOL0     C 2743   5.589   5.330   7.504  0.7317 -0.1032 -0.0286
   21MOL0     C 2744   5.534   5.241   7.616  0.3490 -0.1178 -0.3983
   21MOL0    Cl 2745   5.495   5.356   7.744 -0.2936 -0.1868 -0.2556
   21MOL0     C 2746   6.188   5.348   6.688  1.0734 -0.2430 -0.2994
   21MOL0     C 2747   6.318   5.365   6.635 -0.3241 -0.2922  0.0115
   21MOL0     O 2748   6.607   5.519   6.854 -0.7199 -0.0304  0.3751
   21MOL0     C 2749   6.772   5.628   6.561  0.4166 -0.4399  0.1800
   21MOL0     C 2750   6.896   5.678   6.515 -0.4676  0.0295  0.0129
   21MOL0     N 2751   7.485   5.853   6.123 -0.1164  0.2871  0.2731
   21MOL0     N 2752   7.487   5.961   6.043 -1.1405 -0.3680  0.1228
   21MOL0     C 2753   7.099   5.967   5.380 -0.6341 -0.4256  0.0891
   21MOL0     C 2754   6.976   5.913   5.385 -0.3846 -0.4748 -0.3005
   21MOL0     C 2755   6.515   5.890   5.401 -0.6447 -1.0027 -0.5673
   21MOL0     C 2756   6.373   5.893   5.360 -0.0463 -1.1955 -0.0282
   21MOL0     C 2757   6.280   5.813   5.407  0.1343  0.8354 -0.2928
   21MOL0     C 2758   6.316   5.719   5.509  0.5916 -0.1845 -0.2644
   21MOL0     O 2759   6.223   5.637   5.573 -0.0661 -0.0366  0.0342
   21MOL0     C 2760   6.082   5.652   5.558 -0.2308  0.1399 -0.8487
   21MOL0     C 2761   6.001   5.553   5.638  0.0015 -0.9299  0.3397
   21MOL0     C 2762   5.952   5.605   5.774  0.6425 -0.1135  0.1556
   21MOL0     C 2763   5.820   5.555   5.825 -0.1146 -0.4109  0.0983
   21MOL0     C 2764   5.828   5.416   5.879 -0.4722  0.1654 -0.6305
   21MOL0     C 2765   5.839   5.310   5.928 -0.8287  0.7697 -0.0830
   21MOL0     C 2766   6.448   5.718   5.558  0.5120 -0.4125 -0.2720
   21MOL0     C 2767   6.545   5.804   5.508  0.3324  0.1703 -0.5435
   21MOL0     H 2768   6.806   6.167   5.239  0.9348  2.1878  1.4408
   21MOL0     H 2769   7.033   6.261   5.228 -2.1961  0.3045  0.6035
   21MOL0     H 2770   7.302   6.157   5.534 -0.5410 -0.3899 -0.0586
   21MOL0     H 2771   7.362   6.031   5.425 -0.1914 -0.3631  0.4038
   21MOL0     H 2772   7.502   6.172   5.301 -2.0484  0.6216 -0.7489
   21MOL0     H 2773   7.428   6.315   5.390 -1.8945 -0.1314 -0.5167
   21MOL0     H 2774   7.579   6.106   5.536  2.2502  0.3628  0.1432
   21MOL0     H 2775   7.666   6.247   5.468 -0.8008 -0.3556 -1.6521
   21MOL0     H 2776   7.527   6.403   5.588  0.0886  0.3214  0.2905
   21MOL0     H 2777   7.440   6.278   5.665 -1.2585  2.6884 -0.7567
   21MOL0     H 2778   7.622   6.170   5.747 -3.1522 -0.1570 -0.7815
   21MOL0     H 2779   7.729   6.310   5.696 -2.0471  1.0760 -1.4657
   21MOL0     H 2780   7.679   6.401   5.911  0.1417  2.2997 -3.2757
   21MOL0     H 2781   7.525   6.436   5.846 -1.3524 -1.2798 -1.8865
   21MOL0     H 2782   7.482   6.315   6.038  0.4227 -0.5229  0.3581
   21MOL0     H 2783   7.447   6.195   5.910  0.4068 -2.2255  1.1617
   21MOL0     H 2784   7.690   6.220   6.096 -0.4100 -0.5306 -0.6486
   21MOL0     H 2785   7.690   6.112   5.958  0.7601  1.8062 -0.3717
   21MOL0     H 2786   7.660   6.056   6.310  0.3381  1.2609 -0.3346
   21MOL0     H 2787   7.570   5.684   6.326  0.8204  0.3734 -2.7472
   21MOL0     H 2788   7.627   5.801   6.425 -0.0223  0.3788  1.6733
   21MOL0     H 2789   7.426   5.899   6.492  3.1869 -0.4762  0.3903
   21MOL0     H 2790   7.438   5.725   6.524  2.1922 -0.1990 -0.3073
   21MOL0     H 2791   7.282   5.675   6.343 -2.6661  0.4654 -0.3448
   21MOL0     H 2792   7.270   5.849   6.297 -1.3653  0.8961  0.9579
   21MOL0     H 2793   7.080   5.804   6.383  1.0554 -2.7212 -1.3934
   21MOL0     H 2794   7.164   5.878   6.522 -1.0923 -1.9535  1.2194
   21MOL0     H 2795   7.103   5.521   6.724 -0.6835 -0.5413 -1.2874
   21MOL0     H 2796   6.991   5.413   6.901  0.0319  1.0900 -0.3290
   21MOL0     H 2797   6.820   5.433   6.927  0.3512  1.8082  0.0638
   21MOL0     H 2798   6.875   5.323   6.803  1.0752 -0.3665 -0.4900
   21MOL0     H 2799   6.405   5.657   6.778 -0.1623 -0.7320  0.3586
   21MOL0     H 2800   6.167   5.649   6.837  1.6940  3.7201 -3.0263
   21MOL0     H 2801   5.920   5.301   6.715  3.6358 -1.4669 -0.3702
   21MOL0     H 2802   5.992   5.249   6.871 -0.0838 -0.8132 -0.8841
   21MOL0     H 2803   5.743   5.405   6.847 -0.4287 -0.2093  3.1902
   21MOL0     H 2804   5.735   5.233   6.870  0.0922 -0.7381  0.5678
   21MOL0     H 2805   5.845   5.423   7.069 -0.3935  0.5736 -0.9050
   21MOL0     H 2806   5.886   5.259   7.081 -1.9401 -0.7578 -0.0753
   21MOL0     H 2807   5.606   5.355   7.079  0.4450 -0.0461  0.4555
   21MOL0     H 2808   5.652   5.187   7.096 -2.2593  0.5314  1.2831
   21MOL0     H 2809   5.708   5.419   7.291 -0.9526  0.5494 -0.8143
   21MOL0     H 2810   5.805   5.276   7.309 -0.0692  0.8520  1.7317
   21MOL0     H 2811   5.497   5.270   7.326 -0.0642  1.0067  1.6221
   21MOL0     H 2812   5.618   5.145   7.383  1.2541 -0.1040 -3.3198
   21MOL0     H 2813   5.517   5.411   7.494 -2.6568 -2.7837  0.8957
   21MOL0     H 2814   5.677   5.386   7.537 -0.9805  2.2881  0.7503
   21MOL0     H 2815   5.611   5.166   7.637  2.5323  1.8399 -1.0473
   21MOL0     H 2816   5.434   5.197   7.612 -0.3633  1.2766  1.0992
   21MOL0     H 2817   6.135   5.255   6.668 -0.5676  0.9120 -1.5115
   21MOL0     H 2818   6.351   5.281   6.575 -0.7076  0.6180 -1.5293
   21MOL0     H 2819   6.686   5.665   6.506  1.1599  1.3934  0.1722
   21MOL0     H 2820   6.909   5.744   6.430  0.2113  2.1568  1.6991
   21MOL0     H 2821   7.181   5.903   5.411 -0.6993 -0.1737  0.7915
   21MOL0     H 2822   6.972   5.819   5.439  1.5428 -2.3458 -3.0918
   21MOL0     H 2823   6.352   5.958   5.277  1.0018 -0.4739  0.2488
   21MOL0     H 2824   6.184   5.809   5.357 -1.6546  1.0724  2.8712
   21MOL0     H 2825   6.047   5.754   5.573 -1.8139 -0.6024  0.9311
   21MOL0     H 2826   6.053   5.642   5.453 -1.4240 -5.5757 -0.2903
   21MOL0     H 2827   6.062   5.461   5.637  1.6631  0.1046 -2.4591
   21MOL0     H 2828   5.912   5.522   5.584 -0.3768  1.0594 -0.2456
   21MOL0     H 2829   5.941   5.714   5.781  1.6039 -0.1007  4.0152
   21MOL0     H 2830   6.033   5.582   5.843  0.6945 -2.7988 -0.6969
   21MOL0     H 2831   5.748   5.572   5.745  0.2737  1.2359  0.0709
   21MOL0     H 2832   5.801   5.624   5.908  1.5965  1.2391 -0.8051
   21MOL0     H 2833   5.849   5.217   5.980  0.2108 -0.6939 -2.7122
   21MOL0     H 2834   6.476   5.653   5.641  1.0750  0.8525  0.5619
   21MOL0     H 2835   6.648   5.797   5.542 -0.6684 -1.7528  2.4582
   22MOL0     O 2836   6.171   1.802   5.321 -0.2737 -0.6930 -0.2162
   22MOL0     C 2837   6.183   1.677   5.321 -0.0894 -0.4832 -0.0056
   22MOL0     O 2838   6.204   1.602   5.435  0.2668  0.1634 -0.3037
   22MOL0     C 2839   6.225   1.672   5.547  0.4584 -0.4401 -0.0918
   22MOL0     C 2840   6.113   1.690   5.630  0.2345  0.5034 -0.5033
   22MOL0     C 2841   6.139   1.768   5.748 -0.0787 -0.5610 -0.2878
   22MOL0     C 2842   6.253   1.843   5.769 -0.2187 -0.1059  0.0175
   22MOL0     O 2843   6.253   1.933   5.876 -0.1523 -0.0309  0.6792
   22MOL0     C 2844   6.334   2.059   5.872  0.5456  0.5028  0.8564
   22MOL0     C 2845   6.303   2.150   5.755  0.2567  0.4627 -0.0565
   22MOL0     C 2846   6.419   2.251   5.728 -0.1751 -0.5649  0.0410
   22MOL0     C 2847   6.375   2.391   5.664  0.2441  0.0300 -0.0753
   22MOL0     C 2848   6.492   2.480   5.656 -0.3503  0.2511  0.0186
   22MOL0     C 2849   6.480   2.602   5.561  0.0302 -0.8222  0.3569
   22MOL0     C 2850   6.437   2.734   5.624 -0.7110 -0.2804 -0.8278
   22MOL0     C 2851   6.546   2.821   5.696  0.3726 -0.8356 -0.0339
   22MOL0     N 2852   6.484   2.920   5.794  0.4781  0.2043  0.1496
   22MOL0     C 2853   6.387   2.894   5.890 -0.9571  1.3721  0.3906
   22MOL0     C 2854   6.368   3.012   5.954 -0.3146  0.1651 -0.0749
   22MOL0     C 2855   6.273   3.048   6.068 -0.4438 -0.7127 -0.4093
   22MOL0     C 2856   6.349   3.057   6.204  0.0385  0.3907 -0.1867
   22MOL0     C 2857   6.250   3.018   6.325 -0.6581 -0.0747  0.2295
   22MOL0     C 2858   6.319   3.011   6.455  0.3249 -0.3996 -0.4109
   22MOL0     O 2859   6.386   2.884   6.449  0.0825  0.0392 -0.5114
   22MOL0     C 2860   6.523   2.872   6.457 -0.1277  0.0170  0.4273
   22MOL0     C 2861   6.603   2.972   6.515 -0.9767 -0.0902 -0.0834
   22MOL0     C 2862   6.746   2.954   6.543  0.4198 -1.4943 -0.0819
   22MOL0     C 2863   6.825   3.065   6.605  0.4506 -0.6231 -0.1734
   22MOL0     C 2864   6.801   2.824   6.496 -0.5885 -0.3422 -0.8209
   22MOL0     C 2865   6.947   2.785   6.511  0.1334 -0.5642 -0.0445
   22MOL0     O 2866   6.971   2.650   6.507 -0.2325 -0.9716 -0.3549
   22MOL0     C 2867   7.090   2.601   6.471 -0.3144 -0.0058 -0.3174
   22MOL0     C 2868   7.127   2.474   6.523  1.1541 -0.5008  0.1471
   22MOL0     C 2869   7.242   2.402   6.485  0.4059 -0.7896 -0.2738
   22MOL0     C 2870   7.332   2.462   6.390  0.3745  0.0612  0.1302
   22MOL0     O 2871   7.453   2.399   6.385  0.3968  0.8625 -0.1491
   22MOL0     C 2872   7.530   2.434   6.276 -1.0215  0.3658  0.2313
   22MOL0     C 2873   7.651   2.334   6.255  0.7193  0.0638 -0.0114
   22MOL0     C 2874   7.747   2.333   6.380  0.2680 -0.5169 -0.6628
   22MOL0     C 2875   7.858   2.240   6.363 -0.2549  0.7051  0.0589
   22MOL0     C 2876   7.919   2.179   6.491  0.2285 -0.5810  0.4466
   22MOL0     C 2877   7.987   2.042   6.465  1.0372  0.3312 -0.3473
   22MOL0     C 2878   8.038   1.982   6.598 -0.7792  0.9461  0.0359
   22MOL0     C 2879   8.135   1.869   6.563  0.2210  0.4330 -0.5503
   22MOL0    Cl 2880   8.180   1.785   6.715 -0.2467 -0.1951 -0.2561
   22MOL0     C 2881   7.289   2.579   6.326 -0.1414  0.5598 -0.4452
   22MOL0     C 2882   7.168   2.653   6.365  0.7591 -0.1261 -0.3836
   22MOL0     O 2883   7.031   2.875   6.514 -0.3056  0.2454  0.0159
   22MOL0     C 2884   6.709   2.727   6.444  0.6728  0.0711 -0.2225
   22MOL0     C 2885   6.574   2.748   6.423  0.0028 -0.2911  0.7682
   22MOL0     N 2886   6.451   3.105   5.894  0.0187 -0.5216  0.0692
   22MOL0     N 2887   6.522   3.043   5.804  1.4901 -0.4460  0.2797
   22MOL0     C 2888   6.358   1.839   5.672  0.8381 -0.0272 -0.2523
   22MOL0     C 2889   6.349   1.745   5.567  0.9968  0.6219 -0.4552
   22MOL0     C 2890   6.159   1.602   5.196  0.3975 -0.7591  0.2890
   22MOL0     C 2891   6.108   1.657   5.078  0.3124 -0.3828 -0.7099
   22MOL0     C 2892   6.101   1.578   4.963  0.6314  0.5240  0.5267
   22MOL0     C 2893   6.156   1.443   4.966  0.5568 -0.4255  0.0970
   22MOL0     O 2894   6.157   1.349   4.862  0.2118  0.2527  0.1932
   22MOL0     C 2895   6.102   1.390   4.739  0.6950  0.5031 -0.2399
   22MOL0     C 2896   6.173   1.306   4.637 -0.1653  0.5325  0.8720
   22MOL0     C 2897   6.331   1.340   4.620 -0.1680 -0.2000 -1.2584
   22MOL0     C 2898   6.396   1.273   4.504 -1.2920 -0.2456  0.5412
   22MOL0     C 2899   6.332   1.290   4.380  1.0690  0.3368 -0.6508
   22MOL0     C 2900   6.277   1.287   4.275  0.1533 -0.2179 -0.2523
   22MOL0     C 2901   6.208   1.399   5.085 -0.2758  0.5273 -0.0764
   22MOL0     C 2902   6.204   1.473   5.202 -0.1803  0.6025  0.3525
   22MOL0     H 2903   6.024   1.634   5.602  1.4126 -1.8715  0.1555
   22MOL0     H 2904   6.062   1.762   5.823 -0.4447 -3.1092 -0.7954
   22MOL0     H 2905   6.328   2.122   5.961  1.3997  0.6704  0.8044
   22MOL0     H 2906   6.438   2.039   5.844 -0.2222  1.5818 -3.4528
   22MOL0     H 2907   6.280   2.097   5.662  1.4990 -1.6688  0.7751
   22MOL0     H 2908   6.216   2.209   5.785 -2.6225 -3.0985 -0.6491
   22MOL0     H 2909   6.469   2.268   5.824  1.0368 -1.1964 -0.4617
   22MOL0     H 2910   6.495   2.204   5.664 -0.8214 -0.3775 -0.8841
   22MOL0     H 2911   6.333   2.371   5.564  3.1239 -2.3886 -0.9553
   22MOL0     H 2912   6.299   2.430   5.733  1.2695 -1.4180  1.9824
   22MOL0     H 2913   6.509   2.513   5.759 -0.5674 -0.4983  0.3029
   22MOL0     H 2914   6.573   2.415   5.621  0.2506  0.6945  0.5638
   22MOL0     H 2915   6.574   2.630   5.512  0.1053 -2.6048 -0.5847
   22MOL0     H 2916   6.417   2.567   5.479 -2.0973 -1.7150  2.2705
   22MOL0     H 2917   6.395   2.796   5.544  0.3742  0.9088 -0.5043
   22MOL0     H 2918   6.358   2.706   5.695  0.0623  1.1759  0.6804
   22MOL0     H 2919   6.598   2.877   5.617  0.5567 -0.2075  0.5228
   22MOL0     H 2920   6.611   2.750   5.748  1.4656  0.2265  0.1056
   22MOL0     H 2921   6.330   2.802   5.882 -0.9382  1.5182 -2.0789
   22MOL0     H 2922   6.228   3.146   6.049 -3.3527 -2.2667 -2.1736
   22MOL0     H 2923   6.195   2.972   6.069  0.2919 -1.5665  2.2802
   22MOL0     H 2924   6.399   3.153   6.221 -0.4714  0.3225  1.9595
   22MOL0     H 2925   6.428   2.982   6.199 -1.6126 -1.3326 -2.1914
   22MOL0     H 2926   6.208   2.920   6.303  0.7500 -1.3642  2.8715
   22MOL0     H 2927   6.163   3.084   6.338  1.0832  2.4349 -0.0311
   22MOL0     H 2928   6.248   3.013   6.538  0.5089 -0.7097 -0.2434
   22MOL0     H 2929   6.382   3.099   6.471 -2.0421  1.0622  1.7824
   22MOL0     H 2930   6.567   3.070   6.544 -0.1733  0.7183 -1.6649
   22MOL0     H 2931   6.895   3.115   6.538 -0.8682  0.9192 -0.4591
   22MOL0     H 2932   6.759   3.139   6.651  0.9620  1.7563 -2.9528
   22MOL0     H 2933   6.881   3.029   6.691 -0.3851 -0.6162  0.3878
   22MOL0     H 2934   7.061   2.429   6.596  0.4638 -2.0952 -1.3732
   22MOL0     H 2935   7.274   2.309   6.532 -2.1032 -1.6034 -0.0485
   22MOL0     H 2936   7.472   2.446   6.183 -0.1458  0.8763 -0.2560
   22MOL0     H 2937   7.576   2.530   6.301 -1.7401  1.5764 -2.6189
   22MOL0     H 2938   7.612   2.236   6.225  0.0298  0.3666 -0.1233
   22MOL0     H 2939   7.708   2.359   6.166 -3.5451 -1.4608 -3.5855
   22MOL0     H 2940   7.696   2.300   6.471 -2.5810 -0.4972 -2.1481
   22MOL0     H 2941   7.778   2.435   6.406  1.3138 -0.6847 -1.2167
   22MOL0     H 2942   7.825   2.161   6.294 -1.4567  1.5790 -0.3994
   22MOL0     H 2943   7.946   2.282   6.315 -0.5291 -0.3510 -1.4239
   22MOL0     H 2944   7.843   2.179   6.570 -1.5773 -2.5155 -1.1750
   22MOL0     H 2945   7.990   2.261   6.508  1.9738 -1.8436 -0.4921
   22MOL0     H 2946   7.921   1.972   6.413  0.3095  1.5536 -1.1223
   22MOL0     H 2947   8.064   2.050   6.388  0.3678 -1.9763 -1.3370
   22MOL0     H 2948   7.953   1.934   6.647  1.3547 -2.2425  0.9946
   22MOL0     H 2949   8.092   2.048   6.666 -1.6658 -1.4672  3.3425
   22MOL0     H 2950   8.225   1.916   6.523  0.0886  2.9450  1.7854
   22MOL0     H 2951   8.095   1.804   6.484 -0.0594  0.5691 -0.5211
   22MOL0     H 2952   7.357   2.608   6.246  2.2925  0.9562  1.6464
   22MOL0     H 2953   7.139   2.739   6.305  0.9729 -0.2738 -0.7022
   22MOL0     H 2954   6.751   2.630   6.420 -1.6292 -1.4485  1.4957
   22MOL0     H 2955   6.512   2.669   6.382  0.8562 -0.4685 -0.2475
   22MOL0     H 2956   6.443   1.906   5.667  1.1345 -0.4612 -1.7574
   22MOL0     H 2957   6.424   1.737   5.489  0.4477  0.4415 -0.9726
   22MOL0     H 2958   6.090   1.764   5.076  1.3538 -0.1385  1.1852
   22MOL0     H 2959   6.046   1.626   4.883  0.1813  1.7636  1.5347
   22MOL0     H 2960   5.994   1.375   4.741  1.0610 -2.9093  1.1764
   22MOL0     H 2961   6.121   1.494   4.710 -0.1580  0.3347 -1.4733
   22MOL0     H 2962   6.129   1.333   4.541  0.0941  2.6874  1.3032
   22MOL0     H 2963   6.164   1.203   4.672  1.7597  1.1278  3.4864
   22MOL0     H 2964   6.377   1.308   4.714 -0.2574  1.0171 -0.7744
   22MOL0     H 2965   6.344   1.449   4.611 -2.7616  0.1504 -1.5910
   22MOL0     H 2966   6.397   1.165   4.527 -3.8539  0.0480  2.6110
   22MOL0     H 2967   6.499   1.308   4.500 -0.8981 -1.3589  0.5781
   22MOL0     H 2968   6.212   1.271   4.192  1.8091 -2.0355 -1.2905
   22MOL0     H 2969   6.249   1.299   5.076 -0.4962  0.2168  1.9050
   22MOL0     H 2970   6.254   1.421   5.283  1.4659 -0.5246 -1.3097
   23MOL0     O 2971   0.386   8.352   4.946 -0.3926  0.4652 -0.2167
   23MOL0     C 2972   0.444   8.310   5.050 -0.2937 -0.3701  0.3030
   23MOL0     O 2973   0.503   8.386   5.140 -0.5219 -0.6463  0.8136
   23MOL0     C 2974   0.544   8.516   5.105 -0.7785  0.2770 -0.4379
   23MOL0     C 2975   0.684   8.538   5.070  0.2848 -0.6199 -0.5567
   23MOL0     C 2976   0.730   8.670   5.064 -0.2405 -0.4609  0.7629
   23MOL0     C 2977   0.649   8.780   5.097  0.1789 -0.4494  0.3025
   23MOL0     O 2978   0.704   8.905   5.073  0.5739  0.0392 -0.8780
   23MOL0     C 2979   0.649   9.017   5.137 -0.0029 -0.7382 -0.3419
   23MOL0     C 2980   0.751   9.127   5.126 -0.5198  0.0629  0.3186
   23MOL0     C 2981   0.742   9.239   5.243 -0.2695  0.8307  0.3540
   23MOL0     C 2982   0.614   9.313   5.225 -0.0274  0.0232  0.6447
   23MOL0     C 2983   0.630   9.468   5.209  0.5436  0.5388 -0.9879
   23MOL0     C 2984   0.623   9.511   5.061  0.6746  0.7286  0.3160
   23MOL0     C 2985   0.652   9.657   5.056 -0.0009 -0.2389 -0.0479
   23MOL0     C 2986   0.662   9.712   4.911  0.5376 -0.4491 -0.0910
   23MOL0     N 2987   0.760   9.650   4.824  0.0256  0.0018  0.2364
   23MOL0     C 2988   0.729   9.556   4.746 -0.7230 -0.0254  0.9725
   23MOL0     C 2989   0.849   9.522   4.680  0.5512 -0.4570 -0.6042
   23MOL0     C 2990   0.872   9.417   4.581 -0.5813  1.1839  1.1093
   23MOL0     C 2991   0.991   9.316   4.601  0.1005  1.0773  0.0471
   23MOL0     C 2992   0.971   9.213   4.718  0.1438  0.1840  0.6459
   23MOL0     C 2993   1.099   9.149   4.770  0.3766 -0.2798 -0.0401
   23MOL0     O 2994   1.190   9.245   4.817 -0.2842 -0.5322  0.0200
   23MOL0     C 2995   1.179   9.276   4.953 -0.7452 -0.2013  0.6055
   23MOL0     C 2996   1.117   9.401   4.982  0.5198  0.6966  0.2957
   23MOL0     C 2997   1.108   9.432   5.120  0.5181  0.1913 -0.3188
   23MOL0     C 2998   1.022   9.554   5.156  0.2782  0.2105 -0.4084
   23MOL0     C 2999   1.166   9.348   5.223  0.7251  0.0677  0.0653
   23MOL0     C 3000   1.173   9.377   5.369 -0.5702  0.0220  0.0301
   23MOL0     O 3001   1.287   9.337   5.429 -0.0391  0.8240  0.2552
   23MOL0     C 3002   1.312   9.358   5.561 -0.3039 -0.7390  0.0300
   23MOL0     C 3003   1.416   9.453   5.606  0.5267 -0.7660  0.3382
   23MOL0     C 3004   1.431   9.465   5.743 -0.3805 -0.6344  0.1924
   23MOL0     C 3005   1.358   9.393   5.839 -0.3018 -1.0192  0.5411
   23MOL0     O 3006   1.393   9.433   5.969 -0.2035 -0.6487 -0.1409
   23MOL0     C 3007   1.310   9.399   6.078  0.1519  0.4620  0.4387
   23MOL0     C 3008   1.332   9.504   6.185  0.2224  0.8223 -0.4265
   23MOL0     C 3009   1.211   9.498   6.281  0.5553 -0.2577  0.3187
   23MOL0     C 3010   1.233   9.587   6.406 -0.8466 -0.2849  0.5284
   23MOL0     C 3011   1.113   9.602   6.495 -0.2414 -0.7182 -0.1971
   23MOL0     C 3012   1.139   9.659   6.640 -0.6902  0.7649  1.1236
   23MOL0     C 3013   1.009   9.692   6.715 -0.0844  0.9487  1.2018
   23MOL0     C 3014   0.918   9.570   6.732  0.2546  0.2727 -0.0821
   23MOL0    Cl 3015   0.997   9.457   6.845 -0.5097  0.4336  0.6074
   23MOL0     C 3016   1.283   9.287   5.794 -0.1047 -0.5237  0.3836
   23MOL0     C 3017   1.264   9.269   5.658  0.3431  1.0024  0.1311
   23MOL0     O 3018   1.081   9.431   5.432 -0.5776 -0.0692 -0.2214
   23MOL0     C 3019   1.213   9.229   5.178 -0.6831  0.0269  0.6873
   23MOL0     C 3020   1.224   9.190   5.049 -0.1889 -0.2610 -0.8278
   23MOL0     N 3021   0.945   9.603   4.735 -0.0343 -0.2787  0.0856
   23MOL0     N 3022   0.890   9.684   4.821  0.9590 -0.5461  0.5237
   23MOL0     C 3023   0.520   8.761   5.134 -0.2091  0.0639 -0.9782
   23MOL0     C 3024   0.463   8.628   5.129 -0.1996  0.5701  0.0924
   23MOL0     C 3025   0.443   8.163   5.087 -0.2531  0.4777  0.6253
   23MOL0     C 3026   0.532   8.113   5.182  0.2960  0.1566 -0.1899
   23MOL0     C 3027   0.538   7.977   5.209 -0.1047  0.2259  0.0814
   23MOL0     C 3028   0.467   7.880   5.126 -0.4008 -0.4362 -0.7102
   23MOL0     O 3029   0.483   7.751   5.157 -0.7921 -0.3280  0.3692
   23MOL0     C 3030   0.410   7.654   5.090 -0.1937  0.2320 -0.4071
   23MOL0     C 3031   0.434   7.519   5.173  0.3950  0.3368 -0.0422
   23MOL0     C 3032   0.584   7.486   5.185 -0.6172 -0.5647  0.0366
   23MOL0     C 3033   0.665   7.465   5.063  0.2550  0.3973  0.2329
   23MOL0     C 3034   0.592   7.384   4.966 -0.6716  0.4152  0.9359
   23MOL0     C 3035   0.513   7.340   4.879 -1.0260  0.6621  0.1727
   23MOL0     C 3036   0.382   7.930   5.031  0.2251 -0.4856 -0.2610
   23MOL0     C 3037   0.371   8.071   5.008  0.5274 -0.7173  0.0453
   23MOL0     H 3038   0.735   8.445   5.046 -1.1380 -1.4909 -0.3722
   23MOL0     H 3039   0.832   8.692   5.034 -0.8920  3.3081  0.8665
   23MOL0     H 3040   0.553   9.050   5.096 -0.6122 -1.3386  0.5533
   23MOL0     H 3041   0.632   8.989   5.242 -2.6635  0.5699 -0.3422
   23MOL0     H 3042   0.845   9.072   5.137  0.7838  1.6803 -1.8175
   23MOL0     H 3043   0.754   9.164   5.023  1.5795  1.7261  0.9098
   23MOL0     H 3044   0.741   9.187   5.339  0.6399  1.5619  0.7712
   23MOL0     H 3045   0.836   9.295   5.241  2.4165 -2.6964  5.1760
   23MOL0     H 3046   0.556   9.281   5.138  0.0784 -0.9296  0.9084
   23MOL0     H 3047   0.562   9.293   5.320  0.2484 -1.1234  0.5698
   23MOL0     H 3048   0.545   9.512   5.262  1.2313 -0.7518  1.3345
   23MOL0     H 3049   0.712   9.520   5.258  0.6520  1.9198 -2.5635
   23MOL0     H 3050   0.685   9.446   5.000  0.9362  0.1574  1.1709
   23MOL0     H 3051   0.521   9.486   5.028  1.1726 -2.3428  0.8355
   23MOL0     H 3052   0.578   9.714   5.112  1.7533 -1.9022  4.3732
   23MOL0     H 3053   0.753   9.679   5.094  0.3942 -1.6973 -0.1951
   23MOL0     H 3054   0.695   9.816   4.911  2.5360 -1.0345 -1.3701
   23MOL0     H 3055   0.562   9.709   4.866  1.1358 -1.8203 -1.4244
   23MOL0     H 3056   0.632   9.509   4.751 -1.0138  0.5976  1.2717
   23MOL0     H 3057   0.776   9.366   4.570  0.6691 -0.8232 -1.3514
   23MOL0     H 3058   0.892   9.471   4.488  0.0145  0.0835  0.5805
   23MOL0     H 3059   1.086   9.365   4.619 -1.0201  3.4902 -0.2963
   23MOL0     H 3060   1.006   9.259   4.509  1.4181 -0.1832  0.9983
   23MOL0     H 3061   0.898   9.138   4.684  0.6127  0.6555 -1.5290
   23MOL0     H 3062   0.922   9.266   4.800 -3.4497 -1.2165 -0.3634
   23MOL0     H 3063   1.144   9.088   4.692  0.7548 -0.5423  0.3795
   23MOL0     H 3064   1.080   9.080   4.853  1.6373 -3.3962 -2.1512
   23MOL0     H 3065   1.079   9.465   4.903  1.6290 -0.7212 -1.4635
   23MOL0     H 3066   0.924   9.547   5.203 -0.0410  0.6795 -0.9824
   23MOL0     H 3067   1.086   9.613   5.222  1.7046 -1.6991 -0.0233
   23MOL0     H 3068   1.006   9.608   5.062  1.3853  1.1662 -0.0777
   23MOL0     H 3069   1.479   9.512   5.541  0.3750  1.1977  1.8729
   23MOL0     H 3070   1.498   9.546   5.770 -1.9862  2.0548 -3.1076
   23MOL0     H 3071   1.209   9.411   6.038 -1.3075  2.0466  4.1757
   23MOL0     H 3072   1.339   9.298   6.106  2.4021  1.1919  1.0234
   23MOL0     H 3073   1.424   9.478   6.239  0.5227 -0.2273 -1.4107
   23MOL0     H 3074   1.346   9.605   6.144  4.8161  0.3858 -0.5219
   23MOL0     H 3075   1.193   9.395   6.314 -0.2509 -0.2815 -0.1648
   23MOL0     H 3076   1.124   9.534   6.224  1.2522  0.6290 -0.2122
   23MOL0     H 3077   1.324   9.556   6.459 -0.9384 -1.2598  0.1360
   23MOL0     H 3078   1.251   9.689   6.371 -0.6415 -0.5599 -0.1868
   23MOL0     H 3079   1.067   9.504   6.504  0.5111 -0.9871  0.8186
   23MOL0     H 3080   1.029   9.658   6.451  0.3554  0.8555  0.5936
   23MOL0     H 3081   1.187   9.588   6.708  1.4123  0.4473 -0.5620
   23MOL0     H 3082   1.210   9.742   6.630  1.0105 -0.9145 -3.2131
   23MOL0     H 3083   0.956   9.761   6.649 -0.2017  2.1296  2.4749
   23MOL0     H 3084   1.041   9.747   6.804 -2.9027  3.2085  0.9399
   23MOL0     H 3085   0.905   9.511   6.641  0.5829 -2.1612  1.3503
   23MOL0     H 3086   0.828   9.614   6.774  0.9905  4.1255 -2.1129
   23MOL0     H 3087   1.248   9.222   5.874 -2.8470  0.1777 -0.1728
   23MOL0     H 3088   1.191   9.194   5.627 -0.1760  2.4553 -2.3534
   23MOL0     H 3089   1.250   9.157   5.250  1.4748  0.6188  0.2328
   23MOL0     H 3090   1.279   9.100   5.026  3.0926  0.5964  2.6554
   23MOL0     H 3091   0.463   8.844   5.175  3.9763  1.5623  2.6594
   23MOL0     H 3092   0.363   8.612   5.170  0.8497 -0.5873  2.3750
   23MOL0     H 3093   0.580   8.180   5.252  0.6327 -0.7160  0.4271
   23MOL0     H 3094   0.601   7.937   5.288 -0.3257 -1.4581 -0.5366
   23MOL0     H 3095   0.303   7.679   5.092  0.1152  1.5967  0.7157
   23MOL0     H 3096   0.436   7.650   4.984 -2.5342  0.2281 -1.0316
   23MOL0     H 3097   0.363   7.444   5.136 -1.0897  1.5360  0.2698
   23MOL0     H 3098   0.410   7.550   5.275  0.1183 -1.5835  0.5204
   23MOL0     H 3099   0.597   7.397   5.247  2.1802  0.3599  0.9157
   23MOL0     H 3100   0.636   7.565   5.240 -2.0180 -0.0598  0.6801
   23MOL0     H 3101   0.762   7.427   5.094  0.5016  3.0417  3.1765
   23MOL0     H 3102   0.686   7.560   5.013  1.1852  1.2301  2.1169
   23MOL0     H 3103   0.443   7.321   4.800 -1.7515  3.7831 -0.0376
   23MOL0     H 3104   0.329   7.866   4.962 -0.5656  1.7233 -1.8454
   23MOL0     H 3105   0.310   8.102   4.923  1.3156 -0.9780 -0.6289
   24MOL0     O 3106   7.350   6.903   2.113  0.0933 -0.4803  0.1594
   24MOL0     C 3107   7.410   6.946   2.013  0.2150  0.5709 -0.1783
   24MOL0     O 3108   7.363   7.035   1.923 -0.2875  0.4756  0.8556
   24MOL0     C 3109   7.231   7.054   1.901 -0.4731 -0.1391  0.2407
   24MOL0     C 3110   7.136   6.951   1.912 -1.2267 -0.5923  1.2164
   24MOL0     C 3111   7.008   6.969   1.884  0.1226 -1.0614 -0.7924
   24MOL0     C 3112   6.958   7.105   1.872 -0.2495  0.0089 -0.3077
   24MOL0     O 3113   6.830   7.144   1.848  0.1462  0.0347  0.1911
   24MOL0     C 3114   6.721   7.053   1.875 -0.3860  1.0981 -0.4412
   24MOL0     C 3115   6.592   7.129   1.900  0.2124 -0.3753 -0.6758
   24MOL0     C 3116   6.539   7.220   1.795 -0.1861  0.3038 -1.2131
   24MOL0     C 3117   6.407   7.280   1.839 -1.1358  0.8970  0.2555
   24MOL0     C 3118   6.384   7.424   1.801 -0.3776  0.5465  0.8388
   24MOL0     C 3119   6.387   7.433   1.645  0.5817 -0.0337 -0.6328
   24MOL0     C 3120   6.279   7.348   1.566 -0.0753 -0.2239  0.0549
   24MOL0     C 3121   6.314   7.301   1.420 -0.2720 -0.2410  0.0867
   24MOL0     N 3122   6.396   7.189   1.443 -0.1934  0.2130 -0.3720
   24MOL0     C 3123   6.511   7.175   1.373 -0.4362  0.1015  0.4370
   24MOL0     C 3124   6.548   7.042   1.388 -0.6112  0.3627  0.3576
   24MOL0     C 3125   6.673   6.972   1.340  0.2331  0.6057  0.3277
   24MOL0     C 3126   6.654   6.864   1.227  0.0595 -0.9185 -0.4142
   24MOL0     C 3127   6.591   6.944   1.103 -0.4466  0.5100 -0.1742
   24MOL0     C 3128   6.604   6.859   0.969  0.1094 -0.3997  0.5658
   24MOL0     O 3129   6.735   6.802   0.945 -0.6757  0.9345 -0.5038
   24MOL0     C 3130   6.752   6.718   0.839  0.6851  0.4274 -0.6541
   24MOL0     C 3131   6.876   6.664   0.821  0.0711 -0.3252 -0.3999
   24MOL0     C 3132   6.906   6.565   0.728  0.1263 -1.2711 -0.3922
   24MOL0     C 3133   7.054   6.510   0.722 -0.3260 -0.2581  0.0668
   24MOL0     C 3134   6.795   6.526   0.637  0.3607 -0.4687 -0.8538
   24MOL0     C 3135   6.826   6.444   0.520 -0.0571  0.6727 -0.1214
   24MOL0     O 3136   6.725   6.375   0.472  0.0740  0.3724  0.7359
   24MOL0     C 3137   6.743   6.253   0.408  0.4276 -0.0773 -0.2931
   24MOL0     C 3138   6.624   6.207   0.346  0.4563  0.0255 -0.0994
   24MOL0     C 3139   6.629   6.093   0.254 -0.0351 -0.4180 -0.6039
   24MOL0     C 3140   6.750   6.034   0.219  0.1246 -0.6956 -0.3533
   24MOL0     O 3141   6.758   5.941   0.115 -0.5917 -0.0289  0.4512
   24MOL0     C 3142   6.887   5.889   0.070  0.0770  0.0772 -0.1904
   24MOL0     C 3143   6.969   6.000   0.000 -0.0514 -0.5356 -0.2489
   24MOL0     C 3144   7.062   5.940  -0.102  0.6622  0.2510 -1.0372
   24MOL0     C 3145   7.156   6.050  -0.159  0.9501  0.2256 -0.6875
   24MOL0     C 3146   7.254   5.982  -0.254 -0.5067  0.8707 -0.2861
   24MOL0     C 3147   7.344   6.090  -0.331 -0.0217  1.0772 -0.4056
   24MOL0     C 3148   7.423   6.036  -0.449 -0.0979  0.8300  0.0912
   24MOL0     C 3149   7.445   6.131  -0.564 -0.5141  0.3415 -0.0160
   24MOL0    Cl 3150   7.287   6.156  -0.634  0.0483 -0.0618  0.0737
   24MOL0     C 3151   6.861   6.068   0.299 -0.1159  0.5752  0.6657
   24MOL0     C 3152   6.861   6.169   0.399 -0.2237  0.5771 -0.5829
   24MOL0     O 3153   6.937   6.454   0.469  0.4373  0.0072 -0.0112
   24MOL0     C 3154   6.664   6.581   0.659 -0.6696 -0.1156 -1.2301
   24MOL0     C 3155   6.649   6.681   0.753  0.3485  0.6857 -0.6455
   24MOL0     N 3156   6.461   6.990   1.479  0.0982 -0.2689  0.0194
   24MOL0     N 3157   6.363   7.072   1.501  0.0877  0.2779  0.6352
   24MOL0     C 3158   7.050   7.215   1.864  0.3108  0.3245 -0.4675
   24MOL0     C 3159   7.191   7.187   1.871 -0.3068  0.5129 -0.5712
   24MOL0     C 3160   7.534   6.871   1.983  0.6479  0.5813  0.3152
   24MOL0     C 3161   7.596   6.896   1.859 -0.5250 -0.0359  0.6386
   24MOL0     C 3162   7.712   6.830   1.816 -0.0967  0.0002 -0.1038
   24MOL0     C 3163   7.764   6.731   1.895  0.4434 -0.1466 -0.3185
   24MOL0     O 3164   7.883   6.673   1.872 -0.2521 -0.6355 -0.0620
   24MOL0     C 3165   7.965   6.675   1.756 -0.0056  0.1506  0.6902
   24MOL0     C 3166   8.042   6.548   1.762 -0.3614 -0.8233  0.0069
   24MOL0     C 3167   8.152   6.529   1.658 -0.4507 -0.9898 -0.7476
   24MOL0     C 3168   8.218   6.387   1.675  0.1764  0.1083 -0.7984
   24MOL0     C 3169   8.363   6.396   1.654  0.2600 -0.5120  0.0574
   24MOL0     C 3170   8.469   6.415   1.600  0.7131  0.6821  0.6095
   24MOL0     C 3171   7.701   6.691   2.011  0.1928 -0.4424  1.2725
   24MOL0     C 3172   7.589   6.762   2.058  0.0304 -0.7686 -0.2717
   24MOL0     H 3173   7.171   6.850   1.929  1.2354  0.0931  0.6380
   24MOL0     H 3174   6.945   6.881   1.888 -1.6145  0.1628  1.7558
   24MOL0     H 3175   6.718   6.977   1.796 -0.5583  0.9987 -0.3396
   24MOL0     H 3176   6.744   7.002   1.969 -2.0492 -0.6829 -0.9379
   24MOL0     H 3177   6.514   7.053   1.904 -0.1510  0.0386  0.9134
   24MOL0     H 3178   6.598   7.185   1.994  1.2150 -1.7851  0.1349
   24MOL0     H 3179   6.609   7.303   1.781 -1.6311  2.0274  1.0317
   24MOL0     H 3180   6.524   7.168   1.699 -0.7993 -2.4869  0.2953
   24MOL0     H 3181   6.333   7.206   1.805  2.2228 -1.2863 -3.0610
   24MOL0     H 3182   6.410   7.288   1.948  2.1964 -2.1497  0.5534
   24MOL0     H 3183   6.286   7.453   1.841 -0.9865 -0.0407 -0.1908
   24MOL0     H 3184   6.466   7.480   1.846  1.0860 -1.9373  1.4792
   24MOL0     H 3185   6.374   7.536   1.613  2.1012  0.7955  1.2897
   24MOL0     H 3186   6.481   7.391   1.609  0.2541 -0.8918 -0.5347
   24MOL0     H 3187   6.246   7.263   1.626  2.0052 -1.7441 -0.8474
   24MOL0     H 3188   6.195   7.416   1.549 -1.3209 -2.0540 -1.4922
   24MOL0     H 3189   6.349   7.385   1.359 -0.0078  1.1914  2.1062
   24MOL0     H 3190   6.223   7.259   1.377  0.2980  0.6659 -2.1407
   24MOL0     H 3191   6.571   7.250   1.323  2.6915 -3.6198 -2.0910
   24MOL0     H 3192   6.746   7.047   1.309  4.4659 -3.1604  0.0902
   24MOL0     H 3193   6.723   6.914   1.418  0.5047 -2.4678 -1.9087
   24MOL0     H 3194   6.592   6.779   1.257 -2.6588  1.1095  0.1201
   24MOL0     H 3195   6.751   6.821   1.204 -0.4643 -1.6396 -1.3639
   24MOL0     H 3196   6.633   7.043   1.085 -1.6993  0.7006 -2.3862
   24MOL0     H 3197   6.487   6.964   1.130 -0.7743 -0.5193 -0.6150
   24MOL0     H 3198   6.594   6.914   0.875  0.3816  0.7258  1.1798
   24MOL0     H 3199   6.533   6.778   0.988  0.2397 -0.6584 -0.0414
   24MOL0     H 3200   6.948   6.705   0.892 -1.0261  1.9792 -0.5147
   24MOL0     H 3201   7.085   6.492   0.825 -0.6289 -1.5770 -0.0462
   24MOL0     H 3202   7.070   6.416   0.668 -0.1461  0.9622 -2.1270
   24MOL0     H 3203   7.123   6.585   0.683 -1.9205  1.5384  0.6014
   24MOL0     H 3204   6.528   6.251   0.371  0.6878  0.5468 -0.1175
   24MOL0     H 3205   6.535   6.060   0.211 -0.2467 -1.7157  0.7429
   24MOL0     H 3206   6.943   5.842   0.151  2.0230 -0.6008 -1.8501
   24MOL0     H 3207   6.861   5.813  -0.004 -1.0646  0.9789 -0.7558
   24MOL0     H 3208   6.901   6.068  -0.052  1.7917  0.1016 -1.9652
   24MOL0     H 3209   7.026   6.064   0.067 -2.0454  0.3945  0.6617
   24MOL0     H 3210   7.009   5.894  -0.186 -0.6630  1.7991 -1.1036
   24MOL0     H 3211   7.119   5.865  -0.046  0.4292 -1.0553 -2.4994
   24MOL0     H 3212   7.107   6.139  -0.199  2.0084  2.0854  1.8699
   24MOL0     H 3213   7.215   6.088  -0.075 -1.3585 -1.4456  1.8633
   24MOL0     H 3214   7.210   5.916  -0.330  2.4810 -0.8613 -0.6958
   24MOL0     H 3215   7.324   5.925  -0.193 -0.4023  3.3500  2.0913
   24MOL0     H 3216   7.270   6.164  -0.364 -1.1449  1.2152  2.1559
   24MOL0     H 3217   7.406   6.137  -0.254 -1.8815  1.6738  0.7909
   24MOL0     H 3218   7.364   5.950  -0.482  2.2003 -1.4884  1.5890
   24MOL0     H 3219   7.512   5.987  -0.409 -1.4926 -3.4516 -1.4093
   24MOL0     H 3220   7.514   6.084  -0.635  2.4288  2.3622  1.3332
   24MOL0     H 3221   7.491   6.225  -0.532  1.4668 -0.8921  0.9146
   24MOL0     H 3222   6.958   6.019   0.289  0.1496  0.8578  1.7269
   24MOL0     H 3223   6.955   6.213   0.428 -0.1877 -1.6863  3.6747
   24MOL0     H 3224   6.593   6.547   0.584 -2.1533 -0.5661  0.2890
   24MOL0     H 3225   6.564   6.748   0.757  0.3571  0.8107 -1.9994
   24MOL0     H 3226   7.023   7.319   1.848 -1.5464  0.1377  1.0857
   24MOL0     H 3227   7.269   7.260   1.854  0.5163 -0.7649 -2.6356
   24MOL0     H 3228   7.556   6.957   1.778  2.3570  0.9995 -0.1490
   24MOL0     H 3229   7.766   6.864   1.728 -0.5476 -0.4602 -0.5635
   24MOL0     H 3230   7.891   6.664   1.676 -0.1829  1.7853  0.5910
   24MOL0     H 3231   8.025   6.764   1.737  0.4821 -0.8444 -3.2922
   24MOL0     H 3232   7.976   6.463   1.744 -0.4510 -0.1987 -3.3210
   24MOL0     H 3233   8.089   6.546   1.860 -1.6010  3.0396  0.8385
   24MOL0     H 3234   8.214   6.617   1.676 -1.9954 -0.1443  0.8144
   24MOL0     H 3235   8.119   6.529   1.554  0.3245 -1.5603 -1.0066
   24MOL0     H 3236   8.181   6.309   1.607 -0.7252  0.0835 -0.2897
   24MOL0     H 3237   8.206   6.333   1.769  1.1746 -2.1909 -1.8956
   24MOL0     H 3238   8.563   6.412   1.549  0.0455 -0.4787 -0.6123
   24MOL0     H 3239   7.744   6.607   2.064 -0.1931 -0.0684  2.2128
   24MOL0     H 3240   7.546   6.726   2.151 -2.1405 -2.4503 -1.8330
   25MOL0     O 3241   2.562   9.597   7.466  0.2779 -0.2800 -0.0343
   25MOL0     C 3242   2.631   9.529   7.392 -0.5747  0.2984 -0.1311
   25MOL0     O 3243   2.696   9.571   7.278 -0.2481  0.0021 -0.3209
   25MOL0     C 3244   2.634   9.670   7.204 -0.2440 -0.6637 -0.4095
   25MOL0     C 3245   2.705   9.753   7.113 -0.9996 -0.5239 -0.2823
   25MOL0     C 3246   2.654   9.838   7.022 -0.4188 -1.0444  0.6313
   25MOL0     C 3247   2.520   9.876   7.038 -0.4273  0.5940  1.0262
   25MOL0     O 3248   2.461   9.962   6.949 -0.2631  0.0811 -0.2971
   25MOL0     C 3249   2.498   9.936   6.806 -1.3460 -0.2343 -0.4928
   25MOL0     C 3250   2.427  10.037   6.715  0.3505 -0.1998  0.2257
   25MOL0     C 3251   2.486  10.177   6.724  0.4098  0.5536  0.0639
   25MOL0     C 3252   2.615  10.199   6.638  0.4043  0.0833 -0.2625
   25MOL0     C 3253   2.591  10.280   6.507 -0.3471 -0.8977 -0.2021
   25MOL0     C 3254   2.704  10.247   6.406 -0.6778 -0.1950 -0.5702
   25MOL0     C 3255   2.679  10.328   6.277 -0.4794  0.1821 -0.3350
   25MOL0     C 3256   2.543  10.281   6.216  0.2532 -0.7163  0.4546
   25MOL0     N 3257   2.467  10.400   6.180  0.2541  0.0239 -0.0362
   25MOL0     C 3258   2.438  10.520   6.247  0.4381 -0.0630  0.5894
   25MOL0     C 3259   2.328  10.573   6.186  0.1073  0.5554  0.0160
   25MOL0     C 3260   2.247  10.682   6.236  0.3012  1.0967 -0.0162
   25MOL0     C 3261   2.092  10.673   6.217 -0.1918  1.0331  0.7288
   25MOL0     C 3262   2.031  10.529   6.260 -0.4039 -0.0425 -0.6993
   25MOL0     C 3263   2.023  10.527   6.418 -0.2902  0.3777 -0.0359
   25MOL0     O 3264   2.155  10.514   6.469 -0.4589  0.3432 -0.9217
   25MOL0     C 3265   2.176  10.538   6.606 -0.5636 -0.3805  0.2689
   25MOL0     C 3266   2.084  10.575   6.700  0.7340 -0.5237 -0.8000
   25MOL0     C 3267   2.099  10.606   6.832 -0.0037  0.1834  0.1617
   25MOL0     C 3268   1.985  10.645   6.911  1.0037  0.6385  0.2493
   25MOL0     C 3269   2.233  10.611   6.883 -0.0935 -0.0013 -0.2669
   25MOL0     C 3270   2.276  10.638   7.026  0.2911  0.3140  0.0330
   25MOL0     O 3271   2.172  10.625   7.118 -0.7323 -0.1134  0.4649
   25MOL0     C 3272   2.208  10.589   7.246 -0.4479 -0.2644  0.5509
   25MOL0     C 3273   2.140  10.476   7.320  0.3734 -0.5865 -0.7336
   25MOL0     C 3274   2.178  10.446   7.459  0.5389 -0.4690  0.0610
   25MOL0     C 3275   2.275  10.526   7.514 -0.2557  0.3408  0.7114
   25MOL0     O 3276   2.318  10.494   7.636  0.0540  0.0597 -0.6367
   25MOL0     C 3277   2.305  10.602   7.741  0.1086  0.0461  0.3851
   25MOL0     C 3278   2.430  10.608   7.829  0.3014 -0.5107  0.9602
   25MOL0     C 3279   2.550  10.692   7.767  0.0709 -0.4189  0.1505
   25MOL0     C 3280   2.512  10.836   7.783  0.3536 -0.1312 -0.6166
   25MOL0     C 3281   2.637  10.917   7.757  0.4743  1.1940 -0.6755
   25MOL0     C 3282   2.600  11.067   7.731 -0.1399  1.0407  0.3418
   25MOL0     C 3283   2.562  11.066   7.582 -0.0756  0.2191  0.1247
   25MOL0     C 3284   2.597  11.196   7.511  0.2116 -0.8526 -0.9542
   25MOL0    Cl 3285   2.747  11.164   7.420  0.2185 -0.4042 -0.1413
   25MOL0     C 3286   2.339  10.634   7.450 -0.0056  0.0903  0.2394
   25MOL0     C 3287   2.297  10.661   7.322  0.6549 -0.5641 -0.0077
   25MOL0     O 3288   2.395  10.667   7.051 -0.9419 -0.6718  0.8109
   25MOL0     C 3289   2.335  10.586   6.782 -0.1992 -0.0509 -0.2792
   25MOL0     C 3290   2.308  10.552   6.645 -0.6926 -0.0819 -0.1008
   25MOL0     N 3291   2.296  10.483   6.080 -0.1459  1.1761 -0.7642
   25MOL0     N 3292   2.380  10.383   6.083  0.0825  0.1292 -0.5882
   25MOL0     C 3293   2.446   9.806   7.127  0.1852 -0.2210 -0.3617
   25MOL0     C 3294   2.497   9.698   7.196  0.4294  1.3840  0.4470
   25MOL0     C 3295   2.657   9.391   7.425 -0.0375  1.6562 -0.4376
   25MOL0     C 3296   2.726   9.296   7.343 -0.9209  0.6220 -0.9960
   25MOL0     C 3297   2.734   9.164   7.378 -0.5358  0.1564  0.8155
   25MOL0     C 3298   2.671   9.115   7.490 -0.4825  0.0660  0.2411
   25MOL0     O 3299   2.679   8.972   7.498 -0.2242 -0.6503 -0.1203
   25MOL0     C 3300   2.601   8.903   7.609  0.3929 -0.5047 -0.3374
   25MOL0     C 3301   2.447   8.904   7.575 -0.2117  0.4728  0.7770
   25MOL0     C 3302   2.334   8.829   7.657 -0.6152 -0.3131  0.0786
   25MOL0     C 3303   2.328   8.867   7.809 -0.7235  0.1528 -1.1958
   25MOL0     C 3304   2.449   8.855   7.899  0.4022  0.3841 -0.6006
   25MOL0     C 3305   2.540   8.851   7.985  0.1174 -0.1804 -1.1434
   25MOL0     C 3306   2.592   9.205   7.566  0.3580  0.7589  0.2278
   25MOL0     C 3307   2.589   9.335   7.543  0.1162  0.1246  0.1922
   25MOL0     H 3308   2.813   9.735   7.113 -0.9127 -0.3557 -2.6677
   25MOL0     H 3309   2.711   9.886   6.943 -2.8050 -0.6998 -1.0023
   25MOL0     H 3310   2.605   9.953   6.792 -1.3549 -0.7538 -1.2416
   25MOL0     H 3311   2.480   9.836   6.767 -1.4468 -1.4090  2.3557
   25MOL0     H 3312   2.427  10.000   6.612 -4.6468 -5.2780  1.5421
   25MOL0     H 3313   2.325  10.061   6.745  0.3421  2.9074 -1.8803
   25MOL0     H 3314   2.413  10.249   6.684  0.3918  0.2743 -0.4177
   25MOL0     H 3315   2.490  10.209   6.828 -3.7378  0.7523  0.3168
   25MOL0     H 3316   2.697  10.236   6.700  2.9726 -4.6956 -0.2919
   25MOL0     H 3317   2.645  10.102   6.595  0.8090  0.4756 -0.8882
   25MOL0     H 3318   2.488  10.263   6.474 -0.7777 -3.0473  1.9646
   25MOL0     H 3319   2.595  10.386   6.531 -0.9784 -1.4717  2.9610
   25MOL0     H 3320   2.802  10.279   6.442  1.1207 -4.4267 -1.2281
   25MOL0     H 3321   2.705  10.141   6.380  0.4062 -0.8270  1.7851
   25MOL0     H 3322   2.689  10.435   6.295 -0.4886  1.0053 -4.3735
   25MOL0     H 3323   2.754  10.303   6.202  0.4460  1.5666  0.1094
   25MOL0     H 3324   2.492  10.203   6.272  1.3585  0.1796  2.8418
   25MOL0     H 3325   2.573  10.239   6.120 -2.7579 -0.8760 -0.5256
   25MOL0     H 3326   2.473  10.552   6.344 -2.0842 -0.2480  1.6398
   25MOL0     H 3327   2.282  10.701   6.338 -0.7061 -2.1339  1.0164
   25MOL0     H 3328   2.271  10.774   6.181 -0.2576  2.0580  1.2983
   25MOL0     H 3329   2.066  10.686   6.111 -1.3020  2.0622  1.1154
   25MOL0     H 3330   2.044  10.752   6.275 -1.1369  0.0851  1.2417
   25MOL0     H 3331   2.079  10.434   6.236 -3.4493 -1.6654 -0.8643
   25MOL0     H 3332   1.930  10.523   6.219  0.4861  1.5230 -3.3822
   25MOL0     H 3333   1.962  10.442   6.451 -1.8402  0.2861 -2.7452
   25MOL0     H 3334   1.960  10.606   6.460  0.3502  0.5900  0.5300
   25MOL0     H 3335   1.983  10.577   6.659 -0.0996  4.3886  0.8116
   25MOL0     H 3336   1.892  10.636   6.854  0.7412  1.3413  0.5585
   25MOL0     H 3337   1.972  10.575   6.994 -1.8592  1.5633  0.7053
   25MOL0     H 3338   1.989  10.750   6.942 -3.8004  1.6960 -1.7263
   25MOL0     H 3339   2.072  10.414   7.264  0.4589 -1.5619  0.2067
   25MOL0     H 3340   2.127  10.366   7.513  1.1402 -1.3865 -0.6862
   25MOL0     H 3341   2.296  10.697   7.686 -0.4075  0.5774  1.3633
   25MOL0     H 3342   2.221  10.589   7.810  1.6023  0.0282  2.2572
   25MOL0     H 3343   2.397  10.662   7.919  0.6470  1.2618  0.0690
   25MOL0     H 3344   2.459  10.503   7.840 -1.8098 -1.1812  0.5218
   25MOL0     H 3345   2.568  10.650   7.668 -1.4435 -2.7057  0.7583
   25MOL0     H 3346   2.638  10.657   7.821 -0.2149 -0.4773  0.5913
   25MOL0     H 3347   2.435  10.862   7.711 -0.6616  4.7717  1.8594
   25MOL0     H 3348   2.466  10.857   7.880 -0.7142 -1.0180 -0.9096
   25MOL0     H 3349   2.694  10.864   7.681  3.9587  1.7491  1.3270
   25MOL0     H 3350   2.711  10.916   7.838  0.3757  1.8160 -0.5739
   25MOL0     H 3351   2.527  11.117   7.795 -0.9681  0.0443  0.1976
   25MOL0     H 3352   2.690  11.129   7.740  1.7796 -1.4665 -0.1045
   25MOL0     H 3353   2.453  11.062   7.584 -0.1846  2.1780  0.5933
   25MOL0     H 3354   2.599  10.979   7.527  0.4422 -0.8556  2.0718
   25MOL0     H 3355   2.606  11.282   7.578  0.4515 -2.6015  1.3529
   25MOL0     H 3356   2.517  11.229   7.444 -0.0533  2.9738  0.9727
   25MOL0     H 3357   2.414  10.689   7.505 -1.7526 -0.6170  3.6096
   25MOL0     H 3358   2.355  10.739   7.273 -1.6495  0.0745 -1.8628
   25MOL0     H 3359   2.441  10.592   6.803 -0.1353 -4.6307  2.0437
   25MOL0     H 3360   2.392  10.533   6.580 -0.4678 -0.8027  0.3874
   25MOL0     H 3361   2.338   9.812   7.129  0.1119  0.9703 -3.2498
   25MOL0     H 3362   2.429   9.628   7.244  0.9242  0.0333 -0.7528
   25MOL0     H 3363   2.765   9.334   7.249 -1.2910  1.7776 -0.6947
   25MOL0     H 3364   2.787   9.098   7.309 -2.0696 -1.3417  0.9888
   25MOL0     H 3365   2.638   8.801   7.623 -0.6388 -0.6159  2.0619
   25MOL0     H 3366   2.623   8.959   7.700  3.3855  0.5401 -1.5830
   25MOL0     H 3367   2.436   8.864   7.474  2.1217 -1.3268  1.1587
   25MOL0     H 3368   2.418   9.010   7.570 -0.1987  0.4667 -4.0467
   25MOL0     H 3369   2.359   8.722   7.651  1.2603  0.0830  0.3259
   25MOL0     H 3370   2.236   8.848   7.611 -0.8841 -0.0616  0.7398
   25MOL0     H 3371   2.252   8.798   7.847  0.4159 -1.8518 -2.3455
   25MOL0     H 3372   2.278   8.964   7.817 -0.2274  0.6742 -3.5356
   25MOL0     H 3373   2.602   8.871   8.069 -0.0965  1.0554 -1.2686
   25MOL0     H 3374   2.548   9.162   7.656  0.2184 -0.0504 -0.2101
   25MOL0     H 3375   2.543   9.403   7.614  0.7747  0.6041  0.1756
   26MOL0     O 3376   6.324  11.250   6.510  0.0941 -0.3670 -0.5000
   26MOL0     C 3377   6.422  11.180   6.552  0.0850  0.0068  0.5113
   26MOL0     O 3378   6.557  11.196   6.507 -0.1703 -1.5584 -0.1809
   26MOL0     C 3379   6.595  11.286   6.411  1.1451 -0.1160  0.1841
   26MOL0     C 3380   6.597  11.257   6.272 -0.2439  0.2418 -0.4391
   26MOL0     C 3381   6.627  11.346   6.173 -0.0031  0.4104  0.3249
   26MOL0     C 3382   6.655  11.473   6.202 -0.1512 -0.6113 -0.4205
   26MOL0     O 3383   6.684  11.567   6.100  0.2988 -0.0853  0.0500
   26MOL0     C 3384   6.789  11.666   6.123 -0.0330  0.1634  0.4028
   26MOL0     C 3385   6.915  11.615   6.068 -0.4022  0.5034 -0.2910
   26MOL0     C 3386   6.915  11.598   5.918 -0.1301  0.7010  0.0713
   26MOL0     C 3387   6.945  11.725   5.844 -0.2786  0.0191  0.6126
   26MOL0     C 3388   6.964  11.696   5.692  0.0662  0.3673  0.5489
   26MOL0     C 3389   6.973  11.835   5.623 -0.3267  0.8065 -0.0571
   26MOL0     C 3390   7.007  11.817   5.475  0.6056  0.3747  0.4030
   26MOL0     C 3391   6.931  11.696   5.409 -0.4494 -0.6127  0.1001
   26MOL0     N 3392   6.950  11.709   5.267  0.3449 -0.4958 -0.0942
   26MOL0     C 3393   6.854  11.693   5.169 -0.8057  1.0408 -0.2346
   26MOL0     C 3394   6.915  11.692   5.049  1.3547 -0.1833 -0.0281
   26MOL0     C 3395   6.853  11.663   4.912  0.6949  0.0814  0.0094
   26MOL0     C 3396   6.920  11.536   4.854  0.3967 -0.2467  0.4599
   26MOL0     C 3397   6.840  11.490   4.732  0.4837  0.5623  0.2153
   26MOL0     C 3398   6.736  11.381   4.774 -0.8992 -0.4158 -0.0983
   26MOL0     O 3399   6.670  11.337   4.661  0.1895 -0.0737  0.2962
   26MOL0     C 3400   6.691  11.211   4.616 -0.8307  0.1008 -0.6868
   26MOL0     C 3401   6.582  11.134   4.585 -0.6189  0.5883  0.5134
   26MOL0     C 3402   6.591  10.993   4.570 -0.1944  0.9654  0.3832
   26MOL0     C 3403   6.462  10.913   4.551 -0.0058 -0.5683 -0.8433
   26MOL0     C 3404   6.719  10.931   4.574 -0.5255  0.3610  0.1664
   26MOL0     C 3405   6.748  10.787   4.567 -0.1121 -0.1782 -0.3373
   26MOL0     O 3406   6.638  10.717   4.606 -0.1018 -0.4662 -0.4852
   26MOL0     C 3407   6.653  10.584   4.599 -0.0058 -1.2022 -0.1805
   26MOL0     C 3408   6.730  10.508   4.691 -0.1837  0.2276 -0.6433
   26MOL0     C 3409   6.711  10.366   4.703 -0.4749 -0.1538 -0.5193
   26MOL0     C 3410   6.615  10.298   4.628  0.4855  0.3103  0.1836
   26MOL0     O 3411   6.579  10.167   4.633  0.9195  0.0921 -0.0812
   26MOL0     C 3412   6.633  10.087   4.732  0.2869  0.1600  1.1100
   26MOL0     C 3413   6.593   9.941   4.706  0.2403 -0.2391 -0.2561
   26MOL0     C 3414   6.448   9.904   4.749 -0.4528  0.2915  0.3201
   26MOL0     C 3415   6.436   9.756   4.705 -0.3327  0.3711 -0.0125
   26MOL0     C 3416   6.305   9.697   4.766 -0.9455 -0.2469  0.6627
   26MOL0     C 3417   6.184   9.790   4.732 -0.1088 -0.5398  0.2510
   26MOL0     C 3418   6.053   9.735   4.793  0.0648  0.2879 -0.6843
   26MOL0     C 3419   5.935   9.806   4.725  0.0436 -0.1754 -0.8363
   26MOL0    Cl 3420   5.939   9.986   4.716 -0.0237  0.0701  0.2713
   26MOL0     C 3421   6.539  10.371   4.539  0.1418 -0.1527  0.2982
   26MOL0     C 3422   6.556  10.509   4.525 -0.0922  0.0161 -0.3922
   26MOL0     O 3423   6.857  10.734   4.544  0.3494  0.7560  0.0143
   26MOL0     C 3424   6.835  11.018   4.587  0.0366 -0.7724 -0.1945
   26MOL0     C 3425   6.815  11.155   4.616 -0.7016  0.6716 -0.7901
   26MOL0     N 3426   7.046  11.743   5.064  0.2854  0.0408 -0.2266
   26MOL0     N 3427   7.054  11.754   5.189 -0.7353  0.4286 -0.2560
   26MOL0     C 3428   6.674  11.509   6.342 -0.6295  0.7010 -0.2479
   26MOL0     C 3429   6.627  11.417   6.441 -0.1703 -0.1496 -0.0249
   26MOL0     C 3430   6.385  11.102   6.668 -0.6700  0.5127 -0.5272
   26MOL0     C 3431   6.258  11.082   6.719 -0.4186  1.2190  0.7739
   26MOL0     C 3432   6.249  11.002   6.833 -0.5024  0.3377  0.3408
   26MOL0     C 3433   6.359  10.951   6.900  1.1631  0.3614 -0.3616
   26MOL0     O 3434   6.320  10.873   7.004  0.4129 -0.4330 -0.7346
   26MOL0     C 3435   6.414  10.821   7.096  0.0849  0.1652 -0.3287
   26MOL0     C 3436   6.332  10.729   7.190 -0.6028 -1.3069 -0.3270
   26MOL0     C 3437   6.410  10.674   7.308  0.2518 -0.0659 -0.3737
   26MOL0     C 3438   6.440  10.783   7.413  0.0085 -0.2274  0.0035
   26MOL0     C 3439   6.319  10.849   7.459 -0.0549 -0.0827  0.2476
   26MOL0     C 3440   6.223  10.906   7.502 -0.6565 -0.8547 -0.0238
   26MOL0     C 3441   6.484  10.983   6.862 -0.2222  0.0771  1.1859
   26MOL0     C 3442   6.498  11.053   6.736 -0.3062  1.2338 -0.3656
   26MOL0     H 3443   6.582  11.150   6.257 -0.7496 -0.9800  5.8094
   26MOL0     H 3444   6.630  11.316   6.069  1.3202 -1.1222  0.7452
   26MOL0     H 3445   6.765  11.761   6.074 -0.5609  0.5462  1.3786
   26MOL0     H 3446   6.801  11.696   6.228  0.5374  0.2140  0.3261
   26MOL0     H 3447   7.002  11.677   6.091  0.0282  0.0054 -0.5575
   26MOL0     H 3448   6.939  11.523   6.123 -0.3834  2.1200  2.5728
   26MOL0     H 3449   6.981  11.515   5.892  0.8127  1.6510 -0.6428
   26MOL0     H 3450   6.812  11.564   5.908  0.4713 -0.6669 -2.0504
   26MOL0     H 3451   6.874  11.805   5.866  3.3258  3.3136  1.3650
   26MOL0     H 3452   7.035  11.766   5.892 -0.7945  0.1535  1.4829
   26MOL0     H 3453   7.058  11.642   5.675 -0.3706 -0.6907  1.3982
   26MOL0     H 3454   6.879  11.634   5.662  0.8680 -1.9667  2.7389
   26MOL0     H 3455   6.873  11.875   5.636 -1.9425 -2.0759 -2.2683
   26MOL0     H 3456   7.054  11.888   5.675 -0.9435  1.6415  0.0671
   26MOL0     H 3457   6.979  11.908   5.421 -1.5354 -1.7297 -2.3447
   26MOL0     H 3458   7.116  11.811   5.466  0.5912  1.8432 -1.6991
   26MOL0     H 3459   6.825  11.707   5.433 -0.0303  2.0270  1.0291
   26MOL0     H 3460   6.984  11.604   5.435  3.8064  1.0173 -1.9394
   26MOL0     H 3461   6.749  11.674   5.188 -0.6309 -0.6721 -0.8054
   26MOL0     H 3462   6.748  11.636   4.927  0.1742  1.9647 -0.0108
   26MOL0     H 3463   6.871  11.751   4.850 -2.5096 -0.5762 -2.0871
   26MOL0     H 3464   6.913  11.457   4.929  1.6433 -0.3668  0.4583
   26MOL0     H 3465   7.024  11.551   4.825  0.0125  2.2061  0.1150
   26MOL0     H 3466   6.913  11.441   4.667  1.6240  0.5497  1.4623
   26MOL0     H 3467   6.786  11.569   4.678  0.4496 -1.5452 -3.1533
   26MOL0     H 3468   6.670  11.428   4.848  0.8860  2.6273 -0.2573
   26MOL0     H 3469   6.800  11.306   4.821  0.2805  1.3140  1.1777
   26MOL0     H 3470   6.495  11.199   4.575  0.3020  1.4914 -2.9664
   26MOL0     H 3471   6.454  10.836   4.629  0.5259 -2.0795 -2.2216
   26MOL0     H 3472   6.385  10.988   4.573 -0.6976 -1.1374 -1.2896
   26MOL0     H 3473   6.440  10.875   4.451 -0.1146 -0.5662 -0.8206
   26MOL0     H 3474   6.791  10.568   4.758  1.5048  0.9783 -2.7724
   26MOL0     H 3475   6.756  10.321   4.790 -0.2493  0.8803 -0.0906
   26MOL0     H 3476   6.741  10.101   4.730  0.1036  1.9826  1.7552
   26MOL0     H 3477   6.596  10.105   4.833  0.8511  0.5380  1.2541
   26MOL0     H 3478   6.619   9.909   4.604  3.0996 -0.9125  0.6000
   26MOL0     H 3479   6.656   9.876   4.767 -0.9266  1.6352  3.2350
   26MOL0     H 3480   6.374   9.969   4.702 -1.1675 -1.0674 -0.5201
   26MOL0     H 3481   6.441   9.916   4.857 -1.1299 -1.3650  0.4927
   26MOL0     H 3482   6.434   9.745   4.596  2.4863 -0.7077 -0.0355
   26MOL0     H 3483   6.513   9.695   4.754 -2.4529 -2.4307  0.1228
   26MOL0     H 3484   6.314   9.682   4.874 -0.1052 -3.0976  0.2811
   26MOL0     H 3485   6.286   9.594   4.736  0.3693 -1.7915  4.5019
   26MOL0     H 3486   6.193   9.893   4.766 -4.0077  0.8174 -2.1662
   26MOL0     H 3487   6.173   9.795   4.623 -3.1982 -3.1464  0.2729
   26MOL0     H 3488   6.041   9.756   4.899 -0.2293  2.3243 -1.0842
   26MOL0     H 3489   6.037   9.629   4.769 -2.5363  0.6519 -0.8372
   26MOL0     H 3490   5.846   9.775   4.781 -1.7169  1.0065 -2.8699
   26MOL0     H 3491   5.916   9.772   4.623 -2.4920  0.2394 -0.5568
   26MOL0     H 3492   6.463  10.314   4.487  2.0461 -0.5562 -2.2043
   26MOL0     H 3493   6.485  10.562   4.463  0.2833  1.1878  0.1421
   26MOL0     H 3494   6.935  10.976   4.583 -0.5643 -2.1591 -1.9552
   26MOL0     H 3495   6.908  11.207   4.636  0.6216 -2.3333  1.5896
   26MOL0     H 3496   6.711  11.606   6.374  1.5835 -1.2732  4.0779
   26MOL0     H 3497   6.628  11.452   6.543 -0.1489 -1.9806  0.6307
   26MOL0     H 3498   6.172  11.126   6.671  0.5013 -2.1327 -4.8212
   26MOL0     H 3499   6.150  10.985   6.874 -0.6480  0.1293 -0.0889
   26MOL0     H 3500   6.493  10.767   7.044  0.8932  2.0712 -1.2022
   26MOL0     H 3501   6.457  10.897   7.163 -0.1843 -0.3236  0.4153
   26MOL0     H 3502   6.296  10.643   7.133  1.5052 -0.7049 -2.7683
   26MOL0     H 3503   6.247  10.779   7.238  1.9631  4.0567 -0.5854
   26MOL0     H 3504   6.504  10.623   7.284  1.6626  2.6170 -0.9475
   26MOL0     H 3505   6.344  10.594   7.344 -0.3614  0.5971  0.0013
   26MOL0     H 3506   6.508  10.856   7.369 -3.0556  3.5262  0.9540
   26MOL0     H 3507   6.487  10.733   7.498  0.5106 -1.4304 -0.9536
   26MOL0     H 3508   6.138  10.966   7.528  0.6404  0.1321  2.1510
   26MOL0     H 3509   6.579  10.962   6.909  0.6753  1.2157 -0.0162
   26MOL0     H 3510   6.601  11.076   6.709 -0.4516  0.2546 -1.8845
   27MOL0     O 3511   9.726   3.568   8.792 -0.1268  0.2368 -0.3849
   27MOL0     C 3512   9.753   3.489   8.695  0.2241 -0.3393  0.5252
   27MOL0     O 3513   9.773   3.527   8.565  0.4036  0.7397 -0.5252
   27MOL0     C 3514   9.767   3.656   8.539  0.6356 -0.5849 -1.0668
   27MOL0     C 3515   9.857   3.753   8.580 -0.4747 -0.8209 -0.3187
   27MOL0     C 3516   9.844   3.884   8.533  0.4761  0.2487  0.9340
   27MOL0     C 3517   9.737   3.921   8.448 -0.3862 -0.8178 -0.0587
   27MOL0     O 3518   9.717   4.049   8.399  0.1936 -0.6970 -0.1974
   27MOL0     C 3519   9.820   4.147   8.409 -0.6949  0.6747  0.9671
   27MOL0     C 3520   9.810   4.240   8.290 -0.2143 -0.1751 -0.4925
   27MOL0     C 3521   9.931   4.340   8.290  0.3766  0.7458  0.5248
   27MOL0     C 3522  10.054   4.259   8.231 -0.3192  0.1225  0.1062
   27MOL0     C 3523  10.187   4.344   8.253  0.4370 -0.5205 -0.6334
   27MOL0     C 3524  10.290   4.273   8.169 -0.2457 -0.3778 -0.0307
   27MOL0     C 3525  10.411   4.360   8.141  0.3929  0.3209 -1.2424
   27MOL0     C 3526  10.509   4.304   8.041 -0.0252 -0.2801 -1.1883
   27MOL0     N 3527  10.466   4.285   7.904  0.5470  0.9738  0.2523
   27MOL0     C 3528  10.422   4.374   7.814 -1.7974  0.0500  0.4456
   27MOL0     C 3529  10.403   4.308   7.702 -0.2771  0.6138 -0.2225
   27MOL0     C 3530  10.391   4.361   7.561 -0.4420 -0.7351 -0.3364
   27MOL0     C 3531  10.245   4.374   7.506  0.0117 -0.5037  0.0621
   27MOL0     C 3532  10.131   4.408   7.604 -0.8696  0.6385  0.4157
   27MOL0     C 3533  10.035   4.507   7.539  0.0699  0.0428 -0.2845
   27MOL0     O 3534   9.988   4.461   7.414  0.2579  0.4481 -0.3839
   27MOL0     C 3535   9.885   4.372   7.411  0.5111  0.7471 -0.9289
   27MOL0     C 3536   9.860   4.306   7.287  0.4246 -0.1522 -0.5158
   27MOL0     C 3537   9.761   4.218   7.269 -0.1044 -0.2378  1.1787
   27MOL0     C 3538   9.759   4.153   7.133 -0.6154  0.0517  0.2271
   27MOL0     C 3539   9.673   4.187   7.378  0.1067 -0.1639 -0.1494
   27MOL0     C 3540   9.562   4.081   7.366 -0.5316 -0.3175  0.0390
   27MOL0     O 3541   9.525   4.019   7.480  0.1757 -0.3139  0.3056
   27MOL0     C 3542   9.407   3.951   7.458 -0.1250 -0.2175 -0.0511
   27MOL0     C 3543   9.409   3.812   7.446  0.5451 -0.6284 -0.2590
   27MOL0     C 3544   9.292   3.738   7.425 -0.4012  0.3093 -0.0274
   27MOL0     C 3545   9.172   3.803   7.424 -0.7122  0.1794 -0.5762
   27MOL0     O 3546   9.058   3.746   7.397 -0.4986  1.1427 -0.4275
   27MOL0     C 3547   9.033   3.678   7.274 -0.9060  0.0491  0.4162
   27MOL0     C 3548   8.905   3.602   7.279 -0.5176 -0.4127  0.1235
   27MOL0     C 3549   8.912   3.483   7.374  0.2052  0.6798 -0.0868
   27MOL0     C 3550   8.796   3.388   7.345 -0.2341  0.2255  1.5335
   27MOL0     C 3551   8.788   3.287   7.457  0.0984  0.4890 -0.6491
   27MOL0     C 3552   8.728   3.150   7.424  0.3534 -0.4580  0.7530
   27MOL0     C 3553   8.641   3.095   7.536 -0.5028 -0.4260 -0.3930
   27MOL0     C 3554   8.702   3.100   7.678 -0.5673 -0.5417 -0.1436
   27MOL0    Cl 3555   8.596   3.000   7.779  0.0195 -0.4022  0.1155
   27MOL0     C 3556   9.167   3.942   7.455 -0.5121  0.7176 -0.1187
   27MOL0     C 3557   9.283   4.015   7.462 -0.3137  0.4075  0.5342
   27MOL0     O 3558   9.495   4.091   7.264 -0.3216  0.3231  1.3665
   27MOL0     C 3559   9.684   4.254   7.506 -0.4514 -0.0351  0.6296
   27MOL0     C 3560   9.797   4.342   7.518  0.1387 -0.4096  0.3649
   27MOL0     N 3561  10.423   4.171   7.728  0.0701 -0.3978  0.1694
   27MOL0     N 3562  10.462   4.160   7.847  0.2977 -0.2363 -0.6687
   27MOL0     C 3563   9.637   3.828   8.409 -0.0952  0.2048 -0.9155
   27MOL0     C 3564   9.658   3.699   8.466  1.2555 -0.0306 -0.2770
   27MOL0     C 3565   9.753   3.343   8.723  0.6953 -0.0280 -0.0240
   27MOL0     C 3566   9.795   3.299   8.851 -0.1302  0.4135  0.8943
   27MOL0     C 3567   9.817   3.160   8.861  0.4124  0.1408 -0.1799
   27MOL0     C 3568   9.790   3.071   8.756  0.7496  0.2746  0.3365
   27MOL0     O 3569   9.795   2.933   8.762  0.0171  0.0572  0.5861
   27MOL0     C 3570   9.839   2.876   8.885  0.1824  0.8394 -0.2207
   27MOL0     C 3571   9.992   2.891   8.903  0.0581  0.1470 -0.3882
   27MOL0     C 3572  10.070   2.840   8.783  0.9192  1.0360  0.3090
   27MOL0     C 3573  10.118   2.698   8.800  1.1900  0.0371  0.3611
   27MOL0     C 3574  10.198   2.652   8.681 -0.3333  0.5316 -0.6626
   27MOL0     C 3575  10.268   2.622   8.598  0.1049 -0.0726  0.5724
   27MOL0     C 3576   9.739   3.119   8.640 -0.3571  0.5354 -0.1296
   27MOL0     C 3577   9.721   3.254   8.621 -0.3766 -0.0463  0.0165
   27MOL0     H 3578   9.943   3.730   8.642  0.0315  0.0500 -0.6826
   27MOL0     H 3579   9.922   3.950   8.570  2.0461  0.1415 -1.9328
   27MOL0     H 3580   9.803   4.208   8.498  0.2462  0.9165  0.9850
   27MOL0     H 3581   9.916   4.095   8.404 -1.1395 -0.2481 -4.1737
   27MOL0     H 3582   9.806   4.182   8.198  1.2843  1.0467 -1.3864
   27MOL0     H 3583   9.718   4.300   8.299  1.8897  3.1919  0.3580
   27MOL0     H 3584   9.910   4.436   8.242 -0.2242  0.1637 -0.3974
   27MOL0     H 3585   9.939   4.377   8.393 -1.7280  1.0170  0.6403
   27MOL0     H 3586  10.073   4.166   8.285  1.0632  0.9357  1.0825
   27MOL0     H 3587  10.034   4.234   8.127 -0.3392  1.4111 -0.2220
   27MOL0     H 3588  10.164   4.446   8.222 -2.4237 -1.1216 -0.7801
   27MOL0     H 3589  10.217   4.336   8.358 -0.5428 -0.3866 -0.3385
   27MOL0     H 3590  10.325   4.181   8.217  0.4321 -0.8412 -1.3518
   27MOL0     H 3591  10.240   4.249   8.075 -2.4463 -0.8746  1.2003
   27MOL0     H 3592  10.373   4.457   8.107  0.7727 -0.2467 -3.4376
   27MOL0     H 3593  10.460   4.373   8.238 -1.2160 -1.4058 -0.1455
   27MOL0     H 3594  10.559   4.214   8.077  0.0628 -0.5314 -1.9362
   27MOL0     H 3595  10.590   4.377   8.035 -0.8433  0.6928 -0.7221
   27MOL0     H 3596  10.432   4.482   7.817  0.5817 -0.0500 -1.0324
   27MOL0     H 3597  10.446   4.451   7.533  0.0223 -0.7764  0.3956
   27MOL0     H 3598  10.432   4.278   7.502 -0.7123  0.5377 -2.4030
   27MOL0     H 3599  10.216   4.278   7.465 -2.6059 -0.6685  2.0518
   27MOL0     H 3600  10.245   4.440   7.419  1.2800 -3.1968 -2.1625
   27MOL0     H 3601  10.174   4.455   7.693 -2.0055  0.6415  0.9704
   27MOL0     H 3602  10.078   4.314   7.623  2.3807 -1.7537 -1.1520
   27MOL0     H 3603  10.083   4.602   7.514  0.5311  0.7416  2.7830
   27MOL0     H 3604   9.955   4.523   7.612 -1.0711 -0.9765 -1.2706
   27MOL0     H 3605   9.924   4.337   7.205  0.1477 -0.5431 -0.8818
   27MOL0     H 3606   9.664   4.183   7.089 -0.6841  2.0395  1.6055
   27MOL0     H 3607   9.839   4.189   7.068  0.0761  1.8644  1.9654
   27MOL0     H 3608   9.766   4.044   7.135  0.7931  0.1237  0.5599
   27MOL0     H 3609   9.512   3.778   7.442  1.7604  2.7307 -2.5387
   27MOL0     H 3610   9.301   3.632   7.403 -0.4662  0.7251 -2.3763
   27MOL0     H 3611   9.016   3.752   7.195 -1.6768 -1.0598 -0.4757
   27MOL0     H 3612   9.106   3.604   7.240  0.3075  0.0469  2.8145
   27MOL0     H 3613   8.823   3.671   7.303 -0.6134  0.3402 -2.0900
   27MOL0     H 3614   8.887   3.564   7.178  1.7930  1.2274 -0.9850
   27MOL0     H 3615   8.909   3.532   7.472 -0.4106  3.1945 -1.2838
   27MOL0     H 3616   9.003   3.423   7.367 -0.3690 -0.0174 -4.4014
   27MOL0     H 3617   8.701   3.442   7.352 -0.3899  0.4108 -1.0311
   27MOL0     H 3618   8.810   3.339   7.248  0.6722  0.9689  1.2800
   27MOL0     H 3619   8.721   3.335   7.528  0.0719 -1.1593  0.4843
   27MOL0     H 3620   8.880   3.280   7.516 -1.3287 -1.1153  1.5193
   27MOL0     H 3621   8.659   3.163   7.340  1.0477 -0.7520  0.1323
   27MOL0     H 3622   8.797   3.071   7.395  1.5201 -0.1076  2.4462
   27MOL0     H 3623   8.626   2.989   7.511 -2.6302 -0.7036  1.7072
   27MOL0     H 3624   8.548   3.152   7.543  0.1442  0.8674 -1.7528
   27MOL0     H 3625   8.717   3.201   7.716 -2.5307 -0.0484 -0.5694
   27MOL0     H 3626   8.803   3.058   7.681  1.1553  3.1941  1.7017
   27MOL0     H 3627   9.071   3.992   7.465 -1.4643 -0.4116 -2.6369
   27MOL0     H 3628   9.271   4.122   7.477 -0.6103  0.5702 -0.7299
   27MOL0     H 3629   9.606   4.242   7.581 -0.7116 -0.4434  0.3035
   27MOL0     H 3630   9.803   4.383   7.618 -2.5358  1.0436  0.0412
   27MOL0     H 3631   9.552   3.835   8.342 -0.9444 -2.4350 -0.2581
   27MOL0     H 3632   9.580   3.632   8.432 -0.2945  1.0952  0.8759
   27MOL0     H 3633   9.839   3.365   8.925  1.5840 -2.4813  2.6345
   27MOL0     H 3634   9.845   3.131   8.961 -3.1619 -2.6809  0.2161
   27MOL0     H 3635   9.789   2.930   8.966  1.0081  0.7198  0.3744
   27MOL0     H 3636   9.813   2.770   8.890  2.1120  0.2290 -1.8765
   27MOL0     H 3637  10.027   2.835   8.991  1.8565 -1.5108 -2.0418
   27MOL0     H 3638  10.011   2.998   8.916  0.8949 -0.1400  0.9224
   27MOL0     H 3639  10.159   2.903   8.773  1.3012  0.4458 -0.0718
   27MOL0     H 3640  10.009   2.837   8.692  0.2823  0.1225  0.7571
   27MOL0     H 3641  10.028   2.636   8.806 -0.4399  2.3678  1.3710
   27MOL0     H 3642  10.186   2.711   8.884  1.7028  2.4334 -0.3618
   27MOL0     H 3643  10.338   2.626   8.517  1.1323 -1.3685  1.3502
   27MOL0     H 3644   9.713   3.046   8.565  0.1556 -0.1713  0.3669
   27MOL0     H 3645   9.686   3.289   8.525  1.1896  0.9199 -0.2462
   28MOL0     O 3646   8.686  11.397   7.060  0.6974 -0.0957  0.6241
   28MOL0     C 3647   8.613  11.360   7.149 -0.2788  0.8933 -0.0046
   28MOL0     O 3648   8.564  11.440   7.251  0.2297  0.7538 -0.0926
   28MOL0     C 3649   8.606  11.573   7.246 -0.3821 -0.0824  0.0996
   28MOL0     C 3650   8.587  11.664   7.151  0.7829 -0.1435  0.8146
   28MOL0     C 3651   8.638  11.793   7.160 -0.2095 -0.2090 -1.3108
   28MOL0     C 3652   8.700  11.834   7.280  0.6638  0.0894 -0.8489
   28MOL0     O 3653   8.751  11.960   7.280 -0.1344 -0.4223 -0.5046
   28MOL0     C 3654   8.891  11.985   7.318  0.1270  0.0475  0.3114
   28MOL0     C 3655   8.963  12.071   7.216 -0.3379  0.1557  0.0646
   28MOL0     C 3656   8.873  12.199   7.189 -0.2013  0.0483  1.1119
   28MOL0     C 3657   8.944  12.315   7.112  0.2337  0.6799 -0.4824
   28MOL0     C 3658   8.873  12.444   7.121  0.6720  0.7051  0.5712
   28MOL0     C 3659   8.943  12.555   7.036  0.4240  0.3805 -0.2056
   28MOL0     C 3660   8.893  12.682   7.083 -0.0869  0.5979 -0.4596
   28MOL0     C 3661   8.954  12.803   7.013  0.1676  0.4246 -0.6730
   28MOL0     N 3662   8.966  12.786   6.869  0.3553  0.0498  0.2209
   28MOL0     C 3663   8.863  12.812   6.782 -0.6629 -0.7162 -0.1911
   28MOL0     C 3664   8.897  12.769   6.662 -0.1239  0.1686 -0.8621
   28MOL0     C 3665   8.815  12.775   6.538 -0.0414 -0.3947  0.3151
   28MOL0     C 3666   8.724  12.652   6.534 -0.0095 -1.3421 -0.5054
   28MOL0     C 3667   8.616  12.658   6.424  1.1770 -0.6192 -0.8975
   28MOL0     C 3668   8.665  12.583   6.305 -0.0536 -1.2373 -0.2627
   28MOL0     O 3669   8.785  12.642   6.244  0.6012  1.0476 -1.0433
   28MOL0     C 3670   8.856  12.567   6.159 -0.6587  0.0801 -0.6634
   28MOL0     C 3671   8.844  12.441   6.122  0.7220 -0.3829  0.1784
   28MOL0     C 3672   8.944  12.372   6.050 -0.3191 -0.1137  0.0394
   28MOL0     C 3673   8.931  12.218   6.038 -0.1693 -0.2497  0.3075
   28MOL0     C 3674   9.060  12.452   6.008 -0.6708 -0.3216  1.2616
   28MOL0     C 3675   9.160  12.412   5.907  0.0966  0.0506 -0.5172
   28MOL0     O 3676   9.257  12.511   5.883  0.0101  0.1698  0.1388
   28MOL0     C 3677   9.354  12.473   5.795  0.1867  0.0536  0.0955
   28MOL0     C 3678   9.313  12.437   5.658 -0.7590 -0.8010 -0.8678
   28MOL0     C 3679   9.410  12.421   5.557 -0.1060  0.0683  0.1098
   28MOL0     C 3680   9.544  12.439   5.587 -0.4558 -0.2009  0.2323
   28MOL0     O 3681   9.627  12.426   5.487  0.1031  0.0643 -0.0331
   28MOL0     C 3682   9.683  12.543   5.439  0.9743 -0.5210 -0.2378
   28MOL0     C 3683   9.673  12.549   5.289 -0.3882  0.4809  1.3373
   28MOL0     C 3684   9.730  12.422   5.231 -0.3249 -0.5420 -0.4814
   28MOL0     C 3685   9.752  12.439   5.077  0.9239 -0.8311  0.2440
   28MOL0     C 3686   9.624  12.492   5.000  0.0470  0.7665 -0.0643
   28MOL0     C 3687   9.632  12.471   4.851 -0.5167 -0.1872  0.1963
   28MOL0     C 3688   9.731  12.576   4.788  0.0507  0.0030  0.4119
   28MOL0     C 3689   9.732  12.562   4.632  0.0078 -0.5006 -0.1056
   28MOL0    Cl 3690   9.800  12.408   4.579  0.0498  0.1898 -0.1871
   28MOL0     C 3691   9.588  12.474   5.718 -0.6168  0.1934  0.1058
   28MOL0     C 3692   9.491  12.496   5.818 -1.2144  1.1342  0.1839
   28MOL0     O 3693   9.153  12.302   5.868 -0.1180  0.0905 -0.0262
   28MOL0     C 3694   9.073  12.585   6.058 -0.4541  0.3621  0.8008
   28MOL0     C 3695   8.973  12.636   6.134 -0.4476 -0.8031  0.9118
   28MOL0     N 3696   9.034  12.728   6.674  0.1684  0.0175  0.2738
   28MOL0     N 3697   9.076  12.741   6.797  0.2109  0.0071 -0.0799
   28MOL0     C 3698   8.715  11.735   7.384 -0.5417 -0.2803  0.5306
   28MOL0     C 3699   8.665  11.612   7.365  0.8588  0.4467  0.4862
   28MOL0     C 3700   8.599  11.214   7.171 -0.0458  0.3905 -0.2912
   28MOL0     C 3701   8.562  11.169   7.300 -0.3548 -0.4095  0.5157
   28MOL0     C 3702   8.538  11.027   7.326  0.5251  0.2885 -0.5515
   28MOL0     C 3703   8.557  10.930   7.226 -0.5650  0.1135 -0.6871
   28MOL0     O 3704   8.523  10.805   7.266  0.7088  0.9686  0.6595
   28MOL0     C 3705   8.542  10.689   7.184  0.3456 -0.1598 -0.0893
   28MOL0     C 3706   8.425  10.672   7.103  0.5941 -0.9256 -0.5911
   28MOL0     C 3707   8.293  10.663   7.192 -0.7439 -0.5866  0.2887
   28MOL0     C 3708   8.297  10.541   7.278 -0.4625 -0.3920  0.4718
   28MOL0     C 3709   8.156  10.525   7.338  0.0934 -0.0582  0.8173
   28MOL0     C 3710   8.049  10.511   7.394  0.0993  0.4079  0.6536
   28MOL0     C 3711   8.626  10.973   7.109 -1.0494 -1.1519 -0.9659
   28MOL0     C 3712   8.641  11.113   7.077 -0.3265  0.0348  0.1146
   28MOL0     H 3713   8.538  11.639   7.057 -0.7453  0.3888  1.4271
   28MOL0     H 3714   8.620  11.860   7.076  1.2360  0.6126 -1.0040
   28MOL0     H 3715   8.909  12.043   7.408  1.6715  0.1350 -0.0196
   28MOL0     H 3716   8.936  11.889   7.344 -1.8671 -0.2777  2.9274
   28MOL0     H 3717   9.063  12.105   7.241 -1.3155  2.4798  1.1275
   28MOL0     H 3718   8.967  12.004   7.129  0.1147 -1.0229  0.9551
   28MOL0     H 3719   8.783  12.161   7.138  1.6755 -1.1895 -1.4949
   28MOL0     H 3720   8.831  12.246   7.279 -0.9672 -3.5612  2.8276
   28MOL0     H 3721   9.043  12.327   7.158 -1.2137  3.5256  2.2830
   28MOL0     H 3722   8.964  12.300   7.006  1.4387  0.2358 -0.2099
   28MOL0     H 3723   8.772  12.430   7.081  1.3869 -0.2295 -0.9950
   28MOL0     H 3724   8.856  12.468   7.226 -1.7355 -0.6025  0.5672
   28MOL0     H 3725   9.052  12.546   7.044  0.3122 -2.2795 -1.0042
   28MOL0     H 3726   8.922  12.522   6.934 -0.0486 -0.9994  0.3287
   28MOL0     H 3727   8.787  12.698   7.057 -0.3670 -0.8268 -0.3118
   28MOL0     H 3728   8.916  12.691   7.189  2.4026  1.0109 -0.9882
   28MOL0     H 3729   9.055  12.820   7.052 -0.8588  0.2659  2.2850
   28MOL0     H 3730   8.901  12.895   7.038  0.7155  0.1262  1.8253
   28MOL0     H 3731   8.774  12.860   6.821 -1.1945 -1.0414 -0.9675
   28MOL0     H 3732   8.746  12.860   6.537 -1.2571 -1.3407  0.9885
   28MOL0     H 3733   8.873  12.786   6.445 -3.8226 -0.8930 -2.3378
   28MOL0     H 3734   8.677  12.651   6.633 -0.1926  2.3759 -0.3948
   28MOL0     H 3735   8.790  12.566   6.529 -0.8109 -2.1842  2.0537
   28MOL0     H 3736   8.586  12.760   6.397 -1.8460 -0.8925  0.9629
   28MOL0     H 3737   8.521  12.613   6.455  0.1712  0.3354 -2.4671
   28MOL0     H 3738   8.588  12.597   6.229  2.6998  3.7714 -2.5694
   28MOL0     H 3739   8.683  12.477   6.328  1.7596 -1.2066 -1.4023
   28MOL0     H 3740   8.758  12.382   6.153  2.5270 -2.6574  1.1640
   28MOL0     H 3741   8.858  12.183   6.113 -0.9267 -1.5448 -0.9821
   28MOL0     H 3742   8.907  12.193   5.935  1.1083 -0.5168  0.0608
   28MOL0     H 3743   9.024  12.170   6.070 -0.9948 -1.7787  0.4952
   28MOL0     H 3744   9.208  12.419   5.637 -1.3514 -1.1916  1.9437
   28MOL0     H 3745   9.391  12.410   5.450 -0.7573  1.8409  0.0167
   28MOL0     H 3746   9.630  12.630   5.478 -2.8425 -2.0110 -1.6262
   28MOL0     H 3747   9.791  12.549   5.457  0.9657 -3.2408  1.2011
   28MOL0     H 3748   9.573  12.567   5.249  0.3397 -1.2850 -1.5517
   28MOL0     H 3749   9.741  12.631   5.263 -1.0383 -0.2178 -3.4493
   28MOL0     H 3750   9.671  12.334   5.260  1.0290 -1.5332 -0.6278
   28MOL0     H 3751   9.835  12.406   5.257  0.0517  2.4545  0.1727
   28MOL0     H 3752   9.834  12.509   5.058  1.0119 -0.9312  0.2537
   28MOL0     H 3753   9.781  12.340   5.041 -1.3442 -0.5262 -2.8090
   28MOL0     H 3754   9.618  12.601   5.007 -0.2679  0.7948 -0.6965
   28MOL0     H 3755   9.530  12.450   5.035 -0.5357  3.3843  1.8385
   28MOL0     H 3756   9.664  12.370   4.824 -0.1469 -0.2804  0.9446
   28MOL0     H 3757   9.529  12.482   4.815 -1.5304  0.1502  2.8919
   28MOL0     H 3758   9.831  12.565   4.832 -0.6134  0.4448  2.0782
   28MOL0     H 3759   9.711  12.682   4.805  2.9442  0.8382 -0.6924
   28MOL0     H 3760   9.781  12.650   4.591 -1.3674  0.9241  1.1828
   28MOL0     H 3761   9.633  12.570   4.587  0.6294 -0.7115 -1.5743
   28MOL0     H 3762   9.694  12.488   5.734 -0.2992 -0.8592 -0.9112
   28MOL0     H 3763   9.517  12.541   5.913 -0.2392  1.5736 -0.2685
   28MOL0     H 3764   9.151  12.655   6.031  0.9283 -1.3751  0.0744
   28MOL0     H 3765   8.983  12.734   6.179  0.6326 -0.8182  0.7219
   28MOL0     H 3766   8.761  11.763   7.479  3.0376 -1.2857 -0.7323
   28MOL0     H 3767   8.691  11.531   7.432 -1.1950 -1.2756 -0.6376
   28MOL0     H 3768   8.541  11.232   7.386 -1.8748  0.2877 -0.3265
   28MOL0     H 3769   8.497  10.996   7.421 -3.0494 -0.7537 -2.2355
   28MOL0     H 3770   8.633  10.702   7.125 -0.0275 -1.3677 -0.9642
   28MOL0     H 3771   8.557  10.605   7.254 -0.1166  0.7831  1.1809
   28MOL0     H 3772   8.417  10.575   7.052  0.9729 -2.0584  1.4084
   28MOL0     H 3773   8.416  10.757   7.035 -1.7631 -0.8355 -0.2605
   28MOL0     H 3774   8.205  10.656   7.128 -0.4911  0.2834 -0.1780
   28MOL0     H 3775   8.287  10.762   7.240  2.1021  0.1672 -0.6620
   28MOL0     H 3776   8.363  10.546   7.364  0.2228 -1.9509  0.0707
   28MOL0     H 3777   8.318  10.463   7.204  1.0356  1.4237 -1.1555
   28MOL0     H 3778   7.952  10.502   7.440 -0.3270  2.1736  0.2051
   28MOL0     H 3779   8.666  10.898   7.041  3.0656 -1.7353  1.7581
   28MOL0     H 3780   8.695  11.142   6.988  0.4751  2.4296  1.2858
   29MOL0     O 3781   0.938   1.392   8.421 -0.5592  0.1192  0.1846
   29MOL0     C 3782   0.871   1.407   8.523 -0.0732 -0.0082 -0.0203
   29MOL0     O 3783   0.893   1.506   8.616  0.4972  0.5353  0.7485
   29MOL0     C 3784   0.999   1.591   8.624  0.6286  0.3935 -0.2086
   29MOL0     C 3785   1.107   1.593   8.533  0.3697 -0.6739  0.1538
   29MOL0     C 3786   1.214   1.673   8.546 -0.3324 -0.5550  0.3449
   29MOL0     C 3787   1.220   1.755   8.655  0.2190 -1.1836  0.4415
   29MOL0     O 3788   1.321   1.849   8.673  0.2383 -1.1306 -0.3325
   29MOL0     C 3789   1.447   1.819   8.613 -0.0310  0.3493 -0.1428
   29MOL0     C 3790   1.545   1.897   8.704  0.2102  0.2554 -0.6858
   29MOL0     C 3791   1.552   1.850   8.847 -0.5795 -0.4039  1.0283
   29MOL0     C 3792   1.674   1.761   8.862 -0.0056 -0.2981 -0.8077
   29MOL0     C 3793   1.695   1.712   9.003 -1.1732  0.0459 -0.0104
   29MOL0     C 3794   1.608   1.593   9.036 -0.6793 -0.1115  0.6005
   29MOL0     C 3795   1.613   1.540   9.182  0.0267  0.4468  0.2915
   29MOL0     C 3796   1.506   1.620   9.266 -0.5392  0.0106  0.6235
   29MOL0     N 3797   1.366   1.604   9.231 -0.3261  0.5703 -0.1537
   29MOL0     C 3798   1.295   1.487   9.260 -0.1716  0.6446 -0.0648
   29MOL0     C 3799   1.170   1.517   9.202  0.0767 -0.2464 -0.7941
   29MOL0     C 3800   1.054   1.422   9.209 -0.3959  0.0810 -0.7045
   29MOL0     C 3801   1.067   1.342   9.078  0.5967  0.9502 -0.1735
   29MOL0     C 3802   0.943   1.249   9.051 -0.1401 -0.8333  0.3813
   29MOL0     C 3803   0.929   1.231   8.894 -0.5101 -0.4657 -0.1784
   29MOL0     O 3804   1.036   1.154   8.843  0.6707 -0.2600  0.0432
   29MOL0     C 3805   1.027   1.114   8.710  1.5781  0.5129  0.5048
   29MOL0     C 3806   0.947   1.000   8.688  0.5068 -0.8409  0.1761
   29MOL0     C 3807   0.919   0.956   8.554 -0.2404 -0.6878  0.4422
   29MOL0     C 3808   0.808   0.862   8.540  0.2616  0.0801 -0.4086
   29MOL0     C 3809   0.993   1.016   8.453  0.2154  0.5298 -0.6060
   29MOL0     C 3810   0.973   0.967   8.320 -0.3519 -0.0250  0.2582
   29MOL0     O 3811   0.973   0.837   8.294 -0.0775 -0.4176  0.3368
   29MOL0     C 3812   0.945   0.786   8.168 -0.5560  0.5642 -0.3093
   29MOL0     C 3813   0.923   0.645   8.185 -0.2318  1.5936  0.3499
   29MOL0     C 3814   0.902   0.567   8.071 -0.6132  0.0581 -0.3660
   29MOL0     C 3815   0.901   0.618   7.937 -0.0621 -0.6950  0.0020
   29MOL0     O 3816   0.885   0.531   7.829 -0.6720 -0.1497 -0.1793
   29MOL0     C 3817   0.938   0.395   7.841 -0.0884 -0.1199 -0.4931
   29MOL0     C 3818   1.091   0.395   7.885 -0.0804 -0.4129 -0.0250
   29MOL0     C 3819   1.197   0.467   7.799 -0.4908  1.3721  0.8122
   29MOL0     C 3820   1.206   0.417   7.655 -0.1521  0.6455 -0.0823
   29MOL0     C 3821   1.298   0.504   7.584  0.0471 -1.5086  1.1375
   29MOL0     C 3822   1.316   0.461   7.433 -0.4253 -0.6314 -0.4690
   29MOL0     C 3823   1.446   0.527   7.377 -1.4957 -0.6647 -0.5163
   29MOL0     C 3824   1.451   0.550   7.222 -0.6056  0.0091 -0.0264
   29MOL0    Cl 3825   1.490   0.394   7.135  0.0355 -0.1849  0.4904
   29MOL0     C 3826   0.916   0.755   7.926 -0.3181 -0.4645  0.3141
   29MOL0     C 3827   0.941   0.839   8.033  0.1864  0.7436  0.0770
   29MOL0     O 3828   0.974   1.057   8.234  0.2562  1.1588 -0.1721
   29MOL0     C 3829   1.085   1.123   8.476  0.4672 -0.7707  0.2442
   29MOL0     C 3830   1.096   1.173   8.610 -0.5124  0.7186  0.1082
   29MOL0     N 3831   1.176   1.651   9.157  0.3168  0.5633 -0.1848
   29MOL0     N 3832   1.289   1.698   9.168 -0.9755  0.3260 -0.3809
   29MOL0     C 3833   1.113   1.761   8.746  0.7927  0.4859  0.2447
   29MOL0     C 3834   1.003   1.685   8.726  0.0319  0.4955  0.0460
   29MOL0     C 3835   0.756   1.311   8.542 -0.0401  0.4518  0.4216
   29MOL0     C 3836   0.683   1.308   8.659  0.3631  0.2033 -0.3280
   29MOL0     C 3837   0.582   1.215   8.678 -0.7129 -0.2175 -0.4904
   29MOL0     C 3838   0.543   1.141   8.570 -1.1446  0.9330 -0.9521
   29MOL0     O 3839   0.426   1.074   8.553 -0.3059 -0.7280 -0.4479
   29MOL0     C 3840   0.360   1.028   8.674 -1.1812 -0.0783 -1.3095
   29MOL0     C 3841   0.414   0.902   8.749 -0.1831  0.1896  0.3636
   29MOL0     C 3842   0.339   0.880   8.883  0.1876  1.0903 -0.9516
   29MOL0     C 3843   0.406   0.776   8.970 -0.3306  0.4822  0.1375
   29MOL0     C 3844   0.314   0.746   9.080  0.3953 -0.6144  0.0187
   29MOL0     C 3845   0.227   0.710   9.151 -0.6752  1.4253  0.1198
   29MOL0     C 3846   0.619   1.132   8.455 -0.9394 -0.8104 -0.3423
   29MOL0     C 3847   0.724   1.224   8.441  0.6451 -0.2223  0.5579
   29MOL0     H 3848   1.121   1.527   8.449  2.2205  0.3384 -0.3942
   29MOL0     H 3849   1.284   1.683   8.463 -0.7872  0.6364  0.0839
   29MOL0     H 3850   1.465   1.712   8.624 -0.5496  0.4535  2.5343
   29MOL0     H 3851   1.438   1.863   8.513 -0.3632  4.0449  1.3300
   29MOL0     H 3852   1.641   1.885   8.653  0.6575  0.2241  0.1573
   29MOL0     H 3853   1.526   2.005   8.696 -1.1281 -0.0627 -2.8424
   29MOL0     H 3854   1.551   1.939   8.910  3.2812  0.1284  0.5892
   29MOL0     H 3855   1.464   1.790   8.874 -0.9219 -1.3335 -1.7872
   29MOL0     H 3856   1.658   1.682   8.788  1.6622 -1.6819  0.2256
   29MOL0     H 3857   1.765   1.817   8.838  0.9382 -1.3790  0.0928
   29MOL0     H 3858   1.801   1.683   9.004 -1.3748 -0.7376 -0.7814
   29MOL0     H 3859   1.674   1.783   9.084 -4.2849 -0.9189  0.1468
   29MOL0     H 3860   1.502   1.618   9.025 -0.9627 -1.0224  1.1124
   29MOL0     H 3861   1.644   1.511   8.973  6.4056  0.9640  2.4034
   29MOL0     H 3862   1.598   1.432   9.183 -1.8088  0.6312 -1.2888
   29MOL0     H 3863   1.715   1.561   9.215 -0.0235  1.7049 -0.2743
   29MOL0     H 3864   1.536   1.724   9.254  0.6393 -0.6462 -5.4097
   29MOL0     H 3865   1.510   1.587   9.370 -1.2632 -0.8247  0.3994
   29MOL0     H 3866   1.322   1.395   9.312 -1.4125 -0.4706 -1.3179
   29MOL0     H 3867   1.064   1.366   9.303 -0.3690  2.4021  0.7505
   29MOL0     H 3868   0.965   1.484   9.213 -0.2107  0.3840 -1.2173
   29MOL0     H 3869   1.158   1.282   9.076 -0.3074 -0.6563  2.4573
   29MOL0     H 3870   1.079   1.404   8.988 -0.5620 -0.0761 -1.0730
   29MOL0     H 3871   0.847   1.292   9.080 -0.8633 -1.7740 -0.5287
   29MOL0     H 3872   0.963   1.149   9.089  2.3944 -1.1882 -1.6113
   29MOL0     H 3873   0.927   1.329   8.846 -0.9003 -0.9424 -1.1551
   29MOL0     H 3874   0.841   1.167   8.882  0.9704 -2.8130  0.6849
   29MOL0     H 3875   0.882   0.960   8.765 -0.4510 -0.5839 -0.4674
   29MOL0     H 3876   0.853   0.769   8.503 -0.5634  0.2079 -1.8282
   29MOL0     H 3877   0.763   0.836   8.636 -1.0605  0.6761 -0.8405
   29MOL0     H 3878   0.738   0.891   8.460  0.0367 -1.3474 -0.7562
   29MOL0     H 3879   0.913   0.605   8.285 -1.7126 -0.7880 -0.6692
   29MOL0     H 3880   0.905   0.459   8.083 -2.1170  0.1732  1.5961
   29MOL0     H 3881   0.879   0.340   7.915 -0.3119 -0.7095 -1.1080
   29MOL0     H 3882   0.926   0.335   7.751 -3.2091  0.8501 -0.8485
   29MOL0     H 3883   1.108   0.434   7.985  0.4780 -1.0869  0.1500
   29MOL0     H 3884   1.119   0.289   7.881  1.0612 -0.5530  4.9546
   29MOL0     H 3885   1.294   0.443   7.843  0.9046  0.0768 -2.5649
   29MOL0     H 3886   1.181   0.575   7.798  2.4490  1.9342 -1.7089
   29MOL0     H 3887   1.231   0.311   7.652 -2.1925  0.0419  1.5324
   29MOL0     H 3888   1.114   0.432   7.598  0.0968 -0.7991 -0.8988
   29MOL0     H 3889   1.398   0.488   7.626  1.5501  0.5437 -1.3778
   29MOL0     H 3890   1.275   0.610   7.579  0.1802 -1.4647  1.4197
   29MOL0     H 3891   1.341   0.355   7.421 -0.9674 -0.7660 -0.4518
   29MOL0     H 3892   1.227   0.489   7.377  0.2930 -0.3823 -1.5013
   29MOL0     H 3893   1.530   0.471   7.418 -0.6460  1.7647  1.2757
   29MOL0     H 3894   1.463   0.624   7.425  3.3343 -1.2915 -0.5218
   29MOL0     H 3895   1.531   0.618   7.193  0.9765 -1.9749 -0.5524
   29MOL0     H 3896   1.360   0.603   7.192  0.9991  2.4596 -0.9373
   29MOL0     H 3897   0.913   0.815   7.836 -0.2462 -0.7982  0.0898
   29MOL0     H 3898   0.965   0.941   8.006  1.5211  0.0942 -1.2879
   29MOL0     H 3899   1.144   1.175   8.402  1.8103 -0.4575  1.4926
   29MOL0     H 3900   1.158   1.263   8.617  0.3057  0.2493 -0.8483
   29MOL0     H 3901   1.117   1.832   8.828 -0.3381 -1.2780  1.9282
   29MOL0     H 3902   0.912   1.712   8.780  1.9461  3.6516  1.9711
   29MOL0     H 3903   0.698   1.384   8.735 -3.1583  1.1416 -0.3982
   29MOL0     H 3904   0.535   1.223   8.775  1.7366  1.0016  0.6869
   29MOL0     H 3905   0.364   1.109   8.748 -0.0262 -1.1425 -0.1642
   29MOL0     H 3906   0.258   1.003   8.644 -1.6344  1.1769 -0.8881
   29MOL0     H 3907   0.520   0.920   8.770 -0.6035  2.0747  1.0600
   29MOL0     H 3908   0.411   0.813   8.685  4.4569 -1.6640  2.2655
   29MOL0     H 3909   0.241   0.836   8.860  1.2649 -2.1316  0.0714
   29MOL0     H 3910   0.327   0.966   8.949  2.7313 -0.6809  2.0749
   29MOL0     H 3911   0.503   0.817   8.999 -0.7632  3.3251 -2.0199
   29MOL0     H 3912   0.417   0.684   8.911  1.2071  0.2860  0.6747
   29MOL0     H 3913   0.148   0.677   9.214  0.9785 -2.0758  0.5728
   29MOL0     H 3914   0.597   1.074   8.366  1.7342  0.4118 -1.9311
   29MOL0     H 3915   0.792   1.230   8.357  0.3587 -0.7732  0.2775
   30MOL0     O 3916   0.557   5.760  11.005 -0.1845 -0.1283  0.0009
   30MOL0     C 3917   0.476   5.806  11.088  0.5061 -0.3186  0.5744
   30MOL0     O 3918   0.373   5.892  11.055 -0.7346  0.3017 -0.0137
   30MOL0     C 3919   0.351   5.933  10.923  0.2975  0.2472  0.3196
   30MOL0     C 3920   0.321   6.070  10.904 -0.1972  1.0106  0.7202
   30MOL0     C 3921   0.296   6.117  10.772 -0.1161 -0.2824  0.0888
   30MOL0     C 3922   0.292   6.032  10.664  0.3084 -1.1909  0.1660
   30MOL0     O 3923   0.231   6.083  10.548 -0.9752 -0.0604  0.4647
   30MOL0     C 3924   0.193   6.000  10.439 -0.2930 -0.1771 -0.5247
   30MOL0     C 3925   0.079   6.075  10.363  0.1318  0.3959  0.2028
   30MOL0     C 3926  -0.064   6.079  10.427 -1.3630 -0.5094  0.0285
   30MOL0     C 3927  -0.170   6.153  10.350  0.0204  0.0791 -1.3667
   30MOL0     C 3928  -0.210   6.065  10.229  0.8431 -0.1605  0.7561
   30MOL0     C 3929  -0.314   6.126  10.138  0.5909 -0.2284  0.0542
   30MOL0     C 3930  -0.366   6.034  10.019  0.0982  0.1558 -1.2041
   30MOL0     C 3931  -0.454   6.120   9.928  0.9440  0.0211  0.4633
   30MOL0     N 3932  -0.514   6.046   9.813  0.1633 -1.2252  0.1000
   30MOL0     C 3933  -0.495   6.080   9.684  0.5086  0.3775 -0.3564
   30MOL0     C 3934  -0.564   5.989   9.606  0.5872  0.3382 -0.0908
   30MOL0     C 3935  -0.579   5.996   9.454  0.2116 -0.3329 -0.4320
   30MOL0     C 3936  -0.451   5.991   9.372  0.1629  0.9603  0.6897
   30MOL0     C 3937  -0.490   5.971   9.231  0.9880  0.6944 -0.6547
   30MOL0     C 3938  -0.474   5.829   9.171  0.2141 -0.3408 -0.5493
   30MOL0     O 3939  -0.334   5.799   9.162 -0.2111  0.5545 -0.1250
   30MOL0     C 3940  -0.290   5.679   9.120 -0.0900 -0.3715  1.4040
   30MOL0     C 3941  -0.370   5.565   9.116  0.6479  0.2082 -0.0348
   30MOL0     C 3942  -0.316   5.445   9.065 -0.2768  0.0669 -0.8115
   30MOL0     C 3943  -0.425   5.339   9.037 -0.5500 -0.0525  0.3489
   30MOL0     C 3944  -0.177   5.429   9.029  0.9550  0.3924 -0.6883
   30MOL0     C 3945  -0.117   5.307   8.970  0.3585 -0.1475  0.0191
   30MOL0     O 3946   0.016   5.309   8.932 -0.2738 -0.3517 -0.2718
   30MOL0     C 3947   0.067   5.217   8.852 -0.3018 -1.0091  1.1485
   30MOL0     C 3948   0.145   5.116   8.907 -0.4078  0.7179  0.2795
   30MOL0     C 3949   0.190   5.016   8.812 -1.3285  0.1201 -0.0989
   30MOL0     C 3950   0.165   5.026   8.672  0.0420  0.5738  0.0764
   30MOL0     O 3951   0.217   4.932   8.591  0.1497  0.3802  0.0723
   30MOL0     C 3952   0.147   4.891   8.476  0.0453  0.1991 -0.8668
   30MOL0     C 3953   0.231   4.949   8.363 -0.3544 -0.4477 -0.2496
   30MOL0     C 3954   0.166   4.966   8.221 -1.2315 -0.2330 -0.5225
   30MOL0     C 3955   0.005   4.971   8.208 -0.4811  0.3065  0.1319
   30MOL0     C 3956  -0.042   4.971   8.057 -1.1106  0.3379 -0.0451
   30MOL0     C 3957  -0.189   4.975   8.061  0.6230 -0.7785 -0.5053
   30MOL0     C 3958  -0.231   4.943   7.910  0.3932  0.2789 -0.2406
   30MOL0     C 3959  -0.380   4.921   7.905 -0.2419 -0.1537  0.0989
   30MOL0    Cl 3960  -0.434   4.896   7.736  0.1652  0.3361  0.4057
   30MOL0     C 3961   0.107   5.139   8.625 -0.5326  0.2140 -0.4814
   30MOL0     C 3962   0.057   5.239   8.709 -0.2993  0.2682 -0.2062
   30MOL0     O 3963  -0.188   5.206   8.967 -0.2535  0.0904 -0.1477
   30MOL0     C 3964  -0.097   5.545   9.034  0.1657 -0.5595 -0.3262
   30MOL0     C 3965  -0.154   5.664   9.079 -0.4111  0.4259  0.0949
   30MOL0     N 3966  -0.621   5.904   9.692  0.0841 -0.1609 -0.2119
   30MOL0     N 3967  -0.591   5.930   9.810 -0.5100 -1.4121  0.2056
   30MOL0     C 3968   0.318   5.896  10.687  0.1647  0.3051  0.3884
   30MOL0     C 3969   0.349   5.847  10.817  0.9429 -0.0408 -0.4370
   30MOL0     C 3970   0.496   5.773  11.232  0.8961  0.3084  0.5415
   30MOL0     C 3971   0.438   5.846  11.339  0.1106 -0.1785  0.1484
   30MOL0     C 3972   0.448   5.798  11.472  0.3569 -0.1064  0.4637
   30MOL0     C 3973   0.525   5.684  11.501  0.3587  0.2998  0.2147
   30MOL0     O 3974   0.526   5.646  11.635 -0.6835  0.1884 -0.5806
   30MOL0     C 3975   0.609   5.539  11.675  0.4199 -0.0842 -0.5122
   30MOL0     C 3976   0.645   5.565  11.822 -0.7500  0.7149  0.7730
   30MOL0     C 3977   0.520   5.546  11.915  0.3705  0.0407  0.0648
   30MOL0     C 3978   0.455   5.414  11.919  0.0054  0.5092 -0.0184
   30MOL0     C 3979   0.550   5.312  11.954 -0.9617 -0.2535 -0.2970
   30MOL0     C 3980   0.627   5.237  12.016 -0.0926  0.3092  0.0674
   30MOL0     C 3981   0.590   5.611  11.395 -0.6398 -0.3808  0.8249
   30MOL0     C 3982   0.576   5.657  11.270 -0.2402  0.2666  0.3729
   30MOL0     H 3983   0.305   6.143  10.984 -2.6178  1.6837 -0.2766
   30MOL0     H 3984   0.280   6.223  10.757  2.0045  0.5340  2.8512
   30MOL0     H 3985   0.277   5.968  10.377 -1.0625  1.8292 -2.7294
   30MOL0     H 3986   0.155   5.907  10.483  0.0183  0.0794  0.3009
   30MOL0     H 3987   0.117   6.171  10.328 -1.4293 -0.0029 -2.9201
   30MOL0     H 3988   0.071   6.031  10.263  3.7992  1.0959 -0.5267
   30MOL0     H 3989  -0.105   5.986  10.466 -3.4528 -0.5578 -2.0498
   30MOL0     H 3990  -0.050   6.128  10.524 -1.8939  0.7676 -0.5208
   30MOL0     H 3991  -0.255   6.174  10.414 -1.0565  1.8430 -3.2727
   30MOL0     H 3992  -0.126   6.249  10.323 -1.4924  0.9115 -0.9631
   30MOL0     H 3993  -0.122   6.026  10.176 -0.0732  0.1273 -1.0452
   30MOL0     H 3994  -0.259   5.977  10.272 -3.5824  1.8109  0.2140
   30MOL0     H 3995  -0.397   6.123  10.209  4.6767  2.2558  5.6249
   30MOL0     H 3996  -0.289   6.225  10.099 -1.9195  1.0591  1.4036
   30MOL0     H 3997  -0.279   5.998   9.964  0.2943 -3.3698  1.0880
   30MOL0     H 3998  -0.416   5.945  10.059  0.3853  0.0068 -1.1807
   30MOL0     H 3999  -0.393   6.202   9.889  0.5698 -0.4818 -1.2388
   30MOL0     H 4000  -0.534   6.157   9.994 -0.7731 -0.0622 -1.4782
   30MOL0     H 4001  -0.441   6.170   9.656  0.7129  0.6997  1.0282
   30MOL0     H 4002  -0.632   5.902   9.437  0.1998 -0.1097 -1.7375
   30MOL0     H 4003  -0.631   6.085   9.419  2.4043  0.6705 -1.3321
   30MOL0     H 4004  -0.386   5.911   9.406 -2.1166 -1.1357  0.3946
   30MOL0     H 4005  -0.397   6.086   9.366 -4.7041  4.0335 -1.6222
   30MOL0     H 4006  -0.435   6.046   9.173  0.4417 -0.1521 -2.3504
   30MOL0     H 4007  -0.596   5.992   9.215  0.7348  1.4441  1.6443
   30MOL0     H 4008  -0.520   5.834   9.071 -1.6536 -0.7850  0.2479
   30MOL0     H 4009  -0.525   5.758   9.237  1.7536  0.2179  1.3358
   30MOL0     H 4010  -0.476   5.571   9.139  0.9743  0.8897  1.4046
   30MOL0     H 4011  -0.520   5.394   9.042 -0.1190  0.5790  2.7421
   30MOL0     H 4012  -0.416   5.297   8.937 -1.3205 -0.2656  0.3605
   30MOL0     H 4013  -0.424   5.256   9.108  0.0737 -1.7986 -1.6341
   30MOL0     H 4014   0.160   5.106   9.014 -0.5870 -0.3475  0.2179
   30MOL0     H 4015   0.255   4.941   8.857 -2.6269 -1.1326 -0.2451
   30MOL0     H 4016   0.146   4.783   8.461 -1.7594  0.3433 -2.1815
   30MOL0     H 4017   0.043   4.927   8.472  0.7411  2.5202  0.4778
   30MOL0     H 4018   0.271   5.048   8.387 -0.9375 -0.5005  1.0159
   30MOL0     H 4019   0.322   4.889   8.351  1.1209  1.9631 -2.0441
   30MOL0     H 4020   0.199   4.875   8.169  2.8519  0.4571  0.5129
   30MOL0     H 4021   0.224   5.046   8.174 -1.3146  0.9297  1.2652
   30MOL0     H 4022  -0.037   4.888   8.264 -1.4417 -0.2375 -1.3528
   30MOL0     H 4023  -0.031   5.065   8.251  1.1462  0.8355  0.4242
   30MOL0     H 4024  -0.014   4.876   8.011 -2.8884  0.1568 -0.8175
   30MOL0     H 4025  -0.005   5.058   8.001 -0.3325  0.8864  1.2536
   30MOL0     H 4026  -0.238   4.904   8.128 -0.1475  0.7752  0.6190
   30MOL0     H 4027  -0.229   5.072   8.090  0.3855 -1.5843  2.1380
   30MOL0     H 4028  -0.183   4.849   7.882 -2.1741 -0.6141 -2.0587
   30MOL0     H 4029  -0.214   5.031   7.848 -0.8658 -0.3943 -1.6237
   30MOL0     H 4030  -0.435   5.005   7.947  1.1474  0.5233  0.6401
   30MOL0     H 4031  -0.402   4.829   7.961  0.5238 -0.2900  0.1925
   30MOL0     H 4032   0.099   5.160   8.518 -3.7653  1.8717 -0.0456
   30MOL0     H 4033   0.020   5.329   8.660 -0.0580 -0.6113 -2.0626
   30MOL0     H 4034   0.009   5.551   9.010  0.4545  0.7996  1.1388
   30MOL0     H 4035  -0.082   5.745   9.088  0.0783  0.0071 -0.0273
   30MOL0     H 4036   0.317   5.824  10.606  1.2296 -0.4712  1.0481
   30MOL0     H 4037   0.358   5.741  10.839  1.5743 -0.5886 -2.9811
   30MOL0     H 4038   0.367   5.927  11.329 -1.3314 -1.0113  2.6584
   30MOL0     H 4039   0.395   5.853  11.550 -0.8303  0.1482 -0.4900
   30MOL0     H 4040   0.556   5.444  11.664  0.4054  0.1561 -3.2604
   30MOL0     H 4041   0.701   5.536  11.616  1.6399 -2.2833  1.3792
   30MOL0     H 4042   0.691   5.663  11.833 -1.3953  0.8216  2.9609
   30MOL0     H 4043   0.728   5.500  11.852 -1.9857 -0.9207  0.7632
   30MOL0     H 4044   0.443   5.619  11.887  0.9648  0.5062 -0.3875
   30MOL0     H 4045   0.541   5.579  12.018  3.0107  2.4176 -1.0901
   30MOL0     H 4046   0.412   5.392  11.821 -0.1089 -1.6589  0.4744
   30MOL0     H 4047   0.374   5.405  11.992  1.9306  0.0006  2.1713
   30MOL0     H 4048   0.694   5.181  12.077  1.5042  0.1768 -1.6791
   30MOL0     H 4049   0.649   5.521  11.405  1.2359  0.4956 -1.2977
   30MOL0     H 4050   0.620   5.598  11.190  1.9775  0.4587  1.3868
   31MOL0     O 4051   5.017   5.264   2.799  0.6268  0.0558  0.2134
   31MOL0     C 4052   4.966   5.223   2.697 -0.2682 -0.6371 -0.2462
   31MOL0     O 4053   4.975   5.276   2.578  0.3576 -0.0831  0.0256
   31MOL0     C 4054   5.056   5.389   2.564 -0.5926 -0.2495  0.4868
   31MOL0     C 4055   5.001   5.500   2.502  0.1755 -0.9635 -1.0844
   31MOL0     C 4056   5.068   5.628   2.503  0.1742  0.5001  0.0027
   31MOL0     C 4057   5.211   5.638   2.541  0.6125  0.6609 -0.1923
   31MOL0     O 4058   5.298   5.740   2.523  0.7048 -0.4405 -0.0864
   31MOL0     C 4059   5.234   5.871   2.507 -0.2869  0.1945  0.1033
   31MOL0     C 4060   5.341   5.981   2.514 -0.7031  0.6120 -0.5292
   31MOL0     C 4061   5.456   5.982   2.409  1.0667  0.1327  0.8460
   31MOL0     C 4062   5.569   6.087   2.435 -0.7180  0.2753  0.3262
   31MOL0     C 4063   5.667   6.105   2.317 -0.4502 -1.1723 -0.5495
   31MOL0     C 4064   5.800   6.058   2.345 -0.7320 -0.9813 -0.0324
   31MOL0     C 4065   5.897   6.125   2.246  0.8954  0.2146 -0.9183
   31MOL0     C 4066   6.043   6.105   2.302  0.0882  0.9199  0.1429
   31MOL0     N 4067   6.086   5.958   2.314  0.2539 -0.1555  0.4115
   31MOL0     C 4068   6.115   5.895   2.435 -0.4730 -0.3247 -0.6417
   31MOL0     C 4069   6.160   5.781   2.396  0.3900 -0.9748  0.2341
   31MOL0     C 4070   6.212   5.680   2.496 -0.2988  0.6723 -0.7402
   31MOL0     C 4071   6.343   5.726   2.557  0.1564  0.3772  0.5044
   31MOL0     C 4072   6.459   5.675   2.471  0.3648  0.7152 -0.2798
   31MOL0     C 4073   6.591   5.746   2.531 -0.4326 -0.4697  0.3476
   31MOL0     O 4074   6.580   5.884   2.501  0.0161 -0.6869  1.2818
   31MOL0     C 4075   6.598   5.925   2.364 -0.1162  0.2246 -0.4949
   31MOL0     C 4076   6.715   5.998   2.356 -0.4197  1.0031 -0.0466
   31MOL0     C 4077   6.759   6.060   2.236 -0.7276  0.3160 -0.3550
   31MOL0     C 4078   6.875   6.147   2.237 -0.2079 -0.8395  0.3565
   31MOL0     C 4079   6.668   6.060   2.129  0.3550 -1.1178 -0.3354
   31MOL0     C 4080   6.698   6.117   1.994  0.4023 -0.7326 -0.5871
   31MOL0     O 4081   6.589   6.152   1.922  0.1796 -0.4951  0.2620
   31MOL0     C 4082   6.607   6.186   1.786  0.3833  0.9068  0.0769
   31MOL0     C 4083   6.511   6.140   1.686  0.1471 -0.2362 -0.3678
   31MOL0     C 4084   6.515   6.184   1.548 -0.8731 -1.2400 -0.1653
   31MOL0     C 4085   6.619   6.267   1.503  0.9066  1.3474 -0.9914
   31MOL0     O 4086   6.611   6.299   1.373  0.0100 -0.5151 -0.8354
   31MOL0     C 4087   6.680   6.418   1.339 -0.1248 -0.2966  0.1381
   31MOL0     C 4088   6.646   6.460   1.198 -0.4447  0.2200  0.2227
   31MOL0     C 4089   6.680   6.341   1.105 -0.9429 -0.3321  1.0406
   31MOL0     C 4090   6.692   6.384   0.954  1.2630  0.1075 -0.1611
   31MOL0     C 4091   6.708   6.266   0.855  0.3937  0.5374  0.7206
   31MOL0     C 4092   6.841   6.198   0.880 -0.7481  0.5581 -0.2209
   31MOL0     C 4093   6.862   6.062   0.801 -0.5788 -1.0092 -0.7093
   31MOL0     C 4094   7.013   6.014   0.815  0.2100  0.7654  0.3972
   31MOL0    Cl 4095   7.116   6.121   0.724 -0.0612  0.0056  0.0161
   31MOL0     C 4096   6.716   6.308   1.603 -0.1899  0.8369  0.2686
   31MOL0     C 4097   6.707   6.277   1.736 -0.5105  0.5217 -0.3688
   31MOL0     O 4098   6.813   6.107   1.952 -0.8408 -0.3138  0.1828
   31MOL0     C 4099   6.544   5.982   2.143  0.0422 -0.3438  0.3697
   31MOL0     C 4100   6.507   5.924   2.266  0.4014  0.5800  0.5673
   31MOL0     N 4101   6.141   5.759   2.257  0.0840 -0.0387  0.1332
   31MOL0     N 4102   6.089   5.871   2.207 -0.7514 -0.0564 -0.2414
   31MOL0     C 4103   5.264   5.520   2.592 -0.9235  0.6131 -0.3166
   31MOL0     C 4104   5.189   5.398   2.608 -0.9699 -0.1960 -0.2390
   31MOL0     C 4105   4.887   5.097   2.710 -0.7050  0.5454 -0.4179
   31MOL0     C 4106   4.857   5.048   2.843  0.4455 -0.2828 -0.2213
   31MOL0     C 4107   4.768   4.942   2.859  0.1977 -0.5085 -0.5120
   31MOL0     C 4108   4.717   4.865   2.751  0.0044 -0.4346 -0.6426
   31MOL0     O 4109   4.623   4.766   2.775  0.5572  0.2602 -0.3612
   31MOL0     C 4110   4.600   4.695   2.898  0.4714 -0.7336 -0.3850
   31MOL0     C 4111   4.538   4.559   2.870  1.2455 -1.5818  0.1032
   31MOL0     C 4112   4.633   4.463   2.818 -0.0227  0.1138  0.1156
   31MOL0     C 4113   4.582   4.338   2.754  0.6602 -0.2776  0.1822
   31MOL0     C 4114   4.512   4.352   2.630  0.4313 -0.0120  0.1110
   31MOL0     C 4115   4.449   4.362   2.524 -0.1445  0.8707  0.0236
   31MOL0     C 4116   4.772   4.893   2.618  0.8225  0.4492  0.1624
   31MOL0     C 4117   4.840   5.011   2.607  0.5061 -0.0403 -0.1054
   31MOL0     H 4118   4.899   5.498   2.466 -2.0696 -2.1937  4.3790
   31MOL0     H 4119   5.016   5.719   2.475 -2.6862 -0.6572  1.1485
   31MOL0     H 4120   5.175   5.883   2.416  3.0806 -0.5592 -2.3970
   31MOL0     H 4121   5.160   5.876   2.587 -0.6717 -1.0369 -0.1465
   31MOL0     H 4122   5.296   6.080   2.500  0.0246  0.9315 -0.6913
   31MOL0     H 4123   5.381   5.975   2.615  4.1745  1.8885 -2.1051
   31MOL0     H 4124   5.495   5.882   2.393 -1.5997 -0.8380 -0.1642
   31MOL0     H 4125   5.400   6.004   2.317  1.2328  1.6482  1.0746
   31MOL0     H 4126   5.530   6.187   2.455 -0.8500  0.5249 -1.0490
   31MOL0     H 4127   5.624   6.063   2.526  0.2842  2.3575  0.3180
   31MOL0     H 4128   5.615   6.077   2.224  0.7836 -1.3588 -1.1982
   31MOL0     H 4129   5.690   6.212   2.315 -2.0602 -0.5000  3.9046
   31MOL0     H 4130   5.828   6.071   2.450 -0.8114 -0.8235 -0.0307
   31MOL0     H 4131   5.804   5.949   2.339 -0.1987 -0.8947 -2.2349
   31MOL0     H 4132   5.882   6.092   2.142  0.1659  2.0600 -1.4455
   31MOL0     H 4133   5.894   6.234   2.246  2.9981  0.4800  3.4979
   31MOL0     H 4134   6.041   6.143   2.405  0.6442 -0.4216  0.6750
   31MOL0     H 4135   6.114   6.150   2.233  4.5253 -2.8997  1.7218
   31MOL0     H 4136   6.118   5.939   2.534  1.3009 -2.3551  0.2889
   31MOL0     H 4137   6.135   5.656   2.570 -0.4314 -0.7962 -1.3260
   31MOL0     H 4138   6.224   5.579   2.457  0.2940  0.3380  0.2663
   31MOL0     H 4139   6.345   5.681   2.656 -1.2946 -0.1426  0.3139
   31MOL0     H 4140   6.347   5.835   2.559  2.0860  0.3577  0.1108
   31MOL0     H 4141   6.454   5.701   2.365  2.0842  1.2149 -0.2575
   31MOL0     H 4142   6.456   5.567   2.486 -1.1492  0.7465 -0.1505
   31MOL0     H 4143   6.675   5.701   2.477 -0.1048  2.0932 -1.4781
   31MOL0     H 4144   6.580   5.732   2.639 -1.0542 -0.4918  0.2858
   31MOL0     H 4145   6.773   5.994   2.447 -0.7976 -0.7887  0.1512
   31MOL0     H 4146   6.858   6.244   2.190  1.0031  0.3280  2.1900
   31MOL0     H 4147   6.907   6.164   2.340 -0.0908 -2.3817  0.5946
   31MOL0     H 4148   6.961   6.099   2.189  1.6048  0.8863  1.7121
   31MOL0     H 4149   6.426   6.076   1.709  0.8383 -0.8247  0.6079
   31MOL0     H 4150   6.445   6.156   1.470  2.5116 -0.9038 -3.6612
   31MOL0     H 4151   6.639   6.494   1.405  1.5939  1.1668 -0.3836
   31MOL0     H 4152   6.788   6.408   1.354 -0.0358  2.8197  2.7084
   31MOL0     H 4153   6.540   6.485   1.189 -0.7986 -1.3857 -0.3809
   31MOL0     H 4154   6.715   6.542   1.175  1.8486 -1.5313  0.5131
   31MOL0     H 4155   6.608   6.259   1.103  0.0325 -1.2519 -1.6352
   31MOL0     H 4156   6.776   6.312   1.147 -0.8137 -1.4734  0.0185
   31MOL0     H 4157   6.603   6.439   0.921  1.4494 -0.6563 -2.0290
   31MOL0     H 4158   6.772   6.457   0.940  1.4777  0.0404  0.6392
   31MOL0     H 4159   6.713   6.293   0.749  2.9379 -2.1161  0.0083
   31MOL0     H 4160   6.636   6.184   0.865  2.1973 -0.9358  2.7038
   31MOL0     H 4161   6.927   6.266   0.880  3.1113 -3.7564  0.7626
   31MOL0     H 4162   6.839   6.152   0.979  0.4916 -2.7338 -1.5639
   31MOL0     H 4163   6.829   6.061   0.696 -2.7474 -2.2944 -0.0528
   31MOL0     H 4164   6.795   5.987   0.842 -1.7077  0.0795 -0.4916
   31MOL0     H 4165   7.017   5.910   0.781  2.8981  0.1190  2.3799
   31MOL0     H 4166   7.043   6.009   0.920 -1.4201 -2.1356  0.8391
   31MOL0     H 4167   6.806   6.362   1.574 -0.2476  0.5119 -0.5378
   31MOL0     H 4168   6.773   6.297   1.820 -2.8130 -1.8890  2.2191
   31MOL0     H 4169   6.475   5.973   2.061 -2.0237 -1.4137  2.1254
   31MOL0     H 4170   6.403   5.892   2.268  1.1496 -2.1575  0.0748
   31MOL0     H 4171   5.370   5.517   2.617 -0.7352 -1.7519 -1.1536
   31MOL0     H 4172   5.244   5.311   2.645 -1.0811  0.5069  1.7001
   31MOL0     H 4173   4.877   5.115   2.926  0.3171 -0.8639  0.2844
   31MOL0     H 4174   4.725   4.948   2.958 -2.2314 -1.0995 -1.4557
   31MOL0     H 4175   4.686   4.686   2.965 -0.5105  1.2083  1.2343
   31MOL0     H 4176   4.522   4.749   2.954 -0.9212 -0.0414 -2.8371
   31MOL0     H 4177   4.469   4.579   2.787  0.8576  1.7920  1.1005
   31MOL0     H 4178   4.479   4.528   2.958 -1.0690  3.6258  0.7536
   31MOL0     H 4179   4.701   4.432   2.898  1.0253 -0.2408 -0.8792
   31MOL0     H 4180   4.683   4.523   2.741 -0.9310  0.4311 -0.2494
   31MOL0     H 4181   4.523   4.278   2.825  1.6398  0.0007  1.2522
   31MOL0     H 4182   4.667   4.271   2.740  2.3782  1.8579 -0.1127
   31MOL0     H 4183   4.386   4.372   2.438  0.7316  2.4278 -0.4761
   31MOL0     H 4184   4.741   4.818   2.546 -2.6281  1.9437 -0.1251
   31MOL0     H 4185   4.848   5.047   2.505  0.6337  3.0519  0.8977
   32MOL0     O 4186   4.489   5.238   7.943 -0.3940  0.0199  0.5254
   32MOL0     C 4187   4.520   5.268   8.060  0.1202  0.0637 -0.0063
   32MOL0     O 4188   4.613   5.366   8.092  0.5136  0.6750  0.6755
   32MOL0     C 4189   4.679   5.424   7.987  0.0578  0.0045  0.2610
   32MOL0     C 4190   4.699   5.557   8.011 -0.3632  0.5983  1.0098
   32MOL0     C 4191   4.786   5.630   7.923 -0.4473  0.8957  0.7645
   32MOL0     C 4192   4.840   5.580   7.811 -0.3079  0.8532  0.7345
   32MOL0     O 4193   4.919   5.662   7.727 -0.0001 -0.5619 -0.1040
   32MOL0     C 4194   4.973   5.610   7.601  1.1665  0.7593 -0.8260
   32MOL0     C 4195   5.052   5.706   7.520 -0.9276  0.5672  0.4561
   32MOL0     C 4196   4.980   5.838   7.486  0.2719  0.0022  0.6408
   32MOL0     C 4197   5.074   5.945   7.414  0.7651  0.7454  0.9317
   32MOL0     C 4198   5.138   5.904   7.281 -0.2801 -0.4868 -0.8753
   32MOL0     C 4199   5.249   6.002   7.235 -0.8309  1.2901  0.1027
   32MOL0     C 4200   5.295   5.981   7.088 -0.3995  0.5043  0.1005
   32MOL0     C 4201   5.424   6.061   7.063  0.2159  0.7335  0.1129
   32MOL0     N 4202   5.485   6.064   6.929  0.5102  0.0334  0.3080
   32MOL0     C 4203   5.545   5.948   6.870 -0.1153  0.5710  0.0738
   32MOL0     C 4204   5.628   5.999   6.772  0.3439 -1.0466 -0.0838
   32MOL0     C 4205   5.723   5.926   6.675 -0.1864 -0.1546  1.0535
   32MOL0     C 4206   5.863   5.951   6.719 -0.3921 -0.1587 -0.1126
   32MOL0     C 4207   5.968   5.874   6.636  0.2812 -0.4359  0.4500
   32MOL0     C 4208   6.115   5.909   6.671  0.1000 -0.4740  0.2610
   32MOL0     O 4209   6.131   6.049   6.632  0.9753 -1.0493  0.0905
   32MOL0     C 4210   6.248   6.091   6.569 -0.5192  0.4863  0.5141
   32MOL0     C 4211   6.378   6.043   6.607  0.9059  0.1685  0.2571
   32MOL0     C 4212   6.490   6.092   6.544 -0.3539 -0.1933 -0.0024
   32MOL0     C 4213   6.622   6.018   6.601  0.6906 -0.2618  0.5745
   32MOL0     C 4214   6.483   6.201   6.451  0.2541  0.4151  0.9742
   32MOL0     C 4215   6.589   6.261   6.368  0.1007  0.4586 -0.3576
   32MOL0     O 4216   6.551   6.362   6.284  0.2100 -0.3787 -0.0046
   32MOL0     C 4217   6.640   6.441   6.218 -1.3729 -0.7404 -0.3291
   32MOL0     C 4218   6.733   6.521   6.287  0.8895  0.6364  0.0660
   32MOL0     C 4219   6.803   6.628   6.222  1.2526  0.8270  0.4492
   32MOL0     C 4220   6.771   6.663   6.084  0.3514 -1.2105 -0.5210
   32MOL0     O 4221   6.821   6.786   6.033 -0.0999 -0.2801  0.3794
   32MOL0     C 4222   6.956   6.830   6.078  0.4777  0.6392  0.8039
   32MOL0     C 4223   6.953   6.946   6.169  0.8069 -0.2702  0.2080
   32MOL0     C 4224   6.887   7.073   6.108 -0.3918  0.1861  0.5349
   32MOL0     C 4225   6.857   7.176   6.212  0.3446  0.3050  0.0748
   32MOL0     C 4226   6.788   7.294   6.137 -0.5801  1.5508 -0.3276
   32MOL0     C 4227   6.762   7.396   6.245  0.3830 -0.4453  0.4344
   32MOL0     C 4228   6.644   7.494   6.202  0.2414  0.4085 -0.1408
   32MOL0     C 4229   6.672   7.570   6.073 -1.0887 -0.3355  0.6117
   32MOL0    Cl 4230   6.614   7.738   6.065 -0.0860  0.0754  0.5929
   32MOL0     C 4231   6.682   6.581   6.018  0.0178  0.6394  1.0303
   32MOL0     C 4232   6.621   6.480   6.083  1.2401  0.6793 -0.2820
   32MOL0     O 4233   6.707   6.226   6.386  0.1764  0.3868  0.6751
   32MOL0     C 4234   6.353   6.244   6.410 -0.6216  0.8477 -0.4696
   32MOL0     C 4235   6.236   6.184   6.474 -1.4525  0.5043  0.1184
   32MOL0     N 4236   5.604   6.135   6.777 -0.3879 -0.1756  0.2212
   32MOL0     N 4237   5.521   6.178   6.873 -0.1621 -0.6663  0.1970
   32MOL0     C 4238   4.823   5.441   7.794  0.3308 -0.7223 -0.2418
   32MOL0     C 4239   4.733   5.362   7.878 -0.7041  0.1021 -0.7962
   32MOL0     C 4240   4.432   5.218   8.162  0.0929  0.0484  0.8174
   32MOL0     C 4241   4.323   5.132   8.132  0.7801  0.9287 -0.0126
   32MOL0     C 4242   4.227   5.094   8.226 -0.3896  0.3734  0.0096
   32MOL0     C 4243   4.217   5.150   8.353 -0.7566  0.6233 -0.3914
   32MOL0     O 4244   4.122   5.135   8.447  0.8842 -0.3811 -0.4974
   32MOL0     C 4245   4.047   5.008   8.461  0.1022 -0.5097  0.4235
   32MOL0     C 4246   4.109   4.948   8.580  0.1508  0.5893 -0.2722
   32MOL0     C 4247   4.249   4.897   8.545  0.5546 -0.1055 -1.0530
   32MOL0     C 4248   4.293   4.801   8.662 -0.0882  0.5874  0.1104
   32MOL0     C 4249   4.329   4.668   8.609  0.7729  0.1693 -0.6807
   32MOL0     C 4250   4.371   4.564   8.563  0.4101 -1.0037  0.5906
   32MOL0     C 4251   4.325   5.231   8.394 -0.1080 -0.1879 -0.3439
   32MOL0     C 4252   4.433   5.257   8.307 -0.1720  0.3536 -0.7033
   32MOL0     H 4253   4.665   5.607   8.101 -0.0624  1.8421  0.4540
   32MOL0     H 4254   4.808   5.731   7.956  1.3288 -0.0458  2.6747
   32MOL0     H 4255   5.046   5.532   7.627 -2.1046 -2.3041 -0.0580
   32MOL0     H 4256   4.899   5.563   7.536  2.2728 -0.7824 -1.0444
   32MOL0     H 4257   5.143   5.724   7.577  0.7925  0.8949 -2.1809
   32MOL0     H 4258   5.076   5.653   7.427 -2.8332 -2.1607  1.4055
   32MOL0     H 4259   4.898   5.820   7.416  1.2986 -0.2053 -0.5593
   32MOL0     H 4260   4.930   5.871   7.577 -2.9800  0.2020 -1.0566
   32MOL0     H 4261   5.013   6.034   7.393 -0.3767  0.0601  1.3135
   32MOL0     H 4262   5.161   5.971   7.476  1.3516 -1.3515  1.0414
   32MOL0     H 4263   5.185   5.805   7.277  1.3094 -0.0540  3.0318
   32MOL0     H 4264   5.050   5.915   7.216 -1.8511  2.0004  1.4366
   32MOL0     H 4265   5.224   6.106   7.255 -0.4678  1.5613 -0.8100
   32MOL0     H 4266   5.337   5.988   7.299 -0.8333  0.0496 -0.1229
   32MOL0     H 4267   5.318   5.874   7.082  0.0722  0.5904  0.3398
   32MOL0     H 4268   5.216   6.011   7.017 -1.1923 -1.5265  0.0584
   32MOL0     H 4269   5.492   6.005   7.128  2.1133  5.0937  2.3070
   32MOL0     H 4270   5.416   6.160   7.110  1.7158  0.1498  1.7384
   32MOL0     H 4271   5.540   5.844   6.899  2.4318  1.0603  2.6795
   32MOL0     H 4272   5.709   5.818   6.670  1.5151 -0.3536 -0.3299
   32MOL0     H 4273   5.707   5.969   6.576 -2.0015  1.1000  1.8474
   32MOL0     H 4274   5.874   5.918   6.823  2.5617  3.4035  0.9579
   32MOL0     H 4275   5.885   6.058   6.721 -0.8675 -0.0655  0.0804
   32MOL0     H 4276   5.944   5.898   6.532  2.0374 -0.7883 -0.0697
   32MOL0     H 4277   5.956   5.768   6.660  0.1756 -1.2558 -2.8536
   32MOL0     H 4278   6.191   5.854   6.613 -0.3244 -0.9006  0.0975
   32MOL0     H 4279   6.120   5.897   6.779 -2.6705 -1.5744  0.3565
   32MOL0     H 4280   6.385   5.972   6.689  0.2169  0.9784  1.0584
   32MOL0     H 4281   6.603   5.928   6.661  2.0487  0.0986  1.5807
   32MOL0     H 4282   6.675   5.974   6.516  0.4007  0.5674 -0.0486
   32MOL0     H 4283   6.687   6.093   6.647  0.9787  0.1066 -0.4108
   32MOL0     H 4284   6.752   6.497   6.391 -1.4293  0.0975  0.4119
   32MOL0     H 4285   6.870   6.686   6.284  1.4283 -1.0463  2.1322
   32MOL0     H 4286   7.005   6.740   6.115 -2.8083 -0.8969  1.7705
   32MOL0     H 4287   7.007   6.860   5.986 -2.2813 -0.1362 -1.1211
   32MOL0     H 4288   6.899   6.908   6.257 -3.6599  2.7728 -0.8855
   32MOL0     H 4289   7.055   6.972   6.200  0.3030  0.0173  1.7287
   32MOL0     H 4290   6.791   7.044   6.063 -1.4292 -0.6213  3.0815
   32MOL0     H 4291   6.959   7.099   6.030 -0.2487 -0.7680  0.3349
   32MOL0     H 4292   6.787   7.134   6.284 -0.5693  2.7284  0.6736
   32MOL0     H 4293   6.947   7.207   6.267  0.8285  0.2735 -0.6771
   32MOL0     H 4294   6.690   7.262   6.102 -0.3286 -1.3866  1.2999
   32MOL0     H 4295   6.854   7.339   6.063  0.4052  1.4063  0.4465
   32MOL0     H 4296   6.728   7.351   6.339  0.3794 -0.1320  0.5848
   32MOL0     H 4297   6.855   7.451   6.262  1.5428 -0.2649 -4.6680
   32MOL0     H 4298   6.639   7.573   6.278  2.8305 -0.7758  1.4156
   32MOL0     H 4299   6.546   7.447   6.197 -0.6368  1.9116  1.6219
   32MOL0     H 4300   6.638   7.509   5.989 -2.9116  0.5521  0.6642
   32MOL0     H 4301   6.781   7.575   6.066 -1.2469  0.9351 -1.9445
   32MOL0     H 4302   6.679   6.602   5.912  2.8326  0.4799  0.8499
   32MOL0     H 4303   6.543   6.423   6.033  1.0362  1.9460 -1.4872
   32MOL0     H 4304   6.336   6.314   6.330  1.6769  0.2396 -1.5811
   32MOL0     H 4305   6.134   6.217   6.459 -1.3440  0.7532 -0.0719
   32MOL0     H 4306   4.864   5.393   7.706  0.0358 -1.9988  0.3042
   32MOL0     H 4307   4.718   5.259   7.847  0.5880 -0.9433  1.7745
   32MOL0     H 4308   4.300   5.088   8.035 -1.3188  4.2488 -1.1770
   32MOL0     H 4309   4.139   5.033   8.203  1.1819 -2.1988  0.4485
   32MOL0     H 4310   3.944   5.032   8.492  0.8108 -0.6023  3.1409
   32MOL0     H 4311   4.039   4.941   8.375  2.2911  0.5176 -0.6501
   32MOL0     H 4312   4.042   4.867   8.611  1.5036 -0.4125  0.1448
   32MOL0     H 4313   4.109   5.036   8.646 -2.3776  1.3800 -1.2159
   32MOL0     H 4314   4.316   4.982   8.539 -0.8782  1.3064  1.3575
   32MOL0     H 4315   4.241   4.845   8.449 -2.3053  0.4950 -1.2520
   32MOL0     H 4316   4.217   4.791   8.740  1.9103  1.3069  2.3042
   32MOL0     H 4317   4.383   4.827   8.719  0.0059 -1.6683  1.0913
   32MOL0     H 4318   4.391   4.484   8.496  1.6878 -0.5924  0.4533
   32MOL0     H 4319   4.316   5.260   8.498 -1.2403  0.2931 -0.5724
   32MOL0     H 4320   4.517   5.309   8.353  0.4615 -1.6002  0.4847
   33MOL0     O 4321   3.735   2.121   8.302  0.7981  0.2016  0.3423
   33MOL0     C 4322   3.740   2.143   8.423 -0.0366 -0.3356  0.4235
   33MOL0     O 4323   3.845   2.145   8.507 -0.4573  0.3407  0.0767
   33MOL0     C 4324   3.964   2.091   8.463  0.1475 -0.4943 -0.1079
   33MOL0     C 4325   3.963   1.970   8.390 -0.3399  0.3415 -0.8924
   33MOL0     C 4326   4.089   1.918   8.357  0.9577  1.2803  0.0753
   33MOL0     C 4327   4.210   1.970   8.387  0.2695  0.2315  0.4157
   33MOL0     O 4328   4.332   1.902   8.369  0.1029  0.6455  0.1249
   33MOL0     C 4329   4.332   1.760   8.365 -0.2159 -1.0139 -0.5052
   33MOL0     C 4330   4.316   1.713   8.224 -0.9155 -0.2432  0.3095
   33MOL0     C 4331   4.234   1.584   8.224  0.1886  0.1760  0.2148
   33MOL0     C 4332   4.219   1.522   8.081 -0.1895  0.2294 -0.1946
   33MOL0     C 4333   4.130   1.398   8.084  0.4186  0.3709  0.2435
   33MOL0     C 4334   4.138   1.299   7.960  0.0769 -0.0105 -0.5612
   33MOL0     C 4335   4.120   1.349   7.830 -0.4938  0.3828  0.8272
   33MOL0     C 4336   4.159   1.247   7.723 -0.0374 -0.8207  0.3850
   33MOL0     N 4337   4.073   1.125   7.721  0.2489 -0.4092 -0.6420
   33MOL0     C 4338   4.099   1.020   7.814 -0.4593  0.4783 -0.6960
   33MOL0     C 4339   4.023   0.916   7.768 -0.3533  0.1858 -0.6340
   33MOL0     C 4340   4.022   0.774   7.820 -0.0705  0.6860  0.2221
   33MOL0     C 4341   3.978   0.769   7.973  0.2388  0.3318  0.3631
   33MOL0     C 4342   4.055   0.658   8.037  0.1665  0.5897  0.1626
   33MOL0     C 4343   4.043   0.528   7.971 -0.1240  0.5498 -0.6326
   33MOL0     O 4344   4.103   0.420   8.061  0.6702  1.2464  0.3225
   33MOL0     C 4345   4.062   0.293   8.065 -0.1432 -0.4025 -1.0254
   33MOL0     C 4346   4.160   0.206   8.104  0.2167 -0.1376  0.0819
   33MOL0     C 4347   4.142   0.068   8.107 -0.2622  0.1993 -0.2139
   33MOL0     C 4348   4.260  -0.015   8.157  0.5477  0.1636  0.1309
   33MOL0     C 4349   4.018   0.019   8.080  0.5555  0.0619  0.9223
   33MOL0     C 4350   3.980  -0.133   8.087  0.4485  0.7012 -0.6507
   33MOL0     O 4351   3.848  -0.165   8.041 -0.8279 -0.3422 -0.5521
   33MOL0     C 4352   3.795  -0.292   8.053 -0.2465 -0.0125 -0.2065
   33MOL0     C 4353   3.822  -0.386   8.154  0.3773 -0.7127  0.5284
   33MOL0     C 4354   3.748  -0.510   8.149  0.5520  0.0598  0.2117
   33MOL0     C 4355   3.648  -0.533   8.056  0.2876  0.1096  0.7592
   33MOL0     O 4356   3.580  -0.646   8.076  0.3988  0.4137  0.1005
   33MOL0     C 4357   3.488  -0.685   7.969  0.7333 -0.1741 -0.3879
   33MOL0     C 4358   3.419  -0.807   8.023 -0.4581 -0.6021 -0.0358
   33MOL0     C 4359   3.519  -0.919   8.069 -0.1958  0.5073  0.1316
   33MOL0     C 4360   3.449  -1.017   8.158  0.3148 -0.3677 -0.2588
   33MOL0     C 4361   3.547  -1.126   8.201  0.2613 -0.6012  0.1856
   33MOL0     C 4362   3.498  -1.213   8.321  0.5844  0.4097  0.2736
   33MOL0     C 4363   3.600  -1.321   8.367  0.4611  0.7203 -0.0396
   33MOL0     C 4364   3.526  -1.402   8.474  0.8797  0.3111  0.2690
   33MOL0    Cl 4365   3.389  -1.515   8.409 -0.0224 -0.5871 -0.6119
   33MOL0     C 4366   3.638  -0.440   7.951  1.1594  0.1085 -0.0572
   33MOL0     C 4367   3.707  -0.325   7.953 -0.8427  1.2201  1.1842
   33MOL0     O 4368   4.056  -0.212   8.142  0.1584  0.1256 -0.1618
   33MOL0     C 4369   3.920   0.113   8.035  0.8913 -0.2726 -0.4818
   33MOL0     C 4370   3.941   0.247   8.030  0.0994 -0.8630 -0.3969
   33MOL0     N 4371   3.953   0.964   7.663 -0.2845 -0.4466  1.0303
   33MOL0     N 4372   3.984   1.080   7.630 -0.1457 -0.3587 -0.4445
   33MOL0     C 4373   4.203   2.102   8.450 -0.5079 -0.2664  0.7846
   33MOL0     C 4374   4.081   2.159   8.483 -0.1777 -0.6835 -0.6380
   33MOL0     C 4375   3.621   2.190   8.479 -0.1053 -0.1073 -0.8076
   33MOL0     C 4376   3.513   2.249   8.408  0.0205  0.2349  0.4440
   33MOL0     C 4377   3.398   2.309   8.461  0.6024  0.1139 -0.2485
   33MOL0     C 4378   3.383   2.314   8.600  0.1467  0.6276 -0.1655
   33MOL0     O 4379   3.287   2.375   8.675 -0.2269 -0.1041 -0.3605
   33MOL0     C 4380   3.205   2.484   8.615  0.2822  0.2970 -0.0159
   33MOL0     C 4381   3.285   2.612   8.574 -0.3034 -1.3150 -0.8428
   33MOL0     C 4382   3.338   2.693   8.704  0.1931 -0.0199  0.1425
   33MOL0     C 4383   3.372   2.840   8.671 -0.3872  0.1619 -0.0361
   33MOL0     C 4384   3.456   2.901   8.776 -0.2099  0.0670  0.7111
   33MOL0     C 4385   3.536   2.943   8.859  0.3011  0.6021  0.4561
   33MOL0     C 4386   3.485   2.243   8.670 -0.1356 -0.3598 -0.1543
   33MOL0     C 4387   3.603   2.187   8.620  0.4374 -0.7466  0.5134
   33MOL0     H 4388   3.872   1.916   8.366 -1.1218  0.9313  0.5934
   33MOL0     H 4389   4.086   1.825   8.301 -0.3084  2.3810 -1.7829
   33MOL0     H 4390   4.431   1.725   8.395  0.0272  0.7009  0.8476
   33MOL0     H 4391   4.255   1.724   8.434 -1.3911  1.6185 -0.2974
   33MOL0     H 4392   4.271   1.791   8.162  1.2004  1.8371  1.2498
   33MOL0     H 4393   4.417   1.687   8.190 -2.3014 -4.0327 -1.4391
   33MOL0     H 4394   4.264   1.503   8.291 -2.7565 -0.4102  0.9510
   33MOL0     H 4395   4.133   1.616   8.252 -0.6390  0.1205 -2.4502
   33MOL0     H 4396   4.176   1.592   8.009  1.1984 -1.3041 -2.6648
   33MOL0     H 4397   4.317   1.495   8.041 -0.4845 -1.2801  0.0734
   33MOL0     H 4398   4.144   1.344   8.178  1.2377  0.4894  0.2011
   33MOL0     H 4399   4.028   1.431   8.103  0.2448  0.6191 -1.0507
   33MOL0     H 4400   4.237   1.253   7.953 -0.2482 -0.4665 -3.2033
   33MOL0     H 4401   4.065   1.220   7.977  1.6893 -1.1930  1.4987
   33MOL0     H 4402   4.017   1.384   7.820 -1.0681 -1.3423  0.3883
   33MOL0     H 4403   4.190   1.433   7.827  0.7807 -0.6545  0.5533
   33MOL0     H 4404   4.259   1.211   7.751 -0.8065 -2.5670  1.0570
   33MOL0     H 4405   4.153   1.302   7.629  0.3743 -0.8114  0.3621
   33MOL0     H 4406   4.170   1.013   7.896 -0.3540  0.9238 -0.7481
   33MOL0     H 4407   3.949   0.723   7.756 -0.7550  1.9198 -0.0207
   33MOL0     H 4408   4.121   0.733   7.799  0.7427  2.2045  0.9636
   33MOL0     H 4409   3.870   0.755   7.985  0.5148 -0.2487  2.4926
   33MOL0     H 4410   4.012   0.861   8.022 -2.6468  2.1961 -0.8488
   33MOL0     H 4411   4.020   0.643   8.140  0.7156  3.6022  0.8678
   33MOL0     H 4412   4.159   0.687   8.054  0.3569  1.1637 -1.7689
   33MOL0     H 4413   4.094   0.519   7.874  0.0396  1.7623 -0.6780
   33MOL0     H 4414   3.940   0.501   7.948 -0.5563 -0.6269  2.3250
   33MOL0     H 4415   4.252   0.256   8.132 -0.1673  0.2431  0.6659
   33MOL0     H 4416   4.282  -0.105   8.099 -0.3238 -0.5028  0.8046
   33MOL0     H 4417   4.351   0.041   8.132 -0.3934  1.1245 -1.3539
   33MOL0     H 4418   4.259  -0.029   8.265 -1.1036  1.9333  0.4199
   33MOL0     H 4419   3.907  -0.371   8.220  1.5866  0.0216 -1.1323
   33MOL0     H 4420   3.770  -0.586   8.223  2.5601 -1.2350 -1.6062
   33MOL0     H 4421   3.421  -0.611   7.926  1.1286  0.4718  0.1040
   33MOL0     H 4422   3.545  -0.717   7.881  0.6553  1.6737 -1.1541
   33MOL0     H 4423   3.370  -0.760   8.109  1.1038  0.5803  0.2551
   33MOL0     H 4424   3.342  -0.841   7.953 -2.7744  0.1933  1.9824
   33MOL0     H 4425   3.610  -0.882   8.117 -0.3829 -0.7899  1.5707
   33MOL0     H 4426   3.561  -0.971   7.982 -0.6656  0.3729 -0.0144
   33MOL0     H 4427   3.407  -0.956   8.238  0.6445 -1.2415  0.6012
   33MOL0     H 4428   3.354  -1.047   8.112  0.3315 -0.4707 -0.2266
   33MOL0     H 4429   3.641  -1.078   8.227  1.7999 -1.1793 -3.6240
   33MOL0     H 4430   3.572  -1.194   8.119 -3.0455 -0.6492 -0.9238
   33MOL0     H 4431   3.489  -1.141   8.403  0.0938  0.3774  0.2494
   33MOL0     H 4432   3.405  -1.252   8.280 -0.9872  2.4229  1.7044
   33MOL0     H 4433   3.686  -1.266   8.404  0.5440 -1.0996  2.7188
   33MOL0     H 4434   3.635  -1.399   8.299  3.4367 -0.4402  2.5844
   33MOL0     H 4435   3.497  -1.332   8.553 -0.5262  0.2810 -0.1967
   33MOL0     H 4436   3.611  -1.461   8.510  2.0466  0.1895 -2.4447
   33MOL0     H 4437   3.582  -0.466   7.861  1.1825 -0.7957  0.1886
   33MOL0     H 4438   3.696  -0.259   7.867  0.9045 -1.0173 -0.8861
   33MOL0     H 4439   3.824   0.072   8.003  1.4161 -1.4360 -0.6151
   33MOL0     H 4440   3.865   0.320   8.004  1.2831  1.7487  2.7525
   33MOL0     H 4441   4.287   2.163   8.482 -1.5665  1.1585  0.9687
   33MOL0     H 4442   4.075   2.256   8.532  0.3043 -0.9545 -0.0289
   33MOL0     H 4443   3.515   2.261   8.300 -0.4087  1.0363  0.5140
   33MOL0     H 4444   3.317   2.354   8.403 -1.7793 -1.8813  1.2957
   33MOL0     H 4445   3.148   2.445   8.529 -1.7154  0.9703  0.9374
   33MOL0     H 4446   3.126   2.508   8.687  0.9680 -1.6911  1.4595
   33MOL0     H 4447   3.226   2.687   8.520 -0.5573 -1.1254 -0.3138
   33MOL0     H 4448   3.369   2.593   8.507 -3.4210 -3.5746 -4.5238
   33MOL0     H 4449   3.438   2.653   8.725 -0.5598 -2.3076 -0.3499
   33MOL0     H 4450   3.271   2.687   8.790  1.3792  1.0406  1.1840
   33MOL0     H 4451   3.283   2.898   8.645 -0.6994 -0.1035  0.4265
   33MOL0     H 4452   3.435   2.836   8.582  0.4194  0.9030  0.4874
   33MOL0     H 4453   3.599   2.971   8.942 -1.9914  0.0175  2.4942
   33MOL0     H 4454   3.484   2.240   8.779 -3.7596 -0.9987 -0.0950
   33MOL0     H 4455   3.678   2.133   8.677  1.4684 -0.5088 -0.5715
   34MOL0     O 4456   5.628   0.102   0.057 -0.2572  0.5666  1.2222
   34MOL0     C 4457   5.669   0.091  -0.064  0.1733  1.1402 -0.1658
   34MOL0     O 4458   5.585   0.056  -0.167  0.1282  0.4760  0.5012
   34MOL0     C 4459   5.455   0.015  -0.147 -0.3455 -0.6363 -0.1796
   34MOL0     C 4460   5.360   0.059  -0.240  0.2678  0.2712  0.3690
   34MOL0     C 4461   5.225   0.041  -0.230  0.5182 -0.3973 -0.7057
   34MOL0     C 4462   5.172  -0.042  -0.130 -0.5572 -0.5454  0.9848
   34MOL0     O 4463   5.038  -0.061  -0.103  0.6216 -0.2180 -0.7772
   34MOL0     C 4464   4.993  -0.082   0.034 -0.9701 -0.5605  0.2631
   34MOL0     C 4465   4.850  -0.057   0.043 -0.5187  0.3552  0.1673
   34MOL0     C 4466   4.787  -0.110   0.171  0.5909  0.1182  0.8883
   34MOL0     C 4467   4.632  -0.094   0.180  0.7231  1.0933  0.0875
   34MOL0     C 4468   4.578  -0.153   0.319  0.5116 -0.3324  0.2294
   34MOL0     C 4469   4.584  -0.305   0.326 -0.6856  0.3424  1.2393
   34MOL0     C 4470   4.489  -0.370   0.422  0.0675 -0.4187 -0.3319
   34MOL0     C 4471   4.560  -0.430   0.545  0.2477  0.2678 -0.1130
   34MOL0     N 4472   4.645  -0.331   0.617 -0.1747  0.6469 -0.2889
   34MOL0     C 4473   4.779  -0.326   0.616 -0.4929  0.0558 -0.3788
   34MOL0     C 4474   4.806  -0.219   0.701 -0.4662  0.4747 -0.0689
   34MOL0     C 4475   4.944  -0.170   0.745 -0.3041  0.0519  0.2672
   34MOL0     C 4476   4.988  -0.056   0.640 -0.0129 -0.0326  0.5536
   34MOL0     C 4477   4.896   0.071   0.639  0.2179  0.3132  0.5346
   34MOL0     C 4478   4.868   0.133   0.775 -0.6781 -0.3797  1.4748
   34MOL0     O 4479   4.990   0.190   0.819  0.5145  0.1877 -0.5750
   34MOL0     C 4480   4.993   0.226   0.948 -0.3459  0.0923 -0.1644
   34MOL0     C 4481   4.906   0.330   1.003 -1.0448  0.6071 -0.0527
   34MOL0     C 4482   4.895   0.375   1.130  0.4432  0.0328 -0.2965
   34MOL0     C 4483   4.812   0.500   1.168  0.4067  0.6500 -0.0913
   34MOL0     C 4484   4.975   0.304   1.222 -0.4679  0.4604  0.5957
   34MOL0     C 4485   4.955   0.317   1.368  0.0928  0.1626  0.2449
   34MOL0     O 4486   4.831   0.335   1.420  0.9154  0.4186 -0.9122
   34MOL0     C 4487   4.821   0.350   1.561  0.6680  0.4839 -0.2169
   34MOL0     C 4488   4.748   0.456   1.607  0.0898 -0.6543  0.3436
   34MOL0     C 4489   4.726   0.474   1.749 -0.6597  0.3573  1.0066
   34MOL0     C 4490   4.771   0.382   1.843  0.2425 -0.3959  0.4965
   34MOL0     O 4491   4.756   0.399   1.978 -0.0336 -0.5900  0.3168
   34MOL0     C 4492   4.874   0.372   2.063  0.0662  0.8920 -0.2941
   34MOL0     C 4493   4.826   0.382   2.210  0.1414  0.2659  0.2461
   34MOL0     C 4494   4.796   0.243   2.276 -0.2154 -0.6209  0.6246
   34MOL0     C 4495   4.704   0.263   2.402  1.1247 -0.2705  0.3243
   34MOL0     C 4496   4.691   0.136   2.483 -0.0004  0.8710  0.4110
   34MOL0     C 4497   4.629   0.171   2.618 -0.0110  0.1595 -0.9077
   34MOL0     C 4498   4.592   0.038   2.686 -0.4096  0.2348 -0.5873
   34MOL0     C 4499   4.709   0.004   2.778 -0.4248 -0.2278 -1.0741
   34MOL0    Cl 4500   4.704  -0.164   2.836 -0.4788 -0.3654  0.0010
   34MOL0     C 4501   4.836   0.268   1.788  0.4619 -0.2264 -0.6404
   34MOL0     C 4502   4.870   0.258   1.652 -0.9720  0.3053 -0.7859
   34MOL0     O 4503   5.059   0.323   1.431 -0.9274  0.0168 -0.6218
   34MOL0     C 4504   5.069   0.205   1.175 -0.6193 -0.6490  1.0072
   34MOL0     C 4505   5.080   0.177   1.039  0.3222  0.2755 -0.1023
   34MOL0     N 4506   4.692  -0.176   0.764 -0.2869 -0.0548 -0.5837
   34MOL0     N 4507   4.594  -0.232   0.699  0.0114  0.4256 -0.0525
   34MOL0     C 4508   5.272  -0.092  -0.043 -0.1525  0.6222  0.4867
   34MOL0     C 4509   5.410  -0.064  -0.043  1.0603 -0.8883 -0.9331
   34MOL0     C 4510   5.812   0.103  -0.097 -0.2716  0.3935 -0.3717
   34MOL0     C 4511   5.909   0.126   0.002  0.8115  0.7003 -0.1410
   34MOL0     C 4512   6.041   0.144  -0.034  0.5873  0.3398 -0.2939
   34MOL0     C 4513   6.086   0.129  -0.164  0.3157 -0.9235  0.4246
   34MOL0     O 4514   6.218   0.152  -0.179 -0.2838 -0.2628 -0.0543
   34MOL0     C 4515   6.259   0.173  -0.320 -0.5758 -0.2860  0.0487
   34MOL0     C 4516   6.219   0.306  -0.372 -0.1813  0.8807  1.0904
   34MOL0     C 4517   6.278   0.414  -0.272 -0.3235  0.8016  1.2934
   34MOL0     C 4518   6.257   0.554  -0.331 -0.2689  0.6164 -0.2801
   34MOL0     C 4519   6.328   0.575  -0.453 -0.2451  0.1649  0.1848
   34MOL0     C 4520   6.410   0.593  -0.544 -0.5635 -1.1222  0.0047
   34MOL0     C 4521   5.989   0.095  -0.261  0.1864 -0.1089 -0.5015
   34MOL0     C 4522   5.860   0.076  -0.224  0.5628  0.5146  0.3830
   34MOL0     H 4523   5.386   0.117  -0.328  0.1634 -0.3593 -0.0825
   34MOL0     H 4524   5.160   0.103  -0.292  0.6904 -0.2903 -0.7817
   34MOL0     H 4525   5.006  -0.181   0.079 -1.8754  1.5680  6.1735
   34MOL0     H 4526   5.047  -0.014   0.102 -0.3009 -2.4510  1.7132
   34MOL0     H 4527   4.837   0.051   0.028 -2.9149 -0.4149 -6.0562
   34MOL0     H 4528   4.798  -0.099  -0.043  0.8116  1.0375 -1.0149
   34MOL0     H 4529   4.807  -0.217   0.171  3.0958  0.5238  0.1356
   34MOL0     H 4530   4.829  -0.056   0.257 -1.5412  1.8690  0.9120
   34MOL0     H 4531   4.604   0.011   0.171 -1.0532  0.5263 -2.0266
   34MOL0     H 4532   4.600  -0.148   0.090  1.2857  3.5276 -1.6678
   34MOL0     H 4533   4.630  -0.113   0.406 -0.5980  2.9789 -0.4617
   34MOL0     H 4534   4.477  -0.112   0.326  0.0705 -1.3568  0.0837
   34MOL0     H 4535   4.550  -0.341   0.228  2.3581 -1.8030  0.8361
   34MOL0     H 4536   4.688  -0.337   0.340  0.1491  0.7205 -2.8574
   34MOL0     H 4537   4.412  -0.298   0.451  1.3351  1.2237 -0.8859
   34MOL0     H 4538   4.437  -0.450   0.368  2.0593 -3.6226  2.1073
   34MOL0     H 4539   4.623  -0.511   0.508 -0.6183 -0.6748  0.4077
   34MOL0     H 4540   4.495  -0.476   0.621  0.6586  0.0746  0.1275
   34MOL0     H 4541   4.846  -0.395   0.565 -1.1183 -2.0673  1.5019
   34MOL0     H 4542   4.941  -0.134   0.848 -0.5727  0.6997  0.0402
   34MOL0     H 4543   5.015  -0.253   0.744 -0.3160  0.0344 -1.0241
   34MOL0     H 4544   4.974  -0.094   0.538  0.2994  4.1976 -1.2699
   34MOL0     H 4545   5.095  -0.038   0.656  0.0673 -0.4292  0.4740
   34MOL0     H 4546   4.800   0.039   0.599  1.0538 -0.9790 -0.5427
   34MOL0     H 4547   4.935   0.153   0.579 -1.8271  1.3702  0.5773
   34MOL0     H 4548   4.836   0.053   0.842  0.1335 -1.7340  0.2875
   34MOL0     H 4549   4.791   0.207   0.752 -3.8076 -3.4762  1.1579
   34MOL0     H 4550   4.842   0.380   0.932 -0.0653  1.1668 -0.5572
   34MOL0     H 4551   4.744   0.486   1.252  1.3878 -1.4503  0.4222
   34MOL0     H 4552   4.879   0.581   1.198 -0.7614  1.0703  1.4931
   34MOL0     H 4553   4.756   0.534   1.081 -1.5343  0.1649  0.9166
   34MOL0     H 4554   4.705   0.515   1.527 -2.1080 -0.4600  1.5881
   34MOL0     H 4555   4.666   0.563   1.768 -1.6681 -0.6315  2.6530
   34MOL0     H 4556   4.931   0.279   2.052 -0.1550  0.5807  1.0091
   34MOL0     H 4557   4.951   0.445   2.035  2.3840 -1.2534  0.0622
   34MOL0     H 4558   4.915   0.417   2.263 -1.3541  2.0405  1.7431
   34MOL0     H 4559   4.747   0.456   2.223 -1.3283 -0.5488 -3.0750
   34MOL0     H 4560   4.891   0.193   2.292  0.0831 -0.7911 -1.4115
   34MOL0     H 4561   4.746   0.175   2.206 -1.8660  1.1350  0.0236
   34MOL0     H 4562   4.748   0.339   2.468 -1.6815  0.7014  1.2021
   34MOL0     H 4563   4.608   0.301   2.367  0.4175 -1.3629  1.0399
   34MOL0     H 4564   4.787   0.084   2.486  0.9304  2.3028 -1.6403
   34MOL0     H 4565   4.626   0.072   2.422 -0.1834  0.4460  1.0508
   34MOL0     H 4566   4.690   0.227   2.690  2.1945 -0.5497 -2.1171
   34MOL0     H 4567   4.538   0.231   2.607  1.2139  2.2103 -0.3714
   34MOL0     H 4568   4.570  -0.042   2.614 -0.4788  0.0369 -0.3459
   34MOL0     H 4569   4.506   0.054   2.752 -1.6600  1.3589 -2.3714
   34MOL0     H 4570   4.721   0.076   2.860 -0.0565 -1.5800  0.1077
   34MOL0     H 4571   4.793   0.008   2.708 -0.5307 -1.0603 -1.2553
   34MOL0     H 4572   4.877   0.187   1.847 -0.4222 -2.0147 -2.3596
   34MOL0     H 4573   4.921   0.170   1.612 -1.8730 -0.0314 -1.2274
   34MOL0     H 4574   5.143   0.163   1.241 -1.2744 -1.7818  1.0420
   34MOL0     H 4575   5.155   0.110   0.997  0.4366  0.5137 -0.2813
   34MOL0     H 4576   5.234  -0.151   0.040 -4.1914 -2.5034 -3.1070
   34MOL0     H 4577   5.483  -0.081   0.036  0.5600  3.2845  0.6699
   34MOL0     H 4578   5.889   0.117   0.108  1.7750  0.6845  0.0480
   34MOL0     H 4579   6.109   0.173   0.046  1.7833 -0.0519 -1.1446
   34MOL0     H 4580   6.367   0.165  -0.338 -0.6025  0.5677 -0.5280
   34MOL0     H 4581   6.213   0.093  -0.378  0.9984 -1.1894 -0.0067
   34MOL0     H 4582   6.111   0.306  -0.390  0.3456 -0.9727 -3.4916
   34MOL0     H 4583   6.254   0.332  -0.473  1.5345  0.3654  1.5137
   34MOL0     H 4584   6.380   0.387  -0.244 -0.4912  0.1929  1.3208
   34MOL0     H 4585   6.212   0.416  -0.185 -2.5550  0.8540 -0.2980
   34MOL0     H 4586   6.300   0.613  -0.250  2.9155 -2.7566  0.7353
   34MOL0     H 4587   6.150   0.564  -0.349 -0.2900 -0.0744 -0.5831
   34MOL0     H 4588   6.471   0.600  -0.631 -1.0658  2.1973 -0.2130
   34MOL0     H 4589   6.018   0.087  -0.365 -0.2777  4.3793 -1.1578
   34MOL0     H 4590   5.784   0.064  -0.300 -1.1077 -1.6590  2.2765
   35MOL0     O 4591  11.234  10.633   4.219 -0.2423  0.3622  0.5538
   35MOL0     C 4592  11.227  10.703   4.322  0.2071  0.4922  0.1791
   35MOL0     O 4593  11.343  10.749   4.390 -0.0824 -0.3776 -0.5440
   35MOL0     C 4594  11.457  10.733   4.329  0.1891  0.2927 -1.1377
   35MOL0     C 4595  11.511  10.606   4.343 -0.3540 -0.5180  0.2892
   35MOL0     C 4596  11.626  10.583   4.268  0.7903  0.2903 -1.0192
   35MOL0     C 4597  11.681  10.681   4.183 -0.3390 -0.4681 -0.1523
   35MOL0     O 4598  11.782  10.642   4.109 -0.1919  0.3108 -0.1737
   35MOL0     C 4599  11.840  10.738   4.023 -0.5348  0.2109 -0.0211
   35MOL0     C 4600  11.951  10.659   3.936  0.6243  0.0792  1.2162
   35MOL0     C 4601  11.968  10.731   3.803 -0.3945  0.4031  0.1601
   35MOL0     C 4602  12.019  10.629   3.692 -0.0899 -0.1065  0.2033
   35MOL0     C 4603  12.044  10.700   3.557  0.2246  0.4470 -0.4333
   35MOL0     C 4604  12.089  10.604   3.451 -0.0144  0.5069 -0.0944
   35MOL0     C 4605  12.228  10.548   3.478 -0.3380  0.2138 -0.0761
   35MOL0     C 4606  12.262  10.446   3.364 -0.1037  0.2546 -0.6946
   35MOL0     N 4607  12.397  10.396   3.377 -0.3792 -0.4828 -0.5770
   35MOL0     C 4608  12.421  10.263   3.415 -0.1428 -0.6267 -0.4355
   35MOL0     C 4609  12.559  10.245   3.416 -0.1711 -0.1908  0.0764
   35MOL0     C 4610  12.636  10.120   3.444  0.5878 -0.8559  0.0981
   35MOL0     C 4611  12.709  10.053   3.321  1.2888  0.0912 -1.0486
   35MOL0     C 4612  12.859  10.087   3.314 -0.1663  0.8869 -0.7327
   35MOL0     C 4613  12.913  10.039   3.184  0.0650  0.1919 -0.2080
   35MOL0     O 4614  12.858  10.121   3.084  0.4653 -0.6205 -0.3824
   35MOL0     C 4615  12.833  10.052   2.965  0.0135 -0.3026 -0.3244
   35MOL0     C 4616  12.935   9.991   2.897  0.1109 -0.3431  0.2817
   35MOL0     C 4617  12.926   9.947   2.760  0.8304  0.0132  1.0201
   35MOL0     C 4618  13.049   9.896   2.695  0.3030  0.8209  0.6332
   35MOL0     C 4619  12.804   9.960   2.693  0.7186  0.3009  0.6194
   35MOL0     C 4620  12.772   9.916   2.553  0.4979 -0.1916  0.3617
   35MOL0     O 4621  12.670   9.972   2.492 -0.0342  0.2473  0.7711
   35MOL0     C 4622  12.630   9.925   2.365 -0.4805  0.7174  0.9048
   35MOL0     C 4623  12.623   9.784   2.336 -0.2075  0.4437  0.4014
   35MOL0     C 4624  12.593   9.734   2.210  0.2016 -0.1270  0.2210
   35MOL0     C 4625  12.551   9.833   2.112 -0.2822 -0.5446 -0.9271
   35MOL0     O 4626  12.509   9.778   1.991  0.5109  0.1834  0.0428
   35MOL0     C 4627  12.431   9.863   1.897 -0.1183 -0.0980 -0.0173
   35MOL0     C 4628  12.324   9.773   1.825  0.3954  0.1547  0.4440
   35MOL0     C 4629  12.231   9.710   1.930 -0.3099  0.1144 -0.6118
   35MOL0     C 4630  12.270   9.561   1.950 -0.2717  1.0454 -0.0232
   35MOL0     C 4631  12.182   9.479   2.054 -0.4103 -0.0901  0.5164
   35MOL0     C 4632  12.095   9.373   1.977  1.1033 -0.3533 -1.3309
   35MOL0     C 4633  12.034   9.284   2.081 -0.3187  0.8288 -0.0586
   35MOL0     C 4634  11.939   9.179   2.033  0.8947  0.2201 -0.3451
   35MOL0    Cl 4635  11.832   9.125   2.164 -0.2329 -0.1052 -0.1249
   35MOL0     C 4636  12.554   9.973   2.140 -0.5939 -0.3011 -0.2584
   35MOL0     C 4637  12.590  10.023   2.269  0.0748  0.3959 -0.0868
   35MOL0     O 4638  12.855   9.838   2.497 -0.6377  0.1992  0.6017
   35MOL0     C 4639  12.694  10.019   2.768 -0.0678 -0.5724  0.2694
   35MOL0     C 4640  12.718  10.063   2.900  0.2810 -0.4365  0.6834
   35MOL0     N 4641  12.608  10.375   3.393 -0.1881  0.0335 -0.1549
   35MOL0     N 4642  12.517  10.457   3.362 -0.1394 -0.1575  0.5574
   35MOL0     C 4643  11.623  10.811   4.180  0.1201 -0.4277  0.0304
   35MOL0     C 4644  11.513  10.835   4.257 -0.3280  0.2689  0.2303
   35MOL0     C 4645  11.105  10.702   4.402  0.2413  0.2563  0.7095
   35MOL0     C 4646  11.114  10.734   4.536 -0.1736 -0.4224 -0.1983
   35MOL0     C 4647  11.002  10.763   4.615 -0.8521 -0.4718 -0.2713
   35MOL0     C 4648  10.877  10.769   4.557 -0.2801  0.3083 -0.3748
   35MOL0     O 4649  10.758  10.807   4.614 -0.2693 -0.3195 -0.2365
   35MOL0     C 4650  10.760  10.874   4.735  0.5745  0.4444 -0.1777
   35MOL0     C 4651  10.824  11.019   4.737 -0.4136 -0.3563 -0.7571
   35MOL0     C 4652  10.740  11.101   4.661 -0.0563  1.1110  0.1133
   35MOL0     C 4653  10.597  11.127   4.729 -0.2905 -0.5718  0.7310
   35MOL0     C 4654  10.564  11.266   4.693  0.4330  0.0262  0.9375
   35MOL0     C 4655  10.533  11.383   4.662  0.0436 -0.6095  0.8286
   35MOL0     C 4656  10.860  10.740   4.418 -0.0171 -0.1889 -0.3337
   35MOL0     C 4657  10.977  10.714   4.344 -0.1793  0.4072  0.4358
   35MOL0     H 4658  11.464  10.521   4.392  1.2184 -1.2689  0.5607
   35MOL0     H 4659  11.665  10.482   4.265 -1.1149 -0.4700 -2.6806
   35MOL0     H 4660  11.753  10.773   3.967 -2.6672  1.3710  3.7056
   35MOL0     H 4661  11.892  10.819   4.076 -0.8232  1.3415 -1.3988
   35MOL0     H 4662  12.047  10.644   3.985  0.9560  2.7010  1.5357
   35MOL0     H 4663  11.919  10.561   3.900 -1.5186  1.0887  0.1209
   35MOL0     H 4664  11.881  10.780   3.759 -0.8071  0.4768  1.0419
   35MOL0     H 4665  12.050  10.802   3.816  0.2896 -0.4540  0.6665
   35MOL0     H 4666  12.115  10.592   3.727  0.0424  1.7244  1.9283
   35MOL0     H 4667  11.951  10.545   3.676 -0.4431 -0.4233  2.8899
   35MOL0     H 4668  11.950  10.742   3.520 -1.3015 -0.9516  1.6924
   35MOL0     H 4669  12.113  10.784   3.567 -1.6816  1.9612  0.6519
   35MOL0     H 4670  12.009  10.530   3.440 -0.5659  1.1045 -0.1456
   35MOL0     H 4671  12.084  10.668   3.363 -0.8276  1.3377  0.5369
   35MOL0     H 4672  12.299  10.629   3.492 -1.9107  1.9318 -1.5232
   35MOL0     H 4673  12.217  10.502   3.577  0.5596  2.5744  1.1995
   35MOL0     H 4674  12.243  10.498   3.270  0.5442  0.7055 -0.5825
   35MOL0     H 4675  12.191  10.364   3.381  1.7825 -1.1331  1.1304
   35MOL0     H 4676  12.346  10.185   3.425  0.9469 -1.8636 -1.5751
   35MOL0     H 4677  12.708  10.152   3.519 -0.2902  1.3622  0.0605
   35MOL0     H 4678  12.565  10.052   3.493  1.0501 -0.8552  0.7810
   35MOL0     H 4679  12.653  10.086   3.232 -0.5141  2.6476  0.8668
   35MOL0     H 4680  12.703   9.946   3.342  2.1291  0.7462  3.3590
   35MOL0     H 4681  12.909  10.038   3.398 -0.1245 -0.5100 -1.5362
   35MOL0     H 4682  12.883  10.194   3.324  1.0299  0.4215  2.8712
   35MOL0     H 4683  12.894   9.934   3.161 -0.0276 -0.2429  1.6946
   35MOL0     H 4684  13.021  10.056   3.177 -0.4392  3.4979 -2.2337
   35MOL0     H 4685  13.034   9.994   2.943  1.5459  0.7913 -2.5879
   35MOL0     H 4686  13.042   9.790   2.668 -1.4692  1.0554  0.0584
   35MOL0     H 4687  13.055   9.947   2.599 -0.0260 -2.4985 -1.2949
   35MOL0     H 4688  13.136   9.934   2.748  0.5353  0.2658  0.6624
   35MOL0     H 4689  12.627   9.713   2.418 -0.1662 -0.4277 -0.3439
   35MOL0     H 4690  12.570   9.632   2.181 -0.4401  0.7265 -2.5668
   35MOL0     H 4691  12.381   9.937   1.960  1.6240 -0.6532  2.1562
   35MOL0     H 4692  12.488   9.913   1.819 -0.4470  3.4303  1.8203
   35MOL0     H 4693  12.273   9.838   1.754  2.4959  0.8686 -0.4996
   35MOL0     H 4694  12.367   9.691   1.767  0.6160  0.5279  0.0714
   35MOL0     H 4695  12.128   9.712   1.893 -0.3317  2.8850 -0.5989
   35MOL0     H 4696  12.250   9.760   2.026 -5.0372 -0.1101  0.6937
   35MOL0     H 4697  12.266   9.514   1.851  0.9276 -0.4518  0.6035
   35MOL0     H 4698  12.371   9.557   1.991 -0.0951 -1.3898 -0.5602
   35MOL0     H 4699  12.124   9.550   2.113 -1.5075 -1.7941  1.5872
   35MOL0     H 4700  12.260   9.432   2.114  1.0932 -2.6629 -3.0954
   35MOL0     H 4701  12.012   9.413   1.917  1.2010 -3.1288 -3.5140
   35MOL0     H 4702  12.166   9.315   1.918  2.9343 -1.7948  2.0396
   35MOL0     H 4703  11.992   9.349   2.158  0.6992 -0.0342  1.2751
   35MOL0     H 4704  12.123   9.231   2.117  0.5315  1.8307 -0.6058
   35MOL0     H 4705  11.993   9.088   2.005  2.1796 -0.0876  2.6749
   35MOL0     H 4706  11.868   9.213   1.957 -0.0575 -2.2337 -0.6339
   35MOL0     H 4707  12.531  10.055   2.073  0.0071  1.1315  1.2037
   35MOL0     H 4708  12.596  10.129   2.294  1.9342  0.1936  0.4606
   35MOL0     H 4709  12.603  10.042   2.714  0.0476 -0.2374  0.2149
   35MOL0     H 4710  12.637  10.122   2.944  0.3523  1.8402 -1.9561
   35MOL0     H 4711  11.669  10.886   4.117  2.4773 -1.5434  0.3071
   35MOL0     H 4712  11.469  10.935   4.258 -0.5743  0.1823 -0.8541
   35MOL0     H 4713  11.213  10.738   4.581  0.4551 -0.0130 -1.5675
   35MOL0     H 4714  11.026  10.795   4.716  1.5195  0.3901 -1.0256
   35MOL0     H 4715  10.658  10.874   4.774  0.4532  0.1525 -0.4948
   35MOL0     H 4716  10.826  10.817   4.803  0.4971 -3.6160 -3.1230
   35MOL0     H 4717  10.928  11.005   4.708 -0.1240 -1.7906  0.7999
   35MOL0     H 4718  10.835  11.052   4.841  0.5635  1.4139 -1.3856
   35MOL0     H 4719  10.727  11.066   4.558  3.3007  1.4080 -0.5310
   35MOL0     H 4720  10.791  11.195   4.638  1.7634 -0.3103 -2.0654
   35MOL0     H 4721  10.598  11.122   4.838  1.8740  0.4458  0.8198
   35MOL0     H 4722  10.519  11.063   4.687 -3.8557  3.5520  0.3689
   35MOL0     H 4723  10.504  11.483   4.637  2.2191 -0.3694 -1.0019
   35MOL0     H 4724  10.764  10.754   4.367 -0.9607 -0.4762  1.2983
   35MOL0     H 4725  10.965  10.702   4.237  0.9841  4.0686 -0.2603
   36MOL0     O 4726  10.247   8.298   5.098 -0.6174 -0.3906 -0.2020
   36MOL0     C 4727  10.291   8.409   5.122 -0.5205 -1.0195  0.9694
   36MOL0     O 4728  10.217   8.520   5.098  0.7213  1.4632  0.1292
   36MOL0     C 4729  10.098   8.500   5.031  0.8720 -0.0290 -0.7238
   36MOL0     C 4730  10.089   8.463   4.897 -0.1503  0.2794 -0.4715
   36MOL0     C 4731   9.964   8.475   4.841  1.1446  0.4611  0.1261
   36MOL0     C 4732   9.847   8.500   4.912  0.8236 -0.3239 -0.3341
   36MOL0     O 4733   9.731   8.492   4.838  0.9695 -0.4514 -0.2307
   36MOL0     C 4734   9.614   8.445   4.908  0.0673 -0.5687  0.0613
   36MOL0     C 4735   9.483   8.429   4.818 -1.0552 -0.6150 -0.3412
   36MOL0     C 4736   9.485   8.296   4.754 -0.5586  0.6655  0.0811
   36MOL0     C 4737   9.619   8.255   4.682 -0.7273  0.2444 -0.4190
   36MOL0     C 4738   9.607   8.111   4.623 -0.2775 -0.4557 -0.2521
   36MOL0     C 4739   9.497   8.083   4.506  0.1213  0.7699  2.0033
   36MOL0     C 4740   9.542   7.960   4.418  0.1473 -0.5180  0.3735
   36MOL0     C 4741   9.429   7.883   4.356 -0.3560 -0.5797 -0.1822
   36MOL0     N 4742   9.361   7.980   4.279 -0.0553  0.5705  0.2837
   36MOL0     C 4743   9.420   8.042   4.170 -0.4522  0.5706 -0.4905
   36MOL0     C 4744   9.314   8.117   4.123  0.6181 -1.1389  0.6084
   36MOL0     C 4745   9.317   8.223   4.024  0.6629 -0.5290  1.1815
   36MOL0     C 4746   9.353   8.354   4.082  0.1919 -0.8099 -0.3975
   36MOL0     C 4747   9.512   8.374   4.079  1.1699 -0.3491 -0.0585
   36MOL0     C 4748   9.550   8.515   4.101 -0.0305  0.4859  0.8304
   36MOL0     O 4749   9.694   8.533   4.085 -0.5991 -0.1642  0.0098
   36MOL0     C 4750   9.735   8.645   4.029 -0.2070  0.4067 -0.6563
   36MOL0     C 4751   9.670   8.768   4.026  0.6250 -0.6857 -0.6471
   36MOL0     C 4752   9.737   8.878   3.990 -0.0692 -0.0708 -0.4823
   36MOL0     C 4753   9.658   9.008   3.994  0.3164 -0.0643 -0.3859
   36MOL0     C 4754   9.864   8.870   3.926  0.3448 -0.4493  0.1523
   36MOL0     C 4755   9.947   8.984   3.857  0.3675  0.7693 -0.1225
   36MOL0     O 4756  10.077   8.959   3.828 -0.1081 -0.2180  0.7628
   36MOL0     C 4757  10.158   9.061   3.791 -0.6070  0.6758 -0.0582
   36MOL0     C 4758  10.243   9.119   3.890  1.0999 -0.3294 -0.2365
   36MOL0     C 4759  10.312   9.238   3.864 -0.3267 -0.4312 -0.3567
   36MOL0     C 4760  10.298   9.296   3.737 -0.2706 -0.1043 -0.0828
   36MOL0     O 4761  10.347   9.420   3.712  0.2624  0.1270  0.3833
   36MOL0     C 4762  10.315   9.524   3.807  0.4341 -0.0359 -0.6247
   36MOL0     C 4763  10.169   9.554   3.802 -0.0009  0.4361 -0.0864
   36MOL0     C 4764  10.108   9.593   3.670 -0.3751 -0.2115  0.5700
   36MOL0     C 4765  10.170   9.722   3.611  0.2185  0.5630  0.3991
   36MOL0     C 4766  10.125   9.738   3.464 -0.0913 -0.0785 -0.4295
   36MOL0     C 4767  10.187   9.867   3.401 -0.8537  1.3458 -0.8812
   36MOL0     C 4768  10.241   9.827   3.259 -0.6431  0.3704 -1.2646
   36MOL0     C 4769  10.281   9.946   3.182 -0.5928  0.6289  1.4073
   36MOL0    Cl 4770  10.430  10.016   3.258 -0.2029 -0.5495  0.3944
   36MOL0     C 4771  10.220   9.235   3.632 -0.6558 -0.5135 -0.5654
   36MOL0     C 4772  10.155   9.116   3.664 -0.3798  1.0500  0.4055
   36MOL0     O 4773   9.895   9.089   3.841  0.0029 -0.5055 -0.4274
   36MOL0     C 4774   9.927   8.748   3.922 -0.6768  0.1087  0.2993
   36MOL0     C 4775   9.865   8.640   3.980 -0.4113  0.7422 -0.5304
   36MOL0     N 4776   9.202   8.095   4.202  0.4427  0.2388 -0.7320
   36MOL0     N 4777   9.231   8.013   4.299  0.4636  0.8502  0.4846
   36MOL0     C 4778   9.856   8.522   5.047 -0.0026  0.2886  0.3946
   36MOL0     C 4779   9.980   8.520   5.110 -0.0268  0.1492  0.7717
   36MOL0     C 4780  10.423   8.422   5.172 -0.0284 -0.1488 -0.7081
   36MOL0     C 4781  10.481   8.312   5.228 -0.9883  0.1421 -0.1683
   36MOL0     C 4782  10.604   8.310   5.290 -0.0220  0.7356  0.6137
   36MOL0     C 4783  10.676   8.431   5.299  0.3489  0.6666  1.0549
   36MOL0     O 4784  10.801   8.433   5.359 -0.5084 -0.0396  0.4095
   36MOL0     C 4785  10.827   8.550   5.441 -0.3907 -0.2111  0.3653
   36MOL0     C 4786  10.930   8.520   5.552 -0.1706 -0.4613  0.0293
   36MOL0     C 4787  11.062   8.477   5.482 -1.1502 -0.0440  0.7852
   36MOL0     C 4788  11.153   8.585   5.414  1.1351 -1.6495 -0.1382
   36MOL0     C 4789  11.155   8.705   5.504 -0.4334 -0.2321  0.4824
   36MOL0     C 4790  11.144   8.802   5.578 -0.8320  0.4414  0.2581
   36MOL0     C 4791  10.614   8.548   5.250  0.0324 -0.0767  0.3980
   36MOL0     C 4792  10.496   8.548   5.182  0.0595  0.3739 -0.3416
   36MOL0     H 4793  10.185   8.450   4.849 -0.3565  1.3440 -1.2172
   36MOL0     H 4794   9.955   8.442   4.738  0.5519 -0.0754  0.3453
   36MOL0     H 4795   9.641   8.346   4.945  2.3203 -0.2736 -0.6597
   36MOL0     H 4796   9.591   8.508   4.994  0.7920 -1.2094  0.7382
   36MOL0     H 4797   9.396   8.443   4.884  0.5888  0.9413  1.6264
   36MOL0     H 4798   9.487   8.510   4.745  0.6952  1.4945  1.9068
   36MOL0     H 4799   9.454   8.220   4.827  2.4771 -2.4241 -1.5617
   36MOL0     H 4800   9.411   8.298   4.674 -0.4834  1.3696  0.0290
   36MOL0     H 4801   9.636   8.324   4.599  0.7214 -0.8538 -1.0789
   36MOL0     H 4802   9.709   8.254   4.744  0.3199  1.4970 -1.8383
   36MOL0     H 4803   9.706   8.077   4.592  0.4348 -0.9722  2.3547
   36MOL0     H 4804   9.588   8.042   4.706 -4.6692  0.0294 -0.5897
   36MOL0     H 4805   9.397   8.073   4.549 -2.1697  0.8512 -2.7646
   36MOL0     H 4806   9.496   8.177   4.451  4.4874 -0.0438  0.1489
   36MOL0     H 4807   9.604   8.016   4.346  0.5034  0.9962  1.7990
   36MOL0     H 4808   9.598   7.890   4.480 -0.9179 -0.4452  1.4361
   36MOL0     H 4809   9.371   7.822   4.426 -2.4772  0.7354 -0.6943
   36MOL0     H 4810   9.464   7.802   4.291 -2.6689 -1.2828 -0.6306
   36MOL0     H 4811   9.522   8.023   4.137  0.0203 -1.0460  1.6526
   36MOL0     H 4812   9.383   8.204   3.940 -2.6586 -0.5614 -1.6329
   36MOL0     H 4813   9.217   8.231   3.980  2.3434 -1.5816 -3.3309
   36MOL0     H 4814   9.313   8.354   4.184 -1.3616 -0.2540 -0.9724
   36MOL0     H 4815   9.302   8.433   4.026 -1.1938 -1.9052 -0.7580
   36MOL0     H 4816   9.554   8.358   3.980 -0.5151  0.7766 -1.0190
   36MOL0     H 4817   9.568   8.318   4.154  0.4460 -0.5919  0.3143
   36MOL0     H 4818   9.517   8.545   4.201  0.8212 -2.7225  2.2135
   36MOL0     H 4819   9.487   8.572   4.033  2.5226  2.8647  0.2805
   36MOL0     H 4820   9.563   8.773   4.042  0.9780  2.8757  1.7706
   36MOL0     H 4821   9.630   9.046   3.895 -0.9505 -1.2235 -0.5061
   36MOL0     H 4822   9.579   8.994   4.069 -2.0764  0.8784 -2.5627
   36MOL0     H 4823   9.726   9.082   4.036 -0.5289  0.4132  0.1537
   36MOL0     H 4824  10.265   9.069   3.983  2.3255 -0.5737 -0.6434
   36MOL0     H 4825  10.374   9.286   3.938  0.7684  1.8828 -2.6206
   36MOL0     H 4826  10.335   9.485   3.907 -2.9823 -1.4037 -0.3560
   36MOL0     H 4827  10.375   9.613   3.787  0.3944  0.2764  0.5811
   36MOL0     H 4828  10.110   9.470   3.838 -0.1288  0.0822 -1.0847
   36MOL0     H 4829  10.166   9.629   3.881  0.6512 -0.6546  1.0174
   36MOL0     H 4830  10.004   9.623   3.685 -0.7457 -0.9734 -0.3608
   36MOL0     H 4831  10.110   9.503   3.607  1.7429 -0.5733  1.0898
   36MOL0     H 4832  10.138   9.812   3.665 -4.3477 -0.4135 -0.2371
   36MOL0     H 4833  10.278   9.709   3.608 -0.0117 -1.3808 -0.6337
   36MOL0     H 4834  10.016   9.752   3.465  0.1710  2.3022 -0.4576
   36MOL0     H 4835  10.151   9.642   3.417  1.0590  0.3719 -0.7451
   36MOL0     H 4836  10.115   9.949   3.411 -2.5522 -0.3600  2.3326
   36MOL0     H 4837  10.276   9.895   3.459  1.9825 -0.5727 -3.9357
   36MOL0     H 4838  10.162   9.772   3.207  0.1895 -0.6092 -1.5156
   36MOL0     H 4839  10.334   9.772   3.272  1.3857  4.1140  2.4811
   36MOL0     H 4840  10.191  10.008   3.185 -1.3992 -0.5249  1.8500
   36MOL0     H 4841  10.306   9.927   3.078 -0.3040  0.3994  1.5187
   36MOL0     H 4842  10.214   9.283   3.535 -1.2819  0.7610  0.0702
   36MOL0     H 4843  10.092   9.071   3.588 -0.0902  0.4927  0.4938
   36MOL0     H 4844  10.024   8.727   3.879 -0.8138 -2.2656  0.9863
   36MOL0     H 4845   9.917   8.547   3.998  2.5518  2.4085  0.1136
   36MOL0     H 4846   9.761   8.521   5.098 -1.7528  0.0744 -2.6132
   36MOL0     H 4847   9.987   8.533   5.217  0.0756  1.9170  0.5784
   36MOL0     H 4848  10.432   8.215   5.225 -0.9733  0.1490 -1.9734
   36MOL0     H 4849  10.658   8.224   5.328  2.3692  2.1483  0.6281
   36MOL0     H 4850  10.870   8.637   5.390  1.7461 -0.9508  0.7879
   36MOL0     H 4851  10.741   8.590   5.496  0.8743 -0.2023  2.4676
   36MOL0     H 4852  10.884   8.443   5.614  5.4395 -1.7790  3.2549
   36MOL0     H 4853  10.955   8.592   5.631  0.4644 -2.5961  1.8523
   36MOL0     H 4854  11.041   8.405   5.402  1.2853  2.2795 -2.1874
   36MOL0     H 4855  11.124   8.424   5.555  1.3307 -0.3502 -1.3923
   36MOL0     H 4856  11.117   8.621   5.317 -1.1599 -2.1637  0.4634
   36MOL0     H 4857  11.258   8.558   5.399  2.0035  0.6914  1.2160
   36MOL0     H 4858  11.129   8.879   5.651  1.3770  2.5614 -1.3872
   36MOL0     H 4859  10.650   8.648   5.275  0.7017 -0.1229 -0.3729
   36MOL0     H 4860  10.449   8.642   5.157  1.3602  1.5005  1.2084
   37MOL0     O 4861   6.403   7.716   5.837  0.0557  0.1119  0.0948
   37MOL0     C 4862   6.357   7.600   5.842  0.7584  0.3274  0.4367
   37MOL0     O 4863   6.335   7.517   5.736 -0.2685 -0.4707  0.9374
   37MOL0     C 4864   6.430   7.532   5.636  0.2844 -0.2330  0.3330
   37MOL0     C 4865   6.406   7.629   5.533  0.0486  0.3301  0.7638
   37MOL0     C 4866   6.491   7.625   5.424  0.5052 -0.8466  0.3223
   37MOL0     C 4867   6.591   7.530   5.410 -0.4029  0.8947  0.3157
   37MOL0     O 4868   6.656   7.504   5.296  0.4175  0.2395  0.1692
   37MOL0     C 4869   6.794   7.460   5.304 -0.1031 -0.0813 -0.0528
   37MOL0     C 4870   6.867   7.540   5.188  0.1893  0.7645  0.3070
   37MOL0     C 4871   6.847   7.692   5.214 -0.0473  1.3623  0.5885
   37MOL0     C 4872   6.725   7.749   5.142  0.6891  0.3433 -0.4516
   37MOL0     C 4873   6.702   7.893   5.173  0.9172  0.2521 -0.4813
   37MOL0     C 4874   6.582   7.936   5.083  0.0633  0.0030  0.6433
   37MOL0     C 4875   6.532   8.078   5.108 -0.2239 -0.0257  0.2736
   37MOL0     C 4876   6.437   8.136   4.999  0.9058  0.1184  0.3216
   37MOL0     N 4877   6.499   8.147   4.872  0.6570  0.2445  0.3272
   37MOL0     C 4878   6.626   8.162   4.844 -0.1898  0.3872 -0.2448
   37MOL0     C 4879   6.631   8.187   4.713 -0.1100 -0.7508  0.3617
   37MOL0     C 4880   6.743   8.205   4.620  0.2600  0.4634 -0.1534
   37MOL0     C 4881   6.801   8.347   4.627 -0.7807  0.2790  0.4049
   37MOL0     C 4882   6.912   8.361   4.728  0.1655  0.9245 -0.2902
   37MOL0     C 4883   7.004   8.484   4.712  1.1227  0.5175 -0.6505
   37MOL0     O 4884   6.936   8.613   4.690  0.2537  0.1233  0.0191
   37MOL0     C 4885   7.003   8.735   4.684  0.6714 -0.3458 -0.1593
   37MOL0     C 4886   7.093   8.763   4.582 -0.7131  0.5068 -0.0628
   37MOL0     C 4887   7.143   8.889   4.569 -0.4945  0.7213  0.0786
   37MOL0     C 4888   7.253   8.904   4.467  0.6173 -0.1638 -0.0742
   37MOL0     C 4889   7.109   8.996   4.650  0.6282  0.7882 -0.3554
   37MOL0     C 4890   7.151   9.138   4.647  0.9741 -0.3809  0.3993
   37MOL0     O 4891   7.135   9.213   4.766 -0.3464  0.3767  0.6871
   37MOL0     C 4892   7.202   9.331   4.790  0.9243  0.7315 -0.4506
   37MOL0     C 4893   7.218   9.362   4.920  0.3769  0.2894 -0.7296
   37MOL0     C 4894   7.284   9.480   4.956  0.1501  0.9510 -0.1380
   37MOL0     C 4895   7.332   9.568   4.863  0.7119 -0.4169 -0.0841
   37MOL0     O 4896   7.408   9.665   4.917 -0.4965  0.2364  0.0452
   37MOL0     C 4897   7.538   9.672   4.863  1.2994  0.2921 -0.2143
   37MOL0     C 4898   7.626   9.552   4.899 -0.3492  0.0388 -0.0042
   37MOL0     C 4899   7.645   9.540   5.051 -1.1025 -0.8449  1.1404
   37MOL0     C 4900   7.688   9.398   5.086  0.0042  0.4318  0.9078
   37MOL0     C 4901   7.738   9.396   5.222  0.0535 -0.5686 -1.3079
   37MOL0     C 4902   7.808   9.260   5.254 -0.7814  0.1427  0.5664
   37MOL0     C 4903   7.886   9.245   5.388  0.0275  0.6978 -0.1063
   37MOL0     C 4904   7.950   9.107   5.414 -0.5060 -0.1958  0.3789
   37MOL0    Cl 4905   8.087   9.098   5.298  0.3042  0.0436  0.1563
   37MOL0     C 4906   7.313   9.542   4.727  0.1083 -0.1163 -0.4779
   37MOL0     C 4907   7.253   9.420   4.695  0.4149 -0.0996  0.3354
   37MOL0     O 4908   7.223   9.168   4.554 -0.5042 -0.1108  0.3412
   37MOL0     C 4909   7.019   8.960   4.750  0.1459  0.2430 -0.6505
   37MOL0     C 4910   6.962   8.839   4.766 -0.2026  0.4710 -0.2166
   37MOL0     N 4911   6.508   8.187   4.666 -0.5918 -0.8194  0.1347
   37MOL0     N 4912   6.428   8.178   4.761 -0.2457 -0.1480  0.3252
   37MOL0     C 4913   6.613   7.444   5.517  0.5560  0.7174 -0.1584
   37MOL0     C 4914   6.534   7.443   5.631 -0.1077 -0.1833  1.0063
   37MOL0     C 4915   6.297   7.549   5.971 -0.1515 -0.7703 -0.2424
   37MOL0     C 4916   6.261   7.651   6.064 -0.2882  0.7660 -0.4888
   37MOL0     C 4917   6.201   7.608   6.192  0.1710 -0.1419 -0.2760
   37MOL0     C 4918   6.191   7.470   6.218 -0.0476 -0.4240  0.7730
   37MOL0     O 4919   6.121   7.406   6.326 -0.0111  0.0241  0.2957
   37MOL0     C 4920   6.152   7.461   6.455  0.3793 -0.9746  0.0713
   37MOL0     C 4921   6.186   7.342   6.539 -0.7778 -0.0912  0.3134
   37MOL0     C 4922   6.188   7.382   6.693 -0.4007  0.4511  1.4315
   37MOL0     C 4923   6.327   7.447   6.736 -0.3336 -0.1132 -0.5949
   37MOL0     C 4924   6.434   7.342   6.729 -0.4572 -0.4294 -0.5022
   37MOL0     C 4925   6.529   7.267   6.727  0.0250 -0.2143  1.5145
   37MOL0     C 4926   6.228   7.373   6.121  0.4732  0.7420  0.3467
   37MOL0     C 4927   6.276   7.415   5.997  0.6598 -0.3631  0.5459
   37MOL0     H 4928   6.327   7.702   5.553 -0.4930 -0.1389  0.3609
   37MOL0     H 4929   6.471   7.699   5.348 -1.6378 -2.4506 -0.8084
   37MOL0     H 4930   6.844   7.486   5.397  3.4926 -1.1999 -1.5143
   37MOL0     H 4931   6.810   7.353   5.284 -3.4930 -0.4959 -1.2376
   37MOL0     H 4932   6.972   7.510   5.180  0.8669  3.3278 -2.1129
   37MOL0     H 4933   6.831   7.520   5.087  0.6848 -0.9471  0.4336
   37MOL0     H 4934   6.834   7.698   5.323  0.0728  1.1624  0.6136
   37MOL0     H 4935   6.938   7.748   5.189  0.0790  0.0300 -2.3056
   37MOL0     H 4936   6.750   7.753   5.036  2.9393 -0.4933 -0.0180
   37MOL0     H 4937   6.631   7.694   5.150  0.1292  1.3159 -0.1759
   37MOL0     H 4938   6.691   7.909   5.281 -0.9585 -1.8190 -0.2994
   37MOL0     H 4939   6.788   7.957   5.150  2.0711 -0.3216  1.8646
   37MOL0     H 4940   6.609   7.925   4.977 -1.2427 -2.7027  0.5149
   37MOL0     H 4941   6.495   7.874   5.105 -0.3277  0.2568 -0.1605
   37MOL0     H 4942   6.474   8.067   5.200 -0.5589 -0.7882 -0.0242
   37MOL0     H 4943   6.613   8.151   5.120 -0.2641  0.5209 -2.2369
   37MOL0     H 4944   6.410   8.239   5.026  1.1534 -0.4059  2.8631
   37MOL0     H 4945   6.352   8.070   4.981 -0.7694  2.7911 -2.6627
   37MOL0     H 4946   6.709   8.139   4.910 -1.6150  2.2397  2.3582
   37MOL0     H 4947   6.813   8.131   4.659  1.2973 -0.0680 -2.7910
   37MOL0     H 4948   6.714   8.177   4.518 -0.7741 -1.6296  0.6541
   37MOL0     H 4949   6.718   8.419   4.633  0.9429  2.6421 -1.9266
   37MOL0     H 4950   6.855   8.367   4.534 -3.9995  1.8705 -1.3012
   37MOL0     H 4951   6.971   8.269   4.736 -0.4874  0.6383  4.1848
   37MOL0     H 4952   6.868   8.375   4.827  1.6248  0.1821  0.4982
   37MOL0     H 4953   7.077   8.469   4.632  1.1769  0.0095 -0.5099
   37MOL0     H 4954   7.048   8.487   4.812  0.2026 -0.9983 -0.1596
   37MOL0     H 4955   7.114   8.680   4.516  0.9702 -0.5654  1.6748
   37MOL0     H 4956   7.281   8.808   4.422  0.4013 -0.2753  0.0309
   37MOL0     H 4957   7.233   8.970   4.382  1.5650  1.3101  0.8162
   37MOL0     H 4958   7.344   8.940   4.515 -0.6788 -0.1239  2.5005
   37MOL0     H 4959   7.181   9.298   4.999  0.0599 -1.4355 -2.2272
   37MOL0     H 4960   7.307   9.505   5.059 -0.0385 -2.4947  0.8822
   37MOL0     H 4961   7.544   9.686   4.755  2.6981 -0.3426 -0.2386
   37MOL0     H 4962   7.586   9.762   4.904 -0.3717  1.1083  0.0420
   37MOL0     H 4963   7.580   9.459   4.864 -1.3207 -0.1070  1.5639
   37MOL0     H 4964   7.722   9.547   4.848 -1.5525  0.5714 -2.4594
   37MOL0     H 4965   7.557   9.579   5.104 -1.2143  0.0261  0.3475
   37MOL0     H 4966   7.737   9.598   5.061  1.1387 -3.7895 -0.9595
   37MOL0     H 4967   7.609   9.322   5.082 -1.6193  2.0437  0.9372
   37MOL0     H 4968   7.761   9.364   5.012  0.5571 -2.0329  2.4799
   37MOL0     H 4969   7.655   9.401   5.293  1.8224 -4.7641  1.4317
   37MOL0     H 4970   7.811   9.472   5.251  0.0750 -1.4149  1.0461
   37MOL0     H 4971   7.749   9.170   5.238 -1.3601  0.3984  1.2071
   37MOL0     H 4972   7.880   9.251   5.171 -2.3696 -1.3500 -0.7189
   37MOL0     H 4973   7.822   9.257   5.476  0.1507  0.8215 -0.0324
   37MOL0     H 4974   7.960   9.326   5.392 -1.1662  1.8765 -1.0320
   37MOL0     H 4975   7.876   9.031   5.389 -0.4970 -0.0948  0.0411
   37MOL0     H 4976   7.989   9.112   5.516  0.0467  2.3213  0.1227
   37MOL0     H 4977   7.359   9.597   4.645 -1.5730  0.9451 -0.7608
   37MOL0     H 4978   7.244   9.397   4.589  2.9887 -0.9938  0.2457
   37MOL0     H 4979   6.996   9.045   4.813  0.5257  0.3312 -0.6318
   37MOL0     H 4980   6.891   8.819   4.846 -0.0600 -0.8271 -0.3898
   37MOL0     H 4981   6.683   7.362   5.505 -1.4355 -1.3416  1.3239
   37MOL0     H 4982   6.556   7.363   5.700  3.5048 -1.5241 -1.3809
   37MOL0     H 4983   6.271   7.753   6.030  0.0717  1.2586  1.0162
   37MOL0     H 4984   6.167   7.682   6.263  0.8005 -1.1081  1.0753
   37MOL0     H 4985   6.241   7.525   6.452 -0.2497 -0.0135  1.2291
   37MOL0     H 4986   6.078   7.531   6.495 -1.0813 -3.3943  1.8454
   37MOL0     H 4987   6.279   7.290   6.515 -0.7151 -2.8713  5.2114
   37MOL0     H 4988   6.109   7.266   6.525 -0.8848  0.3648 -1.9294
   37MOL0     H 4989   6.159   7.295   6.752 -2.8809 -0.5712 -1.0783
   37MOL0     H 4990   6.098   7.440   6.717 -2.7803 -1.6593 -1.6227
   37MOL0     H 4991   6.320   7.473   6.842  2.7826 -2.8041  0.4488
   37MOL0     H 4992   6.353   7.534   6.676  3.8260 -2.3503 -2.4877
   37MOL0     H 4993   6.610   7.198   6.712 -0.6879 -0.6101 -0.9198
   37MOL0     H 4994   6.211   7.266   6.128 -3.4030  0.9524 -2.7065
   37MOL0     H 4995   6.282   7.333   5.926 -0.7504 -3.5970  3.8366
   38MOL0     O 4996   0.228   5.516   1.196 -0.9777  0.5072 -0.3593
   38MOL0     C 4997   0.187   5.429   1.115 -1.2172 -1.4162 -0.7606
   38MOL0     O 4998   0.224   5.407   0.987 -0.4030  0.0082 -0.2029
   38MOL0     C 4999   0.252   5.519   0.911  1.0375  0.8130  0.0702
   38MOL0     C 5000   0.213   5.507   0.773 -0.3650 -0.4885 -0.6857
   38MOL0     C 5001   0.249   5.615   0.684  0.1489  0.0277 -0.3949
   38MOL0     C 5002   0.318   5.725   0.721  0.3238  0.4391 -1.0610
   38MOL0     O 5003   0.350   5.825   0.638  0.5848  1.2697  0.7434
   38MOL0     C 5004   0.309   5.960   0.674 -0.3736  0.3621 -1.1228
   38MOL0     C 5005   0.438   6.037   0.653 -0.2179 -0.2515 -0.4696
   38MOL0     C 5006   0.406   6.188   0.682 -0.0588  0.3039 -0.1566
   38MOL0     C 5007   0.469   6.296   0.595  0.5841  0.9033  0.4528
   38MOL0     C 5008   0.446   6.428   0.664 -0.6265  0.3809 -0.5248
   38MOL0     C 5009   0.478   6.550   0.573 -0.0325 -1.0266  0.2814
   38MOL0     C 5010   0.609   6.535   0.495 -0.3296 -0.4450  0.7044
   38MOL0     C 5011   0.653   6.672   0.429 -1.2438  0.5110  0.3324
   38MOL0     N 5012   0.558   6.726   0.335  0.2111 -0.2939 -0.8516
   38MOL0     C 5013   0.529   6.681   0.203 -0.3244  0.7667 -0.6542
   38MOL0     C 5014   0.427   6.763   0.167  0.7028  0.2034 -0.2076
   38MOL0     C 5015   0.337   6.735   0.049  0.0903 -0.0320  0.7354
   38MOL0     C 5016   0.212   6.655   0.076 -0.2160  0.5485  0.8656
   38MOL0     C 5017   0.197   6.555   0.188  0.0449  0.5155  0.1627
   38MOL0     C 5018   0.291   6.435   0.176 -0.4342  0.3526 -0.6546
   38MOL0     O 5019   0.261   6.312   0.249 -0.0816 -0.0169 -0.4914
   38MOL0     C 5020   0.205   6.203   0.191  0.6258  0.6244 -0.6367
   38MOL0     C 5021   0.138   6.200   0.069 -0.1726 -0.3548 -0.3701
   38MOL0     C 5022   0.088   6.081   0.003 -0.8205 -0.6940 -0.0012
   38MOL0     C 5023   0.035   6.085  -0.142  0.2646 -0.4000 -0.7458
   38MOL0     C 5024   0.113   5.959   0.073 -0.3599  0.9195  0.1228
   38MOL0     C 5025   0.082   5.829   0.024 -0.0749  0.8096  0.1744
   38MOL0     O 5026   0.031   5.743   0.112  0.3516  0.1817 -0.3463
   38MOL0     C 5027   0.075   5.613   0.117 -0.7681  0.0427  0.0408
   38MOL0     C 5028   0.186   5.555   0.058  0.4171  0.1462  0.2440
   38MOL0     C 5029   0.208   5.416   0.085  0.7044  0.0206 -0.4740
   38MOL0     C 5030   0.132   5.335   0.172 -1.1312  0.1410  0.1562
   38MOL0     O 5031   0.159   5.199   0.180 -0.4333  0.2254  0.0042
   38MOL0     C 5032   0.140   5.116   0.068  0.5749  0.4652  0.3261
   38MOL0     C 5033   0.009   5.034   0.073  0.1441 -1.1828 -0.3202
   38MOL0     C 5034   0.017   4.932   0.190 -0.0976  0.1687 -0.2388
   38MOL0     C 5035  -0.118   4.872   0.206  0.3461 -0.2916 -0.4607
   38MOL0     C 5036  -0.106   4.766   0.309 -0.4637 -0.1636  0.0925
   38MOL0     C 5037  -0.243   4.712   0.353 -0.2595  0.5229  1.0839
   38MOL0     C 5038  -0.216   4.580   0.437  0.2392 -0.0512  0.4239
   38MOL0     C 5039  -0.205   4.456   0.335 -1.1649 -0.0052 -0.6728
   38MOL0    Cl 5040  -0.345   4.451   0.218 -0.3603  0.0410 -0.0208
   38MOL0     C 5041   0.032   5.396   0.243 -0.4692  0.4354 -0.7364
   38MOL0     C 5042   0.010   5.537   0.211  1.1121 -0.4209  1.3231
   38MOL0     O 5043   0.120   5.802  -0.087 -0.8466 -0.9530  0.1772
   38MOL0     C 5044   0.170   5.958   0.203 -0.2910 -0.0762 -0.7306
   38MOL0     C 5045   0.214   6.080   0.264 -0.7380  0.1977 -0.5716
   38MOL0     N 5046   0.404   6.867   0.260 -0.1170 -0.4192 -0.3353
   38MOL0     N 5047   0.497   6.843   0.352  0.6860  0.1498 -0.2913
   38MOL0     C 5048   0.344   5.736   0.856  0.4298  1.0162  0.3155
   38MOL0     C 5049   0.318   5.633   0.952  0.2300 -0.8940  0.6915
   38MOL0     C 5050   0.097   5.330   1.168  0.2753 -0.2096 -0.3324
   38MOL0     C 5051   0.041   5.242   1.078 -1.1668  0.8778  0.4617
   38MOL0     C 5052  -0.045   5.155   1.136  0.2591  0.2852  0.0476
   38MOL0     C 5053  -0.097   5.163   1.261  0.1247  0.8477  0.2719
   38MOL0     O 5054  -0.190   5.062   1.284  0.1261  0.5184 -0.1691
   38MOL0     C 5055  -0.287   5.074   1.393  0.5411 -0.3806 -0.9793
   38MOL0     C 5056  -0.395   4.973   1.399  0.4150  0.4104  0.0531
   38MOL0     C 5057  -0.483   4.984   1.272  0.2170 -0.5436  0.9288
   38MOL0     C 5058  -0.586   4.873   1.252 -1.1166  0.5404 -0.3553
   38MOL0     C 5059  -0.679   4.869   1.365 -0.3948  0.5934 -0.7356
   38MOL0     C 5060  -0.742   4.862   1.465  1.4598  0.4992  0.8233
   38MOL0     C 5061  -0.057   5.261   1.343  0.0606 -0.8870  0.2268
   38MOL0     C 5062   0.050   5.341   1.298 -0.7646 -0.1554  0.1746
   38MOL0     H 5063   0.168   5.423   0.721 -1.1808  1.1153 -2.7070
   38MOL0     H 5064   0.222   5.607   0.579  0.2237  1.8673 -0.5927
   38MOL0     H 5065   0.236   5.998   0.603  2.5682  2.6518 -3.1945
   38MOL0     H 5066   0.280   5.980   0.777 -1.2147  0.4791 -1.3801
   38MOL0     H 5067   0.509   5.993   0.725 -0.5809 -3.1116 -1.7070
   38MOL0     H 5068   0.489   6.025   0.557  1.6355 -0.6170  0.5116
   38MOL0     H 5069   0.299   6.207   0.683  0.0645  1.0776 -0.7176
   38MOL0     H 5070   0.450   6.210   0.780  2.0164  0.0213 -0.9626
   38MOL0     H 5071   0.577   6.282   0.583  0.4146  0.4245 -0.5990
   38MOL0     H 5072   0.419   6.295   0.498 -1.8721 -1.9936  1.6175
   38MOL0     H 5073   0.339   6.436   0.686 -1.0594 -0.0308 -2.3313
   38MOL0     H 5074   0.503   6.439   0.756 -0.7687  0.1454 -0.4077
   38MOL0     H 5075   0.400   6.555   0.497  2.3791 -2.4448 -2.4550
   38MOL0     H 5076   0.471   6.643   0.631 -0.7944 -1.3375  0.7012
   38MOL0     H 5077   0.680   6.501   0.570 -1.3082 -1.3177  1.2631
   38MOL0     H 5078   0.604   6.466   0.410  1.8344  1.5994 -1.2017
   38MOL0     H 5079   0.746   6.663   0.372 -2.6878 -1.4467 -1.8936
   38MOL0     H 5080   0.668   6.743   0.511 -3.3344  1.9231 -0.4079
   38MOL0     H 5081   0.566   6.595   0.148 -1.6729  0.4999 -1.1831
   38MOL0     H 5082   0.316   6.824  -0.012 -0.0585 -1.5415 -1.5236
   38MOL0     H 5083   0.392   6.675  -0.024 -2.5505  2.1490 -3.5224
   38MOL0     H 5084   0.195   6.604  -0.020 -0.4042  1.1580  0.5716
   38MOL0     H 5085   0.128   6.724   0.085 -0.3212  0.6799 -0.7192
   38MOL0     H 5086   0.093   6.523   0.196  0.2434 -0.7660 -1.6957
   38MOL0     H 5087   0.223   6.601   0.284  1.3788 -1.4092  0.7849
   38MOL0     H 5088   0.384   6.465   0.226 -0.5315 -1.1722  0.5132
   38MOL0     H 5089   0.309   6.401   0.074  0.3312 -0.4629 -0.2623
   38MOL0     H 5090   0.138   6.301   0.030 -3.9838  0.4828  1.3127
   38MOL0     H 5091   0.029   6.186  -0.186 -3.9796 -0.4713 -0.7298
   38MOL0     H 5092   0.103   6.021  -0.199  2.1352 -0.3296  1.2682
   38MOL0     H 5093  -0.069   6.054  -0.142  0.2927 -1.5291  4.9672
   38MOL0     H 5094   0.226   5.615  -0.023 -2.0183 -0.0801 -1.2340
   38MOL0     H 5095   0.291   5.381   0.026  0.3388  0.0907 -1.0442
   38MOL0     H 5096   0.133   5.180  -0.020  1.5494 -1.4917 -1.2658
   38MOL0     H 5097   0.219   5.040   0.064  0.0652 -0.0919  0.5534
   38MOL0     H 5098  -0.068   5.109   0.087  0.9235  0.2116 -2.8678
   38MOL0     H 5099   0.000   4.978  -0.020  1.1725  0.5360 -1.5170
   38MOL0     H 5100   0.050   4.992   0.276 -0.3417 -1.1716  0.8304
   38MOL0     H 5101   0.091   4.854   0.172 -1.4411 -0.4750 -3.6305
   38MOL0     H 5102  -0.191   4.941   0.248  0.7902 -0.8485  1.3053
   38MOL0     H 5103  -0.142   4.824   0.111  1.1490 -4.4672  1.2297
   38MOL0     H 5104  -0.057   4.808   0.398  0.5080  0.5669 -0.7668
   38MOL0     H 5105  -0.042   4.685   0.272 -2.8459 -1.0857 -2.3259
   38MOL0     H 5106  -0.316   4.774   0.405 -1.4477 -0.9079  1.1813
   38MOL0     H 5107  -0.307   4.688   0.268 -1.6032  1.4103  1.8020
   38MOL0     H 5108  -0.303   4.565   0.502 -1.0147  0.2931 -1.1207
   38MOL0     H 5109  -0.122   4.585   0.494  0.5879 -1.5587  0.0383
   38MOL0     H 5110  -0.209   4.364   0.395 -1.4636  0.2986 -0.2152
   38MOL0     H 5111  -0.114   4.472   0.277 -0.9880 -0.5669 -0.5569
   38MOL0     H 5112  -0.040   5.342   0.304 -0.3141  1.0646  0.0102
   38MOL0     H 5113  -0.068   5.590   0.266  0.5170 -2.2246  2.3041
   38MOL0     H 5114   0.177   5.866   0.260  2.3638  1.3542  1.4591
   38MOL0     H 5115   0.243   6.094   0.367  0.2600 -0.4322 -0.7556
   38MOL0     H 5116   0.394   5.820   0.902  0.3986  0.5981  1.1473
   38MOL0     H 5117   0.353   5.650   1.053 -0.2002  0.8942  0.5728
   38MOL0     H 5118   0.072   5.230   0.975  0.8972  1.2554  0.9932
   38MOL0     H 5119  -0.103   5.088   1.074 -1.6247  2.0241 -0.1798
   38MOL0     H 5120  -0.229   5.074   1.485  1.0214 -2.1453 -1.2482
   38MOL0     H 5121  -0.344   5.168   1.395  1.4000  0.2879 -3.3657
   38MOL0     H 5122  -0.447   4.988   1.494 -0.7275 -0.1524 -0.4534
   38MOL0     H 5123  -0.352   4.872   1.399 -0.0278  0.1970  1.5819
   38MOL0     H 5124  -0.415   4.975   1.187 -0.4779  1.1537  0.1380
   38MOL0     H 5125  -0.526   5.085   1.267 -0.0696 -0.6353  1.4026
   38MOL0     H 5126  -0.530   4.780   1.248  3.0714  2.8442 -3.6129
   38MOL0     H 5127  -0.636   4.868   1.155  2.2981 -0.8105 -2.1916
   38MOL0     H 5128  -0.813   4.864   1.545  0.9590 -1.7138  0.5080
   38MOL0     H 5129  -0.108   5.263   1.438 -1.6887 -2.4507 -0.5945
   38MOL0     H 5130   0.103   5.410   1.363  2.5571 -1.9551 -0.4090
   39MOL0     O 5131   4.448   8.069  11.111  0.0304 -0.6450 -0.2952
   39MOL0     C 5132   4.334   8.112  11.148 -0.0948  1.1263 -0.3698
   39MOL0     O 5133   4.300   8.238  11.177  0.5159 -0.2230 -0.0202
   39MOL0     C 5134   4.388   8.338  11.169 -0.3957 -0.6379  0.0375
   39MOL0     C 5135   4.391   8.431  11.267 -0.1699 -0.1313 -0.4271
   39MOL0     C 5136   4.484   8.533  11.274  1.4057 -0.1113 -0.2334
   39MOL0     C 5137   4.574   8.555  11.183 -0.5330  0.2528  0.1178
   39MOL0     O 5138   4.679   8.642  11.189  0.2681 -0.8987  0.0213
   39MOL0     C 5139   4.682   8.727  11.306  0.0229  0.5668  0.5384
   39MOL0     C 5140   4.790   8.838  11.280 -0.0604  0.1554 -0.0555
   39MOL0     C 5141   4.807   8.920  11.402  0.0010  0.8074  0.1299
   39MOL0     C 5142   4.919   9.015  11.390 -0.0655  0.1627  1.3909
   39MOL0     C 5143   4.897   9.108  11.263  0.1770  0.4930 -0.7605
   39MOL0     C 5144   4.966   9.244  11.265  0.5894 -0.1969 -0.9961
   39MOL0     C 5145   5.112   9.231  11.278 -0.2254  0.9342  0.7177
   39MOL0     C 5146   5.172   9.368  11.249 -0.2213  0.1860  0.5373
   39MOL0     N 5147   5.136   9.488  11.331 -0.5937  0.4925 -0.3917
   39MOL0     C 5148   5.145   9.497  11.467  0.1568 -0.0974 -0.3378
   39MOL0     C 5149   5.087   9.613  11.496 -0.0566  0.2411  0.1750
   39MOL0     C 5150   5.049   9.677  11.635 -0.3802  0.2142 -0.5442
   39MOL0     C 5151   4.926   9.631  11.705 -0.0931 -0.7328 -0.7829
   39MOL0     C 5152   4.857   9.511  11.643 -0.3440 -0.6058  0.0574
   39MOL0     C 5153   4.719   9.504  11.711  0.3013 -0.1935 -0.8283
   39MOL0     O 5154   4.620   9.410  11.658 -0.1987  0.0857 -0.7862
   39MOL0     C 5155   4.623   9.279  11.697  0.2270 -0.1909  1.5134
   39MOL0     C 5156   4.730   9.211  11.754  0.1524  0.7073 -0.0397
   39MOL0     C 5157   4.723   9.072  11.772  0.2215  0.0807  0.7588
   39MOL0     C 5158   4.847   9.003  11.838 -0.9800  0.1148  0.0839
   39MOL0     C 5159   4.598   9.011  11.755  0.5005 -0.8442  0.3827
   39MOL0     C 5160   4.584   8.861  11.774 -0.8984 -0.2868 -0.6236
   39MOL0     O 5161   4.474   8.817  11.837  0.7229 -0.6211  0.0112
   39MOL0     C 5162   4.449   8.683  11.861  0.0963  0.7934  0.8052
   39MOL0     C 5163   4.435   8.603  11.749 -0.5349  0.2356  0.8340
   39MOL0     C 5164   4.411   8.469  11.771 -0.1673 -1.0910  0.7531
   39MOL0     C 5165   4.406   8.415  11.897 -0.1742 -0.5474  0.0096
   39MOL0     O 5166   4.381   8.283  11.912 -0.1728  0.3043 -0.2604
   39MOL0     C 5167   4.478   8.189  11.861 -0.0020  0.3527  1.2733
   39MOL0     C 5168   4.444   8.055  11.937 -0.4540  0.8700  1.0007
   39MOL0     C 5169   4.516   8.050  12.071  0.0175  1.0542 -0.8635
   39MOL0     C 5170   4.480   7.909  12.134 -0.2488  0.3549 -0.2661
   39MOL0     C 5171   4.543   7.909  12.266 -0.5318  0.6101 -0.8748
   39MOL0     C 5172   4.541   7.784  12.352 -0.1932 -0.0946  0.7200
   39MOL0     C 5173   4.417   7.703  12.327 -0.3780 -0.2277 -0.1077
   39MOL0     C 5174   4.391   7.601  12.443  0.8619 -0.0366  0.6539
   39MOL0    Cl 5175   4.258   7.487  12.397 -0.0018  0.4603 -0.3742
   39MOL0     C 5176   4.411   8.499  12.008 -0.3877 -0.0249 -0.3078
   39MOL0     C 5177   4.428   8.631  11.994 -0.4229 -0.0633  0.6224
   39MOL0     O 5178   4.663   8.786  11.724  0.4386  1.0158 -0.7756
   39MOL0     C 5179   4.489   9.085  11.696  0.5505  0.3375 -0.0513
   39MOL0     C 5180   4.502   9.221  11.661 -0.4037 -0.0186 -0.2630
   39MOL0     N 5181   5.044   9.663  11.369 -0.1323 -0.0364 -0.1414
   39MOL0     N 5182   5.080   9.590  11.272  0.0191  0.6809 -0.7529
   39MOL0     C 5183   4.575   8.460  11.074  0.5222  0.6453 -0.3733
   39MOL0     C 5184   4.486   8.348  11.060 -0.9595  0.6968  0.6189
   39MOL0     C 5185   4.227   8.009  11.154 -0.2942 -0.8685  0.4311
   39MOL0     C 5186   4.092   8.038  11.118 -0.3253  0.0259  0.3137
   39MOL0     C 5187   3.995   7.939  11.124 -0.3276  0.6040  0.5304
   39MOL0     C 5188   4.026   7.809  11.160  0.3911 -0.3361  0.9981
   39MOL0     O 5189   3.929   7.712  11.158  1.0569  0.7145 -0.1053
   39MOL0     C 5190   3.949   7.574  11.190 -0.4860  0.0526 -0.2299
   39MOL0     C 5191   3.818   7.506  11.225 -0.5865 -0.2029 -0.5038
   39MOL0     C 5192   3.722   7.513  11.101  0.0682 -0.3959  0.3171
   39MOL0     C 5193   3.611   7.405  11.122  0.2549  0.5017  0.0345
   39MOL0     C 5194   3.502   7.420  11.028  0.1455  0.1243 -0.1955
   39MOL0     C 5195   3.436   7.443  10.927  0.2520  1.0850 -0.1455
   39MOL0     C 5196   4.158   7.776  11.191  0.5397  0.1889 -0.3727
   39MOL0     C 5197   4.263   7.874  11.190  1.2687 -0.3183  0.3860
   39MOL0     H 5198   4.329   8.404  11.352  2.2842 -2.8813  0.6754
   39MOL0     H 5199   4.475   8.600  11.359  5.4233  2.2937 -1.4286
   39MOL0     H 5200   4.585   8.778  11.311 -0.2830  0.4283 -2.1773
   39MOL0     H 5201   4.707   8.664  11.392 -0.0428 -0.1556  0.0404
   39MOL0     H 5202   4.887   8.794  11.258 -0.7506 -0.8176 -1.2528
   39MOL0     H 5203   4.763   8.883  11.184  0.6223 -2.5003 -1.5740
   39MOL0     H 5204   4.712   8.969  11.425 -1.9838 -2.5267 -0.2157
   39MOL0     H 5205   4.832   8.853  11.485  0.0962 -1.0069 -1.2987
   39MOL0     H 5206   4.928   9.070  11.484 -1.1236 -1.5507  2.5288
   39MOL0     H 5207   5.015   8.963  11.380 -1.0631 -1.5368  0.1405
   39MOL0     H 5208   4.927   9.051  11.176  3.0820 -0.2761  0.6468
   39MOL0     H 5209   4.789   9.129  11.255  0.5985  2.9501 -0.7486
   39MOL0     H 5210   4.940   9.292  11.170 -2.8115 -1.0797 -0.6626
   39MOL0     H 5211   4.928   9.304  11.348  0.5931 -1.5002 -0.0340
   39MOL0     H 5212   5.136   9.182  11.373 -1.1257 -2.7363 -0.7832
   39MOL0     H 5213   5.146   9.165  11.198 -2.8253  0.5890 -0.1762
   39MOL0     H 5214   5.157   9.388  11.142 -1.1921 -3.4077 -0.1314
   39MOL0     H 5215   5.281   9.356  11.259  0.0777  1.7008 -0.4752
   39MOL0     H 5216   5.184   9.433  11.545  2.5296  2.6445  0.9279
   39MOL0     H 5217   5.125   9.645  11.707 -0.9908  1.7623  0.8464
   39MOL0     H 5218   5.055   9.786  11.632 -0.3318  0.2205 -0.2459
   39MOL0     H 5219   4.852   9.710  11.712 -3.1077 -3.4428  0.4959
   39MOL0     H 5220   4.961   9.596  11.803  0.9041  0.6766 -0.6022
   39MOL0     H 5221   4.907   9.418  11.669 -0.2212 -0.0242  2.0810
   39MOL0     H 5222   4.848   9.520  11.535 -0.5396 -1.3311  0.0091
   39MOL0     H 5223   4.668   9.601  11.708 -2.6801 -1.5963  0.2728
   39MOL0     H 5224   4.742   9.489  11.817  1.0165 -1.7597 -1.1834
   39MOL0     H 5225   4.818   9.270  11.779 -0.2740  1.3359  0.0028
   39MOL0     H 5226   4.831   9.018  11.945 -1.1519  4.4316 -0.3735
   39MOL0     H 5227   4.857   8.897  11.812  1.9205  0.9673 -2.9964
   39MOL0     H 5228   4.934   9.062  11.804 -1.6992  2.1695  1.6168
   39MOL0     H 5229   4.453   8.633  11.646 -0.6814  0.3191  0.8316
   39MOL0     H 5230   4.398   8.396  11.692  1.6723 -0.4581 -0.2142
   39MOL0     H 5231   4.476   8.165  11.755  2.1337 -0.0272  1.2625
   39MOL0     H 5232   4.581   8.221  11.881  0.3971  0.9940 -1.4313
   39MOL0     H 5233   4.334   8.049  11.942 -0.6686  1.4670 -1.7686
   39MOL0     H 5234   4.495   7.974  11.885 -2.1623 -0.1402  0.8186
   39MOL0     H 5235   4.490   8.132  12.139  1.4178  0.1606  0.8573
   39MOL0     H 5236   4.623   8.050  12.048  0.0345  0.8062 -0.7868
   39MOL0     H 5237   4.375   7.891  12.156  0.3364 -1.5828  1.2517
   39MOL0     H 5238   4.519   7.831  12.067 -0.1297 -0.5986  0.8924
   39MOL0     H 5239   4.499   7.992  12.322  0.1489 -0.5155  1.4587
   39MOL0     H 5240   4.649   7.936  12.261 -0.6091  0.6327 -3.1302
   39MOL0     H 5241   4.629   7.725  12.327 -0.3576  0.7801 -2.3776
   39MOL0     H 5242   4.559   7.820  12.454  4.2569  1.8237 -0.5094
   39MOL0     H 5243   4.423   7.653  12.229  0.1491 -1.0903  0.3472
   39MOL0     H 5244   4.331   7.769  12.338 -0.9351 -1.2707  2.6406
   39MOL0     H 5245   4.361   7.652  12.536 -0.3565  1.0739 -0.3063
   39MOL0     H 5246   4.481   7.541  12.458  0.1605 -1.6163 -1.0118
   39MOL0     H 5247   4.407   8.462  12.109 -1.4079  0.1636 -0.2668
   39MOL0     H 5248   4.427   8.687  12.087 -1.4125  1.1156 -0.0519
   39MOL0     H 5249   4.404   9.019  11.682  1.4271 -1.9566  3.9006
   39MOL0     H 5250   4.429   9.280  11.607  1.2307  2.7091  0.2986
   39MOL0     H 5251   4.649   8.464  10.996  0.9212  1.5461  0.0298
   39MOL0     H 5252   4.492   8.276  10.980 -1.4325 -2.0083  2.8556
   39MOL0     H 5253   4.081   8.139  11.081 -0.5024  0.1232  0.6228
   39MOL0     H 5254   3.892   7.953  11.093 -1.0672 -2.7014  1.1492
   39MOL0     H 5255   4.010   7.526  11.112  0.6545 -0.8639  1.1705
   39MOL0     H 5256   4.014   7.577  11.278  2.1741 -1.0641 -2.0014
   39MOL0     H 5257   3.766   7.550  11.310 -0.4962 -2.6414  0.9051
   39MOL0     H 5258   3.850   7.404  11.246 -0.7996 -0.1151  0.2778
   39MOL0     H 5259   3.773   7.497  11.006 -0.2624  1.2671 -0.1611
   39MOL0     H 5260   3.675   7.611  11.093 -0.7759 -0.8619 -0.6793
   39MOL0     H 5261   3.583   7.408  11.228  1.2621 -0.4752  0.3397
   39MOL0     H 5262   3.664   7.310  11.117  0.2130  0.5446 -2.3800
   39MOL0     H 5263   3.388   7.446  10.831 -0.4981 -2.9642 -0.0865
   39MOL0     H 5264   4.180   7.672  11.212  0.2145 -0.1653 -1.7093
   39MOL0     H 5265   4.364   7.845  11.218  0.6663 -1.9653  0.9872
   40MOL0     O 5266   0.178   2.672   7.954 -0.0363 -0.4886 -0.8095
   40MOL0     C 5267   0.062   2.709   7.987 -0.1047  0.7721  0.7184
   40MOL0     O 5268  -0.046   2.714   7.899  0.5725 -0.3234  0.2084
   40MOL0     C 5269  -0.018   2.663   7.775  0.2457  0.4348  0.4586
   40MOL0     C 5270   0.004   2.528   7.758  0.2083  0.4827  0.0221
   40MOL0     C 5271   0.023   2.481   7.624 -0.7961  0.3357 -0.1258
   40MOL0     C 5272   0.008   2.562   7.514 -0.3034 -0.5804  0.1812
   40MOL0     O 5273   0.034   2.506   7.390  0.3840  0.6286  0.1147
   40MOL0     C 5274   0.044   2.582   7.268 -0.2364  0.2228  0.7755
   40MOL0     C 5275   0.119   2.508   7.152  0.7290  1.0175 -0.9518
   40MOL0     C 5276   0.123   2.586   7.021  0.1211  1.0046 -1.1653
   40MOL0     C 5277   0.205   2.522   6.913 -0.3655 -0.0861  0.2169
   40MOL0     C 5278   0.196   2.594   6.779  0.1894  0.6558 -0.0475
   40MOL0     C 5279   0.062   2.579   6.700  0.5412  0.1211 -0.1378
   40MOL0     C 5280   0.063   2.657   6.569  0.6470 -0.4063 -0.1706
   40MOL0     C 5281  -0.070   2.667   6.488  0.6435  0.2783 -0.8733
   40MOL0     N 5282  -0.177   2.744   6.556  0.4189  0.4055 -0.0177
   40MOL0     C 5283  -0.266   2.692   6.655 -0.0388 -0.2903  0.4662
   40MOL0     C 5284  -0.339   2.798   6.685 -1.1670 -0.8425 -0.2865
   40MOL0     C 5285  -0.436   2.800   6.799 -0.4807 -0.2113 -0.3025
   40MOL0     C 5286  -0.574   2.870   6.769  0.3306 -0.2367  0.1262
   40MOL0     C 5287  -0.657   2.802   6.654 -0.0704 -1.0969 -0.2015
   40MOL0     C 5288  -0.776   2.882   6.615 -0.2238 -1.0900  0.2484
   40MOL0     O 5289  -0.882   2.873   6.712 -0.8366  0.1193 -0.0313
   40MOL0     C 5290  -0.969   2.976   6.732  0.3777  0.5853  0.9450
   40MOL0     C 5291  -1.048   2.988   6.844  0.5413  0.2784  1.2638
   40MOL0     C 5292  -1.149   3.091   6.860  0.8100  0.1790 -0.5009
   40MOL0     C 5293  -1.247   3.093   6.988  0.6178  0.7515  0.0485
   40MOL0     C 5294  -1.162   3.196   6.769  0.2012  0.5108  0.4362
   40MOL0     C 5295  -1.254   3.306   6.777  0.0152 -0.1534 -0.6358
   40MOL0     O 5296  -1.381   3.278   6.831 -0.3542 -0.2065 -0.5698
   40MOL0     C 5297  -1.479   3.371   6.836 -0.9973 -0.6907 -0.4234
   40MOL0     C 5298  -1.600   3.350   6.788  0.6763  0.1867  0.1004
   40MOL0     C 5299  -1.699   3.460   6.789  0.2632  0.1401 -1.2939
   40MOL0     C 5300  -1.672   3.581   6.857  1.0740  0.5145 -0.2883
   40MOL0     O 5301  -1.773   3.667   6.838  0.1025 -0.8781  0.9955
   40MOL0     C 5302  -1.761   3.801   6.895  0.0497  0.1138 -0.3556
   40MOL0     C 5303  -1.843   3.871   6.775  0.3546 -0.3876 -0.1809
   40MOL0     C 5304  -1.819   4.021   6.797 -1.2926  0.5674  0.0594
   40MOL0     C 5305  -1.882   4.099   6.676 -0.0046  0.1106  0.4884
   40MOL0     C 5306  -1.856   4.245   6.701 -0.1366  0.6705 -0.1843
   40MOL0     C 5307  -1.707   4.288   6.685 -0.2374 -0.4733 -0.1908
   40MOL0     C 5308  -1.673   4.309   6.541 -1.4389 -0.2092 -0.2230
   40MOL0     C 5309  -1.524   4.316   6.511 -1.3671 -0.6871 -0.9555
   40MOL0    Cl 5310  -1.440   4.177   6.550  0.2242 -0.3701  0.1784
   40MOL0     C 5311  -1.552   3.605   6.913 -0.5536  0.5239 -1.6324
   40MOL0     C 5312  -1.458   3.497   6.897  0.0094  0.2023  0.2420
   40MOL0     O 5313  -1.223   3.411   6.719 -0.3626  0.1730  0.0095
   40MOL0     C 5314  -1.073   3.185   6.657  0.5375 -0.1768 -0.2899
   40MOL0     C 5315  -0.993   3.072   6.634  0.1707  1.0270 -0.6437
   40MOL0     N 5316  -0.291   2.910   6.630 -0.3067 -0.1686  0.4483
   40MOL0     N 5317  -0.208   2.875   6.540 -0.6953  0.6341 -0.1534
   40MOL0     C 5318  -0.032   2.697   7.530  0.0765 -0.5063 -1.1187
   40MOL0     C 5319  -0.034   2.740   7.663  1.2588 -0.7085 -0.1697
   40MOL0     C 5320   0.047   2.754   8.125 -0.1976 -0.5084  0.1142
   40MOL0     C 5321   0.140   2.741   8.226  0.1933  0.3599  1.0752
   40MOL0     C 5322   0.123   2.771   8.360 -0.8243  0.4557 -1.2366
   40MOL0     C 5323  -0.008   2.812   8.395  0.2512  0.4678 -0.2599
   40MOL0     O 5324  -0.045   2.843   8.531  0.3185 -0.3986  0.6849
   40MOL0     C 5325   0.065   2.869   8.621 -0.1905  0.0378  0.1048
   40MOL0     C 5326   0.021   2.920   8.763  0.5661  0.5900 -0.5015
   40MOL0     C 5327  -0.075   3.048   8.750  0.5809 -0.8248 -0.2814
   40MOL0     C 5328   0.014   3.172   8.721  0.6540  0.1815  0.3784
   40MOL0     C 5329   0.079   3.208   8.847  0.6044  0.4563  0.4995
   40MOL0     C 5330   0.129   3.230   8.956 -0.9142  0.1166 -0.1322
   40MOL0     C 5331  -0.106   2.827   8.296  0.4045 -0.0196  0.1019
   40MOL0     C 5332  -0.083   2.808   8.157 -1.5072 -0.8184 -0.2945
   40MOL0     H 5333   0.014   2.459   7.842 -0.6868 -0.2577 -0.4639
   40MOL0     H 5334   0.050   2.376   7.618  1.5372  0.9234 -0.8625
   40MOL0     H 5335  -0.059   2.607   7.239  0.1212  1.2072  0.3219
   40MOL0     H 5336   0.100   2.672   7.293 -0.4725  0.6595 -0.2083
   40MOL0     H 5337   0.220   2.487   7.189 -0.1711  0.6171  1.4755
   40MOL0     H 5338   0.074   2.408   7.152  2.4522  0.1705 -2.9863
   40MOL0     H 5339   0.018   2.588   6.989 -1.2724  0.2301  2.7721
   40MOL0     H 5340   0.152   2.690   7.038  0.4036  0.7382  0.0762
   40MOL0     H 5341   0.311   2.521   6.942 -0.7361 -0.4973  1.6122
   40MOL0     H 5342   0.193   2.414   6.908  4.5493 -0.8407 -0.0114
   40MOL0     H 5343   0.221   2.695   6.812 -2.9562  1.7992 -0.8132
   40MOL0     H 5344   0.273   2.558   6.710  0.0668  1.6191 -0.7092
   40MOL0     H 5345   0.053   2.474   6.670 -0.3685 -0.6860  2.6892
   40MOL0     H 5346  -0.020   2.611   6.765  1.0962  1.9330 -0.2587
   40MOL0     H 5347   0.093   2.759   6.594 -0.9333 -0.3091  1.5845
   40MOL0     H 5348   0.137   2.608   6.505  0.4660 -0.9806  0.0541
   40MOL0     H 5349  -0.115   2.572   6.461 -0.2889  0.1824  0.8939
   40MOL0     H 5350  -0.047   2.708   6.389 -0.4159  2.1322 -0.4099
   40MOL0     H 5351  -0.263   2.591   6.693  1.1881  0.4845  2.6531
   40MOL0     H 5352  -0.457   2.696   6.825  0.3584 -0.8475 -1.9737
   40MOL0     H 5353  -0.385   2.852   6.881 -3.0305 -1.9087  2.5446
   40MOL0     H 5354  -0.557   2.976   6.749 -1.8385  0.0344 -0.5711
   40MOL0     H 5355  -0.638   2.875   6.857  2.2699  1.0181  1.5520
   40MOL0     H 5356  -0.692   2.702   6.681  0.3741 -1.6701 -1.6304
   40MOL0     H 5357  -0.594   2.795   6.564  0.8186  2.0311  0.0787
   40MOL0     H 5358  -0.816   2.854   6.517 -0.5563 -1.6556  0.5426
   40MOL0     H 5359  -0.741   2.986   6.608 -3.3077  0.2019  1.8429
   40MOL0     H 5360  -1.035   2.909   6.918 -3.9685 -1.3882  0.6421
   40MOL0     H 5361  -1.349   3.063   6.961  1.2962 -0.9823 -0.7352
   40MOL0     H 5362  -1.217   3.025   7.069 -0.6348 -0.6755 -0.6234
   40MOL0     H 5363  -1.255   3.196   7.023 -2.2267  1.3149 -1.9013
   40MOL0     H 5364  -1.628   3.258   6.738  1.8598 -0.8115  1.2059
   40MOL0     H 5365  -1.791   3.434   6.736  2.0997 -4.4223 -2.7388
   40MOL0     H 5366  -1.824   3.809   6.984 -1.0097  1.1068 -1.1692
   40MOL0     H 5367  -1.659   3.839   6.905 -0.8589  2.6191 -0.0202
   40MOL0     H 5368  -1.815   3.846   6.672 -0.9796 -2.8035 -0.0444
   40MOL0     H 5369  -1.943   3.826   6.769  0.7669 -1.1943 -1.4193
   40MOL0     H 5370  -1.711   4.030   6.788 -1.0084 -2.3474 -0.4894
   40MOL0     H 5371  -1.864   4.044   6.894 -1.7244 -1.8949  0.5145
   40MOL0     H 5372  -1.841   4.055   6.584  0.0559 -0.1623  0.6441
   40MOL0     H 5373  -1.990   4.082   6.669  0.0658  0.1011 -0.8120
   40MOL0     H 5374  -1.891   4.270   6.802  0.5599 -2.3987  0.9207
   40MOL0     H 5375  -1.912   4.305   6.628  1.8593  4.6056  1.1827
   40MOL0     H 5376  -1.699   4.381   6.742  1.1998 -0.6298 -0.1052
   40MOL0     H 5377  -1.638   4.220   6.734  0.2782  1.2480  1.6129
   40MOL0     H 5378  -1.715   4.407   6.515 -0.8724  0.5925  1.6658
   40MOL0     H 5379  -1.727   4.234   6.483  0.5707  0.4503 -3.1648
   40MOL0     H 5380  -1.476   4.398   6.565  1.8288 -1.2241 -2.7189
   40MOL0     H 5381  -1.506   4.326   6.403 -1.1154  0.1306 -0.8463
   40MOL0     H 5382  -1.527   3.694   6.970 -0.8372 -1.6610  2.2307
   40MOL0     H 5383  -1.361   3.518   6.941 -0.1334 -0.9329  1.1467
   40MOL0     H 5384  -1.079   3.267   6.585  2.3629  0.0764 -0.1839
   40MOL0     H 5385  -0.932   3.081   6.545 -0.8255  0.8600 -1.3733
   40MOL0     H 5386  -0.041   2.766   7.447 -1.4161 -1.6981 -2.0006
   40MOL0     H 5387  -0.068   2.841   7.685  1.0055 -0.9636  0.6572
   40MOL0     H 5388   0.235   2.695   8.199 -1.0499 -1.6453 -0.1747
   40MOL0     H 5389   0.208   2.752   8.424  0.2426  0.5710 -2.5839
   40MOL0     H 5390   0.111   2.771   8.639 -3.5187 -1.8653 -0.9048
   40MOL0     H 5391   0.140   2.931   8.573  1.5887 -1.4611  0.8289
   40MOL0     H 5392   0.099   2.949   8.834  0.1983  0.6681 -0.1222
   40MOL0     H 5393  -0.034   2.840   8.813  1.4347  1.0159  1.2194
   40MOL0     H 5394  -0.113   3.060   8.852  2.7881 -2.4220  0.8383
   40MOL0     H 5395  -0.150   3.042   8.672 -0.6537 -3.3072  0.9772
   40MOL0     H 5396  -0.047   3.260   8.700  0.9309 -0.0977 -1.8272
   40MOL0     H 5397   0.089   3.162   8.642  0.6642  2.0459  0.1100
   40MOL0     H 5398   0.172   3.251   9.051 -1.0169 -1.7790  0.3566
   40MOL0     H 5399  -0.207   2.863   8.315  0.1125 -2.1759  3.3283
   40MOL0     H 5400  -0.163   2.824   8.085 -0.4121 -2.3103 -1.9363
   41MOL0     O 5401   2.890   3.498   3.807  0.0584 -0.4159  0.8343
   41MOL0     C 5402   2.885   3.467   3.688  0.0907 -1.2216 -0.0766
   41MOL0     O 5403   2.805   3.530   3.591  0.9375  0.1589 -0.1467
   41MOL0     C 5404   2.702   3.609   3.630 -0.2235 -0.3337 -0.5370
   41MOL0     C 5405   2.574   3.563   3.623  0.8320  0.0718 -0.0227
   41MOL0     C 5406   2.470   3.635   3.676  1.0062 -0.0122 -0.6985
   41MOL0     C 5407   2.485   3.761   3.744 -0.5028  0.2790  0.6386
   41MOL0     O 5408   2.395   3.819   3.824 -0.2347 -0.6158  0.1209
   41MOL0     C 5409   2.258   3.770   3.801  0.5425 -0.4457  0.7405
   41MOL0     C 5410   2.174   3.855   3.898  0.4496  0.6053  0.6814
   41MOL0     C 5411   2.165   4.004   3.863  0.7857 -0.7430  0.6258
   41MOL0     C 5412   2.069   4.039   3.749  0.0357  0.8013  0.2681
   41MOL0     C 5413   2.022   4.178   3.756 -0.2466 -0.4780  0.7329
   41MOL0     C 5414   1.906   4.207   3.656  0.7931 -0.5915 -0.3470
   41MOL0     C 5415   1.856   4.353   3.678  0.0894 -0.1081  0.0492
   41MOL0     C 5416   1.762   4.387   3.565  0.8628  0.0234 -0.1904
   41MOL0     N 5417   1.824   4.386   3.430 -0.0491 -0.9704  0.0441
   41MOL0     C 5418   1.824   4.281   3.341 -0.4065  0.6728 -0.4420
   41MOL0     C 5419   1.874   4.331   3.228 -0.7549 -0.1206  0.2755
   41MOL0     C 5420   1.867   4.255   3.096 -0.2650  0.9829 -0.0496
   41MOL0     C 5421   1.999   4.180   3.051 -0.3163  0.3329 -0.3107
   41MOL0     C 5422   2.047   4.051   3.138  0.4930 -0.0005  0.6124
   41MOL0     C 5423   1.994   3.924   3.064  0.4740  0.0496  0.7557
   41MOL0     O 5424   1.855   3.897   3.081 -0.4502 -0.3491 -0.2041
   41MOL0     C 5425   1.810   3.870   3.207 -1.0755 -0.4871 -0.0789
   41MOL0     C 5426   1.883   3.800   3.310  0.1037 -0.0699 -0.8502
   41MOL0     C 5427   1.836   3.770   3.439  1.4983  0.6333  0.7138
   41MOL0     C 5428   1.912   3.688   3.543 -0.1911 -0.4676 -0.3814
   41MOL0     C 5429   1.701   3.804   3.463 -0.5260 -1.1643 -0.2036
   41MOL0     C 5430   1.656   3.799   3.602 -0.1311  0.2716  1.0590
   41MOL0     O 5431   1.745   3.854   3.683 -0.1218 -0.4632 -0.5044
   41MOL0     C 5432   1.696   3.875   3.809 -1.3477  0.3490  0.5836
   41MOL0     C 5433   1.750   3.787   3.906  0.4897  0.1083  0.2730
   41MOL0     C 5434   1.687   3.782   4.032  0.2466 -0.2544 -1.1596
   41MOL0     C 5435   1.581   3.867   4.067 -0.9170 -0.3655  1.0943
   41MOL0     O 5436   1.510   3.877   4.182  0.2974  0.2254  0.5708
   41MOL0     C 5437   1.558   3.797   4.290 -0.1742 -0.0905 -0.2257
   41MOL0     C 5438   1.460   3.794   4.409 -0.3278  1.0000  0.1643
   41MOL0     C 5439   1.426   3.934   4.477 -0.1984  0.1008 -0.5902
   41MOL0     C 5440   1.315   3.909   4.588  0.0931  0.6347 -0.2460
   41MOL0     C 5441   1.283   4.032   4.682  0.4255 -0.5336 -0.9360
   41MOL0     C 5442   1.201   4.133   4.602  0.3905  0.2786 -0.2564
   41MOL0     C 5443   1.150   4.249   4.677 -0.1021  0.1375 -0.0400
   41MOL0     C 5444   1.050   4.226   4.792  0.7222  0.2709  0.4849
   41MOL0    Cl 5445   1.019   4.374   4.862 -0.3217 -0.2416 -0.0923
   41MOL0     C 5446   1.537   3.954   3.971 -0.1524 -0.9182 -0.5843
   41MOL0     C 5447   1.588   3.955   3.843  0.4508  0.5755 -0.8804
   41MOL0     O 5448   1.547   3.754   3.633 -0.4850  0.4056  0.1538
   41MOL0     C 5449   1.621   3.873   3.369  0.4754  0.4987 -0.7657
   41MOL0     C 5450   1.675   3.897   3.241 -0.4976 -0.0660 -0.0643
   41MOL0     N 5451   1.922   4.456   3.241  0.2017 -0.4737 -0.3961
   41MOL0     N 5452   1.888   4.486   3.362  0.3504  0.5361  0.2126
   41MOL0     C 5453   2.613   3.812   3.754  0.6485 -0.1608  0.0807
   41MOL0     C 5454   2.719   3.735   3.695  0.2490  0.1758 -1.0083
   41MOL0     C 5455   2.978   3.369   3.633 -0.1080 -0.7704  0.9788
   41MOL0     C 5456   2.952   3.319   3.499  0.4056 -0.3860 -0.2254
   41MOL0     C 5457   3.036   3.224   3.438  0.5744 -0.7736  0.2895
   41MOL0     C 5458   3.136   3.175   3.515 -0.4022 -0.5322 -0.3767
   41MOL0     O 5459   3.198   3.062   3.462 -0.5340  0.0094  0.2290
   41MOL0     C 5460   3.341   3.068   3.456 -0.4308  0.0987  0.1038
   41MOL0     C 5461   3.400   3.099   3.318  0.2787 -0.0276 -0.2529
   41MOL0     C 5462   3.387   2.987   3.211  0.0782  0.1176  0.8367
   41MOL0     C 5463   3.457   2.863   3.232 -0.1704  0.1220  0.3781
   41MOL0     C 5464   3.405   2.750   3.160  0.0412  0.0837 -0.6247
   41MOL0     C 5465   3.367   2.652   3.097 -0.3379  0.0545  0.1460
   41MOL0     C 5466   3.164   3.212   3.645 -0.0225 -1.0120  0.0235
   41MOL0     C 5467   3.093   3.315   3.705  0.1619 -0.3348  0.2389
   41MOL0     H 5468   2.565   3.469   3.571  2.3807 -0.1293  0.0332
   41MOL0     H 5469   2.370   3.593   3.666  2.2148 -2.7739 -2.2289
   41MOL0     H 5470   2.226   3.797   3.700  1.8094 -3.8094 -0.7199
   41MOL0     H 5471   2.229   3.666   3.818 -1.1239  0.1353  1.7798
   41MOL0     H 5472   2.070   3.821   3.900  1.4743 -3.1777 -1.0288
   41MOL0     H 5473   2.230   3.841   3.991  3.9551  2.5374 -0.9291
   41MOL0     H 5474   2.113   4.050   3.948 -0.7047 -1.2859  0.0362
   41MOL0     H 5475   2.264   4.047   3.847  0.8220 -0.5304  1.3821
   41MOL0     H 5476   2.105   4.021   3.647 -1.9855  0.6535 -0.4618
   41MOL0     H 5477   1.974   3.986   3.756  1.0414 -1.3029 -0.7999
   41MOL0     H 5478   1.992   4.199   3.859  0.3568 -0.7145  0.9652
   41MOL0     H 5479   2.104   4.238   3.715 -2.2635  0.7489 -1.7123
   41MOL0     H 5480   1.947   4.202   3.555  0.6566 -1.6615 -0.3632
   41MOL0     H 5481   1.830   4.128   3.653  0.7121 -0.5145 -3.7562
   41MOL0     H 5482   1.815   4.366   3.779  0.5159 -2.7445  0.6506
   41MOL0     H 5483   1.942   4.416   3.654  0.0073 -1.0420 -3.2196
   41MOL0     H 5484   1.726   4.487   3.592  4.4816  1.1759  1.0050
   41MOL0     H 5485   1.677   4.319   3.571 -1.4805  2.5195 -2.4838
   41MOL0     H 5486   1.784   4.180   3.352  0.2024  0.5503  0.8709
   41MOL0     H 5487   1.792   4.176   3.097 -1.2987  1.8557  3.2886
   41MOL0     H 5488   1.856   4.334   3.022  1.9995  0.9437 -0.5090
   41MOL0     H 5489   2.089   4.242   3.038 -0.0606 -0.1881 -1.1005
   41MOL0     H 5490   1.987   4.144   2.949 -2.8052  0.7591 -0.2149
   41MOL0     H 5491   2.020   4.055   3.244  1.9147 -2.9864  1.1858
   41MOL0     H 5492   2.155   4.038   3.146  0.0956 -3.8991  1.3220
   41MOL0     H 5493   2.041   3.831   3.097 -1.0902 -0.7603  0.7826
   41MOL0     H 5494   2.004   3.934   2.956 -0.5699 -0.0318  0.6464
   41MOL0     H 5495   1.986   3.771   3.292  0.0211 -0.9887  0.0457
   41MOL0     H 5496   1.960   3.755   3.614 -1.9792 -0.4857  0.9212
   41MOL0     H 5497   1.842   3.624   3.598 -2.4528  2.4486  0.3830
   41MOL0     H 5498   1.990   3.625   3.500  0.5703 -2.0442  3.0112
   41MOL0     H 5499   1.819   3.711   3.873 -3.2055 -3.2482 -0.4825
   41MOL0     H 5500   1.717   3.711   4.108  0.2549 -0.7523 -1.6231
   41MOL0     H 5501   1.574   3.693   4.262 -2.0590 -0.4579 -0.0515
   41MOL0     H 5502   1.652   3.833   4.335 -0.2218  0.5394 -0.6180
   41MOL0     H 5503   1.370   3.752   4.365  1.1084 -3.1144  0.7889
   41MOL0     H 5504   1.505   3.730   4.485  2.3073 -1.0554 -2.8746
   41MOL0     H 5505   1.394   4.008   4.403  1.4425  0.5043 -0.9404
   41MOL0     H 5506   1.516   3.962   4.532 -1.0787  2.6895 -0.3347
   41MOL0     H 5507   1.222   3.879   4.538  0.1644 -0.0881  0.0512
   41MOL0     H 5508   1.340   3.818   4.642 -0.8546 -0.9561 -2.3282
   41MOL0     H 5509   1.379   4.057   4.728  1.2538 -1.8911 -1.8876
   41MOL0     H 5510   1.228   4.004   4.773  2.1432 -0.5336  0.1489
   41MOL0     H 5511   1.253   4.158   4.509 -1.1766  2.0843 -0.7252
   41MOL0     H 5512   1.110   4.083   4.566  0.9538 -2.1036  1.4231
   41MOL0     H 5513   1.094   4.308   4.603 -0.9722  0.1221  0.6025
   41MOL0     H 5514   1.237   4.311   4.702  1.6934 -1.5846 -1.7126
   41MOL0     H 5515   1.094   4.169   4.875 -0.3835  2.1507  2.4875
   41MOL0     H 5516   0.968   4.168   4.749  0.0201  0.2981  1.7225
   41MOL0     H 5517   1.456   4.021   3.997  1.8653  0.9601  1.2236
   41MOL0     H 5518   1.537   4.031   3.784 -0.9552  2.1481  2.1040
   41MOL0     H 5519   1.527   3.914   3.405 -0.7172 -0.8257 -2.2180
   41MOL0     H 5520   1.602   3.930   3.167 -3.4461 -1.5417  1.9594
   41MOL0     H 5521   2.623   3.900   3.817  1.6879 -1.1908  1.3998
   41MOL0     H 5522   2.820   3.776   3.700  1.4934 -2.7216 -0.1628
   41MOL0     H 5523   2.878   3.366   3.435  0.9023 -0.5458 -0.9243
   41MOL0     H 5524   3.020   3.199   3.334 -1.7945 -0.4381  0.5162
   41MOL0     H 5525   3.377   3.146   3.525  0.0207 -0.0418  0.0288
   41MOL0     H 5526   3.376   2.968   3.485  0.2801  0.6314  1.1679
   41MOL0     H 5527   3.508   3.106   3.331  0.0519  2.3255  0.8239
   41MOL0     H 5528   3.373   3.199   3.284 -0.8031  0.6374  2.2716
   41MOL0     H 5529   3.431   3.030   3.120 -1.2535 -0.4633 -0.1130
   41MOL0     H 5530   3.280   2.967   3.207 -0.2871  1.3724  2.8878
   41MOL0     H 5531   3.442   2.831   3.336 -0.5229 -1.9907 -0.2812
   41MOL0     H 5532   3.564   2.877   3.210  0.1274 -2.5811 -0.2328
   41MOL0     H 5533   3.316   2.568   3.055  0.4520  0.4339 -1.6508
   41MOL0     H 5534   3.227   3.155   3.712 -1.1038 -3.7179 -1.0951
   41MOL0     H 5535   3.131   3.359   3.797  2.8522  2.3451 -1.9393
   42MOL0     O 5536  10.166   3.607   3.399 -0.1993  0.4290  0.2953
   42MOL0     C 5537  10.069   3.594   3.472  1.2121  0.5192  0.7911
   42MOL0     O 5538  10.052   3.651   3.597 -0.1981 -1.0432  0.9505
   42MOL0     C 5539  10.146   3.746   3.625 -0.1974  0.4953 -0.4251
   42MOL0     C 5540  10.245   3.730   3.714  0.1936  0.9991 -0.8494
   42MOL0     C 5541  10.348   3.812   3.731 -0.8325  0.3488 -0.0913
   42MOL0     C 5542  10.343   3.930   3.660  0.0489  0.8883  0.1929
   42MOL0     O 5543  10.443   4.018   3.685 -0.7420  0.2209 -0.0435
   42MOL0     C 5544  10.531   4.038   3.583 -0.4202 -0.0521  0.3691
   42MOL0     C 5545  10.505   4.170   3.523  0.1884 -0.2282 -0.1452
   42MOL0     C 5546  10.625   4.238   3.445 -0.2512  1.2712 -0.5386
   42MOL0     C 5547  10.653   4.171   3.305  0.8526  0.1656 -0.5562
   42MOL0     C 5548  10.743   4.264   3.220 -0.6201  0.0140 -0.9690
   42MOL0     C 5549  10.770   4.204   3.085 -0.4798  0.4264  1.2426
   42MOL0     C 5550  10.879   4.281   3.008  0.6893 -0.3487  0.0417
   42MOL0     C 5551  10.894   4.222   2.872 -0.8709  0.3584 -0.3841
   42MOL0     N 5552  10.968   4.303   2.777  0.1922 -0.1473  0.5658
   42MOL0     C 5553  11.081   4.386   2.806  0.0700  0.3048  0.1016
   42MOL0     C 5554  11.138   4.420   2.688 -1.0016 -0.8020 -0.5459
   42MOL0     C 5555  11.253   4.497   2.650 -0.4430 -0.1136 -0.0883
   42MOL0     C 5556  11.362   4.402   2.599  0.3231  0.0872 -0.2467
   42MOL0     C 5557  11.495   4.464   2.555 -0.7357 -0.5888  0.0935
   42MOL0     C 5558  11.584   4.379   2.457  0.0911  0.2753  0.1461
   42MOL0     O 5559  11.507   4.340   2.344 -0.9634  0.5274 -0.1867
   42MOL0     C 5560  11.474   4.430   2.247 -0.4959 -0.1959  0.1935
   42MOL0     C 5561  11.401   4.370   2.137  0.3398  0.1916 -1.0884
   42MOL0     C 5562  11.362   4.450   2.027 -0.0755 -0.2557  0.5169
   42MOL0     C 5563  11.265   4.395   1.929  0.3907 -0.1569 -0.2801
   42MOL0     C 5564  11.418   4.582   2.019  0.2047  0.1782 -0.4752
   42MOL0     C 5565  11.407   4.676   1.895  1.4732  0.2443 -1.0450
   42MOL0     O 5566  11.425   4.810   1.914  0.3448  0.4240 -0.8161
   42MOL0     C 5567  11.496   4.871   1.814 -0.2646  0.1816  0.1631
   42MOL0     C 5568  11.449   4.957   1.711 -0.1929  0.2961  0.2599
   42MOL0     C 5569  11.543   5.020   1.626 -0.4377 -0.6845 -0.3878
   42MOL0     C 5570  11.678   5.011   1.648  0.8283  0.1408  0.6429
   42MOL0     O 5571  11.769   5.080   1.567 -0.3170  0.3459  0.4835
   42MOL0     C 5572  11.823   4.991   1.463 -0.1801  0.8347 -0.0975
   42MOL0     C 5573  11.963   5.046   1.432  0.8247  0.5720 -0.7135
   42MOL0     C 5574  11.947   5.118   1.306 -0.3493 -1.3084  1.6342
   42MOL0     C 5575  12.062   5.210   1.271 -0.1036 -0.7645  0.3567
   42MOL0     C 5576  12.043   5.261   1.124  0.4506  0.5869 -0.7240
   42MOL0     C 5577  12.172   5.317   1.063 -0.9110  0.2016  0.3529
   42MOL0     C 5578  12.130   5.420   0.951 -0.2114  1.1710 -0.4522
   42MOL0     C 5579  12.254   5.457   0.866 -0.7894 -0.0283 -1.2920
   42MOL0    Cl 5580  12.221   5.607   0.767  0.2639  0.3199 -0.2929
   42MOL0     C 5581  11.724   4.931   1.750 -0.4620 -0.8112 -0.6916
   42MOL0     C 5582  11.634   4.856   1.824  0.4078  0.8995  0.2687
   42MOL0     O 5583  11.409   4.619   1.789 -0.3674 -0.4184  0.0020
   42MOL0     C 5584  11.507   4.628   2.117  0.6084  0.4700 -0.2747
   42MOL0     C 5585  11.522   4.562   2.242 -1.2365  0.4296  0.3842
   42MOL0     N 5586  11.064   4.355   2.588  0.0751  0.5127 -0.2512
   42MOL0     N 5587  10.958   4.294   2.640 -0.4090  0.2792 -0.3199
   42MOL0     C 5588  10.239   3.963   3.576  0.6251 -0.2360 -0.0751
   42MOL0     C 5589  10.136   3.864   3.554  0.3512  0.8561 -0.2632
   42MOL0     C 5590   9.947   3.526   3.418 -0.2958 -0.7569 -0.9881
   42MOL0     C 5591   9.839   3.499   3.507 -0.0889 -0.0744  1.0296
   42MOL0     C 5592   9.725   3.430   3.459  0.1519 -0.5155  1.2051
   42MOL0     C 5593   9.712   3.402   3.320 -0.2457 -0.3653 -0.4343
   42MOL0     O 5594   9.612   3.330   3.265  0.1955 -0.5017  0.7727
   42MOL0     C 5595   9.486   3.323   3.328  0.2955 -0.2759  0.4177
   42MOL0     C 5596   9.446   3.180   3.400  0.0430  0.4915  0.2876
   42MOL0     C 5597   9.444   3.069   3.291 -0.1678 -0.7047  0.1413
   42MOL0     C 5598   9.370   2.943   3.345 -0.2555 -0.4082  0.1400
   42MOL0     C 5599   9.375   2.850   3.229  0.8463  0.1069 -0.9639
   42MOL0     C 5600   9.389   2.784   3.135 -0.1081 -0.5482 -0.4381
   42MOL0     C 5601   9.821   3.431   3.237  0.0828  0.5126  0.3734
   42MOL0     C 5602   9.937   3.496   3.283 -0.8179 -0.4218  0.9911
   42MOL0     H 5603  10.251   3.637   3.770 -0.4878  0.9314 -0.8761
   42MOL0     H 5604  10.422   3.808   3.810 -2.7368 -1.4001  1.7518
   42MOL0     H 5605  10.635   4.032   3.616 -0.8759  2.1544  2.4990
   42MOL0     H 5606  10.507   3.960   3.510 -2.3838  1.0145 -0.2027
   42MOL0     H 5607  10.412   4.172   3.466  0.4878  0.7453 -0.6278
   42MOL0     H 5608  10.495   4.239   3.608 -0.6735 -0.8797  0.3034
   42MOL0     H 5609  10.606   4.344   3.425  1.4322  2.2661  2.4231
   42MOL0     H 5610  10.713   4.238   3.510 -0.0498 -0.5811 -0.7432
   42MOL0     H 5611  10.703   4.074   3.312 -2.0744 -1.7062 -2.9575
   42MOL0     H 5612  10.558   4.152   3.254  0.7542 -0.9136 -0.0018
   42MOL0     H 5613  10.706   4.367   3.220  0.9998  0.7771  2.4137
   42MOL0     H 5614  10.845   4.259   3.260 -0.7832  0.1077 -0.5374
   42MOL0     H 5615  10.819   4.109   3.110 -2.4142 -1.4707 -1.5577
   42MOL0     H 5616  10.677   4.186   3.030  0.1210  2.5304 -0.6080
   42MOL0     H 5617  10.859   4.387   2.993  1.2236  0.0868  2.1385
   42MOL0     H 5618  10.973   4.285   3.064 -0.6641  0.5216  2.3989
   42MOL0     H 5619  10.795   4.199   2.831 -0.3945 -2.1571 -0.2846
   42MOL0     H 5620  10.944   4.125   2.879 -0.0708  0.4034 -3.7632
   42MOL0     H 5621  11.119   4.420   2.902  2.7756  1.8956 -1.3878
   42MOL0     H 5622  11.222   4.571   2.575 -1.2180 -0.3349  0.0038
   42MOL0     H 5623  11.288   4.546   2.741 -0.6742  0.8764 -0.5145
   42MOL0     H 5624  11.313   4.339   2.524 -0.5900 -0.2977  0.6353
   42MOL0     H 5625  11.385   4.337   2.684 -0.6323  1.9689  1.5617
   42MOL0     H 5626  11.551   4.484   2.647 -0.2977  2.9110 -0.7799
   42MOL0     H 5627  11.469   4.555   2.499  2.7118 -0.7475 -2.0566
   42MOL0     H 5628  11.621   4.290   2.509  0.0610 -0.6956 -1.4210
   42MOL0     H 5629  11.683   4.417   2.432  0.0220 -0.9200 -2.1603
   42MOL0     H 5630  11.368   4.267   2.139 -1.7368  0.8260  0.9829
   42MOL0     H 5631  11.164   4.421   1.963  0.2142  0.4155 -1.2096
   42MOL0     H 5632  11.286   4.438   1.831  3.5270  1.2249  0.9051
   42MOL0     H 5633  11.275   4.286   1.933  0.1270 -0.2390 -1.3698
   42MOL0     H 5634  11.345   4.979   1.692 -0.5430 -0.7425  0.9071
   42MOL0     H 5635  11.500   5.090   1.556 -1.6444  1.9957  2.7638
   42MOL0     H 5636  11.839   4.890   1.502 -0.5796  1.1056  0.7934
   42MOL0     H 5637  11.757   4.991   1.377 -0.8773  1.3602  0.4258
   42MOL0     H 5638  11.998   5.108   1.515  2.5563 -1.4190  0.1164
   42MOL0     H 5639  12.027   4.959   1.418  2.9773  1.9561 -0.1199
   42MOL0     H 5640  11.856   5.178   1.309  0.1215 -0.5890  1.7986
   42MOL0     H 5641  11.942   5.041   1.229  0.7442 -3.1746  3.3160
   42MOL0     H 5642  12.056   5.295   1.339  0.4477 -0.5900  0.1926
   42MOL0     H 5643  12.161   5.162   1.272 -0.9028 -2.5838 -0.9157
   42MOL0     H 5644  11.974   5.346   1.130  2.9530  2.8970 -2.1955
   42MOL0     H 5645  11.997   5.181   1.065 -0.5383 -0.1950  1.0452
   42MOL0     H 5646  12.227   5.375   1.137  1.6681  1.0661 -2.0770
   42MOL0     H 5647  12.245   5.241   1.034 -0.7568  0.9259 -1.2716
   42MOL0     H 5648  12.063   5.495   0.993 -1.3380  0.0380 -0.1631
   42MOL0     H 5649  12.059   5.367   0.887 -1.1083  3.4538 -1.4593
   42MOL0     H 5650  12.277   5.369   0.805  2.7823 -0.8950  0.9970
   42MOL0     H 5651  12.339   5.475   0.933 -3.1869  1.6367  1.5382
   42MOL0     H 5652  11.829   4.934   1.775 -0.4284  0.0583 -0.8811
   42MOL0     H 5653  11.672   4.789   1.900  0.9970  1.4765  0.5006
   42MOL0     H 5654  11.560   4.721   2.101  2.1317 -0.3728 -0.2866
   42MOL0     H 5655  11.589   4.603   2.317 -1.8464 -0.7571  1.6312
   42MOL0     H 5656  10.223   4.057   3.524 -1.6900 -2.5828 -4.2140
   42MOL0     H 5657  10.045   3.881   3.498 -0.6048  0.1354  1.0189
   42MOL0     H 5658   9.848   3.530   3.611  2.0457 -3.4639  2.0158
   42MOL0     H 5659   9.653   3.396   3.533  1.4123  0.4149  2.9385
   42MOL0     H 5660   9.472   3.410   3.393 -0.3271 -0.2471  0.2515
   42MOL0     H 5661   9.411   3.336   3.249  0.1592  1.0048  0.7361
   42MOL0     H 5662   9.345   3.193   3.440 -0.9774  1.4715 -2.4000
   42MOL0     H 5663   9.513   3.160   3.484  0.3850  0.2428 -0.0423
   42MOL0     H 5664   9.550   3.050   3.271 -0.0191  0.2252 -0.0174
   42MOL0     H 5665   9.402   3.114   3.201 -0.3367 -0.0035  0.5588
   42MOL0     H 5666   9.277   2.971   3.395  0.0726  2.2770 -0.5861
   42MOL0     H 5667   9.439   2.897   3.417  0.6118 -4.1423 -2.7392
   42MOL0     H 5668   9.415   2.705   3.067  0.2841 -1.3095  0.5651
   42MOL0     H 5669   9.823   3.388   3.137  2.4761  1.3387  0.0102
   42MOL0     H 5670  10.021   3.520   3.218 -0.8990  2.9814  1.9390
   43MOL0     O 5671  11.247   2.195   1.335  0.4671 -0.6931 -0.4720
   43MOL0     C 5672  11.304   2.232   1.440 -0.5275  0.1908  0.8714
   43MOL0     O 5673  11.265   2.207   1.567  0.4202  0.4185  1.1351
   43MOL0     C 5674  11.142   2.149   1.585  0.4274 -0.0925 -0.2993
   43MOL0     C 5675  11.024   2.224   1.602  0.3866 -0.1230 -0.3431
   43MOL0     C 5676  10.900   2.155   1.609 -0.5120 -0.4819  0.3114
   43MOL0     C 5677  10.894   2.019   1.629  0.3740 -0.5650  1.0013
   43MOL0     O 5678  10.782   1.946   1.628  0.1665 -0.4727 -0.1040
   43MOL0     C 5679  10.691   1.970   1.737  0.7707  0.5368 -0.2260
   43MOL0     C 5680  10.624   1.833   1.765  0.1308  0.2763  1.1273
   43MOL0     C 5681  10.734   1.745   1.844  0.3808 -0.7209  0.2434
   43MOL0     C 5682  10.687   1.605   1.867 -0.2012  0.4797 -0.0131
   43MOL0     C 5683  10.792   1.511   1.924  0.6071  0.3799  0.4310
   43MOL0     C 5684  10.729   1.370   1.960 -0.2689 -0.9691  1.0250
   43MOL0     C 5685  10.839   1.268   1.966 -0.4916  0.2124  0.5553
   43MOL0     C 5686  10.941   1.300   2.069 -0.1716 -0.3824 -0.3271
   43MOL0     N 5687  11.040   1.193   2.083  0.1527  0.0912 -0.3535
   43MOL0     C 5688  11.020   1.057   2.107  0.4035  0.3890  0.1941
   43MOL0     C 5689  11.145   1.006   2.098 -0.2747 -0.8284 -0.5285
   43MOL0     C 5690  11.174   0.870   2.104  0.2347  0.3520 -0.1036
   43MOL0     C 5691  11.274   0.841   2.218 -0.4860  0.1863  0.7981
   43MOL0     C 5692  11.260   0.695   2.263  0.4155 -0.2345  0.1875
   43MOL0     C 5693  11.364   0.651   2.372 -0.2590 -0.0983 -0.1435
   43MOL0     O 5694  11.327   0.699   2.498 -0.4252 -0.8553 -0.5844
   43MOL0     C 5695  11.395   0.645   2.600 -0.7074 -0.0607 -0.1808
   43MOL0     C 5696  11.487   0.546   2.607 -0.7205 -0.0938  0.7660
   43MOL0     C 5697  11.549   0.497   2.724  1.1567 -0.9723 -0.6431
   43MOL0     C 5698  11.643   0.378   2.731 -0.3309  0.0046  0.4168
   43MOL0     C 5699  11.522   0.566   2.840 -0.1996  0.5827 -0.4333
   43MOL0     C 5700  11.569   0.526   2.974  0.7407  0.4488  0.1266
   43MOL0     O 5701  11.577   0.632   3.056 -0.3519 -0.1782 -0.6301
   43MOL0     C 5702  11.631   0.622   3.185 -0.4109 -0.8881  0.1603
   43MOL0     C 5703  11.741   0.538   3.221 -0.3117  0.5094 -0.6446
   43MOL0     C 5704  11.814   0.553   3.341 -0.7905 -0.1296  1.0581
   43MOL0     C 5705  11.759   0.644   3.434  0.3685 -0.2259 -0.6183
   43MOL0     O 5706  11.808   0.683   3.561 -0.0770 -0.0636  1.1435
   43MOL0     C 5707  11.946   0.657   3.577 -0.6710 -0.5320 -0.0313
   43MOL0     C 5708  12.039   0.731   3.480 -0.0512  1.2557 -1.0920
   43MOL0     C 5709  12.008   0.886   3.462 -0.2316  1.4852 -0.1035
   43MOL0     C 5710  12.053   0.972   3.589 -0.3160  0.0152 -0.0781
   43MOL0     C 5711  12.189   0.930   3.663 -0.2472 -0.4725  0.7223
   43MOL0     C 5712  12.314   0.941   3.580  0.4179 -0.5090  0.2390
   43MOL0     C 5713  12.421   0.888   3.663  0.6686 -0.2633  0.7607
   43MOL0     C 5714  12.533   0.849   3.574 -0.3066  0.1647  0.4453
   43MOL0    Cl 5715  12.576   0.972   3.452  0.0265 -0.2535 -0.1959
   43MOL0     C 5716  11.644   0.727   3.402 -0.7772  0.2998 -0.4743
   43MOL0     C 5717  11.589   0.718   3.269 -0.6813 -0.2728  0.7568
   43MOL0     O 5718  11.579   0.403   3.010 -0.7242  0.0916 -0.6995
   43MOL0     C 5719  11.453   0.685   2.833 -0.4062 -1.1419  0.4850
   43MOL0     C 5720  11.377   0.717   2.720 -0.1169  0.2490  0.1168
   43MOL0     N 5721  11.229   1.102   2.058 -0.5935 -0.0147 -0.0185
   43MOL0     N 5722  11.172   1.216   2.048  0.6599  0.4111 -0.1489
   43MOL0     C 5723  11.010   1.945   1.623 -0.6877  0.0471  0.7642
   43MOL0     C 5724  11.135   2.014   1.598 -0.7063  0.3854  0.7527
   43MOL0     C 5725  11.409   2.329   1.437 -0.5018  0.7010  0.1012
   43MOL0     C 5726  11.506   2.348   1.541  0.3448  0.3092  0.0946
   43MOL0     C 5727  11.625   2.418   1.528 -0.2717  0.0013 -0.0791
   43MOL0     C 5728  11.657   2.469   1.396  0.2192 -0.0342 -0.3870
   43MOL0     O 5729  11.751   2.564   1.367  0.8127  0.0912 -0.4516
   43MOL0     C 5730  11.836   2.600   1.469 -0.9272  0.6074 -0.1548
   43MOL0     C 5731  11.972   2.644   1.423 -0.3481 -0.2273 -0.1001
   43MOL0     C 5732  12.040   2.723   1.527  0.1881  0.2556  0.5755
   43MOL0     C 5733  12.182   2.763   1.492  0.2688 -0.3749  0.8136
   43MOL0     C 5734  12.190   2.866   1.390 -0.7399  0.6369  0.7797
   43MOL0     C 5735  12.216   2.954   1.311  0.0989 -0.3885 -0.0450
   43MOL0     C 5736  11.563   2.461   1.297  0.0595  0.1517  0.4438
   43MOL0     C 5737  11.445   2.384   1.308  0.4255  0.1553 -0.2455
   43MOL0     H 5738  11.017   2.332   1.596 -2.4488 -0.2465 -0.6856
   43MOL0     H 5739  10.805   2.206   1.605 -0.4826  0.0327  3.6503
   43MOL0     H 5740  10.745   2.015   1.821 -2.5910  2.6072  1.0279
   43MOL0     H 5741  10.618   2.046   1.708  0.7576  0.9449  0.8372
   43MOL0     H 5742  10.536   1.862   1.823 -1.1428  3.2121 -1.8993
   43MOL0     H 5743  10.592   1.785   1.672  5.2237  3.9469 -3.1656
   43MOL0     H 5744  10.829   1.738   1.789 -0.8878  0.8226 -2.3546
   43MOL0     H 5745  10.773   1.799   1.930  1.2019 -0.3265 -0.3613
   43MOL0     H 5746  10.598   1.602   1.931 -0.8943  1.9492 -0.8585
   43MOL0     H 5747  10.662   1.557   1.772  0.6361 -0.4900  0.2384
   43MOL0     H 5748  10.878   1.491   1.860  2.5242 -3.2251  3.7065
   43MOL0     H 5749  10.842   1.566   2.005 -0.9388  4.2511 -1.0039
   43MOL0     H 5750  10.661   1.367   2.046 -1.0516  0.2163  0.4698
   43MOL0     H 5751  10.664   1.343   1.876 -0.0138 -2.6434  1.3173
   43MOL0     H 5752  10.780   1.181   1.999 -0.4452 -0.0234  0.0221
   43MOL0     H 5753  10.885   1.245   1.870 -0.1770 -1.4811  1.0617
   43MOL0     H 5754  10.895   1.314   2.167  1.5766  1.5712  0.2883
   43MOL0     H 5755  10.998   1.386   2.032  0.2442  0.0149  1.1380
   43MOL0     H 5756  10.929   1.003   2.129  0.2119 -0.3697 -2.1771
   43MOL0     H 5757  11.081   0.822   2.134 -0.8849  1.7902 -1.1268
   43MOL0     H 5758  11.225   0.834   2.013  2.8109  0.6744  1.1080
   43MOL0     H 5759  11.258   0.901   2.308 -1.9960  1.6075 -0.3490
   43MOL0     H 5760  11.372   0.850   2.169 -1.1835 -1.1108 -0.9237
   43MOL0     H 5761  11.267   0.637   2.171 -0.4925  0.3485 -0.2746
   43MOL0     H 5762  11.156   0.680   2.293  0.7800 -1.5274  0.8638
   43MOL0     H 5763  11.462   0.690   2.343  0.6394 -1.3136  1.1625
   43MOL0     H 5764  11.389   0.544   2.370  2.5072  0.4725 -2.3013
   43MOL0     H 5765  11.525   0.510   2.512  0.0048 -0.9199  1.3521
   43MOL0     H 5766  11.583   0.297   2.772 -0.0890 -0.7037 -0.5903
   43MOL0     H 5767  11.680   0.360   2.629 -1.3474  2.0241 -0.3834
   43MOL0     H 5768  11.726   0.386   2.801  1.7000  2.0716 -1.9845
   43MOL0     H 5769  11.773   0.466   3.147 -3.1795 -2.3430  0.6465
   43MOL0     H 5770  11.904   0.499   3.367 -0.5354 -1.5656 -2.2414
   43MOL0     H 5771  11.980   0.703   3.671 -2.3038  1.4859 -0.3510
   43MOL0     H 5772  11.958   0.552   3.603 -1.1236 -0.5961 -0.0747
   43MOL0     H 5773  12.143   0.720   3.513  0.1598  1.1777 -1.7622
   43MOL0     H 5774  12.022   0.699   3.377  0.5742 -1.2739 -0.4583
   43MOL0     H 5775  11.902   0.902   3.441 -0.5930 -0.5379 -0.0528
   43MOL0     H 5776  12.060   0.924   3.372 -0.2047  0.1326 -0.6862
   43MOL0     H 5777  12.071   1.072   3.549  1.0243  0.3502  1.2509
   43MOL0     H 5778  11.974   0.980   3.665  0.8325  2.0752  0.9978
   43MOL0     H 5779  12.181   0.829   3.705 -2.3596 -0.5057  0.3028
   43MOL0     H 5780  12.192   0.997   3.749 -0.1369 -0.3779  0.6444
   43MOL0     H 5781  12.307   0.884   3.486  1.4069 -2.2531  1.1622
   43MOL0     H 5782  12.325   1.045   3.550 -1.4805 -0.5751 -0.8529
   43MOL0     H 5783  12.380   0.801   3.716 -1.0423 -0.1013 -0.2128
   43MOL0     H 5784  12.450   0.960   3.740  1.6032 -1.0778  1.1810
   43MOL0     H 5785  12.504   0.761   3.516  2.0042  2.2799 -4.4297
   43MOL0     H 5786  12.625   0.829   3.629 -0.2562 -3.0868 -0.5887
   43MOL0     H 5787  11.609   0.796   3.478 -2.8569 -0.2624 -0.8664
   43MOL0     H 5788  11.509   0.789   3.253 -2.7303 -2.5248  0.2675
   43MOL0     H 5789  11.425   0.753   2.913 -0.1694  0.9829 -1.1719
   43MOL0     H 5790  11.313   0.804   2.720  0.9730  1.0994  1.7398
   43MOL0     H 5791  11.014   1.838   1.638  3.9227  0.0990  1.4487
   43MOL0     H 5792  11.221   1.948   1.589 -0.8898  0.2929 -0.4049
   43MOL0     H 5793  11.499   2.298   1.637  2.6937 -3.3836 -1.4233
   43MOL0     H 5794  11.694   2.434   1.610 -1.5460  0.3219  0.9560
   43MOL0     H 5795  11.788   2.688   1.514  0.6768  1.1334  0.6197
   43MOL0     H 5796  11.854   2.522   1.544 -2.6039 -0.9774 -1.3254
   43MOL0     H 5797  11.961   2.706   1.333 -0.8655 -0.4331 -0.1850
   43MOL0     H 5798  12.026   2.552   1.398  1.9353  0.4563  1.9596
   43MOL0     H 5799  12.042   2.662   1.618  2.7337  1.3601  1.3447
   43MOL0     H 5800  11.978   2.808   1.556  0.7981  0.5412  1.0662
   43MOL0     H 5801  12.248   2.677   1.480  1.6236  0.6472  0.6780
   43MOL0     H 5802  12.212   2.813   1.585 -1.8117 -0.8169  1.7758
   43MOL0     H 5803  12.235   3.031   1.239 -0.6505 -0.9906 -0.9168
   43MOL0     H 5804  11.591   2.511   1.205  1.1311  0.7617  1.0782
   43MOL0     H 5805  11.367   2.377   1.232 -0.4434  1.3721  0.4950
   44MOL0     O 5806   7.851   7.780   7.691 -0.6460 -0.6724 -0.6428
   44MOL0     C 5807   7.950   7.851   7.679 -0.6361  0.7295  0.9602
   44MOL0     O 5808   8.072   7.811   7.653 -0.1126  0.4610 -1.1350
   44MOL0     C 5809   8.097   7.673   7.685 -0.2751  0.5329  0.4195
   44MOL0     C 5810   8.119   7.588   7.584 -0.0096 -0.1885 -0.2174
   44MOL0     C 5811   8.140   7.450   7.609 -0.0260 -0.8400  1.5052
   44MOL0     C 5812   8.118   7.396   7.731  0.3827  0.0048 -0.1261
   44MOL0     O 5813   8.131   7.265   7.747 -0.2264  0.1445  0.6562
   44MOL0     C 5814   8.110   7.193   7.860 -0.2122  0.2999  0.2988
   44MOL0     C 5815   8.087   7.047   7.831  0.2979  0.1886 -0.4039
   44MOL0     C 5816   8.116   6.950   7.952  0.6871 -0.3620  0.9829
   44MOL0     C 5817   8.106   6.796   7.903 -0.4427 -0.0464  0.5244
   44MOL0     C 5818   8.114   6.709   8.028 -0.4231  0.2047  0.3288
   44MOL0     C 5819   8.091   6.562   7.987 -1.0545  0.6036  0.7751
   44MOL0     C 5820   8.110   6.461   8.101  0.1073 -0.8662  0.6853
   44MOL0     C 5821   8.075   6.320   8.054  0.5765 -0.2329  0.0606
   44MOL0     N 5822   8.109   6.223   8.151 -0.3972  0.3127 -0.0683
   44MOL0     C 5823   8.048   6.215   8.275  0.3935  0.6066  1.3696
   44MOL0     C 5824   8.124   6.127   8.336  1.0860  0.1371  0.0780
   44MOL0     C 5825   8.106   6.061   8.469  0.3997 -0.1244 -0.2334
   44MOL0     C 5826   8.184   6.134   8.571  0.5253  0.5931 -0.2004
   44MOL0     C 5827   8.138   6.085   8.711 -0.8792  0.3740 -0.3087
   44MOL0     C 5828   8.159   5.934   8.752 -0.4083 -0.8658  1.2504
   44MOL0     O 5829   8.083   5.905   8.871  0.0041  0.0011 -0.7266
   44MOL0     C 5830   8.064   5.774   8.911 -0.4168 -0.4516 -0.1672
   44MOL0     C 5831   8.094   5.656   8.845  0.1901 -0.8945 -0.8562
   44MOL0     C 5832   8.075   5.532   8.911 -0.1908 -0.7367 -0.1350
   44MOL0     C 5833   8.117   5.408   8.837  0.1349 -0.5115  0.5638
   44MOL0     C 5834   8.017   5.524   9.039 -0.3500  0.8034 -0.1586
   44MOL0     C 5835   7.993   5.393   9.114 -0.6033  0.6964 -0.1450
   44MOL0     O 5836   7.999   5.381   9.249 -0.0130 -0.3502  0.3152
   44MOL0     C 5837   7.983   5.261   9.305  0.9188  0.2503 -0.0847
   44MOL0     C 5838   8.059   5.146   9.270  0.9062  0.1756  0.2807
   44MOL0     C 5839   8.061   5.037   9.358 -0.1380 -0.5540 -0.8281
   44MOL0     C 5840   7.969   5.032   9.467 -0.7481 -0.5167  0.0203
   44MOL0     O 5841   7.960   4.927   9.550 -0.2677  0.2139  0.5671
   44MOL0     C 5842   7.924   4.812   9.476  0.2960  0.3086  0.1806
   44MOL0     C 5843   7.780   4.814   9.430 -0.4297  0.0334  0.9493
   44MOL0     C 5844   7.664   4.855   9.523  1.2887 -0.2410  1.1259
   44MOL0     C 5845   7.537   4.881   9.443 -0.7977  0.1685 -0.4204
   44MOL0     C 5846   7.432   4.948   9.547 -0.3373  0.3347 -0.3602
   44MOL0     C 5847   7.410   4.853   9.669 -0.2705 -0.0702  0.5177
   44MOL0     C 5848   7.292   4.903   9.748 -0.2034 -0.3888  0.5407
   44MOL0     C 5849   7.163   4.871   9.672  0.1492  0.5272  0.0938
   44MOL0    Cl 5850   7.117   4.700   9.688 -0.2009 -0.1432 -0.0568
   44MOL0     C 5851   7.880   5.145   9.487 -0.4105  0.7062  0.8165
   44MOL0     C 5852   7.888   5.260   9.409  0.2153  0.3130 -0.9133
   44MOL0     O 5853   7.955   5.304   9.040 -0.6486  0.5980  0.2927
   44MOL0     C 5854   7.995   5.643   9.107  0.8749  0.1631  0.6263
   44MOL0     C 5855   8.020   5.774   9.040  0.2869  0.3980  0.0998
   44MOL0     N 5856   8.228   6.099   8.258  0.4929  0.2832  0.0842
   44MOL0     N 5857   8.217   6.155   8.154  0.5650  0.2105  1.4326
   44MOL0     C 5858   8.086   7.485   7.836  0.2883  0.0578 -0.5847
   44MOL0     C 5859   8.086   7.624   7.812 -0.8462  0.2333 -0.6389
   44MOL0     C 5860   7.938   7.997   7.693 -0.7624  0.2915 -0.1108
   44MOL0     C 5861   8.056   8.073   7.728  0.7214  0.1991 -0.4776
   44MOL0     C 5862   8.043   8.219   7.737 -0.5121 -0.1621 -0.2259
   44MOL0     C 5863   7.925   8.288   7.710 -0.8867  0.6843  0.5982
   44MOL0     O 5864   7.920   8.421   7.695  0.2046  0.2982  0.0025
   44MOL0     C 5865   8.024   8.498   7.628  0.9470 -1.6686 -0.0520
   44MOL0     C 5866   7.988   8.643   7.650 -0.3467 -0.0759  0.7548
   44MOL0     C 5867   8.062   8.738   7.556 -0.0265 -0.0785  0.3042
   44MOL0     C 5868   8.049   8.699   7.410 -0.1808 -0.5210 -0.0270
   44MOL0     C 5869   8.095   8.807   7.321 -0.3117 -0.0617 -0.7027
   44MOL0     C 5870   8.137   8.890   7.242  0.5522  0.2993 -0.9152
   44MOL0     C 5871   7.818   8.209   7.674 -0.1321 -0.1374  0.3178
   44MOL0     C 5872   7.825   8.065   7.673 -0.5386 -0.2899 -0.4957
   44MOL0     H 5873   8.119   7.612   7.478  1.6069 -2.6067 -0.8679
   44MOL0     H 5874   8.159   7.389   7.521  0.0063  1.9753 -0.5557
   44MOL0     H 5875   8.200   7.195   7.922  0.4024 -1.6888 -0.4615
   44MOL0     H 5876   8.025   7.241   7.910 -0.2763  0.7847 -0.2602
   44MOL0     H 5877   7.983   7.029   7.802  0.3329 -0.9812  0.1191
   44MOL0     H 5878   8.154   7.019   7.749  2.7021  1.4905  1.0134
   44MOL0     H 5879   8.213   6.968   7.998  1.9773 -1.1416 -1.2671
   44MOL0     H 5880   8.036   6.956   8.026 -1.4288 -1.0173 -1.1140
   44MOL0     H 5881   8.005   6.781   7.863 -1.3079  1.9711  1.8023
   44MOL0     H 5882   8.180   6.775   7.825  0.7953 -2.0479  2.1314
   44MOL0     H 5883   8.205   6.738   8.081 -0.1310  1.2729 -0.7084
   44MOL0     H 5884   8.036   6.733   8.102 -0.3542 -0.0076  0.4674
   44MOL0     H 5885   7.994   6.554   7.938  0.4234  0.9377 -2.5450
   44MOL0     H 5886   8.158   6.530   7.907 -2.2336 -1.8476  0.6801
   44MOL0     H 5887   8.219   6.464   8.114  0.0793  0.8963  0.6888
   44MOL0     H 5888   8.050   6.487   8.189 -2.5596 -2.3399 -0.5749
   44MOL0     H 5889   8.135   6.302   7.964  0.7647  3.0815 -0.5905
   44MOL0     H 5890   7.969   6.313   8.029  0.5172  2.8442 -0.9205
   44MOL0     H 5891   7.953   6.252   8.310  0.5621  0.1227  2.3731
   44MOL0     H 5892   8.002   6.072   8.502  0.2052 -1.3112 -0.4061
   44MOL0     H 5893   8.124   5.955   8.452 -0.2614 -0.0615 -1.4735
   44MOL0     H 5894   8.176   6.243   8.581  1.7374  0.7501 -0.7972
   44MOL0     H 5895   8.286   6.098   8.559 -0.0209 -0.8230 -0.8730
   44MOL0     H 5896   8.030   6.094   8.717 -0.8251  0.5498  0.4756
   44MOL0     H 5897   8.193   6.153   8.777  0.0473  1.2712 -1.9382
   44MOL0     H 5898   8.263   5.928   8.784 -0.0270  1.5831  0.6524
   44MOL0     H 5899   8.146   5.865   8.669 -0.5851  1.7477 -1.0179
   44MOL0     H 5900   8.137   5.660   8.745 -2.9041 -2.2747 -2.3740
   44MOL0     H 5901   8.176   5.351   8.909  2.2023  1.0803  0.2421
   44MOL0     H 5902   8.047   5.335   8.796  2.0748 -0.1201 -4.0558
   44MOL0     H 5903   8.201   5.437   8.772  0.3422  2.3972  1.9589
   44MOL0     H 5904   8.136   5.146   9.194  0.0684 -0.2025 -0.5946
   44MOL0     H 5905   8.125   4.949   9.347  0.4535 -0.1522 -0.6711
   44MOL0     H 5906   7.985   4.780   9.391 -0.0163 -0.8883  0.3751
   44MOL0     H 5907   7.926   4.731   9.550  0.9824  1.6275  1.6532
   44MOL0     H 5908   7.780   4.874   9.339 -2.3109 -3.1317 -1.3474
   44MOL0     H 5909   7.756   4.719   9.381  0.0390  0.0656  0.6496
   44MOL0     H 5910   7.683   4.944   9.584 -4.7023  0.8893  2.0278
   44MOL0     H 5911   7.654   4.768   9.588 -1.1882 -1.8628 -1.2188
   44MOL0     H 5912   7.565   4.951   9.364 -1.1365 -1.1944 -1.7826
   44MOL0     H 5913   7.504   4.784   9.407  2.1008  0.1146 -3.3128
   44MOL0     H 5914   7.345   4.967   9.485 -1.1039 -0.3331  0.4839
   44MOL0     H 5915   7.483   5.041   9.575  0.4886  0.2148 -1.4066
   44MOL0     H 5916   7.385   4.755   9.628 -0.8965  1.4225 -2.9563
   44MOL0     H 5917   7.504   4.855   9.725  1.0856  4.0980 -1.5385
   44MOL0     H 5918   7.299   5.010   9.770 -2.8874 -0.4470  2.1666
   44MOL0     H 5919   7.290   4.851   9.845 -1.3438 -5.5425 -1.8791
   44MOL0     H 5920   7.171   4.907   9.569  1.0373  0.5209  0.1585
   44MOL0     H 5921   7.079   4.921   9.722 -2.1261 -1.9229 -0.9895
   44MOL0     H 5922   7.805   5.133   9.564 -3.0038 -0.5731 -1.7172
   44MOL0     H 5923   7.816   5.340   9.422  0.0699  0.0720 -0.1245
   44MOL0     H 5924   7.969   5.624   9.211  1.1792 -2.4899  0.2723
   44MOL0     H 5925   8.023   5.868   9.094  1.8206  1.1653 -1.2521
   44MOL0     H 5926   8.076   7.442   7.935  2.5379 -0.0005 -0.3330
   44MOL0     H 5927   8.078   7.695   7.893  1.0385 -1.7571  1.4742
   44MOL0     H 5928   8.144   8.018   7.761  1.0714  0.7440 -0.4864
   44MOL0     H 5929   8.132   8.273   7.767  1.4288 -2.1992 -1.9467
   44MOL0     H 5930   8.122   8.490   7.677  0.0207  1.7890  2.8722
   44MOL0     H 5931   8.018   8.484   7.520 -1.1740  1.0342 -0.4037
   44MOL0     H 5932   8.010   8.675   7.753  0.4103  5.6585 -0.8224
   44MOL0     H 5933   7.883   8.661   7.625 -0.4811 -1.8666 -0.1214
   44MOL0     H 5934   8.167   8.748   7.583 -0.1823 -0.1335  0.9528
   44MOL0     H 5935   8.030   8.842   7.561  3.8194  1.3350 -0.9443
   44MOL0     H 5936   7.949   8.675   7.373 -2.6338  1.9656  4.2670
   44MOL0     H 5937   8.110   8.610   7.394  1.0124  0.5434 -1.6787
   44MOL0     H 5938   8.184   8.976   7.197  0.6811  0.8468  0.2249
   44MOL0     H 5939   7.725   8.254   7.639 -0.3269 -1.2595 -0.6880
   44MOL0     H 5940   7.741   8.010   7.634 -0.7395 -0.1096 -0.3207
   45MOL0     O 5941   4.592   9.698   5.183 -0.0541  0.8890 -0.2433
   45MOL0     C 5942   4.552   9.781   5.099  0.7433 -0.6585 -0.1178
   45MOL0     O 5943   4.441   9.860   5.114 -0.5495  0.3057  0.7138
   45MOL0     C 5944   4.349   9.864   5.206  0.5327 -0.4447  0.1342
   45MOL0     C 5945   4.342   9.789   5.329 -0.7059  0.1945  0.2024
   45MOL0     C 5946   4.250   9.805   5.426  0.0744 -0.5951 -0.5367
   45MOL0     C 5947   4.152   9.903   5.409  0.5217 -0.2469  0.5266
   45MOL0     O 5948   4.063   9.939   5.507 -0.0977  0.0371 -0.3089
   45MOL0     C 5949   3.962  10.041   5.497  0.7511  0.0614 -0.1746
   45MOL0     C 5950   3.932  10.097   5.632 -0.6223  0.1031  0.2302
   45MOL0     C 5951   3.841  10.000   5.707 -0.0953 -0.2823 -0.1786
   45MOL0     C 5952   3.794  10.059   5.848  0.0360 -1.0466  0.7851
   45MOL0     C 5953   3.710   9.959   5.920 -0.2162 -0.5481 -0.0608
   45MOL0     C 5954   3.570   9.939   5.855  0.0259  0.8112  0.3078
   45MOL0     C 5955   3.483  10.062   5.838 -0.4196 -0.6828 -0.1477
   45MOL0     C 5956   3.456  10.121   5.979  0.1756 -1.0064 -0.7313
   45MOL0     N 5957   3.370  10.236   5.954 -0.0773 -1.0040 -0.1215
   45MOL0     C 5958   3.242  10.233   5.987 -0.9348  0.2161 -0.5624
   45MOL0     C 5959   3.197  10.366   5.979  0.3553 -0.1099 -0.1130
   45MOL0     C 5960   3.063  10.410   6.005  0.3525 -0.3976 -1.2726
   45MOL0     C 5961   3.029  10.459   6.142  0.8737 -0.5251 -1.0084
   45MOL0     C 5962   3.065  10.609   6.185  0.1245 -0.0274  0.0694
   45MOL0     C 5963   2.936  10.711   6.145 -0.1170  0.2558 -0.1803
   45MOL0     O 5964   2.850  10.714   6.259  0.2347 -0.0306 -0.0015
   45MOL0     C 5965   2.736  10.792   6.252 -0.9549  1.5135  0.1041
   45MOL0     C 5966   2.672  10.818   6.370 -0.2875  0.4267  0.2445
   45MOL0     C 5967   2.557  10.899   6.379  0.0254  0.3873 -0.7091
   45MOL0     C 5968   2.492  10.922   6.521 -0.0631 -0.6029  0.6691
   45MOL0     C 5969   2.499  10.950   6.262  0.0308  0.0303 -0.3799
   45MOL0     C 5970   2.395  11.049   6.257 -0.0358 -0.2236  0.7238
   45MOL0     O 5971   2.304  11.057   6.149 -1.0969  0.7389 -0.3821
   45MOL0     C 5972   2.198  11.146   6.171  0.0557  0.0728 -0.9970
   45MOL0     C 5973   2.093  11.118   6.277 -0.0977 -0.7308 -1.4409
   45MOL0     C 5974   1.983  11.216   6.285  0.1702 -0.3799  0.8476
   45MOL0     C 5975   1.971  11.314   6.177 -0.2054  0.7422  0.1033
   45MOL0     O 5976   1.875  11.409   6.187  0.2479  0.2990 -0.4340
   45MOL0     C 5977   1.759  11.379   6.119  0.1704 -0.2523 -1.4758
   45MOL0     C 5978   1.661  11.483   6.176  0.1519 -0.2619 -1.0135
   45MOL0     C 5979   1.634  11.453   6.329 -0.8898  0.4259  0.1743
   45MOL0     C 5980   1.570  11.580   6.389  0.4977 -0.5895 -0.1520
   45MOL0     C 5981   1.503  11.547   6.522  0.3486 -0.3463 -0.5986
   45MOL0     C 5982   1.498  11.673   6.608  0.0156  0.2378  0.3565
   45MOL0     C 5983   1.411  11.658   6.743 -0.3266 -0.2371 -0.4517
   45MOL0     C 5984   1.263  11.619   6.735 -0.4118  0.0002  0.4168
   45MOL0    Cl 5985   1.177  11.734   6.622 -0.6531  0.6236  0.3659
   45MOL0     C 5986   2.063  11.316   6.073 -0.6491  0.7920 -0.9703
   45MOL0     C 5987   2.178  11.238   6.074 -0.8169 -0.2670  0.1509
   45MOL0     O 5988   2.386  11.124   6.351 -0.2368  0.5487  0.1123
   45MOL0     C 5989   2.564  10.936   6.137  0.3935  0.4905  0.5646
   45MOL0     C 5990   2.678  10.848   6.138  0.4184 -0.5361  0.5483
   45MOL0     N 5991   3.292  10.452   5.935  0.1112  0.3885  0.2653
   45MOL0     N 5992   3.394  10.373   5.929 -0.7803 -0.2216 -0.0951
   45MOL0     C 5993   4.146   9.975   5.286 -0.2453 -0.2842 -0.0087
   45MOL0     C 5994   4.244   9.955   5.185 -0.0117  0.1538  0.2415
   45MOL0     C 5995   4.622   9.779   4.969 -0.4816 -0.6085  0.4771
   45MOL0     C 5996   4.581   9.864   4.865 -0.9416 -0.8301 -0.0027
   45MOL0     C 5997   4.644   9.871   4.745 -0.0108 -0.4956 -0.0057
   45MOL0     C 5998   4.755   9.791   4.716 -0.2774  0.6221 -0.1609
   45MOL0     O 5999   4.829   9.783   4.600  0.4686 -0.4830  0.0299
   45MOL0     C 6000   4.791   9.887   4.502 -0.6447  0.2068 -0.0641
   45MOL0     C 6001   4.880   9.893   4.370 -1.0056  0.4580  0.6630
   45MOL0     C 6002   5.021   9.925   4.414 -0.6633  0.1097 -0.2444
   45MOL0     C 6003   5.124   9.905   4.295  1.3719  0.5942  0.7436
   45MOL0     C 6004   5.094  10.017   4.205 -0.7860 -0.4339  0.0346
   45MOL0     C 6005   5.066  10.116   4.146 -0.0441 -0.1299 -0.7791
   45MOL0     C 6006   4.806   9.704   4.820  0.4831 -0.1708  0.4609
   45MOL0     C 6007   4.731   9.691   4.935  0.3298  0.4871 -0.9801
   45MOL0     H 6008   4.434   9.737   5.353  0.0708  0.1520 -2.4790
   45MOL0     H 6009   4.267   9.749   5.517 -0.6062  0.0807  0.0260
   45MOL0     H 6010   3.983  10.130   5.437 -0.6125 -0.9034 -2.2204
   45MOL0     H 6011   3.870  10.000   5.452  0.0096  0.2550  1.1356
   45MOL0     H 6012   4.025  10.108   5.689  2.5271 -1.8840 -3.9455
   45MOL0     H 6013   3.886  10.196   5.625 -1.3049 -0.1929  0.4487
   45MOL0     H 6014   3.747   9.989   5.653  0.2397 -1.7296 -0.4982
   45MOL0     H 6015   3.886   9.901   5.720  1.7807  0.5738  0.1771
   45MOL0     H 6016   3.877  10.089   5.913 -1.9523  0.1726  2.9169
   45MOL0     H 6017   3.735  10.150   5.836 -1.1851 -1.5037  2.7540
   45MOL0     H 6018   3.765   9.864   5.917 -0.8848 -0.9420 -0.0688
   45MOL0     H 6019   3.712   9.994   6.024  1.4235  3.2310 -1.1873
   45MOL0     H 6020   3.589   9.900   5.755 -1.2767 -0.8003  0.6458
   45MOL0     H 6021   3.521   9.854   5.904 -1.0041  0.7142 -0.8527
   45MOL0     H 6022   3.522  10.141   5.773  2.0708 -0.3923  1.5755
   45MOL0     H 6023   3.385  10.032   5.800 -1.0943  2.4248 -1.2368
   45MOL0     H 6024   3.548  10.168   6.016 -1.3778  2.0531 -0.4402
   45MOL0     H 6025   3.406  10.056   6.051 -2.5113  0.5518 -1.0381
   45MOL0     H 6026   3.192  10.145   6.027  0.3425 -0.0498  0.5062
   45MOL0     H 6027   3.033  10.491   5.936 -0.2055 -0.9895 -1.7406
   45MOL0     H 6028   3.002  10.325   5.973 -2.3495  1.1677 -0.6490
   45MOL0     H 6029   3.073  10.405   6.226  2.5342  1.8746 -0.2290
   45MOL0     H 6030   2.919  10.456   6.149  0.7079  3.5961  1.9860
   45MOL0     H 6031   3.160  10.646   6.148 -1.3400  2.6238 -1.3320
   45MOL0     H 6032   3.076  10.606   6.294  0.4703  2.4751  0.1755
   45MOL0     H 6033   2.879  10.673   6.060  1.6077  0.0600 -1.3062
   45MOL0     H 6034   2.977  10.809   6.119  4.6232 -1.6834 -1.0482
   45MOL0     H 6035   2.707  10.774   6.462 -1.8424 -0.7418  0.3222
   45MOL0     H 6036   2.520  11.019   6.563 -1.7903  0.1009  0.2427
   45MOL0     H 6037   2.385  10.905   6.508  0.0673 -3.4018  2.4271
   45MOL0     H 6038   2.512  10.834   6.583 -3.6781 -2.7329 -0.8601
   45MOL0     H 6039   2.108  11.041   6.351  1.4875 -2.4239 -3.3929
   45MOL0     H 6040   1.919  11.210   6.372  0.6977 -1.8437  1.1646
   45MOL0     H 6041   1.763  11.399   6.011 -1.1227  1.3753 -1.2516
   45MOL0     H 6042   1.725  11.275   6.129 -0.8296  0.2588  1.0146
   45MOL0     H 6043   1.704  11.580   6.150 -1.7989  0.9828  0.2205
   45MOL0     H 6044   1.567  11.477   6.120 -1.8812 -0.9903  2.2346
   45MOL0     H 6045   1.727  11.436   6.384  1.0285  0.8438 -2.7211
   45MOL0     H 6046   1.565  11.368   6.340 -0.0974 -0.0183  2.1208
   45MOL0     H 6047   1.657  11.642   6.412 -0.3697  0.0019  1.6953
   45MOL0     H 6048   1.508  11.647   6.328  4.0451  1.7663 -1.5345
   45MOL0     H 6049   1.553  11.467   6.578 -1.9072 -0.3953  1.5291
   45MOL0     H 6050   1.397  11.520   6.519  0.3651 -0.6445  0.6961
   45MOL0     H 6051   1.599  11.709   6.631 -0.4276 -0.4256  4.0394
   45MOL0     H 6052   1.445  11.749   6.550  0.4586  0.0277 -0.3384
   45MOL0     H 6053   1.435  11.753   6.791 -2.8909  1.3519 -2.0591
   45MOL0     H 6054   1.467  11.583   6.798  1.6304 -0.6596 -2.8271
   45MOL0     H 6055   1.219  11.634   6.834  2.6203  0.4758  1.8074
   45MOL0     H 6056   1.254  11.515   6.703 -1.3649  0.1827  0.0595
   45MOL0     H 6057   2.051  11.392   5.996 -0.5443 -0.1035 -1.8922
   45MOL0     H 6058   2.255  11.257   6.000 -0.8695  0.5613  0.2941
   45MOL0     H 6059   2.539  10.992   6.048 -0.0269  1.5823  1.3522
   45MOL0     H 6060   2.713  10.841   6.036 -0.9770 -2.6004  0.1460
   45MOL0     H 6061   4.069  10.050   5.273 -1.7971 -1.8414 -0.0692
   45MOL0     H 6062   4.241  10.027   5.104  0.6755  1.7436  1.5554
   45MOL0     H 6063   4.503   9.934   4.893  1.1248  1.6648 -0.1829
   45MOL0     H 6064   4.605   9.937   4.669 -2.9825  0.0922  1.8279
   45MOL0     H 6065   4.687   9.875   4.470 -0.0668 -0.2620 -1.9018
   45MOL0     H 6066   4.803   9.982   4.555 -3.3578 -0.1940  1.4563
   45MOL0     H 6067   4.838   9.962   4.297  0.1442  2.8697  2.1586
   45MOL0     H 6068   4.894   9.797   4.319  1.0685  1.6953 -1.2688
   45MOL0     H 6069   5.049   9.854   4.492  1.4932 -0.1932 -1.2101
   45MOL0     H 6070   5.032  10.025   4.456 -1.2815  1.1546 -2.3908
   45MOL0     H 6071   5.119   9.811   4.240  3.0048  0.3977  0.8833
   45MOL0     H 6072   5.226   9.905   4.335  1.7830 -1.2235 -0.2315
   45MOL0     H 6073   5.034  10.200   4.089 -0.9456  0.4428  0.4964
   45MOL0     H 6074   4.887   9.633   4.806 -0.5508 -1.2659 -0.1705
   45MOL0     H 6075   4.771   9.607   4.991 -1.5614 -0.4321 -0.8969
   46MOL0     O 6076  10.676   5.911   1.837 -0.4033 -0.6279 -0.3226
   46MOL0     C 6077  10.693   5.795   1.882 -0.7409 -0.6842 -0.1664
   46MOL0     O 6078  10.697   5.683   1.801 -0.1187  0.5250 -0.7271
   46MOL0     C 6079  10.678   5.711   1.672  0.7219  0.3532 -0.4180
   46MOL0     C 6080  10.551   5.745   1.623 -1.1797 -0.5601 -0.3961
   46MOL0     C 6081  10.537   5.769   1.485  0.7945  0.1488  0.4546
   46MOL0     C 6082  10.644   5.758   1.399 -0.6803 -0.2719  0.0592
   46MOL0     O 6083  10.613   5.786   1.270 -0.6509 -0.5849  0.0580
   46MOL0     C 6084  10.725   5.816   1.183  0.6964  0.4688  0.0612
   46MOL0     C 6085  10.666   5.832   1.040  1.0816  0.9137  0.6404
   46MOL0     C 6086  10.786   5.790   0.943  0.2412 -1.3525  0.2049
   46MOL0     C 6087  10.736   5.803   0.794  0.2219 -0.6797  0.8534
   46MOL0     C 6088  10.814   5.703   0.708  0.0005  0.2324  0.7175
   46MOL0     C 6089  10.950   5.751   0.667 -0.4783  0.8179 -0.2917
   46MOL0     C 6090  11.035   5.628   0.613 -0.7247 -0.3245 -0.4927
   46MOL0     C 6091  11.181   5.657   0.570  0.5427 -0.4751 -0.5735
   46MOL0     N 6092  11.269   5.690   0.677  0.1520  0.2519  0.1349
   46MOL0     C 6093  11.281   5.622   0.795 -0.2488 -0.1042 -0.7492
   46MOL0     C 6094  11.361   5.701   0.866 -0.1880 -0.1205 -0.0209
   46MOL0     C 6095  11.398   5.700   1.008 -0.4508 -0.2517 -0.5115
   46MOL0     C 6096  11.310   5.627   1.111 -0.6749 -0.1624 -0.6221
   46MOL0     C 6097  11.170   5.685   1.123  0.1291 -0.3888 -0.9484
   46MOL0     C 6098  11.177   5.840   1.157 -0.5458  0.8943  0.4985
   46MOL0     O 6099  11.063   5.893   1.218 -0.3955  0.2464  0.6894
   46MOL0     C 6100  11.079   5.971   1.333  0.2040  0.9260  0.1864
   46MOL0     C 6101  11.067   5.919   1.457 -0.4877  0.2663 -0.7506
   46MOL0     C 6102  11.089   6.003   1.566  0.3627  0.5756 -0.1310
   46MOL0     C 6103  11.050   5.940   1.700 -0.1379 -1.0252 -0.1425
   46MOL0     C 6104  11.143   6.135   1.552 -0.1929  0.2476  1.1143
   46MOL0     C 6105  11.167   6.238   1.657  0.1015  0.1818 -0.4495
   46MOL0     O 6106  11.205   6.191   1.786 -1.2049 -0.4446 -0.1234
   46MOL0     C 6107  11.236   6.267   1.883  0.2633 -0.1419  0.7018
   46MOL0     C 6108  11.327   6.369   1.856 -0.2619 -1.4130  0.2032
   46MOL0     C 6109  11.369   6.454   1.954  0.0449 -0.3565 -0.5391
   46MOL0     C 6110  11.340   6.440   2.089  1.2340  0.6591  0.1739
   46MOL0     O 6111  11.406   6.522   2.178  1.1536 -0.1796 -0.1463
   46MOL0     C 6112  11.362   6.513   2.319  0.6784 -0.6158  0.7195
   46MOL0     C 6113  11.446   6.603   2.402 -0.6165 -0.7079  0.0413
   46MOL0     C 6114  11.389   6.638   2.545 -0.3284 -0.0647  0.3412
   46MOL0     C 6115  11.370   6.506   2.634 -0.3623 -0.4503 -0.6857
   46MOL0     C 6116  11.308   6.537   2.773  0.6970 -1.1744 -0.0389
   46MOL0     C 6117  11.395   6.601   2.878 -0.5319 -0.7112 -0.2862
   46MOL0     C 6118  11.306   6.635   3.005  0.8120 -0.3376  0.0879
   46MOL0     C 6119  11.371   6.742   3.090 -0.2976  0.1137  0.2022
   46MOL0    Cl 6120  11.545   6.727   3.112  0.3942  0.0690 -0.0868
   46MOL0     C 6121  11.265   6.319   2.124  0.1810  0.4330 -1.1996
   46MOL0     C 6122  11.210   6.242   2.018 -0.2017  0.5091 -0.4532
   46MOL0     O 6123  11.140   6.356   1.629 -0.1829 -0.2556 -0.0666
   46MOL0     C 6124  11.158   6.178   1.415  0.3151 -0.8416 -0.5623
   46MOL0     C 6125  11.132   6.091   1.311 -0.7474 -0.2877 -0.3009
   46MOL0     N 6126  11.407   5.802   0.778 -0.9336  0.0134 -0.6447
   46MOL0     N 6127  11.362   5.787   0.664  0.0392 -0.6538 -0.4126
   46MOL0     C 6128  10.773   5.725   1.445  0.2249  0.0229 -0.3522
   46MOL0     C 6129  10.791   5.704   1.589 -0.1631  0.0137  0.4321
   46MOL0     C 6130  10.703   5.763   2.028  0.3208 -0.7783  0.8608
   46MOL0     C 6131  10.720   5.875   2.123  0.3181  0.4030  0.0369
   46MOL0     C 6132  10.729   5.850   2.249  0.0103  0.2773 -0.7266
   46MOL0     C 6133  10.717   5.719   2.303 -0.2877 -1.4227  0.8310
   46MOL0     O 6134  10.730   5.677   2.432 -0.3906 -0.1448  0.9277
   46MOL0     C 6135  10.679   5.761   2.536 -0.1974  0.2528  0.5661
   46MOL0     C 6136  10.784   5.829   2.612  0.0987 -0.9481  0.2550
   46MOL0     C 6137  10.899   5.744   2.664 -0.3288  0.1400  0.2247
   46MOL0     C 6138  10.975   5.804   2.778  0.4847 -0.2932 -0.7597
   46MOL0     C 6139  11.028   5.929   2.739 -0.0207  0.1657  0.1549
   46MOL0     C 6140  11.080   6.036   2.723 -0.0589  0.4475 -0.1436
   46MOL0     C 6141  10.686   5.610   2.209  0.3891  0.1864  1.5300
   46MOL0     C 6142  10.683   5.636   2.077  0.4209  0.3068 -0.4425
   46MOL0     H 6143  10.470   5.742   1.696 -0.4363  2.1891  0.6557
   46MOL0     H 6144  10.444   5.811   1.448 -0.3837 -3.9309 -1.7720
   46MOL0     H 6145  10.771   5.914   1.194 -2.3750  2.0914 -0.2459
   46MOL0     H 6146  10.796   5.734   1.193  0.3157  0.1551  0.2279
   46MOL0     H 6147  10.581   5.766   1.020  0.5005  1.3860  1.5025
   46MOL0     H 6148  10.629   5.933   1.018 -2.7519 -0.2863  0.8596
   46MOL0     H 6149  10.876   5.853   0.947 -0.0789 -0.8673 -0.0258
   46MOL0     H 6150  10.817   5.689   0.967  1.8813 -0.4304  2.2720
   46MOL0     H 6151  10.630   5.782   0.776 -0.4720  2.4486  0.6624
   46MOL0     H 6152  10.747   5.906   0.759  0.3744  0.0335  2.8664
   46MOL0     H 6153  10.814   5.602   0.751 -1.7062  0.1505  0.5860
   46MOL0     H 6154  10.755   5.689   0.617  0.8052 -0.6555  0.3105
   46MOL0     H 6155  10.951   5.840   0.603 -0.2981  0.1623 -1.2200
   46MOL0     H 6156  11.001   5.789   0.756  1.9126 -0.0543 -1.2290
   46MOL0     H 6157  11.044   5.550   0.689  0.3337 -1.9182 -2.1937
   46MOL0     H 6158  10.980   5.586   0.529 -0.6199 -1.7673  0.1352
   46MOL0     H 6159  11.205   5.731   0.493 -0.8552  0.3941 -0.1940
   46MOL0     H 6160  11.208   5.562   0.522 -2.7316 -1.1824 -1.3042
   46MOL0     H 6161  11.224   5.536   0.830  0.0688  1.3886  4.0940
   46MOL0     H 6162  11.499   5.660   1.022 -1.0676 -1.1435  1.9051
   46MOL0     H 6163  11.422   5.802   1.041  4.8546 -1.2164 -0.4674
   46MOL0     H 6164  11.357   5.624   1.210 -0.3749 -4.4778 -0.6970
   46MOL0     H 6165  11.291   5.524   1.078 -0.8026 -0.5526  0.6257
   46MOL0     H 6166  11.112   5.634   1.201  1.8558  1.1758  1.4697
   46MOL0     H 6167  11.112   5.677   1.030 -0.4596  2.6608 -0.9456
   46MOL0     H 6168  11.207   5.897   1.069  0.6324 -0.5931 -0.1170
   46MOL0     H 6169  11.268   5.839   1.219  2.2495  4.3081 -3.0646
   46MOL0     H 6170  11.036   5.816   1.474 -0.1873  0.2426 -0.3319
   46MOL0     H 6171  11.024   5.834   1.686 -0.4057 -0.7704 -1.8664
   46MOL0     H 6172  11.123   5.946   1.781  0.0746  1.1782 -0.4455
   46MOL0     H 6173  10.970   5.999   1.746  1.7723  0.2306  1.7331
   46MOL0     H 6174  11.351   6.388   1.752 -4.7585 -2.2574 -1.2030
   46MOL0     H 6175  11.448   6.522   1.923  2.3111 -2.6876 -0.1799
   46MOL0     H 6176  11.256   6.541   2.314  0.4076 -1.6758  0.1465
   46MOL0     H 6177  11.372   6.410   2.356  0.1228 -0.6528  0.7773
   46MOL0     H 6178  11.543   6.552   2.408  0.1460  0.6884  0.0195
   46MOL0     H 6179  11.460   6.700   2.354 -0.5435 -1.3764 -1.3663
   46MOL0     H 6180  11.294   6.691   2.533 -0.9633 -1.0466  0.8720
   46MOL0     H 6181  11.465   6.695   2.598  2.8713 -3.5205 -0.0743
   46MOL0     H 6182  11.298   6.440   2.584 -0.8858  0.3563 -1.0124
   46MOL0     H 6183  11.464   6.451   2.636  1.1014  1.8588 -1.5623
   46MOL0     H 6184  11.257   6.458   2.830 -1.1057  1.6676  2.6579
   46MOL0     H 6185  11.235   6.615   2.755 -0.4953 -1.3679  3.1892
   46MOL0     H 6186  11.467   6.522   2.905 -0.5583 -1.1884 -1.5299
   46MOL0     H 6187  11.447   6.688   2.836 -1.2518  0.3772  1.0125
   46MOL0     H 6188  11.282   6.548   3.066  2.0886  0.4937  1.8752
   46MOL0     H 6189  11.210   6.675   2.969  0.8160 -0.1428  0.2885
   46MOL0     H 6190  11.321   6.740   3.188  2.6702 -0.5026  1.8130
   46MOL0     H 6191  11.358   6.840   3.043  3.0705 -0.1477 -1.5945
   46MOL0     H 6192  11.239   6.307   2.229 -1.5692  1.2789 -1.4935
   46MOL0     H 6193  11.151   6.153   2.038  1.9024 -1.0760 -0.9447
   46MOL0     H 6194  11.181   6.281   1.392 -2.2068  0.1233  0.8001
   46MOL0     H 6195  11.174   6.131   1.219 -1.3954  1.3243  0.0682
   46MOL0     H 6196  10.855   5.712   1.375  1.2233  0.7648  0.6293
   46MOL0     H 6197  10.889   5.678   1.629  0.3467 -0.6502 -1.1513
   46MOL0     H 6198  10.708   5.982   2.106 -2.5598  0.4637  1.7086
   46MOL0     H 6199  10.732   5.932   2.320  1.8283  1.0064 -1.5767
   46MOL0     H 6200  10.616   5.835   2.485  0.6352 -0.9904 -2.5035
   46MOL0     H 6201  10.613   5.700   2.599  0.7505 -3.0430 -1.4113
   46MOL0     H 6202  10.744   5.886   2.697  0.3147 -1.5071  0.7419
   46MOL0     H 6203  10.813   5.904   2.538 -2.7914 -0.4277 -0.4709
   46MOL0     H 6204  10.973   5.718   2.587  0.3768  0.2724  0.8508
   46MOL0     H 6205  10.861   5.646   2.696 -0.9878 -0.6069 -2.5103
   46MOL0     H 6206  11.055   5.740   2.817 -2.4082 -2.1358  2.8519
   46MOL0     H 6207  10.909   5.810   2.865  3.5988 -1.2792  1.8569
   46MOL0     H 6208  11.146   6.119   2.713 -1.9914  2.3874  1.9294
   46MOL0     H 6209  10.661   5.509   2.239 -1.0438  0.2367  0.5896
   46MOL0     H 6210  10.661   5.553   2.010 -1.9011  0.8868 -0.4690
   47MOL0     O 6211   1.880   1.907   0.512 -0.1326  1.0740 -0.2610
   47MOL0     C 6212   1.989   1.915   0.564 -0.3417 -0.5117  0.3995
   47MOL0     O 6213   2.021   2.000   0.674  0.2786 -0.1137 -0.1385
   47MOL0     C 6214   1.957   2.119   0.696  0.7811  0.0546  0.9688
   47MOL0     C 6215   2.005   2.246   0.670 -0.2309  0.5374 -0.3988
   47MOL0     C 6216   1.932   2.363   0.704  0.8158 -0.2749  1.2502
   47MOL0     C 6217   1.801   2.351   0.757  0.2374 -0.4366  0.3964
   47MOL0     O 6218   1.732   2.477   0.783 -0.3638  0.5301  0.0829
   47MOL0     C 6219   1.645   2.471   0.895  0.2493  0.6062 -0.0595
   47MOL0     C 6220   1.550   2.589   0.905  0.0780  0.1098  0.8733
   47MOL0     C 6221   1.464   2.593   1.038 -0.1167 -1.2889  0.5039
   47MOL0     C 6222   1.365   2.479   1.046 -0.5797  0.3392 -0.8236
   47MOL0     C 6223   1.305   2.466   1.182  0.5392 -0.1083 -0.8699
   47MOL0     C 6224   1.163   2.383   1.181  0.2345 -0.9373  0.6381
   47MOL0     C 6225   1.053   2.406   1.288 -0.2005 -0.4157  0.4455
   47MOL0     C 6226   0.950   2.304   1.288  0.2599 -0.2857 -0.0709
   47MOL0     N 6227   0.998   2.189   1.365  0.4440  0.2208 -0.0467
   47MOL0     C 6228   0.964   2.175   1.492 -0.3270 -0.3118 -0.6027
   47MOL0     C 6229   1.005   2.049   1.516 -0.2365  0.7670 -0.5739
   47MOL0     C 6230   0.961   1.969   1.633 -0.0391  0.0878  0.1007
   47MOL0     C 6231   1.052   2.005   1.753 -0.3509 -0.2415 -0.4696
   47MOL0     C 6232   1.034   1.919   1.881 -0.9853 -0.0519  0.4352
   47MOL0     C 6233   0.892   1.931   1.953 -0.6838  0.4097 -0.0912
   47MOL0     O 6234   0.869   2.060   2.016  0.1676  0.8388 -0.3498
   47MOL0     C 6235   0.925   2.065   2.141 -0.5551  0.2832 -0.4269
   47MOL0     C 6236   1.036   2.153   2.169 -0.4557  0.1142  0.6099
   47MOL0     C 6237   1.082   2.172   2.298 -0.4990  0.1276  0.1285
   47MOL0     C 6238   1.204   2.259   2.330  0.0841  0.5288 -0.2563
   47MOL0     C 6239   1.015   2.104   2.401  0.7030  0.0447  0.2628
   47MOL0     C 6240   1.060   2.115   2.543 -0.0984  0.5282  0.3640
   47MOL0     O 6241   1.043   2.003   2.619 -0.9864 -0.5568  0.6227
   47MOL0     C 6242   1.066   1.999   2.753 -0.4183  0.5970  0.7660
   47MOL0     C 6243   1.150   2.075   2.833 -0.2958 -0.9183  0.5982
   47MOL0     C 6244   1.160   2.058   2.974 -0.0535  0.1368 -0.8781
   47MOL0     C 6245   1.094   1.950   3.042  0.6048 -0.4088 -0.0092
   47MOL0     O 6246   1.107   1.937   3.178 -0.5275 -0.4889  0.0448
   47MOL0     C 6247   1.043   1.821   3.242 -0.6972 -0.5241 -0.2090
   47MOL0     C 6248   1.075   1.857   3.388  0.1106 -0.7337 -0.2516
   47MOL0     C 6249   1.221   1.832   3.427  0.5639  0.1035 -0.1747
   47MOL0     C 6250   1.259   1.922   3.542 -0.5773 -0.3665  1.3593
   47MOL0     C 6251   1.202   1.888   3.680  0.1296 -0.1193  0.4072
   47MOL0     C 6252   1.262   1.757   3.739  0.3999 -0.4036 -0.3398
   47MOL0     C 6253   1.385   1.778   3.827 -0.3230  0.3243  0.2114
   47MOL0     C 6254   1.407   1.665   3.926  0.2370  0.7130  0.0932
   47MOL0    Cl 6255   1.423   1.498   3.864  0.1909 -0.1294 -0.0732
   47MOL0     C 6256   1.028   1.861   2.955 -0.6922 -0.4111 -0.8455
   47MOL0     C 6257   1.012   1.893   2.817 -0.4326 -0.7944  0.1247
   47MOL0     O 6258   1.092   2.225   2.582  0.0842  0.3176 -0.1394
   47MOL0     C 6259   0.909   2.013   2.375 -0.7357  0.3663 -0.0195
   47MOL0     C 6260   0.856   2.005   2.242 -0.7864 -1.3840  0.3220
   47MOL0     N 6261   1.059   1.992   1.406  0.1105  0.8193  0.3769
   47MOL0     N 6262   1.064   2.081   1.316  0.9171 -0.1266  0.5368
   47MOL0     C 6263   1.759   2.217   0.802  0.2345 -0.1885 -0.2786
   47MOL0     C 6264   1.834   2.111   0.770  0.7040  0.0105  0.9593
   47MOL0     C 6265   2.088   1.811   0.536  0.8828 -0.0519  0.2862
   47MOL0     C 6266   2.217   1.808   0.602 -0.0785 -0.0380 -0.0566
   47MOL0     C 6267   2.313   1.721   0.564  0.8531  1.2223 -0.8330
   47MOL0     C 6268   2.288   1.611   0.487 -0.1403 -0.4266 -0.4693
   47MOL0     O 6269   2.389   1.516   0.469 -0.0445  0.2665 -0.1655
   47MOL0     C 6270   2.374   1.423   0.361 -0.3400  0.3722 -0.2525
   47MOL0     C 6271   2.508   1.357   0.338 -0.3462  0.0514  0.0742
   47MOL0     C 6272   2.600   1.428   0.238 -0.4309  0.6486  0.5001
   47MOL0     C 6273   2.737   1.361   0.218  0.6851 -0.9717  0.2796
   47MOL0     C 6274   2.735   1.224   0.172 -0.3919  0.0381  0.7689
   47MOL0     C 6275   2.729   1.109   0.154  0.7755 -0.7312  0.1444
   47MOL0     C 6276   2.156   1.602   0.427 -0.7558  0.4362  0.1034
   47MOL0     C 6277   2.058   1.706   0.452  0.2603  0.6270  0.5022
   47MOL0     H 6278   2.100   2.256   0.620 -0.1891 -0.1935 -0.4685
   47MOL0     H 6279   1.970   2.462   0.682  2.9355 -1.0624  1.1907
   47MOL0     H 6280   1.576   2.386   0.902  2.8192 -1.4284  2.6467
   47MOL0     H 6281   1.700   2.475   0.989 -1.7059 -1.0997  1.2330
   47MOL0     H 6282   1.605   2.683   0.901  0.3953 -0.1138 -0.0238
   47MOL0     H 6283   1.478   2.581   0.823  0.7355 -1.4828  0.4221
   47MOL0     H 6284   1.538   2.575   1.118  1.0874  1.9393  0.2448
   47MOL0     H 6285   1.413   2.688   1.051  1.0612 -0.5422 -0.1131
   47MOL0     H 6286   1.289   2.496   0.969  0.1417  0.1177 -1.6001
   47MOL0     H 6287   1.410   2.380   1.035  1.3908  1.0995 -0.0519
   47MOL0     H 6288   1.368   2.416   1.256 -1.0933 -0.9759  0.0003
   47MOL0     H 6289   1.286   2.565   1.224 -0.2870 -0.1743 -1.0756
   47MOL0     H 6290   1.111   2.397   1.086  0.8774  3.1745  0.7287
   47MOL0     H 6291   1.188   2.277   1.170 -3.4817 -1.6790 -3.0901
   47MOL0     H 6292   1.105   2.418   1.383  0.4311  3.4960 -0.2112
   47MOL0     H 6293   1.004   2.503   1.278 -2.4016 -1.5485 -0.4144
   47MOL0     H 6294   0.930   2.269   1.186  1.0410 -1.8937  0.3061
   47MOL0     H 6295   0.855   2.342   1.327  0.1931 -2.0839  1.6346
   47MOL0     H 6296   0.908   2.242   1.557  0.7579  2.3349 -2.2275
   47MOL0     H 6297   0.857   1.985   1.662  0.7502  0.8749  2.9246
   47MOL0     H 6298   0.966   1.860   1.623  0.3796  0.0680  0.4640
   47MOL0     H 6299   1.019   2.106   1.781 -2.3606 -0.8531 -0.4499
   47MOL0     H 6300   1.158   2.000   1.725  0.0232  0.1932  0.8284
   47MOL0     H 6301   1.106   1.947   1.958 -0.8584  1.0195 -0.0535
   47MOL0     H 6302   1.055   1.822   1.837  3.2401  1.1503 -0.6069
   47MOL0     H 6303   0.879   1.857   2.033 -0.6079  3.3894  2.8864
   47MOL0     H 6304   0.816   1.927   1.874  0.1811  0.4961 -0.9322
   47MOL0     H 6305   1.080   2.211   2.089 -0.2025 -0.0282  0.6461
   47MOL0     H 6306   1.179   2.346   2.390 -2.8619 -1.0112  0.9338
   47MOL0     H 6307   1.275   2.192   2.379  0.8219 -0.5467 -2.6053
   47MOL0     H 6308   1.263   2.301   2.248  0.3393  2.1359  0.7065
   47MOL0     H 6309   1.208   2.158   2.794 -1.0706  0.9919  3.2217
   47MOL0     H 6310   1.211   2.126   3.041 -0.2340 -0.8626  0.3092
   47MOL0     H 6311   0.937   1.826   3.217 -0.0104 -0.6517 -3.5309
   47MOL0     H 6312   1.066   1.722   3.203 -0.1819 -0.1348 -0.9109
   47MOL0     H 6313   1.047   1.957   3.422  1.7862 -1.0855  2.4888
   47MOL0     H 6314   1.004   1.787   3.433  0.3092 -1.7661 -1.4921
   47MOL0     H 6315   1.287   1.843   3.340 -1.5731  2.5751 -1.6269
   47MOL0     H 6316   1.211   1.729   3.460 -0.3796  0.3988  0.5075
   47MOL0     H 6317   1.366   1.944   3.551 -0.5199  1.0595 -1.6386
   47MOL0     H 6318   1.219   2.020   3.515  2.9978  0.3949 -2.0162
   47MOL0     H 6319   1.094   1.872   3.675 -0.0727  0.9070  1.1383
   47MOL0     H 6320   1.215   1.975   3.745 -1.7706  0.9910 -0.5956
   47MOL0     H 6321   1.188   1.712   3.805  0.0928 -0.3731 -0.6634
   47MOL0     H 6322   1.285   1.689   3.656  1.0810 -0.8953  0.2314
   47MOL0     H 6323   1.376   1.869   3.888  2.0071  2.2371 -2.0599
   47MOL0     H 6324   1.467   1.800   3.758 -0.1022  2.0149  0.9419
   47MOL0     H 6325   1.324   1.669   3.998 -0.2773 -2.6457 -0.1676
   47MOL0     H 6326   1.497   1.677   3.988  2.7782 -3.4257 -2.3805
   47MOL0     H 6327   0.981   1.772   2.995 -0.3296  0.5327  1.8644
   47MOL0     H 6328   0.956   1.817   2.763 -1.4002 -0.0610  0.0841
   47MOL0     H 6329   0.868   1.956   2.457  0.8063 -4.2767 -2.1667
   47MOL0     H 6330   0.767   1.945   2.226 -0.7539 -1.1935 -0.6037
   47MOL0     H 6331   1.679   2.192   0.872  0.7227 -1.4051 -0.1204
   47MOL0     H 6332   1.798   2.019   0.814  0.3351  0.5882  1.8829
   47MOL0     H 6333   2.237   1.875   0.685 -0.7765  2.5321 -1.8392
   47MOL0     H 6334   2.417   1.731   0.593  1.0300 -0.3250 -0.8442
   47MOL0     H 6335   2.308   1.350   0.411  1.6062  0.1957  2.2411
   47MOL0     H 6336   2.329   1.460   0.269 -1.0460 -1.8925 -0.8967
   47MOL0     H 6337   2.491   1.254   0.303  1.5634 -1.4449  3.1178
   47MOL0     H 6338   2.559   1.337   0.432  0.0771 -0.3155 -0.2262
   47MOL0     H 6339   2.615   1.535   0.255 -1.4206  0.7778  0.6179
   47MOL0     H 6340   2.553   1.429   0.140  0.8628 -1.7927 -0.2299
   47MOL0     H 6341   2.786   1.366   0.316 -1.3335  0.1184  1.3042
   47MOL0     H 6342   2.794   1.427   0.152 -0.1906 -1.8137 -1.3953
   47MOL0     H 6343   2.723   1.002   0.151 -3.5908 -0.7186  1.0950
   47MOL0     H 6344   2.123   1.517   0.368  3.3101  0.0040 -1.8762
   47MOL0     H 6345   1.963   1.691   0.403  0.7133  0.4892 -0.3608
   48MOL0     O 6346   9.163   2.995   7.460 -0.0932 -0.4918  0.5696
   48MOL0     C 6347   9.183   3.094   7.387  0.1985 -0.1549  0.4013
   48MOL0     O 6348   9.295   3.179   7.402 -0.4862 -0.1384  0.0074
   48MOL0     C 6349   9.408   3.172   7.493  0.9886  0.9303 -0.2525
   48MOL0     C 6350   9.430   3.074   7.586  0.0650  0.3255  0.2767
   48MOL0     C 6351   9.543   3.079   7.669 -0.8204 -0.7656 -0.2228
   48MOL0     C 6352   9.628   3.188   7.674 -1.4838 -0.2839  0.3048
   48MOL0     O 6353   9.730   3.203   7.760  0.2834  0.3305  0.0666
   48MOL0     C 6354   9.785   3.077   7.820  0.6810 -0.7849 -0.2144
   48MOL0     C 6355   9.907   3.123   7.891 -0.4449 -0.1216  0.0168
   48MOL0     C 6356   9.999   3.006   7.944  0.2118 -0.3713  0.3434
   48MOL0     C 6357  10.132   3.060   8.002 -0.1624 -0.5235 -0.2065
   48MOL0     C 6358  10.241   3.098   7.904 -0.6924  0.2587  0.4130
   48MOL0     C 6359  10.294   2.963   7.842  0.1865  0.0980  0.0885
   48MOL0     C 6360  10.445   2.984   7.813  0.4568 -0.0246  0.1876
   48MOL0     C 6361  10.493   2.851   7.752 -0.6137  0.6412  0.9322
   48MOL0     N 6362  10.494   2.742   7.843 -0.7146  0.5169  0.3722
   48MOL0     C 6363  10.611   2.695   7.906  0.5967 -0.1384  0.3493
   48MOL0     C 6364  10.573   2.572   7.942  0.3092  0.2988  0.0837
   48MOL0     C 6365  10.685   2.495   8.014  0.3626 -0.8466  0.1027
   48MOL0     C 6366  10.620   2.434   8.140  0.3647 -0.4635 -1.0028
   48MOL0     C 6367  10.728   2.405   8.245  0.1126  0.1775 -0.0382
   48MOL0     C 6368  10.679   2.323   8.361 -0.0159 -0.1757 -0.8275
   48MOL0     O 6369  10.790   2.335   8.463  0.6073  0.6671  0.9725
   48MOL0     C 6370  10.803   2.231   8.549  0.1243  0.2136 -0.1378
   48MOL0     C 6371  10.711   2.127   8.582  0.2597  0.1015 -0.1864
   48MOL0     C 6372  10.743   2.030   8.676  0.3171  0.0949 -0.5927
   48MOL0     C 6373  10.642   1.925   8.695  0.5434  0.3245  0.0304
   48MOL0     C 6374  10.868   2.036   8.747 -0.0303  0.4755 -0.0665
   48MOL0     C 6375  10.892   1.966   8.876  0.4575  1.0159 -0.5048
   48MOL0     O 6376  10.806   1.869   8.918  0.3644  0.1650 -0.5265
   48MOL0     C 6377  10.821   1.813   9.044 -1.1717 -0.0808 -0.8850
   48MOL0     C 6378  10.936   1.734   9.066  0.0253 -0.1365  0.3928
   48MOL0     C 6379  10.946   1.646   9.180  0.0857  0.5213  0.3949
   48MOL0     C 6380  10.834   1.642   9.266 -0.3747 -0.4691 -0.5548
   48MOL0     O 6381  10.837   1.549   9.372 -0.0017  0.6655  0.1786
   48MOL0     C 6382  10.752   1.561   9.481 -0.0787 -1.4560  0.2418
   48MOL0     C 6383  10.813   1.483   9.601 -0.3783  0.1236  0.4623
   48MOL0     C 6384  10.724   1.475   9.724 -0.0360  0.1307  0.1997
   48MOL0     C 6385  10.585   1.432   9.698  1.2658 -0.0655  0.2012
   48MOL0     C 6386  10.509   1.415   9.835 -0.7502  0.1995  0.5868
   48MOL0     C 6387  10.386   1.329   9.840  0.2108  0.3870  0.2804
   48MOL0     C 6388  10.330   1.328   9.988  0.0072  0.0628  0.0204
   48MOL0     C 6389  10.228   1.436   9.996  0.1675 -0.1862  0.3496
   48MOL0    Cl 6390  10.058   1.376   9.975 -0.3817  0.0656 -0.4712
   48MOL0     C 6391  10.728   1.736   9.244 -0.3930 -0.2284 -0.0051
   48MOL0     C 6392  10.725   1.820   9.137 -0.4027 -0.0255 -0.0828
   48MOL0     O 6393  11.001   1.992   8.932  0.1014 -0.7662  0.8599
   48MOL0     C 6394  10.966   2.143   8.710  0.4446 -0.4604 -0.6884
   48MOL0     C 6395  10.927   2.239   8.620 -0.6951  0.2123  0.9950
   48MOL0     N 6396  10.441   2.531   7.905 -0.3896 -0.2702 -0.0785
   48MOL0     N 6397  10.395   2.644   7.848 -1.0738 -0.4009 -0.6144
   48MOL0     C 6398   9.603   3.288   7.576  0.0445 -0.1070 -0.4227
   48MOL0     C 6399   9.492   3.281   7.492  0.0388 -0.5569  0.2858
   48MOL0     C 6400   9.097   3.116   7.260  0.0412 -0.1792 -1.5931
   48MOL0     C 6401   9.099   3.248   7.200  0.3217  0.4805 -0.2148
   48MOL0     C 6402   9.025   3.263   7.084  0.0762 -0.9195 -0.7600
   48MOL0     C 6403   8.934   3.159   7.039  0.5598 -0.3054 -0.1347
   48MOL0     O 6404   8.846   3.166   6.934 -0.3064  0.6450  0.6881
   48MOL0     C 6405   8.841   3.301   6.878 -0.0421  0.0207 -0.0349
   48MOL0     C 6406   8.734   3.300   6.772  0.1986  1.2361 -0.7794
   48MOL0     C 6407   8.773   3.198   6.660  0.3811 -0.1817 -0.6701
   48MOL0     C 6408   8.675   3.211   6.537 -1.0562  0.0134 -0.8667
   48MOL0     C 6409   8.533   3.204   6.584 -0.3812 -0.1659  0.7424
   48MOL0     C 6410   8.425   3.182   6.618  0.1409  0.1380  0.1168
   48MOL0     C 6411   8.936   3.040   7.096  0.4779 -1.0469  0.5809
   48MOL0     C 6412   9.016   3.019   7.209 -0.4338  0.8509  0.4342
   48MOL0     H 6413   9.364   2.989   7.601  1.3311 -0.2496  3.3463
   48MOL0     H 6414   9.551   3.002   7.745 -2.1361 -2.3916 -1.6550
   48MOL0     H 6415   9.719   3.032   7.894 -0.9118 -0.8912 -1.6474
   48MOL0     H 6416   9.802   3.012   7.733  1.9102 -0.7419 -0.0313
   48MOL0     H 6417   9.977   3.176   7.825 -0.5359  1.4091  1.0987
   48MOL0     H 6418   9.887   3.183   7.980 -2.1408  0.2565 -0.5831
   48MOL0     H 6419   9.954   2.939   8.018  1.2990 -1.0910  0.3684
   48MOL0     H 6420  10.028   2.942   7.860  0.0143  1.5420 -1.2616
   48MOL0     H 6421  10.106   3.153   8.054  1.7356 -0.7569  1.3146
   48MOL0     H 6422  10.176   2.988   8.071  0.4233 -1.5078 -1.5725
   48MOL0     H 6423  10.211   3.173   7.830 -1.6275  0.1790  0.6947
   48MOL0     H 6424  10.312   3.163   7.956 -2.8016  1.9482  1.3204
   48MOL0     H 6425  10.270   2.880   7.909  0.8146 -0.6727 -0.6215
   48MOL0     H 6426  10.239   2.950   7.749  0.9135  2.2052 -0.6900
   48MOL0     H 6427  10.463   3.074   7.753 -1.9503 -0.4758 -1.3151
   48MOL0     H 6428  10.496   3.001   7.908  0.2909 -3.0018  0.9161
   48MOL0     H 6429  10.597   2.865   7.722 -0.0915  0.5746  2.5957
   48MOL0     H 6430  10.444   2.821   7.659  3.7224  1.5912 -1.9375
   48MOL0     H 6431  10.712   2.736   7.906 -0.0167  1.4825 -0.7122
   48MOL0     H 6432  10.728   2.419   7.949  2.5288 -0.5861  1.1499
   48MOL0     H 6433  10.774   2.555   8.035  2.4746 -3.9586  0.8100
   48MOL0     H 6434  10.571   2.337   8.133  1.0306 -1.1252  2.0297
   48MOL0     H 6435  10.540   2.500   8.174 -0.4115 -2.0862  0.4647
   48MOL0     H 6436  10.773   2.498   8.282 -1.4279  0.0877  2.2437
   48MOL0     H 6437  10.811   2.355   8.195  0.1763  0.4751 -0.2380
   48MOL0     H 6438  10.664   2.222   8.322  1.6254 -0.5161 -0.6697
   48MOL0     H 6439  10.586   2.359   8.406 -0.9529 -0.2531 -2.6335
   48MOL0     H 6440  10.613   2.127   8.536 -0.4755 -1.9123  1.2193
   48MOL0     H 6441  10.692   1.828   8.691 -0.5403 -0.2340 -0.4410
   48MOL0     H 6442  10.595   1.943   8.792 -2.7795 -1.4687 -1.1057
   48MOL0     H 6443  10.562   1.913   8.621  0.5168  2.0511 -0.2704
   48MOL0     H 6444  11.015   1.744   8.992 -1.1243 -0.0830 -0.8643
   48MOL0     H 6445  11.032   1.581   9.182 -0.0243  0.3908  1.6562
   48MOL0     H 6446  10.740   1.666   9.508 -1.4886 -1.4498 -0.3132
   48MOL0     H 6447  10.657   1.517   9.450 -0.0777 -0.4991 -1.1943
   48MOL0     H 6448  10.825   1.381   9.563 -1.9910  0.9764 -2.6918
   48MOL0     H 6449  10.914   1.515   9.625 -0.1975 -0.6080  0.6965
   48MOL0     H 6450  10.724   1.578   9.763 -1.4113 -0.4732  1.8773
   48MOL0     H 6451  10.775   1.408   9.794  2.8291  1.3566 -0.5326
   48MOL0     H 6452  10.537   1.515   9.647 -0.4311 -0.9923  0.2113
   48MOL0     H 6453  10.568   1.348   9.630 -4.0984  1.4296 -0.7235
   48MOL0     H 6454  10.488   1.513   9.878 -0.6108 -0.7180  2.8735
   48MOL0     H 6455  10.582   1.371   9.903 -0.2330 -1.2713 -0.8350
   48MOL0     H 6456  10.322   1.380   9.767 -0.1065  1.2590  1.1513
   48MOL0     H 6457  10.399   1.226   9.806  0.1259  0.6831 -0.6790
   48MOL0     H 6458  10.406   1.340  10.065  0.8446 -0.8690 -0.6289
   48MOL0     H 6459  10.276   1.233   9.997 -1.6219  0.7575 -1.7222
   48MOL0     H 6460  10.254   1.519   9.930  2.7416 -0.5551  0.8001
   48MOL0     H 6461  10.230   1.482  10.095 -2.8144 -0.9322  0.8707
   48MOL0     H 6462  10.637   1.729   9.302 -1.6542 -1.1400 -1.9651
   48MOL0     H 6463  10.642   1.888   9.125 -1.2910 -0.7574  1.5835
   48MOL0     H 6464  11.064   2.145   8.758 -0.3016  2.6064  0.9342
   48MOL0     H 6465  10.996   2.322   8.607 -0.2932 -0.4680 -2.0727
   48MOL0     H 6466   9.675   3.367   7.559  1.8733 -1.5351  0.3364
   48MOL0     H 6467   9.477   3.361   7.420 -2.7765  0.1615  1.5643
   48MOL0     H 6468   9.164   3.327   7.238  1.5954 -0.5797 -0.1140
   48MOL0     H 6469   9.035   3.352   7.023  1.6699 -1.1675 -0.8879
   48MOL0     H 6470   8.828   3.382   6.950  2.5556  1.3006 -0.8810
   48MOL0     H 6471   8.936   3.324   6.829 -0.0967  0.7022  0.1805
   48MOL0     H 6472   8.720   3.398   6.725 -2.6567  1.0927 -0.3463
   48MOL0     H 6473   8.638   3.278   6.819  1.6230 -1.4450  1.1797
   48MOL0     H 6474   8.767   3.096   6.699  2.8568 -0.3083 -0.4840
   48MOL0     H 6475   8.879   3.215   6.637  0.2882  2.6071  0.4791
   48MOL0     H 6476   8.695   3.128   6.467 -0.7086  2.5122 -3.9582
   48MOL0     H 6477   8.704   3.296   6.475 -2.0288  1.0368  0.0374
   48MOL0     H 6478   8.320   3.169   6.635  0.2268 -1.4259 -0.3407
   48MOL0     H 6479   8.863   2.970   7.056 -0.9205 -0.1296  1.4253
   48MOL0     H 6480   9.012   2.924   7.262 -2.8637  0.4946 -0.2584
   49MOL0     O 6481   6.666   8.485   6.302  0.5358  0.3625  0.0669
   49MOL0     C 6482   6.678   8.357   6.294  0.7541 -0.7858 -0.3472
   49MOL0     O 6483   6.791   8.279   6.302  0.5201 -0.1462  0.7513
   49MOL0     C 6484   6.910   8.338   6.266 -0.2167 -0.3669 -0.1746
   49MOL0     C 6485   6.931   8.416   6.151  0.3900 -0.2088  0.4879
   49MOL0     C 6486   7.041   8.494   6.140 -0.3549  0.6514 -0.1880
   49MOL0     C 6487   7.147   8.496   6.224 -0.3871  0.0235 -0.0418
   49MOL0     O 6488   7.263   8.564   6.206 -0.5035  0.2226  0.3237
   49MOL0     C 6489   7.248   8.694   6.144  0.1667  1.5458 -0.3962
   49MOL0     C 6490   7.375   8.781   6.138 -0.4753  0.2026  0.5702
   49MOL0     C 6491   7.423   8.812   6.281  1.0413 -0.1158  0.3155
   49MOL0     C 6492   7.318   8.875   6.370  0.5019 -0.0689 -1.0219
   49MOL0     C 6493   7.267   9.019   6.334  0.4760  0.9426 -0.2914
   49MOL0     C 6494   7.391   9.111   6.292 -0.2422 -0.4804 -0.4256
   49MOL0     C 6495   7.338   9.256   6.273  0.7679 -1.1926  0.1907
   49MOL0     C 6496   7.241   9.281   6.155 -0.6773  0.2524  0.0578
   49MOL0     N 6497   7.288   9.388   6.065 -0.6512  0.0807  0.1764
   49MOL0     C 6498   7.396   9.363   5.982  0.0417  0.4064  0.0094
   49MOL0     C 6499   7.402   9.481   5.909 -0.6322  0.5814  0.7385
   49MOL0     C 6500   7.491   9.511   5.796  0.1707 -0.7385  0.8389
   49MOL0     C 6501   7.602   9.605   5.842  0.0507 -0.3396  1.2387
   49MOL0     C 6502   7.528   9.738   5.880 -0.1038  0.3460  0.3298
   49MOL0     C 6503   7.613   9.861   5.837 -0.1548  0.5162  0.4569
   49MOL0     O 6504   7.728   9.878   5.919 -0.7774  0.4822  0.6649
   49MOL0     C 6505   7.766  10.008   5.941  0.6535 -1.0671 -0.3066
   49MOL0     C 6506   7.822  10.028   6.061 -0.7195  0.0223 -0.2988
   49MOL0     C 6507   7.863  10.158   6.091 -0.0612  0.4359  0.4233
   49MOL0     C 6508   7.890  10.199   6.231 -0.3109  0.5354  0.1462
   49MOL0     C 6509   7.869  10.258   5.993 -0.4704 -0.7678  0.0971
   49MOL0     C 6510   7.921  10.398   6.015  0.3295  0.9815  0.4825
   49MOL0     O 6511   7.856  10.486   5.932  0.4988 -0.0843  0.9044
   49MOL0     C 6512   7.904  10.609   5.926 -0.3753 -0.7027  0.6435
   49MOL0     C 6513   7.954  10.651   5.803  1.1806  0.2812 -0.9011
   49MOL0     C 6514   8.002  10.777   5.780  0.7759  0.4379 -0.5082
   49MOL0     C 6515   8.006  10.871   5.885  0.5462  0.0311  0.2318
   49MOL0     O 6516   8.034  11.001   5.854  0.8042  1.0932  1.1862
   49MOL0     C 6517   8.066  11.084   5.960  0.0659  0.6772  0.4638
   49MOL0     C 6518   8.091  11.226   5.920 -0.5140 -0.1860  0.6989
   49MOL0     C 6519   8.131  11.316   6.034  0.3940 -0.5702 -0.6423
   49MOL0     C 6520   8.127  11.466   5.995  0.3047 -0.1860  0.0865
   49MOL0     C 6521   8.130  11.572   6.109  1.2983 -0.1393  0.2270
   49MOL0     C 6522   8.260  11.592   6.189 -0.4559  0.8355 -0.4791
   49MOL0     C 6523   8.372  11.660   6.103  0.5691  0.3633 -0.0848
   49MOL0     C 6524   8.517  11.638   6.152 -0.0025 -0.0054  0.5318
   49MOL0    Cl 6525   8.646  11.694   6.024 -0.1119  0.0631 -0.3276
   49MOL0     C 6526   7.961  10.823   6.014  0.4728 -0.0616  0.5230
   49MOL0     C 6527   7.908  10.693   6.033  0.3209 -0.1422 -0.6727
   49MOL0     O 6528   8.013  10.423   6.095  0.2273 -0.3184  0.3688
   49MOL0     C 6529   7.807  10.233   5.867 -0.2337  0.0009  0.0551
   49MOL0     C 6530   7.759  10.108   5.848 -0.1715  0.0751  0.9448
   49MOL0     N 6531   7.299   9.560   5.946 -0.4842  0.0335 -0.2761
   49MOL0     N 6532   7.227   9.503   6.035 -0.1396 -0.1339  0.5700
   49MOL0     C 6533   7.133   8.413   6.344 -0.0190  0.6141 -0.1003
   49MOL0     C 6534   7.015   8.336   6.366  1.0830 -0.1020 -0.8059
   49MOL0     C 6535   6.559   8.284   6.240 -0.3096 -0.5532 -1.0688
   49MOL0     C 6536   6.453   8.357   6.180  0.5572 -0.6317  0.4758
   49MOL0     C 6537   6.342   8.286   6.143  0.7797  0.3487  1.1651
   49MOL0     C 6538   6.342   8.153   6.146  0.2265  0.6953  0.6198
   49MOL0     O 6539   6.225   8.093   6.099  0.3234 -0.0741  0.5965
   49MOL0     C 6540   6.130   8.040   6.194 -0.6451 -0.1915  0.5978
   49MOL0     C 6541   5.987   8.095   6.152 -0.4517 -0.7853 -0.8888
   49MOL0     C 6542   5.928   8.031   6.028  0.4153 -0.9736 -0.0480
   49MOL0     C 6543   5.927   7.880   5.997 -0.3459 -0.3478  0.4705
   49MOL0     C 6544   5.888   7.816   6.125 -0.2444  0.3271  0.9765
   49MOL0     C 6545   5.838   7.769   6.225 -0.2853  0.6692  0.6061
   49MOL0     C 6546   6.446   8.079   6.196 -0.7060 -0.1836  0.0470
   49MOL0     C 6547   6.554   8.139   6.253 -0.5855 -1.0349  0.3072
   49MOL0     H 6548   6.840   8.429   6.093  0.2990 -0.2261  0.6243
   49MOL0     H 6549   7.042   8.571   6.064  2.5527  2.1368  1.1803
   49MOL0     H 6550   7.223   8.671   6.040  1.0039 -0.1740 -0.2616
   49MOL0     H 6551   7.171   8.739   6.206 -0.8627 -0.2571 -0.3143
   49MOL0     H 6552   7.469   8.739   6.101  2.1795  3.5518  2.8376
   49MOL0     H 6553   7.358   8.873   6.082  2.0534 -0.3996 -1.4001
   49MOL0     H 6554   7.446   8.714   6.323  1.1266  0.6746  2.2133
   49MOL0     H 6555   7.519   8.862   6.267  0.9761 -0.3151 -0.9579
   49MOL0     H 6556   7.222   8.824   6.383  0.0821  0.4036 -2.1469
   49MOL0     H 6557   7.369   8.869   6.467 -0.1333 -4.6070 -0.7393
   49MOL0     H 6558   7.185   9.016   6.261 -1.4280 -0.2266  1.7833
   49MOL0     H 6559   7.222   9.060   6.424 -1.8676 -3.5666  0.9005
   49MOL0     H 6560   7.471   9.108   6.367 -0.5275 -0.3199 -0.1087
   49MOL0     H 6561   7.439   9.078   6.200 -0.1153 -2.2929  0.2366
   49MOL0     H 6562   7.304   9.306   6.364 -2.7171 -2.7357 -0.1219
   49MOL0     H 6563   7.432   9.303   6.242 -0.5813 -0.2106 -2.7637
   49MOL0     H 6564   7.141   9.306   6.190 -0.0083  1.6181  1.1060
   49MOL0     H 6565   7.240   9.194   6.089 -0.9743 -0.2911  0.7852
   49MOL0     H 6566   7.448   9.270   5.967  0.1563  0.7652 -2.1429
   49MOL0     H 6567   7.535   9.417   5.760 -0.8552 -0.8130 -0.3273
   49MOL0     H 6568   7.444   9.559   5.710  1.2532  1.7719  1.5684
   49MOL0     H 6569   7.677   9.613   5.763  2.1810  2.5693  3.3537
   49MOL0     H 6570   7.661   9.557   5.921  1.3591 -3.0510 -1.2145
   49MOL0     H 6571   7.515   9.743   5.988  1.1907  1.3689  0.4609
   49MOL0     H 6572   7.429   9.753   5.837 -0.4692  1.3983  1.5195
   49MOL0     H 6573   7.546   9.946   5.850 -1.8211 -0.5942 -0.4939
   49MOL0     H 6574   7.636   9.855   5.730 -3.0180 -5.8280 -0.2800
   49MOL0     H 6575   7.814   9.950   6.136  0.5163 -0.2239 -0.3994
   49MOL0     H 6576   7.881  10.116   6.301 -0.2165 -0.3449 -0.8569
   49MOL0     H 6577   7.996  10.227   6.233 -0.6809  3.1255 -3.9140
   49MOL0     H 6578   7.832  10.286   6.263 -1.2061  0.4203 -1.1183
   49MOL0     H 6579   7.928  10.604   5.708  0.1186  0.1258 -0.5461
   49MOL0     H 6580   8.028  10.792   5.675 -1.4273  0.3163 -1.1111
   49MOL0     H 6581   7.985  11.090   6.033 -2.6063 -2.9078 -1.8862
   49MOL0     H 6582   8.159  11.043   6.002  0.9575  1.3538 -0.7812
   49MOL0     H 6583   8.170  11.235   5.844 -0.4313 -1.2021  0.6426
   49MOL0     H 6584   7.990  11.259   5.894 -0.0086 -1.1556 -3.1738
   49MOL0     H 6585   8.226  11.278   6.074 -0.7518 -0.1568  2.8626
   49MOL0     H 6586   8.065  11.298   6.120  1.7107 -0.6244  0.4046
   49MOL0     H 6587   8.219  11.484   5.937  0.6887 -0.6018  0.5652
   49MOL0     H 6588   8.039  11.474   5.931  1.8796  0.5799 -2.1061
   49MOL0     H 6589   8.065  11.526   6.184 -2.6297  0.2120 -2.6339
   49MOL0     H 6590   8.080  11.667   6.086 -4.6629 -2.6234  1.1132
   49MOL0     H 6591   8.237  11.649   6.279  2.5709 -0.5376  1.3180
   49MOL0     H 6592   8.287  11.490   6.219 -1.6089  0.1408 -1.6538
   49MOL0     H 6593   8.348  11.767   6.107  1.2562  0.5061  0.5270
   49MOL0     H 6594   8.368  11.616   6.004  0.1183  0.2667 -0.0225
   49MOL0     H 6595   8.523  11.531   6.174  0.0873  0.1090  1.0863
   49MOL0     H 6596   8.538  11.682   6.251 -1.2855 -1.6694  1.6002
   49MOL0     H 6597   7.963  10.883   6.104  2.6268 -3.0746  2.7157
   49MOL0     H 6598   7.876  10.665   6.132  0.0533  2.1468 -0.0574
   49MOL0     H 6599   7.795  10.307   5.789 -5.0235 -2.6373 -2.1466
   49MOL0     H 6600   7.713  10.091   5.751 -0.2810  0.8798  0.8512
   49MOL0     H 6601   7.208   8.411   6.422  0.9947  1.0022 -1.0376
   49MOL0     H 6602   7.010   8.281   6.460  2.3084 -3.5619 -2.5573
   49MOL0     H 6603   6.459   8.465   6.170 -0.3007 -0.5600  0.6296
   49MOL0     H 6604   6.257   8.347   6.114 -1.0601 -2.5235  0.1568
   49MOL0     H 6605   6.135   7.931   6.200  1.0913 -0.1265  0.7116
   49MOL0     H 6606   6.151   8.079   6.295  0.2601  1.2520 -0.1071
   49MOL0     H 6607   5.989   8.201   6.128 -0.4056 -0.6102 -0.1435
   49MOL0     H 6608   5.916   8.073   6.232 -2.6843 -0.7802 -2.7735
   49MOL0     H 6609   5.994   8.068   5.949  2.2223 -1.8008  1.0135
   49MOL0     H 6610   5.825   8.067   6.018  0.4885 -0.8860 -0.5374
   49MOL0     H 6611   6.019   7.831   5.965 -2.3056 -1.8586 -3.4940
   49MOL0     H 6612   5.859   7.861   5.914  0.8979 -2.1114 -0.2010
   49MOL0     H 6613   5.792   7.735   6.316  1.7847 -1.5077  0.9160
   49MOL0     H 6614   6.426   7.974   6.217  2.7985 -0.9023  0.4512
   49MOL0     H 6615   6.639   8.079   6.284  0.1247 -1.3168 -1.9876
   50MOL0     O 6616   8.606   6.079   6.091 -0.6207  0.1999  0.3075
   50MOL0     C 6617   8.498   6.133   6.096  0.2254 -1.7059 -0.7727
   50MOL0     O 6618   8.399   6.109   6.014  0.2884 -0.3954  0.0376
   50MOL0     C 6619   8.418   6.038   5.893 -0.0410  0.1679 -0.5597
   50MOL0     C 6620   8.339   5.922   5.892 -0.6413 -0.1413 -0.2928
   50MOL0     C 6621   8.355   5.835   5.785  0.8385 -0.7255  0.1123
   50MOL0     C 6622   8.429   5.875   5.672  1.1569  0.0357  0.2981
   50MOL0     O 6623   8.441   5.789   5.568  0.2653  0.1365  0.4289
   50MOL0     C 6624   8.484   5.823   5.434 -0.1220 -0.0276  0.8904
   50MOL0     C 6625   8.481   5.694   5.353  0.2247 -0.6846  0.7230
   50MOL0     C 6626   8.531   5.718   5.206  0.7625  0.7633  0.2832
   50MOL0     C 6627   8.440   5.810   5.131 -0.0515 -0.5339 -0.0009
   50MOL0     C 6628   8.497   5.831   4.997  0.0427 -0.7193  0.9610
   50MOL0     C 6629   8.387   5.889   4.894  0.0443  0.0454 -0.0376
   50MOL0     C 6630   8.434   5.868   4.756 -0.1589  0.6555 -0.3497
   50MOL0     C 6631   8.358   5.930   4.641  0.3147  0.7032 -0.1799
   50MOL0     N 6632   8.408   6.065   4.622 -0.3106  0.9467  0.5799
   50MOL0     C 6633   8.460   6.116   4.501  0.0860  0.9212 -0.1806
   50MOL0     C 6634   8.449   6.248   4.509 -1.1611  0.2314  0.3567
   50MOL0     C 6635   8.475   6.354   4.415  0.4695  0.5715 -1.1008
   50MOL0     C 6636   8.606   6.339   4.341 -0.1267  0.5220  0.3094
   50MOL0     C 6637   8.652   6.484   4.311  0.2373  0.0825  0.4280
   50MOL0     C 6638   8.584   6.551   4.177  0.2342 -0.4276 -0.8728
   50MOL0     O 6639   8.640   6.479   4.068  0.1927 -0.7953  1.0462
   50MOL0     C 6640   8.644   6.545   3.944 -0.4753 -0.2575  0.3762
   50MOL0     C 6641   8.701   6.467   3.843  0.0909 -1.0054 -0.1903
   50MOL0     C 6642   8.711   6.506   3.709 -0.1065 -0.3858  0.0065
   50MOL0     C 6643   8.783   6.418   3.601  0.6855  0.3894 -0.8732
   50MOL0     C 6644   8.646   6.626   3.680  0.5474  0.0955 -0.0603
   50MOL0     C 6645   8.627   6.667   3.539  0.2800  0.4690 -0.9205
   50MOL0     O 6646   8.725   6.752   3.495 -0.2206  0.1152  0.7321
   50MOL0     C 6647   8.725   6.767   3.352 -1.0264  0.5254 -0.5985
   50MOL0     C 6648   8.838   6.706   3.282 -0.4113  0.3315  0.1608
   50MOL0     C 6649   8.830   6.697   3.141  0.1393  0.5914 -0.1801
   50MOL0     C 6650   8.732   6.767   3.070  0.3860  0.4408  0.1557
   50MOL0     O 6651   8.731   6.769   2.935  0.5220 -0.1186  0.3238
   50MOL0     C 6652   8.599   6.741   2.877  0.2836  0.7147 -0.5576
   50MOL0     C 6653   8.549   6.589   2.904  0.2785  1.3001 -0.5433
   50MOL0     C 6654   8.410   6.567   2.836 -0.3466  0.5041 -0.1825
   50MOL0     C 6655   8.374   6.423   2.866 -0.1585 -0.0928 -0.3969
   50MOL0     C 6656   8.239   6.386   2.794  0.6801 -0.8604 -0.0563
   50MOL0     C 6657   8.186   6.248   2.827  0.3204  0.3612 -0.2681
   50MOL0     C 6658   8.135   6.249   2.972  0.3823 -0.2846  0.2283
   50MOL0     C 6659   8.054   6.126   3.002  0.2828 -0.7709 -0.3138
   50MOL0    Cl 6660   8.161   5.982   2.969 -0.1282  0.1631  0.0545
   50MOL0     C 6661   8.632   6.837   3.147  0.4106  0.4642  0.6548
   50MOL0     C 6662   8.629   6.830   3.287  0.5164 -0.3548  0.2833
   50MOL0     O 6663   8.541   6.614   3.471 -0.3155 -0.1298 -0.0855
   50MOL0     C 6664   8.586   6.708   3.777 -0.4912 -0.6985 -0.8924
   50MOL0     C 6665   8.582   6.665   3.909 -0.5916 -0.0156  0.2247
   50MOL0     N 6666   8.398   6.275   4.631 -0.9068 -0.9608 -0.6341
   50MOL0     N 6667   8.373   6.170   4.703  0.4787  1.0432  1.1477
   50MOL0     C 6668   8.511   5.989   5.683  1.5101 -0.1874 -0.7322
   50MOL0     C 6669   8.511   6.065   5.795  0.1147 -0.1673 -0.2087
   50MOL0     C 6670   8.477   6.201   6.226 -0.5877 -0.5169  0.1153
   50MOL0     C 6671   8.346   6.248   6.264  0.3056  0.0536  0.2073
   50MOL0     C 6672   8.316   6.312   6.381 -0.5144  0.9611 -0.0272
   50MOL0     C 6673   8.422   6.355   6.459  0.7603  0.0676  0.4338
   50MOL0     O 6674   8.389   6.409   6.582 -0.2330  0.0367  0.7009
   50MOL0     C 6675   8.399   6.317   6.690 -0.4059  0.7249  0.6164
   50MOL0     C 6676   8.529   6.341   6.779  0.1215 -0.3385  0.7303
   50MOL0     C 6677   8.532   6.269   6.913 -0.4697 -0.2074 -0.0229
   50MOL0     C 6678   8.669   6.280   6.976 -0.0617 -0.3193 -0.8344
   50MOL0     C 6679   8.683   6.165   7.068  0.5259 -0.0319  0.4625
   50MOL0     C 6680   8.683   6.072   7.152  0.2836 -1.0412 -0.0463
   50MOL0     C 6681   8.558   6.314   6.428  0.6422  0.4703  0.3309
   50MOL0     C 6682   8.588   6.245   6.308 -0.5273 -0.6561  0.5591
   50MOL0     H 6683   8.289   5.897   5.984 -1.1149 -1.3937 -0.8752
   50MOL0     H 6684   8.306   5.741   5.805 -1.4657  0.9879  3.6171
   50MOL0     H 6685   8.409   5.888   5.387 -0.5887 -0.7912  0.5529
   50MOL0     H 6686   8.581   5.873   5.441 -0.7848  1.1910  1.7909
   50MOL0     H 6687   8.554   5.635   5.409  1.5655  1.0767  0.9215
   50MOL0     H 6688   8.382   5.646   5.355  0.9582 -2.2312  1.0411
   50MOL0     H 6689   8.628   5.766   5.219  0.6120  1.8511 -2.0668
   50MOL0     H 6690   8.531   5.617   5.164 -0.1532  1.3104 -1.0969
   50MOL0     H 6691   8.337   5.774   5.130 -0.4518  0.5723 -1.9941
   50MOL0     H 6692   8.444   5.910   5.175  0.4097  0.1477 -1.5056
   50MOL0     H 6693   8.590   5.887   4.992 -1.6440  2.2989 -3.4285
   50MOL0     H 6694   8.514   5.730   4.959  0.5312 -0.6768  1.0668
   50MOL0     H 6695   8.289   5.843   4.915  0.1148  0.3495  1.0504
   50MOL0     H 6696   8.367   5.995   4.911 -0.5686 -0.1878  0.8469
   50MOL0     H 6697   8.541   5.887   4.746  0.2185 -0.1123  1.8730
   50MOL0     H 6698   8.426   5.759   4.756  1.5027  0.5120  0.7718
   50MOL0     H 6699   8.252   5.933   4.667  0.2248 -1.2804 -0.1450
   50MOL0     H 6700   8.383   5.863   4.558  2.0831 -0.3529  1.1211
   50MOL0     H 6701   8.490   6.058   4.414 -2.0537  0.2242 -0.5286
   50MOL0     H 6702   8.393   6.348   4.343 -1.3552 -1.4769  0.9596
   50MOL0     H 6703   8.477   6.449   4.469  1.3984  0.2530 -0.5595
   50MOL0     H 6704   8.581   6.281   4.252 -1.6672  0.0764  1.0062
   50MOL0     H 6705   8.688   6.301   4.403 -2.3773  0.4426  3.4578
   50MOL0     H 6706   8.760   6.473   4.304  0.0444 -1.1641 -1.6545
   50MOL0     H 6707   8.624   6.549   4.394  2.4072  0.1740  1.1395
   50MOL0     H 6708   8.610   6.657   4.181  2.4281 -0.8738  3.5490
   50MOL0     H 6709   8.475   6.542   4.184  0.2563  0.2767  1.5851
   50MOL0     H 6710   8.746   6.370   3.862  2.3547  0.0329  0.1162
   50MOL0     H 6711   8.845   6.346   3.656 -3.0622 -1.4375  1.2940
   50MOL0     H 6712   8.709   6.355   3.553 -0.5877 -1.8418  3.5373
   50MOL0     H 6713   8.837   6.478   3.527 -0.3108 -0.0506 -1.9763
   50MOL0     H 6714   8.911   6.664   3.350 -0.5119 -1.4458 -0.7877
   50MOL0     H 6715   8.909   6.652   3.082 -0.7823 -1.2091 -0.1039
   50MOL0     H 6716   8.518   6.813   2.891 -1.2300 -0.9055 -0.5929
   50MOL0     H 6717   8.612   6.753   2.769 -0.9154 -1.7559 -1.0545
   50MOL0     H 6718   8.608   6.503   2.871 -1.8349 -0.0131 -1.0750
   50MOL0     H 6719   8.541   6.584   3.013 -0.1133 -0.8746 -0.6385
   50MOL0     H 6720   8.418   6.581   2.728  2.0751 -1.9589 -0.4523
   50MOL0     H 6721   8.342   6.634   2.889  1.9404  0.6344  2.9239
   50MOL0     H 6722   8.459   6.361   2.836  0.9740  0.3397  1.7526
   50MOL0     H 6723   8.369   6.413   2.974 -1.3658 -0.6778 -0.4793
   50MOL0     H 6724   8.254   6.393   2.685 -0.6978 -1.3834 -0.3004
   50MOL0     H 6725   8.166   6.463   2.823  1.0854 -0.8143  0.8604
   50MOL0     H 6726   8.108   6.228   2.753 -0.1331  2.4356 -0.4153
   50MOL0     H 6727   8.261   6.171   2.805  1.0841  1.8200 -3.4089
   50MOL0     H 6728   8.070   6.336   2.982  1.8061  1.2383 -2.5799
   50MOL0     H 6729   8.225   6.249   3.034  0.9343  1.6438 -0.4806
   50MOL0     H 6730   7.960   6.134   2.946 -0.7965 -0.1031  1.5253
   50MOL0     H 6731   8.004   6.132   3.099 -2.0604  0.5748 -1.5144
   50MOL0     H 6732   8.552   6.879   3.086  1.6723  0.0658 -1.3848
   50MOL0     H 6733   8.556   6.877   3.352  1.4451 -0.7180  1.6352
   50MOL0     H 6734   8.533   6.799   3.752 -3.1599 -1.7955  0.4225
   50MOL0     H 6735   8.526   6.721   3.983  1.8677 -1.7823  3.7342
   50MOL0     H 6736   8.577   6.020   5.603  0.2701  2.5166 -0.8056
   50MOL0     H 6737   8.577   6.151   5.804 -0.2235  0.4236 -2.7886
   50MOL0     H 6738   8.262   6.223   6.199  1.4869  0.1706 -1.4479
   50MOL0     H 6739   8.220   6.332   6.427  1.5119  5.3443  3.0089
   50MOL0     H 6740   8.300   6.319   6.736 -1.5040 -0.2841 -1.5259
   50MOL0     H 6741   8.416   6.216   6.652 -0.3457  1.1940 -0.6502
   50MOL0     H 6742   8.525   6.447   6.803 -0.7693 -0.1416 -0.2205
   50MOL0     H 6743   8.616   6.310   6.720  0.6925 -0.5513  1.6714
   50MOL0     H 6744   8.497   6.166   6.908 -1.7564  0.2572 -2.4397
   50MOL0     H 6745   8.470   6.331   6.979  3.0145  0.4825  2.9282
   50MOL0     H 6746   8.672   6.374   7.032 -2.4260 -1.4773  1.4480
   50MOL0     H 6747   8.747   6.268   6.900  0.8611 -1.1600  0.2110
   50MOL0     H 6748   8.690   5.997   7.229  2.4449 -1.3583 -0.5053
   50MOL0     H 6749   8.632   6.336   6.504 -1.8010  0.1825  2.9869
   50MOL0     H 6750   8.696   6.233   6.308 -0.1033  2.0094  2.8548
   51MOL0     O 6751   5.039  10.157   9.959 -0.5804 -0.2557  0.7097
   51MOL0     C 6752   5.084  10.044   9.956 -0.4190 -0.4345  0.3596
   51MOL0     O 6753   5.220  10.014   9.955 -0.7845 -0.3291 -0.2218
   51MOL0     C 6754   5.302  10.118   9.951  1.0713 -0.5409  0.2283
   51MOL0     C 6755   5.352  10.179   9.828 -0.7272  0.0334 -0.3818
   51MOL0     C 6756   5.442  10.287   9.834 -0.6916  0.2519  0.6073
   51MOL0     C 6757   5.483  10.336   9.958  0.4234 -0.9008 -0.1476
   51MOL0     O 6758   5.572  10.429   9.968 -0.2145  1.0711  0.0219
   51MOL0     C 6759   5.535  10.564   9.938  0.5460  0.2373 -0.5366
   51MOL0     C 6760   5.576  10.639  10.074 -0.1734  0.2266  0.0385
   51MOL0     C 6761   5.441  10.651  10.163 -0.8549  0.0607  0.2765
   51MOL0     C 6762   5.475  10.711  10.307 -0.3528 -0.1561  0.6701
   51MOL0     C 6763   5.346  10.777  10.370 -0.3410  0.0612  0.2512
   51MOL0     C 6764   5.397  10.830  10.506 -0.0052  0.5632  0.3706
   51MOL0     C 6765   5.294  10.907  10.583 -0.0060 -0.0460 -0.4631
   51MOL0     C 6766   5.299  11.053  10.538 -0.8940 -0.0609  0.0309
   51MOL0     N 6767   5.421  11.118  10.604  0.0485 -0.3718 -0.0447
   51MOL0     C 6768   5.448  11.137  10.738 -0.0746  1.1136 -0.9141
   51MOL0     C 6769   5.559  11.206  10.747 -0.1141 -0.3744 -0.6210
   51MOL0     C 6770   5.615  11.267  10.875  0.1126 -0.1444  0.3118
   51MOL0     C 6771   5.549  11.389  10.926  1.2218  0.3239  0.0935
   51MOL0     C 6772   5.568  11.507  10.819  0.6939 -1.0089  0.0318
   51MOL0     C 6773   5.625  11.642  10.882  0.4280  0.0960  0.8921
   51MOL0     O 6774   5.561  11.685  11.003 -0.2783 -0.1401  0.4057
   51MOL0     C 6775   5.635  11.776  11.073 -0.6375 -0.7902 -0.0446
   51MOL0     C 6776   5.582  11.796  11.197  0.0578 -1.0011  0.0056
   51MOL0     C 6777   5.649  11.885  11.291  0.3963  0.3741 -0.4836
   51MOL0     C 6778   5.593  11.897  11.436  0.6013 -0.6590 -0.2140
   51MOL0     C 6779   5.770  11.949  11.248 -0.8544  0.3963  0.2230
   51MOL0     C 6780   5.836  12.050  11.332 -0.4565  0.4670  0.3629
   51MOL0     O 6781   5.765  12.112  11.432 -0.0278 -0.1025 -0.5065
   51MOL0     C 6782   5.833  12.207  11.508  0.6774  0.0566  0.6228
   51MOL0     C 6783   5.796  12.217  11.642  0.4117  0.5913  0.7473
   51MOL0     C 6784   5.844  12.318  11.732  0.1648  1.3565  0.6942
   51MOL0     C 6785   5.941  12.408  11.686  0.2023  0.6537 -0.9663
   51MOL0     O 6786   5.968  12.515  11.762  1.1262 -0.5271 -0.7566
   51MOL0     C 6787   6.090  12.579  11.773 -0.1053  0.1233  0.9353
   51MOL0     C 6788   6.197  12.477  11.813  0.4774 -0.0372  0.1278
   51MOL0     C 6789   6.335  12.535  11.792  0.2036  0.2286 -0.4586
   51MOL0     C 6790   6.365  12.639  11.903  0.9624  0.9899 -0.0211
   51MOL0     C 6791   6.501  12.715  11.883 -0.0346 -0.6694 -0.5279
   51MOL0     C 6792   6.537  12.813  11.991 -0.8654  0.2593  0.4151
   51MOL0     C 6793   6.677  12.867  11.973  0.3985  0.4329  0.5589
   51MOL0     C 6794   6.679  12.963  11.853 -0.0605 -0.1827 -0.0008
   51MOL0    Cl 6795   6.678  12.892  11.683 -0.4137  0.6466 -0.7624
   51MOL0     C 6796   5.985  12.389  11.553 -0.0024 -0.2305  0.4244
   51MOL0     C 6797   5.927  12.297  11.464 -0.9784  0.2392  0.0791
   51MOL0     O 6798   5.950  12.073  11.294  0.3413 -0.2523 -0.3257
   51MOL0     C 6799   5.814  11.923  11.117  0.6810  0.1769  0.0114
   51MOL0     C 6800   5.753  11.838  11.032 -0.6568 -0.8732  0.0441
   51MOL0     N 6801   5.602  11.237  10.625  0.5818  0.2733  0.0053
   51MOL0     N 6802   5.528  11.172  10.537 -0.4510 -0.6088  0.0474
   51MOL0     C 6803   5.436  10.275  10.072  0.0802  0.6750  0.4303
   51MOL0     C 6804   5.338  10.177  10.067 -0.2840  0.3336 -0.6004
   51MOL0     C 6805   4.991   9.938   9.969 -0.9326  0.1439  0.9426
   51MOL0     C 6806   5.041   9.807   9.952 -0.6918  0.3958  0.2808
   51MOL0     C 6807   4.949   9.698   9.954  0.6193 -0.5759 -0.3130
   51MOL0     C 6808   4.808   9.726   9.966 -0.4720  0.5887 -1.0074
   51MOL0     O 6809   4.720   9.621   9.952 -0.3322  0.4933  0.7840
   51MOL0     C 6810   4.575   9.628   9.932 -0.7949  0.9787 -0.7621
   51MOL0     C 6811   4.545   9.666   9.787  0.2259 -0.3511 -1.5608
   51MOL0     C 6812   4.396   9.657   9.757  0.2469  0.0573 -0.3631
   51MOL0     C 6813   4.330   9.778   9.826  0.5264  0.2604  0.1368
   51MOL0     C 6814   4.194   9.801   9.766  1.0872 -0.3942  0.3441
   51MOL0     C 6815   4.081   9.811   9.713  0.2615 -0.3456  0.0035
   51MOL0     C 6816   4.771   9.861   9.986  0.0467 -0.2174 -1.4495
   51MOL0     C 6817   4.858   9.966   9.997  0.6074  0.6959  0.2020
   51MOL0     H 6818   5.326  10.132   9.734  2.6544  1.7456 -2.3519
   51MOL0     H 6819   5.486  10.325   9.743 -0.2422  1.4553  1.3037
   51MOL0     H 6820   5.577  10.599   9.844  1.7715  3.3090  1.0438
   51MOL0     H 6821   5.427  10.574   9.926 -0.0111 -2.2943  1.4316
   51MOL0     H 6822   5.667  10.598  10.119 -0.5945  1.2080  1.8781
   51MOL0     H 6823   5.596  10.737  10.031 -2.2571  0.3065 -0.8511
   51MOL0     H 6824   5.367  10.708  10.107  0.0420  0.4856 -0.5144
   51MOL0     H 6825   5.387  10.557  10.179 -0.1474 -0.3081  0.5795
   51MOL0     H 6826   5.518  10.627  10.362  0.3402 -1.2786 -1.4982
   51MOL0     H 6827   5.549  10.791  10.291 -2.8842  2.0359 -0.9685
   51MOL0     H 6828   5.306  10.863  10.316 -3.5057 -1.7850 -0.5847
   51MOL0     H 6829   5.261  10.710  10.383 -2.7031  2.8707  0.3211
   51MOL0     H 6830   5.416  10.741  10.565  1.1373 -0.7250 -1.8160
   51MOL0     H 6831   5.491  10.886  10.502 -0.5335  2.1728  4.8744
   51MOL0     H 6832   5.194  10.863  10.576  0.8476 -2.1841  0.2586
   51MOL0     H 6833   5.311  10.903  10.691  3.6584 -0.5736 -0.9476
   51MOL0     H 6834   5.219  11.093  10.600  0.1946  0.8860  0.8705
   51MOL0     H 6835   5.290  11.070  10.431 -1.3498  1.4349  0.2805
   51MOL0     H 6836   5.389  11.109  10.825  1.0699  0.6495 -0.2645
   51MOL0     H 6837   5.624  11.197  10.958  1.2703 -1.2284 -0.6781
   51MOL0     H 6838   5.719  11.294  10.854  1.4242 -3.3507  1.9668
   51MOL0     H 6839   5.601  11.425  11.015  1.4097  1.1654 -0.3381
   51MOL0     H 6840   5.443  11.378  10.950  0.9562 -1.3182 -1.6001
   51MOL0     H 6841   5.468  11.535  10.782  0.4542 -0.6755  0.9227
   51MOL0     H 6842   5.630  11.473  10.735 -1.6339 -2.9511 -1.0400
   51MOL0     H 6843   5.601  11.723  10.811  1.9108 -1.5157 -1.6041
   51MOL0     H 6844   5.734  11.634  10.881  0.5143  1.1112  0.4566
   51MOL0     H 6845   5.487  11.754  11.226 -0.3576  0.2286  0.4856
   51MOL0     H 6846   5.542  11.993  11.448  0.0789 -1.1616  1.9694
   51MOL0     H 6847   5.517  11.821  11.459  1.5522 -0.7907  2.8717
   51MOL0     H 6848   5.664  11.877  11.517  0.9068 -3.5290 -1.0639
   51MOL0     H 6849   5.725  12.145  11.683 -0.6534  0.5790 -1.0103
   51MOL0     H 6850   5.832  12.320  11.840  3.2734  1.1335  1.1407
   51MOL0     H 6851   6.115  12.620  11.674  1.1194 -2.8929 -0.1299
   51MOL0     H 6852   6.079  12.656  11.849 -3.5664 -1.0218  1.7748
   51MOL0     H 6853   6.184  12.445  11.917  0.8878  0.3271  0.2953
   51MOL0     H 6854   6.186  12.388  11.750  0.8113 -0.8382  1.1563
   51MOL0     H 6855   6.342  12.576  11.691  1.1671  1.3938  0.0553
   51MOL0     H 6856   6.406  12.452  11.804  1.5348  1.3093 -0.6007
   51MOL0     H 6857   6.278  12.705  11.890 -1.7201 -2.4520 -0.9036
   51MOL0     H 6858   6.350  12.588  11.998 -0.9503 -0.0184 -0.8011
   51MOL0     H 6859   6.505  12.764  11.786 -1.9660  3.1919  1.1382
   51MOL0     H 6860   6.581  12.641  11.880  1.3490  0.8105 -2.6426
   51MOL0     H 6861   6.466  12.896  11.987 -1.8043 -0.5427  0.1121
   51MOL0     H 6862   6.521  12.770  12.090  0.6257  3.0502  1.9952
   51MOL0     H 6863   6.744  12.783  11.955 -1.2692 -0.3251 -2.9975
   51MOL0     H 6864   6.708  12.914  12.067 -3.2438  2.3459  0.9882
   51MOL0     H 6865   6.776  13.012  11.867 -0.4421  0.5288  0.1880
   51MOL0     H 6866   6.604  13.043  11.849 -3.6249 -3.2455 -0.0572
   51MOL0     H 6867   6.068  12.449  11.517  1.7390 -2.3406  0.6737
   51MOL0     H 6868   5.973  12.299  11.365  0.7550 -1.0209  0.8285
   51MOL0     H 6869   5.906  11.967  11.082  2.1834 -1.4148  1.7522
   51MOL0     H 6870   5.809  11.816  10.941  1.9126  1.5276  0.9117
   51MOL0     H 6871   5.471  10.306  10.170  0.4334  1.1096  0.1704
   51MOL0     H 6872   5.289  10.151  10.161 -0.0660 -0.0428 -0.5904
   51MOL0     H 6873   5.148   9.791   9.945 -0.0790  2.1245  3.5355
   51MOL0     H 6874   4.979   9.593   9.953 -2.5281 -1.6671  2.6639
   51MOL0     H 6875   4.544   9.524   9.947  3.8980 -0.7627 -1.2580
   51MOL0     H 6876   4.532   9.688  10.013  0.7694 -1.1951  1.8735
   51MOL0     H 6877   4.594   9.584   9.734  0.8286 -1.3878  0.5347
   51MOL0     H 6878   4.586   9.765   9.765 -0.3402  0.1773 -0.3038
   51MOL0     H 6879   4.350   9.563   9.790 -1.4031  0.6803 -0.7868
   51MOL0     H 6880   4.375   9.673   9.651 -1.3216 -0.8910 -0.2289
   51MOL0     H 6881   4.389   9.870   9.816  1.5836 -0.2309  1.4722
   51MOL0     H 6882   4.323   9.758   9.934  4.4026  1.4504  0.7576
   51MOL0     H 6883   3.983   9.827   9.673 -0.0440 -1.4991  0.2572
   51MOL0     H 6884   4.666   9.879  10.008  0.1402  0.8060 -1.7824
   51MOL0     H 6885   4.817  10.063  10.020  2.3332  1.4336  0.2878
   52MOL0     O 6886   1.700   3.994   0.176 -0.8777 -0.0228 -0.2044
   52MOL0     C 6887   1.734   4.010   0.294  1.3009 -0.2549  0.3999
   52MOL0     O 6888   1.855   3.982   0.344 -0.3584 -0.1344  0.0814
   52MOL0     C 6889   1.947   3.903   0.281  0.0954 -0.8105 -0.4821
   52MOL0     C 6890   1.923   3.793   0.200  1.1515  0.0217 -0.2378
   52MOL0     C 6891   2.019   3.729   0.122  0.3322 -0.1547  0.3215
   52MOL0     C 6892   2.154   3.764   0.128  1.0389  0.2564  1.1433
   52MOL0     O 6893   2.254   3.704   0.054 -0.0156  0.0271  0.0751
   52MOL0     C 6894   2.223   3.616  -0.048  0.8672  0.3745 -0.1875
   52MOL0     C 6895   2.331   3.554  -0.116  0.2232 -0.2490 -0.0652
   52MOL0     C 6896   2.435   3.484  -0.024 -0.7041  0.1450 -0.2809
   52MOL0     C 6897   2.526   3.412  -0.127 -0.1853 -0.4919  0.1365
   52MOL0     C 6898   2.669   3.402  -0.067  1.0722  0.0519 -0.1908
   52MOL0     C 6899   2.672   3.299   0.052  0.6010 -0.0808  0.5389
   52MOL0     C 6900   2.826   3.300   0.099 -0.7818  0.1414  0.3833
   52MOL0     C 6901   2.823   3.200   0.212  0.4484 -0.6642  0.3306
   52MOL0     N 6902   2.928   3.230   0.307  0.4588  0.1202  0.3464
   52MOL0     C 6903   2.923   3.334   0.390 -0.3806 -1.3076  0.4503
   52MOL0     C 6904   3.009   3.308   0.492 -0.0924  0.4249 -0.0806
   52MOL0     C 6905   3.027   3.411   0.598 -1.4888 -0.6676 -0.4508
   52MOL0     C 6906   3.174   3.472   0.589  0.0938 -0.2348  0.0039
   52MOL0     C 6907   3.176   3.579   0.483  0.8632 -0.9638 -0.6028
   52MOL0     C 6908   3.083   3.701   0.508 -0.0681  0.2470  0.8235
   52MOL0     O 6909   2.960   3.682   0.430  0.2571 -0.4457  0.7985
   52MOL0     C 6910   2.847   3.721   0.480 -0.2026  0.2680 -0.8445
   52MOL0     C 6911   2.738   3.701   0.400  0.4687  0.7774  0.1586
   52MOL0     C 6912   2.612   3.739   0.456  0.0935  0.4454  1.1203
   52MOL0     C 6913   2.488   3.719   0.359 -0.4969  0.3883 -0.8778
   52MOL0     C 6914   2.599   3.805   0.578 -0.6823  0.3900 -0.2771
   52MOL0     C 6915   2.465   3.830   0.627 -0.4305 -0.6394 -0.8504
   52MOL0     O 6916   2.402   3.723   0.674 -0.0631  0.0891 -1.1185
   52MOL0     C 6917   2.262   3.710   0.676  0.1286  0.1276 -0.1304
   52MOL0     C 6918   2.217   3.581   0.700  1.2728  0.4003 -0.6694
   52MOL0     C 6919   2.084   3.544   0.703  0.2117 -0.0834 -0.7990
   52MOL0     C 6920   1.982   3.646   0.689  0.0821  0.5378  0.0523
   52MOL0     O 6921   1.846   3.611   0.704 -0.2520 -0.0639 -0.6476
   52MOL0     C 6922   1.736   3.686   0.640  0.3711 -0.2068 -0.3747
   52MOL0     C 6923   1.599   3.614   0.660  0.4566 -0.3159  0.7897
   52MOL0     C 6924   1.560   3.513   0.552 -0.6364  0.5406  0.6055
   52MOL0     C 6925   1.419   3.472   0.564  0.0112 -0.0732 -0.3653
   52MOL0     C 6926   1.399   3.373   0.681  0.4844 -0.4628 -0.3029
   52MOL0     C 6927   1.262   3.326   0.709  0.7836 -0.6771  0.2243
   52MOL0     C 6928   1.159   3.425   0.758  0.0054 -0.8488 -0.0730
   52MOL0     C 6929   1.022   3.379   0.804  0.3240  0.3173 -0.8808
   52MOL0    Cl 6930   1.050   3.291   0.960 -0.2373  0.1786  0.6878
   52MOL0     C 6931   2.026   3.780   0.683 -0.3378 -0.7981 -0.4702
   52MOL0     C 6932   2.169   3.811   0.685  1.0077 -0.9083 -0.5903
   52MOL0     O 6933   2.426   3.952   0.637  0.7648  0.2396  0.2947
   52MOL0     C 6934   2.706   3.836   0.652 -0.1942 -0.0024  0.1583
   52MOL0     C 6935   2.834   3.803   0.601 -0.0056  0.7646 -0.1535
   52MOL0     N 6936   3.056   3.175   0.472  1.2597  0.0488 -0.6497
   52MOL0     N 6937   3.002   3.129   0.361 -0.1631 -0.7097 -0.2421
   52MOL0     C 6938   2.187   3.870   0.218 -0.3719 -0.2323 -0.0668
   52MOL0     C 6939   2.087   3.943   0.286  0.1495  0.1688 -0.4282
   52MOL0     C 6940   1.632   4.060   0.387  0.6201 -0.2723  0.0669
   52MOL0     C 6941   1.509   4.118   0.341  0.1339 -0.5572  0.6317
   52MOL0     C 6942   1.418   4.180   0.431 -0.6338 -1.2470 -0.6059
   52MOL0     C 6943   1.439   4.183   0.569  0.0800  0.2231  1.1583
   52MOL0     O 6944   1.343   4.244   0.648 -0.4064 -0.1439  0.3594
   52MOL0     C 6945   1.362   4.287   0.778  0.5868 -0.0090  0.0131
   52MOL0     C 6946   1.459   4.400   0.777 -0.6421  0.3162 -0.5112
   52MOL0     C 6947   1.465   4.473   0.915  0.8216 -0.6058 -0.2528
   52MOL0     C 6948   1.585   4.565   0.927  0.1929  0.7977 -1.0550
   52MOL0     C 6949   1.565   4.692   0.867 -0.7113 -0.5471 -0.0028
   52MOL0     C 6950   1.545   4.801   0.819 -0.1762  0.1089 -0.1083
   52MOL0     C 6951   1.562   4.131   0.612 -0.0763 -0.0481 -0.5789
   52MOL0     C 6952   1.649   4.061   0.524  0.4564  0.6120 -0.4973
   52MOL0     H 6953   1.825   3.749   0.183  0.5053  0.4563  2.0967
   52MOL0     H 6954   1.987   3.648   0.058  2.4222  0.9999 -2.3433
   52MOL0     H 6955   2.156   3.531  -0.033  1.0471 -0.2772 -2.7200
   52MOL0     H 6956   2.184   3.684  -0.125  2.4408  1.9714  0.3471
   52MOL0     H 6957   2.286   3.474  -0.175 -0.2098 -3.0676  3.7489
   52MOL0     H 6958   2.371   3.621  -0.193 -1.4256 -0.9774 -1.6457
   52MOL0     H 6959   2.495   3.556   0.033  1.1060 -1.3459 -0.2132
   52MOL0     H 6960   2.383   3.411   0.039  0.3973 -0.3430  0.0936
   52MOL0     H 6961   2.485   3.312  -0.140 -1.3163 -0.0996  0.5530
   52MOL0     H 6962   2.532   3.471  -0.219 -3.9027 -0.6448 -0.3462
   52MOL0     H 6963   2.728   3.377  -0.156  0.4523 -0.2442 -0.5274
   52MOL0     H 6964   2.690   3.503  -0.030 -2.9889  0.3407  1.8685
   52MOL0     H 6965   2.606   3.320   0.136  0.4921 -0.6874  0.6024
   52MOL0     H 6966   2.640   3.201   0.016  1.9283  0.1554 -1.4912
   52MOL0     H 6967   2.883   3.256   0.017 -0.2799  0.9529  0.2793
   52MOL0     H 6968   2.863   3.398   0.133  0.7655 -0.5320  0.7146
   52MOL0     H 6969   2.836   3.099   0.172  0.2255  0.5837 -3.3141
   52MOL0     H 6970   2.729   3.204   0.267 -0.8842  0.0456 -1.8392
   52MOL0     H 6971   2.880   3.430   0.361 -1.6536 -1.9821  0.0513
   52MOL0     H 6972   2.949   3.486   0.584  0.6103  1.7903  0.1245
   52MOL0     H 6973   3.019   3.363   0.696 -3.7374 -0.1974 -0.3656
   52MOL0     H 6974   3.244   3.395   0.556 -0.6032 -1.1498  0.6138
   52MOL0     H 6975   3.208   3.504   0.687 -0.0118  0.6349 -0.2340
   52MOL0     H 6976   3.157   3.542   0.382 -1.1731  0.8353 -0.9513
   52MOL0     H 6977   3.276   3.623   0.489  0.6399 -0.6013  0.5760
   52MOL0     H 6978   3.126   3.793   0.468 -3.5405  1.0912 -1.4599
   52MOL0     H 6979   3.070   3.707   0.617 -2.7298 -0.3767  0.6336
   52MOL0     H 6980   2.743   3.658   0.300 -1.8995 -1.3492  0.8451
   52MOL0     H 6981   2.474   3.809   0.298  0.8997  1.4875  0.3610
   52MOL0     H 6982   2.508   3.635   0.291  2.0078  0.2813 -0.1179
   52MOL0     H 6983   2.399   3.700   0.419 -1.2033  2.5885 -1.1374
   52MOL0     H 6984   2.294   3.510   0.727  0.9361  0.8297  1.6012
   52MOL0     H 6985   2.062   3.440   0.721  2.5586 -0.6823 -1.0654
   52MOL0     H 6986   1.741   3.781   0.695  1.1562 -1.0572  1.0998
   52MOL0     H 6987   1.751   3.706   0.534 -1.8377 -0.8159 -0.8499
   52MOL0     H 6988   1.597   3.572   0.761  0.5352 -2.5947 -0.0913
   52MOL0     H 6989   1.522   3.691   0.656 -1.4937 -2.0727  2.2935
   52MOL0     H 6990   1.629   3.429   0.547  0.2154  1.2878 -0.5796
   52MOL0     H 6991   1.563   3.563   0.454 -1.4933 -1.4786 -0.5197
   52MOL0     H 6992   1.358   3.563   0.569 -4.2451 -2.6594 -0.4198
   52MOL0     H 6993   1.388   3.416   0.475 -0.0559  2.4583 -2.0619
   52MOL0     H 6994   1.442   3.409   0.775  0.2883 -1.2692  0.1028
   52MOL0     H 6995   1.452   3.282   0.651  1.4697  0.4535 -1.4956
   52MOL0     H 6996   1.210   3.277   0.626  0.9404 -0.3020 -0.0985
   52MOL0     H 6997   1.271   3.250   0.787 -1.8898  0.5664  1.9043
   52MOL0     H 6998   1.155   3.496   0.674  0.5938 -2.3998 -1.4634
   52MOL0     H 6999   1.208   3.472   0.844  0.8948 -1.1764 -0.3935
   52MOL0     H 7000   0.976   3.324   0.721  0.2016  2.1832 -2.0998
   52MOL0     H 7001   0.967   3.470   0.826  3.8419  2.0735  1.7435
   52MOL0     H 7002   1.949   3.855   0.696 -0.3889 -0.7893 -0.8174
   52MOL0     H 7003   2.205   3.912   0.697 -1.0333 -0.2455  0.4660
   52MOL0     H 7004   2.696   3.878   0.752 -1.9550  0.7174 -0.2909
   52MOL0     H 7005   2.903   3.848   0.671 -1.2180  0.4941  1.2673
   52MOL0     H 7006   2.289   3.905   0.223  0.0746 -1.0439 -2.2331
   52MOL0     H 7007   2.103   4.032   0.345 -1.4286  1.9591 -2.5120
   52MOL0     H 7008   1.491   4.129   0.234 -1.1068 -0.2881  0.8568
   52MOL0     H 7009   1.324   4.219   0.395 -1.2074 -0.3278  1.7181
   52MOL0     H 7010   1.261   4.321   0.799  0.1621 -0.0833 -1.7433
   52MOL0     H 7011   1.376   4.204   0.847 -2.0450  0.7949  1.6332
   52MOL0     H 7012   1.425   4.462   0.694  0.0747 -2.1138 -2.7796
   52MOL0     H 7013   1.558   4.360   0.753 -1.0145 -1.4658  0.6616
   52MOL0     H 7014   1.470   4.401   0.997  3.3716 -0.4755 -0.2182
   52MOL0     H 7015   1.370   4.528   0.911  1.6681  0.8220 -2.2516
   52MOL0     H 7016   1.672   4.522   0.877  0.5233  1.9100 -1.4576
   52MOL0     H 7017   1.626   4.579   1.028  1.4899 -1.7469 -1.1539
   52MOL0     H 7018   1.520   4.897   0.778  0.3207  1.4830  2.5951
   52MOL0     H 7019   1.603   4.142   0.712  1.0589  0.9084 -1.1301
   52MOL0     H 7020   1.740   4.014   0.561 -0.1397  0.0655  0.3336
   53MOL0     O 7021   1.376   5.880   4.196  0.0969  0.4338  0.2092
   53MOL0     C 7022   1.375   5.761   4.166  0.7144  0.2210  1.0001
   53MOL0     O 7023   1.323   5.715   4.046 -0.8804 -0.2557  0.4326
   53MOL0     C 7024   1.279   5.807   3.951 -1.3642  0.6903  0.2768
   53MOL0     C 7025   1.355   5.919   3.905 -0.4451  0.7051  0.4096
   53MOL0     C 7026   1.306   6.006   3.805 -0.5275  0.5430  0.3443
   53MOL0     C 7027   1.191   5.978   3.737 -0.4026 -0.0703  0.3120
   53MOL0     O 7028   1.164   6.073   3.640 -0.5045 -0.9928 -0.2442
   53MOL0     C 7029   1.029   6.102   3.609  0.2188  1.4057 -0.1726
   53MOL0     C 7030   1.015   6.227   3.517 -0.6608  0.9816  0.2002
   53MOL0     C 7031   1.124   6.236   3.404 -0.0594  0.0920  0.1910
   53MOL0     C 7032   1.110   6.374   3.334 -0.3525  0.9230  0.2987
   53MOL0     C 7033   1.204   6.384   3.212  0.7522 -0.5476  0.3986
   53MOL0     C 7034   1.157   6.512   3.135  0.2043  0.4816 -0.8325
   53MOL0     C 7035   1.217   6.522   3.000  0.7014  0.5619 -0.1661
   53MOL0     C 7036   1.373   6.558   3.003  0.8856 -0.1498  1.1758
   53MOL0     N 7037   1.434   6.554   2.865  0.0228 -0.2444 -0.0643
   53MOL0     C 7038   1.575   6.546   2.852  0.4784  0.8464  0.2589
   53MOL0     C 7039   1.606   6.577   2.725 -0.0575 -0.6181  0.3930
   53MOL0     C 7040   1.753   6.583   2.675  0.6575 -0.3965  0.4936
   53MOL0     C 7041   1.783   6.463   2.586  0.4908  0.4228  0.4328
   53MOL0     C 7042   1.927   6.452   2.541  0.0395  0.2752  1.1271
   53MOL0     C 7043   1.956   6.321   2.474 -0.6504 -0.5633  0.1814
   53MOL0     O 7044   1.987   6.241   2.579 -0.1763 -0.0938  0.6481
   53MOL0     C 7045   2.050   6.115   2.559 -0.3372 -0.1892 -0.1055
   53MOL0     C 7046   2.119   6.060   2.669  0.6098 -0.5171  0.7369
   53MOL0     C 7047   2.201   5.943   2.652  0.6869 -1.1121  0.6977
   53MOL0     C 7048   2.287   5.901   2.766  0.4507  0.0126  0.1911
   53MOL0     C 7049   2.188   5.867   2.532  0.8959  0.7661  1.0310
   53MOL0     C 7050   2.254   5.728   2.513  0.3218  0.5398 -0.7192
   53MOL0     O 7051   2.172   5.631   2.454 -0.2550 -0.7211  0.2392
   53MOL0     C 7052   2.240   5.515   2.417  0.0563 -0.6067  0.0152
   53MOL0     C 7053   2.180   5.397   2.456 -0.1136  0.0185  0.6511
   53MOL0     C 7054   2.236   5.269   2.445 -0.7950 -0.2578  0.5414
   53MOL0     C 7055   2.364   5.260   2.376 -0.3784  0.9223  0.8264
   53MOL0     O 7056   2.432   5.144   2.349  0.4412 -0.0132 -0.1202
   53MOL0     C 7057   2.406   5.033   2.437  0.3605 -0.4879  0.9178
   53MOL0     C 7058   2.533   4.951   2.424  0.2554 -0.3939 -0.8360
   53MOL0     C 7059   2.519   4.859   2.300 -1.5540 -0.5318 -0.5324
   53MOL0     C 7060   2.645   4.757   2.313  0.7316 -0.5492  1.0228
   53MOL0     C 7061   2.656   4.667   2.187  0.1518  0.6575  0.5101
   53MOL0     C 7062   2.769   4.572   2.207 -0.6072  0.0079 -0.2051
   53MOL0     C 7063   2.779   4.475   2.095 -0.1750  0.3593  0.1841
   53MOL0     C 7064   2.691   4.346   2.087  0.2612 -0.6241 -0.1884
   53MOL0    Cl 7065   2.763   4.246   1.964 -0.1354  0.0846  0.2006
   53MOL0     C 7066   2.414   5.375   2.315  0.2152  0.1806  1.1644
   53MOL0     C 7067   2.359   5.502   2.338 -0.5965 -0.6379 -0.5042
   53MOL0     O 7068   2.371   5.712   2.558  0.1563 -0.4053  1.1039
   53MOL0     C 7069   2.110   5.924   2.423 -0.3525 -0.2074 -0.3879
   53MOL0     C 7070   2.048   6.051   2.435 -0.7530  0.3744  0.1709
   53MOL0     N 7071   1.488   6.617   2.668  0.0342  0.2887 -0.1922
   53MOL0     N 7072   1.386   6.608   2.749 -0.1388  0.1650 -0.5362
   53MOL0     C 7073   1.117   5.865   3.767 -0.7044  0.8243  0.8104
   53MOL0     C 7074   1.167   5.775   3.864 -0.2940 -0.7637  0.2357
   53MOL0     C 7075   1.445   5.653   4.237  1.4425  1.3559  0.8363
   53MOL0     C 7076   1.464   5.525   4.179 -0.6425 -0.2942  0.8526
   53MOL0     C 7077   1.527   5.413   4.242  0.2461 -0.9530  0.0368
   53MOL0     C 7078   1.551   5.419   4.377  0.4080 -0.9461 -0.4065
   53MOL0     O 7079   1.606   5.300   4.424  0.1225  0.0102 -0.0374
   53MOL0     C 7080   1.632   5.281   4.561  0.3470  0.3930 -0.7329
   53MOL0     C 7081   1.495   5.265   4.627 -0.0410  0.1954  0.5618
   53MOL0     C 7082   1.392   5.167   4.563  0.3844  0.0542  0.0417
   53MOL0     C 7083   1.246   5.226   4.555 -0.3358  0.0867 -0.5628
   53MOL0     C 7084   1.174   5.228   4.693  0.8699  0.2032  0.3892
   53MOL0     C 7085   1.114   5.225   4.794 -0.1273 -0.7343 -0.7410
   53MOL0     C 7086   1.524   5.551   4.441  1.1623  0.7536  0.2330
   53MOL0     C 7087   1.473   5.662   4.374 -0.3471 -1.0393 -0.4933
   53MOL0     H 7088   1.458   5.927   3.936  0.6114 -0.4193 -2.5122
   53MOL0     H 7089   1.364   6.088   3.765 -3.3838  1.9876 -1.1691
   53MOL0     H 7090   0.996   6.014   3.554  1.4786 -1.7195  3.5832
   53MOL0     H 7091   0.957   6.108   3.691 -0.2102 -3.0076 -0.0203
   53MOL0     H 7092   0.914   6.216   3.478 -0.7288  1.1963  0.3165
   53MOL0     H 7093   1.033   6.312   3.583 -1.2291  0.7889  0.6178
   53MOL0     H 7094   1.226   6.227   3.443  0.4288  0.3428 -0.9793
   53MOL0     H 7095   1.097   6.156   3.334 -0.0410  0.4510 -0.2308
   53MOL0     H 7096   1.004   6.381   3.305 -0.7299  0.2639  1.4767
   53MOL0     H 7097   1.137   6.459   3.397  1.0062  0.9250 -0.2472
   53MOL0     H 7098   1.307   6.389   3.247  1.0509 -1.2103 -0.3659
   53MOL0     H 7099   1.200   6.297   3.146 -1.5130 -0.2924  0.1144
   53MOL0     H 7100   1.049   6.514   3.118  0.5279  0.1409 -3.3878
   53MOL0     H 7101   1.187   6.605   3.184 -0.2206 -0.9380  2.3629
   53MOL0     H 7102   1.217   6.422   2.954  1.8063  0.0069  0.9628
   53MOL0     H 7103   1.168   6.600   2.942  2.1585 -0.4504 -2.9167
   53MOL0     H 7104   1.423   6.488   3.070  2.1853 -1.5518 -1.1148
   53MOL0     H 7105   1.378   6.658   3.048 -1.1262  0.1325  0.8720
   53MOL0     H 7106   1.648   6.522   2.930 -0.3006  0.6712  0.9491
   53MOL0     H 7107   1.766   6.673   2.615 -1.9451 -2.9959 -4.6993
   53MOL0     H 7108   1.811   6.597   2.766  0.3104  0.4199  0.5927
   53MOL0     H 7109   1.725   6.464   2.493  1.0654 -0.0628  0.0585
   53MOL0     H 7110   1.736   6.382   2.641 -0.3140 -1.3183 -2.5807
   53MOL0     H 7111   1.994   6.477   2.624  1.8419 -1.2375  0.2142
   53MOL0     H 7112   1.959   6.518   2.460 -1.0198 -1.2543 -0.6080
   53MOL0     H 7113   2.042   6.324   2.406  0.8709 -0.4907  2.0238
   53MOL0     H 7114   1.872   6.272   2.423  0.6571 -0.0235 -2.7350
   53MOL0     H 7115   2.106   6.125   2.755  2.0357  2.5376 -1.1954
   53MOL0     H 7116   2.391   5.896   2.732  0.2981 -1.7811 -0.1063
   53MOL0     H 7117   2.277   5.969   2.851 -2.4421 -0.6803  0.5226
   53MOL0     H 7118   2.267   5.802   2.808  1.0720  0.4081  1.4938
   53MOL0     H 7119   2.077   5.401   2.491  0.3184 -2.1513  2.3848
   53MOL0     H 7120   2.177   5.186   2.483 -0.5193 -1.0715 -0.7424
   53MOL0     H 7121   2.379   5.071   2.536 -2.1146  2.2162 -0.6315
   53MOL0     H 7122   2.319   4.980   2.396  0.3924 -0.3435  0.6617
   53MOL0     H 7123   2.622   5.015   2.414 -0.9049  1.4627  0.0900
   53MOL0     H 7124   2.542   4.891   2.515 -0.2017  1.8647  0.7798
   53MOL0     H 7125   2.547   4.918   2.212  0.8927  0.2108  0.6343
   53MOL0     H 7126   2.421   4.817   2.277 -1.0091  0.0017 -4.6648
   53MOL0     H 7127   2.731   4.819   2.342 -0.5271  2.9020 -1.8569
   53MOL0     H 7128   2.626   4.696   2.402  0.0210  0.8852  1.8892
   53MOL0     H 7129   2.671   4.731   2.100 -0.9831  0.4968  0.1853
   53MOL0     H 7130   2.562   4.615   2.165  1.0805 -1.8207  1.9494
   53MOL0     H 7131   2.866   4.620   2.215 -0.0595 -0.6625 -2.1174
   53MOL0     H 7132   2.760   4.509   2.296 -0.3437 -2.3538 -1.7570
   53MOL0     H 7133   2.873   4.421   2.113 -0.9812 -0.8150  1.0299
   53MOL0     H 7134   2.781   4.523   1.997  1.4536 -1.4813 -0.7635
   53MOL0     H 7135   2.593   4.373   2.048  0.4352 -0.3396 -0.4352
   53MOL0     H 7136   2.689   4.296   2.184 -0.1769  1.3963  0.9159
   53MOL0     H 7137   2.510   5.363   2.265 -0.8931  0.6517 -1.1976
   53MOL0     H 7138   2.402   5.594   2.300 -2.2552  0.1880 -0.4625
   53MOL0     H 7139   2.105   5.882   2.322 -0.5299  1.0646 -0.9271
   53MOL0     H 7140   1.994   6.105   2.358  2.8057  2.4444 -1.0873
   53MOL0     H 7141   1.028   5.832   3.715 -1.5713  1.7950  1.6395
   53MOL0     H 7142   1.102   5.689   3.879 -3.1732  1.2146 -0.0688
   53MOL0     H 7143   1.435   5.504   4.077  0.1583  0.7588  0.3863
   53MOL0     H 7144   1.538   5.325   4.179  1.3015  0.7617 -2.3599
   53MOL0     H 7145   1.679   5.182   4.571 -1.3114 -0.8160 -3.5967
   53MOL0     H 7146   1.692   5.354   4.615 -2.0497  1.9381 -0.0653
   53MOL0     H 7147   1.448   5.364   4.617 -2.2556 -0.9692 -2.0411
   53MOL0     H 7148   1.509   5.228   4.729  0.1044  2.4125  1.4118
   53MOL0     H 7149   1.404   5.068   4.608 -1.6901 -0.5848 -0.7298
   53MOL0     H 7150   1.414   5.147   4.457 -3.2236 -0.7703 -0.6649
   53MOL0     H 7151   1.187   5.165   4.487  1.5168 -1.6390 -0.7103
   53MOL0     H 7152   1.246   5.326   4.509 -0.2501  0.1811 -0.3642
   53MOL0     H 7153   1.059   5.247   4.883  0.8952  0.6112 -0.4098
   53MOL0     H 7154   1.552   5.558   4.546  1.4411  1.4487  0.1189
   53MOL0     H 7155   1.464   5.757   4.426 -1.8417 -0.3852 -1.8972
   54MOL0     O 7156   0.940   3.374   6.446  0.4785 -0.5883 -0.4280
   54MOL0     C 7157   0.846   3.430   6.509 -0.2667 -0.5116 -0.2309
   54MOL0     O 7158   0.728   3.480   6.447 -0.4365  0.1603  0.1692
   54MOL0     C 7159   0.706   3.435   6.319 -0.8415 -0.3831 -0.0473
   54MOL0     C 7160   0.658   3.304   6.294 -0.2195 -0.6215 -0.4504
   54MOL0     C 7161   0.626   3.272   6.160 -0.9970  0.4010  0.0192
   54MOL0     C 7162   0.648   3.360   6.057  0.1749  0.6574  0.1528
   54MOL0     O 7163   0.624   3.330   5.925 -0.3693  0.3317  0.0093
   54MOL0     C 7164   0.553   3.217   5.881  0.6857 -0.4146  0.2682
   54MOL0     C 7165   0.560   3.202   5.724 -1.6314  0.1604  0.4250
   54MOL0     C 7166   0.519   3.060   5.673  0.2687 -0.0573 -1.4952
   54MOL0     C 7167   0.376   3.019   5.722  0.8862 -0.1289  0.1648
   54MOL0     C 7168   0.371   2.870   5.703  0.6974  0.4662 -1.1480
   54MOL0     C 7169   0.354   2.828   5.560  0.7034  0.1329  0.0463
   54MOL0     C 7170   0.370   2.675   5.542 -0.0454 -0.7605 -0.5059
   54MOL0     C 7171   0.289   2.586   5.639  0.1947  0.1296  0.5714
   54MOL0     N 7172   0.295   2.445   5.602  0.0548  0.6943  0.5073
   54MOL0     C 7173   0.218   2.387   5.496 -0.3228 -0.0967 -0.2206
   54MOL0     C 7174   0.258   2.251   5.502  0.8121 -0.0371 -0.3048
   54MOL0     C 7175   0.207   2.133   5.420 -0.0689  0.0096  0.3138
   54MOL0     C 7176   0.327   2.056   5.361 -0.4370  0.6733 -0.9338
   54MOL0     C 7177   0.278   1.929   5.297 -0.0548 -0.3122  0.5882
   54MOL0     C 7178   0.400   1.846   5.276  0.3697 -0.4524  0.2123
   54MOL0     O 7179   0.370   1.750   5.177 -1.1259 -0.8516  0.0204
   54MOL0     C 7180   0.442   1.634   5.197  1.1789 -0.0368 -0.5588
   54MOL0     C 7181   0.371   1.514   5.181  0.5826 -0.4643  0.4927
   54MOL0     C 7182   0.433   1.391   5.182 -0.2554  0.1593  0.7510
   54MOL0     C 7183   0.361   1.266   5.149 -0.0394 -0.5194  0.8635
   54MOL0     C 7184   0.573   1.385   5.210  0.6081 -0.4488 -0.0453
   54MOL0     C 7185   0.647   1.257   5.225  0.2299  0.3165  0.7710
   54MOL0     O 7186   0.740   1.227   5.140  0.4998 -0.3292  0.1173
   54MOL0     C 7187   0.827   1.126   5.166 -0.8530  0.3009 -0.4614
   54MOL0     C 7188   0.960   1.148   5.126 -0.7926  0.6620  0.0554
   54MOL0     C 7189   1.059   1.056   5.150  0.5931 -0.1929  0.0177
   54MOL0     C 7190   1.029   0.925   5.207  0.8873 -1.0025 -0.8545
   54MOL0     O 7191   1.127   0.833   5.223  0.9094 -0.1577  0.0060
   54MOL0     C 7192   1.148   0.789   5.356  0.0741 -0.1898 -0.0629
   54MOL0     C 7193   1.273   0.702   5.342  0.4530 -0.2609 -0.5845
   54MOL0     C 7194   1.299   0.622   5.466  0.3826  0.1080 -0.1969
   54MOL0     C 7195   1.369   0.712   5.574 -0.8899  0.1311 -0.1694
   54MOL0     C 7196   1.397   0.629   5.699  0.3224 -0.4289 -0.5502
   54MOL0     C 7197   1.495   0.707   5.788 -0.3295  0.1626  0.6748
   54MOL0     C 7198   1.516   0.656   5.925 -0.5616  0.5870 -0.1415
   54MOL0     C 7199   1.638   0.718   6.005  1.2003  0.4229  0.8498
   54MOL0    Cl 7200   1.658   0.897   5.991 -0.1988 -0.0819 -0.1910
   54MOL0     C 7201   0.903   0.911   5.267 -0.4707 -0.4375  0.3709
   54MOL0     C 7202   0.801   1.006   5.238 -0.3491  0.1782 -0.1769
   54MOL0     O 7203   0.612   1.186   5.323  0.4554 -0.5146  0.4544
   54MOL0     C 7204   0.636   1.508   5.224  0.9187 -0.0102  0.3397
   54MOL0     C 7205   0.579   1.628   5.208  0.1262 -0.6895  0.0086
   54MOL0     N 7206   0.362   2.239   5.601  0.0376 -0.1044  0.8928
   54MOL0     N 7207   0.373   2.350   5.660  0.2057  0.2893 -0.9418
   54MOL0     C 7208   0.714   3.477   6.082  0.7687 -0.1129  0.6395
   54MOL0     C 7209   0.734   3.518   6.208  0.1157  1.1508 -0.0129
   54MOL0     C 7210   0.856   3.420   6.657 -0.2550 -0.0643 -0.2443
   54MOL0     C 7211   0.788   3.501   6.756 -0.4109 -0.0281 -0.4884
   54MOL0     C 7212   0.805   3.482   6.896 -0.6689 -0.6592  0.1075
   54MOL0     C 7213   0.905   3.399   6.946  0.2145 -0.4996 -0.9619
   54MOL0     O 7214   0.939   3.376   7.080 -1.4521  0.4850  0.4341
   54MOL0     C 7215   0.859   3.280   7.152  0.3198  0.5601  0.5953
   54MOL0     C 7216   0.955   3.201   7.246 -0.6478  1.1898  0.0958
   54MOL0     C 7217   1.036   3.290   7.342 -0.2043 -1.1974  0.3507
   54MOL0     C 7218   0.954   3.383   7.435  0.4900  0.5541  0.2682
   54MOL0     C 7219   0.869   3.295   7.523  0.3565 -0.1626  0.7507
   54MOL0     C 7220   0.792   3.224   7.588 -0.0760 -0.6310 -0.1510
   54MOL0     C 7221   0.973   3.317   6.853 -0.1165 -1.3843  0.0110
   54MOL0     C 7222   0.954   3.337   6.717 -0.3198  0.5695  0.1802
   54MOL0     H 7223   0.648   3.226   6.370  1.4545  0.7960  1.3181
   54MOL0     H 7224   0.589   3.173   6.137  2.0054 -0.1402 -3.3127
   54MOL0     H 7225   0.604   3.127   5.920 -0.5457 -1.3958 -0.3112
   54MOL0     H 7226   0.450   3.228   5.914  0.1572  1.2884 -1.7610
   54MOL0     H 7227   0.513   3.292   5.683  1.0460  0.7218 -1.6505
   54MOL0     H 7228   0.663   3.217   5.691 -0.6221 -2.8679  1.8477
   54MOL0     H 7229   0.516   3.055   5.564 -0.3450 -2.0729 -1.4380
   54MOL0     H 7230   0.599   2.999   5.716  0.6285  2.3747  1.6138
   54MOL0     H 7231   0.357   3.051   5.825 -4.0626 -2.9767  0.4376
   54MOL0     H 7232   0.288   3.065   5.677  1.1575  0.7292  0.4900
   54MOL0     H 7233   0.460   2.828   5.750  0.4155 -0.5987 -1.5292
   54MOL0     H 7234   0.281   2.831   5.752 -1.9752  1.9841 -4.4046
   54MOL0     H 7235   0.254   2.855   5.526  0.8017  1.4593  0.7700
   54MOL0     H 7236   0.434   2.874   5.501  0.9181  0.2357  0.4171
   54MOL0     H 7237   0.352   2.644   5.439  0.1882  1.4135 -1.2527
   54MOL0     H 7238   0.477   2.665   5.560  0.2547  2.0343 -0.2391
   54MOL0     H 7239   0.187   2.624   5.650  0.9734  3.4544 -1.8865
   54MOL0     H 7240   0.336   2.593   5.737  1.2150  0.6834  0.0537
   54MOL0     H 7241   0.135   2.427   5.438 -0.6904  3.7101  2.5147
   54MOL0     H 7242   0.140   2.066   5.475 -1.7040  1.0020 -0.3893
   54MOL0     H 7243   0.138   2.174   5.346 -1.2848 -0.6544  1.0545
   54MOL0     H 7244   0.393   2.024   5.442 -1.0207  0.2962 -0.5967
   54MOL0     H 7245   0.384   2.124   5.297  0.6663  1.2984  0.6415
   54MOL0     H 7246   0.220   1.945   5.206 -1.8727 -5.5736  0.4545
   54MOL0     H 7247   0.206   1.879   5.363 -1.2513  2.5378  1.6181
   54MOL0     H 7248   0.435   1.809   5.373  0.8968  1.4117  0.7637
   54MOL0     H 7249   0.474   1.916   5.237 -0.3339 -0.2776 -0.8586
   54MOL0     H 7250   0.264   1.508   5.166  0.8693 -0.1517 -2.0067
   54MOL0     H 7251   0.254   1.277   5.127  0.1571 -1.5342 -0.8146
   54MOL0     H 7252   0.395   1.203   5.067 -0.4574 -0.7179  0.8398
   54MOL0     H 7253   0.369   1.210   5.242  2.1850 -0.3639  0.8095
   54MOL0     H 7254   0.986   1.239   5.073 -1.3773  0.3858 -0.7239
   54MOL0     H 7255   1.158   1.080   5.110  0.0227  1.0227 -0.7127
   54MOL0     H 7256   1.160   0.873   5.424  0.1058 -1.5761  1.7184
   54MOL0     H 7257   1.061   0.729   5.387  1.4278 -2.9851 -1.2971
   54MOL0     H 7258   1.256   0.638   5.255  0.2665  0.1198 -0.8323
   54MOL0     H 7259   1.360   0.761   5.312 -0.5443  1.7069  0.2381
   54MOL0     H 7260   1.361   0.543   5.424  1.0284  0.3608  0.2710
   54MOL0     H 7261   1.212   0.579   5.516 -1.0358  2.1047 -0.8017
   54MOL0     H 7262   1.468   0.747   5.544  0.6485 -1.0414  3.0118
   54MOL0     H 7263   1.309   0.799   5.600 -1.7194 -0.4535 -0.0940
   54MOL0     H 7264   1.439   0.535   5.661  1.3930 -0.5176  0.7882
   54MOL0     H 7265   1.311   0.597   5.758 -0.6962  2.4058 -0.3199
   54MOL0     H 7266   1.586   0.698   5.728 -1.1606  0.7021 -0.6975
   54MOL0     H 7267   1.474   0.814   5.794 -0.9820  0.0235  0.9286
   54MOL0     H 7268   1.518   0.546   5.927  0.4400  0.5303 -2.3789
   54MOL0     H 7269   1.420   0.667   5.978 -0.4556 -0.6789  0.3591
   54MOL0     H 7270   1.726   0.662   5.971  0.3977 -0.3281 -0.0803
   54MOL0     H 7271   1.622   0.691   6.110 -1.7385  0.0995  0.4033
   54MOL0     H 7272   0.881   0.826   5.331  0.4698 -1.3700 -0.4913
   54MOL0     H 7273   0.703   0.991   5.282 -0.6845  1.4486 -0.4273
   54MOL0     H 7274   0.741   1.507   5.253  1.5308  2.0267 -1.5057
   54MOL0     H 7275   0.632   1.722   5.222  1.0177 -1.0057 -1.0294
   54MOL0     H 7276   0.738   3.537   5.995 -1.7518 -3.0188 -2.3511
   54MOL0     H 7277   0.745   3.622   6.238 -2.9032  1.8566 -0.9853
   54MOL0     H 7278   0.710   3.573   6.733 -1.2322 -0.5596  0.4938
   54MOL0     H 7279   0.746   3.547   6.960  0.6525  0.1937  0.5085
   54MOL0     H 7280   0.785   3.340   7.205  0.3331  4.3632 -3.1329
   54MOL0     H 7281   0.802   3.216   7.084  0.2584 -1.6753  2.6355
   54MOL0     H 7282   1.011   3.142   7.173 -1.2054  1.5322 -0.6090
   54MOL0     H 7283   0.892   3.139   7.311  1.7491 -1.3990  0.1381
   54MOL0     H 7284   1.097   3.368   7.295 -0.1869 -0.3564  1.7002
   54MOL0     H 7285   1.103   3.241   7.414  0.7564  1.3849  1.3622
   54MOL0     H 7286   0.897   3.450   7.371 -0.0741 -1.1549 -1.0755
   54MOL0     H 7287   1.021   3.446   7.496  2.4059 -0.4249 -0.7164
   54MOL0     H 7288   0.725   3.162   7.644 -0.1971 -0.7556 -0.4286
   54MOL0     H 7289   1.041   3.239   6.885  0.1955 -0.9802  0.3525
   54MOL0     H 7290   1.006   3.278   6.642  0.7813  1.5932  0.1163
   55MOL0     O 7291   1.021   5.120   8.595  0.0888 -0.2710 -0.2263
   55MOL0     C 7292   1.135   5.148   8.557  0.5637 -0.2502  0.5206
   55MOL0     O 7293   1.169   5.256   8.478  0.4285  0.1261 -0.5355
   55MOL0     C 7294   1.085   5.350   8.425 -0.4576 -0.0842 -1.5272
   55MOL0     C 7295   0.951   5.377   8.455 -0.0851  0.5444 -0.7623
   55MOL0     C 7296   0.885   5.485   8.402 -0.2729 -0.3748 -1.0430
   55MOL0     C 7297   0.951   5.583   8.320  0.3768  1.2150  0.7885
   55MOL0     O 7298   0.895   5.687   8.242 -0.1481 -0.4978 -0.4782
   55MOL0     C 7299   0.753   5.678   8.214 -0.3509 -0.1248  0.9043
   55MOL0     C 7300   0.730   5.582   8.097  1.0344 -0.0089  0.0431
   55MOL0     C 7301   0.792   5.620   7.956  0.4019  0.2497  0.1907
   55MOL0     C 7302   0.790   5.492   7.855  0.6879  0.0598 -0.5357
   55MOL0     C 7303   0.821   5.549   7.720 -0.9056 -0.8554 -0.0515
   55MOL0     C 7304   0.869   5.435   7.619  0.8841 -0.1660 -0.5771
   55MOL0     C 7305   0.737   5.349   7.587 -0.4192 -0.3507  0.0442
   55MOL0     C 7306   0.765   5.203   7.590  0.2188 -0.2840 -0.2198
   55MOL0     N 7307   0.846   5.180   7.471  0.6627  0.1161  0.4478
   55MOL0     C 7308   0.986   5.165   7.467 -0.8052 -0.6916 -0.0261
   55MOL0     C 7309   1.010   5.125   7.340  0.3434 -1.6104  0.0601
   55MOL0     C 7310   1.141   5.129   7.274  0.0811  0.3362 -0.0558
   55MOL0     C 7311   1.134   5.237   7.160 -0.2223  0.3393 -0.0725
   55MOL0     C 7312   1.123   5.388   7.193 -0.4924  0.7448  0.4931
   55MOL0     C 7313   0.987   5.445   7.221 -0.6027 -0.5710  0.0743
   55MOL0     O 7314   1.001   5.593   7.208 -0.0129  0.1606  0.0431
   55MOL0     C 7315   0.903   5.652   7.135  0.2090 -0.0059 -0.0476
   55MOL0     C 7316   0.768   5.627   7.157 -0.4366  0.2010 -0.1844
   55MOL0     C 7317   0.669   5.683   7.081  0.0462  0.9671 -0.0385
   55MOL0     C 7318   0.523   5.658   7.126 -0.8006  1.0806  0.3567
   55MOL0     C 7319   0.710   5.768   6.979 -0.4177 -0.4323  0.1313
   55MOL0     C 7320   0.619   5.855   6.893  0.2284  0.1181  0.4684
   55MOL0     O 7321   0.665   5.970   6.840 -0.6505  0.1125 -0.1320
   55MOL0     C 7322   0.583   6.047   6.758  0.3539  0.3371  0.2377
   55MOL0     C 7323   0.473   6.102   6.823 -0.8143  0.1314  0.8899
   55MOL0     C 7324   0.391   6.184   6.750  0.8848 -0.0977 -0.8356
   55MOL0     C 7325   0.418   6.220   6.613  0.3002 -1.4319  0.8909
   55MOL0     O 7326   0.332   6.303   6.535  0.4846 -0.0143  0.4418
   55MOL0     C 7327   0.401   6.392   6.444  0.0272  0.9340 -0.1172
   55MOL0     C 7328   0.302   6.508   6.409 -0.1004  0.2312  0.3019
   55MOL0     C 7329   0.380   6.616   6.326 -0.0053  0.9383  0.7410
   55MOL0     C 7330   0.459   6.723   6.403 -0.2131 -0.1670  0.3451
   55MOL0     C 7331   0.361   6.832   6.447  0.6872  0.4392 -0.0817
   55MOL0     C 7332   0.418   6.967   6.486  0.2534 -0.1767  0.2481
   55MOL0     C 7333   0.295   7.062   6.532 -0.4849  0.3674 -0.1454
   55MOL0     C 7334   0.321   7.211   6.547  0.2859 -0.3611  0.0376
   55MOL0    Cl 7335   0.436   7.250   6.674  0.0229 -0.3131 -0.4720
   55MOL0     C 7336   0.528   6.158   6.553  0.4434 -0.1606 -0.5778
   55MOL0     C 7337   0.614   6.075   6.632 -0.6632  0.2797  1.3656
   55MOL0     O 7338   0.503   5.817   6.881  0.0153 -0.1112 -0.2794
   55MOL0     C 7339   0.843   5.806   6.972 -1.1113 -0.2741 -0.2236
   55MOL0     C 7340   0.944   5.743   7.037 -0.5143  0.4515  0.0603
   55MOL0     N 7341   0.892   5.106   7.267  0.4142  0.1817 -0.8103
   55MOL0     N 7342   0.784   5.134   7.351 -0.3729 -0.1049  0.5275
   55MOL0     C 7343   1.087   5.563   8.303  0.3894 -0.6439  0.4667
   55MOL0     C 7344   1.149   5.449   8.353 -0.1906  0.1510 -0.4958
   55MOL0     C 7345   1.247   5.063   8.602  0.0280  0.1136  0.1555
   55MOL0     C 7346   1.220   4.943   8.674 -0.4683 -0.7076  0.0248
   55MOL0     C 7347   1.316   4.841   8.673  0.2467  0.3246 -1.4912
   55MOL0     C 7348   1.444   4.865   8.613  1.5119 -0.6700 -0.7545
   55MOL0     O 7349   1.539   4.774   8.614 -0.9891  0.0245 -0.1784
   55MOL0     C 7350   1.516   4.659   8.541 -0.5393 -0.0050  0.8309
   55MOL0     C 7351   1.513   4.674   8.388 -0.5940 -0.4103  0.4646
   55MOL0     C 7352   1.648   4.715   8.339 -0.1188 -0.7084  0.1310
   55MOL0     C 7353   1.660   4.768   8.196 -0.3467  1.0212 -1.0253
   55MOL0     C 7354   1.591   4.892   8.179  0.7958  0.8478 -0.2387
   55MOL0     C 7355   1.557   5.003   8.159 -1.0526  1.1662  0.7199
   55MOL0     C 7356   1.467   4.982   8.549 -0.5974  0.7002 -0.1174
   55MOL0     C 7357   1.372   5.084   8.546 -0.5772 -0.2870  0.3963
   55MOL0     H 7358   0.888   5.325   8.527 -0.8477  0.9476 -1.1216
   55MOL0     H 7359   0.784   5.497   8.441  0.0525 -0.8600 -0.0347
   55MOL0     H 7360   0.712   5.654   8.313 -0.7289  2.7256  1.5186
   55MOL0     H 7361   0.714   5.776   8.187  1.0552  0.0336 -0.6765
   55MOL0     H 7362   0.768   5.490   8.144 -0.4632 -0.5821  0.1758
   55MOL0     H 7363   0.626   5.554   8.079  1.7314 -1.2108 -2.6968
   55MOL0     H 7364   0.740   5.708   7.915 -0.1034  0.3873  1.1071
   55MOL0     H 7365   0.895   5.651   7.972  0.1512  2.6672 -2.0375
   55MOL0     H 7366   0.873   5.434   7.897  0.4516 -0.0412 -0.2015
   55MOL0     H 7367   0.702   5.428   7.853  0.5775  0.2208 -2.3367
   55MOL0     H 7368   0.732   5.601   7.684 -1.4202 -2.8099 -1.7862
   55MOL0     H 7369   0.901   5.623   7.729  0.7103 -2.6651  1.3157
   55MOL0     H 7370   0.900   5.495   7.533 -0.5331  2.7227  0.7922
   55MOL0     H 7371   0.958   5.380   7.649  0.0900  0.3452  3.1363
   55MOL0     H 7372   0.663   5.360   7.666  1.1555  0.2311  1.4883
   55MOL0     H 7373   0.687   5.377   7.493  0.4845  2.0070  0.1925
   55MOL0     H 7374   0.669   5.150   7.597  0.9582 -1.9653 -1.8000
   55MOL0     H 7375   0.822   5.177   7.680  3.8183  1.5802 -1.7513
   55MOL0     H 7376   1.066   5.189   7.536 -1.0019  0.4600 -0.1780
   55MOL0     H 7377   1.223   5.149   7.345  1.4832 -2.3875 -0.7859
   55MOL0     H 7378   1.173   5.034   7.230  1.4243  1.2059 -1.0245
   55MOL0     H 7379   1.051   5.211   7.093  0.2352 -1.7130  0.0940
   55MOL0     H 7380   1.221   5.234   7.095 -0.9337 -1.3089 -1.0258
   55MOL0     H 7381   1.169   5.437   7.106 -0.6173  1.4239  0.8007
   55MOL0     H 7382   1.181   5.412   7.283 -2.5448  2.1697  1.5146
   55MOL0     H 7383   0.954   5.421   7.322 -1.1908  1.1789  0.3310
   55MOL0     H 7384   0.916   5.395   7.155 -3.1103  1.3592  1.1739
   55MOL0     H 7385   0.751   5.546   7.227  1.1064 -0.6725 -0.7472
   55MOL0     H 7386   0.521   5.574   7.195 -2.2699  0.7515 -0.0557
   55MOL0     H 7387   0.467   5.747   7.158  0.2250  2.3050 -1.0807
   55MOL0     H 7388   0.463   5.634   7.038 -0.0516 -1.3693  0.4397
   55MOL0     H 7389   0.443   6.072   6.923 -0.3678 -1.6143  0.5214
   55MOL0     H 7390   0.299   6.221   6.794  1.3881  0.6520 -0.3799
   55MOL0     H 7391   0.490   6.427   6.496 -0.4074 -0.1827  1.4593
   55MOL0     H 7392   0.437   6.347   6.351  2.4310 -1.1301  1.6858
   55MOL0     H 7393   0.214   6.478   6.352 -0.0404  2.3850 -1.0337
   55MOL0     H 7394   0.261   6.555   6.499 -0.0246  3.0451 -1.0186
   55MOL0     H 7395   0.324   6.670   6.249 -0.8156  0.4372  0.9656
   55MOL0     H 7396   0.453   6.556   6.270 -0.8798  1.5055 -1.1028
   55MOL0     H 7397   0.515   6.683   6.488  0.1007  0.7689  0.5933
   55MOL0     H 7398   0.537   6.767   6.340  0.3132 -0.0284  1.0785
   55MOL0     H 7399   0.314   6.796   6.539 -1.6877 -2.5237 -2.2105
   55MOL0     H 7400   0.292   6.836   6.361  0.8036 -0.8549 -0.2639
   55MOL0     H 7401   0.485   6.940   6.569 -1.3403  0.8818  1.9745
   55MOL0     H 7402   0.475   7.017   6.408  0.2011 -0.3410  0.1034
   55MOL0     H 7403   0.239   7.024   6.618 -0.3474 -0.4822 -0.4130
   55MOL0     H 7404   0.221   7.048   6.453  0.3252 -2.2493 -0.5312
   55MOL0     H 7405   0.232   7.266   6.577  1.4382  1.8427 -0.4069
   55MOL0     H 7406   0.347   7.254   6.450 -0.3765  2.1966  0.9288
   55MOL0     H 7407   0.556   6.162   6.448  2.1347  0.8384 -0.1228
   55MOL0     H 7408   0.705   6.032   6.592  0.5900  1.6439  2.6404
   55MOL0     H 7409   0.884   5.886   6.912 -1.0349  1.8232  2.4773
   55MOL0     H 7410   1.049   5.765   7.018 -0.1082 -2.3686 -1.6812
   55MOL0     H 7411   1.144   5.641   8.252 -0.7873 -0.7502 -1.0963
   55MOL0     H 7412   1.254   5.446   8.328 -0.4108  0.2999 -1.4770
   55MOL0     H 7413   1.119   4.929   8.710 -0.6704 -0.2758 -0.3784
   55MOL0     H 7414   1.282   4.752   8.725 -0.2205  1.2913 -0.0782
   55MOL0     H 7415   1.590   4.582   8.566 -2.4725 -1.7984  1.2573
   55MOL0     H 7416   1.420   4.613   8.563 -1.7627 -0.2681 -3.9173
   55MOL0     H 7417   1.431   4.738   8.352  0.2086 -0.0990 -0.8827
   55MOL0     H 7418   1.491   4.580   8.336 -1.9955  0.0850  0.1096
   55MOL0     H 7419   1.718   4.631   8.349  2.9127  1.5115 -1.0049
   55MOL0     H 7420   1.685   4.795   8.404  0.8465 -0.6258 -0.5027
   55MOL0     H 7421   1.624   4.687   8.132 -0.5660 -3.6323  4.2734
   55MOL0     H 7422   1.766   4.793   8.184  0.3062  0.7309  2.9528
   55MOL0     H 7423   1.543   5.107   8.135  0.6962  1.1967 -0.3524
   55MOL0     H 7424   1.563   4.991   8.500 -0.1934 -1.0463  0.2672
   55MOL0     H 7425   1.391   5.161   8.472 -0.7050 -0.2326  0.4193
   56MOL0     O 7426   8.619   4.045   4.682  0.2531 -0.1763  0.0095
   56MOL0     C 7427   8.495   4.080   4.681 -0.1915 -1.2303  0.0091
   56MOL0     O 7428   8.441   4.162   4.581  0.0236 -0.5781 -0.3447
   56MOL0     C 7429   8.492   4.178   4.453  0.8816 -0.0064 -0.3494
   56MOL0     C 7430   8.432   4.277   4.380  0.1490  0.2291  0.5496
   56MOL0     C 7431   8.474   4.303   4.247  1.4170 -0.1242  1.1281
   56MOL0     C 7432   8.566   4.232   4.181 -0.8109 -0.2138  0.9894
   56MOL0     O 7433   8.606   4.263   4.050  1.0536  0.5656  0.1071
   56MOL0     C 7434   8.711   4.185   3.988 -1.4245  0.7234 -0.5577
   56MOL0     C 7435   8.765   4.230   3.850  0.6645  0.4368  0.4635
   56MOL0     C 7436   8.656   4.221   3.743 -0.7736 -0.1235  0.7710
   56MOL0     C 7437   8.714   4.266   3.610 -1.2964  0.5356 -1.3848
   56MOL0     C 7438   8.613   4.254   3.505  0.3993  0.2018 -0.1508
   56MOL0     C 7439   8.508   4.365   3.508  0.4084 -1.3854 -0.5842
   56MOL0     C 7440   8.411   4.371   3.395 -0.3636 -0.4580  1.0876
   56MOL0     C 7441   8.343   4.241   3.376 -0.2862  0.1872 -0.6585
   56MOL0     N 7442   8.218   4.255   3.292 -0.5049  0.7103  0.2798
   56MOL0     C 7443   8.225   4.298   3.163  0.1017 -0.7571  0.8831
   56MOL0     C 7444   8.097   4.292   3.118  0.1239 -0.7575  0.5673
   56MOL0     C 7445   8.055   4.318   2.980 -0.2653 -0.4965  1.1787
   56MOL0     C 7446   8.038   4.193   2.891  0.0325 -0.1498  0.1420
   56MOL0     C 7447   8.158   4.148   2.814 -0.0067  0.3017  0.1059
   56MOL0     C 7448   8.259   4.075   2.896 -0.7246 -0.1207 -0.2428
   56MOL0     O 7449   8.349   4.006   2.808 -0.3894  1.1721  0.1442
   56MOL0     C 7450   8.353   3.867   2.801  0.6459  0.8694 -0.1781
   56MOL0     C 7451   8.248   3.821   2.718 -0.2699 -0.5515 -0.9396
   56MOL0     C 7452   8.234   3.687   2.683  0.0615  0.1680  1.2529
   56MOL0     C 7453   8.121   3.658   2.583  0.0356  0.2652 -0.0395
   56MOL0     C 7454   8.335   3.596   2.732 -0.1247  0.6952  0.3006
   56MOL0     C 7455   8.338   3.461   2.679  0.2503  0.4495  0.0283
   56MOL0     O 7456   8.462   3.398   2.703 -0.2908  0.0352 -0.0245
   56MOL0     C 7457   8.478   3.280   2.646 -0.3700 -0.7200 -0.1214
   56MOL0     C 7458   8.576   3.252   2.550  0.0137 -0.1763 -0.2075
   56MOL0     C 7459   8.596   3.120   2.510 -0.2805  0.2776  0.9131
   56MOL0     C 7460   8.509   3.021   2.547 -0.2808  0.1209 -0.1250
   56MOL0     O 7461   8.518   2.884   2.517 -0.3585  0.1221  0.0080
   56MOL0     C 7462   8.538   2.856   2.375  0.2944  0.1131 -0.2238
   56MOL0     C 7463   8.420   2.913   2.288  0.2916 -0.0229  0.1757
   56MOL0     C 7464   8.452   2.889   2.143  0.5088  0.3837 -0.4589
   56MOL0     C 7465   8.508   2.747   2.117  0.0231  0.2736  0.2445
   56MOL0     C 7466   8.492   2.713   1.968 -0.5086  0.0963 -0.1245
   56MOL0     C 7467   8.606   2.774   1.888  0.4155 -0.0221  0.2085
   56MOL0     C 7468   8.560   2.773   1.742 -1.0779  0.1257  0.6681
   56MOL0     C 7469   8.486   2.886   1.686  0.4505  0.1615  0.2495
   56MOL0    Cl 7470   8.423   2.821   1.535 -0.2342  0.5403  0.4876
   56MOL0     C 7471   8.411   3.050   2.636  0.3821 -0.4826  0.3334
   56MOL0     C 7472   8.396   3.172   2.687  0.7134 -0.1117 -0.5691
   56MOL0     O 7473   8.246   3.413   2.610 -0.5847 -0.0182  0.0946
   56MOL0     C 7474   8.436   3.650   2.815  0.4951 -0.1481 -0.5059
   56MOL0     C 7475   8.436   3.780   2.854 -0.8201 -1.1162  0.1695
   56MOL0     N 7476   8.017   4.244   3.221 -0.5943  0.1686 -0.5428
   56MOL0     N 7477   8.090   4.227   3.323  0.0892  0.0604  1.1933
   56MOL0     C 7478   8.633   4.141   4.262 -0.0420 -0.9533  0.9048
   56MOL0     C 7479   8.589   4.115   4.387  0.0710  0.0054 -0.4442
   56MOL0     C 7480   8.420   4.053   4.800 -0.4208 -0.9154 -1.2775
   56MOL0     C 7481   8.470   3.958   4.888 -0.8440  0.9378 -0.0456
   56MOL0     C 7482   8.419   3.924   5.017  0.3796 -0.2014 -0.2777
   56MOL0     C 7483   8.303   3.995   5.054  0.6209 -0.1388 -0.4991
   56MOL0     O 7484   8.216   3.962   5.158 -0.2538  0.2369  0.5692
   56MOL0     C 7485   8.258   4.029   5.277 -0.6824  0.1622 -0.2356
   56MOL0     C 7486   8.134   4.046   5.359  0.5522 -0.1123 -0.7745
   56MOL0     C 7487   8.155   4.093   5.500 -0.4215  0.0547 -0.3330
   56MOL0     C 7488   8.035   4.170   5.561  0.0828 -0.1181  1.3984
   56MOL0     C 7489   8.063   4.192   5.707 -0.0640  0.2378  0.4534
   56MOL0     C 7490   8.082   4.237   5.819 -0.1461  0.4749  0.1470
   56MOL0     C 7491   8.259   4.094   4.969  0.0898 -0.4818  0.6895
   56MOL0     C 7492   8.311   4.130   4.848 -0.0560 -0.1308 -0.0272
   56MOL0     H 7493   8.349   4.334   4.419 -1.1778  0.7281 -2.7006
   56MOL0     H 7494   8.428   4.388   4.198  0.1366 -0.9047  0.9180
   56MOL0     H 7495   8.798   4.186   4.054 -1.8541  0.2377  0.0257
   56MOL0     H 7496   8.696   4.077   3.980  0.4501  0.4733 -1.0409
   56MOL0     H 7497   8.811   4.329   3.854 -0.9693  1.3006 -0.9343
   56MOL0     H 7498   8.852   4.166   3.833  0.6120 -0.2654  2.6513
   56MOL0     H 7499   8.611   4.121   3.743 -2.8048  0.7268 -1.1108
   56MOL0     H 7500   8.580   4.298   3.759 -3.1165 -1.7300 -1.6906
   56MOL0     H 7501   8.751   4.368   3.623  2.4039 -0.9775  1.9584
   56MOL0     H 7502   8.798   4.198   3.596 -1.6342 -0.7772  2.0485
   56MOL0     H 7503   8.663   4.256   3.407  0.2982  3.2594 -0.2563
   56MOL0     H 7504   8.568   4.155   3.509  3.6932 -1.4622 -0.9498
   56MOL0     H 7505   8.441   4.373   3.594 -1.3440 -0.6081 -1.9545
   56MOL0     H 7506   8.567   4.457   3.502  0.0220 -1.2086 -1.9332
   56MOL0     H 7507   8.339   4.452   3.408  0.3522  0.5341 -0.7922
   56MOL0     H 7508   8.478   4.393   3.311 -0.2682  0.0470  1.2967
   56MOL0     H 7509   8.315   4.213   3.478 -0.2629  1.8612 -0.1640
   56MOL0     H 7510   8.414   4.174   3.327 -1.4350 -1.1091 -0.6326
   56MOL0     H 7511   8.315   4.313   3.103 -1.8520  0.4628 -1.9728
   56MOL0     H 7512   7.953   4.357   2.991 -0.4187 -0.7629  0.7094
   56MOL0     H 7513   8.132   4.377   2.928  1.3638 -3.0622  0.4960
   56MOL0     H 7514   7.965   4.215   2.813  1.1569 -0.9424 -1.1719
   56MOL0     H 7515   8.011   4.114   2.962 -2.4554  0.4384 -0.0536
   56MOL0     H 7516   8.198   4.234   2.759  1.1925 -1.2023 -1.5044
   56MOL0     H 7517   8.123   4.076   2.739  1.6981 -0.0043 -0.4445
   56MOL0     H 7518   8.210   4.015   2.973 -0.2523  3.0485  2.7835
   56MOL0     H 7519   8.325   4.139   2.957  0.0466 -1.2153  0.1010
   56MOL0     H 7520   8.184   3.893   2.668 -0.1835  1.9326  2.2515
   56MOL0     H 7521   8.174   3.634   2.491 -2.1402 -2.0953 -0.7615
   56MOL0     H 7522   8.070   3.563   2.602 -0.3736 -0.2917 -3.4099
   56MOL0     H 7523   8.049   3.738   2.565  1.5356  1.1345 -2.6625
   56MOL0     H 7524   8.636   3.329   2.504 -1.0691  1.3793  0.8819
   56MOL0     H 7525   8.676   3.112   2.438  0.4803 -0.1186  1.7893
   56MOL0     H 7526   8.621   2.915   2.334 -0.3064  1.3691  0.3045
   56MOL0     H 7527   8.551   2.751   2.349 -3.2796 -0.4803 -0.1542
   56MOL0     H 7528   8.321   2.883   2.323 -0.6436  2.4284 -0.2145
   56MOL0     H 7529   8.414   3.022   2.293  0.4264  0.1034 -1.7061
   56MOL0     H 7530   8.530   2.961   2.115  1.1840 -0.5977 -1.1532
   56MOL0     H 7531   8.359   2.897   2.085 -0.3674 -1.5297  0.5959
   56MOL0     H 7532   8.615   2.739   2.138  1.3705  3.6351 -3.7910
   56MOL0     H 7533   8.450   2.679   2.179 -0.0164 -2.6510 -2.7408
   56MOL0     H 7534   8.396   2.743   1.926  0.6065 -0.3043 -3.2516
   56MOL0     H 7535   8.509   2.607   1.950  1.7323  0.5893 -1.3194
   56MOL0     H 7536   8.618   2.876   1.926  1.1463  0.4454 -1.2389
   56MOL0     H 7537   8.697   2.718   1.911 -0.3731 -1.3368  0.2288
   56MOL0     H 7538   8.504   2.683   1.714 -0.7518  0.2188 -0.3462
   56MOL0     H 7539   8.649   2.761   1.680 -0.9644  0.6771  0.7287
   56MOL0     H 7540   8.562   2.965   1.682 -0.8589  1.8051  3.5503
   56MOL0     H 7541   8.402   2.912   1.752  0.5555  1.5102 -0.1021
   56MOL0     H 7542   8.344   2.969   2.664  1.4287 -1.4420  0.1694
   56MOL0     H 7543   8.319   3.192   2.761  0.0674 -1.2063 -0.9140
   56MOL0     H 7544   8.489   3.578   2.877 -0.5520  0.5470  1.2716
   56MOL0     H 7545   8.500   3.822   2.931  1.2312 -1.0089 -1.5208
   56MOL0     H 7546   8.707   4.076   4.216 -0.4177 -1.3481  0.8490
   56MOL0     H 7547   8.650   4.040   4.436 -0.6264 -0.5300 -0.3748
   56MOL0     H 7548   8.549   3.891   4.857 -3.0831 -1.7599 -0.3334
   56MOL0     H 7549   8.454   3.840   5.075 -3.5893 -2.2230 -0.4220
   56MOL0     H 7550   8.331   3.981   5.343 -3.4229  1.0455  3.7606
   56MOL0     H 7551   8.305   4.124   5.249 -1.6242 -0.1671 -3.3103
   56MOL0     H 7552   8.089   3.947   5.377  0.1297  0.4831  1.8787
   56MOL0     H 7553   8.059   4.111   5.313 -1.0056 -0.3476  1.2697
   56MOL0     H 7554   8.237   4.166   5.498  0.5326 -1.0157 -0.9687
   56MOL0     H 7555   8.182   4.010   5.566  3.1591 -0.9752 -2.8158
   56MOL0     H 7556   7.938   4.121   5.551 -0.5195  1.4273 -1.4602
   56MOL0     H 7557   8.031   4.270   5.517 -0.3048  0.6884  3.1954
   56MOL0     H 7558   8.093   4.286   5.913 -1.1654 -2.6966  2.0834
   56MOL0     H 7559   8.163   4.136   4.997 -0.7478 -1.7360 -0.1680
   56MOL0     H 7560   8.259   4.215   4.805 -1.4271  0.8529  3.2690
   57MOL0     O 7561  10.111   0.229   3.271  0.1368  0.4805 -0.0329
   57MOL0     C 7562  10.120   0.112   3.312 -0.7460 -0.2211  0.1842
   57MOL0     O 7563  10.041   0.010   3.284  0.3760 -0.9289  0.7696
   57MOL0     C 7564   9.930   0.018   3.204  0.1410  0.2390  0.1503
   57MOL0     C 7565   9.859   0.127   3.166  0.0430  0.1444 -0.1434
   57MOL0     C 7566   9.749   0.133   3.084 -0.0667 -0.3465  0.3044
   57MOL0     C 7567   9.719   0.007   3.025  0.0893  0.5571 -0.4963
   57MOL0     O 7568   9.615   0.011   2.937  0.4690  0.4500  0.4974
   57MOL0     C 7569   9.615  -0.042   2.805 -0.3140  0.6492 -0.1627
   57MOL0     C 7570   9.471  -0.044   2.739 -0.4386  0.4344 -1.2005
   57MOL0     C 7571   9.426   0.090   2.678  0.2464  0.3475  0.2352
   57MOL0     C 7572   9.512   0.151   2.566  0.2800  0.2628  0.2430
   57MOL0     C 7573   9.424   0.265   2.504 -0.1778  0.4986 -0.5506
   57MOL0     C 7574   9.494   0.324   2.386  0.2517 -0.0536  0.3471
   57MOL0     C 7575   9.424   0.444   2.322 -0.1847  0.4071  0.1862
   57MOL0     C 7576   9.474   0.483   2.184 -0.0328  0.4245  0.3499
   57MOL0     N 7577   9.612   0.522   2.172 -0.0039  0.2013 -0.1799
   57MOL0     C 7578   9.671   0.644   2.204  0.8459  0.2727  0.8128
   57MOL0     C 7579   9.796   0.630   2.181 -0.1771 -0.2763 -0.0843
   57MOL0     C 7580   9.905   0.738   2.206 -0.1802  0.3629 -0.0936
   57MOL0     C 7581   9.912   0.848   2.100 -0.3279  0.0201  0.3192
   57MOL0     C 7582  10.032   0.941   2.120 -0.5228 -0.2287  0.5784
   57MOL0     C 7583   9.994   1.023   2.248 -0.1953 -0.0065  0.5008
   57MOL0     O 7584  10.076   1.134   2.271  0.1801  0.2951 -0.1198
   57MOL0     C 7585  10.103   1.230   2.177 -0.4753 -0.5500 -0.2733
   57MOL0     C 7586  10.230   1.281   2.157 -0.0612  0.1242  0.0196
   57MOL0     C 7587  10.260   1.384   2.064  0.0446  0.2973  0.7281
   57MOL0     C 7588  10.401   1.425   2.056  0.0510  0.0205  1.0807
   57MOL0     C 7589  10.156   1.434   1.984  0.5231  0.0302  0.5125
   57MOL0     C 7590  10.175   1.536   1.873 -0.3262 -0.5072  1.4437
   57MOL0     O 7591  10.060   1.580   1.816 -0.0749 -0.3250 -0.3943
   57MOL0     C 7592  10.057   1.692   1.738  0.7630 -1.3669 -0.4820
   57MOL0     C 7593  10.144   1.801   1.745 -0.9690 -0.5868  0.9903
   57MOL0     C 7594  10.121   1.914   1.668 -0.1692  0.4578  0.1506
   57MOL0     C 7595  10.016   1.926   1.575 -0.8306  0.3015  0.0094
   57MOL0     O 7596   9.995   2.022   1.482  0.6496  0.1518 -0.1327
   57MOL0     C 7597  10.061   2.158   1.505 -0.0808 -0.1915  0.6445
   57MOL0     C 7598  10.015   2.233   1.630  0.2367  0.6833 -0.1068
   57MOL0     C 7599   9.872   2.245   1.638  0.0239 -0.1447 -1.2085
   57MOL0     C 7600   9.828   2.198   1.773  0.0456 -0.7008 -0.4958
   57MOL0     C 7601   9.683   2.207   1.802  0.2829  0.4497 -0.2595
   57MOL0     C 7602   9.646   2.189   1.946  0.9139  0.1579 -0.3665
   57MOL0     C 7603   9.626   2.051   2.002  0.1119  0.7670 -0.0242
   57MOL0     C 7604   9.596   2.042   2.153  0.6241 -0.3749 -1.0362
   57MOL0    Cl 7605   9.458   2.156   2.206 -0.0516 -0.4784 -0.0670
   57MOL0     C 7606   9.930   1.817   1.571 -0.0725  0.1373 -0.4180
   57MOL0     C 7607   9.948   1.702   1.648 -0.5538 -0.7075 -0.2965
   57MOL0     O 7608  10.288   1.564   1.832  0.1788 -0.1967  0.6608
   57MOL0     C 7609  10.025   1.377   2.002 -1.1203  1.1934  0.4728
   57MOL0     C 7610  10.001   1.280   2.096  0.1124 -0.1761 -0.9328
   57MOL0     N 7611   9.824   0.508   2.144 -0.4745  0.1581  0.4654
   57MOL0     N 7612   9.716   0.437   2.144  0.1063  0.1878 -0.0437
   57MOL0     C 7613   9.773  -0.113   3.073 -0.0135  0.2615 -0.1534
   57MOL0     C 7614   9.876  -0.106   3.165  0.5106 -0.4234  0.0834
   57MOL0     C 7615  10.251   0.089   3.377 -0.7075 -0.9671  0.1617
   57MOL0     C 7616  10.342   0.196   3.404 -0.7100 -0.2804 -0.1324
   57MOL0     C 7617  10.466   0.181   3.472  0.0841 -0.1911  0.0686
   57MOL0     C 7618  10.509   0.055   3.513  0.0157  0.2418  0.0803
   57MOL0     O 7619  10.616   0.031   3.601 -0.1704 -0.0391  0.0443
   57MOL0     C 7620  10.709   0.135   3.627  0.3321 -0.7297  0.0380
   57MOL0     C 7621  10.783   0.099   3.748  0.3047 -0.4895 -0.9980
   57MOL0     C 7622  10.866   0.208   3.815 -0.0144 -0.7268  0.2173
   57MOL0     C 7623  10.914   0.174   3.965  0.0307 -0.1720  0.4091
   57MOL0     C 7624  10.998   0.284   4.015 -0.9230  0.3647  0.8479
   57MOL0     C 7625  11.052   0.388   4.040 -0.3824  0.2674  0.3872
   57MOL0     C 7626  10.423  -0.058   3.479  0.4357  0.0280  0.0640
   57MOL0     C 7627  10.296  -0.036   3.418  0.6936  0.0509 -0.1234
   57MOL0     H 7628   9.882   0.220   3.216  2.1061 -0.7826  0.7384
   57MOL0     H 7629   9.691   0.223   3.064 -1.1824 -0.8620  1.1202
   57MOL0     H 7630   9.683   0.018   2.743 -1.4425  1.0935 -1.0066
   57MOL0     H 7631   9.650  -0.145   2.805 -0.8920  0.4468  0.0830
   57MOL0     H 7632   9.480  -0.115   2.655  1.0813 -3.5276  1.9748
   57MOL0     H 7633   9.390  -0.074   2.807 -0.6910  0.5681 -1.4385
   57MOL0     H 7634   9.323   0.076   2.641  0.3546  0.5642 -0.1615
   57MOL0     H 7635   9.428   0.166   2.756  1.9447  1.5160 -0.8793
   57MOL0     H 7636   9.607   0.189   2.605  0.5990  0.1559 -0.4338
   57MOL0     H 7637   9.532   0.088   2.480  2.5506  0.8485  0.2677
   57MOL0     H 7638   9.335   0.221   2.460  0.5031 -0.7924 -0.6978
   57MOL0     H 7639   9.404   0.341   2.580  0.5213  2.3785 -2.1564
   57MOL0     H 7640   9.595   0.351   2.419 -0.1964  0.5431  1.2998
   57MOL0     H 7641   9.500   0.246   2.310  1.8930  1.5456 -1.2880
   57MOL0     H 7642   9.319   0.414   2.315 -0.7601  2.3322  0.0549
   57MOL0     H 7643   9.434   0.538   2.378 -0.2221  0.2397  0.4761
   57MOL0     H 7644   9.418   0.573   2.158 -0.1011  0.5522  0.9112
   57MOL0     H 7645   9.455   0.401   2.114 -0.5045 -0.4803  1.4825
   57MOL0     H 7646   9.627   0.733   2.248 -5.6283 -2.2589  0.6144
   57MOL0     H 7647   9.887   0.781   2.305  0.4440 -1.8751  1.0556
   57MOL0     H 7648   9.996   0.677   2.213 -1.0736 -0.8143  2.7964
   57MOL0     H 7649   9.817   0.902   2.091 -0.2459  0.3875  1.4624
   57MOL0     H 7650   9.928   0.801   2.003  1.3429  2.8894 -0.9198
   57MOL0     H 7651  10.032   1.001   2.028 -2.2521 -0.5049  0.3552
   57MOL0     H 7652  10.118   0.875   2.133 -1.2595 -0.9831  1.7932
   57MOL0     H 7653   9.998   0.960   2.338 -5.1205  1.0157  1.7342
   57MOL0     H 7654   9.889   1.051   2.235 -0.5411  0.6808  3.8521
   57MOL0     H 7655  10.312   1.230   2.207 -1.0833 -0.6929  0.9319
   57MOL0     H 7656  10.458   1.375   2.134 -2.7670 -4.0649  0.8257
   57MOL0     H 7657  10.457   1.409   1.964 -1.0051  5.8589 -1.0276
   57MOL0     H 7658  10.409   1.534   2.056  1.8457 -0.0912  1.6773
   57MOL0     H 7659  10.226   1.798   1.816 -0.6953  0.3655  0.7289
   57MOL0     H 7660  10.189   1.998   1.672 -1.1398  1.3011 -0.6643
   57MOL0     H 7661  10.170   2.161   1.502 -0.0942  1.1163  0.9692
   57MOL0     H 7662  10.022   2.226   1.429  0.9404  2.1306  2.0770
   57MOL0     H 7663  10.060   2.179   1.714 -0.5562  1.0276  0.5532
   57MOL0     H 7664  10.056   2.335   1.629 -1.3132  1.3270 -0.1302
   57MOL0     H 7665   9.823   2.181   1.564  0.5792 -3.0020  0.7465
   57MOL0     H 7666   9.844   2.349   1.618  0.4825 -0.1338 -1.8588
   57MOL0     H 7667   9.861   2.095   1.790 -1.4170 -1.2119 -0.6156
   57MOL0     H 7668   9.872   2.262   1.850  0.4258 -1.0413 -0.4251
   57MOL0     H 7669   9.634   2.134   1.737  2.3556 -2.7288  1.4984
   57MOL0     H 7670   9.651   2.303   1.762 -2.9859 -0.6325 -0.6094
   57MOL0     H 7671   9.719   2.227   2.018  0.6152 -1.1301  0.6606
   57MOL0     H 7672   9.545   2.228   1.956 -0.9142 -3.7046 -1.6445
   57MOL0     H 7673   9.706   1.991   1.957  1.1808  3.2347 -1.6267
   57MOL0     H 7674   9.536   2.014   1.951  0.6252 -2.2627  1.0439
   57MOL0     H 7675   9.687   2.063   2.210 -0.7814 -0.0235  1.2037
   57MOL0     H 7676   9.578   1.935   2.165  3.8170 -0.8977  0.3636
   57MOL0     H 7677   9.864   1.816   1.485 -0.5125  1.7602 -0.1212
   57MOL0     H 7678   9.871   1.626   1.640 -1.9152  0.6563 -0.4652
   57MOL0     H 7679   9.955   1.416   1.928 -3.2151 -1.7953  0.7231
   57MOL0     H 7680   9.900   1.246   2.118  0.8751 -1.4684  0.8272
   57MOL0     H 7681   9.743  -0.201   3.017 -1.8096  1.5388 -1.3003
   57MOL0     H 7682   9.927  -0.199   3.187 -0.3239 -0.6000  1.3548
   57MOL0     H 7683  10.308   0.298   3.389  0.3635  0.0537 -0.3198
   57MOL0     H 7684  10.523   0.271   3.487 -1.0219  1.2294 -3.2429
   57MOL0     H 7685  10.784   0.156   3.550  1.3832 -0.9184  0.9840
   57MOL0     H 7686  10.656   0.230   3.637 -0.0249 -1.0089  0.8873
   57MOL0     H 7687  10.848   0.015   3.720 -2.0218 -2.5043 -0.6975
   57MOL0     H 7688  10.710   0.061   3.819  0.1592 -0.2437 -1.0161
   57MOL0     H 7689  10.823   0.309   3.821 -1.7786 -1.4988  1.0518
   57MOL0     H 7690  10.959   0.215   3.759  0.7549  3.3644  1.6029
   57MOL0     H 7691  10.980   0.090   3.990  0.4747  0.1327  0.2693
   57MOL0     H 7692  10.827   0.160   4.029 -0.0754 -1.2003  0.0610
   57MOL0     H 7693  11.092   0.486   4.054  1.4941 -0.0891 -1.8421
   57MOL0     H 7694  10.451  -0.152   3.525 -0.2129 -1.1635 -1.8663
   57MOL0     H 7695  10.214  -0.107   3.411  0.6406  0.1884 -1.0748
   58MOL0     O 7696   1.182   7.582   6.053 -0.0023  0.5732  0.0675
   58MOL0     C 7697   1.249   7.476   6.053  0.7840  0.2202 -1.4232
   58MOL0     O 7698   1.228   7.367   5.972 -0.2615 -0.0437 -0.0860
   58MOL0     C 7699   1.152   7.370   5.860 -1.0115 -0.6849 -0.3766
   58MOL0     C 7700   1.040   7.299   5.849 -0.3687 -0.5658  0.0920
   58MOL0     C 7701   0.984   7.281   5.719  0.2711  0.2687  0.9743
   58MOL0     C 7702   1.045   7.345   5.600  0.3162 -0.8117  0.0329
   58MOL0     O 7703   0.985   7.323   5.474  0.4080  0.1587  0.5109
   58MOL0     C 7704   1.074   7.312   5.359 -0.2421  0.3542 -0.0640
   58MOL0     C 7705   0.978   7.318   5.235  0.0402 -0.5228  0.4942
   58MOL0     C 7706   1.050   7.300   5.097 -0.6126 -0.0231  0.6434
   58MOL0     C 7707   1.041   7.159   5.033  0.4279  0.4721 -0.3963
   58MOL0     C 7708   1.042   7.162   4.873 -0.2343 -1.1025 -0.2099
   58MOL0     C 7709   1.184   7.173   4.822  0.2953 -0.2012  0.5209
   58MOL0     C 7710   1.216   7.057   4.716  0.9116 -0.1880 -0.2036
   58MOL0     C 7711   1.354   7.067   4.663  1.2835  0.4371  0.0402
   58MOL0     N 7712   1.352   7.158   4.544 -0.0649 -0.1344 -0.2370
   58MOL0     C 7713   1.332   7.295   4.552 -0.6076 -0.4233  1.2979
   58MOL0     C 7714   1.319   7.337   4.419  0.0049 -0.5893  0.7546
   58MOL0     C 7715   1.280   7.469   4.357  0.0274  0.3894 -0.0774
   58MOL0     C 7716   1.404   7.552   4.341  0.6780 -0.2464 -0.7314
   58MOL0     C 7717   1.362   7.697   4.312 -0.1414 -0.0072  0.4863
   58MOL0     C 7718   1.497   7.779   4.305  0.0406 -0.2660 -0.5229
   58MOL0     O 7719   1.547   7.791   4.444 -0.1624  0.3153 -0.7533
   58MOL0     C 7720   1.661   7.862   4.472 -0.5917  0.2073 -0.0988
   58MOL0     C 7721   1.747   7.814   4.572 -0.5680  0.2842 -0.0004
   58MOL0     C 7722   1.865   7.883   4.599  0.1858  1.2985 -1.3035
   58MOL0     C 7723   1.963   7.824   4.702 -0.2480  0.6478 -0.1120
   58MOL0     C 7724   1.909   7.990   4.519  0.0277  0.0108  0.5595
   58MOL0     C 7725   2.052   8.051   4.519  0.1242 -0.2250  0.9228
   58MOL0     O 7726   2.073   8.134   4.418 -0.2347 -0.0656 -0.0727
   58MOL0     C 7727   2.200   8.192   4.393 -0.1397  0.7126 -0.1288
   58MOL0     C 7728   2.257   8.272   4.497 -0.7609 -0.1768 -0.4661
   58MOL0     C 7729   2.382   8.343   4.474 -0.6689 -1.2134 -0.0003
   58MOL0     C 7730   2.439   8.349   4.342 -0.7707 -0.1380  0.1977
   58MOL0     O 7731   2.548   8.419   4.299  0.3524 -0.1702 -0.3008
   58MOL0     C 7732   2.656   8.438   4.396 -0.7737 -0.4600 -0.0227
   58MOL0     C 7733   2.704   8.304   4.450  0.5024 -0.2468 -0.1574
   58MOL0     C 7734   2.736   8.201   4.342 -0.5016 -0.1853 -0.4060
   58MOL0     C 7735   2.831   8.107   4.415 -0.6904  0.4232 -1.0454
   58MOL0     C 7736   2.859   7.989   4.334  0.2407  0.2890  0.4948
   58MOL0     C 7737   2.964   7.905   4.403  0.7812  1.1586  0.0747
   58MOL0     C 7738   3.115   7.935   4.371  0.3880 -0.4467 -0.1336
   58MOL0     C 7739   3.153   7.866   4.241  0.1890 -0.7607  0.2491
   58MOL0    Cl 7740   3.147   7.693   4.253  0.0178  0.2336  0.1283
   58MOL0     C 7741   2.379   8.274   4.232  0.5817  0.1233 -0.7793
   58MOL0     C 7742   2.264   8.193   4.264  0.4963  0.1133 -0.0967
   58MOL0     O 7743   2.136   8.036   4.609  0.0274 -0.7477 -1.5521
   58MOL0     C 7744   1.812   8.040   4.425 -0.6648  0.7256 -1.0278
   58MOL0     C 7745   1.681   7.981   4.409 -0.2888 -0.3470 -0.9397
   58MOL0     N 7746   1.323   7.218   4.343  1.2585 -0.2995  0.2046
   58MOL0     N 7747   1.335   7.115   4.414 -0.2131 -0.1032  0.7857
   58MOL0     C 7748   1.153   7.432   5.619 -0.1145 -0.3956 -0.0866
   58MOL0     C 7749   1.208   7.443   5.749  0.4516 -1.5014 -0.0523
   58MOL0     C 7750   1.337   7.478   6.168 -0.4215  0.0002  0.4835
   58MOL0     C 7751   1.387   7.593   6.228  0.3856 -0.1877  0.6192
   58MOL0     C 7752   1.496   7.589   6.311 -0.3537 -0.5063 -0.3623
   58MOL0     C 7753   1.544   7.467   6.365 -0.1341 -0.3155  0.5624
   58MOL0     O 7754   1.656   7.463   6.451  0.1056 -0.6999  0.1704
   58MOL0     C 7755   1.623   7.472   6.586  0.2220 -1.1092  0.3844
   58MOL0     C 7756   1.550   7.347   6.630 -0.2525 -0.7470  0.4328
   58MOL0     C 7757   1.551   7.358   6.778  0.2418 -0.4198 -0.5052
   58MOL0     C 7758   1.446   7.280   6.853  0.1879 -0.3108 -0.0156
   58MOL0     C 7759   1.477   7.138   6.843 -0.2741  0.3660 -0.6829
   58MOL0     C 7760   1.493   7.016   6.820 -0.3967 -0.6422  0.5687
   58MOL0     C 7761   1.487   7.352   6.317  0.4957  0.2733 -1.0390
   58MOL0     C 7762   1.394   7.362   6.217 -0.4277  0.7615  1.1182
   58MOL0     H 7763   0.990   7.259   5.937 -0.8404  2.1179  1.1522
   58MOL0     H 7764   0.900   7.214   5.706  0.5529  0.3577 -2.0032
   58MOL0     H 7765   1.139   7.400   5.357 -0.9183  0.9146  1.2183
   58MOL0     H 7766   1.125   7.216   5.352  0.5048  0.6353  1.2729
   58MOL0     H 7767   0.904   7.240   5.255  1.5622 -2.0939  0.1616
   58MOL0     H 7768   0.915   7.407   5.228 -3.4919 -2.8907 -0.3281
   58MOL0     H 7769   0.997   7.368   5.030  0.3680  0.4092  0.2988
   58MOL0     H 7770   1.153   7.337   5.105 -0.0851 -1.2540 -0.1515
   58MOL0     H 7771   1.118   7.094   5.076  0.1223  0.0761 -0.4496
   58MOL0     H 7772   0.946   7.116   5.066  2.1045 -3.3183 -0.0278
   58MOL0     H 7773   1.015   7.060   4.843 -3.9643 -0.6279  1.0459
   58MOL0     H 7774   0.975   7.236   4.828  0.8347  0.3237  0.4413
   58MOL0     H 7775   1.191   7.276   4.787 -0.4424 -0.0183  0.8982
   58MOL0     H 7776   1.251   7.158   4.908 -1.1088  2.2350  2.1630
   58MOL0     H 7777   1.204   6.969   4.780 -2.8058  0.6516  0.5058
   58MOL0     H 7778   1.143   7.042   4.636  3.7750 -0.0609 -3.0263
   58MOL0     H 7779   1.384   6.974   4.614  0.0252  1.2719 -2.4713
   58MOL0     H 7780   1.421   7.105   4.741  0.4883  1.7181  0.1187
   58MOL0     H 7781   1.324   7.345   4.648  0.9495 -2.6643  2.7103
   58MOL0     H 7782   1.235   7.462   4.257  1.4807 -1.1209 -0.6610
   58MOL0     H 7783   1.206   7.510   4.427  1.3266  1.5366  0.6658
   58MOL0     H 7784   1.464   7.510   4.260  2.1674 -0.8475  0.6381
   58MOL0     H 7785   1.456   7.563   4.436 -0.4392  1.5818 -0.2705
   58MOL0     H 7786   1.302   7.745   4.389 -0.3812  0.4485  0.0247
   58MOL0     H 7787   1.312   7.697   4.214  0.3153 -0.6830  0.2429
   58MOL0     H 7788   1.473   7.881   4.274 -1.2075  0.8318  3.3927
   58MOL0     H 7789   1.556   7.732   4.226 -3.3209 -0.3374 -3.2096
   58MOL0     H 7790   1.724   7.719   4.618  1.4911  0.4564  1.5195
   58MOL0     H 7791   2.053   7.786   4.652  1.8050 -1.6616  4.7267
   58MOL0     H 7792   1.985   7.909   4.767  1.0482  1.4554 -1.5110
   58MOL0     H 7793   1.922   7.739   4.757  0.2237 -1.2781 -2.5580
   58MOL0     H 7794   2.217   8.279   4.597 -1.8343  0.1055 -0.8920
   58MOL0     H 7795   2.425   8.408   4.550 -0.6708  0.4502 -1.3765
   58MOL0     H 7796   2.735   8.479   4.333 -0.2791  0.9854  1.4748
   58MOL0     H 7797   2.637   8.505   4.479 -3.6726 -2.4484  1.0928
   58MOL0     H 7798   2.783   8.322   4.524 -2.4014  0.5585  3.0308
   58MOL0     H 7799   2.622   8.262   4.509  1.0703 -2.2576 -0.6976
   58MOL0     H 7800   2.787   8.247   4.257  0.2839 -3.9768 -2.1901
   58MOL0     H 7801   2.648   8.154   4.299 -0.7332 -1.9263  1.8178
   58MOL0     H 7802   2.924   8.152   4.451 -1.2724  0.2999  0.6793
   58MOL0     H 7803   2.779   8.084   4.508 -3.1909  2.4688 -1.8055
   58MOL0     H 7804   2.893   8.027   4.237  5.1104 -1.6445  1.1373
   58MOL0     H 7805   2.767   7.930   4.325  0.5113  0.0355 -0.7114
   58MOL0     H 7806   2.951   7.916   4.511  1.1996  0.6845  0.1790
   58MOL0     H 7807   2.944   7.800   4.379  3.3695  0.5035  0.4457
   58MOL0     H 7808   3.187   7.895   4.444  1.0179  1.2486  0.2260
   58MOL0     H 7809   3.115   8.044   4.357 -1.1232 -0.6094 -1.8006
   58MOL0     H 7810   3.248   7.909   4.208  0.0589 -0.5065  0.1972
   58MOL0     H 7811   3.080   7.899   4.166 -0.6016 -0.3910  1.1668
   58MOL0     H 7812   2.431   8.279   4.137 -0.3647 -0.6440 -1.3625
   58MOL0     H 7813   2.214   8.143   4.182 -1.1494 -0.7426  1.3478
   58MOL0     H 7814   1.842   8.118   4.356  1.8922  0.6034 -0.1502
   58MOL0     H 7815   1.607   8.022   4.341 -0.2317 -1.1847 -1.5217
   58MOL0     H 7816   1.209   7.480   5.539  0.8226  0.4371  1.0217
   58MOL0     H 7817   1.301   7.497   5.761 -0.8396  0.7944  0.2803
   58MOL0     H 7818   1.358   7.693   6.198  1.6679 -0.1438 -0.5656
   58MOL0     H 7819   1.541   7.680   6.350 -0.7440 -1.1188  1.6286
   58MOL0     H 7820   1.713   7.481   6.646  2.1770  1.0312 -2.6080
   58MOL0     H 7821   1.565   7.564   6.597  0.4113 -0.8055 -0.9757
   58MOL0     H 7822   1.593   7.254   6.591  1.1030 -0.2900  0.7601
   58MOL0     H 7823   1.449   7.360   6.589 -0.6596  0.5761  1.7879
   58MOL0     H 7824   1.524   7.462   6.796 -0.4883 -0.0657 -3.1888
   58MOL0     H 7825   1.645   7.337   6.829 -1.5455  0.3906  3.5086
   58MOL0     H 7826   1.348   7.300   6.810 -0.6179 -0.2930  1.7378
   58MOL0     H 7827   1.423   7.318   6.953 -3.0599 -0.5312 -0.5711
   58MOL0     H 7828   1.524   6.914   6.811  1.1449 -0.0316 -2.8351
   58MOL0     H 7829   1.517   7.256   6.359  2.8281  1.5888  0.5414
   58MOL0     H 7830   1.347   7.268   6.187 -1.8686  1.6582  0.4631
   59MOL0     O 7831   4.807   0.520  10.216 -0.3965  0.0386 -0.4059
   59MOL0     C 7832   4.929   0.536  10.251  1.4311 -0.1388  0.5438
   59MOL0     O 7833   5.007   0.651  10.242 -0.3222 -0.6586 -0.0562
   59MOL0     C 7834   4.973   0.770  10.180 -0.2415 -0.3311 -0.1901
   59MOL0     C 7835   4.868   0.794  10.099  0.1166 -0.3184 -0.9537
   59MOL0     C 7836   4.848   0.918  10.035 -0.8415 -0.3526  0.5620
   59MOL0     C 7837   4.920   1.031  10.061  0.4885 -0.0726  1.0236
   59MOL0     O 7838   4.911   1.144   9.979  0.6930 -0.4752  0.0833
   59MOL0     C 7839   5.044   1.195   9.941  1.0202 -0.1799  0.4405
   59MOL0     C 7840   5.035   1.348   9.950  0.4027  0.3796 -0.0598
   59MOL0     C 7841   5.061   1.401  10.093  0.0716 -0.5692  0.2681
   59MOL0     C 7842   5.040   1.558  10.093 -0.0189 -1.4450 -0.0999
   59MOL0     C 7843   5.146   1.646  10.048  0.1384  0.3770 -0.0531
   59MOL0     C 7844   5.108   1.776   9.960  0.1878 -0.0681  0.1335
   59MOL0     C 7845   4.996   1.868  10.021 -0.5949  0.5319  0.7067
   59MOL0     C 7846   5.049   1.958  10.138 -0.1487 -0.0841 -1.0912
   59MOL0     N 7847   4.949   1.952  10.240  0.1944 -0.3168  0.0888
   59MOL0     C 7848   4.825   2.017  10.233  0.1477  0.2026  0.0327
   59MOL0     C 7849   4.765   1.988  10.350  0.5906  0.1989 -0.4160
   59MOL0     C 7850   4.639   2.046  10.416  0.1386  0.8668 -0.3141
   59MOL0     C 7851   4.550   2.130  10.324 -0.7918  0.4885  0.8437
   59MOL0     C 7852   4.405   2.151  10.379  0.1771  0.5154  0.0717
   59MOL0     C 7853   4.330   2.245  10.292  0.4184  0.3455  0.4473
   59MOL0     O 7854   4.271   2.173  10.175  0.9123 -0.4477  0.5233
   59MOL0     C 7855   4.269   2.254  10.064  0.3308 -0.0265 -0.5799
   59MOL0     C 7856   4.182   2.363  10.045  0.6477  0.1212 -0.9342
   59MOL0     C 7857   4.177   2.432   9.925  0.2263 -0.6874  0.0894
   59MOL0     C 7858   4.073   2.543   9.920 -0.3729 -0.2967  0.6443
   59MOL0     C 7859   4.277   2.399   9.828 -0.0188 -0.2709  0.1373
   59MOL0     C 7860   4.295   2.484   9.706  0.2985  0.3039  0.0111
   59MOL0     O 7861   4.214   2.592   9.684  0.5004  1.1881 -0.1588
   59MOL0     C 7862   4.205   2.651   9.562 -0.0388 -0.1978  0.4229
   59MOL0     C 7863   4.304   2.735   9.522  0.0462  0.2746 -0.7471
   59MOL0     C 7864   4.294   2.792   9.396 -0.1510 -0.4744 -0.8765
   59MOL0     C 7865   4.176   2.770   9.320 -0.6978 -0.6939 -0.3537
   59MOL0     O 7866   4.151   2.820   9.196 -0.0127  0.1779 -0.2652
   59MOL0     C 7867   4.249   2.797   9.087  0.0653  0.1118 -0.4067
   59MOL0     C 7868   4.182   2.857   8.959 -0.0088  0.1587  0.1160
   59MOL0     C 7869   4.048   2.773   8.915  0.2273  0.6566 -0.6881
   59MOL0     C 7870   3.985   2.826   8.787 -0.2688 -0.6125  0.4537
   59MOL0     C 7871   3.858   2.760   8.760  1.1272 -0.1532 -0.6364
   59MOL0     C 7872   3.808   2.772   8.618  0.4893  0.3412 -0.3848
   59MOL0     C 7873   3.702   2.661   8.578 -0.9812  0.4552  0.2895
   59MOL0     C 7874   3.684   2.647   8.425 -0.2636  0.5548 -0.1319
   59MOL0    Cl 7875   3.593   2.784   8.351 -0.2276 -0.1597 -0.0039
   59MOL0     C 7876   4.082   2.684   9.360  0.3619  0.3963 -0.6120
   59MOL0     C 7877   4.093   2.619   9.483  0.3439 -0.5362 -0.2171
   59MOL0     O 7878   4.384   2.445   9.626  0.1540  0.5905 -0.4376
   59MOL0     C 7879   4.367   2.296   9.848 -0.1320 -0.1036 -0.2932
   59MOL0     C 7880   4.349   2.218   9.960 -0.6960 -0.5662  0.5325
   59MOL0     N 7881   4.853   1.911  10.428  0.1537 -0.2553  0.2500
   59MOL0     N 7882   4.966   1.890  10.360 -0.0966  0.0090 -0.0129
   59MOL0     C 7883   5.018   1.016  10.169  0.6424  0.1068 -0.5363
   59MOL0     C 7884   5.048   0.884  10.220 -0.5662 -0.6651 -0.3068
   59MOL0     C 7885   4.990   0.426  10.328 -0.4253 -0.1834 -0.6565
   59MOL0     C 7886   5.122   0.430  10.386  0.5725 -1.1317  0.5421
   59MOL0     C 7887   5.168   0.333  10.468  0.4014 -0.0087  0.2535
   59MOL0     C 7888   5.088   0.220  10.504  0.3868 -0.7669 -0.2958
   59MOL0     O 7889   5.136   0.127  10.589  0.6795 -0.7029 -0.1964
   59MOL0     C 7890   5.048   0.058  10.690  0.2960 -0.0047  0.2513
   59MOL0     C 7891   5.120  -0.045  10.778  0.1372 -0.6011  0.0312
   59MOL0     C 7892   5.021  -0.071  10.888  1.1793 -0.1200 -0.1585
   59MOL0     C 7893   5.089  -0.171  10.985 -0.1414  0.5124  0.3229
   59MOL0     C 7894   5.087  -0.307  10.936 -1.2575  0.3754  0.4160
   59MOL0     C 7895   5.071  -0.430  10.913 -0.0164 -0.1913 -0.5577
   59MOL0     C 7896   4.950   0.218  10.455  0.1841 -0.1511 -0.1575
   59MOL0     C 7897   4.911   0.320  10.370 -0.2821 -0.0051 -0.1278
   59MOL0     H 7898   4.804   0.721  10.050 -2.2096  3.1847 -3.6846
   59MOL0     H 7899   4.759   0.929   9.974 -1.1186  0.7619  1.1451
   59MOL0     H 7900   5.130   1.168  10.003  1.1303  1.3701  1.0027
   59MOL0     H 7901   5.074   1.174   9.838 -0.5827  3.0164 -0.8231
   59MOL0     H 7902   5.109   1.393   9.884  1.2516  1.1274  1.3543
   59MOL0     H 7903   4.933   1.375   9.920  0.0534 -1.2918 -0.4368
   59MOL0     H 7904   5.003   1.344  10.166 -1.9748  0.5887 -0.3812
   59MOL0     H 7905   5.162   1.376  10.128  0.1325 -0.3338  0.2597
   59MOL0     H 7906   4.952   1.575  10.029  0.5836 -0.0434 -0.6072
   59MOL0     H 7907   5.003   1.587  10.192  1.6671  1.8127 -0.2785
   59MOL0     H 7908   5.219   1.678  10.123  1.7728 -2.1420 -0.4499
   59MOL0     H 7909   5.215   1.585   9.988  0.5443 -0.7737  1.5453
   59MOL0     H 7910   5.202   1.829   9.941  1.2524 -1.9950 -0.2333
   59MOL0     H 7911   5.067   1.740   9.865  0.2610  4.0889 -1.6898
   59MOL0     H 7912   4.960   1.932   9.939 -1.8971 -0.2370  0.6484
   59MOL0     H 7913   4.918   1.804  10.063 -1.5091  0.4554 -0.9965
   59MOL0     H 7914   5.062   2.062  10.105  1.7729 -0.4582 -1.6382
   59MOL0     H 7915   5.148   1.921  10.167 -0.1392 -0.4530 -1.5819
   59MOL0     H 7916   4.791   2.083  10.154 -1.1681 -2.1841 -1.5584
   59MOL0     H 7917   4.572   1.965  10.448  0.0450  0.5555 -1.2651
   59MOL0     H 7918   4.676   2.100  10.503  2.2981  0.1544 -0.7409
   59MOL0     H 7919   4.528   2.072  10.233 -1.7397 -0.0925  1.4319
   59MOL0     H 7920   4.602   2.223  10.298  0.4441 -0.3195  0.3379
   59MOL0     H 7921   4.409   2.189  10.481 -1.6588  0.9048  0.0354
   59MOL0     H 7922   4.343   2.061  10.383  0.8118  0.0628 -0.0404
   59MOL0     H 7923   4.400   2.320  10.255 -0.1139  0.3597 -0.5466
   59MOL0     H 7924   4.251   2.295  10.350 -0.7737 -0.2907 -0.5848
   59MOL0     H 7925   4.118   2.390  10.129  2.4055 -0.9728  0.8487
   59MOL0     H 7926   4.000   2.558  10.000 -0.3669 -0.5165  0.6909
   59MOL0     H 7927   4.134   2.634   9.922  2.0430 -1.7927 -0.3206
   59MOL0     H 7928   4.013   2.538   9.829 -2.2823  0.3840  1.8019
   59MOL0     H 7929   4.379   2.740   9.601  0.0511  1.0798 -0.7941
   59MOL0     H 7930   4.372   2.856   9.355 -0.4486 -0.1738 -0.9767
   59MOL0     H 7931   4.341   2.848   9.116  0.2288 -0.5111  0.2112
   59MOL0     H 7932   4.262   2.689   9.076 -0.0183  0.2790 -2.5368
   59MOL0     H 7933   4.158   2.963   8.968  2.4303  0.9231 -1.4870
   59MOL0     H 7934   4.261   2.851   8.883  1.3955  2.1666  1.3314
   59MOL0     H 7935   3.968   2.775   8.990 -2.9928  1.1515 -3.8663
   59MOL0     H 7936   4.069   2.669   8.889 -3.6473  0.0176 -1.8729
   59MOL0     H 7937   3.962   2.933   8.787 -1.3018 -0.7870 -1.2994
   59MOL0     H 7938   4.058   2.811   8.707 -1.3317 -1.4505 -0.3862
   59MOL0     H 7939   3.780   2.792   8.829  2.6405  2.1281  0.1001
   59MOL0     H 7940   3.873   2.653   8.779 -1.2886 -0.7064 -1.5181
   59MOL0     H 7941   3.783   2.874   8.587  3.5615  0.9565 -1.1827
   59MOL0     H 7942   3.899   2.766   8.557  1.1750 -0.7197  0.6846
   59MOL0     H 7943   3.606   2.696   8.617 -0.9199  3.8982 -2.2026
   59MOL0     H 7944   3.744   2.564   8.606 -1.5446 -0.1555 -0.9177
   59MOL0     H 7945   3.617   2.566   8.394  0.7253  0.3480 -1.8431
   59MOL0     H 7946   3.776   2.630   8.370 -0.6003  0.9663 -0.8257
   59MOL0     H 7947   3.999   2.670   9.291 -0.0109  2.3916 -0.6250
   59MOL0     H 7948   4.018   2.551   9.523 -0.7573 -0.7955 -2.5834
   59MOL0     H 7949   4.450   2.283   9.780 -0.9671  3.4432 -2.2646
   59MOL0     H 7950   4.412   2.130   9.960 -0.1167 -0.2370 -2.3321
   59MOL0     H 7951   5.082   1.096  10.203 -1.5598  1.7349 -0.0054
   59MOL0     H 7952   5.137   0.873  10.281 -0.5188 -0.4822 -0.3417
   59MOL0     H 7953   5.190   0.509  10.354  1.1465 -2.3424 -1.3501
   59MOL0     H 7954   5.271   0.344  10.500  0.5651  4.2575 -1.0705
   59MOL0     H 7955   4.990   0.125  10.754  2.0755  0.6289  1.2828
   59MOL0     H 7956   4.970   0.004  10.636  1.1582  0.4872 -1.5598
   59MOL0     H 7957   5.209   0.009  10.813  1.7980 -0.2894 -4.0736
   59MOL0     H 7958   5.144  -0.139  10.727  2.0298 -1.9350  3.1234
   59MOL0     H 7959   4.925  -0.109  10.853  0.8189 -0.4251  1.1143
   59MOL0     H 7960   5.011   0.024  10.942  0.3609 -2.1300  3.5343
   59MOL0     H 7961   5.058  -0.169  11.090 -0.2178 -2.0506  0.4096
   59MOL0     H 7962   5.194  -0.140  10.989  0.3435  0.0028 -4.0867
   59MOL0     H 7963   5.040  -0.531  10.891 -1.6361 -0.4333  2.2674
   59MOL0     H 7964   4.880   0.138  10.476  0.6223 -0.2125  1.1816
   59MOL0     H 7965   4.812   0.293  10.334  0.0099 -0.1024 -0.8850
   60MOL0     O 7966   9.130   5.925   2.704  0.3847 -0.1371  0.5245
   60MOL0     C 7967   9.252   5.911   2.698  0.3808  0.5809 -0.7151
   60MOL0     O 7968   9.323   5.839   2.611  0.5981  0.4121 -0.6468
   60MOL0     C 7969   9.246   5.799   2.507 -0.8560  0.4556  0.8432
   60MOL0     C 7970   9.198   5.893   2.415  0.4807 -0.7702 -0.0608
   60MOL0     C 7971   9.121   5.850   2.301 -0.0760 -1.2723  0.7710
   60MOL0     C 7972   9.089   5.715   2.285 -0.7407  0.3243 -0.1187
   60MOL0     O 7973   9.022   5.672   2.173 -0.0471 -0.2537 -0.1006
   60MOL0     C 7974   8.912   5.756   2.129 -0.1938  0.2506  0.3984
   60MOL0     C 7975   8.854   5.705   1.996 -0.3329  0.6570 -0.0985
   60MOL0     C 7976   8.882   5.797   1.874 -0.5724 -0.8374 -0.4071
   60MOL0     C 7977   8.806   5.746   1.753 -0.4582 -0.0226  0.5159
   60MOL0     C 7978   8.840   5.825   1.624 -0.8369  0.5489  0.1407
   60MOL0     C 7979   8.737   5.805   1.517  0.7773  0.4031 -0.3159
   60MOL0     C 7980   8.755   5.900   1.393  0.0237  0.1516 -0.0880
   60MOL0     C 7981   8.725   6.051   1.425 -0.5259  1.7350 -0.2895
   60MOL0     N 7982   8.585   6.074   1.449  0.4924  0.0854 -0.3792
   60MOL0     C 7983   8.487   6.074   1.352  0.3554  0.3568  1.0728
   60MOL0     C 7984   8.368   6.080   1.418  0.0940 -0.6574 -0.6484
   60MOL0     C 7985   8.237   6.105   1.357  1.1896 -0.3171  0.0421
   60MOL0     C 7986   8.222   6.251   1.318  0.4745 -0.0366  0.0831
   60MOL0     C 7987   8.093   6.265   1.240 -0.2583 -0.5141  0.1208
   60MOL0     C 7988   8.090   6.195   1.106  0.2219 -0.2027  0.6260
   60MOL0     O 7989   7.963   6.221   1.046 -0.3558 -0.0038  0.8135
   60MOL0     C 7990   7.960   6.218   0.906 -0.4910  0.2077  0.5809
   60MOL0     C 7991   8.062   6.275   0.825 -0.2369  0.5195 -0.4395
   60MOL0     C 7992   8.055   6.266   0.686  0.7093 -0.2443  0.2897
   60MOL0     C 7993   8.150   6.355   0.608  0.5348  1.3096 -0.0059
   60MOL0     C 7994   7.956   6.192   0.620  0.5665 -0.0315  0.1295
   60MOL0     C 7995   7.932   6.169   0.479 -0.1465 -0.3370 -0.0532
   60MOL0     O 7996   7.813   6.234   0.436  0.4268  0.8475 -0.0374
   60MOL0     C 7997   7.799   6.242   0.303 -0.3359  0.1737 -0.3719
   60MOL0     C 7998   7.731   6.145   0.238  0.1197  0.3342 -0.2916
   60MOL0     C 7999   7.717   6.146   0.097  0.7192  0.4162  0.3799
   60MOL0     C 8000   7.781   6.242   0.014  0.7531 -0.0978 -0.7396
   60MOL0     O 8001   7.788   6.217  -0.125 -0.6823 -0.4963 -0.1701
   60MOL0     C 8002   7.928   6.219  -0.171 -0.0308  0.3322 -1.0361
   60MOL0     C 8003   7.933   6.191  -0.320  0.0939 -0.1001 -1.2741
   60MOL0     C 8004   7.905   6.039  -0.354 -0.1814  0.1602  0.3304
   60MOL0     C 8005   7.828   6.014  -0.478  0.8413 -0.2924  0.6356
   60MOL0     C 8006   7.902   6.004  -0.604 -0.8975  0.4568  0.4624
   60MOL0     C 8007   7.846   5.904  -0.708  0.2959 -1.0479 -0.4058
   60MOL0     C 8008   7.931   5.902  -0.836  0.0728 -0.1970  0.5346
   60MOL0     C 8009   7.875   5.811  -0.952 -0.1299 -0.1502 -0.4946
   60MOL0    Cl 8010   7.724   5.869  -1.028  0.2972  0.1512  0.2001
   60MOL0     C 8011   7.834   6.351   0.083  0.8753 -0.0413 -1.3187
   60MOL0     C 8012   7.835   6.356   0.229 -0.3613 -0.2911 -1.1513
   60MOL0     O 8013   8.019   6.117   0.412 -0.2469  0.6618 -0.0862
   60MOL0     C 8014   7.858   6.131   0.705  0.0828  0.6409 -0.4207
   60MOL0     C 8015   7.863   6.148   0.843 -0.4403  0.6462 -0.0372
   60MOL0     N 8016   8.402   6.084   1.551  0.4452  0.4050 -1.0937
   60MOL0     N 8017   8.527   6.075   1.566  0.6921  0.4237 -0.5191
   60MOL0     C 8018   9.140   5.625   2.373 -0.3767 -0.4574  0.4572
   60MOL0     C 8019   9.214   5.666   2.488  0.1508 -0.3998 -0.2299
   60MOL0     C 8020   9.325   5.973   2.820 -0.5792 -0.6374 -0.3868
   60MOL0     C 8021   9.460   5.962   2.837 -0.0717  0.0371  0.0444
   60MOL0     C 8022   9.533   6.032   2.934 -0.7253  0.2792  0.2875
   60MOL0     C 8023   9.469   6.126   3.015 -0.6257  0.1372  0.0207
   60MOL0     O 8024   9.547   6.199   3.093  0.0623 -0.4451 -0.8603
   60MOL0     C 8025   9.486   6.301   3.177  1.0208  0.0603 -0.1347
   60MOL0     C 8026   9.590   6.369   3.268 -0.0077  0.7285  0.5739
   60MOL0     C 8027   9.681   6.279   3.340  0.0542 -0.0726  1.0626
   60MOL0     C 8028   9.781   6.358   3.429  0.4785  0.5503 -0.1168
   60MOL0     C 8029   9.838   6.268   3.529  0.1746  0.5662 -0.4406
   60MOL0     C 8030   9.881   6.178   3.603  0.5601  0.2540 -0.3885
   60MOL0     C 8031   9.332   6.130   3.007 -0.1289  0.3440  1.0952
   60MOL0     C 8032   9.262   6.050   2.911  0.1777 -0.9482 -0.9994
   60MOL0     H 8033   9.223   5.997   2.429  0.0158 -0.7399  0.6349
   60MOL0     H 8034   9.084   5.924   2.230  0.3939 -0.4605  1.3530
   60MOL0     H 8035   8.841   5.754   2.212  0.8696  0.0510  1.3314
   60MOL0     H 8036   8.938   5.859   2.104  1.2946 -0.5119 -1.4616
   60MOL0     H 8037   8.893   5.603   1.992 -4.7431 -1.2268 -0.2537
   60MOL0     H 8038   8.746   5.703   2.010 -0.5773  0.3244 -1.8462
   60MOL0     H 8039   8.859   5.900   1.899  1.1552 -1.0174  2.3960
   60MOL0     H 8040   8.990   5.801   1.852 -0.6609  3.4812 -0.8538
   60MOL0     H 8041   8.850   5.646   1.741 -0.6893 -0.8813  4.9767
   60MOL0     H 8042   8.697   5.737   1.760 -0.5793  0.4518 -0.5421
   60MOL0     H 8043   8.851   5.933   1.639 -3.7384  0.9901 -0.3700
   60MOL0     H 8044   8.934   5.783   1.586 -1.5229 -2.3972  1.4905
   60MOL0     H 8045   8.726   5.701   1.486 -1.7871  0.2091  0.9977
   60MOL0     H 8046   8.642   5.829   1.566  1.4248 -0.1360  1.2358
   60MOL0     H 8047   8.858   5.890   1.359  0.1211  4.3929 -1.6573
   60MOL0     H 8048   8.693   5.864   1.309  0.8867 -0.6855 -0.3799
   60MOL0     H 8049   8.776   6.104   1.344  3.2889 -3.0876 -1.5386
   60MOL0     H 8050   8.776   6.085   1.515 -2.1254  3.5357  0.0016
   60MOL0     H 8051   8.487   6.065   1.243  0.5410 -1.3389  1.1844
   60MOL0     H 8052   8.215   6.040   1.273 -0.0747  0.5562 -0.3344
   60MOL0     H 8053   8.172   6.091   1.445 -1.9262  4.1097 -1.1903
   60MOL0     H 8054   8.300   6.268   1.243 -0.4696  4.5876 -0.1876
   60MOL0     H 8055   8.216   6.332   1.392  0.4071  2.1257 -2.1589
   60MOL0     H 8056   8.085   6.374   1.238 -0.6437 -0.5451 -0.0146
   60MOL0     H 8057   8.002   6.236   1.293 -0.9659  1.4708  0.0919
   60MOL0     H 8058   8.105   6.086   1.108  2.7472 -0.1647 -3.4705
   60MOL0     H 8059   8.181   6.238   1.063  0.2216  2.0746  2.6900
   60MOL0     H 8060   8.136   6.340   0.872 -0.0130  0.0813 -0.1792
   60MOL0     H 8061   8.244   6.358   0.662  1.5259  2.3592 -1.6764
   60MOL0     H 8062   8.178   6.315   0.510  2.1291  4.7938 -1.1297
   60MOL0     H 8063   8.116   6.459   0.604  1.2801  1.6114  1.2062
   60MOL0     H 8064   7.683   6.067   0.296 -1.5945  1.3913 -0.1912
   60MOL0     H 8065   7.650   6.069   0.062  2.0950 -1.2712  1.2904
   60MOL0     H 8066   7.986   6.306  -0.139 -2.3923  1.5433  0.1529
   60MOL0     H 8067   7.966   6.134  -0.114 -0.1399  1.1050  0.2231
   60MOL0     H 8068   7.855   6.248  -0.372 -1.0175 -2.5849 -2.4808
   60MOL0     H 8069   8.030   6.222  -0.362 -0.2886  2.5798 -0.3642
   60MOL0     H 8070   7.850   5.995  -0.271  2.1101 -1.1926  1.2417
   60MOL0     H 8071   8.000   5.985  -0.366 -0.3086  0.1135 -0.5261
   60MOL0     H 8072   7.771   5.921  -0.469  0.0291  0.1621  0.2869
   60MOL0     H 8073   7.754   6.094  -0.479 -0.5189 -1.4932  1.5924
   60MOL0     H 8074   8.003   5.964  -0.594 -2.2836 -3.2162  1.4357
   60MOL0     H 8075   7.905   6.100  -0.656  0.2206  0.5495  0.6901
   60MOL0     H 8076   7.841   5.808  -0.655 -1.4128 -1.3215 -0.9932
   60MOL0     H 8077   7.743   5.930  -0.732  0.5835  2.8490  1.7324
   60MOL0     H 8078   8.039   5.887  -0.832  0.2471 -0.4069 -2.4729
   60MOL0     H 8079   7.920   6.005  -0.870 -1.8544 -0.8942 -1.1870
   60MOL0     H 8080   7.855   5.712  -0.910  1.2365 -0.9886 -1.7430
   60MOL0     H 8081   7.952   5.816  -1.029 -2.5833  0.5154 -3.0429
   60MOL0     H 8082   7.875   6.441   0.040  0.8533  1.4851  1.6552
   60MOL0     H 8083   7.889   6.427   0.290 -4.9365  1.8629  0.9427
   60MOL0     H 8084   7.773   6.081   0.660 -1.2877  1.6231  0.9898
   60MOL0     H 8085   7.782   6.099   0.896 -0.0577 -0.5087 -0.5046
   60MOL0     H 8086   9.117   5.521   2.355  2.4370 -0.8905 -1.1932
   60MOL0     H 8087   9.245   5.596   2.565  1.0069 -1.9851 -1.9434
   60MOL0     H 8088   9.513   5.906   2.761  1.9447  2.1835 -0.2477
   60MOL0     H 8089   9.641   6.028   2.927 -0.8090  0.4894 -2.4309
   60MOL0     H 8090   9.423   6.365   3.115  0.5887  0.7911  1.0288
   60MOL0     H 8091   9.416   6.261   3.250 -0.4268  0.4629 -1.2599
   60MOL0     H 8092   9.548   6.437   3.344 -1.3374 -2.6178  3.1339
   60MOL0     H 8093   9.661   6.426   3.208 -1.6068  0.4119 -1.7370
   60MOL0     H 8094   9.744   6.226   3.269 -0.6435 -3.5456  2.8552
   60MOL0     H 8095   9.623   6.204   3.395 -2.2234 -0.7772 -1.9778
   60MOL0     H 8096   9.735   6.450   3.465 -0.4157  0.9721 -2.2128
   60MOL0     H 8097   9.867   6.386   3.367  0.4569 -0.6015 -0.7034
   60MOL0     H 8098   9.920   6.103   3.668  0.8675 -0.3990 -1.3133
   60MOL0     H 8099   9.270   6.190   3.073 -2.7067  1.9400 -2.4468
   60MOL0     H 8100   9.154   6.060   2.902  0.4663  2.6992 -1.8667
   61MOL0     O 8101   2.004  10.392   2.024 -0.3457  0.1281 -0.3736
   61MOL0     C 8102   1.955  10.346   2.127  0.4154  0.5923 -0.0001
   61MOL0     O 8103   1.974  10.398   2.254  0.3153  0.1646  0.3742
   61MOL0     C 8104   2.074  10.495   2.271 -0.9595  0.0829 -0.6017
   61MOL0     C 8105   2.164  10.478   2.380 -0.3536 -0.7840 -0.0407
   61MOL0     C 8106   2.269  10.566   2.409  0.6332 -1.0716 -1.3252
   61MOL0     C 8107   2.302  10.677   2.335 -0.5243  0.2693  0.7340
   61MOL0     O 8108   2.419  10.754   2.329 -0.3994  0.4315  0.0470
   61MOL0     C 8109   2.497  10.761   2.451  0.1729 -0.2900 -0.2920
   61MOL0     C 8110   2.639  10.771   2.403 -0.5864  0.6028 -0.0044
   61MOL0     C 8111   2.764  10.798   2.491 -0.0496 -0.6559 -0.1683
   61MOL0     C 8112   2.885  10.822   2.408 -0.8932 -0.6099 -0.2677
   61MOL0     C 8113   3.002  10.882   2.482 -0.4233  0.1309 -0.3508
   61MOL0     C 8114   3.112  10.938   2.386 -0.2325 -0.4682 -0.2263
   61MOL0     C 8115   3.212  11.028   2.464 -0.5052  0.4080  0.0507
   61MOL0     C 8116   3.298  10.950   2.558 -0.0873 -0.8597 -0.7645
   61MOL0     N 8117   3.407  11.038   2.596  0.0834  0.1614  0.7467
   61MOL0     C 8118   3.537  11.041   2.547 -0.5529 -1.0951 -0.4783
   61MOL0     C 8119   3.590  11.137   2.627 -0.7147 -0.0315 -0.0800
   61MOL0     C 8120   3.732  11.181   2.628 -0.2901  1.0056 -0.1597
   61MOL0     C 8121   3.777  11.186   2.773 -0.3348  0.1310  0.9054
   61MOL0     C 8122   3.931  11.167   2.794  0.3890 -0.0641 -0.5322
   61MOL0     C 8123   4.012  11.285   2.758  0.8929 -0.0082 -0.2589
   61MOL0     O 8124   3.957  11.396   2.823 -0.1467 -0.2944 -0.3573
   61MOL0     C 8125   3.955  11.397   2.961 -0.8374 -0.0511 -0.1364
   61MOL0     C 8126   3.843  11.449   3.025 -0.1874 -0.3729 -0.2239
   61MOL0     C 8127   3.817  11.438   3.164  0.2727 -0.7855 -0.4557
   61MOL0     C 8128   3.680  11.482   3.215  0.2719  0.5922  0.0514
   61MOL0     C 8129   3.919  11.391   3.252 -0.6833  0.4887  0.0880
   61MOL0     C 8130   3.920  11.382   3.400  0.1104 -1.6343 -0.4726
   61MOL0     O 8131   4.040  11.332   3.450 -0.5436  0.0488 -0.2598
   61MOL0     C 8132   4.039  11.239   3.554  0.6197  0.3411  0.4677
   61MOL0     C 8133   4.109  11.112   3.540  0.5974  0.3106  0.5401
   61MOL0     C 8134   4.124  11.033   3.658 -0.5546 -0.3708 -1.1258
   61MOL0     C 8135   4.076  11.069   3.784 -0.3932  0.5219  0.5243
   61MOL0     O 8136   4.074  10.967   3.884 -0.6753 -0.6561 -0.0042
   61MOL0     C 8137   4.083  11.015   4.020 -0.2246 -0.3795  1.0185
   61MOL0     C 8138   3.945  11.006   4.080 -0.1351 -0.2874 -0.3663
   61MOL0     C 8139   3.950  11.047   4.231 -0.2398  0.6480 -0.0925
   61MOL0     C 8140   3.804  11.052   4.292  0.0044  0.0773  0.1646
   61MOL0     C 8141   3.790  11.089   4.441 -0.2694  0.2620 -0.0316
   61MOL0     C 8142   3.862  10.991   4.540  0.7193  0.2109  0.8042
   61MOL0     C 8143   3.801  10.846   4.546 -0.6736 -0.2141 -0.5380
   61MOL0     C 8144   3.741  10.809   4.683  0.5978 -0.9580  0.4445
   61MOL0    Cl 8145   3.861  10.777   4.809 -0.3015 -0.2506 -0.0363
   61MOL0     C 8146   4.010  11.194   3.799 -0.0379 -0.4926 -0.1155
   61MOL0     C 8147   3.981  11.269   3.683  0.2057  0.3010 -0.3954
   61MOL0     O 8148   3.817  11.412   3.466  0.4727  0.4051  0.7747
   61MOL0     C 8149   4.032  11.339   3.184  0.9479  0.8791 -0.5922
   61MOL0     C 8150   4.055  11.353   3.048 -0.4926  0.3122 -0.1177
   61MOL0     N 8151   3.503  11.196   2.708 -0.2030 -0.4834  0.5272
   61MOL0     N 8152   3.393  11.133   2.694 -1.0436  0.4262 -0.1307
   61MOL0     C 8153   2.207  10.689   2.227 -0.8201 -0.0541  0.4344
   61MOL0     C 8154   2.094  10.613   2.201  0.9945 -0.2784 -0.4896
   61MOL0     C 8155   1.873  10.225   2.106  0.8170 -0.1331 -0.6564
   61MOL0     C 8156   1.862  10.143   1.990 -0.5890  0.1836 -0.0634
   61MOL0     C 8157   1.778  10.032   1.979 -0.8351 -0.2645 -0.5713
   61MOL0     C 8158   1.699   9.996   2.093 -0.4369  0.1896 -0.7459
   61MOL0     O 8159   1.631   9.880   2.110  0.0833  0.0535  0.5153
   61MOL0     C 8160   1.532   9.841   2.010  1.0499 -0.9555  0.7419
   61MOL0     C 8161   1.422   9.933   1.958  0.2805 -0.3601 -0.1296
   61MOL0     C 8162   1.475  10.048   1.866  0.1366 -0.7051  0.2483
   61MOL0     C 8163   1.359  10.100   1.799  0.8206 -0.1851 -0.3189
   61MOL0     C 8164   1.398  10.208   1.705  0.8520 -0.0377 -0.5937
   61MOL0     C 8165   1.417  10.291   1.620  0.4544  0.8832 -0.2450
   61MOL0     C 8166   1.700  10.079   2.207 -0.0896  0.0893  0.6878
   61MOL0     C 8167   1.781  10.196   2.209  0.7167  0.8436  0.3282
   61MOL0     H 8168   2.161  10.388   2.441  4.9215 -0.3523  1.3412
   61MOL0     H 8169   2.318  10.535   2.500 -0.1708  1.9413  0.2827
   61MOL0     H 8170   2.461  10.848   2.506  0.3437  0.8008 -1.8603
   61MOL0     H 8171   2.495  10.671   2.514  1.0503  0.8611  1.4669
   61MOL0     H 8172   2.650  10.677   2.349 -1.8427  0.0490  0.6563
   61MOL0     H 8173   2.640  10.849   2.327 -2.1367  1.0877  0.4341
   61MOL0     H 8174   2.744  10.892   2.543  1.8193 -0.6938  0.6794
   61MOL0     H 8175   2.774  10.725   2.572  2.0332  1.3274  1.5080
   61MOL0     H 8176   2.916  10.727   2.364 -1.1935 -1.5175  1.3755
   61MOL0     H 8177   2.866  10.891   2.326 -0.8762  0.4302  0.5735
   61MOL0     H 8178   2.970  10.970   2.539  1.1029 -0.0449  0.8658
   61MOL0     H 8179   3.058  10.823   2.555  0.0045  0.3017 -0.5363
   61MOL0     H 8180   3.158  10.855   2.333  3.6887 -0.0291  2.1362
   61MOL0     H 8181   3.067  11.011   2.318  2.4164  0.3475 -1.2098
   61MOL0     H 8182   3.285  11.060   2.388 -1.4476 -3.1640 -2.6302
   61MOL0     H 8183   3.164  11.114   2.511  0.1589  2.2376 -2.3834
   61MOL0     H 8184   3.339  10.861   2.509 -1.0305 -2.0073  0.4611
   61MOL0     H 8185   3.238  10.919   2.644  0.4966  0.9915  0.3592
   61MOL0     H 8186   3.585  10.975   2.476  2.4077  0.6732 -0.2445
   61MOL0     H 8187   3.788  11.106   2.573 -1.5077  0.2844 -0.4471
   61MOL0     H 8188   3.771  11.278   2.596  2.4376  0.3139  0.7558
   61MOL0     H 8189   3.735  11.101   2.829  2.6431 -0.9624  1.6593
   61MOL0     H 8190   3.743  11.277   2.823  0.5830 -0.5606  2.9095
   61MOL0     H 8191   3.970  11.091   2.726 -0.0878 -0.2972 -0.5522
   61MOL0     H 8192   3.954  11.137   2.896  2.5631 -0.5522 -1.1297
   61MOL0     H 8193   3.993  11.298   2.651  1.0667 -0.6937 -0.3780
   61MOL0     H 8194   4.119  11.265   2.771  0.4795 -1.4761  1.1384
   61MOL0     H 8195   3.754  11.479   2.971 -2.0076 -0.0225  2.7586
   61MOL0     H 8196   3.610  11.498   3.132  0.4933  0.2692 -0.1994
   61MOL0     H 8197   3.634  11.416   3.289 -0.4215  0.1204 -0.7819
   61MOL0     H 8198   3.684  11.584   3.254 -1.6482  1.1519 -1.0532
   61MOL0     H 8199   4.157  11.065   3.455 -0.6674  2.7019 -1.6033
   61MOL0     H 8200   4.189  10.946   3.669 -0.6688 -0.1580  1.8930
   61MOL0     H 8201   4.162  10.963   4.075 -1.1912 -3.2556 -0.1267
   61MOL0     H 8202   4.111  11.121   4.023 -0.0533 -0.2781 -1.6988
   61MOL0     H 8203   3.887  11.084   4.030  1.1604  0.2181 -1.1408
   61MOL0     H 8204   3.908  10.905   4.057 -0.6782 -0.3668  0.8142
   61MOL0     H 8205   4.015  11.130   4.257  1.1818 -1.2503  2.9134
   61MOL0     H 8206   3.996  10.969   4.293 -2.4271  0.3723  1.3140
   61MOL0     H 8207   3.739  11.123   4.240  0.1895 -1.3235 -2.0978
   61MOL0     H 8208   3.755  10.956   4.276 -3.3849  1.2994  2.1186
   61MOL0     H 8209   3.684  11.092   4.471 -0.6499  1.6895 -1.3819
   61MOL0     H 8210   3.828  11.189   4.463  1.7972 -0.9293  2.2907
   61MOL0     H 8211   3.967  10.978   4.509  0.0507 -2.9954 -0.5763
   61MOL0     H 8212   3.859  11.029   4.642 -1.1726 -2.7977  1.9989
   61MOL0     H 8213   3.868  10.766   4.513 -1.7645 -0.2649 -2.8304
   61MOL0     H 8214   3.738  10.835   4.458 -1.3889 -0.1052 -0.0521
   61MOL0     H 8215   3.676  10.724   4.659 -1.2866  0.5541  0.0192
   61MOL0     H 8216   3.685  10.894   4.723  0.0469 -2.4209  3.0024
   61MOL0     H 8217   3.985  11.246   3.892  1.6723  2.8707 -1.3924
   61MOL0     H 8218   3.929  11.362   3.698  0.1500  0.0435  1.1373
   61MOL0     H 8219   4.108  11.288   3.243  1.5448  1.3993 -0.8970
   61MOL0     H 8220   4.138  11.317   2.987 -1.5050 -0.1776 -1.2473
   61MOL0     H 8221   2.222  10.771   2.158 -0.7565 -0.5034 -0.0915
   61MOL0     H 8222   2.032  10.632   2.114 -1.5344  0.2216  1.3020
   61MOL0     H 8223   1.934  10.167   1.912  0.0021  3.2974  1.2917
   61MOL0     H 8224   1.776   9.974   1.888  1.8680 -0.3841 -0.6161
   61MOL0     H 8225   1.580   9.808   1.918  0.7664 -0.0867  0.2668
   61MOL0     H 8226   1.483   9.752   2.050 -1.5774  0.9379  2.0031
   61MOL0     H 8227   1.366   9.979   2.040  0.4321  2.6243 -1.5665
   61MOL0     H 8228   1.350   9.870   1.907  0.2255 -0.1917 -0.2636
   61MOL0     H 8229   1.552  10.010   1.798  2.0326  3.4969 -0.2596
   61MOL0     H 8230   1.517  10.131   1.922 -1.9529 -0.3883  1.4698
   61MOL0     H 8231   1.282  10.142   1.865 -0.0120 -1.1927 -0.6191
   61MOL0     H 8232   1.297  10.022   1.754 -3.8377  2.1662  1.3735
   61MOL0     H 8233   1.408  10.360   1.538 -0.9739 -1.9217 -2.6491
   61MOL0     H 8234   1.638  10.049   2.290  0.7347  0.7022  1.5537
   61MOL0     H 8235   1.770  10.257   2.298  0.2878 -1.1302  1.7146
   62MOL0     O 8236   7.094  10.697   7.782  0.7436  0.1925  0.4290
   62MOL0     C 8237   7.065  10.690   7.897 -0.3611  0.5358 -0.1411
   62MOL0     O 8238   6.970  10.767   7.955 -0.2766  0.7831 -0.2160
   62MOL0     C 8239   6.895  10.856   7.865 -0.6645  0.2423 -0.1660
   62MOL0     C 8240   6.945  10.968   7.806 -0.2477 -0.3957  0.0929
   62MOL0     C 8241   6.880  11.052   7.723 -0.6147 -0.4826 -0.0985
   62MOL0     C 8242   6.750  11.015   7.686  0.5788  0.3870  0.6738
   62MOL0     O 8243   6.683  11.109   7.609 -0.0273  0.3208 -1.1908
   62MOL0     C 8244   6.542  11.122   7.652 -1.0201 -0.3864 -0.7849
   62MOL0     C 8245   6.486  11.226   7.563  0.4155 -0.0753 -0.0819
   62MOL0     C 8246   6.336  11.249   7.583  0.3600 -0.0545 -0.1955
   62MOL0     C 8247   6.289  11.388   7.520  0.0616  0.1979  0.2535
   62MOL0     C 8248   6.136  11.392   7.524 -0.3463 -0.2995 -0.5880
   62MOL0     C 8249   6.090  11.530   7.489 -0.0164 -0.5142 -0.4963
   62MOL0     C 8250   5.937  11.547   7.531  0.0603  0.2491 -0.5753
   62MOL0     C 8251   5.846  11.495   7.427 -0.5822  0.0126  0.3143
   62MOL0     N 8252   5.710  11.518   7.474  0.6446 -0.6110  0.1473
   62MOL0     C 8253   5.635  11.431   7.551  0.0594  0.0230  0.9143
   62MOL0     C 8254   5.509  11.471   7.533 -0.0326 -0.0667  0.5999
   62MOL0     C 8255   5.391  11.402   7.600 -0.4185  0.2036  0.2165
   62MOL0     C 8256   5.300  11.504   7.651 -0.6528  0.5982 -0.1297
   62MOL0     C 8257   5.346  11.579   7.777  0.2700  0.2690  1.2282
   62MOL0     C 8258   5.247  11.684   7.824 -0.3071 -0.1329  0.5395
   62MOL0     O 8259   5.112  11.627   7.832 -0.3340  0.6545 -0.5598
   62MOL0     C 8260   5.014  11.676   7.911 -0.4220  0.3686 -1.3750
   62MOL0     C 8261   5.028  11.793   7.978 -0.1931 -1.0520 -0.0406
   62MOL0     C 8262   4.936  11.849   8.057  0.4483 -0.4918 -0.2789
   62MOL0     C 8263   4.961  11.986   8.098  0.7226 -0.5432 -0.2827
   62MOL0     C 8264   4.817  11.781   8.080  0.9651  0.5682 -0.0302
   62MOL0     C 8265   4.716  11.838   8.176  0.2244 -0.0273  0.6269
   62MOL0     O 8266   4.593  11.802   8.157  0.4059  0.2495  0.8799
   62MOL0     C 8267   4.493  11.837   8.241 -0.7245  0.4335  0.1864
   62MOL0     C 8268   4.437  11.965   8.242  0.3369 -0.1911 -0.6645
   62MOL0     C 8269   4.338  11.992   8.339 -0.4371 -0.0451  0.1357
   62MOL0     C 8270   4.278  11.895   8.418  0.3107  0.4361  0.6842
   62MOL0     O 8271   4.165  11.920   8.489  0.2758  0.4889  0.7298
   62MOL0     C 8272   4.150  11.860   8.618 -1.1438  0.3150 -0.0563
   62MOL0     C 8273   4.031  11.887   8.688 -0.7115 -0.0034  0.7205
   62MOL0     C 8274   4.029  11.849   8.833 -0.3181  0.4121  0.1279
   62MOL0     C 8275   3.964  11.698   8.846 -0.2054  0.1014  0.5901
   62MOL0     C 8276   3.959  11.667   8.999 -0.0080  0.1921  0.4651
   62MOL0     C 8277   3.887  11.526   9.015 -0.2078 -0.0753  0.9757
   62MOL0     C 8278   3.892  11.463   9.149  0.1635 -0.7194  0.0881
   62MOL0     C 8279   3.828  11.327   9.151  0.2800  0.0381 -1.0168
   62MOL0    Cl 8280   3.879  11.229   9.309  0.0299  0.2580  0.0651
   62MOL0     C 8281   4.332  11.762   8.409  0.3092  0.0138 -0.9546
   62MOL0     C 8282   4.436  11.727   8.315 -0.2591 -0.5743 -0.2363
   62MOL0     O 8283   4.759  11.882   8.286 -0.8168  0.2638 -0.7172
   62MOL0     C 8284   4.799  11.657   8.010 -0.1441  0.1277  0.8156
   62MOL0     C 8285   4.898  11.601   7.933  0.9234  0.1122 -0.3407
   62MOL0     N 8286   5.509  11.578   7.441  0.4374  0.1923 -0.3339
   62MOL0     N 8287   5.627  11.613   7.413 -0.0701  0.3063 -0.1237
   62MOL0     C 8288   6.693  10.901   7.743  0.0753 -0.6188 -0.0092
   62MOL0     C 8289   6.764  10.817   7.835 -0.5251  0.1361  0.3206
   62MOL0     C 8290   7.146  10.601   7.986 -0.0001  0.3318  0.5906
   62MOL0     C 8291   7.118  10.594   8.123 -0.8408  0.6533  0.4599
   62MOL0     C 8292   7.198  10.501   8.203  0.7233  0.5503  0.4458
   62MOL0     C 8293   7.312  10.431   8.144 -0.1149 -0.2530 -0.2044
   62MOL0     O 8294   7.385  10.333   8.204  0.4387 -0.0390 -0.5370
   62MOL0     C 8295   7.522  10.347   8.179 -0.5490  0.2629 -0.2388
   62MOL0     C 8296   7.611  10.249   8.277 -0.0397  0.2588 -0.3291
   62MOL0     C 8297   7.594  10.100   8.251 -0.4352 -0.4256  0.5754
   62MOL0     C 8298   7.669  10.044   8.128  0.5395 -0.3438  0.0432
   62MOL0     C 8299   7.690   9.897   8.140  0.3250 -0.2180 -0.7471
   62MOL0     C 8300   7.688   9.777   8.164 -0.5790 -0.6383  1.0740
   62MOL0     C 8301   7.333  10.456   8.008  0.0908 -0.5800  0.5108
   62MOL0     C 8302   7.249  10.533   7.926  0.3064 -0.3774 -0.4226
   62MOL0     H 8303   7.047  11.001   7.825  0.0860 -1.8766  1.0452
   62MOL0     H 8304   6.923  11.142   7.680  3.2375 -1.8278  0.5710
   62MOL0     H 8305   6.493  11.029   7.619 -1.6599 -0.2750 -0.1730
   62MOL0     H 8306   6.541  11.151   7.757  0.8224 -0.8498 -0.6006
   62MOL0     H 8307   6.544  11.314   7.591  3.1851 -1.1855 -1.8491
   62MOL0     H 8308   6.524  11.195   7.465  2.5850  2.8197 -0.2950
   62MOL0     H 8309   6.276  11.168   7.540  0.5473  0.8873 -2.3852
   62MOL0     H 8310   6.308  11.259   7.688  1.7852  0.6937  0.1394
   62MOL0     H 8311   6.333  11.453   7.597  0.1219  0.1165  0.2884
   62MOL0     H 8312   6.325  11.400   7.418  1.3383 -0.7571  0.5615
   62MOL0     H 8313   6.094  11.316   7.458 -1.1441 -1.0952  0.7808
   62MOL0     H 8314   6.108  11.360   7.625 -1.5566  0.4953 -0.6641
   62MOL0     H 8315   6.137  11.607   7.550 -2.0314  0.7560 -0.4509
   62MOL0     H 8316   6.114  11.553   7.385  1.1099  1.1405  0.0922
   62MOL0     H 8317   5.913  11.503   7.628 -3.2146  1.1995 -0.8358
   62MOL0     H 8318   5.915  11.654   7.534  0.8145  0.4156  2.3834
   62MOL0     H 8319   5.863  11.393   7.391  0.1331  0.7858 -1.6617
   62MOL0     H 8320   5.869  11.548   7.334 -1.6561 -3.4970 -2.1741
   62MOL0     H 8321   5.676  11.349   7.610 -0.6956 -1.7177 -0.8800
   62MOL0     H 8322   5.347  11.342   7.521  1.8066 -0.9024 -0.2671
   62MOL0     H 8323   5.425  11.334   7.679 -0.8357  1.3472  1.4374
   62MOL0     H 8324   5.204  11.459   7.680  1.2400 -1.1431  4.3254
   62MOL0     H 8325   5.283  11.570   7.566 -1.7132 -1.8717 -1.9731
   62MOL0     H 8326   5.447  11.620   7.772  0.0769  0.7335 -3.7946
   62MOL0     H 8327   5.350  11.505   7.857 -1.8963 -0.1472  0.9992
   62MOL0     H 8328   5.244  11.772   7.759  0.0896  1.2416  2.2938
   62MOL0     H 8329   5.280  11.710   7.925  2.5414 -2.1810  0.2579
   62MOL0     H 8330   5.122  11.846   7.962 -0.8043 -0.0085 -0.2049
   62MOL0     H 8331   4.868  12.038   8.123  2.1876  1.6317  1.0431
   62MOL0     H 8332   5.016  11.979   8.193  0.2831  0.2424  0.0404
   62MOL0     H 8333   5.033  12.041   8.036  2.1632 -1.6773  0.3334
   62MOL0     H 8334   4.460  12.053   8.183 -2.5665  2.0301  1.2520
   62MOL0     H 8335   4.291  12.090   8.336 -2.1917 -0.7727 -4.3430
   62MOL0     H 8336   4.146  11.751   8.616  2.4589  0.0506 -0.5352
   62MOL0     H 8337   4.243  11.886   8.670 -0.3482 -2.3700 -0.0133
   62MOL0     H 8338   4.018  11.996   8.687 -1.6391 -0.0713 -1.9602
   62MOL0     H 8339   3.955  11.835   8.630  1.4570  0.0183 -2.3443
   62MOL0     H 8340   3.978  11.921   8.897 -0.1638 -0.8133  1.7094
   62MOL0     H 8341   4.131  11.856   8.869  1.6380  0.8212 -4.7145
   62MOL0     H 8342   3.865  11.697   8.800 -0.8146  0.0864  1.8431
   62MOL0     H 8343   4.026  11.628   8.789 -0.2000 -0.7917  1.6450
   62MOL0     H 8344   3.912  11.742   9.063  0.1098 -0.8394  1.7962
   62MOL0     H 8345   4.065  11.653   9.019  0.2998 -0.1532 -1.2645
   62MOL0     H 8346   3.787  11.550   8.977 -1.0528 -1.3444  2.3027
   62MOL0     H 8347   3.931  11.448   8.952  1.3432  3.1130 -2.1704
   62MOL0     H 8348   3.844  11.537   9.213 -1.1252 -1.3576 -0.1106
   62MOL0     H 8349   3.996  11.448   9.178  0.5912 -2.1936 -1.9373
   62MOL0     H 8350   3.850  11.262   9.066  1.9758  0.3203 -0.8391
   62MOL0     H 8351   3.722  11.351   9.163  0.5522  1.1013 -0.6575
   62MOL0     H 8352   4.293  11.687   8.477 -1.9342  0.3204 -1.8289
   62MOL0     H 8353   4.477  11.627   8.319  3.0470  0.6789  2.2478
   62MOL0     H 8354   4.709  11.597   8.021  0.4826 -1.5518 -2.0922
   62MOL0     H 8355   4.882  11.506   7.883 -0.2238  1.4907 -2.7862
   62MOL0     H 8356   6.586  10.887   7.729 -0.4329  3.4492 -1.5572
   62MOL0     H 8357   6.713  10.736   7.886 -0.0611 -0.7128 -0.5339
   62MOL0     H 8358   7.028  10.640   8.163 -2.3573 -2.2530  0.6845
   62MOL0     H 8359   7.168  10.468   8.302  0.4832  3.7018  1.5549
   62MOL0     H 8360   7.555  10.315   8.080  0.8287 -2.2228  0.9274
   62MOL0     H 8361   7.546  10.452   8.202 -1.2195 -0.1973  2.9431
   62MOL0     H 8362   7.586  10.264   8.383  0.8921  0.0925 -0.0740
   62MOL0     H 8363   7.717  10.270   8.260 -0.2728  1.1367 -0.7506
   62MOL0     H 8364   7.487  10.082   8.252 -1.1373  2.8527 -0.7719
   62MOL0     H 8365   7.648  10.045   8.328  3.1086  0.5722 -0.9780
   62MOL0     H 8366   7.761  10.103   8.126 -0.2372  1.2058  3.1649
   62MOL0     H 8367   7.615  10.071   8.037  3.4208  2.7305 -0.9782
   62MOL0     H 8368   7.702   9.674   8.188  1.2421 -1.6238 -3.1922
   62MOL0     H 8369   7.425  10.424   7.960  0.4308  1.4820 -0.3415
   62MOL0     H 8370   7.274  10.538   7.821  2.3941 -0.7402  0.0051
   63MOL0     O 8371   6.347   6.583   0.885  0.0311  0.1581 -0.6995
   63MOL0     C 8372   6.258   6.661   0.870 -0.2546 -0.2854  0.1134
   63MOL0     O 8373   6.176   6.670   0.766 -0.0810  0.4188  0.1412
   63MOL0     C 8374   6.176   6.585   0.652  0.0819  0.0667 -0.1442
   63MOL0     C 8375   6.284   6.500   0.615 -0.1022 -0.4994 -0.5306
   63MOL0     C 8376   6.280   6.435   0.501  0.1203  1.0482  0.2695
   63MOL0     C 8377   6.176   6.448   0.409  0.0406 -0.5372 -0.7374
   63MOL0     O 8378   6.182   6.391   0.280 -1.1148  0.9192  0.2362
   63MOL0     C 8379   6.065   6.377   0.194 -0.2121  0.0753  0.1611
   63MOL0     C 8380   6.086   6.325   0.057 -0.6599  0.6369  0.2019
   63MOL0     C 8381   6.045   6.176   0.043  0.0325 -0.0870  0.2612
   63MOL0     C 8382   6.150   6.078   0.104 -0.2064  0.2363 -1.1945
   63MOL0     C 8383   6.083   5.941   0.136 -0.7784 -0.1164 -0.6099
   63MOL0     C 8384   6.076   5.862   0.009  0.4686  0.0823 -0.2515
   63MOL0     C 8385   6.005   5.726   0.040  0.0444 -0.8710  0.3000
   63MOL0     C 8386   5.962   5.645  -0.096 -0.2944  0.8869 -0.2202
   63MOL0     N 8387   6.076   5.593  -0.163  0.2384  0.7419  0.3864
   63MOL0     C 8388   6.191   5.524  -0.120  0.3867  0.3844 -0.2693
   63MOL0     C 8389   6.276   5.524  -0.233  0.8490  0.3989 -1.0616
   63MOL0     C 8390   6.417   5.465  -0.217  0.1810 -0.6714  0.1030
   63MOL0     C 8391   6.419   5.317  -0.275  0.6722 -0.8668 -0.4585
   63MOL0     C 8392   6.555   5.244  -0.244  0.4473 -0.1782  0.3462
   63MOL0     C 8393   6.545   5.086  -0.223  0.5700  0.3218 -0.0430
   63MOL0     O 8394   6.437   5.039  -0.141 -0.6194  0.2921 -0.2515
   63MOL0     C 8395   6.452   5.064  -0.006  0.5521  0.1088 -0.7148
   63MOL0     C 8396   6.348   5.134   0.048 -0.3836  0.3100 -0.1167
   63MOL0     C 8397   6.333   5.159   0.184  0.1627  0.2921 -1.0657
   63MOL0     C 8398   6.195   5.224   0.216 -0.1592  0.0484  0.7874
   63MOL0     C 8399   6.431   5.122   0.278 -0.8681  0.3698  0.9259
   63MOL0     C 8400   6.426   5.154   0.425 -0.1115  0.6109  0.6839
   63MOL0     O 8401   6.544   5.177   0.494 -0.1087 -0.0606  1.1606
   63MOL0     C 8402   6.549   5.187   0.637 -1.2019 -0.6512  0.8101
   63MOL0     C 8403   6.616   5.292   0.715  0.1057 -0.1388  1.0634
   63MOL0     C 8404   6.605   5.285   0.854 -0.1324  0.5620 -0.7282
   63MOL0     C 8405   6.529   5.188   0.920 -0.1798 -0.0176 -0.1580
   63MOL0     O 8406   6.507   5.176   1.058 -0.4141 -0.2528  0.2901
   63MOL0     C 8407   6.460   5.286   1.131  0.2759 -1.2964  0.0018
   63MOL0     C 8408   6.442   5.244   1.276 -0.0553 -0.0509  0.1751
   63MOL0     C 8409   6.344   5.338   1.344 -0.9604 -0.2687 -0.7952
   63MOL0     C 8410   6.359   5.327   1.496 -0.0573 -0.2047  0.2502
   63MOL0     C 8411   6.263   5.430   1.554 -0.0620 -0.3305  0.0347
   63MOL0     C 8412   6.251   5.417   1.709  0.0926  0.2776  0.0137
   63MOL0     C 8413   6.136   5.506   1.764 -0.1057 -0.0757 -0.2589
   63MOL0     C 8414   6.173   5.520   1.910  0.1371 -0.1434  0.0967
   63MOL0    Cl 8415   6.313   5.636   1.927 -0.5563  0.3723  0.1095
   63MOL0     C 8416   6.463   5.089   0.845  0.3226 -0.7511  0.8688
   63MOL0     C 8417   6.481   5.083   0.700  0.3473  0.1581 -0.0749
   63MOL0     O 8418   6.311   5.149   0.474 -0.3879  0.0404  0.4729
   63MOL0     C 8419   6.544   5.056   0.225  0.2743  0.6061  0.3629
   63MOL0     C 8420   6.555   5.027   0.086 -0.3267  0.3152 -0.2310
   63MOL0     N 8421   6.209   5.579  -0.348  0.2333 -0.1272 -0.6216
   63MOL0     N 8422   6.088   5.616  -0.297  0.5267 -0.1163 -0.5393
   63MOL0     C 8423   6.056   6.520   0.452  0.6339  0.1546  1.0028
   63MOL0     C 8424   6.061   6.585   0.570 -0.0408  0.8223  0.6410
   63MOL0     C 8425   6.221   6.777   0.968 -0.6839  1.0694 -0.4912
   63MOL0     C 8426   6.132   6.878   0.935 -1.1484 -0.1236  0.3217
   63MOL0     C 8427   6.097   6.977   1.027 -0.1231 -0.4899 -0.6022
   63MOL0     C 8428   6.133   6.964   1.165 -0.6652 -0.1941 -0.1622
   63MOL0     O 8429   6.094   7.059   1.249  0.9086 -0.1232  0.6398
   63MOL0     C 8430   6.031   7.009   1.370 -1.3748 -0.0962 -0.1254
   63MOL0     C 8431   5.884   6.968   1.364  0.6355 -0.3937  0.4641
   63MOL0     C 8432   5.864   6.814   1.317  0.6874  0.5329 -0.3843
   63MOL0     C 8433   5.883   6.701   1.406 -0.5166  0.6578 -1.6210
   63MOL0     C 8434   5.798   6.714   1.529 -0.6625 -1.0428 -0.2802
   63MOL0     C 8435   5.738   6.729   1.635  0.5780 -0.0707 -0.5633
   63MOL0     C 8436   6.231   6.868   1.200 -0.7965 -0.0774 -0.1352
   63MOL0     C 8437   6.262   6.768   1.104 -0.2510 -1.1521 -0.5574
   63MOL0     H 8438   6.376   6.495   0.673 -0.8320 -0.1301  0.6909
   63MOL0     H 8439   6.365   6.379   0.465 -0.4653 -0.0595  0.5647
   63MOL0     H 8440   5.991   6.318   0.248  0.3656  0.4142  1.3614
   63MOL0     H 8441   6.020   6.476   0.179 -4.5419 -1.6673  0.2237
   63MOL0     H 8442   6.010   6.375  -0.004 -3.1995 -2.2308  0.7903
   63MOL0     H 8443   6.190   6.335   0.026 -0.2014 -1.3210  0.9454
   63MOL0     H 8444   5.948   6.173   0.093 -1.6865  4.5249 -2.2056
   63MOL0     H 8445   6.022   6.153  -0.061 -0.1735  3.6787 -0.6661
   63MOL0     H 8446   6.243   6.069   0.047  0.2972  1.6194 -0.6328
   63MOL0     H 8447   6.182   6.114   0.202  1.5628 -2.2755 -0.7681
   63MOL0     H 8448   6.145   5.883   0.206 -0.8026 -0.7431 -1.0974
   63MOL0     H 8449   5.986   5.960   0.183 -0.8655  1.0615 -1.2212
   63MOL0     H 8450   6.013   5.921  -0.059 -2.0881 -1.0823  0.9827
   63MOL0     H 8451   6.177   5.844  -0.029  0.8166  2.7286 -0.7966
   63MOL0     H 8452   6.058   5.661   0.110 -1.9950 -0.7897  2.0470
   63MOL0     H 8453   5.907   5.739   0.087  0.3271 -0.0522  0.6811
   63MOL0     H 8454   5.907   5.713  -0.162 -3.2077 -2.2312 -1.2563
   63MOL0     H 8455   5.891   5.567  -0.069  2.4558 -1.0346  2.0043
   63MOL0     H 8456   6.207   5.491  -0.018  1.5350 -1.6528 -1.0610
   63MOL0     H 8457   6.476   5.541  -0.271 -2.0690  1.1136  0.0255
   63MOL0     H 8458   6.449   5.469  -0.113 -1.9644  3.0939  0.8259
   63MOL0     H 8459   6.408   5.309  -0.384  0.8417  1.4691 -0.7059
   63MOL0     H 8460   6.325   5.274  -0.238  1.5275 -2.9641 -0.5857
   63MOL0     H 8461   6.601   5.292  -0.157 -2.9267  3.6143  0.3084
   63MOL0     H 8462   6.625   5.264  -0.326 -0.0178  1.5855  0.3384
   63MOL0     H 8463   6.646   5.062  -0.187 -0.2322 -0.9030  1.4932
   63MOL0     H 8464   6.539   5.024  -0.313  0.5384 -2.4749  1.7615
   63MOL0     H 8465   6.271   5.159  -0.024  0.2264 -0.9508 -1.2618
   63MOL0     H 8466   6.158   5.198   0.315 -1.1442 -1.0876  0.1328
   63MOL0     H 8467   6.198   5.333   0.207  1.2204 -0.0483 -0.3210
   63MOL0     H 8468   6.119   5.201   0.141  0.4239 -0.5662  0.3678
   63MOL0     H 8469   6.667   5.366   0.655 -3.1896  0.4541 -1.2574
   63MOL0     H 8470   6.654   5.359   0.916 -0.4341  1.3589 -1.4060
   63MOL0     H 8471   6.533   5.367   1.121 -0.8255 -0.0179  1.7486
   63MOL0     H 8472   6.366   5.320   1.087 -0.0908  2.3025  3.0978
   63MOL0     H 8473   6.408   5.141   1.290 -0.1365 -0.0487 -0.0119
   63MOL0     H 8474   6.543   5.253   1.317 -0.4476  0.5588  1.0468
   63MOL0     H 8475   6.246   5.302   1.311 -2.1667  0.9038  1.3273
   63MOL0     H 8476   6.358   5.440   1.306  0.2777  0.2359  0.9011
   63MOL0     H 8477   6.340   5.225   1.532 -0.5845  0.8401  3.1976
   63MOL0     H 8478   6.461   5.344   1.530 -0.0327 -0.4121  0.2817
   63MOL0     H 8479   6.160   5.418   1.518 -0.7477  0.9699  1.4140
   63MOL0     H 8480   6.289   5.530   1.520  0.3967  0.0650  1.4918
   63MOL0     H 8481   6.237   5.309   1.723 -2.1041  0.4418 -0.4664
   63MOL0     H 8482   6.348   5.447   1.749  0.0662  0.8398 -0.3385
   63MOL0     H 8483   6.039   5.457   1.749 -1.4760  1.6612  2.2613
   63MOL0     H 8484   6.136   5.608   1.725 -0.5162  0.6957  1.6547
   63MOL0     H 8485   6.202   5.423   1.951  1.7014 -0.0105 -0.6286
   63MOL0     H 8486   6.083   5.569   1.948 -0.5976 -0.7941 -0.7658
   63MOL0     H 8487   6.401   5.013   0.891  1.7156 -0.9402  2.5530
   63MOL0     H 8488   6.439   5.007   0.635 -2.1097 -1.0856  2.7013
   63MOL0     H 8489   6.614   5.013   0.296  0.8408  0.8172 -0.0580
   63MOL0     H 8490   6.642   4.974   0.048 -0.7071  1.5978 -3.0990
   63MOL0     H 8491   5.959   6.515   0.405 -1.0190 -1.0212  4.2354
   63MOL0     H 8492   5.981   6.655   0.595 -1.0219  0.6764 -1.8033
   63MOL0     H 8493   6.089   6.885   0.836 -0.6642  0.7487  0.1661
   63MOL0     H 8494   6.022   7.049   0.996 -0.7797 -1.3117 -0.9521
   63MOL0     H 8495   6.087   6.926   1.413 -1.2218 -0.7244 -1.4840
   63MOL0     H 8496   6.020   7.096   1.435 -1.2617 -0.0286 -0.1963
   63MOL0     H 8497   5.840   7.024   1.281 -0.8753  0.8547  2.0338
   63MOL0     H 8498   5.832   6.990   1.458 -0.2785  0.8094 -0.2957
   63MOL0     H 8499   5.920   6.802   1.224  0.5033 -0.3856 -0.3841
   63MOL0     H 8500   5.763   6.806   1.277 -0.2168  2.7974  1.2229
   63MOL0     H 8501   5.989   6.687   1.429 -0.3422 -0.0914 -2.7994
   63MOL0     H 8502   5.860   6.606   1.358  1.1476 -2.0268  2.3398
   63MOL0     H 8503   5.683   6.740   1.727 -1.6773  0.7817 -1.9211
   63MOL0     H 8504   6.275   6.862   1.299 -0.1576  0.0934 -0.4042
   63MOL0     H 8505   6.335   6.688   1.116 -2.4449 -3.0837  0.9504
   64MOL0     O 8506   8.901   1.174   3.265  0.0536  0.1299  1.1069
   64MOL0     C 8507   9.018   1.168   3.309 -0.0000 -0.0379 -0.5479
   64MOL0     O 8508   9.053   1.090   3.417  0.5486  0.1495  1.3291
   64MOL0     C 8509   8.944   1.042   3.490 -0.0040  0.0978  0.5602
   64MOL0     C 8510   8.879   0.929   3.445  0.1966  0.0812  0.9932
   64MOL0     C 8511   8.769   0.878   3.523  0.4628  0.2861  0.4979
   64MOL0     C 8512   8.720   0.951   3.639  0.3106 -0.1974 -0.7904
   64MOL0     O 8513   8.609   0.913   3.704  0.5413 -0.0261  0.1670
   64MOL0     C 8514   8.571   0.778   3.702 -0.0288  0.2401  0.4004
   64MOL0     C 8515   8.449   0.756   3.796  0.2915 -0.3576  0.8379
   64MOL0     C 8516   8.433   0.863   3.909  0.4149 -0.0935 -0.5660
   64MOL0     C 8517   8.349   0.834   4.038 -0.0678 -0.1714  0.1656
   64MOL0     C 8518   8.294   0.968   4.095 -0.1963 -0.4327 -0.1072
   64MOL0     C 8519   8.297   0.976   4.245  0.3537  0.6085  0.3639
   64MOL0     C 8520   8.216   0.878   4.329  0.1875 -0.1025  0.5063
   64MOL0     C 8521   8.132   0.935   4.445 -0.4889  0.4316  0.3427
   64MOL0     N 8522   8.011   0.988   4.382  0.5735  1.1287 -0.0414
   64MOL0     C 8523   7.993   1.069   4.271  0.7047 -0.4610  0.7173
   64MOL0     C 8524   7.866   1.046   4.234  0.1620  0.2061 -0.8773
   64MOL0     C 8525   7.784   1.105   4.127  0.1033  0.3020  0.4169
   64MOL0     C 8526   7.698   1.006   4.039  0.4996  0.3292  0.5305
   64MOL0     C 8527   7.790   0.937   3.942 -0.0275 -0.3869 -1.1182
   64MOL0     C 8528   7.737   0.807   3.885 -0.6295 -0.7298  0.3598
   64MOL0     O 8529   7.845   0.720   3.869  0.4198  0.7203 -0.6787
   64MOL0     C 8530   7.863   0.662   3.743  0.6541 -0.0404 -0.2656
   64MOL0     C 8531   7.996   0.621   3.719 -1.3377 -0.2273 -0.5252
   64MOL0     C 8532   8.024   0.551   3.610 -0.9943  0.0627 -0.7663
   64MOL0     C 8533   8.164   0.493   3.608 -0.7028 -0.0386 -0.2144
   64MOL0     C 8534   7.935   0.547   3.502  0.6660 -0.5679 -0.4280
   64MOL0     C 8535   7.967   0.492   3.379  0.2640  0.4730 -0.0026
   64MOL0     O 8536   8.034   0.570   3.284  0.0550  0.4170  0.0493
   64MOL0     C 8537   8.050   0.541   3.152  0.6321 -0.1774  0.3187
   64MOL0     C 8538   7.988   0.430   3.085  0.1205  0.3936  0.9701
   64MOL0     C 8539   8.025   0.405   2.960  0.0455 -0.0668  0.1749
   64MOL0     C 8540   8.115   0.485   2.892  0.1613  0.3671 -0.8068
   64MOL0     O 8541   8.134   0.443   2.762 -0.2439 -0.4681 -0.2842
   64MOL0     C 8542   8.250   0.476   2.696  0.2794 -0.2564 -0.2342
   64MOL0     C 8543   8.258   0.432   2.548  0.5046  0.4227  0.1629
   64MOL0     C 8544   8.183   0.302   2.521 -0.2633 -0.0351  0.2536
   64MOL0     C 8545   8.233   0.211   2.414 -0.0807  0.6961 -0.5339
   64MOL0     C 8546   8.150   0.086   2.388  0.7743  0.0534 -0.1649
   64MOL0     C 8547   8.208   0.011   2.264 -0.3570  0.1905  0.2754
   64MOL0     C 8548   8.123  -0.115   2.247  0.9510  1.1304 -0.6759
   64MOL0     C 8549   8.178  -0.232   2.324  0.9296  0.0063  0.1644
   64MOL0    Cl 8550   8.323  -0.319   2.252 -0.3201 -0.1574  0.1352
   64MOL0     C 8551   8.165   0.597   2.954 -1.0063 -0.3746 -0.2755
   64MOL0     C 8552   8.135   0.625   3.083  0.1037 -0.0090  0.1636
   64MOL0     O 8553   7.939   0.370   3.376  0.6894 -0.2590  0.3148
   64MOL0     C 8554   7.806   0.580   3.526 -0.7895 -0.4191  0.1153
   64MOL0     C 8555   7.760   0.641   3.649  0.1305  0.3650  1.2203
   64MOL0     N 8556   7.803   0.962   4.328 -0.2466 -1.0039 -0.3823
   64MOL0     N 8557   7.890   0.943   4.421  0.0713 -0.0220  0.9249
   64MOL0     C 8558   8.785   1.070   3.675  0.3605 -1.3007  0.2769
   64MOL0     C 8559   8.895   1.109   3.605  0.0222 -0.1851  0.8980
   64MOL0     C 8560   9.121   1.251   3.244  0.3717  0.0646  0.4211
   64MOL0     C 8561   9.094   1.316   3.123  0.2909 -0.2551  0.5501
   64MOL0     C 8562   9.192   1.392   3.065  0.0640  0.2727  1.0315
   64MOL0     C 8563   9.320   1.412   3.127  0.6095  1.2812 -0.5079
   64MOL0     O 8564   9.419   1.487   3.081 -1.1077  0.2488 -0.0934
   64MOL0     C 8565   9.380   1.599   2.992 -0.0775  0.2054 -0.3041
   64MOL0     C 8566   9.476   1.716   3.010  0.4089  0.8945  0.7972
   64MOL0     C 8567   9.624   1.677   2.991  0.9607 -0.8112  1.0369
   64MOL0     C 8568   9.674   1.686   2.846  0.3899 -0.1128 -1.0193
   64MOL0     C 8569   9.824   1.690   2.834  0.7915  0.6705 -0.1237
   64MOL0     C 8570   9.946   1.688   2.826 -0.8291  0.3337 -0.4737
   64MOL0     C 8571   9.349   1.339   3.245 -0.4327 -0.0728 -0.2745
   64MOL0     C 8572   9.247   1.264   3.309 -0.5129  0.0418 -0.4544
   64MOL0     H 8573   8.926   0.874   3.364 -0.6065  0.0946  0.5045
   64MOL0     H 8574   8.730   0.782   3.491  2.6910 -0.8314  0.9716
   64MOL0     H 8575   8.541   0.742   3.603 -2.9755  0.5367  1.0842
   64MOL0     H 8576   8.652   0.713   3.738 -2.3018 -2.0255  1.7567
   64MOL0     H 8577   8.354   0.748   3.742  0.9157 -0.3181 -0.2995
   64MOL0     H 8578   8.462   0.658   3.842  1.6801 -1.0096 -0.7984
   64MOL0     H 8579   8.537   0.884   3.937 -0.2379  2.1013  0.4120
   64MOL0     H 8580   8.395   0.960   3.876 -0.4037  1.7128  4.7708
   64MOL0     H 8581   8.269   0.762   4.023  1.6103 -2.3468  1.0775
   64MOL0     H 8582   8.411   0.776   4.107  2.4780 -0.3006 -2.0161
   64MOL0     H 8583   8.360   1.047   4.057 -0.3181 -1.0163 -1.6010
   64MOL0     H 8584   8.192   0.992   4.064 -0.1547  0.7524  0.5860
   64MOL0     H 8585   8.402   0.949   4.264  0.2904 -0.7514 -0.9864
   64MOL0     H 8586   8.276   1.081   4.266  0.4234  0.8286 -0.5982
   64MOL0     H 8587   8.154   0.823   4.257 -0.1422 -1.2275  1.6182
   64MOL0     H 8588   8.292   0.813   4.373  2.9632  0.5963 -2.7968
   64MOL0     H 8589   8.183   1.015   4.500  0.4208 -1.3762  2.3142
   64MOL0     H 8590   8.111   0.859   4.522 -0.1014  0.6566  0.6775
   64MOL0     H 8591   8.065   1.132   4.218 -3.8816  2.9626 -2.2850
   64MOL0     H 8592   7.715   1.174   4.175 -1.0672 -0.7127  0.2410
   64MOL0     H 8593   7.863   1.158   4.071  0.1737  1.9630  2.0018
   64MOL0     H 8594   7.626   1.063   3.979  1.0691  1.2924  0.7352
   64MOL0     H 8595   7.638   0.943   4.105 -2.6514 -0.0042 -2.3551
   64MOL0     H 8596   7.880   0.915   4.000  1.6111  2.0999 -2.5279
   64MOL0     H 8597   7.825   0.996   3.857  1.6790  0.9061  0.3996
   64MOL0     H 8598   7.692   0.835   3.789 -1.2828  4.0178  1.8187
   64MOL0     H 8599   7.652   0.780   3.947  0.2242 -0.9237  1.4820
   64MOL0     H 8600   8.056   0.641   3.807 -1.0765  1.1839 -0.9969
   64MOL0     H 8601   8.238   0.568   3.638 -2.3311  1.9548 -0.9288
   64MOL0     H 8602   8.164   0.404   3.672  0.0928  0.3882  0.3905
   64MOL0     H 8603   8.195   0.457   3.509  1.6264 -2.2031  1.1607
   64MOL0     H 8604   7.911   0.372   3.135  0.5811  1.9556  3.7096
   64MOL0     H 8605   7.984   0.317   2.910  1.6930 -0.5123 -0.4475
   64MOL0     H 8606   8.283   0.578   2.713  4.0663 -1.8101  3.4902
   64MOL0     H 8607   8.326   0.419   2.750  1.7384  1.2179 -0.6440
   64MOL0     H 8608   8.215   0.517   2.495  0.5346  1.4601  1.7552
   64MOL0     H 8609   8.358   0.412   2.509 -0.2234 -0.6250 -1.2574
   64MOL0     H 8610   8.076   0.324   2.511  0.1951  2.8500  0.8992
   64MOL0     H 8611   8.192   0.236   2.608  0.7652 -1.0738 -0.6079
   64MOL0     H 8612   8.231   0.273   2.324  2.6210  1.5706 -0.0630
   64MOL0     H 8613   8.335   0.177   2.431 -0.1999 -0.3193 -1.7123
   64MOL0     H 8614   8.047   0.115   2.366 -0.1622 -1.0435  2.3269
   64MOL0     H 8615   8.145   0.024   2.478 -0.4390  0.9198  0.3982
   64MOL0     H 8616   8.197   0.072   2.173 -0.6884  0.6598  0.6284
   64MOL0     H 8617   8.315  -0.006   2.275 -0.0653  1.1381 -0.7551
   64MOL0     H 8618   8.116  -0.146   2.142  1.2811  1.0542 -0.6744
   64MOL0     H 8619   8.018  -0.089   2.264  1.0241  2.0339 -1.4666
   64MOL0     H 8620   8.104  -0.312   2.330  2.0182 -1.2034 -1.4022
   64MOL0     H 8621   8.200  -0.211   2.429 -0.5029  0.6598  0.3449
   64MOL0     H 8622   8.235   0.658   2.897 -0.9336  0.0560  0.2603
   64MOL0     H 8623   8.183   0.702   3.143 -1.2013 -0.0365  1.2940
   64MOL0     H 8624   7.744   0.580   3.437 -1.2706 -1.5751  0.4381
   64MOL0     H 8625   7.660   0.684   3.653  0.8328  2.1119  0.7303
   64MOL0     H 8626   8.757   1.130   3.761 -0.5866 -1.1363 -0.1380
   64MOL0     H 8627   8.949   1.194   3.646 -0.4573  0.3730  0.3846
   64MOL0     H 8628   8.999   1.324   3.071  0.4268  0.1975  0.3676
   64MOL0     H 8629   9.182   1.430   2.964 -2.7443 -1.9031  0.3372
   64MOL0     H 8630   9.376   1.575   2.886 -3.6884  1.5563 -0.6230
   64MOL0     H 8631   9.279   1.632   3.020  0.0032  1.9213 -1.8663
   64MOL0     H 8632   9.468   1.743   3.115  0.6725  0.0503  1.0487
   64MOL0     H 8633   9.456   1.800   2.943 -0.6692  0.4422  0.5263
   64MOL0     H 8634   9.651   1.580   3.034  0.5480 -1.0859  0.6822
   64MOL0     H 8635   9.682   1.751   3.047 -1.9860  2.1397  0.5385
   64MOL0     H 8636   9.627   1.781   2.821 -3.1928 -2.0251 -2.3483
   64MOL0     H 8637   9.627   1.603   2.792 -2.7824 -1.0480  2.7010
   64MOL0     H 8638  10.053   1.689   2.814 -0.8315 -1.0499 -0.8431
   64MOL0     H 8639   9.447   1.349   3.290  0.3524 -3.7327 -0.8943
   64MOL0     H 8640   9.276   1.221   3.404 -1.5125 -2.4048 -1.1668
   65MOL0     O 8641   4.117   5.294   6.467 -0.5162  0.3895 -0.2071
   65MOL0     C 8642   4.027   5.377   6.492 -0.2037  0.8389  0.0039
   65MOL0     O 8643   4.045   5.499   6.549  0.5194 -0.1173 -0.0666
   65MOL0     C 8644   4.157   5.576   6.530  0.1945 -0.0208  0.3744
   65MOL0     C 8645   4.189   5.682   6.618  0.8122  0.6811  0.2180
   65MOL0     C 8646   4.291   5.767   6.606 -0.0550 -0.2277  0.4784
   65MOL0     C 8647   4.380   5.754   6.503  0.3016 -0.2458 -0.2379
   65MOL0     O 8648   4.484   5.844   6.508  1.1487 -0.0773  0.4288
   65MOL0     C 8649   4.529   5.905   6.381  0.1715 -0.5752 -0.2657
   65MOL0     C 8650   4.612   6.032   6.427 -0.9700 -0.2680  0.3146
   65MOL0     C 8651   4.690   6.096   6.323  0.1477 -0.2575 -0.4212
   65MOL0     C 8652   4.809   6.173   6.369 -0.6124  0.3171 -0.1223
   65MOL0     C 8653   4.903   6.243   6.264  0.7518 -0.0024  0.1260
   65MOL0     C 8654   4.971   6.142   6.175  0.4448  0.3339  0.7557
   65MOL0     C 8655   5.080   6.191   6.075  0.2004 -0.4663  0.3269
   65MOL0     C 8656   5.183   6.288   6.149 -0.6207 -0.1563  0.1408
   65MOL0     N 8657   5.288   6.315   6.049 -0.6564 -0.5088 -0.0859
   65MOL0     C 8658   5.277   6.329   5.910  0.1526 -0.0017 -0.9825
   65MOL0     C 8659   5.404   6.375   5.877 -0.4763 -0.1279  0.4267
   65MOL0     C 8660   5.439   6.389   5.730  0.1459 -0.0619 -0.7496
   65MOL0     C 8661   5.440   6.252   5.653 -0.9078 -0.0594 -0.8410
   65MOL0     C 8662   5.536   6.151   5.709 -1.0490 -0.1364 -0.7613
   65MOL0     C 8663   5.683   6.202   5.722  0.4308 -0.7516 -0.1342
   65MOL0     O 8664   5.773   6.101   5.760  0.6860  0.1355 -0.6661
   65MOL0     C 8665   5.901   6.135   5.774  0.0043  0.4205  0.3803
   65MOL0     C 8666   5.959   6.254   5.746 -0.9575 -1.2831 -0.9528
   65MOL0     C 8667   6.099   6.285   5.758  0.3350 -1.2083  0.2453
   65MOL0     C 8668   6.147   6.428   5.730  0.5578 -0.7167  0.5383
   65MOL0     C 8669   6.187   6.179   5.791 -0.1964  0.7095  0.0389
   65MOL0     C 8670   6.331   6.198   5.825  0.3093 -0.2985 -0.1844
   65MOL0     O 8671   6.406   6.092   5.853  0.4282  0.0434  0.6989
   65MOL0     C 8672   6.543   6.121   5.842 -1.1381 -0.2832  0.0546
   65MOL0     C 8673   6.632   6.123   5.954  0.1320 -0.1786  0.0169
   65MOL0     C 8674   6.766   6.114   5.922  0.4780 -0.2824 -0.6663
   65MOL0     C 8675   6.819   6.115   5.790  0.2683  0.5695  0.0424
   65MOL0     O 8676   6.959   6.106   5.760 -0.9059  0.2661 -0.1303
   65MOL0     C 8677   7.058   6.048   5.862 -0.0725  0.2313  0.0717
   65MOL0     C 8678   7.181   5.984   5.807 -0.2971  0.1905  1.0290
   65MOL0     C 8679   7.158   5.861   5.702  0.0062  0.6680 -0.4283
   65MOL0     C 8680   7.294   5.806   5.660 -0.2234 -0.9384 -0.2173
   65MOL0     C 8681   7.281   5.681   5.571  0.3271 -0.8978  0.1638
   65MOL0     C 8682   7.227   5.545   5.639 -0.2656  0.0283 -0.2723
   65MOL0     C 8683   7.074   5.542   5.616 -0.5355 -0.2339 -0.3021
   65MOL0     C 8684   7.037   5.441   5.516  0.7464  0.9312 -0.4496
   65MOL0    Cl 8685   6.870   5.480   5.445  0.2787 -0.2202 -0.6021
   65MOL0     C 8686   6.732   6.124   5.684  0.3764  0.4174  0.2401
   65MOL0     C 8687   6.591   6.138   5.714  0.7247 -0.8641 -0.0168
   65MOL0     O 8688   6.369   6.314   5.850 -0.4086  0.2947  0.8637
   65MOL0     C 8689   6.123   6.047   5.817  0.2524 -0.1284 -0.0182
   65MOL0     C 8690   5.984   6.027   5.810  1.1599  0.4914  0.5105
   65MOL0     N 8691   5.487   6.379   5.992 -0.1790 -0.2299  0.5558
   65MOL0     N 8692   5.411   6.342   6.091 -0.7752  0.4884 -0.1391
   65MOL0     C 8693   4.346   5.665   6.401 -0.4427  1.0227 -0.0577
   65MOL0     C 8694   4.239   5.573   6.416  0.0269 -0.8693  0.8029
   65MOL0     C 8695   3.889   5.336   6.481  0.1378  1.0225  0.9038
   65MOL0     C 8696   3.860   5.212   6.428 -0.1712 -0.0585 -0.1681
   65MOL0     C 8697   3.735   5.154   6.415 -0.2469  0.7004 -1.0396
   65MOL0     C 8698   3.629   5.236   6.430 -0.3996  0.2018  0.0873
   65MOL0     O 8699   3.500   5.190   6.410  0.2061  0.1140  1.1637
   65MOL0     C 8700   3.408   5.299   6.380  0.0554 -0.6870 -0.2457
   65MOL0     C 8701   3.292   5.224   6.314  0.0529 -0.4401 -0.5926
   65MOL0     C 8702   3.181   5.324   6.261  0.1640 -0.2728 -1.3455
   65MOL0     C 8703   3.098   5.256   6.149 -0.1725 -0.0634 -0.9488
   65MOL0     C 8704   2.999   5.345   6.091  0.0071 -0.6786 -0.5763
   65MOL0     C 8705   2.911   5.420   6.056 -0.9247 -0.0064  0.7616
   65MOL0     C 8706   3.652   5.367   6.488 -0.4939  0.3895 -0.1390
   65MOL0     C 8707   3.781   5.415   6.514  0.3432 -0.3524 -0.1130
   65MOL0     H 8708   4.126   5.687   6.706  2.2082  0.0947  1.2977
   65MOL0     H 8709   4.307   5.828   6.694  1.6356 -2.1071  1.5738
   65MOL0     H 8710   4.590   5.839   6.320  1.3139  1.3547 -1.3282
   65MOL0     H 8711   4.451   5.945   6.314  0.5443  0.1815 -0.2660
   65MOL0     H 8712   4.550   6.116   6.461 -0.4736  0.5397 -0.7427
   65MOL0     H 8713   4.676   6.008   6.513 -0.6152  1.0886  0.4483
   65MOL0     H 8714   4.727   6.009   6.267 -0.3916  0.8049 -2.5416
   65MOL0     H 8715   4.626   6.167   6.270 -1.1564  1.0560  2.6494
   65MOL0     H 8716   4.785   6.253   6.439 -0.6201 -1.5905  2.1736
   65MOL0     H 8717   4.876   6.102   6.418 -0.3513  0.9111  0.3915
   65MOL0     H 8718   4.835   6.307   6.208  0.6394  0.4543  0.7781
   65MOL0     H 8719   4.964   6.314   6.321 -1.5433  2.2310 -0.0199
   65MOL0     H 8720   5.010   6.066   6.243 -0.1436 -0.8192 -0.1580
   65MOL0     H 8721   4.893   6.087   6.122 -0.8074  0.6943  2.1323
   65MOL0     H 8722   5.131   6.101   6.039 -3.3089 -3.0405  1.2053
   65MOL0     H 8723   5.027   6.255   6.004  0.9195  0.5908  0.7116
   65MOL0     H 8724   5.238   6.228   6.222  1.4478  2.6318  1.0681
   65MOL0     H 8725   5.145   6.381   6.192  2.3439  1.5993 -0.7360
   65MOL0     H 8726   5.191   6.300   5.851 -2.9003  0.4277  2.8258
   65MOL0     H 8727   5.362   6.455   5.689 -0.5881 -0.4565 -0.0368
   65MOL0     H 8728   5.538   6.434   5.726  0.8449 -1.4491 -0.0309
   65MOL0     H 8729   5.474   6.271   5.550  1.5142  1.9796  0.2252
   65MOL0     H 8730   5.340   6.209   5.663 -0.3171 -0.9445  2.3005
   65MOL0     H 8731   5.538   6.064   5.643  1.5679  0.2272 -1.2915
   65MOL0     H 8732   5.511   6.103   5.804  0.8013 -2.1436 -1.2112
   65MOL0     H 8733   5.705   6.276   5.800  3.3071  0.2527 -1.7374
   65MOL0     H 8734   5.699   6.247   5.624 -0.8804 -1.8582 -0.8827
   65MOL0     H 8735   5.889   6.333   5.720 -0.6988  0.1816  2.2688
   65MOL0     H 8736   6.176   6.483   5.820 -4.1185  0.4255  1.6357
   65MOL0     H 8737   6.236   6.411   5.669  0.0228  0.0119 -0.4905
   65MOL0     H 8738   6.081   6.490   5.668  2.9642  1.8398  0.3359
   65MOL0     H 8739   6.585   6.131   6.051 -0.0795  3.7532 -0.2436
   65MOL0     H 8740   6.824   6.110   6.014  1.2412  0.3334 -1.1195
   65MOL0     H 8741   7.107   6.134   5.909  2.4752 -2.1460  2.1174
   65MOL0     H 8742   7.019   5.987   5.944  1.3011  0.0921  0.6539
   65MOL0     H 8743   7.229   6.060   5.744 -0.7092  0.8721  1.5281
   65MOL0     H 8744   7.245   5.959   5.892 -0.0085  0.0033  0.7615
   65MOL0     H 8745   7.098   5.890   5.615  0.0941 -2.3291 -1.6100
   65MOL0     H 8746   7.120   5.778   5.761  0.5466  0.6077 -0.1579
   65MOL0     H 8747   7.345   5.880   5.598 -0.1391 -1.3003 -0.5894
   65MOL0     H 8748   7.365   5.785   5.741  0.9790  1.4878 -0.5452
   65MOL0     H 8749   7.376   5.649   5.526  0.4145  1.1643 -1.2539
   65MOL0     H 8750   7.223   5.709   5.482  0.3167  0.5664  0.6149
   65MOL0     H 8751   7.277   5.459   5.594 -2.3928 -1.9375  0.9469
   65MOL0     H 8752   7.253   5.546   5.745  1.6626  0.4407 -0.7209
   65MOL0     H 8753   7.022   5.633   5.586  1.7453 -0.0856 -4.6064
   65MOL0     H 8754   7.032   5.504   5.709  0.9697 -2.0711 -0.2993
   65MOL0     H 8755   7.029   5.342   5.562  1.0069  0.6317 -1.0357
   65MOL0     H 8756   7.107   5.443   5.432  2.8877 -1.0830  1.1435
   65MOL0     H 8757   6.758   6.122   5.578 -3.2358  0.2747 -0.7872
   65MOL0     H 8758   6.522   6.122   5.632  1.6437 -3.2132 -0.3951
   65MOL0     H 8759   6.174   5.954   5.842  0.5496  0.4546  1.6586
   65MOL0     H 8760   5.945   5.928   5.833 -2.4827  2.0432  1.7127
   65MOL0     H 8761   4.405   5.662   6.309  0.8571  2.1716  0.6978
   65MOL0     H 8762   4.226   5.500   6.336  1.1683 -1.8151  1.4514
   65MOL0     H 8763   3.942   5.142   6.415  1.4411  1.9558 -1.4233
   65MOL0     H 8764   3.731   5.048   6.391 -0.1125  1.1794 -3.3880
   65MOL0     H 8765   3.382   5.351   6.472  2.2065 -1.7781  1.0737
   65MOL0     H 8766   3.461   5.356   6.303  1.0066 -2.8776 -1.3039
   65MOL0     H 8767   3.252   5.151   6.385  2.6135 -1.6976 -0.3256
   65MOL0     H 8768   3.345   5.180   6.229  3.8983 -2.0533  2.3319
   65MOL0     H 8769   3.226   5.411   6.212  1.1570 -2.1564 -3.9908
   65MOL0     H 8770   3.112   5.358   6.340  3.4495  1.0277  1.2164
   65MOL0     H 8771   3.057   5.165   6.196  6.0088 -2.2542  1.2597
   65MOL0     H 8772   3.162   5.216   6.070 -2.4078 -1.1181 -2.3230
   65MOL0     H 8773   2.846   5.484   5.999  0.3484 -0.4132 -1.2801
   65MOL0     H 8774   3.567   5.417   6.533 -0.8342  0.6369 -1.0365
   65MOL0     H 8775   3.803   5.517   6.544  4.6444 -0.4698 -2.1879
   66MOL0     O 8776   9.759   0.021   5.299  0.2745  0.3425  0.3057
   66MOL0     C 8777   9.794   0.121   5.236 -0.0092 -0.2936 -0.4808
   66MOL0     O 8778   9.819   0.126   5.098  0.8950 -1.0511 -0.6575
   66MOL0     C 8779   9.796   0.009   5.040 -0.8564  0.5302  0.0962
   66MOL0     C 8780   9.902  -0.085   5.022 -0.5184  0.3633  0.4661
   66MOL0     C 8781   9.872  -0.207   4.960 -0.3850 -0.3421  1.0890
   66MOL0     C 8782   9.736  -0.241   4.912 -0.4242  0.1120 -0.2841
   66MOL0     O 8783   9.713  -0.361   4.866  0.2578  0.5339 -0.3811
   66MOL0     C 8784   9.719  -0.484   4.950  0.1471 -0.0547  0.1300
   66MOL0     C 8785   9.683  -0.603   4.858  0.0899 -0.2849  0.2972
   66MOL0     C 8786   9.772  -0.610   4.732  0.0648 -0.0237 -0.5219
   66MOL0     C 8787   9.923  -0.637   4.772 -0.2127 -0.6370 -0.5608
   66MOL0     C 8788  10.035  -0.630   4.666  0.6690  0.5077 -0.6814
   66MOL0     C 8789   9.976  -0.688   4.535 -0.2651  1.7230 -0.2510
   66MOL0     C 8790  10.091  -0.711   4.437  0.3342 -0.1068 -0.1095
   66MOL0     C 8791  10.142  -0.578   4.359  0.0318  0.0599  0.3413
   66MOL0     N 8792  10.286  -0.583   4.316  0.4180 -0.4902  0.1807
   66MOL0     C 8793  10.319  -0.633   4.193 -0.2643  0.7678  0.3016
   66MOL0     C 8794  10.452  -0.615   4.189  0.3741 -0.6914 -0.2939
   66MOL0     C 8795  10.524  -0.650   4.060 -0.1143 -0.7520 -0.1260
   66MOL0     C 8796  10.628  -0.765   4.081  0.4888 -0.5408 -0.2368
   66MOL0     C 8797  10.666  -0.844   3.957  0.0956  0.5040  0.1560
   66MOL0     C 8798  10.757  -0.970   3.990  0.1824 -0.3860  0.2032
   66MOL0     O 8799  10.891  -0.935   3.945 -0.5088 -0.2120 -0.0109
   66MOL0     C 8800  10.956  -1.010   3.854 -0.4842  1.0594 -0.5971
   66MOL0     C 8801  10.939  -0.972   3.718  0.0324  0.1170 -0.5794
   66MOL0     C 8802  10.992  -1.053   3.624 -0.4774  0.2142  0.4965
   66MOL0     C 8803  10.967  -1.015   3.483 -0.0175 -1.4113  0.3325
   66MOL0     C 8804  11.070  -1.169   3.662 -0.8003  0.1695  0.5511
   66MOL0     C 8805  11.121  -1.263   3.566  0.6454  0.3439 -0.1338
   66MOL0     O 8806  11.044  -1.294   3.445 -0.0432  0.4301 -0.1458
   66MOL0     C 8807  11.075  -1.387   3.347 -0.7717  0.6815  0.4935
   66MOL0     C 8808  11.199  -1.455   3.334 -0.0597  0.1419 -0.6154
   66MOL0     C 8809  11.216  -1.543   3.227  0.2608 -0.9845  0.2911
   66MOL0     C 8810  11.112  -1.576   3.140  0.7345 -0.1325  0.1102
   66MOL0     O 8811  11.118  -1.667   3.039 -0.2581  0.4699  0.0147
   66MOL0     C 8812  11.191  -1.784   3.068 -0.0562  0.2963  0.1083
   66MOL0     C 8813  11.208  -1.867   2.941  0.2078 -0.1760 -1.1607
   66MOL0     C 8814  11.294  -1.802   2.844  0.1059 -1.0043  0.9945
   66MOL0     C 8815  11.444  -1.792   2.871  0.1478  0.2802 -0.8975
   66MOL0     C 8816  11.527  -1.730   2.762 -0.5303  0.2887 -0.1140
   66MOL0     C 8817  11.667  -1.714   2.811 -0.7135  1.1743 -0.2568
   66MOL0     C 8818  11.752  -1.671   2.688 -0.1839  1.0814 -0.3265
   66MOL0     C 8819  11.893  -1.631   2.731 -1.2293 -0.1829 -0.1509
   66MOL0    Cl 8820  11.970  -1.732   2.865  0.1856 -0.0586  0.1087
   66MOL0     C 8821  10.997  -1.508   3.154  0.3006  0.2452  0.6822
   66MOL0     C 8822  10.972  -1.415   3.259  0.0552  0.3230 -0.1859
   66MOL0     O 8823  11.231  -1.305   3.599  0.1714 -0.2969  0.0300
   66MOL0     C 8824  11.111  -1.196   3.800  0.3068 -0.0547  0.2151
   66MOL0     C 8825  11.041  -1.117   3.899 -0.1781  0.1377  0.0277
   66MOL0     N 8826  10.500  -0.559   4.300  0.0903 -0.1643 -0.4138
   66MOL0     N 8827  10.401  -0.529   4.368 -0.8402  0.3743  0.0024
   66MOL0     C 8828   9.634  -0.146   4.921 -0.1770  1.3071  0.1724
   66MOL0     C 8829   9.663  -0.021   4.985  0.9485  0.6374  0.3419
   66MOL0     C 8830   9.824   0.238   5.321  0.0847  0.2863  0.8596
   66MOL0     C 8831   9.887   0.346   5.264 -0.1662  0.4664  0.7132
   66MOL0     C 8832   9.919   0.455   5.350 -0.8524  0.1502  0.3472
   66MOL0     C 8833   9.897   0.451   5.490  0.3379 -0.3621 -0.3750
   66MOL0     O 8834   9.921   0.561   5.573  0.3859  0.1784  0.9347
   66MOL0     C 8835   9.899   0.693   5.515  0.5110  0.4748  0.4046
   66MOL0     C 8836   9.914   0.809   5.619 -0.2470  0.0219  0.8783
   66MOL0     C 8837  10.060   0.814   5.676  0.0704 -0.1088  0.2498
   66MOL0     C 8838  10.073   0.937   5.763 -0.7606  0.1928 -0.4441
   66MOL0     C 8839  10.200   0.932   5.846  0.5875 -0.4375 -0.7385
   66MOL0     C 8840  10.307   0.912   5.905  0.6182  0.0953 -0.7449
   66MOL0     C 8841   9.832   0.339   5.542  0.2020 -0.4397 -0.1816
   66MOL0     C 8842   9.798   0.233   5.462  0.5213 -0.6382  0.2343
   66MOL0     H 8843   9.999  -0.062   5.066 -0.5699  3.0681 -0.6871
   66MOL0     H 8844   9.950  -0.283   4.956  0.9657  1.0288  0.2772
   66MOL0     H 8845   9.817  -0.507   4.995  0.0059  1.4620  1.3236
   66MOL0     H 8846   9.638  -0.487   5.023 -0.6923 -2.4984 -0.7951
   66MOL0     H 8847   9.695  -0.695   4.916  1.3351 -0.9607 -0.9759
   66MOL0     H 8848   9.578  -0.601   4.827  0.0325 -2.5634  0.1854
   66MOL0     H 8849   9.735  -0.694   4.673 -0.8295  0.4339 -0.6294
   66MOL0     H 8850   9.769  -0.520   4.669  4.5193  1.5559  1.1459
   66MOL0     H 8851   9.954  -0.564   4.847  1.4025 -0.3986 -1.4345
   66MOL0     H 8852   9.911  -0.738   4.813 -0.2703 -0.3124  0.2478
   66MOL0     H 8853  10.065  -0.527   4.645 -1.2223  0.6266 -3.1818
   66MOL0     H 8854  10.122  -0.681   4.709  1.6439  1.7801 -1.0670
   66MOL0     H 8855   9.935  -0.787   4.552  1.5218  1.0947  0.7254
   66MOL0     H 8856   9.891  -0.635   4.491 -1.1020 -0.8536 -1.9385
   66MOL0     H 8857  10.178  -0.746   4.494  0.8335 -0.4891 -1.0862
   66MOL0     H 8858  10.051  -0.785   4.367 -0.5994 -0.9421  1.2670
   66MOL0     H 8859  10.149  -0.489   4.422  0.8047 -0.2586  0.7268
   66MOL0     H 8860  10.070  -0.560   4.279 -0.1287  0.6769  0.6182
   66MOL0     H 8861  10.248  -0.680   4.125 -0.9447  0.3108  1.3145
   66MOL0     H 8862  10.448  -0.674   3.986 -2.2318 -2.3158  2.3963
   66MOL0     H 8863  10.576  -0.558   4.030  3.1591 -2.5019 -0.2643
   66MOL0     H 8864  10.585  -0.835   4.154  1.0602  0.5261  1.1588
   66MOL0     H 8865  10.719  -0.723   4.125  1.1562 -1.4855 -0.6779
   66MOL0     H 8866  10.720  -0.786   3.882 -0.5578 -1.0059 -1.5500
   66MOL0     H 8867  10.570  -0.861   3.909  0.6836  3.2242 -2.2742
   66MOL0     H 8868  10.709  -1.056   3.943 -1.3220  0.6664 -0.2756
   66MOL0     H 8869  10.769  -0.993   4.096  2.9052  0.0653  0.0726
   66MOL0     H 8870  10.879  -0.888   3.685  2.8865  1.2473 -3.3787
   66MOL0     H 8871  10.929  -0.913   3.469  0.3797 -0.9352  2.3328
   66MOL0     H 8872  11.058  -1.037   3.426  2.0551  0.0665  2.8169
   66MOL0     H 8873  10.883  -1.075   3.448 -1.2019  0.8735 -0.9623
   66MOL0     H 8874  11.285  -1.421   3.391 -2.8670  3.7417  1.9646
   66MOL0     H 8875  11.318  -1.578   3.219  0.6453  0.4684 -2.1452
   66MOL0     H 8876  11.288  -1.775   3.117 -0.3449 -2.3220  1.3291
   66MOL0     H 8877  11.138  -1.850   3.137 -0.8189 -0.1767 -0.8984
   66MOL0     H 8878  11.250  -1.957   2.988  1.2503  1.8128  2.0294
   66MOL0     H 8879  11.113  -1.895   2.896  0.1287 -3.5009  0.7212
   66MOL0     H 8880  11.255  -1.700   2.834  1.0589 -0.6997  0.1014
   66MOL0     H 8881  11.275  -1.847   2.746  0.9065  2.0417 -0.7041
   66MOL0     H 8882  11.460  -1.726   2.956  2.1775 -3.2389  1.7329
   66MOL0     H 8883  11.490  -1.890   2.889  0.1916  0.8355  2.5014
   66MOL0     H 8884  11.486  -1.631   2.738 -0.3674  0.2322 -0.6438
   66MOL0     H 8885  11.531  -1.789   2.670 -0.4782 -2.9610  1.8328
   66MOL0     H 8886  11.661  -1.640   2.892  2.1766  0.6579  0.5482
   66MOL0     H 8887  11.712  -1.810   2.837 -1.1837  1.1215  0.3830
   66MOL0     H 8888  11.698  -1.596   2.630 -3.2642  0.9356  2.0863
   66MOL0     H 8889  11.768  -1.756   2.622 -1.1318  0.5362  0.1239
   66MOL0     H 8890  11.901  -1.527   2.766 -0.1811 -0.6668  1.1128
   66MOL0     H 8891  11.960  -1.618   2.644 -1.0592 -1.5266 -0.2356
   66MOL0     H 8892  10.924  -1.529   3.077  1.4620 -0.8566 -0.1577
   66MOL0     H 8893  10.878  -1.361   3.257 -2.3228 -3.4631 -0.1750
   66MOL0     H 8894  11.163  -1.285   3.833 -0.3345  0.4856  3.0102
   66MOL0     H 8895  11.044  -1.155   4.001  0.4957 -1.1187 -0.4326
   66MOL0     H 8896   9.534  -0.177   4.893 -1.0667  0.0659  4.0805
   66MOL0     H 8897   9.584   0.054   4.994 -2.0861 -1.9208 -2.3434
   66MOL0     H 8898   9.916   0.345   5.159  2.2894 -2.3606  1.2880
   66MOL0     H 8899   9.960   0.545   5.306 -1.3730 -0.3806 -1.2954
   66MOL0     H 8900   9.965   0.711   5.430 -1.2773 -1.1611 -1.4181
   66MOL0     H 8901   9.798   0.704   5.474  1.5660 -0.5846 -2.7509
   66MOL0     H 8902   9.854   0.786   5.708  1.2774 -1.4389  1.5832
   66MOL0     H 8903   9.896   0.906   5.571 -0.0617  0.9367  2.5744
   66MOL0     H 8904  10.141   0.830   5.603  0.4354  1.3769  0.9605
   66MOL0     H 8905  10.071   0.726   5.741  1.0643  0.6343  1.1141
   66MOL0     H 8906   9.986   0.944   5.829  0.1745 -0.2109  0.8810
   66MOL0     H 8907  10.078   1.029   5.704  1.3766  1.2193  1.2018
   66MOL0     H 8908  10.383   0.916   5.980 -0.0088  2.2788 -0.1285
   66MOL0     H 8909   9.804   0.342   5.647 -2.2122 -1.9603 -0.7244
   66MOL0     H 8910   9.766   0.142   5.511 -0.7383 -1.1653 -1.4403
   67MOL0     O 8911   9.703  10.765   8.014 -0.1836 -0.2962 -0.0906
   67MOL0     C 8912   9.650  10.666   7.965  0.1705  0.5585 -0.1446
   67MOL0     O 8913   9.650  10.635   7.830 -0.1395  0.0055  0.2291
   67MOL0     C 8914   9.716  10.712   7.734  0.0233  0.6711  0.9874
   67MOL0     C 8915   9.750  10.643   7.613  0.6262 -0.5160 -0.8756
   67MOL0     C 8916   9.816  10.702   7.509 -0.6044 -0.2446 -0.7261
   67MOL0     C 8917   9.863  10.833   7.523  0.2110 -0.2439  0.7377
   67MOL0     O 8918   9.940  10.892   7.425  0.5747 -0.1682 -0.0392
   67MOL0     C 8919  10.055  10.821   7.391 -1.6847 -0.8090 -0.0158
   67MOL0     C 8920  10.148  10.801   7.512 -0.0940  0.1409 -0.4544
   67MOL0     C 8921  10.275  10.733   7.463 -0.3595  0.5772  0.0093
   67MOL0     C 8922  10.295  10.595   7.529  0.5112  0.1581  0.6327
   67MOL0     C 8923  10.379  10.501   7.440  0.1190 -0.3516 -0.6407
   67MOL0     C 8924  10.428  10.382   7.523 -0.2544 -0.7887  0.4077
   67MOL0     C 8925  10.475  10.259   7.440  0.0668 -0.4613  0.3270
   67MOL0     C 8926  10.576  10.282   7.329 -0.3004  0.1205  0.3850
   67MOL0     N 8927  10.704  10.324   7.389  0.4423  0.2955 -0.2503
   67MOL0     C 8928  10.775  10.256   7.476 -0.4139 -0.1380  1.1857
   67MOL0     C 8929  10.856  10.345   7.542  0.1019 -1.0575 -0.3648
   67MOL0     C 8930  10.940  10.331   7.666  0.0888 -0.0780 -0.6664
   67MOL0     C 8931  11.083  10.285   7.655  0.5845 -1.2012  0.1620
   67MOL0     C 8932  11.166  10.371   7.558  1.0519  0.4716 -0.0527
   67MOL0     C 8933  11.313  10.348   7.570  0.0671  0.1333  0.0571
   67MOL0     O 8934  11.367  10.237   7.502 -0.1056 -0.5413  0.5337
   67MOL0     C 8935  11.383  10.115   7.567 -0.7595 -1.1459  1.1307
   67MOL0     C 8936  11.415  10.008   7.492 -0.5708  1.0262 -0.0687
   67MOL0     C 8937  11.441   9.878   7.548 -0.2401  0.1149 -0.4149
   67MOL0     C 8938  11.467   9.765   7.447 -0.3295  0.4059  0.3038
   67MOL0     C 8939  11.417   9.855   7.688 -0.0228 -0.0725  0.5869
   67MOL0     C 8940  11.445   9.724   7.760  0.3616  0.9522 -0.7291
   67MOL0     O 8941  11.393   9.699   7.880 -0.6163  0.3440  0.2321
   67MOL0     C 8942  11.434   9.589   7.953 -0.5862  0.6101  0.6309
   67MOL0     C 8943  11.429   9.458   7.885  1.5004 -0.6955  0.4738
   67MOL0     C 8944  11.468   9.351   7.957  1.1362 -0.4633 -0.4590
   67MOL0     C 8945  11.509   9.360   8.091 -0.1937  0.0101  0.2645
   67MOL0     O 8946  11.558   9.258   8.152 -0.4433  0.2513 -0.4001
   67MOL0     C 8947  11.692   9.230   8.121 -0.8146 -0.2066 -0.0227
   67MOL0     C 8948  11.753   9.124   8.214 -0.5983 -0.7538 -0.2149
   67MOL0     C 8949  11.905   9.090   8.193 -0.5090 -1.0900  0.3035
   67MOL0     C 8950  11.962   8.983   8.278  0.1536  0.3109  0.1654
   67MOL0     C 8951  12.109   9.012   8.294  0.1449  0.5856 -0.2677
   67MOL0     C 8952  12.194   8.897   8.355 -0.2238 -0.3533  0.5192
   67MOL0     C 8953  12.340   8.925   8.320 -0.0251  0.0921  0.0449
   67MOL0     C 8954  12.431   8.802   8.353  0.3789 -0.9031  0.5887
   67MOL0    Cl 8955  12.422   8.674   8.224  0.2407 -0.3407  0.2568
   67MOL0     C 8956  11.523   9.483   8.152 -0.1995 -0.1309 -0.3061
   67MOL0     C 8957  11.470   9.598   8.086 -0.3138  0.6501  0.1050
   67MOL0     O 8958  11.527   9.662   7.698 -0.0882  0.2532 -0.1320
   67MOL0     C 8959  11.376   9.966   7.765  0.8153 -0.3577  1.3256
   67MOL0     C 8960  11.365  10.091   7.704  0.3043 -1.1347  0.5091
   67MOL0     N 8961  10.835  10.466   7.493  0.7428 -0.1192 -0.6938
   67MOL0     N 8962  10.750  10.454   7.401 -0.1125  0.7471  0.6669
   67MOL0     C 8963   9.838  10.896   7.643 -0.4641  0.1894 -0.8195
   67MOL0     C 8964   9.758  10.845   7.743 -0.6549 -0.4565  0.6669
   67MOL0     C 8965   9.563  10.578   8.048  0.9763  0.0195  0.2962
   67MOL0     C 8966   9.480  10.643   8.143  0.5232  0.6335  0.8574
   67MOL0     C 8967   9.397  10.566   8.223  0.5273  1.1458  1.1419
   67MOL0     C 8968   9.386  10.428   8.208 -0.0555 -0.7857  0.4498
   67MOL0     O 8969   9.330  10.351   8.312 -0.9167 -0.3876  0.0686
   67MOL0     C 8970   9.314  10.208   8.296 -0.0924  0.0555 -0.8081
   67MOL0     C 8971   9.249  10.145   8.415  0.4130  0.1882 -0.6216
   67MOL0     C 8972   9.092  10.178   8.440 -0.7479  0.0326  1.3076
   67MOL0     C 8973   9.017  10.114   8.331 -0.0416  1.0094  0.7867
   67MOL0     C 8974   8.885  10.162   8.318  0.4314 -0.1000  0.3225
   67MOL0     C 8975   8.772  10.201   8.306  0.7092  0.0424  0.3555
   67MOL0     C 8976   9.456  10.367   8.103 -0.8107 -0.4870  0.0571
   67MOL0     C 8977   9.544  10.446   8.026 -0.2078 -0.6491  1.1851
   67MOL0     H 8978   9.732  10.537   7.597  0.8099 -0.6212 -0.3948
   67MOL0     H 8979   9.817  10.667   7.406  1.7990  1.0397 -1.2202
   67MOL0     H 8980  10.026  10.723   7.352  1.3233 -2.0253  0.4629
   67MOL0     H 8981  10.109  10.865   7.306 -1.7007 -0.4038  0.1820
   67MOL0     H 8982  10.174  10.895   7.560  0.5463 -0.7715  1.0407
   67MOL0     H 8983  10.101  10.747   7.595  2.8355  2.2869  2.8930
   67MOL0     H 8984  10.266  10.710   7.356  3.2565  3.3733 -1.0808
   67MOL0     H 8985  10.366  10.792   7.477  0.7338 -1.0953  0.2827
   67MOL0     H 8986  10.336  10.613   7.628 -0.7772  2.5245  0.8146
   67MOL0     H 8987  10.205  10.532   7.537  1.5478 -1.6250 -0.8993
   67MOL0     H 8988  10.315  10.462   7.360  0.7651  0.1027 -1.3954
   67MOL0     H 8989  10.461  10.560   7.398  0.2694 -0.9884 -1.2656
   67MOL0     H 8990  10.507  10.420   7.589 -0.2393  0.4276 -0.2815
   67MOL0     H 8991  10.342  10.351   7.583 -2.9033  2.4043 -1.4269
   67MOL0     H 8992  10.503  10.178   7.508  0.9127 -1.1805 -0.8451
   67MOL0     H 8993  10.389  10.228   7.381 -0.3107 -0.0129  0.6298
   67MOL0     H 8994  10.553  10.358   7.254  5.2894  3.1319  1.1808
   67MOL0     H 8995  10.582  10.185   7.279 -1.9142  0.3010 -0.2082
   67MOL0     H 8996  10.779  10.148   7.487 -2.2379 -0.2566  0.9999
   67MOL0     H 8997  10.936  10.428   7.716 -1.2681  0.1188 -1.1118
   67MOL0     H 8998  10.890  10.268   7.739 -1.6291 -0.7074 -2.3026
   67MOL0     H 8999  11.069  10.184   7.617 -2.7147 -0.7377 -0.1046
   67MOL0     H 9000  11.112  10.285   7.761 -2.5704  1.3891  1.1983
   67MOL0     H 9001  11.153  10.477   7.582  0.0481  0.5693 -0.9384
   67MOL0     H 9002  11.126  10.352   7.458  1.2405 -4.2349  0.5328
   67MOL0     H 9003  11.345  10.351   7.675 -1.9598  0.6128  0.7254
   67MOL0     H 9004  11.357  10.435   7.520 -0.2217 -2.2347 -4.7970
   67MOL0     H 9005  11.428  10.008   7.385  1.2739  1.0933  0.1142
   67MOL0     H 9006  11.390   9.769   7.370 -0.0569  1.8667  0.0719
   67MOL0     H 9007  11.561   9.789   7.396 -1.1173  1.3253 -0.7692
   67MOL0     H 9008  11.464   9.662   7.482 -1.7730  0.8626  1.6269
   67MOL0     H 9009  11.417   9.446   7.778  1.9288 -0.5469  0.4087
   67MOL0     H 9010  11.473   9.257   7.904 -1.9780 -0.1621 -1.4571
   67MOL0     H 9011  11.694   9.192   8.018 -0.1998  1.5081 -0.6652
   67MOL0     H 9012  11.746   9.323   8.139  1.0736 -0.9217 -1.6423
   67MOL0     H 9013  11.749   9.162   8.316 -1.7480 -2.9190  0.6274
   67MOL0     H 9014  11.682   9.041   8.219 -2.3521  0.7497  2.1627
   67MOL0     H 9015  11.957   9.184   8.215 -2.6890  0.4433 -0.7283
   67MOL0     H 9016  11.908   9.062   8.087 -0.4752 -2.0340  0.5477
   67MOL0     H 9017  11.918   8.985   8.378 -0.8200  2.7926 -0.2590
   67MOL0     H 9018  11.944   8.884   8.235  0.1861 -0.2049  1.3077
   67MOL0     H 9019  12.118   9.096   8.363  1.6942  1.0440 -0.9744
   67MOL0     H 9020  12.152   9.055   8.203 -1.0714  1.9189 -0.2436
   67MOL0     H 9021  12.177   8.884   8.463  0.3503 -3.7625  0.3314
   67MOL0     H 9022  12.167   8.805   8.302  0.8699 -0.6588  0.4631
   67MOL0     H 9023  12.385   9.002   8.384  2.3461 -0.5816 -0.7045
   67MOL0     H 9024  12.352   8.959   8.217 -2.8996 -2.1633 -1.1767
   67MOL0     H 9025  12.405   8.746   8.443  0.2111  0.0790  1.1638
   67MOL0     H 9026  12.531   8.845   8.364 -1.2251  4.9814 -3.0771
   67MOL0     H 9027  11.553   9.490   8.256 -0.9446  2.8003 -0.1832
   67MOL0     H 9028  11.468   9.693   8.139  3.9556  0.9519  0.0692
   67MOL0     H 9029  11.355   9.962   7.872 -3.6135  0.7149  0.7015
   67MOL0     H 9030  11.341  10.168   7.777  4.7863  1.2460 -0.1314
   67MOL0     H 9031   9.877  10.997   7.650 -1.5944  0.5483  0.6873
   67MOL0     H 9032   9.741  10.914   7.825  2.7710 -0.0468  1.1568
   67MOL0     H 9033   9.482  10.747   8.175  0.1091 -0.1075  3.5182
   67MOL0     H 9034   9.335  10.601   8.305  1.1915  0.8365  1.7917
   67MOL0     H 9035   9.266  10.181   8.201 -1.6463 -2.4388  0.5714
   67MOL0     H 9036   9.414  10.165   8.296 -0.0903  0.0606 -0.7744
   67MOL0     H 9037   9.295  10.198   8.499  0.3052 -1.4480  0.5006
   67MOL0     H 9038   9.277  10.041   8.432  1.9073  0.6701  0.0527
   67MOL0     H 9039   9.076  10.286   8.435  1.7213  0.4152 -0.8747
   67MOL0     H 9040   9.057  10.130   8.531  0.4798 -2.1342  0.7007
   67MOL0     H 9041   9.016  10.009   8.358 -0.2574  1.0418  0.8995
   67MOL0     H 9042   9.057  10.122   8.229 -3.7184 -3.5264 -1.3872
   67MOL0     H 9043   8.673  10.243   8.305  0.2244 -1.0673  0.0992
   67MOL0     H 9044   9.448  10.260   8.085 -1.2824 -0.5123  0.4050
   67MOL0     H 9045   9.603  10.407   7.944 -0.4635  2.4694 -0.6627
   68MOL0     O 9046   7.762  10.219   3.754  0.0044  0.1203 -0.4471
   68MOL0     C 9047   7.726  10.312   3.685  0.4963 -0.3234 -0.2157
   68MOL0     O 9048   7.606  10.332   3.630 -0.4862 -0.9784  0.1990
   68MOL0     C 9049   7.503  10.240   3.646 -1.5922  0.6916 -0.0246
   68MOL0     C 9050   7.501  10.109   3.591 -0.9329 -0.7003  0.0861
   68MOL0     C 9051   7.395  10.025   3.607 -0.1956 -0.2285 -0.1350
   68MOL0     C 9052   7.290  10.054   3.698 -1.1744  0.6810 -0.3238
   68MOL0     O 9053   7.195   9.957   3.725  0.3236  0.8685  0.0300
   68MOL0     C 9054   7.097   9.970   3.833  0.6226  0.4700 -0.7863
   68MOL0     C 9055   7.047   9.825   3.863  0.8254 -0.4332 -0.1434
   68MOL0     C 9056   6.956   9.768   3.749 -0.3393 -0.4678 -0.1327
   68MOL0     C 9057   6.933   9.614   3.753  0.4476 -0.1614 -1.1088
   68MOL0     C 9058   6.784   9.591   3.775  0.1932 -0.1486  0.0149
   68MOL0     C 9059   6.754   9.445   3.790  0.6866  0.2163 -0.8041
   68MOL0     C 9060   6.781   9.362   3.667 -0.6461 -0.5484  0.4233
   68MOL0     C 9061   6.742   9.222   3.673  0.1346  0.0988 -0.5480
   68MOL0     N 9062   6.594   9.198   3.647  0.4722  0.3086 -0.2352
   68MOL0     C 9063   6.492   9.170   3.737 -1.0682 -0.8854 -0.0571
   68MOL0     C 9064   6.370   9.190   3.680  0.3349  0.0944  0.4982
   68MOL0     C 9065   6.228   9.172   3.731  0.5847  0.0335 -0.1583
   68MOL0     C 9066   6.194   9.245   3.862  0.2425  0.7164 -0.3408
   68MOL0     C 9067   6.040   9.243   3.883  0.6200 -1.1052  0.2638
   68MOL0     C 9068   6.014   9.280   4.033 -0.0218  0.4874 -0.2676
   68MOL0     O 9069   5.878   9.270   4.064  0.2293 -0.0206 -0.2825
   68MOL0     C 9070   5.831   9.313   4.187 -0.5229  0.3864  0.1887
   68MOL0     C 9071   5.889   9.399   4.274 -1.1424  0.1028 -0.6273
   68MOL0     C 9072   5.837   9.435   4.397 -0.4784 -0.4583 -0.1640
   68MOL0     C 9073   5.924   9.532   4.473  0.2850  0.5418  0.4526
   68MOL0     C 9074   5.710   9.391   4.437  0.6415  0.5196 -0.1771
   68MOL0     C 9075   5.655   9.421   4.573 -0.1340  0.3438 -0.6666
   68MOL0     O 9076   5.674   9.549   4.628  0.2849 -0.5138  0.2284
   68MOL0     C 9077   5.641   9.577   4.760  0.1324  0.3613  0.5532
   68MOL0     C 9078   5.612   9.710   4.790  0.2421  0.3723  0.5954
   68MOL0     C 9079   5.539   9.747   4.908  0.0159 -0.6166  0.6418
   68MOL0     C 9080   5.506   9.655   5.003  0.0301  0.7669 -0.6244
   68MOL0     O 9081   5.420   9.685   5.109  1.1830 -0.0255  0.0932
   68MOL0     C 9082   5.402   9.823   5.149 -0.6651 -0.5075  0.3465
   68MOL0     C 9083   5.337   9.808   5.292  0.1960  0.6680  0.7533
   68MOL0     C 9084   5.309   9.948   5.348  0.2530 -0.5019  0.2479
   68MOL0     C 9085   5.221   9.937   5.470 -0.5179  0.8381 -0.3801
   68MOL0     C 9086   5.185  10.082   5.524 -0.3836 -1.2646  0.0505
   68MOL0     C 9087   5.080  10.078   5.635 -0.1847  0.4490 -0.6475
   68MOL0     C 9088   5.115   9.962   5.750  0.3541  1.0148 -1.1882
   68MOL0     C 9089   5.048   9.991   5.883  0.9948 -0.5131 -0.1547
   68MOL0    Cl 9090   5.094  10.158   5.937  0.0446 -0.0527 -0.2910
   68MOL0     C 9091   5.557   9.520   4.985 -0.2525 -0.3206 -0.1450
   68MOL0     C 9092   5.606   9.480   4.866 -0.8791 -0.3096 -0.3139
   68MOL0     O 9093   5.580   9.338   4.617  0.5801 -0.5850  0.6418
   68MOL0     C 9094   5.651   9.286   4.357  0.0021 -0.9258 -0.3458
   68MOL0     C 9095   5.709   9.263   4.227  0.5951 -0.0329 -0.1080
   68MOL0     N 9096   6.407   9.235   3.557 -0.1100 -0.5352 -1.0891
   68MOL0     N 9097   6.535   9.234   3.537  0.7095 -0.6775  0.6070
   68MOL0     C 9098   7.293  10.182   3.752 -0.0204 -0.0770  0.0500
   68MOL0     C 9099   7.392  10.277   3.725  0.3364 -1.2322  0.5474
   68MOL0     C 9100   7.817  10.426   3.668  1.4863 -0.2038  0.5522
   68MOL0     C 9101   7.766  10.552   3.656  0.2810  0.0548  0.4474
   68MOL0     C 9102   7.852  10.660   3.624 -0.3948  0.9035  0.4079
   68MOL0     C 9103   7.992  10.640   3.617  0.3389  1.0893  0.1640
   68MOL0     O 9104   8.072  10.745   3.592  0.2338  0.0707  0.3998
   68MOL0     C 9105   8.206  10.729   3.549 -0.5315 -1.1306  0.5176
   68MOL0     C 9106   8.258  10.847   3.467  0.6213  0.6466  0.4646
   68MOL0     C 9107   8.302  10.956   3.552 -0.6861  0.0900 -0.3066
   68MOL0     C 9108   8.362  11.074   3.466 -0.0308 -0.2662  0.8702
   68MOL0     C 9109   8.395  11.181   3.553  0.1397 -0.6177  1.2392
   68MOL0     C 9110   8.455  11.262   3.617 -0.3847 -0.0626 -0.5740
   68MOL0     C 9111   8.041  10.509   3.634  0.0128 -0.3254  0.0742
   68MOL0     C 9112   7.953  10.400   3.654  0.0648 -0.3721 -0.6320
   68MOL0     H 9113   7.582  10.083   3.524 -0.7900  0.0047 -0.0214
   68MOL0     H 9114   7.390   9.933   3.550 -0.8173  0.1531 -0.7153
   68MOL0     H 9115   7.137  10.006   3.928 -3.2159 -1.3863  1.7290
   68MOL0     H 9116   7.014  10.033   3.801  0.1539  1.2402  1.7464
   68MOL0     H 9117   7.134   9.766   3.896  2.4283  0.0396 -3.1366
   68MOL0     H 9118   6.985   9.841   3.951  1.1320 -0.2211  0.0370
   68MOL0     H 9119   6.859   9.816   3.763 -1.1700 -1.2230 -2.8135
   68MOL0     H 9120   6.979   9.782   3.643  0.2682 -2.2308 -0.2701
   68MOL0     H 9121   6.966   9.569   3.659 -0.3249 -3.4511  0.0498
   68MOL0     H 9122   6.982   9.565   3.839 -1.0017 -1.7893 -1.1544
   68MOL0     H 9123   6.750   9.656   3.857 -0.6567  0.3819 -0.7438
   68MOL0     H 9124   6.723   9.620   3.690  2.8381 -0.7326 -2.2167
   68MOL0     H 9125   6.816   9.401   3.869  0.6821  0.0899 -0.8706
   68MOL0     H 9126   6.649   9.432   3.819  0.9270 -4.3640 -1.1739
   68MOL0     H 9127   6.733   9.418   3.586  0.6183  3.7645  2.4030
   68MOL0     H 9128   6.890   9.371   3.666 -0.6103 -0.6709  1.6097
   68MOL0     H 9129   6.765   9.173   3.768 -1.9807  0.9864  0.4713
   68MOL0     H 9130   6.793   9.165   3.594 -0.2667  0.8256 -1.3456
   68MOL0     H 9131   6.516   9.140   3.839 -2.8245  1.2118  1.0723
   68MOL0     H 9132   6.162   9.213   3.653  2.4638  2.4618 -0.5873
   68MOL0     H 9133   6.215   9.064   3.743  2.2848 -0.6946 -3.4921
   68MOL0     H 9134   6.228   9.349   3.869  4.0819 -0.3178 -0.9633
   68MOL0     H 9135   6.245   9.188   3.939  3.4626  1.3582 -1.8041
   68MOL0     H 9136   5.991   9.147   3.866 -1.2850  0.0169 -0.8955
   68MOL0     H 9137   5.991   9.307   3.809  2.1163 -1.8533 -1.4686
   68MOL0     H 9138   6.049   9.382   4.050  2.4123 -0.3910  0.4571
   68MOL0     H 9139   6.083   9.229   4.101 -0.2035 -1.6276 -1.6022
   68MOL0     H 9140   5.973   9.460   4.243  0.1902 -0.6753  1.2878
   68MOL0     H 9141   5.862   9.621   4.459 -2.1381 -1.1809 -0.4691
   68MOL0     H 9142   5.945   9.510   4.578  2.6189 -1.4164 -0.3232
   68MOL0     H 9143   6.021   9.549   4.426  0.3855  0.3491  0.5915
   68MOL0     H 9144   5.626   9.788   4.716 -0.1254 -0.7749 -0.7213
   68MOL0     H 9145   5.511   9.851   4.916  3.5833  0.6896 -1.7100
   68MOL0     H 9146   5.494   9.880   5.164  0.0867 -2.2970  3.2373
   68MOL0     H 9147   5.346   9.885   5.077  0.9838  0.5539 -0.0673
   68MOL0     H 9148   5.246   9.749   5.280 -0.3981  1.9720 -1.9223
   68MOL0     H 9149   5.405   9.749   5.354  0.5513  1.9639  1.6386
   68MOL0     H 9150   5.272  10.015   5.270  1.4525 -1.1965 -0.9645
   68MOL0     H 9151   5.399  10.006   5.371 -0.5828  0.9893 -0.1431
   68MOL0     H 9152   5.126   9.887   5.447 -0.6059  1.0997 -0.5904
   68MOL0     H 9153   5.258   9.873   5.550 -1.3411  0.5290 -0.2360
   68MOL0     H 9154   5.162  10.157   5.448 -0.7917 -0.2064  1.1807
   68MOL0     H 9155   5.273  10.117   5.580 -1.3937  1.5928  0.0540
   68MOL0     H 9156   5.062  10.178   5.676 -1.1140 -0.0675  0.2688
   68MOL0     H 9157   4.980  10.048   5.599 -0.6792 -2.7163  2.6945
   68MOL0     H 9158   5.221   9.950   5.777  0.1306  0.2666 -0.6169
   68MOL0     H 9159   5.074   9.864   5.725 -0.4499  0.9755  0.1966
   68MOL0     H 9160   5.069   9.906   5.949 -0.3762 -1.2705 -0.6517
   68MOL0     H 9161   4.940   9.985   5.872  0.8811  1.3837 -0.3145
   68MOL0     H 9162   5.525   9.449   5.061  1.0160 -1.6923 -0.8447
   68MOL0     H 9163   5.618   9.372   4.862 -0.1396 -0.4200  2.7442
   68MOL0     H 9164   5.554   9.245   4.382 -0.9783  0.7804 -1.1075
   68MOL0     H 9165   5.669   9.195   4.152 -1.2069 -0.4105  1.1308
   68MOL0     H 9166   7.216  10.224   3.816 -0.7784 -0.7617 -0.3923
   68MOL0     H 9167   7.406  10.368   3.782 -0.1554 -1.8424  1.6823
   68MOL0     H 9168   7.659  10.566   3.666  0.0867 -1.7910  1.4793
   68MOL0     H 9169   7.798  10.752   3.603 -2.5888 -0.3850  0.1141
   68MOL0     H 9170   8.270  10.704   3.634  1.4080 -0.2079 -0.6075
   68MOL0     H 9171   8.203  10.638   3.488 -0.5474  0.0676 -1.3852
   68MOL0     H 9172   8.194  10.889   3.389  0.0137 -1.4791 -0.2412
   68MOL0     H 9173   8.341  10.792   3.423 -1.1633 -2.2863  0.5155
   68MOL0     H 9174   8.377  10.911   3.618 -0.0330  0.2258 -0.9385
   68MOL0     H 9175   8.222  10.994   3.616 -1.7890  0.6566 -1.9379
   68MOL0     H 9176   8.291  11.096   3.385  1.6932 -1.5963 -1.1067
   68MOL0     H 9177   8.443  11.037   3.403 -0.2482  1.6826 -0.6557
   68MOL0     H 9178   8.499  11.338   3.678 -1.5133  2.0116 -2.2134
   68MOL0     H 9179   8.147  10.488   3.625  0.4893  2.3088 -1.2890
   68MOL0     H 9180   8.001  10.304   3.674  2.8070  1.0225  0.1061
   69MOL0     O 9181   2.460   6.360   0.024 -0.4162  1.3905 -0.3686
   69MOL0     C 9182   2.355   6.323  -0.024  0.1286  1.1572  0.0184
   69MOL0     O 9183   2.290   6.207   0.008 -0.5658  0.8915 -0.2181
   69MOL0     C 9184   2.362   6.123   0.090 -0.3639  0.1067  0.1177
   69MOL0     C 9185   2.314   6.076   0.211 -0.4829 -0.7819 -0.8832
   69MOL0     C 9186   2.384   5.987   0.298 -0.3222  0.5306 -0.0517
   69MOL0     C 9187   2.508   5.942   0.256  0.0452  0.3500 -0.0695
   69MOL0     O 9188   2.571   5.851   0.333 -0.2359  0.3753  0.3860
   69MOL0     C 9189   2.713   5.865   0.361  0.5334 -0.2545  0.1813
   69MOL0     C 9190   2.743   5.770   0.474  0.8338 -0.9459 -0.0508
   69MOL0     C 9191   2.670   5.792   0.599 -0.4317  0.1846  0.2883
   69MOL0     C 9192   2.717   5.709   0.714 -0.2346  0.1791  0.2579
   69MOL0     C 9193   2.621   5.728   0.825 -0.4856  0.3354  0.3664
   69MOL0     C 9194   2.648   5.632   0.944  0.4242 -0.2677  1.3350
   69MOL0     C 9195   2.544   5.645   1.059  0.0050  0.1695 -0.3716
   69MOL0     C 9196   2.563   5.778   1.129  0.2755 -0.3166  0.4869
   69MOL0     N 9197   2.696   5.803   1.200  0.0577 -1.3869 -0.1572
   69MOL0     C 9198   2.726   5.749   1.324 -0.1005  0.5218  0.5380
   69MOL0     C 9199   2.826   5.821   1.375  0.1368  0.3882 -1.3679
   69MOL0     C 9200   2.875   5.812   1.522  0.3053 -0.8200 -0.6328
   69MOL0     C 9201   3.024   5.776   1.527 -0.6072  0.4996 -0.3911
   69MOL0     C 9202   3.040   5.640   1.466 -0.5765  0.1652  0.5414
   69MOL0     C 9203   3.192   5.619   1.456  0.7851  0.4359  0.3193
   69MOL0     O 9204   3.207   5.481   1.416  0.2715 -0.9305  0.0208
   69MOL0     C 9205   3.322   5.433   1.366  0.1529 -0.6564  0.2125
   69MOL0     C 9206   3.363   5.311   1.399  0.6161 -0.9084 -0.7716
   69MOL0     C 9207   3.475   5.241   1.349  0.0298  0.5493 -0.1378
   69MOL0     C 9208   3.524   5.119   1.412 -0.6631 -0.0195  0.0669
   69MOL0     C 9209   3.557   5.320   1.260 -0.0359  0.9921  0.1724
   69MOL0     C 9210   3.679   5.260   1.191  0.2351 -0.7739 -0.4951
   69MOL0     O 9211   3.692   5.131   1.189  0.4227 -0.1466 -1.0497
   69MOL0     C 9212   3.788   5.067   1.112  0.4928 -0.0981  0.0779
   69MOL0     C 9213   3.882   4.989   1.158 -0.5960  0.4611  0.0886
   69MOL0     C 9214   3.975   4.919   1.071  0.4361  0.4183 -1.0534
   69MOL0     C 9215   3.957   4.922   0.935  0.3954 -0.3293  0.2373
   69MOL0     O 9216   4.056   4.873   0.862 -0.8329 -0.1969 -0.0675
   69MOL0     C 9217   4.014   4.759   0.783  0.0794  1.1030  0.5152
   69MOL0     C 9218   4.050   4.639   0.860 -0.4104 -0.5453 -0.9130
   69MOL0     C 9219   3.999   4.518   0.796 -0.0770 -0.3857  0.4455
   69MOL0     C 9220   3.858   4.471   0.838  0.2466  0.2444  0.0921
   69MOL0     C 9221   3.817   4.324   0.794 -0.4201 -0.2356 -0.6579
   69MOL0     C 9222   3.798   4.322   0.641 -0.5066 -1.5050 -0.8936
   69MOL0     C 9223   3.766   4.187   0.605  0.1052  0.2991 -0.3231
   69MOL0     C 9224   3.689   4.178   0.467 -0.6018  0.5089 -0.2992
   69MOL0    Cl 9225   3.766   4.266   0.335 -0.8163 -0.2291 -0.6303
   69MOL0     C 9226   3.838   4.989   0.885  0.5296 -0.9543 -0.4025
   69MOL0     C 9227   3.761   5.054   0.981  0.2709 -1.1500  0.1041
   69MOL0     O 9228   3.760   5.341   1.157 -0.2358  0.4382 -0.6846
   69MOL0     C 9229   3.513   5.445   1.214 -0.5554  0.3959  0.2205
   69MOL0     C 9230   3.395   5.498   1.271  0.4648 -0.7476 -0.4277
   69MOL0     N 9231   2.864   5.911   1.281  0.0489  0.3690  0.8206
   69MOL0     N 9232   2.792   5.899   1.178 -0.3914  0.6925  0.8159
   69MOL0     C 9233   2.558   5.982   0.129  0.5087 -0.1089  0.2967
   69MOL0     C 9234   2.481   6.072   0.050  0.4416 -0.7459  0.7667
   69MOL0     C 9235   2.292   6.416  -0.125 -0.5970 -0.3209 -0.0339
   69MOL0     C 9236   2.156   6.401  -0.160  0.2063 -0.1880  0.5500
   69MOL0     C 9237   2.100   6.482  -0.260  0.0712  0.3554  0.1543
   69MOL0     C 9238   2.182   6.571  -0.331  0.1138  0.0751 -0.2783
   69MOL0     O 9239   2.104   6.633  -0.425  0.8552 -0.2488  0.3605
   69MOL0     C 9240   2.064   6.760  -0.382 -0.8700  0.4982  0.5273
   69MOL0     C 9241   1.958   6.818  -0.479 -0.7552 -0.9110 -0.3308
   69MOL0     C 9242   1.955   6.977  -0.463 -0.2145  0.2775  0.4494
   69MOL0     C 9243   1.898   7.042  -0.586  0.1522 -0.2724  0.8981
   69MOL0     C 9244   1.754   6.996  -0.612 -1.0180 -0.6565  0.1464
   69MOL0     C 9245   1.646   7.003  -0.658  0.6825  0.2438  0.9659
   69MOL0     C 9246   2.315   6.583  -0.301  0.0995  1.0762 -0.4107
   69MOL0     C 9247   2.376   6.513  -0.197  0.0603 -0.6547  0.1140
   69MOL0     H 9248   2.216   6.109   0.244 -0.6154 -2.5148  0.5949
   69MOL0     H 9249   2.344   5.947   0.391 -1.0029  2.0246  0.3298
   69MOL0     H 9250   2.764   5.839   0.268 -2.8728 -1.7573 -1.4079
   69MOL0     H 9251   2.734   5.965   0.402 -2.5157 -0.5700  2.8430
   69MOL0     H 9252   2.718   5.670   0.437  1.7166 -1.3839  0.4900
   69MOL0     H 9253   2.851   5.780   0.492  0.5023  1.2350  1.0009
   69MOL0     H 9254   2.694   5.896   0.624  2.2985  0.1089 -1.5205
   69MOL0     H 9255   2.562   5.795   0.581  0.1427  1.4309 -4.3265
   69MOL0     H 9256   2.708   5.605   0.681 -1.1311  0.8138 -1.6043
   69MOL0     H 9257   2.820   5.723   0.748 -1.1970 -0.5357  3.8699
   69MOL0     H 9258   2.609   5.834   0.848 -3.8796  0.1743 -0.2314
   69MOL0     H 9259   2.522   5.710   0.784  0.0926  1.7609 -1.8977
   69MOL0     H 9260   2.658   5.535   0.893  2.2245  1.4609 -1.9680
   69MOL0     H 9261   2.751   5.658   0.972  0.2562 -0.9570  2.6508
   69MOL0     H 9262   2.445   5.622   1.020  0.4823 -1.0467 -0.9141
   69MOL0     H 9263   2.575   5.572   1.134  1.9051  1.3435  0.0718
   69MOL0     H 9264   2.479   5.796   1.196  0.3620 -3.5387  1.6428
   69MOL0     H 9265   2.553   5.848   1.046  3.1262 -2.6471 -2.0765
   69MOL0     H 9266   2.658   5.681   1.375 -1.6698  1.8717  0.3367
   69MOL0     H 9267   2.867   5.912   1.566  2.7879 -0.9693  0.2790
   69MOL0     H 9268   2.817   5.746   1.588 -0.0092 -0.8776 -0.9626
   69MOL0     H 9269   3.068   5.783   1.627  1.5198 -1.0692 -1.1415
   69MOL0     H 9270   3.082   5.849   1.470 -1.4892  1.5031 -0.0430
   69MOL0     H 9271   3.006   5.648   1.363 -1.2704  0.6511  0.8034
   69MOL0     H 9272   2.986   5.558   1.514 -1.3676 -0.8252 -1.8725
   69MOL0     H 9273   3.252   5.655   1.539 -0.4996  2.6178  0.3872
   69MOL0     H 9274   3.231   5.678   1.372  1.6637 -1.0101 -0.3177
   69MOL0     H 9275   3.309   5.257   1.476 -1.0898 -1.5834 -2.3568
   69MOL0     H 9276   3.526   5.046   1.331  2.6341  0.6278 -0.5960
   69MOL0     H 9277   3.625   5.136   1.452 -0.6890 -0.1473  0.1863
   69MOL0     H 9278   3.457   5.083   1.491  0.3133  1.4081  1.6283
   69MOL0     H 9279   3.903   4.982   1.265  1.6344  2.5228 -0.1247
   69MOL0     H 9280   4.061   4.872   1.117 -1.9883 -1.7975  1.5215
   69MOL0     H 9281   3.907   4.769   0.760 -0.5231  3.6221  3.7077
   69MOL0     H 9282   4.078   4.762   0.694  0.0690 -0.1973  0.4474
   69MOL0     H 9283   4.160   4.644   0.862 -0.4648  1.1138  1.3791
   69MOL0     H 9284   4.020   4.634   0.965  0.3233 -1.4584 -0.7282
   69MOL0     H 9285   4.074   4.440   0.808 -1.1028 -1.3251  0.9415
   69MOL0     H 9286   3.999   4.538   0.688  3.0829 -1.7203  0.0910
   69MOL0     H 9287   3.856   4.472   0.948 -3.5048 -4.1486  0.3626
   69MOL0     H 9288   3.786   4.545   0.801  3.5377  4.1978  0.9104
   69MOL0     H 9289   3.724   4.291   0.842  0.7691 -2.6537  0.1503
   69MOL0     H 9290   3.890   4.250   0.827  0.0324  0.3420 -0.3491
   69MOL0     H 9291   3.705   4.377   0.625  0.6282  0.1218 -2.3573
   69MOL0     H 9292   3.882   4.359   0.581 -1.6295  1.9576 -0.5368
   69MOL0     H 9293   3.706   4.136   0.681  0.5568  0.9552  0.4757
   69MOL0     H 9294   3.852   4.121   0.598  0.0811  0.3474 -1.2593
   69MOL0     H 9295   3.588   4.215   0.485  0.1305  2.4999  0.0028
   69MOL0     H 9296   3.694   4.070   0.449  1.3688 -0.0254  2.7039
   69MOL0     H 9297   3.817   5.017   0.783 -3.3379 -0.3543  0.4022
   69MOL0     H 9298   3.667   5.098   0.950  1.0232 -1.1367 -2.4404
   69MOL0     H 9299   3.568   5.501   1.139  4.1675 -2.5652  1.0212
   69MOL0     H 9300   3.354   5.589   1.229  1.4142 -0.8664 -1.6945
   69MOL0     H 9301   2.653   5.947   0.089  0.4806  1.3062 -1.0760
   69MOL0     H 9302   2.516   6.104  -0.048 -4.2179 -0.6889 -1.1164
   69MOL0     H 9303   2.101   6.333  -0.095  0.2185 -1.5241 -0.7657
   69MOL0     H 9304   1.994   6.485  -0.286  0.3706 -0.1124 -1.1943
   69MOL0     H 9305   2.014   6.755  -0.285 -0.7876 -1.4032  0.5090
   69MOL0     H 9306   2.159   6.811  -0.366 -0.7913  0.7465 -0.6282
   69MOL0     H 9307   1.859   6.780  -0.452 -1.5012  0.4707 -1.0421
   69MOL0     H 9308   1.973   6.801  -0.586 -0.0171  4.1475 -1.2992
   69MOL0     H 9309   2.061   7.004  -0.463 -0.5290  1.6294 -0.6272
   69MOL0     H 9310   1.907   7.004  -0.369 -0.4862  0.4402  0.2658
   69MOL0     H 9311   1.955   7.025  -0.677 -2.2999  1.9575 -1.2267
   69MOL0     H 9312   1.898   7.150  -0.573 -0.6816  0.0746 -1.5434
   69MOL0     H 9313   1.556   7.023  -0.712  0.7104 -2.2733 -0.1428
   69MOL0     H 9314   2.383   6.653  -0.348  5.3496 -2.0428  1.7404
   69MOL0     H 9315   2.481   6.523  -0.171  0.4910 -5.6753  1.3931
   70MOL0     O 9316  10.562   0.774   1.592 -0.2415  0.9929 -0.4460
   70MOL0     C 9317  10.554   0.722   1.703  0.9125  0.0825 -0.3828
   70MOL0     O 9318  10.498   0.776   1.818  0.3767  0.4807 -0.2871
   70MOL0     C 9319  10.408   0.878   1.799  0.4479  0.4627 -1.0539
   70MOL0     C 9320  10.422   1.009   1.858 -0.1867  0.7099 -0.3164
   70MOL0     C 9321  10.324   1.108   1.856 -0.1845 -0.0259  0.8863
   70MOL0     C 9322  10.201   1.084   1.788 -0.3372 -0.0269  0.0718
   70MOL0     O 9323  10.114   1.190   1.782 -0.0826  0.2691  0.0010
   70MOL0     C 9324  10.011   1.189   1.685  0.7449  0.3091 -0.2042
   70MOL0     C 9325  10.047   1.198   1.541  0.1358 -0.1469  0.3809
   70MOL0     C 9326  10.106   1.337   1.515 -0.1028  0.0355  0.0538
   70MOL0     C 9327  10.112   1.366   1.364  0.7682 -0.0157  0.4949
   70MOL0     C 9328  10.164   1.506   1.325  0.0977  0.1799 -0.5391
   70MOL0     C 9329  10.313   1.525   1.339  0.0484 -0.5898 -0.5473
   70MOL0     C 9330  10.358   1.664   1.302  0.3028  0.4604  0.1831
   70MOL0     C 9331  10.331   1.773   1.406 -0.0732 -0.6118 -0.8345
   70MOL0     N 9332  10.378   1.907   1.369 -1.0149 -0.4830 -0.0670
   70MOL0     C 9333  10.503   1.960   1.381 -0.5029 -0.7956  0.8721
   70MOL0     C 9334  10.505   2.094   1.340  0.3289 -0.6379  1.3391
   70MOL0     C 9335  10.625   2.178   1.322 -0.1192  0.3273  0.0614
   70MOL0     C 9336  10.633   2.251   1.179 -0.3440 -0.4114 -0.0394
   70MOL0     C 9337  10.598   2.396   1.172  0.1720  0.4759  0.7428
   70MOL0     C 9338  10.457   2.430   1.204  0.2301  1.1326 -0.1960
   70MOL0     O 9339  10.441   2.566   1.233 -0.0088  0.1028 -0.3751
   70MOL0     C 9340  10.305   2.598   1.260 -0.4773  0.3516 -0.1461
   70MOL0     C 9341  10.273   2.731   1.292  0.0837  0.2401  0.6224
   70MOL0     C 9342  10.127   2.773   1.320 -1.2433  0.4671 -0.0422
   70MOL0     C 9343  10.105   2.918   1.346  0.4134 -0.4063 -0.5641
   70MOL0     C 9344  10.032   2.670   1.328  0.2943 -0.2698  0.2886
   70MOL0     C 9345   9.889   2.689   1.377 -0.3176  1.1828  0.7478
   70MOL0     O 9346   9.834   2.573   1.429  0.2739  0.1419 -0.0206
   70MOL0     C 9347   9.698   2.565   1.450 -0.7138 -0.0697 -0.3688
   70MOL0     C 9348   9.637   2.462   1.378  0.1381 -0.2375 -0.2139
   70MOL0     C 9349   9.500   2.424   1.407 -0.3813  0.8183 -0.5915
   70MOL0     C 9350   9.425   2.488   1.506 -0.5560  0.2081  0.3733
   70MOL0     O 9351   9.299   2.441   1.529  0.0559 -0.3235 -0.4307
   70MOL0     C 9352   9.206   2.495   1.628  0.0423 -0.4391  0.6994
   70MOL0     C 9353   9.059   2.450   1.627  0.0977  0.6843 -0.1877
   70MOL0     C 9354   8.985   2.492   1.497 -0.6804 -1.0007  0.6512
   70MOL0     C 9355   8.834   2.501   1.516 -0.1352 -1.0843 -0.5531
   70MOL0     C 9356   8.756   2.492   1.389  0.4395  0.2107 -0.2831
   70MOL0     C 9357   8.607   2.498   1.426 -0.4161  0.1692  0.1604
   70MOL0     C 9358   8.507   2.495   1.305 -0.1408  0.7898 -1.1774
   70MOL0     C 9359   8.546   2.374   1.216 -0.2149 -0.4722 -0.1342
   70MOL0    Cl 9360   8.502   2.216   1.292  0.3885 -0.5183  0.5837
   70MOL0     C 9361   9.494   2.593   1.577 -0.1137 -0.5655 -0.5909
   70MOL0     C 9362   9.629   2.619   1.552 -0.5001  0.9547  0.2101
   70MOL0     O 9363   9.825   2.794   1.360 -0.3801 -0.7800  0.0192
   70MOL0     C 9364  10.072   2.544   1.297 -0.3168 -0.2836 -0.1867
   70MOL0     C 9365  10.206   2.507   1.270  0.2392  0.5869  0.4637
   70MOL0     N 9366  10.374   2.117   1.304 -0.0745 -0.2360 -0.3521
   70MOL0     N 9367  10.306   2.004   1.318 -0.9799 -0.2182 -0.6348
   70MOL0     C 9368  10.180   0.960   1.732  0.2645  0.9923  0.6384
   70MOL0     C 9369  10.283   0.856   1.737 -0.1174  0.1584 -0.8702
   70MOL0     C 9370  10.633   0.598   1.729  0.6448  0.3574 -0.0533
   70MOL0     C 9371  10.596   0.514   1.839  0.2067  0.2521  0.0841
   70MOL0     C 9372  10.664   0.394   1.855 -0.8382  0.4308 -0.0712
   70MOL0     C 9373  10.782   0.357   1.780 -0.2651  1.5329  0.0030
   70MOL0     O 9374  10.847   0.236   1.798  0.4593 -0.3349  0.1155
   70MOL0     C 9375  10.947   0.176   1.709  0.6669 -0.1352 -0.1103
   70MOL0     C 9376  11.080   0.193   1.789  0.5333 -0.1347  0.6714
   70MOL0     C 9377  11.173   0.072   1.770  0.4631 -0.4655 -1.4231
   70MOL0     C 9378  11.313   0.102   1.838 -0.1206  0.0683 -0.2918
   70MOL0     C 9379  11.417  -0.007   1.812  1.6777 -0.3380  0.2083
   70MOL0     C 9380  11.509  -0.092   1.803  0.5904  0.3584  0.1570
   70MOL0     C 9381  10.818   0.442   1.677 -0.4215  0.1688 -0.2741
   70MOL0     C 9382  10.751   0.567   1.652 -0.5661 -0.4947 -0.3537
   70MOL0     H 9383  10.519   1.025   1.904  2.4306 -1.2921 -4.4540
   70MOL0     H 9384  10.340   1.209   1.895  0.2665 -1.1116  3.8043
   70MOL0     H 9385   9.946   1.103   1.698  1.7698 -0.3308  0.9626
   70MOL0     H 9386   9.949   1.276   1.708  0.8238  1.7012 -4.4267
   70MOL0     H 9387  10.105   1.111   1.507  1.5239  0.1329  1.9263
   70MOL0     H 9388   9.954   1.184   1.486  0.4433  0.2970 -0.2657
   70MOL0     H 9389  10.055   1.416   1.571  0.5445  1.5877 -1.4405
   70MOL0     H 9390  10.210   1.337   1.548 -0.5582  0.5809  1.5592
   70MOL0     H 9391  10.185   1.294   1.326 -0.9152 -1.6830  0.2708
   70MOL0     H 9392  10.017   1.347   1.315  0.0896  2.7112  0.5900
   70MOL0     H 9393  10.145   1.530   1.219 -1.8497  2.2487  0.1781
   70MOL0     H 9394  10.104   1.578   1.381  2.1424  0.5091  1.3461
   70MOL0     H 9395  10.333   1.515   1.446 -3.6194 -2.0911  0.1262
   70MOL0     H 9396  10.373   1.445   1.295  1.0107 -0.8096  1.0957
   70MOL0     H 9397  10.466   1.660   1.286  0.2132  0.4688 -0.4221
   70MOL0     H 9398  10.305   1.693   1.212 -0.9376 -0.1243  0.7034
   70MOL0     H 9399  10.377   1.748   1.502  2.9184  3.5839 -0.9290
   70MOL0     H 9400  10.224   1.788   1.425 -0.1675 -0.0603 -1.7398
   70MOL0     H 9401  10.588   1.905   1.418  0.8957 -0.7762 -2.0905
   70MOL0     H 9402  10.629   2.255   1.400 -0.3723  1.0824 -0.6586
   70MOL0     H 9403  10.709   2.116   1.355  0.9961  0.8897 -1.6060
   70MOL0     H 9404  10.587   2.189   1.101  1.7381 -2.5793  0.3470
   70MOL0     H 9405  10.739   2.250   1.149 -0.9643  0.5916 -2.5452
   70MOL0     H 9406  10.616   2.421   1.067  0.6091  0.0666  0.7177
   70MOL0     H 9407  10.672   2.458   1.224  0.7664 -0.0101  0.4924
   70MOL0     H 9408  10.432   2.375   1.296  0.6389 -0.7545 -1.1621
   70MOL0     H 9409  10.408   2.388   1.116 -0.3704 -0.9394  1.0562
   70MOL0     H 9410  10.350   2.806   1.277  0.0084  0.0651 -0.7469
   70MOL0     H 9411  10.040   2.968   1.273  0.1736 -1.7252 -1.2818
   70MOL0     H 9412  10.067   2.935   1.447 -1.8611 -1.0441 -1.2608
   70MOL0     H 9413  10.197   2.975   1.333  0.2435 -0.6613 -3.8255
   70MOL0     H 9414   9.701   2.404   1.312  4.6958  1.7993  1.9911
   70MOL0     H 9415   9.460   2.329   1.372 -3.0005  1.2096  0.9733
   70MOL0     H 9416   9.245   2.480   1.729  2.5566 -1.1196 -0.2910
   70MOL0     H 9417   9.204   2.602   1.603 -2.8241 -0.3540  1.0080
   70MOL0     H 9418   9.068   2.342   1.638  4.3565  0.9709  1.1905
   70MOL0     H 9419   9.018   2.484   1.723 -0.6724  0.7429 -0.5352
   70MOL0     H 9420   9.005   2.418   1.420 -0.0287  1.7021 -1.9449
   70MOL0     H 9421   9.008   2.594   1.466  0.8943 -1.7840 -0.8908
   70MOL0     H 9422   8.798   2.415   1.572 -0.4343 -1.1338 -0.8161
   70MOL0     H 9423   8.823   2.590   1.578  4.8770 -1.3957  1.2295
   70MOL0     H 9424   8.783   2.403   1.332 -0.7210  0.8881 -1.9786
   70MOL0     H 9425   8.783   2.578   1.327  4.8251  0.3421  1.4215
   70MOL0     H 9426   8.589   2.427   1.507  5.6957 -0.7261  1.1579
   70MOL0     H 9427   8.596   2.598   1.471  0.8206  1.7285 -2.7212
   70MOL0     H 9428   8.502   2.595   1.261  0.9738  0.9723 -0.9293
   70MOL0     H 9429   8.405   2.478   1.340 -1.0577  2.3359 -2.9682
   70MOL0     H 9430   8.651   2.375   1.184 -0.1381 -0.8271  0.1033
   70MOL0     H 9431   8.485   2.384   1.126 -1.8002  2.1617  1.1304
   70MOL0     H 9432   9.457   2.647   1.663  2.2491  1.1065 -0.5215
   70MOL0     H 9433   9.674   2.697   1.614  1.0574  0.8027 -0.6826
   70MOL0     H 9434   9.994   2.468   1.293 -1.0709  0.5252 -2.1053
   70MOL0     H 9435  10.212   2.404   1.238  0.2918  0.4096  1.0477
   70MOL0     H 9436  10.085   0.924   1.695 -0.2051  0.1142  2.5588
   70MOL0     H 9437  10.264   0.761   1.689 -1.5344  2.2218 -4.7936
   70MOL0     H 9438  10.518   0.547   1.908  2.3352  0.7713  2.3771
   70MOL0     H 9439  10.640   0.335   1.943 -2.3326  0.6687 -0.3029
   70MOL0     H 9440  10.932   0.068   1.706 -0.6071  0.0346 -0.2715
   70MOL0     H 9441  10.950   0.208   1.605  2.9492 -2.8109 -1.0061
   70MOL0     H 9442  11.064   0.205   1.896 -1.7813  3.9195  0.1014
   70MOL0     H 9443  11.127   0.280   1.741 -1.7713  1.4644  1.1334
   70MOL0     H 9444  11.177   0.049   1.663 -3.3992  0.7697 -1.9838
   70MOL0     H 9445  11.130  -0.010   1.828 -1.4080  1.6243  0.3307
   70MOL0     H 9446  11.296   0.112   1.946  6.0211  0.9059  0.9748
   70MOL0     H 9447  11.359   0.198   1.813 -0.6335  0.9463  1.8555
   70MOL0     H 9448  11.596  -0.154   1.809  0.4895  0.3520  2.8215
   70MOL0     H 9449  10.900   0.411   1.613 -1.4144 -1.2141 -0.9268
   70MOL0     H 9450  10.787   0.629   1.570  1.3271 -1.7063 -0.5127
   71MOL0     O 9451   1.425   2.686   0.549  0.4149  0.4699 -0.0924
   71MOL0     C 9452   1.492   2.583   0.501 -0.1957 -0.5609 -0.9898
   71MOL0     O 9453   1.486   2.451   0.553 -0.4463 -0.5318 -0.0902
   71MOL0     C 9454   1.373   2.405   0.620 -0.3079  0.7716  0.4196
   71MOL0     C 9455   1.251   2.463   0.645 -0.8605 -0.8276 -0.3897
   71MOL0     C 9456   1.152   2.416   0.725 -0.4809 -0.9412  0.0356
   71MOL0     C 9457   1.169   2.289   0.782  0.4610 -0.2479  1.0208
   71MOL0     O 9458   1.062   2.227   0.854  0.3991  0.2064  0.2127
   71MOL0     C 9459   1.035   2.087   0.840  0.7128  0.2987 -0.5659
   71MOL0     C 9460   0.915   2.052   0.927 -0.1750  0.1438 -0.2635
   71MOL0     C 9461   0.893   1.900   0.917  0.5084 -1.0028  0.2371
   71MOL0     C 9462   0.746   1.871   0.950  0.2834  0.9247  0.6936
   71MOL0     C 9463   0.703   1.731   0.922  0.2163 -0.4310  0.8268
   71MOL0     C 9464   0.558   1.707   0.954 -0.1606 -0.0481 -0.2928
   71MOL0     C 9465   0.534   1.558   0.961 -0.1537  0.0027  0.5696
   71MOL0     C 9466   0.417   1.528   1.051 -0.0084 -0.3494  0.0240
   71MOL0     N 9467   0.286   1.547   0.999 -0.9980  0.0996 -0.6445
   71MOL0     C 9468   0.232   1.665   0.955 -0.3093  0.3527  0.2141
   71MOL0     C 9469   0.101   1.644   0.911 -0.3284  0.7043  0.6070
   71MOL0     C 9470  -0.007   1.733   0.863  0.5086  0.2775 -0.7611
   71MOL0     C 9471  -0.055   1.688   0.713 -0.4935 -0.6424 -0.2837
   71MOL0     C 9472  -0.006   1.788   0.606 -0.2263 -0.0991 -1.5530
   71MOL0     C 9473   0.139   1.756   0.556  0.2229  0.3073  0.2867
   71MOL0     O 9474   0.153   1.760   0.413 -0.2286  0.8198  0.8026
   71MOL0     C 9475   0.169   1.870   0.335 -0.2595  0.1258 -0.5664
   71MOL0     C 9476   0.132   1.854   0.199  0.9097 -0.1637  0.4137
   71MOL0     C 9477   0.119   1.966   0.114 -0.1879 -0.5362  0.0225
   71MOL0     C 9478   0.088   1.948  -0.024  0.5842 -0.7576 -0.4796
   71MOL0     C 9479   0.157   2.095   0.162 -0.8885  0.0209 -0.4725
   71MOL0     C 9480   0.159   2.220   0.085  0.1733 -0.1132  0.4690
   71MOL0     O 9481   0.171   2.342   0.156  0.6567  0.4387 -0.2374
   71MOL0     C 9482   0.231   2.455   0.102  0.4179 -1.0413 -0.3857
   71MOL0     C 9483   0.361   2.480   0.126  0.1331 -0.3569  0.2637
   71MOL0     C 9484   0.430   2.587   0.073  0.7540 -0.2657 -0.3495
   71MOL0     C 9485   0.359   2.685   0.012 -0.6511  0.7005  0.6992
   71MOL0     O 9486   0.412   2.806  -0.027  0.1839 -0.5290 -0.1080
   71MOL0     C 9487   0.489   2.806  -0.145 -0.4637  0.2250  0.2624
   71MOL0     C 9488   0.416   2.880  -0.259  1.0808  0.0819  1.1237
   71MOL0     C 9489   0.376   3.019  -0.218  0.4319 -0.1924 -0.2052
   71MOL0     C 9490   0.376   3.111  -0.345  0.8588 -0.2879 -0.7817
   71MOL0     C 9491   0.313   3.237  -0.299 -0.9781 -0.1502 -0.5410
   71MOL0     C 9492   0.305   3.332  -0.422  0.8916  0.1133 -0.5181
   71MOL0     C 9493   0.251   3.470  -0.407  0.0083  0.7507  0.1114
   71MOL0     C 9494   0.206   3.521  -0.547  0.1173  0.1328 -0.2675
   71MOL0    Cl 9495   0.349   3.585  -0.618 -0.7654  0.4153 -0.6716
   71MOL0     C 9496   0.225   2.659  -0.021 -1.0488 -0.3273  0.5016
   71MOL0     C 9497   0.163   2.548   0.022  0.2179  0.8978 -0.4524
   71MOL0     O 9498   0.173   2.213  -0.034 -0.6442 -0.3990  0.3603
   71MOL0     C 9499   0.208   2.106   0.293 -0.6959 -0.2975 -0.6465
   71MOL0     C 9500   0.212   1.996   0.382  0.9464  0.8741 -0.8413
   71MOL0     N 9501   0.093   1.502   0.916  0.2844 -0.2707  0.7985
   71MOL0     N 9502   0.203   1.452   0.959 -0.2450  0.6338 -0.7624
   71MOL0     C 9503   1.285   2.213   0.744  0.4325 -0.0100 -0.2542
   71MOL0     C 9504   1.385   2.279   0.666  0.2874 -0.3741  0.1138
   71MOL0     C 9505   1.608   2.616   0.410  0.1196 -0.0594  0.5057
   71MOL0     C 9506   1.611   2.747   0.341  0.1844  1.2539 -0.6256
   71MOL0     C 9507   1.728   2.764   0.258  0.1520 -0.9277 -1.3454
   71MOL0     C 9508   1.828   2.664   0.247 -0.4328  0.0815  0.3864
   71MOL0     O 9509   1.947   2.676   0.170 -0.2749 -0.5076 -1.4457
   71MOL0     C 9510   1.938   2.611   0.041 -1.3194 -0.1042  0.4955
   71MOL0     C 9511   1.831   2.678  -0.051 -0.0496  0.2483 -0.0175
   71MOL0     C 9512   1.845   2.826  -0.087 -0.3644 -0.6275  0.2493
   71MOL0     C 9513   1.980   2.863  -0.155  0.9026  0.3528 -0.3160
   71MOL0     C 9514   2.019   2.766  -0.262 -0.0750 -0.0163 -0.0469
   71MOL0     C 9515   2.045   2.694  -0.356  0.3745 -0.6038 -0.2758
   71MOL0     C 9516   1.818   2.542   0.313  0.0037  0.0851  0.3499
   71MOL0     C 9517   1.712   2.516   0.392  0.0526  0.1194 -0.2497
   71MOL0     H 9518   1.232   2.553   0.586  2.3819 -0.8926 -1.7750
   71MOL0     H 9519   1.060   2.470   0.745  0.3015  0.4701 -0.0312
   71MOL0     H 9520   1.028   2.056   0.736 -1.3966  0.3463 -0.4774
   71MOL0     H 9521   1.114   2.018   0.871 -1.5169 -2.1694 -0.0832
   71MOL0     H 9522   0.946   2.073   1.030  0.5124 -0.1966 -0.3953
   71MOL0     H 9523   0.831   2.111   0.889 -2.1141 -2.6198 -0.5552
   71MOL0     H 9524   0.927   1.874   0.816  1.9526  1.9910 -0.1446
   71MOL0     H 9525   0.958   1.842   0.984  0.7467 -2.1032 -0.9033
   71MOL0     H 9526   0.724   1.889   1.056  1.5627 -1.5215  1.4407
   71MOL0     H 9527   0.686   1.929   0.878  0.1853 -3.6298 -3.3837
   71MOL0     H 9528   0.720   1.710   0.816  1.2964 -1.4565  1.1752
   71MOL0     H 9529   0.759   1.662   0.986 -1.6863 -1.7534  1.1511
   71MOL0     H 9530   0.546   1.752   1.053  0.9402  1.9855 -1.0272
   71MOL0     H 9531   0.489   1.758   0.885 -1.9330  0.0731  1.4653
   71MOL0     H 9532   0.524   1.520   0.859  3.1838  0.6746 -0.1250
   71MOL0     H 9533   0.629   1.516   0.998  0.8322  3.5757  2.5958
   71MOL0     H 9534   0.440   1.592   1.137  1.8059  0.8063 -1.2546
   71MOL0     H 9535   0.432   1.423   1.078 -2.0695  0.1400  3.6961
   71MOL0     H 9536   0.279   1.763   0.954 -2.3746  1.4056 -1.9185
   71MOL0     H 9537  -0.087   1.732   0.938  0.7963  1.4898 -0.4033
   71MOL0     H 9538   0.029   1.836   0.868 -1.3195  0.9080  3.4217
   71MOL0     H 9539  -0.164   1.693   0.709 -0.5446  0.1009  1.1463
   71MOL0     H 9540  -0.027   1.586   0.689 -0.7541 -1.2404  1.7480
   71MOL0     H 9541  -0.015   1.887   0.652 -0.2986 -0.3494 -1.0205
   71MOL0     H 9542  -0.070   1.784   0.518  1.7659 -1.2375 -3.0520
   71MOL0     H 9543   0.168   1.658   0.596  0.8395  0.3470 -0.0557
   71MOL0     H 9544   0.205   1.834   0.594 -2.7486  1.9902  2.4192
   71MOL0     H 9545   0.097   1.754   0.177 -1.1430  0.3826  0.9825
   71MOL0     H 9546   0.006   2.013  -0.057 -0.7443 -3.5399 -3.0618
   71MOL0     H 9547   0.177   1.949  -0.088  0.3137 -0.7615 -0.8608
   71MOL0     H 9548   0.040   1.851  -0.037 -2.0812  0.4832 -0.7130
   71MOL0     H 9549   0.416   2.402   0.178  3.1663  0.0965 -1.9782
   71MOL0     H 9550   0.536   2.594   0.092  1.2031 -1.5468 -2.1235
   71MOL0     H 9551   0.585   2.859  -0.135  1.6680 -2.9884 -1.2439
   71MOL0     H 9552   0.514   2.700  -0.160 -0.8489 -0.2492  2.6463
   71MOL0     H 9553   0.497   2.874  -0.332 -0.1023 -0.9107 -0.1602
   71MOL0     H 9554   0.336   2.821  -0.304  0.8328  2.3374 -1.6337
   71MOL0     H 9555   0.431   3.069  -0.138 -2.1612  1.7526  0.4975
   71MOL0     H 9556   0.275   3.016  -0.175  0.8333 -1.7938  0.7283
   71MOL0     H 9557   0.476   3.135  -0.382  0.4985  1.5106 -0.6964
   71MOL0     H 9558   0.326   3.065  -0.430 -2.3763  2.4818 -0.6171
   71MOL0     H 9559   0.383   3.269  -0.222 -4.8568  0.2905  3.1552
   71MOL0     H 9560   0.219   3.228  -0.245 -0.3722  0.6369  0.6972
   71MOL0     H 9561   0.404   3.343  -0.468  2.0957  0.3845  1.9519
   71MOL0     H 9562   0.244   3.274  -0.492  0.8881  0.3287 -0.6930
   71MOL0     H 9563   0.322   3.543  -0.366  0.4616  0.2271  0.2703
   71MOL0     H 9564   0.169   3.461  -0.336  1.1169 -1.0998  1.2201
   71MOL0     H 9565   0.136   3.602  -0.529  0.8037  1.0838 -1.6983
   71MOL0     H 9566   0.155   3.446  -0.609 -3.0728 -0.5725  2.8854
   71MOL0     H 9567   0.170   2.732  -0.080 -1.5816  1.4857  3.0544
   71MOL0     H 9568   0.061   2.524  -0.008  0.9244 -0.9302 -1.5889
   71MOL0     H 9569   0.258   2.196   0.328  0.9369 -1.5593  0.4407
   71MOL0     H 9570   0.246   2.007   0.485  0.3586 -1.3377 -0.3704
   71MOL0     H 9571   1.296   2.111   0.779 -1.8300  0.0925  0.9480
   71MOL0     H 9572   1.477   2.224   0.648 -1.2302 -2.1968 -2.8294
   71MOL0     H 9573   1.534   2.821   0.355 -2.1021 -1.1403  0.3215
   71MOL0     H 9574   1.755   2.857   0.209  2.3005 -1.2848 -0.9383
   71MOL0     H 9575   2.039   2.623   0.001 -2.1902  2.8846 -1.1322
   71MOL0     H 9576   1.912   2.505   0.043 -1.1068 -0.1664  0.0333
   71MOL0     H 9577   1.736   2.647  -0.006 -1.0673  0.5451 -1.8610
   71MOL0     H 9578   1.823   2.620  -0.144 -0.0200 -0.8890  0.6772
   71MOL0     H 9579   1.836   2.887   0.004  0.5771  1.3359 -0.9204
   71MOL0     H 9580   1.760   2.844  -0.152  0.9858  3.1709 -0.7136
   71MOL0     H 9581   2.060   2.866  -0.080  0.8657 -0.7219 -0.2123
   71MOL0     H 9582   1.968   2.965  -0.191  1.2583  1.5110  2.5833
   71MOL0     H 9583   2.067   2.632  -0.441 -0.7260  0.0650 -1.0820
   71MOL0     H 9584   1.874   2.458   0.274 -0.4098 -0.1660  0.2916
   71MOL0     H 9585   1.693   2.419   0.435 -0.8924  0.0612 -0.7802
   72MOL0     O 9586   9.221   0.134   3.712 -0.5203 -1.1557 -0.1362
   72MOL0     C 9587   9.112   0.128   3.765  0.7715 -0.3623  0.0093
   72MOL0     O 9588   9.078   0.123   3.895  1.0285  0.6494 -0.0984
   72MOL0     C 9589   9.172   0.147   3.980 -0.5003  0.5022 -0.2405
   72MOL0     C 9590   9.214   0.045   4.071 -0.3054 -0.4290 -0.5922
   72MOL0     C 9591   9.307   0.067   4.173 -0.7064  0.4291  0.2502
   72MOL0     C 9592   9.372   0.191   4.182 -0.6031 -1.1987  0.3519
   72MOL0     O 9593   9.486   0.216   4.254  1.2254  0.9185  0.2057
   72MOL0     C 9594   9.476   0.155   4.384 -0.0718  0.0932  1.0162
   72MOL0     C 9595   9.537   0.263   4.484 -0.1388 -0.0298  0.1380
   72MOL0     C 9596   9.634   0.178   4.565  0.0610  0.4481  0.0302
   72MOL0     C 9597   9.727   0.264   4.657 -0.1062  0.2674 -0.3229
   72MOL0     C 9598   9.864   0.208   4.691  0.0317 -0.2168 -0.1391
   72MOL0     C 9599   9.939   0.302   4.785 -0.4154 -0.0172 -0.5006
   72MOL0     C 9600  10.086   0.258   4.798  1.1723  0.4759 -0.1115
   72MOL0     C 9601  10.162   0.315   4.920  1.0691  0.0213 -0.5568
   72MOL0     N 9602  10.166   0.463   4.917 -1.0803  0.0122 -0.2669
   72MOL0     C 9603  10.235   0.540   4.837 -0.2461 -0.2975  0.3273
   72MOL0     C 9604  10.188   0.665   4.856 -0.8444  0.0523  0.7450
   72MOL0     C 9605  10.252   0.787   4.793 -0.3179  0.0321  0.1126
   72MOL0     C 9606  10.148   0.876   4.720 -1.0070  0.2008 -1.0045
   72MOL0     C 9607  10.219   1.010   4.669  0.4706  0.1508 -0.0653
   72MOL0     C 9608  10.137   1.058   4.553  0.5463  0.0790  0.2938
   72MOL0     O 9609  10.179   1.189   4.518 -0.3815 -0.2375  0.7986
   72MOL0     C 9610  10.113   1.259   4.421  0.3895  0.4468 -1.2115
   72MOL0     C 9611  10.014   1.199   4.338 -1.3340 -0.7037  0.8007
   72MOL0     C 9612   9.944   1.260   4.231  0.6690 -0.3036 -0.1687
   72MOL0     C 9613   9.844   1.180   4.142 -0.0068  1.1342  0.0834
   72MOL0     C 9614   9.961   1.402   4.222  0.7212 -0.1483  0.5747
   72MOL0     C 9615   9.883   1.486   4.129 -0.5323 -0.7136 -0.1456
   72MOL0     O 9616   9.915   1.620   4.141  0.7191 -0.1225 -0.0537
   72MOL0     C 9617   9.855   1.730   4.089  0.3273 -0.7243  0.4211
   72MOL0     C 9618   9.942   1.826   4.045  1.1065 -0.5156 -0.3282
   72MOL0     C 9619   9.895   1.946   3.997 -0.8858  0.8430 -0.9685
   72MOL0     C 9620   9.753   1.958   3.987 -0.5853 -0.5812  0.6021
   72MOL0     O 9621   9.708   2.076   3.945 -0.4763 -0.8495  0.4132
   72MOL0     C 9622   9.756   2.118   3.820  0.1333  0.6090  0.2036
   72MOL0     C 9623   9.642   2.176   3.737  0.4179 -0.0410  0.0843
   72MOL0     C 9624   9.559   2.065   3.661  0.1559 -0.0961  0.1730
   72MOL0     C 9625   9.424   2.116   3.611 -0.2981 -0.0511  0.4763
   72MOL0     C 9626   9.313   2.110   3.723 -0.0595 -0.1349  0.2066
   72MOL0     C 9627   9.184   2.187   3.692 -0.2566  0.0416  0.4044
   72MOL0     C 9628   9.134   2.134   3.561 -0.5789  0.4619 -0.6897
   72MOL0     C 9629   8.989   2.166   3.540  0.7785  0.1523  0.1854
   72MOL0    Cl 9630   8.909   2.038   3.447 -0.1447 -0.3002  0.0030
   72MOL0     C 9631   9.662   1.857   4.014  0.1304  1.3088 -0.5870
   72MOL0     C 9632   9.716   1.743   4.071 -0.1024  0.0719  0.8836
   72MOL0     O 9633   9.798   1.435   4.056  0.3934  0.1050 -0.0223
   72MOL0     C 9634  10.070   1.457   4.295  0.1289  0.4364  0.6075
   72MOL0     C 9635  10.144   1.384   4.388  0.0601 -0.4317 -0.8107
   72MOL0     N 9636  10.091   0.669   4.952 -0.8772 -0.1828  0.1780
   72MOL0     N 9637  10.079   0.539   4.982 -0.0981 -0.5748 -0.0129
   72MOL0     C 9638   9.332   0.291   4.096  0.1637 -0.0392  0.3961
   72MOL0     C 9639   9.243   0.267   3.994 -0.0882 -0.5923 -0.0407
   72MOL0     C 9640   9.014   0.092   3.665 -0.6795 -0.4244  0.5883
   72MOL0     C 9641   8.912   0.014   3.704 -0.2311 -1.3218  0.0858
   72MOL0     C 9642   8.801  -0.026   3.622  0.0735 -0.4235  0.0873
   72MOL0     C 9643   8.819   0.001   3.489  0.5843 -0.8721  0.6855
   72MOL0     O 9644   8.727  -0.052   3.403 -0.7670  0.0422 -0.1553
   72MOL0     C 9645   8.647   0.045   3.338 -0.0628 -1.1110 -0.1316
   72MOL0     C 9646   8.548  -0.014   3.246  0.0709  0.5563 -0.3225
   72MOL0     C 9647   8.613  -0.101   3.144 -0.8726  0.2621  0.0134
   72MOL0     C 9648   8.513  -0.174   3.056 -0.1515  0.0865  0.1753
   72MOL0     C 9649   8.467  -0.087   2.947 -0.1272 -0.5680 -0.0028
   72MOL0     C 9650   8.436  -0.049   2.836 -0.0525  0.2679  0.3065
   72MOL0     C 9651   8.927   0.074   3.446 -0.6216 -0.3676 -0.1486
   72MOL0     C 9652   9.023   0.124   3.531 -0.7055 -1.2396 -0.4451
   72MOL0     H 9653   9.158  -0.048   4.074 -2.1031  0.5766  2.7822
   72MOL0     H 9654   9.327  -0.009   4.247 -0.6057 -1.0095 -1.1862
   72MOL0     H 9655   9.370   0.144   4.407 -0.3975  0.4936 -0.2060
   72MOL0     H 9656   9.523   0.057   4.382  0.7027  0.4622  0.1382
   72MOL0     H 9657   9.599   0.341   4.440 -1.2351  1.9046  1.8425
   72MOL0     H 9658   9.469   0.326   4.542  2.0699  1.5166  1.1709
   72MOL0     H 9659   9.586   0.097   4.621  3.1302 -3.8132 -2.8473
   72MOL0     H 9660   9.702   0.119   4.502  1.4586  0.4188  1.4860
   72MOL0     H 9661   9.746   0.359   4.606 -0.7977 -0.0099 -1.1330
   72MOL0     H 9662   9.675   0.281   4.751  1.1193  1.4538  0.1749
   72MOL0     H 9663   9.856   0.106   4.728  4.1337 -0.6672  0.0358
   72MOL0     H 9664   9.926   0.202   4.601 -0.1327  1.5077 -0.4165
   72MOL0     H 9665   9.956   0.402   4.743 -1.1771 -0.1267 -1.0935
   72MOL0     H 9666   9.895   0.314   4.884  2.3785 -0.2162  0.8630
   72MOL0     H 9667  10.076   0.150   4.818 -1.9336  0.2541 -2.1774
   72MOL0     H 9668  10.147   0.264   4.708  0.9248  0.4541 -0.2815
   72MOL0     H 9669  10.260   0.268   4.931 -0.2680 -3.0644 -0.7426
   72MOL0     H 9670  10.120   0.291   5.018  1.9699  2.3500  0.4621
   72MOL0     H 9671  10.313   0.507   4.769  0.7681 -1.5006  2.0073
   72MOL0     H 9672  10.294   0.844   4.876 -1.6904  1.2475  0.0139
   72MOL0     H 9673  10.317   0.743   4.717 -0.1109 -1.4926  1.1337
   72MOL0     H 9674  10.059   0.901   4.780 -0.1747 -3.1456  1.9881
   72MOL0     H 9675  10.128   0.815   4.632  0.3510 -2.3347  0.3534
   72MOL0     H 9676  10.325   1.007   4.641  0.5997 -0.5547  0.4672
   72MOL0     H 9677  10.211   1.082   4.751  1.8866  0.1818  0.0635
   72MOL0     H 9678  10.029   1.052   4.573  0.6186 -0.7704  0.4251
   72MOL0     H 9679  10.157   1.000   4.463 -0.8643 -0.9992  0.6389
   72MOL0     H 9680   9.984   1.095   4.351 -1.4427 -0.6395  1.0822
   72MOL0     H 9681   9.849   1.075   4.170  0.2907  0.4080 -2.4391
   72MOL0     H 9682   9.740   1.207   4.163  0.1046  0.6123  1.3418
   72MOL0     H 9683   9.872   1.192   4.037  2.0467 -4.7661 -0.4160
   72MOL0     H 9684  10.046   1.800   4.058  1.1891 -3.9582 -5.3875
   72MOL0     H 9685   9.964   2.022   3.961  2.9119 -2.3773 -1.1715
   72MOL0     H 9686   9.821   2.201   3.853  1.2606  0.3424 -1.2461
   72MOL0     H 9687   9.808   2.044   3.760 -1.6278 -0.2351 -0.3255
   72MOL0     H 9688   9.573   2.224   3.807 -1.7965  1.2774 -2.7996
   72MOL0     H 9689   9.687   2.244   3.665  1.5090  0.2693  1.0311
   72MOL0     H 9690   9.547   1.984   3.733  0.6280  0.4833  0.9257
   72MOL0     H 9691   9.623   2.018   3.586 -1.2317 -0.8735 -0.5593
   72MOL0     H 9692   9.445   2.217   3.574 -0.3828 -1.2230 -3.1484
   72MOL0     H 9693   9.388   2.062   3.523 -2.8690  1.6707  0.3742
   72MOL0     H 9694   9.354   2.140   3.820 -2.5403  0.0430  1.2869
   72MOL0     H 9695   9.286   2.005   3.741  0.2608 -0.0307  1.3865
   72MOL0     H 9696   9.118   2.194   3.780  2.2314  6.4876  2.3345
   72MOL0     H 9697   9.217   2.291   3.685  0.9603 -0.3554 -0.0469
   72MOL0     H 9698   9.143   2.027   3.582 -0.3397  1.1492  3.6277
   72MOL0     H 9699   9.200   2.163   3.479 -0.4813  2.0187 -0.0987
   72MOL0     H 9700   8.973   2.267   3.501 -2.8839 -0.2431  0.2486
   72MOL0     H 9701   8.936   2.170   3.636  1.7872 -0.4526  0.7825
   72MOL0     H 9702   9.557   1.871   3.992  0.2274 -0.5734 -2.5063
   72MOL0     H 9703   9.648   1.661   4.092 -3.0822  2.6292  2.1143
   72MOL0     H 9704  10.095   1.557   4.261 -0.0267 -0.3709 -2.1892
   72MOL0     H 9705  10.224   1.437   4.439 -2.1714  1.5879  0.8195
   72MOL0     H 9706   9.393   0.380   4.102  2.0724 -1.1437 -1.2680
   72MOL0     H 9707   9.233   0.342   3.916  1.4489  1.4264  1.6077
   72MOL0     H 9708   8.914  -0.018   3.808 -2.2459 -0.4079  0.4664
   72MOL0     H 9709   8.710  -0.078   3.648 -0.9296  0.8255 -0.8114
   72MOL0     H 9710   8.597   0.105   3.414  2.7913 -0.6692  1.5540
   72MOL0     H 9711   8.708   0.126   3.298  0.8001 -0.4316  2.3741
   72MOL0     H 9712   8.489   0.067   3.202 -0.2949 -0.5502 -1.9740
   72MOL0     H 9713   8.478  -0.070   3.308 -1.5042  0.5099 -2.0647
   72MOL0     H 9714   8.667  -0.179   3.200 -1.1667 -0.3737 -0.5688
   72MOL0     H 9715   8.688  -0.047   3.085 -1.4455  2.0370  0.8344
   72MOL0     H 9716   8.426  -0.210   3.111 -0.0180 -0.4764  0.0260
   72MOL0     H 9717   8.566  -0.263   3.020  1.5398  1.3438 -0.5604
   72MOL0     H 9718   8.440  -0.021   2.733 -0.1722  0.1943  0.2815
   72MOL0     H 9719   8.942   0.089   3.339  1.0106  2.0101  0.3340
   72MOL0     H 9720   9.114   0.180   3.508  0.2211 -0.1965  4.5902
   73MOL0     O 9721   8.443   7.343   8.487  0.5060  0.1439 -0.0165
   73MOL0     C 9722   8.485   7.231   8.498 -0.1645  1.2785  0.0257
   73MOL0     O 9723   8.614   7.197   8.523 -0.7323  0.0141  0.2568
   73MOL0     C 9724   8.706   7.298   8.506  0.5193  0.5185 -0.2281
   73MOL0     C 9725   8.758   7.337   8.386 -0.0703 -1.0764  1.1148
   73MOL0     C 9726   8.842   7.446   8.369 -0.2651 -0.1893 -0.6153
   73MOL0     C 9727   8.874   7.523   8.481  0.3387 -0.4957 -0.1419
   73MOL0     O 9728   8.930   7.646   8.478 -0.0995  0.4079  0.3622
   73MOL0     C 9729   9.053   7.660   8.400 -0.2698 -0.6660  0.4149
   73MOL0     C 9730   9.104   7.805   8.429 -0.8812  0.1259 -0.8511
   73MOL0     C 9731   9.250   7.828   8.358  0.4690  0.3264  0.1547
   73MOL0     C 9732   9.288   7.980   8.354 -0.1565 -0.3072  0.4702
   73MOL0     C 9733   9.372   8.023   8.476  0.6850  0.1984  1.0921
   73MOL0     C 9734   9.379   8.174   8.477  0.5396  0.0509  0.3787
   73MOL0     C 9735   9.240   8.243   8.494 -1.2481 -0.0301 -0.1331
   73MOL0     C 9736   9.233   8.369   8.580 -0.6379  0.0667  0.2098
   73MOL0     N 9737   9.325   8.467   8.521  0.2061  1.4320  0.5331
   73MOL0     C 9738   9.313   8.508   8.393  0.3814 -0.3603  0.0467
   73MOL0     C 9739   9.413   8.601   8.374 -0.2149 -0.1655  0.0241
   73MOL0     C 9740   9.453   8.679   8.246  0.3540 -0.5089 -0.0817
   73MOL0     C 9741   9.339   8.726   8.160 -0.5486  0.1025  0.1237
   73MOL0     C 9742   9.230   8.816   8.241 -0.2891  0.5161  0.2619
   73MOL0     C 9743   9.118   8.871   8.150 -0.5350  0.3223 -0.7622
   73MOL0     O 9744   9.054   8.761   8.081  0.5042 -0.2139  0.1782
   73MOL0     C 9745   9.028   8.647   8.154  0.8014  0.0432  0.4114
   73MOL0     C 9746   9.040   8.522   8.089 -0.3249 -0.8567 -0.1738
   73MOL0     C 9747   8.993   8.404   8.152  0.0736  0.0318 -0.5455
   73MOL0     C 9748   9.041   8.278   8.088 -0.2300  0.2486 -0.1563
   73MOL0     C 9749   8.921   8.411   8.280 -0.2019  0.2114  1.6137
   73MOL0     C 9750   8.890   8.292   8.360  0.6052  0.3252  0.0133
   73MOL0     O 9751   8.855   8.308   8.492  0.4198 -0.2131  0.4362
   73MOL0     C 9752   8.786   8.212   8.556 -0.2050  0.3590  0.2030
   73MOL0     C 9753   8.834   8.088   8.576 -0.2322  0.3245  0.6739
   73MOL0     C 9754   8.759   7.992   8.654  0.0226  0.2399  0.8113
   73MOL0     C 9755   8.641   8.026   8.703  0.6029 -1.0883 -0.4912
   73MOL0     O 9756   8.574   7.953   8.800 -0.5664  0.2927 -0.6281
   73MOL0     C 9757   8.583   7.802   8.794 -0.0984  0.9781 -0.8552
   73MOL0     C 9758   8.451   7.740   8.822  0.3845  0.0752  0.4545
   73MOL0     C 9759   8.459   7.587   8.832 -0.6182  0.1525 -0.2326
   73MOL0     C 9760   8.340   7.515   8.893  0.3962 -0.1290  0.0337
   73MOL0     C 9761   8.339   7.368   8.851  0.8916  1.0046 -0.1440
   73MOL0     C 9762   8.208   7.302   8.909  0.1906  0.1861 -0.6909
   73MOL0     C 9763   8.160   7.168   8.833  0.4973 -0.0342 -0.1481
   73MOL0     C 9764   8.098   7.205   8.700  0.2884  0.4590  0.3332
   73MOL0    Cl 9765   7.965   7.095   8.643 -0.1992  0.2541 -0.7116
   73MOL0     C 9766   8.585   8.152   8.672 -0.0188  0.2959 -0.8103
   73MOL0     C 9767   8.657   8.237   8.598 -0.1478  0.8246 -0.8425
   73MOL0     O 9768   8.871   8.191   8.290 -0.1270 -0.3370  0.6271
   73MOL0     C 9769   8.909   8.536   8.335 -0.7479  0.8680  0.3843
   73MOL0     C 9770   8.952   8.647   8.275 -0.9480  0.0874  0.1735
   73MOL0     N 9771   9.483   8.606   8.493 -0.2050  0.5604  0.7492
   73MOL0     N 9772   9.429   8.530   8.575 -1.2726  0.5967 -0.4922
   73MOL0     C 9773   8.843   7.475   8.608 -0.8029 -1.1831 -0.2836
   73MOL0     C 9774   8.746   7.374   8.622  0.1649  0.5037 -0.0761
   73MOL0     C 9775   8.383   7.115   8.472 -1.4566 -1.4773 -0.4520
   73MOL0     C 9776   8.273   7.130   8.396  0.2372 -0.4348 -0.1153
   73MOL0     C 9777   8.187   7.029   8.354  0.2378 -0.0958 -0.5947
   73MOL0     C 9778   8.219   6.900   8.403  0.2039  0.6444  0.4793
   73MOL0     O 9779   8.146   6.793   8.371 -0.3368  0.7416  0.3347
   73MOL0     C 9780   8.014   6.778   8.433 -0.9729  0.0532 -0.0085
   73MOL0     C 9781   8.019   6.699   8.571 -0.5764 -0.3200 -0.4874
   73MOL0     C 9782   8.118   6.576   8.568 -0.6613 -0.2154 -0.8031
   73MOL0     C 9783   8.121   6.517   8.709  0.7068  1.0779  0.6036
   73MOL0     C 9784   8.173   6.614   8.809  0.7063  0.4268  0.4688
   73MOL0     C 9785   8.203   6.705   8.886  0.2932  0.1281  0.0625
   73MOL0     C 9786   8.327   6.876   8.486  0.0643 -1.1267 -0.3326
   73MOL0     C 9787   8.412   6.989   8.517 -0.3613 -0.0699  0.5723
   73MOL0     H 9788   8.732   7.297   8.289  1.9724  0.8529 -0.3508
   73MOL0     H 9789   8.870   7.473   8.267 -0.4860  2.2559 -0.0933
   73MOL0     H 9790   9.130   7.590   8.435  1.1367  0.8840  0.5300
   73MOL0     H 9791   9.041   7.645   8.293 -2.6778 -1.6396  0.7554
   73MOL0     H 9792   9.027   7.876   8.399 -0.9848  1.1561  1.5969
   73MOL0     H 9793   9.122   7.811   8.537  0.7088  1.1121 -1.1448
   73MOL0     H 9794   9.330   7.770   8.404  1.5795  2.3195  0.8319
   73MOL0     H 9795   9.236   7.795   8.254 -1.6559 -2.2715  1.1301
   73MOL0     H 9796   9.346   7.994   8.262  0.5314  1.4761  1.1409
   73MOL0     H 9797   9.198   8.041   8.349 -0.6939 -1.0556  0.8074
   73MOL0     H 9798   9.332   7.982   8.569  1.3037 -1.6379  0.5922
   73MOL0     H 9799   9.475   7.988   8.466  0.6083  0.5161 -1.5767
   73MOL0     H 9800   9.443   8.209   8.558  2.0548 -1.2134 -0.2183
   73MOL0     H 9801   9.422   8.203   8.381 -0.8223 -1.3283 -0.7090
   73MOL0     H 9802   9.201   8.267   8.395 -0.3263  0.6625 -0.3452
   73MOL0     H 9803   9.177   8.166   8.539  0.1414 -1.9045 -1.2280
   73MOL0     H 9804   9.264   8.351   8.683  2.3706  2.7822 -0.0647
   73MOL0     H 9805   9.135   8.417   8.583  0.6737  3.3883 -2.7738
   73MOL0     H 9806   9.242   8.484   8.315  0.3354  1.6187 -0.5861
   73MOL0     H 9807   9.522   8.757   8.282  0.5370 -0.6980 -0.0252
   73MOL0     H 9808   9.523   8.616   8.190  1.2816 -1.1337  1.6743
   73MOL0     H 9809   9.287   8.641   8.115  1.3629 -1.3922  0.5977
   73MOL0     H 9810   9.390   8.780   8.079 -0.6939  1.2586  0.7747
   73MOL0     H 9811   9.292   8.895   8.286  4.1326 -1.4931 -1.7319
   73MOL0     H 9812   9.190   8.762   8.327 -4.1026  2.4427 -0.0655
   73MOL0     H 9813   9.154   8.952   8.086 -3.9540  1.2240 -1.7413
   73MOL0     H 9814   9.049   8.919   8.220  0.1877  1.0544 -0.5238
   73MOL0     H 9815   9.093   8.536   7.996 -2.9204 -0.3783 -1.6652
   73MOL0     H 9816   9.100   8.218   8.157  3.1902  2.7204 -0.6695
   73MOL0     H 9817   8.947   8.227   8.066 -0.5683  0.6785  0.2361
   73MOL0     H 9818   9.089   8.293   7.991 -0.1172  2.1064  0.1330
   73MOL0     H 9819   8.927   8.046   8.537 -0.0845  0.5389  0.7933
   73MOL0     H 9820   8.802   7.896   8.680 -0.7464  0.0680  1.4821
   73MOL0     H 9821   8.627   7.776   8.698  0.2506  0.6164 -0.5951
   73MOL0     H 9822   8.648   7.771   8.876 -1.5255 -0.8690 -0.3453
   73MOL0     H 9823   8.406   7.779   8.913  1.0361 -1.8087  1.6541
   73MOL0     H 9824   8.383   7.777   8.745 -1.5785 -0.2567  1.9553
   73MOL0     H 9825   8.546   7.563   8.895  0.7104  0.5760 -1.8100
   73MOL0     H 9826   8.482   7.545   8.733  2.1007  1.2599 -0.1803
   73MOL0     H 9827   8.336   7.520   9.002 -1.9995 -1.3059  0.0566
   73MOL0     H 9828   8.258   7.570   8.845  0.3202  0.5273  0.9088
   73MOL0     H 9829   8.425   7.316   8.893  0.7563  0.5801 -0.3891
   73MOL0     H 9830   8.332   7.354   8.743  0.1578  0.1806 -0.0009
   73MOL0     H 9831   8.222   7.280   9.015  0.5474  3.7608  0.1239
   73MOL0     H 9832   8.127   7.374   8.905  0.2097  0.1714 -3.6836
   73MOL0     H 9833   8.078   7.126   8.892 -2.6275  1.1315 -3.3315
   73MOL0     H 9834   8.244   7.100   8.815  0.6341 -0.0310  0.4437
   73MOL0     H 9835   8.180   7.202   8.628 -1.3694 -2.0583 -1.6018
   73MOL0     H 9836   8.061   7.309   8.699 -0.5016  0.2216 -2.5522
   73MOL0     H 9837   8.484   8.171   8.707 -0.3061  0.4518 -1.7055
   73MOL0     H 9838   8.615   8.336   8.588  0.8429  1.6968  2.5146
   73MOL0     H 9839   8.854   8.557   8.426 -0.4587  1.2080  0.4834
   73MOL0     H 9840   8.933   8.740   8.328 -2.4151 -0.2305  0.2409
   73MOL0     H 9841   8.860   7.534   8.697  1.5119  0.9046 -1.9901
   73MOL0     H 9842   8.696   7.337   8.711  0.6479 -1.6230 -0.6255
   73MOL0     H 9843   8.243   7.222   8.346 -6.0725 -2.7321 -1.5346
   73MOL0     H 9844   8.099   7.039   8.291 -1.2474 -2.1273  1.0066
   73MOL0     H 9845   7.969   6.878   8.440  0.7142  0.9336 -1.0159
   73MOL0     H 9846   7.955   6.721   8.361  0.0441 -1.9455  0.6710
   73MOL0     H 9847   7.914   6.672   8.590 -0.6947  0.4571  0.0012
   73MOL0     H 9848   8.058   6.766   8.647  0.8053 -0.6083 -0.9096
   73MOL0     H 9849   8.223   6.598   8.547 -0.0912 -1.8526  0.1719
   73MOL0     H 9850   8.097   6.504   8.489  0.6287 -0.0384 -1.3395
   73MOL0     H 9851   8.191   6.433   8.709 -1.3102 -0.6817 -0.4400
   73MOL0     H 9852   8.025   6.481   8.746  1.1250  1.2407  1.9044
   73MOL0     H 9853   8.229   6.790   8.946  0.1038  1.7912 -2.0610
   73MOL0     H 9854   8.344   6.778   8.529 -2.4823 -0.3749  2.8555
   73MOL0     H 9855   8.495   6.966   8.582 -0.9325 -1.2797  0.9037
   74MOL0     O 9856   9.698  10.961   0.752 -0.6606  0.0523 -0.3936
   74MOL0     C 9857   9.802  11.024   0.772 -0.1177  0.9499 -0.6742
   74MOL0     O 9858   9.868  11.022   0.887 -0.2592  0.3508  0.4515
   74MOL0     C 9859   9.860  10.901   0.953 -0.2742 -0.1152 -0.3510
   74MOL0     C 9860   9.846  10.918   1.090 -0.1204  0.0459 -0.1723
   74MOL0     C 9861   9.841  10.809   1.175 -0.5900  1.0686 -1.0370
   74MOL0     C 9862   9.842  10.681   1.121  0.2939 -0.2345  0.5678
   74MOL0     O 9863   9.828  10.576   1.207 -0.3853  0.2687 -0.1595
   74MOL0     C 9864   9.943  10.539   1.290 -0.1097  0.1405  0.2749
   74MOL0     C 9865   9.918  10.434   1.403  0.3425 -0.3140 -0.0966
   74MOL0     C 9866   9.797  10.491   1.492 -0.0875 -0.1442  0.1603
   74MOL0     C 9867   9.732  10.395   1.590 -0.2228 -0.5406 -0.2888
   74MOL0     C 9868   9.645  10.478   1.695  0.0712  0.8540 -0.2189
   74MOL0     C 9869   9.515  10.421   1.764 -0.0475  0.5363  0.3043
   74MOL0     C 9870   9.418  10.367   1.664 -0.3390  0.2803  0.5612
   74MOL0     C 9871   9.381  10.471   1.565 -0.2671  0.1300  0.3155
   74MOL0     N 9872   9.281  10.413   1.465 -0.2726  0.3957 -0.4541
   74MOL0     C 9873   9.155  10.468   1.429 -0.2620 -0.9091 -0.0926
   74MOL0     C 9874   9.103  10.377   1.356 -0.3272 -0.0332 -0.7131
   74MOL0     C 9875   8.962  10.388   1.298 -0.4494 -0.1850  0.0867
   74MOL0     C 9876   8.853  10.318   1.373  0.3319  0.0810 -0.1943
   74MOL0     C 9877   8.890  10.170   1.368 -0.4278 -0.3448 -0.5454
   74MOL0     C 9878   8.779  10.102   1.444  0.1380 -0.6361  0.6770
   74MOL0     O 9879   8.788  10.128   1.585  0.2831 -0.2317 -0.2402
   74MOL0     C 9880   8.696  10.188   1.669  0.9452  1.1643  0.0282
   74MOL0     C 9881   8.723  10.184   1.809  0.1805  0.9780 -0.4819
   74MOL0     C 9882   8.647  10.252   1.897 -0.0276 -0.4154  0.6432
   74MOL0     C 9883   8.697  10.259   2.040 -0.1594  0.4762 -0.3331
   74MOL0     C 9884   8.545  10.344   1.858 -0.3272  0.4786  0.4941
   74MOL0     C 9885   8.465  10.445   1.939 -0.4163 -0.4815 -0.5225
   74MOL0     O 9886   8.368  10.512   1.877  0.3398  0.6377 -1.0574
   74MOL0     C 9887   8.279  10.591   1.937  0.1225 -0.3508  0.2189
   74MOL0     C 9888   8.307  10.706   2.017 -0.0093  0.2384  0.2442
   74MOL0     C 9889   8.212  10.793   2.060 -0.2830 -0.2207  0.2092
   74MOL0     C 9890   8.080  10.776   2.014 -0.4486  0.1478 -0.2250
   74MOL0     O 9891   7.988  10.872   2.039 -0.5494 -0.2920 -0.4558
   74MOL0     C 9892   7.921  10.836   2.161  0.9304  0.3538 -0.4307
   74MOL0     C 9893   7.810  10.947   2.175 -1.0582  0.4187 -0.9104
   74MOL0     C 9894   7.725  10.927   2.294  0.1104  0.2913  0.7572
   74MOL0     C 9895   7.614  11.034   2.304 -0.0562  0.3000 -0.3974
   74MOL0     C 9896   7.555  11.058   2.449  0.8282  0.0416  0.7859
   74MOL0     C 9897   7.424  11.132   2.453 -0.7531 -0.0223  0.4409
   74MOL0     C 9898   7.388  11.195   2.587 -0.1569  0.3300 -1.0698
   74MOL0     C 9899   7.239  11.237   2.603  0.0783  0.7811  0.3715
   74MOL0    Cl 9900   7.185  11.346   2.468 -0.3747  0.0559  0.1475
   74MOL0     C 9901   8.043  10.672   1.928  0.0769 -0.5989 -0.3444
   74MOL0     C 9902   8.141  10.578   1.895 -0.4381 -0.0208 -0.1285
   74MOL0     O 9903   8.491  10.450   2.055  0.9238 -0.4979 -0.2237
   74MOL0     C 9904   8.531  10.357   1.719 -0.6007 -0.2879  0.3499
   74MOL0     C 9905   8.600  10.277   1.622  0.1905  0.3161 -0.4756
   74MOL0     N 9906   9.184  10.263   1.351 -0.5533  0.7181 -1.4522
   74MOL0     N 9907   9.301  10.284   1.413 -0.2849 -0.3005 -0.3355
   74MOL0     C 9908   9.852  10.658   0.985 -0.3468 -0.1611  0.6956
   74MOL0     C 9909   9.859  10.772   0.898  0.1159  0.0520 -0.2171
   74MOL0     C 9910   9.844  11.113   0.663  0.5195 -0.4731 -0.9217
   74MOL0     C 9911   9.937  11.212   0.677 -0.9495  0.0112  0.9014
   74MOL0     C 9912   9.979  11.289   0.566  0.5196  0.3431 -0.3168
   74MOL0     C 9913   9.925  11.269   0.440  0.0369 -0.3570  0.1758
   74MOL0     O 9914   9.970  11.349   0.336  0.5279  0.0286 -1.0597
   74MOL0     C 9915   9.888  11.351   0.217  0.3077  0.1521  0.9007
   74MOL0     C 9916   9.957  11.427   0.121  0.4503 -0.6470  0.0599
   74MOL0     C 9917  10.082  11.366   0.058  0.3362  1.0841 -0.3587
   74MOL0     C 9918  10.140  11.459  -0.043 -0.3118 -0.1755  0.9976
   74MOL0     C 9919  10.253  11.393  -0.111 -0.3389 -0.3980  0.2604
   74MOL0     C 9920  10.347  11.342  -0.172  0.4887  0.4407  0.2221
   74MOL0     C 9921   9.826  11.170   0.426 -0.0416 -0.9848 -0.0437
   74MOL0     C 9922   9.780  11.101   0.538 -0.6251 -1.1564  0.4435
   74MOL0     H 9923   9.866  11.011   1.143  1.0309 -1.6721  2.6373
   74MOL0     H 9924   9.845  10.817   1.283 -3.9454 -0.4521 -0.6667
   74MOL0     H 9925  10.024  10.496   1.230  1.8562  1.6429  1.7108
   74MOL0     H 9926   9.978  10.632   1.337 -0.9804  0.1922  0.8403
   74MOL0     H 9927   9.895  10.335   1.363 -1.4170 -0.5688  1.4159
   74MOL0     H 9928  10.012  10.436   1.459  0.6297  0.8920 -0.5800
   74MOL0     H 9929   9.824  10.578   1.553 -2.6944  0.0917  1.0818
   74MOL0     H 9930   9.718  10.530   1.428  1.2123  1.3256 -0.6348
   74MOL0     H 9931   9.672  10.333   1.522 -2.5807  0.8081  0.4491
   74MOL0     H 9932   9.791  10.329   1.654 -1.1294 -1.2862 -0.2111
   74MOL0     H 9933   9.706  10.508   1.780 -1.6076  0.6594  1.1039
   74MOL0     H 9934   9.610  10.570   1.648 -3.0136 -0.9568 -1.7820
   74MOL0     H 9935   9.539  10.334   1.826  1.9193  1.6030  1.1328
   74MOL0     H 9936   9.471  10.499   1.826 -1.3098  0.6422 -0.6711
   74MOL0     H 9937   9.469  10.287   1.610  0.1709  0.4467  0.7864
   74MOL0     H 9938   9.333  10.323   1.718 -0.2137 -1.7994 -0.8401
   74MOL0     H 9939   9.473  10.504   1.515  2.0122  3.7382  5.9122
   74MOL0     H 9940   9.333  10.562   1.599 -2.4765 -0.8615  0.0065
   74MOL0     H 9941   9.111  10.566   1.444  0.0966 -0.6508 -0.6854
   74MOL0     H 9942   8.941  10.495   1.290 -0.3018  0.0819  2.4772
   74MOL0     H 9943   8.976  10.346   1.198 -1.8953 -0.7207  0.0906
   74MOL0     H 9944   8.761  10.327   1.315 -0.1932 -3.8002 -0.1858
   74MOL0     H 9945   8.838  10.345   1.478 -0.5438  0.8239 -0.4945
   74MOL0     H 9946   8.973  10.141   1.433 -1.7088 -4.5151 -0.5106
   74MOL0     H 9947   8.899  10.145   1.262 -0.5033  1.7479 -1.0909
   74MOL0     H 9948   8.788   9.995   1.420  1.6617 -0.0899 -1.4987
   74MOL0     H 9949   8.684  10.134   1.402  2.1382  0.8885 -3.2107
   74MOL0     H 9950   8.810  10.131   1.848 -0.1419  1.1239  0.4625
   74MOL0     H 9951   8.778  10.189   2.062 -2.3950 -1.6177  2.0729
   74MOL0     H 9952   8.728  10.362   2.061  1.2626  0.3408 -1.6234
   74MOL0     H 9953   8.626  10.227   2.117  2.1123 -1.7149  1.0045
   74MOL0     H 9954   8.412  10.716   2.044  0.8335 -1.5193 -2.0840
   74MOL0     H 9955   8.259  10.869   2.122 -0.2717 -2.4085  3.0989
   74MOL0     H 9956   7.868  10.742   2.143  0.7359  0.8905 -3.1608
   74MOL0     H 9957   7.994  10.825   2.241 -0.8369  0.4466  1.2630
   74MOL0     H 9958   7.872  11.035   2.195  0.0560 -1.1695  4.1924
   74MOL0     H 9959   7.748  10.954   2.085 -0.3412 -1.4687 -1.6108
   74MOL0     H 9960   7.777  10.909   2.388  1.3359  1.9553  0.4452
   74MOL0     H 9961   7.676  10.832   2.271 -1.5471  1.7262 -2.2070
   74MOL0     H 9962   7.656  11.131   2.274 -3.3195  3.6524  4.2943
   74MOL0     H 9963   7.528  11.002   2.245 -0.8914  0.7852  0.5176
   74MOL0     H 9964   7.620  11.106   2.523 -0.0680 -1.1841  2.4451
   74MOL0     H 9965   7.535  10.960   2.493  1.5562 -0.5705 -0.2323
   74MOL0     H 9966   7.433  11.212   2.379  1.7006 -0.8818 -0.3057
   74MOL0     H 9967   7.342  11.062   2.435 -1.7616  0.7592  1.8154
   74MOL0     H 9968   7.444  11.287   2.608  0.3168 -0.4100  1.1870
   74MOL0     H 9969   7.415  11.115   2.656  0.7079  0.3788 -1.3437
   74MOL0     H 9970   7.230  11.298   2.694 -3.5106  3.7603 -1.6804
   74MOL0     H 9971   7.162  11.161   2.615  0.0191  0.9400  1.0255
   74MOL0     H 9972   7.939  10.665   1.898 -0.0563  3.9162 -1.5781
   74MOL0     H 9973   8.103  10.488   1.847 -1.8257  0.8019 -0.6276
   74MOL0     H 9974   8.459  10.423   1.672  0.1013 -1.2156 -2.2156
   74MOL0     H 9975   8.579  10.288   1.516 -3.4984 -2.3242 -0.2209
   74MOL0     H 9976   9.836  10.560   0.942  0.8851 -0.2878  0.4753
   74MOL0     H 9977   9.871  10.755   0.791  1.3952 -0.1888 -0.0474
   74MOL0     H 9978   9.983  11.228   0.774  1.2300 -0.9727  0.1066
   74MOL0     H 9979  10.059  11.361   0.579 -0.3487  1.4150 -0.6963
   74MOL0     H 9980   9.887  11.246   0.190  0.5202  0.3376  0.1500
   74MOL0     H 9981   9.785  11.386   0.227 -0.2274 -0.8454 -0.8472
   74MOL0     H 9982   9.996  11.511   0.179  0.2737 -0.8812  0.5297
   74MOL0     H 9983   9.889  11.462   0.043 -0.4011 -0.2663  0.9483
   74MOL0     H 9984  10.072  11.265   0.016 -1.1878  0.8825  0.4296
   74MOL0     H 9985  10.163  11.368   0.132 -0.1474 -0.1686  0.2256
   74MOL0     H 9986  10.188  11.540   0.012  0.3506  0.9619 -1.1487
   74MOL0     H 9987  10.062  11.476  -0.119 -0.3479  0.6693  1.2237
   74MOL0     H 9988  10.438  11.311  -0.218  1.8068  1.6462  1.8856
   74MOL0     H 9989   9.776  11.146   0.333 -0.7797  0.6594 -0.1117
   74MOL0     H 9990   9.697  11.034   0.517 -1.2415  0.2801 -2.1543
   75MOL0     O 9991   9.573   1.496   9.626  0.0672  0.5152  0.3851
   75MOL0     C 9992   9.530   1.604   9.662  0.2686 -0.1915 -0.5801
   75MOL0     O 9993   9.493   1.633   9.793 -0.2998 -0.8801  0.3310
   75MOL0     C 9994   9.516   1.537   9.885  0.1394  0.4668  0.3014
   75MOL0     C 9995   9.648   1.486   9.901  0.3054 -0.5161 -0.4620
   75MOL0     C 9996   9.677   1.418  10.018  0.3460  0.1633 -0.3471
   75MOL0     C 9997   9.569   1.389  10.113 -0.3428 -0.2233 -0.7343
   75MOL0     O 9998   9.610   1.325  10.225 -0.2470 -0.1146  0.2178
   75MOL0     C 9999   9.512   1.252  10.295 -0.2073  0.6168 -0.0441
   75MOL0     C10000   9.566   1.238  10.436  0.4913 -0.3854 -0.1455
   75MOL0     C10001   9.653   1.115  10.436  0.0739 -0.1210  0.1193
   75MOL0     C10002   9.683   1.064  10.580  0.0588  0.7695 -0.0394
   75MOL0     C10003   9.803   0.968  10.590  0.3178 -0.2315 -0.8334
   75MOL0     C10004   9.804   0.903  10.733 -0.5154 -0.2683  0.7211
   75MOL0     C10005   9.688   0.821  10.745  0.1501 -0.3184  0.3391
   75MOL0     C10006   9.704   0.702  10.843  0.9287 -1.1572  0.5298
   75MOL0     N10007   9.767   0.582  10.780 -0.3825  0.0520 -0.2439
   75MOL0     C10008   9.895   0.543  10.821 -0.2257  0.4052 -1.0165
   75MOL0     C10009   9.917   0.431  10.750 -1.0593  0.1969  1.2050
   75MOL0     C10010  10.043   0.349  10.732 -0.9366 -0.4279 -0.3956
   75MOL0     C10011  10.101   0.306  10.876  0.5220 -0.2245  0.6950
   75MOL0     C10012  10.208   0.195  10.863  0.3143 -0.2532 -0.2536
   75MOL0     C10013  10.336   0.241  10.795 -0.8262 -0.8867  0.0228
   75MOL0     O10014  10.395   0.328  10.893 -0.2007  0.4820 -0.3945
   75MOL0     C10015  10.514   0.385  10.860  0.9948 -0.5752 -0.6016
   75MOL0     C10016  10.600   0.432  10.963  0.3407  0.1862  0.3628
   75MOL0     C10017  10.725   0.486  10.940  0.2883 -0.2128  0.4966
   75MOL0     C10018  10.808   0.555  11.048 -0.0897  0.1653 -0.2589
   75MOL0     C10019  10.765   0.514  10.801 -0.3041  0.9605  0.2923
   75MOL0     C10020  10.887   0.579  10.766  0.5034  0.0511  0.3847
   75MOL0     O10021  10.870   0.701  10.723 -0.9801  0.5755 -0.4313
   75MOL0     C10022  10.952   0.764  10.637 -1.8083  0.2849  0.1248
   75MOL0     C10023  10.904   0.875  10.559  0.6691 -0.1637 -0.5445
   75MOL0     C10024  10.989   0.953  10.478  0.2459 -0.5911 -0.4744
   75MOL0     C10025  11.129   0.921  10.475 -0.2184  0.8160 -1.0913
   75MOL0     O10026  11.223   0.990  10.408  0.1096 -0.7629  0.3651
   75MOL0     C10027  11.191   1.123  10.365 -0.5185 -0.5679 -1.1266
   75MOL0     C10028  11.319   1.192  10.312  0.7190 -0.2250 -0.7152
   75MOL0     C10029  11.372   1.144  10.178  0.8030  0.0022  0.1098
   75MOL0     C10030  11.496   1.232  10.149 -0.3856  0.8357 -1.5325
   75MOL0     C10031  11.584   1.182  10.029 -0.1449  0.1840 -1.4175
   75MOL0     C10032  11.503   1.191   9.903 -0.0018 -0.0177 -0.0377
   75MOL0     C10033  11.599   1.177   9.781 -0.3021  1.1585 -0.5624
   75MOL0     C10034  11.517   1.150   9.648  0.5660 -0.1413  0.4696
   75MOL0    Cl10035  11.629   1.154   9.492  0.3052 -0.0987 -0.0630
   75MOL0     C10036  11.167   0.807  10.550 -0.2692 -1.7382  0.2479
   75MOL0     C10037  11.084   0.733  10.622 -0.6000  0.0426  0.0892
   75MOL0     O10038  10.990   0.533  10.813  0.1619  0.6586 -0.1051
   75MOL0     C10039  10.669   0.480  10.703  0.2299  0.0724  0.1313
   75MOL0     C10040  10.549   0.415  10.732 -0.8492  0.7621  0.2143
   75MOL0     N10041   9.810   0.415  10.666 -0.1704  0.0847  0.3589
   75MOL0     N10042   9.712   0.499  10.689 -0.9704 -0.5669  0.7830
   75MOL0     C10043   9.451   1.453  10.098 -0.4317 -0.1603 -0.5359
   75MOL0     C10044   9.421   1.525   9.987 -0.5281 -0.6523  1.0501
   75MOL0     C10045   9.518   1.714   9.566 -0.1700 -0.3128 -0.3244
   75MOL0     C10046   9.529   1.695   9.430 -1.0974  0.1367  0.7355
   75MOL0     C10047   9.541   1.809   9.335 -0.1711  0.7158 -0.2225
   75MOL0     C10048   9.518   1.939   9.388 -0.5792  0.2111 -0.4428
   75MOL0     O10049   9.523   2.038   9.298 -0.3823  0.6769 -0.1385
   75MOL0     C10050   9.480   2.177   9.320  0.2656 -0.6073  0.6152
   75MOL0     C10051   9.334   2.189   9.301  0.1639 -0.8499 -0.2305
   75MOL0     C10052   9.284   2.341   9.295 -0.5920  0.2852  0.7449
   75MOL0     C10053   9.141   2.338   9.250  0.3954 -0.1722 -0.3942
   75MOL0     C10054   9.080   2.478   9.229  0.2626  0.3609  0.0083
   75MOL0     C10055   9.030   2.584   9.204 -0.1406 -0.1307  0.6450
   75MOL0     C10056   9.499   1.952   9.528 -0.2463  0.1429 -0.1965
   75MOL0     C10057   9.503   1.846   9.612 -1.0666  0.2323 -0.1605
   75MOL0     H10058   9.718   1.533   9.834  1.1305  0.9356  1.3346
   75MOL0     H10059   9.784   1.404  10.031  0.6095  0.7655 -1.7176
   75MOL0     H10060   9.412   1.294  10.304 -0.9189 -1.0173  0.0143
   75MOL0     H10061   9.490   1.151  10.261 -3.7136  0.5895  1.8650
   75MOL0     H10062   9.620   1.328  10.466  0.1690 -1.1245  2.9785
   75MOL0     H10063   9.489   1.241  10.514  1.1625  0.7480  0.4989
   75MOL0     H10064   9.626   1.036  10.366  2.4827  0.0476 -1.1154
   75MOL0     H10065   9.749   1.139  10.389  1.8330  0.1146  3.5472
   75MOL0     H10066   9.702   1.153  10.641 -1.3006  2.0109 -1.3255
   75MOL0     H10067   9.589   1.025  10.620 -0.7578  2.2006 -0.4831
   75MOL0     H10068   9.800   0.895  10.509  4.6647 -2.5953  0.8180
   75MOL0     H10069   9.897   1.024  10.590  2.3787 -3.2390  3.0073
   75MOL0     H10070   9.889   0.837  10.750  2.6450  3.0571 -0.7318
   75MOL0     H10071   9.804   0.983  10.807  1.5810 -1.8987  2.6326
   75MOL0     H10072   9.607   0.886  10.778 -0.0472 -0.3150 -0.1405
   75MOL0     H10073   9.663   0.777  10.648 -2.0383  1.8366 -0.1745
   75MOL0     H10074   9.602   0.679  10.874 -0.0879  1.8820 -0.2374
   75MOL0     H10075   9.747   0.732  10.939  1.2906 -0.7005  0.2373
   75MOL0     H10076   9.965   0.594  10.886 -1.7733  2.7862 -1.0839
   75MOL0     H10077  10.024   0.260  10.672  1.7226 -0.7141 -0.9033
   75MOL0     H10078  10.117   0.407  10.677 -0.3951 -0.0745  0.6849
   75MOL0     H10079  10.017   0.263  10.931 -1.2274  0.7281 -1.0575
   75MOL0     H10080  10.137   0.399  10.922  0.1049 -0.4145  1.4209
   75MOL0     H10081  10.180   0.104  10.809 -0.3066  0.3753 -1.0013
   75MOL0     H10082  10.240   0.169  10.965 -0.6090  2.7257  0.9035
   75MOL0     H10083  10.315   0.294  10.702  2.3873  0.0953 -0.2698
   75MOL0     H10084  10.408   0.161  10.777  0.7706 -0.8294  4.7231
   75MOL0     H10085  10.554   0.419  11.061 -0.2272  1.3196  0.2524
   75MOL0     H10086  10.826   0.663  11.047 -0.6548  0.3135  1.5826
   75MOL0     H10087  10.770   0.527  11.147  0.7421 -1.9969 -0.4925
   75MOL0     H10088  10.909   0.513  11.059 -0.1908  0.2851  1.4577
   75MOL0     H10089  10.800   0.906  10.559  1.0871  1.3083 -0.7692
   75MOL0     H10090  10.951   1.018  10.400  0.7601  2.8703  1.9334
   75MOL0     H10091  11.130   1.123  10.274 -0.7848  0.9825 -0.9772
   75MOL0     H10092  11.136   1.185  10.436 -3.2235 -0.2433 -3.3394
   75MOL0     H10093  11.286   1.296  10.304 -0.4229 -0.4200  0.8936
   75MOL0     H10094  11.398   1.201  10.387 -1.0088  3.0246  0.9297
   75MOL0     H10095  11.301   1.153  10.095 -1.3315  2.0031  1.9685
   75MOL0     H10096  11.410   1.042  10.179  3.4631  0.9079  1.6173
   75MOL0     H10097  11.463   1.333  10.123 -1.8065  0.4141 -1.4474
   75MOL0     H10098  11.562   1.218  10.235  1.6894  0.7883 -3.0444
   75MOL0     H10099  11.610   1.077  10.043 -0.4885  0.3382  0.6865
   75MOL0     H10100  11.675   1.242  10.019  1.6291 -2.4179 -1.9877
   75MOL0     H10101  11.424   1.116   9.893  0.4721 -0.3466 -1.6987
   75MOL0     H10102  11.463   1.291   9.886  0.1821 -0.0106 -0.4352
   75MOL0     H10103  11.664   1.091   9.799  0.0548  1.1668 -1.6856
   75MOL0     H10104  11.659   1.267   9.763  0.8809  0.1179 -2.1410
   75MOL0     H10105  11.441   1.228   9.649 -0.8657 -1.4896  1.6575
   75MOL0     H10106  11.468   1.052   9.651 -1.4878  0.7321 -1.8572
   75MOL0     H10107  11.272   0.777  10.554  0.8872  1.7580 -0.2165
   75MOL0     H10108  11.134   0.649  10.672 -2.6927 -0.5585  1.3009
   75MOL0     H10109  10.698   0.511  10.603  1.2290  1.6255  0.8630
   75MOL0     H10110  10.483   0.393  10.649  2.3957 -3.6580 -1.5523
   75MOL0     H10111   9.365   1.434  10.161 -0.6438  2.3769  0.0095
   75MOL0     H10112   9.336   1.592   9.985  0.6947  0.9451 -0.6915
   75MOL0     H10113   9.529   1.594   9.388 -0.2106 -0.0603  1.1734
   75MOL0     H10114   9.556   1.786   9.230 -0.3441 -1.0379  0.0998
   75MOL0     H10115   9.507   2.224   9.415  4.3402  0.0473 -0.6933
   75MOL0     H10116   9.537   2.242   9.253 -1.2952  1.1793  0.9228
   75MOL0     H10117   9.291   2.158   9.397  1.9483  2.0579  1.6275
   75MOL0     H10118   9.292   2.124   9.223 -1.6220 -1.5353  1.2236
   75MOL0     H10119   9.359   2.382   9.226  0.7091 -0.5160  1.6334
   75MOL0     H10120   9.291   2.392   9.391 -4.2813  1.5263  0.4732
   75MOL0     H10121   9.077   2.286   9.322  0.9193 -0.5699 -0.2084
   75MOL0     H10122   9.133   2.276   9.159  0.2890 -1.6055  0.5613
   75MOL0     H10123   8.990   2.681   9.184  3.2330  0.9731 -1.5718
   75MOL0     H10124   9.465   2.048   9.566  0.3120 -0.4702  2.0151
   75MOL0     H10125   9.500   1.864   9.719 -0.3289 -1.7662  0.2540
   76MOL0     O10126   5.942   8.962   1.611 -0.0665 -0.0204  0.0868
   76MOL0     C10127   6.056   8.991   1.639 -0.5830  0.0936 -1.1597
   76MOL0     O10128   6.124   9.116   1.604 -0.4055  0.2652 -0.6974
   76MOL0     C10129   6.059   9.194   1.507 -0.1741 -0.3357  0.1490
   76MOL0     C10130   6.054   9.141   1.376 -0.5779 -0.0619 -0.2155
   76MOL0     C10131   5.983   9.218   1.283 -0.2453 -0.2159 -0.9513
   76MOL0     C10132   5.930   9.335   1.318 -0.0770 -0.6301  0.4041
   76MOL0     O10133   5.850   9.396   1.226  0.6928 -0.2289  0.4178
   76MOL0     C10134   5.721   9.338   1.207  0.6598  0.8234 -0.8094
   76MOL0     C10135   5.637   9.405   1.091 -0.9831 -0.0886  0.1090
   76MOL0     C10136   5.495   9.337   1.073 -0.7586 -1.3522  0.5273
   76MOL0     C10137   5.414   9.404   0.954  0.0171  0.3052 -0.3588
   76MOL0     C10138   5.432   9.340   0.815 -0.5313 -0.0092 -0.5959
   76MOL0     C10139   5.353   9.419   0.715  0.8214 -0.0297  0.3868
   76MOL0     C10140   5.196   9.416   0.731 -0.7068  0.3290 -0.0431
   76MOL0     C10141   5.121   9.445   0.600  0.2209  1.0758 -0.0020
   76MOL0     N10142   5.150   9.344   0.497 -0.0758  0.3607  0.3457
   76MOL0     C10143   5.187   9.208   0.514 -0.2952 -0.1466  0.2257
   76MOL0     C10144   5.200   9.166   0.389  0.1098 -0.0081  0.0933
   76MOL0     C10145   5.250   9.033   0.344 -0.0976  0.6653 -0.1110
   76MOL0     C10146   5.220   9.000   0.196 -0.1688  0.0030  0.6761
   76MOL0     C10147   5.267   8.854   0.158  0.0734 -0.4865 -0.9138
   76MOL0     C10148   5.159   8.744   0.201 -0.7358 -0.6193 -0.4783
   76MOL0     O10149   5.217   8.620   0.180  0.2806  0.1171 -0.5569
   76MOL0     C10150   5.157   8.511   0.232  0.8085  0.7885  0.4040
   76MOL0     C10151   5.025   8.499   0.277 -0.3451  0.4573  0.3807
   76MOL0     C10152   4.969   8.385   0.340  0.0693 -0.6815  1.6403
   76MOL0     C10153   4.818   8.390   0.368 -0.7452 -0.3298  0.5339
   76MOL0     C10154   5.051   8.266   0.358  0.5027  1.2461 -0.2441
   76MOL0     C10155   5.004   8.139   0.433  0.4152 -0.5581  0.4982
   76MOL0     O10156   5.081   8.024   0.437 -0.0641 -0.3697  0.2358
   76MOL0     C10157   5.020   7.910   0.474  0.1418 -0.0369  0.5908
   76MOL0     C10158   5.050   7.791   0.410  0.6446 -0.2359 -0.0873
   76MOL0     C10159   4.991   7.663   0.447 -0.1017 -0.1525 -0.0964
   76MOL0     C10160   4.906   7.667   0.553  0.4526 -0.9100  0.0010
   76MOL0     O10161   4.838   7.560   0.588 -0.2353  0.0218 -0.1018
   76MOL0     C10162   4.779   7.460   0.502  0.1212 -0.8775 -0.1075
   76MOL0     C10163   4.787   7.328   0.577  0.4480  0.5097  0.1367
   76MOL0     C10164   4.663   7.313   0.670  0.2944 -0.5385 -0.0673
   76MOL0     C10165   4.661   7.385   0.801  0.0499 -0.1417 -0.0998
   76MOL0     C10166   4.796   7.356   0.881  1.1654  0.5895 -0.4232
   76MOL0     C10167   4.777   7.362   1.036  0.0407  0.2549  0.1490
   76MOL0     C10168   4.901   7.328   1.101  0.2974  0.2983  0.2041
   76MOL0     C10169   4.919   7.368   1.245  0.0517 -0.4612  0.7522
   76MOL0    Cl10170   5.099   7.352   1.257 -0.2551  0.1400 -0.0433
   76MOL0     C10171   4.881   7.776   0.629  0.7815  0.9078  0.1066
   76MOL0     C10172   4.942   7.895   0.587  1.1532 -1.1307  0.1278
   76MOL0     O10173   4.895   8.146   0.481  0.5956  0.4650  0.2263
   76MOL0     C10174   5.179   8.272   0.307  0.1386 -0.1884 -1.2383
   76MOL0     C10175   5.222   8.388   0.248 -0.4355 -0.6898  0.0587
   76MOL0     N10176   5.183   9.269   0.302  0.0315  0.4551 -0.5441
   76MOL0     N10177   5.156   9.377   0.366  0.6806 -0.6620 -0.1026
   76MOL0     C10178   5.926   9.386   1.447  0.2389  0.2963  0.2137
   76MOL0     C10179   5.992   9.314   1.541 -0.3957 -0.3827 -0.7655
   76MOL0     C10180   6.118   8.915   1.753 -0.8271  0.5583  0.3216
   76MOL0     C10181   6.066   8.799   1.818  0.2129  0.3175  0.4558
   76MOL0     C10182   6.142   8.734   1.916 -0.2512 -0.2196 -0.8874
   76MOL0     C10183   6.267   8.787   1.950 -0.5891  0.0473 -0.6390
   76MOL0     O10184   6.322   8.714   2.061  0.3684 -0.1798 -0.2379
   76MOL0     C10185   6.466   8.729   2.078  0.7439  0.0990 -0.0062
   76MOL0     C10186   6.502   8.625   2.184  0.9634 -0.4496 -0.0651
   76MOL0     C10187   6.648   8.660   2.226  0.5919  1.4046 -0.0313
   76MOL0     C10188   6.680   8.565   2.343 -0.0025  0.4057  0.4382
   76MOL0     C10189   6.799   8.613   2.422 -0.0459  0.2160  0.4812
   76MOL0     C10190   6.901   8.646   2.467 -0.6690  0.1269 -0.2005
   76MOL0     C10191   6.320   8.897   1.883 -1.0433 -0.7074  0.3691
   76MOL0     C10192   6.246   8.961   1.787  0.4291  0.6483 -0.4005
   76MOL0     H10193   6.102   9.045   1.358 -1.4101 -0.6881  0.8274
   76MOL0     H10194   5.973   9.175   1.184 -0.6979 -0.2822 -0.8778
   76MOL0     H10195   5.731   9.233   1.177 -0.2066  0.8122 -1.1110
   76MOL0     H10196   5.664   9.347   1.300  3.9386  1.9607  1.2572
   76MOL0     H10197   5.645   9.513   1.104  0.9905 -0.1044 -0.6659
   76MOL0     H10198   5.695   9.394   0.999 -0.5791  0.3412  0.3097
   76MOL0     H10199   5.488   9.231   1.050 -0.1958 -1.6780  1.7960
   76MOL0     H10200   5.440   9.357   1.165 -2.7522  1.3075 -1.0859
   76MOL0     H10201   5.307   9.385   0.970  0.0573 -0.7268 -1.2286
   76MOL0     H10202   5.436   9.510   0.965 -1.5118  0.7045 -0.8764
   76MOL0     H10203   5.535   9.361   0.785  0.8797 -2.0340  2.3412
   76MOL0     H10204   5.419   9.232   0.802 -3.3558  0.4365 -2.2987
   76MOL0     H10205   5.389   9.522   0.721 -1.3157  0.7702  0.5130
   76MOL0     H10206   5.372   9.382   0.614  2.6089  2.0795 -0.1071
   76MOL0     H10207   5.159   9.320   0.768  2.6911 -1.8262 -1.7784
   76MOL0     H10208   5.166   9.490   0.805 -0.2982  0.5618 -0.1066
   76MOL0     H10209   5.161   9.540   0.563  1.6034  0.4074 -0.2464
   76MOL0     H10210   5.013   9.456   0.616  0.2405  3.9976 -1.2319
   76MOL0     H10211   5.191   9.145   0.603  0.2587  1.7744  1.6205
   76MOL0     H10212   5.358   9.033   0.360 -0.2326  0.0943  0.8550
   76MOL0     H10213   5.210   8.963   0.418  0.7993  0.2879  0.0216
   76MOL0     H10214   5.277   9.079   0.146  0.5162  0.4958  2.1993
   76MOL0     H10215   5.115   9.019   0.172 -0.7826 -0.9155  2.4535
   76MOL0     H10216   5.366   8.839   0.202 -0.0444 -0.2795 -0.5761
   76MOL0     H10217   5.280   8.847   0.050  0.0647  1.2001 -1.0504
   76MOL0     H10218   5.067   8.764   0.145 -0.7727 -2.2138 -1.0458
   76MOL0     H10219   5.148   8.767   0.307  1.9340 -0.7366 -0.0984
   76MOL0     H10220   4.958   8.581   0.253 -1.5401 -1.1179 -2.1783
   76MOL0     H10221   4.765   8.303   0.329 -0.3118 -2.2394  3.8607
   76MOL0     H10222   4.791   8.386   0.474  1.0629 -2.0207  0.9829
   76MOL0     H10223   4.776   8.486   0.335 -1.4959 -0.5009  0.9887
   76MOL0     H10224   5.112   7.783   0.321 -0.7773 -0.8007 -1.0733
   76MOL0     H10225   5.003   7.576   0.383  0.0108 -0.5990  0.5174
   76MOL0     H10226   4.677   7.488   0.476  0.7353 -0.2976 -2.0818
   76MOL0     H10227   4.826   7.441   0.405  0.4391 -0.0297 -0.1337
   76MOL0     H10228   4.771   7.250   0.503 -1.6731  0.5225  0.5101
   76MOL0     H10229   4.884   7.320   0.626  1.3374  0.5013 -1.5584
   76MOL0     H10230   4.640   7.210   0.697  1.1517 -0.3563  1.4387
   76MOL0     H10231   4.576   7.356   0.619 -0.0031  1.4912  1.9951
   76MOL0     H10232   4.658   7.493   0.786 -2.0157 -0.5972 -4.5139
   76MOL0     H10233   4.572   7.355   0.856  1.3833  0.6620  2.7107
   76MOL0     H10234   4.873   7.428   0.851 -0.6491  2.0305 -1.9319
   76MOL0     H10235   4.828   7.252   0.869 -1.2793 -0.4301  1.1671
   76MOL0     H10236   4.733   7.460   1.052 -0.9496  0.6300 -3.9193
   76MOL0     H10237   4.706   7.294   1.083  1.5755  0.9233  3.7734
   76MOL0     H10238   4.990   7.373   1.056  0.2966 -2.5009 -2.9939
   76MOL0     H10239   4.918   7.220   1.091 -3.1151 -0.2714 -0.5733
   76MOL0     H10240   4.861   7.302   1.309 -2.9028  0.2396 -0.9989
   76MOL0     H10241   4.903   7.474   1.270  4.7595 -0.1687  3.5974
   76MOL0     H10242   4.804   7.774   0.705  0.3750 -0.4322 -0.3188
   76MOL0     H10243   4.923   7.990   0.636  1.6729  0.5754 -2.7576
   76MOL0     H10244   5.245   8.186   0.315  1.8433  1.1152 -0.8379
   76MOL0     H10245   5.327   8.395   0.220 -0.5764 -1.8395 -0.8590
   76MOL0     H10246   5.859   9.462   1.484 -0.8942 -0.0677 -0.9899
   76MOL0     H10247   5.998   9.347   1.644 -0.2094 -2.9652  0.1391
   76MOL0     H10248   5.962   8.772   1.800 -0.3287  2.4692  0.1025
   76MOL0     H10249   6.095   8.654   1.971  0.0396 -0.2388 -0.6642
   76MOL0     H10250   6.509   8.732   1.977  1.1804  0.9581  0.1914
   76MOL0     H10251   6.471   8.830   2.120 -0.8986 -0.2790  1.1986
   76MOL0     H10252   6.504   8.523   2.145  2.9232 -0.5790  0.2773
   76MOL0     H10253   6.437   8.626   2.272  1.1899 -1.1857  0.1245
   76MOL0     H10254   6.653   8.766   2.249 -0.3880  1.0892  1.8440
   76MOL0     H10255   6.715   8.633   2.144  1.2085 -2.1557  1.4550
   76MOL0     H10256   6.688   8.465   2.302  0.7623  0.8457 -0.5203
   76MOL0     H10257   6.598   8.564   2.416  0.5475  1.6916  1.1260
   76MOL0     H10258   7.000   8.680   2.490 -0.2107 -1.7115  0.7080
   76MOL0     H10259   6.412   8.942   1.918  1.0178 -2.3311 -2.5737
   76MOL0     H10260   6.300   9.040   1.736  2.1305  1.1958  2.0687
   77MOL0     O10261   8.710   0.187   9.264 -0.3556  0.2462  0.1606
   77MOL0     C10262   8.700   0.171   9.386  0.8758  0.1466 -0.1351
   77MOL0     O10263   8.725   0.256   9.492 -0.1971  0.4296  0.2807
   77MOL0     C10264   8.771   0.374   9.453 -0.1943  0.3933  1.0788
   77MOL0     C10265   8.908   0.395   9.419  0.6482 -0.2477 -0.7491
   77MOL0     C10266   8.941   0.521   9.397 -0.5419  0.2197  0.5163
   77MOL0     C10267   8.860   0.632   9.411  0.6067  0.3723 -0.2035
   77MOL0     O10268   8.895   0.756   9.385 -0.4010 -0.4986 -0.1971
   77MOL0     C10269   9.014   0.793   9.454 -0.4077  0.6681 -0.8977
   77MOL0     C10270   9.003   0.944   9.479  0.3963 -0.5797 -0.5216
   77MOL0     C10271   8.970   1.029   9.354 -0.1401 -0.0381  0.9050
   77MOL0     C10272   8.971   1.189   9.373  0.1331 -0.7641 -0.3975
   77MOL0     C10273   9.098   1.261   9.426  0.0367  1.3848  0.6441
   77MOL0     C10274   9.207   1.225   9.317  0.0333 -0.1228  0.1655
   77MOL0     C10275   9.332   1.313   9.313  0.1415 -0.1350  0.3013
   77MOL0     C10276   9.437   1.292   9.196  0.8089 -0.7139 -0.6235
   77MOL0     N10277   9.543   1.388   9.207 -0.6262 -0.9523  1.4414
   77MOL0     C10278   9.682   1.373   9.247 -0.0410  0.3994  0.1268
   77MOL0     C10279   9.741   1.487   9.211 -0.4805 -0.7878  0.4113
   77MOL0     C10280   9.889   1.522   9.223 -0.8241 -0.1897  0.5927
   77MOL0     C10281   9.948   1.557   9.362 -0.0671 -0.2265  0.5128
   77MOL0     C10282   9.901   1.690   9.418  0.7324 -0.0837 -0.0944
   77MOL0     C10283   9.996   1.744   9.525 -0.6126 -0.3137  0.3790
   77MOL0     O10284   9.925   1.822   9.626 -0.1437  0.6669 -0.4782
   77MOL0     C10285   9.889   1.948   9.590 -0.8646  0.7013  0.4749
   77MOL0     C10286   9.905   2.007   9.463 -0.0642  0.2299 -0.6136
   77MOL0     C10287   9.855   2.142   9.447 -0.4968 -0.3581  0.8165
   77MOL0     C10288   9.866   2.197   9.305  0.4520  1.5080 -0.5483
   77MOL0     C10289   9.797   2.218   9.554 -0.8980  0.1839 -0.2016
   77MOL0     C10290   9.750   2.361   9.546  0.0893 -0.4731 -0.1931
   77MOL0     O10291   9.737   2.431   9.663 -0.2590  0.2127 -0.0964
   77MOL0     C10292   9.668   2.550   9.651  0.1226  0.5345 -0.5298
   77MOL0     C10293   9.528   2.546   9.660 -0.3242 -0.5662  0.1193
   77MOL0     C10294   9.458   2.665   9.690 -0.2901  0.5773 -0.4323
   77MOL0     C10295   9.525   2.787   9.700 -0.3512  0.2611  0.2851
   77MOL0     O10296   9.446   2.891   9.708 -0.2496 -0.2891  0.0755
   77MOL0     C10297   9.495   3.029   9.709 -0.5870  0.6308  0.0942
   77MOL0     C10298   9.369   3.113   9.729  0.3507  0.0971  0.2087
   77MOL0     C10299   9.369   3.251   9.688  0.8458 -0.4153  0.2290
   77MOL0     C10300   9.384   3.271   9.545 -0.2674 -0.4150 -0.5694
   77MOL0     C10301   9.380   3.415   9.499  0.2222  0.2765  0.2183
   77MOL0     C10302   9.380   3.448   9.346 -0.1396 -0.1822  0.2264
   77MOL0     C10303   9.509   3.382   9.291  0.5401 -0.4237  0.1251
   77MOL0     C10304   9.554   3.452   9.161 -0.8139  0.4180 -1.2133
   77MOL0    Cl10305   9.517   3.345   9.030  0.6283  0.1615  0.0111
   77MOL0     C10306   9.665   2.779   9.703 -0.1698  0.3957 -0.1905
   77MOL0     C10307   9.738   2.665   9.687 -0.4247  0.3398  0.5959
   77MOL0     O10308   9.711   2.402   9.435 -0.3773 -1.3285 -0.1761
   77MOL0     C10309   9.794   2.152   9.683 -0.0058  0.2414 -0.3171
   77MOL0     C10310   9.821   2.015   9.695 -0.5413 -1.1626 -0.9077
   77MOL0     N10311   9.652   1.563   9.148 -0.0986 -0.6613 -0.4604
   77MOL0     N10312   9.535   1.510   9.147  0.0944  0.1131 -0.6795
   77MOL0     C10313   8.729   0.606   9.443 -0.2113 -0.0959 -0.1612
   77MOL0     C10314   8.683   0.478   9.466 -0.3199  0.2691 -1.1904
   77MOL0     C10315   8.635   0.048   9.423 -0.4858  0.6441  1.2104
   77MOL0     C10316   8.618   0.017   9.563  0.5915 -0.6331 -0.6101
   77MOL0     C10317   8.526  -0.077   9.606 -0.2704  0.4411  0.4223
   77MOL0     C10318   8.471  -0.175   9.506 -0.2982 -0.2321 -0.0609
   77MOL0     O10319   8.395  -0.288   9.535  0.3443  0.0764  0.2027
   77MOL0     C10320   8.365  -0.299   9.681 -0.9800  0.2440  0.2708
   77MOL0     C10321   8.262  -0.407   9.700  0.0959  0.5607  0.2211
   77MOL0     C10322   8.124  -0.352   9.661 -0.2899  0.6108 -0.4117
   77MOL0     C10323   8.030  -0.461   9.625 -0.5821  0.4266  0.9292
   77MOL0     C10324   8.002  -0.547   9.739  0.8970 -0.6889 -0.2924
   77MOL0     C10325   7.974  -0.615   9.840 -0.7242 -0.1973 -0.0573
   77MOL0     C10326   8.490  -0.147   9.372 -0.1769  0.1725  0.2347
   77MOL0     C10327   8.575  -0.040   9.328  0.9589  0.4924 -1.5909
   77MOL0     H10328   8.977   0.311   9.417 -0.5295 -1.2231 -1.2750
   77MOL0     H10329   9.046   0.535   9.372 -0.0576 -1.4250  1.5105
   77MOL0     H10330   9.017   0.758   9.558  0.0871  3.9411  0.3162
   77MOL0     H10331   9.092   0.759   9.385 -1.5459  0.1813 -1.9834
   77MOL0     H10332   8.920   0.965   9.548  0.6515  2.9718 -1.1106
   77MOL0     H10333   9.096   0.980   9.523  1.4609  0.2127 -3.2033
   77MOL0     H10334   9.033   1.008   9.267  0.2382  0.8978  0.9399
   77MOL0     H10335   8.870   0.999   9.322 -1.0441  3.2481  0.2569
   77MOL0     H10336   8.954   1.240   9.278  4.2288 -2.0379 -2.0500
   77MOL0     H10337   8.890   1.216   9.441  2.4513  2.6960  1.3098
   77MOL0     H10338   9.076   1.368   9.436 -0.2546  1.4289 -0.3564
   77MOL0     H10339   9.129   1.219   9.522  0.1643  0.0814  0.0482
   77MOL0     H10340   9.242   1.121   9.317  1.8550  0.3938 -2.6196
   77MOL0     H10341   9.151   1.236   9.223  1.6281  1.5627 -0.6419
   77MOL0     H10342   9.292   1.414   9.297  1.0819  0.0008 -1.4512
   77MOL0     H10343   9.388   1.293   9.405  1.6445 -0.6504 -0.6983
   77MOL0     H10344   9.386   1.287   9.099  1.7111 -1.5416 -1.0725
   77MOL0     H10345   9.481   1.192   9.206 -0.4468 -1.7110 -3.8180
   77MOL0     H10346   9.739   1.286   9.276 -0.4091 -2.0629 -5.3423
   77MOL0     H10347   9.946   1.436   9.186 -2.4520 -0.5446 -1.2073
   77MOL0     H10348   9.916   1.601   9.153  0.2266 -0.3962  0.7350
   77MOL0     H10349  10.057   1.555   9.372 -0.0426  0.4833  0.4341
   77MOL0     H10350   9.915   1.471   9.421  0.0254 -0.1850  0.6260
   77MOL0     H10351   9.800   1.686   9.459 -0.0905  1.5180 -1.8335
   77MOL0     H10352   9.896   1.754   9.329 -0.7267  2.2816  1.5945
   77MOL0     H10353  10.071   1.800   9.468  0.9104  0.6956  3.1820
   77MOL0     H10354  10.034   1.658   9.581 -3.5858  0.0106  3.2105
   77MOL0     H10355   9.954   1.951   9.385  0.5343  0.7463 -0.6183
   77MOL0     H10356   9.945   2.132   9.266  1.8631  1.1354  2.6034
   77MOL0     H10357   9.780   2.188   9.239  0.5800  1.4987 -0.7165
   77MOL0     H10358   9.902   2.300   9.310 -1.0788  2.1963 -2.5592
   77MOL0     H10359   9.478   2.450   9.650 -1.7677  0.1721 -0.1182
   77MOL0     H10360   9.352   2.663   9.712 -0.1323 -3.1914  0.7141
   77MOL0     H10361   9.574   3.046   9.782  1.0781 -6.9118  0.8817
   77MOL0     H10362   9.537   3.043   9.610  1.7536  4.2282  1.4358
   77MOL0     H10363   9.275   3.073   9.691  0.5379 -3.2177  2.7543
   77MOL0     H10364   9.350   3.120   9.836 -0.5342 -0.8999  0.1331
   77MOL0     H10365   9.441   3.312   9.744  3.8628 -1.7650 -1.8661
   77MOL0     H10366   9.273   3.292   9.719  2.1983  1.8168  1.7873
   77MOL0     H10367   9.476   3.223   9.508 -1.5249 -1.8111 -2.0231
   77MOL0     H10368   9.297   3.224   9.499 -2.3167 -0.2903  2.8688
   77MOL0     H10369   9.458   3.475   9.546  0.3918  0.9612 -0.9074
   77MOL0     H10370   9.291   3.466   9.535  0.4091  2.6049 -2.3093
   77MOL0     H10371   9.290   3.419   9.291 -0.5790  2.6625 -0.7447
   77MOL0     H10372   9.366   3.555   9.327 -1.9594 -0.2854  0.7769
   77MOL0     H10373   9.483   3.277   9.274 -0.1119 -0.1080 -0.9760
   77MOL0     H10374   9.596   3.401   9.354 -0.0453 -0.2904  0.9139
   77MOL0     H10375   9.658   3.485   9.173 -1.2787  1.0431  1.9736
   77MOL0     H10376   9.501   3.545   9.138  0.4260  1.0173 -1.7716
   77MOL0     H10377   9.718   2.873   9.710  0.3903  0.2860 -2.2789
   77MOL0     H10378   9.845   2.673   9.667 -0.9529  2.6113 -2.0145
   77MOL0     H10379   9.768   2.212   9.769  2.8141 -0.7391  1.3566
   77MOL0     H10380   9.812   1.970   9.793 -1.2404  2.2948  0.7636
   77MOL0     H10381   8.658   0.686   9.463 -2.3463 -0.9392 -3.5071
   77MOL0     H10382   8.583   0.450   9.499  1.2264 -1.6578  2.5000
   77MOL0     H10383   8.662   0.079   9.641  1.1354 -2.7232  0.8399
   77MOL0     H10384   8.511  -0.093   9.712 -1.7292  1.6350  0.4272
   77MOL0     H10385   8.456  -0.339   9.727 -1.1627 -0.4443  0.0445
   77MOL0     H10386   8.322  -0.208   9.722  0.4462  1.3066 -0.4812
   77MOL0     H10387   8.263  -0.444   9.803 -2.8469  1.6229  0.7204
   77MOL0     H10388   8.288  -0.489   9.631 -1.6098  1.6952 -1.8775
   77MOL0     H10389   8.146  -0.283   9.579 -0.3665  1.7364  0.4926
   77MOL0     H10390   8.093  -0.300   9.752 -1.9718 -1.1361  0.0778
   77MOL0     H10391   8.069  -0.534   9.554 -2.4673  0.1183  0.1635
   77MOL0     H10392   7.942  -0.417   9.578 -0.3136 -0.9405 -0.9854
   77MOL0     H10393   7.963  -0.683   9.922 -1.0121  0.0755  0.1327
   77MOL0     H10394   8.447  -0.212   9.297 -0.7076  1.1084 -0.2899
   77MOL0     H10395   8.609  -0.035   9.225 -1.3460  1.7762 -2.3860
   78MOL0     O10396   1.004   0.063  10.887 -0.1080 -0.1453 -0.9193
   78MOL0     C10397   1.080  -0.019  10.832  0.5860  0.3614 -0.9636
   78MOL0     O10398   1.215  -0.027  10.836  0.9408  0.4548  0.3897
   78MOL0     C10399   1.287   0.064  10.905 -0.1547 -0.1463 -0.6498
   78MOL0     C10400   1.269   0.203  10.903 -0.4695  0.0700 -0.8201
   78MOL0     C10401   1.336   0.284  10.997 -0.7384  0.0080 -0.5484
   78MOL0     C10402   1.425   0.233  11.095 -0.8757 -0.0265 -0.4659
   78MOL0     O10403   1.482   0.299  11.198  0.2126 -0.5943  0.3452
   78MOL0     C10404   1.416   0.414  11.264  0.5459 -0.8429  0.0093
   78MOL0     C10405   1.494   0.459  11.384 -0.4102  0.0845  0.0775
   78MOL0     C10406   1.451   0.377  11.502 -0.3548  0.4145 -0.2970
   78MOL0     C10407   1.473   0.427  11.644 -0.4475 -0.7087 -0.6894
   78MOL0     C10408   1.370   0.374  11.742  0.2377  0.6744 -0.0176
   78MOL0     C10409   1.366   0.223  11.752 -0.5957  0.4896  0.3507
   78MOL0     C10410   1.290   0.172  11.875 -0.3026  0.5074  0.4638
   78MOL0     C10411   1.356   0.202  12.010 -0.3544 -1.1407 -0.5832
   78MOL0     N10412   1.476   0.134  12.054 -0.5682 -0.2086  0.5517
   78MOL0     C10413   1.555   0.152  12.174 -0.1713  0.2091  0.3443
   78MOL0     C10414   1.651   0.053  12.174 -0.4637 -1.4191  0.4904
   78MOL0     C10415   1.759   0.055  12.278 -0.3529 -0.1584  0.1577
   78MOL0     C10416   1.765  -0.072  12.353  0.4898  0.7344 -0.6275
   78MOL0     C10417   1.855  -0.048  12.477 -0.7822  0.0078 -0.3950
   78MOL0     C10418   1.900  -0.179  12.546 -0.8989 -0.0468  0.3938
   78MOL0     O10419   1.960  -0.144  12.668  0.1027  1.1362  1.0046
   78MOL0     C10420   2.041  -0.239  12.730  0.3160 -0.7368 -0.2853
   78MOL0     C10421   2.115  -0.205  12.844  0.3073  0.5321  0.3560
   78MOL0     C10422   2.213  -0.300  12.908 -0.7853 -0.4167  0.1622
   78MOL0     C10423   2.297  -0.231  13.005  0.2528 -0.9945  0.5799
   78MOL0     C10424   2.229  -0.428  12.867 -0.1661 -0.2701  0.0285
   78MOL0     C10425   2.324  -0.523  12.930 -0.3838  0.9395  0.0008
   78MOL0     O10426   2.347  -0.502  13.054  0.0039  0.0718 -0.3902
   78MOL0     C10427   2.441  -0.569  13.135  0.6305 -0.1573 -0.8635
   78MOL0     C10428   2.496  -0.695  13.110  0.1369 -0.5674  0.0898
   78MOL0     C10429   2.596  -0.734  13.197  0.2175  0.1151  0.5095
   78MOL0     C10430   2.654  -0.663  13.300 -0.0287  0.3456 -0.7318
   78MOL0     O10431   2.746  -0.720  13.373  0.3444 -0.0623 -0.1286
   78MOL0     C10432   2.836  -0.648  13.454  0.6410  0.0950 -0.9297
   78MOL0     C10433   2.964  -0.721  13.487 -0.1568  0.5951 -0.1772
   78MOL0     C10434   2.926  -0.850  13.563 -0.2461  0.1612  0.4665
   78MOL0     C10435   3.053  -0.903  13.618 -0.2875 -0.7025 -0.3465
   78MOL0     C10436   3.036  -0.987  13.746 -0.7502  0.1225  0.2492
   78MOL0     C10437   3.161  -1.064  13.802  0.6147 -0.8448 -0.0057
   78MOL0     C10438   3.260  -0.958  13.861 -0.4935  0.1338  0.0272
   78MOL0     C10439   3.225  -0.951  14.013 -0.1351  0.3698  0.7139
   78MOL0    Cl10440   3.329  -0.832  14.097  0.0751  0.7967 -0.0335
   78MOL0     C10441   2.598  -0.538  13.322  0.4653  0.4805 -0.2303
   78MOL0     C10442   2.491  -0.493  13.246  0.7189  0.4561 -0.1924
   78MOL0     O10443   2.378  -0.620  12.868 -0.0118 -0.3418  0.1208
   78MOL0     C10444   2.153  -0.462  12.747  0.0748 -0.7711  0.2783
   78MOL0     C10445   2.066  -0.370  12.682 -0.9123  0.9602 -0.0734
   78MOL0     N10446   1.640  -0.019  12.062  0.7013 -0.2155 -0.0290
   78MOL0     N10447   1.537   0.021  11.997  0.5847 -0.4274  0.4600
   78MOL0     C10448   1.438   0.095  11.086 -0.7525  0.8867  0.0201
   78MOL0     C10449   1.366   0.010  11.003  0.1483 -0.1386 -0.1670
   78MOL0     C10450   1.007  -0.123  10.751 -1.0634 -0.6396 -0.0696
   78MOL0     C10451   0.871  -0.115  10.723 -0.5009 -0.5618  0.7048
   78MOL0     C10452   0.802  -0.229  10.673 -0.3197  0.0339  0.4668
   78MOL0     C10453   0.871  -0.343  10.634 -0.4374  0.5495  0.0140
   78MOL0     O10454   0.803  -0.451  10.575 -0.0415  0.5935 -0.4008
   78MOL0     C10455   0.756  -0.424  10.445 -0.0460 -0.4116  0.3009
   78MOL0     C10456   0.787  -0.553  10.369 -0.2365  0.0608  1.0670
   78MOL0     C10457   0.717  -0.685  10.418  0.1112  0.4068  0.6699
   78MOL0     C10458   0.559  -0.687  10.409 -1.2662  0.9803  0.7203
   78MOL0     C10459   0.522  -0.671  10.268  0.2264 -0.3506  0.1459
   78MOL0     C10460   0.469  -0.643  10.158 -0.0952 -0.6933  0.0921
   78MOL0     C10461   1.012  -0.354  10.655  0.3833 -0.4688  0.1604
   78MOL0     C10462   1.078  -0.238  10.720 -0.0400  1.5677 -1.0041
   78MOL0     H10463   1.192   0.244  10.839  2.5030  5.8460 -1.3602
   78MOL0     H10464   1.317   0.391  10.999 -2.9423 -0.2909 -1.6224
   78MOL0     H10465   1.417   0.496  11.192  0.1796 -3.2170 -2.8962
   78MOL0     H10466   1.313   0.388  11.289  0.8795 -0.1612  2.3876
   78MOL0     H10467   1.600   0.470  11.361 -0.4769 -2.1598 -1.6551
   78MOL0     H10468   1.455   0.559  11.401 -0.6136 -0.1642  1.1139
   78MOL0     H10469   1.346   0.346  11.499  0.2670 -1.8372 -1.5379
   78MOL0     H10470   1.489   0.276  11.485 -0.1358  0.7896 -2.3082
   78MOL0     H10471   1.571   0.385  11.668  0.5455 -0.1912 -3.4805
   78MOL0     H10472   1.473   0.536  11.630 -1.5518 -0.7993 -1.5045
   78MOL0     H10473   1.399   0.419  11.837  0.1769  0.7531 -0.0355
   78MOL0     H10474   1.268   0.405  11.716  0.0391  0.2903  0.2857
   78MOL0     H10475   1.310   0.178  11.669 -0.9326 -1.7177  1.6808
   78MOL0     H10476   1.467   0.183  11.761 -2.1298 -3.9358  0.2901
   78MOL0     H10477   1.186   0.204  11.862 -0.8140 -0.6797  1.4851
   78MOL0     H10478   1.292   0.063  11.873  1.1126  0.5212 -1.0755
   78MOL0     H10479   1.278   0.189  12.086 -3.9158 -4.0204 -4.2707
   78MOL0     H10480   1.380   0.308  12.012 -1.6020 -0.8425 -0.3300
   78MOL0     H10481   1.537   0.221  12.256 -0.5034  0.3442  0.1643
   78MOL0     H10482   1.856   0.071  12.230 -1.6045  2.3612 -1.7722
   78MOL0     H10483   1.736   0.146  12.334 -1.2581  1.4756 -2.6533
   78MOL0     H10484   1.813  -0.149  12.291  0.9374  1.4609 -1.2004
   78MOL0     H10485   1.671  -0.121  12.381  1.2724 -0.3006  0.2495
   78MOL0     H10486   1.804   0.000  12.562 -2.1317 -0.6189 -0.8321
   78MOL0     H10487   1.943   0.014  12.460  0.0899 -0.7864  1.0512
   78MOL0     H10488   1.976  -0.236  12.491 -0.5725  0.6567  0.1042
   78MOL0     H10489   1.816  -0.247  12.562 -1.0057  0.6676  3.5939
   78MOL0     H10490   2.101  -0.101  12.875 -3.4114  0.9344 -1.9909
   78MOL0     H10491   2.279  -0.261  13.109  2.7567  1.2421  1.7726
   78MOL0     H10492   2.404  -0.245  12.986 -0.1406 -3.7939 -0.0105
   78MOL0     H10493   2.268  -0.126  13.003  1.2777 -0.7063  0.0862
   78MOL0     H10494   2.455  -0.758  13.033 -1.1622  0.7209 -0.3249
   78MOL0     H10495   2.636  -0.833  13.176 -1.3896 -0.9285  2.0443
   78MOL0     H10496   2.855  -0.546  13.418  0.2317  0.6402  0.3696
   78MOL0     H10497   2.789  -0.636  13.552  2.7252 -1.5209  0.3581
   78MOL0     H10498   3.019  -0.753  13.398 -0.5163 -4.6440  1.1326
   78MOL0     H10499   3.021  -0.663  13.561  1.7865 -0.7808 -0.5277
   78MOL0     H10500   2.890  -0.928  13.494 -0.1515  0.8020 -0.3257
   78MOL0     H10501   2.846  -0.839  13.637 -0.2905  0.7770  0.3334
   78MOL0     H10502   3.105  -0.965  13.544  2.1519 -0.9471  1.4584
   78MOL0     H10503   3.116  -0.818  13.647 -2.9554  1.6544 -1.0043
   78MOL0     H10504   2.959  -1.061  13.722  0.8953 -3.0214  3.7346
   78MOL0     H10505   2.997  -0.931  13.832 -1.9770 -0.2065 -0.0689
   78MOL0     H10506   3.113  -1.136  13.868  0.6927 -2.1008 -1.2823
   78MOL0     H10507   3.215  -1.120  13.726  1.1054 -1.5616  0.8539
   78MOL0     H10508   3.263  -0.869  13.798  0.1132  1.3470  1.7015
   78MOL0     H10509   3.365  -0.987  13.862 -0.8742 -1.8723  3.9336
   78MOL0     H10510   3.234  -1.052  14.055 -2.4057 -1.3332 -2.4728
   78MOL0     H10511   3.120  -0.921  14.021 -1.0019 -2.2366  0.0718
   78MOL0     H10512   2.633  -0.467  13.397 -0.6225  1.7713 -0.8931
   78MOL0     H10513   2.452  -0.391  13.249 -0.2816  0.1086  3.2488
   78MOL0     H10514   2.188  -0.554  12.702 -1.0534  0.6589 -4.0573
   78MOL0     H10515   2.003  -0.410  12.603 -0.7089  1.0324 -0.2725
   78MOL0     H10516   1.504   0.039  11.152 -0.2557  1.5933  0.1291
   78MOL0     H10517   1.380  -0.097  10.991 -3.2719 -1.1505  2.9287
   78MOL0     H10518   0.813  -0.024  10.735 -0.6908 -0.5542 -0.2083
   78MOL0     H10519   0.694  -0.217  10.673 -0.2483  1.2813  2.7953
   78MOL0     H10520   0.649  -0.404  10.451  0.3526  2.3847 -0.3817
   78MOL0     H10521   0.807  -0.333  10.410  3.7451 -1.6277  2.1637
   78MOL0     H10522   0.890  -0.590  10.375 -0.5669 -1.9603 -2.9681
   78MOL0     H10523   0.767  -0.536  10.263  2.8734 -2.1279 -0.0071
   78MOL0     H10524   0.744  -0.708  10.521 -1.0670  1.9230  1.3574
   78MOL0     H10525   0.753  -0.772  10.363 -1.0827  0.5461 -0.3929
   78MOL0     H10526   0.510  -0.614  10.473  0.7135  1.7257  1.4294
   78MOL0     H10527   0.524  -0.787  10.439  1.2890  0.2652  1.5317
   78MOL0     H10528   0.440  -0.627  10.057 -1.0218 -1.5021  0.2079
   78MOL0     H10529   1.073  -0.435  10.616  2.7473  1.2507  0.0613
   78MOL0     H10530   1.178  -0.263  10.752 -1.3921 -3.3012  0.2624
   79MOL0     O10531   2.694   2.335   1.916  0.1348  0.0303 -0.7236
   79MOL0     C10532   2.592   2.388   1.878  0.2860  0.0931  0.9279
   79MOL0     O10533   2.582   2.523   1.841 -0.0759  0.3902 -0.4010
   79MOL0     C10534   2.701   2.588   1.855  0.0842  0.0213  0.4380
   79MOL0     C10535   2.734   2.649   1.982  0.1917  0.1688 -0.0565
   79MOL0     C10536   2.859   2.711   1.993 -0.6792  0.1719 -0.2844
   79MOL0     C10537   2.955   2.711   1.887  0.6565  0.6115  0.2805
   79MOL0     O10538   3.073   2.775   1.915  0.4409  0.0397  1.1581
   79MOL0     C10539   3.171   2.792   1.806 -0.8176 -0.0101  0.0662
   79MOL0     C10540   3.272   2.904   1.844 -0.1958  0.0476  0.8875
   79MOL0     C10541   3.369   2.860   1.961 -0.6812 -0.9103 -0.2301
   79MOL0     C10542   3.509   2.826   1.910  0.1894 -0.9370 -0.6680
   79MOL0     C10543   3.612   2.787   2.019  0.2419 -0.2984 -0.1391
   79MOL0     C10544   3.657   2.907   2.104  0.2042 -0.3421 -0.4109
   79MOL0     C10545   3.793   2.882   2.175  1.5199 -0.3172  0.5855
   79MOL0     C10546   3.840   2.990   2.273 -0.0183  0.6733  0.0861
   79MOL0     N10547   3.809   3.123   2.232 -0.4708 -0.2819 -0.3088
   79MOL0     C10548   3.863   3.190   2.124  0.0048 -0.4739  0.0865
   79MOL0     C10549   3.829   3.323   2.135  0.8803  0.8985  0.0887
   79MOL0     C10550   3.857   3.447   2.055  0.3483  0.3917  0.4133
   79MOL0     C10551   4.004   3.468   2.008 -0.0692 -0.0281 -1.1368
   79MOL0     C10552   4.029   3.621   2.010  0.4861 -0.3621 -0.2036
   79MOL0     C10553   4.087   3.649   2.146 -0.2584  0.0031 -0.3965
   79MOL0     O10554   4.102   3.790   2.176 -0.7062 -0.9167  0.4868
   79MOL0     C10555   4.219   3.856   2.133 -0.3315 -0.2007 -0.1074
   79MOL0     C10556   4.227   3.985   2.176  0.1406 -0.8312  0.3221
   79MOL0     C10557   4.325   4.077   2.143 -0.6392 -0.4857 -0.0264
   79MOL0     C10558   4.321   4.213   2.215 -0.6098  0.5067 -0.1196
   79MOL0     C10559   4.423   4.029   2.048 -0.6714  0.7912 -0.0112
   79MOL0     C10560   4.533   4.111   1.992  0.5833  0.7667  0.3405
   79MOL0     O10561   4.623   4.060   1.905  0.1725 -0.3849  0.0004
   79MOL0     C10562   4.746   4.118   1.879 -0.6774  0.6287  0.6145
   79MOL0     C10563   4.796   4.124   1.747 -0.4520  0.4751  0.0574
   79MOL0     C10564   4.926   4.167   1.729 -0.7456 -1.0020 -1.0723
   79MOL0     C10565   5.012   4.193   1.843  1.0181  0.3849 -0.7877
   79MOL0     O10566   5.139   4.236   1.810 -0.2677  0.4691  0.0923
   79MOL0     C10567   5.241   4.133   1.815 -0.9786  0.9402  0.2286
   79MOL0     C10568   5.353   4.153   1.711 -0.9814 -0.0552  0.8036
   79MOL0     C10569   5.409   4.287   1.674 -0.0734  0.1548 -0.6271
   79MOL0     C10570   5.364   4.408   1.758 -0.3245 -0.3203  0.8058
   79MOL0     C10571   5.465   4.525   1.735  0.0595 -0.4555 -0.2207
   79MOL0     C10572   5.480   4.558   1.587 -1.4812  0.5044  0.5850
   79MOL0     C10573   5.605   4.634   1.560 -0.5944 -0.7746  0.0056
   79MOL0     C10574   5.735   4.543   1.562 -0.2978 -0.1297 -0.2957
   79MOL0    Cl10575   5.753   4.487   1.391 -0.4591  0.3977  0.1846
   79MOL0     C10576   4.963   4.176   1.973 -1.7744 -0.2965  0.6074
   79MOL0     C10577   4.834   4.135   1.985  0.1984 -0.6347  1.0010
   79MOL0     O10578   4.555   4.217   2.049  0.2954  0.0571  0.7997
   79MOL0     C10579   4.416   3.899   2.001  0.1991 -0.2913  0.7942
   79MOL0     C10580   4.309   3.816   2.039  0.2783 -1.5358  0.6636
   79MOL0     N10581   3.752   3.332   2.256  0.4749 -0.3572  0.3506
   79MOL0     N10582   3.730   3.213   2.302  0.1429  0.1485  0.5911
   79MOL0     C10583   2.927   2.647   1.768  0.7547  0.0467 -0.8121
   79MOL0     C10584   2.803   2.580   1.751  0.0061 -0.0164  0.3909
   79MOL0     C10585   2.458   2.312   1.882 -0.9628 -0.6153  0.2073
   79MOL0     C10586   2.455   2.178   1.920  0.4930 -0.9687  0.8590
   79MOL0     C10587   2.324   2.108   1.923 -0.5896 -0.6223 -0.8366
   79MOL0     C10588   2.208   2.181   1.894  0.8382 -0.2030  0.3766
   79MOL0     O10589   2.078   2.134   1.911 -0.2416 -0.3362  0.1207
   79MOL0     C10590   2.062   2.007   1.975  0.4551 -0.4486 -0.2443
   79MOL0     C10591   1.914   1.971   2.022  0.9726 -0.5372  0.9831
   79MOL0     C10592   1.914   1.856   2.124  0.8095  0.0081  0.6690
   79MOL0     C10593   1.910   1.912   2.278 -0.8409  0.1049 -0.2797
   79MOL0     C10594   1.803   2.006   2.315  0.7465 -0.6294  0.5022
   79MOL0     C10595   1.703   2.082   2.341 -0.2508  0.2876  0.6242
   79MOL0     C10596   2.218   2.310   1.844 -0.4555  0.5954  0.1573
   79MOL0     C10597   2.340   2.376   1.840  0.0355 -0.1519 -0.3254
   79MOL0     H10598   2.659   2.638   2.059 -0.4300  0.0153 -0.6747
   79MOL0     H10599   2.903   2.768   2.074 -0.1002  1.8811 -1.7255
   79MOL0     H10600   3.229   2.703   1.782  2.8709  2.0552  0.5079
   79MOL0     H10601   3.124   2.817   1.710 -2.4840  0.6457  1.0218
   79MOL0     H10602   3.330   2.950   1.764 -2.0278  2.3184  0.7417
   79MOL0     H10603   3.212   2.990   1.876  0.9004  0.8779  0.7540
   79MOL0     H10604   3.381   2.947   2.026  2.5801  0.6379 -2.6451
   79MOL0     H10605   3.335   2.770   2.013  0.8272  0.9942  4.5088
   79MOL0     H10606   3.499   2.744   1.839  0.5595 -1.5309 -0.0439
   79MOL0     H10607   3.547   2.914   1.856 -0.7278 -2.1194 -3.4202
   79MOL0     H10608   3.585   2.713   2.095 -0.5714  0.8171  0.6996
   79MOL0     H10609   3.700   2.749   1.967  0.7374  1.6301 -0.7933
   79MOL0     H10610   3.653   3.002   2.050  1.4633  0.5951  1.0750
   79MOL0     H10611   3.575   2.919   2.175 -0.8043 -0.4380 -1.5299
   79MOL0     H10612   3.785   2.787   2.229 -0.6054 -0.7252 -0.3466
   79MOL0     H10613   3.876   2.876   2.103  0.4981 -2.5861 -0.5085
   79MOL0     H10614   3.949   2.992   2.271  0.0506  1.7217  2.2330
   79MOL0     H10615   3.813   2.979   2.379 -1.2882  1.1145 -0.1753
   79MOL0     H10616   3.917   3.145   2.042 -0.7617 -0.4204 -0.4567
   79MOL0     H10617   3.805   3.428   1.961 -2.4559  1.2677  1.6666
   79MOL0     H10618   3.832   3.540   2.108 -0.8283  1.0547 -1.2355
   79MOL0     H10619   4.010   3.439   1.903  0.9175  0.1158 -1.1255
   79MOL0     H10620   4.086   3.423   2.065 -1.6517  0.2849  1.6101
   79MOL0     H10621   3.934   3.671   1.991  1.5638  1.9383  0.1086
   79MOL0     H10622   4.101   3.655   1.935 -1.0113  0.4507 -1.3375
   79MOL0     H10623   4.177   3.591   2.166 -2.4522 -3.6288 -0.2974
   79MOL0     H10624   4.016   3.607   2.217 -1.2596 -0.7504 -1.8061
   79MOL0     H10625   4.156   4.021   2.250 -1.4525 -0.3668 -1.3564
   79MOL0     H10626   4.414   4.227   2.271  0.4378 -1.0287 -1.4020
   79MOL0     H10627   4.306   4.297   2.146 -1.4279  2.2563  2.0862
   79MOL0     H10628   4.246   4.231   2.293 -1.0226 -1.9776  0.1237
   79MOL0     H10629   4.731   4.102   1.663  1.0798  1.7945 -1.5580
   79MOL0     H10630   4.973   4.167   1.631  1.1137 -1.3707 -0.2270
   79MOL0     H10631   5.291   4.138   1.912  1.9306  0.6909 -1.1568
   79MOL0     H10632   5.203   4.036   1.783  2.8047  0.3127 -3.2786
   79MOL0     H10633   5.440   4.115   1.765 -0.4117 -0.2479 -0.2329
   79MOL0     H10634   5.337   4.080   1.631 -0.3930  1.5915 -0.8718
   79MOL0     H10635   5.370   4.310   1.574  0.6771  2.4074 -0.4373
   79MOL0     H10636   5.518   4.284   1.676 -0.0552 -3.3419  0.2484
   79MOL0     H10637   5.260   4.438   1.744  0.5078  1.6406 -2.2322
   79MOL0     H10638   5.374   4.387   1.865 -0.2351 -0.1881  0.8238
   79MOL0     H10639   5.563   4.497   1.776  0.5478  2.7157  1.0741
   79MOL0     H10640   5.433   4.619   1.781  2.3044  0.9210 -1.2893
   79MOL0     H10641   5.486   4.473   1.519  0.6879  0.9204  0.1795
   79MOL0     H10642   5.399   4.627   1.560 -1.4156  0.7306  0.9649
   79MOL0     H10643   5.628   4.714   1.631  0.0760 -0.9163 -0.0431
   79MOL0     H10644   5.594   4.681   1.462 -3.3065  0.3677  0.7667
   79MOL0     H10645   5.726   4.458   1.630 -2.5081  1.0013  0.9332
   79MOL0     H10646   5.815   4.610   1.597  1.4218 -1.8438 -0.7966
   79MOL0     H10647   5.017   4.198   2.065 -1.3543  1.6571 -0.0358
   79MOL0     H10648   4.791   4.125   2.084  0.5671 -0.0016  1.2277
   79MOL0     H10649   4.493   3.863   1.934 -0.8270  1.0668 -1.2179
   79MOL0     H10650   4.320   3.711   2.014 -1.3045 -1.1669 -1.9698
   79MOL0     H10651   3.004   2.637   1.692  0.3620  0.4366 -1.2699
   79MOL0     H10652   2.774   2.523   1.663  1.2766 -0.3887  0.2026
   79MOL0     H10653   2.540   2.115   1.946  0.3651 -2.6055 -2.2039
   79MOL0     H10654   2.340   2.006   1.954  3.6145  0.4108  1.1007
   79MOL0     H10655   2.101   1.929   1.909 -2.4796 -1.0105 -1.4703
   79MOL0     H10656   2.124   1.985   2.063  1.5841 -1.0621 -1.1667
   79MOL0     H10657   1.857   1.940   1.934  1.9349  0.5754 -0.0631
   79MOL0     H10658   1.869   2.061   2.063 -0.5079 -1.2013  0.8807
   79MOL0     H10659   1.997   1.785   2.115  1.1850  0.3724  1.1647
   79MOL0     H10660   1.834   1.789   2.091  0.4632  0.4564  0.5907
   79MOL0     H10661   2.007   1.963   2.289  0.2148 -1.5050 -1.5312
   79MOL0     H10662   1.914   1.828   2.347 -2.3387  1.0701  1.0503
   79MOL0     H10663   1.609   2.135   2.344 -1.8091 -2.3041  0.3391
   79MOL0     H10664   2.132   2.372   1.821  1.2404  3.0635  0.1078
   79MOL0     H10665   2.335   2.484   1.827 -0.3390  0.8611  5.4828
   80MOL0     O10666  11.106   2.530   9.291  0.6276 -0.2828 -0.8786
   80MOL0     C10667  11.082   2.454   9.199  0.3104  0.5911  0.6406
   80MOL0     O10668  11.126   2.322   9.191 -0.2402 -0.7573 -0.2492
   80MOL0     C10669  11.230   2.282   9.267  0.7204 -0.1204 -1.7097
   80MOL0     C10670  11.362   2.279   9.222 -0.5578  0.1437  0.2784
   80MOL0     C10671  11.465   2.222   9.306  0.3567  0.1901 -1.1505
   80MOL0     C10672  11.439   2.182   9.436 -0.4759  0.9158 -1.3212
   80MOL0     O10673  11.541   2.119   9.503  0.2875  0.1558  0.4158
   80MOL0     C10674  11.528   2.081   9.641 -0.1064  0.0730  0.1799
   80MOL0     C10675  11.644   1.982   9.682 -0.7925 -0.8134 -0.9159
   80MOL0     C10676  11.782   2.052   9.668  1.1185  0.6569  0.1439
   80MOL0     C10677  11.899   1.963   9.721  0.2544 -0.2994 -0.4197
   80MOL0     C10678  12.022   2.055   9.751 -0.1275  0.0890 -0.1496
   80MOL0     C10679  12.152   1.972   9.760  0.4865  0.4687 -0.1432
   80MOL0     C10680  12.285   2.047   9.800  0.3937 -0.1375 -0.3835
   80MOL0     C10681  12.311   2.163   9.701  0.4749 -0.0284  0.1079
   80MOL0     N10682  12.295   2.121   9.560  0.0838  0.0247  0.4322
   80MOL0     C10683  12.222   2.185   9.466 -0.1888 -0.2672  0.0351
   80MOL0     C10684  12.242   2.115   9.348  0.3984 -0.2827  0.1366
   80MOL0     C10685  12.203   2.138   9.204  0.3323  0.1644  0.6487
   80MOL0     C10686  12.318   2.116   9.103 -0.3412  0.0852  0.0573
   80MOL0     C10687  12.271   2.128   8.967 -0.0377 -0.4108 -1.0023
   80MOL0     C10688  12.375   2.128   8.857  0.8556 -0.2842 -0.7526
   80MOL0     O10689  12.484   2.213   8.878  0.5332 -0.0901 -0.3094
   80MOL0     C10690  12.581   2.221   8.784  0.6673  0.1386  0.2453
   80MOL0     C10691  12.557   2.167   8.655 -0.1135 -0.4986 -0.3453
   80MOL0     C10692  12.663   2.177   8.560  0.4125  0.1018  0.3263
   80MOL0     C10693  12.628   2.118   8.424  0.5100  0.7828 -0.0123
   80MOL0     C10694  12.787   2.223   8.597 -0.0751 -0.0484 -0.6624
   80MOL0     C10695  12.899   2.229   8.508  0.4212 -0.2073  0.6274
   80MOL0     O10696  12.975   2.344   8.511  0.2345 -0.0175 -0.8690
   80MOL0     C10697  13.084   2.354   8.430  0.4004  0.4154  0.0029
   80MOL0     C10698  13.060   2.390   8.298 -0.1301  1.2229  0.1349
   80MOL0     C10699  13.158   2.409   8.212 -0.5289 -0.4459 -0.5868
   80MOL0     C10700  13.288   2.371   8.249 -0.0465  0.1233 -1.2581
   80MOL0     O10701  13.400   2.381   8.173 -0.5703  0.4200 -0.0508
   80MOL0     C10702  13.381   2.395   8.029 -0.2447  1.3248  0.4784
   80MOL0     C10703  13.505   2.403   7.944 -0.2655  0.9477  0.7610
   80MOL0     C10704  13.595   2.275   7.960  0.8619  0.3899 -0.1612
   80MOL0     C10705  13.704   2.263   7.842 -0.7994  0.8645 -0.6382
   80MOL0     C10706  13.821   2.159   7.875  0.4416  0.4978 -0.4437
   80MOL0     C10707  13.933   2.142   7.772  0.2091  1.0981  0.4988
   80MOL0     C10708  14.024   2.026   7.806 -0.4182  0.4044  0.8855
   80MOL0     C10709  14.124   2.008   7.696 -0.7383 -0.0508  0.7579
   80MOL0    Cl10710  14.218   1.864   7.733  0.2016 -0.2290  0.2742
   80MOL0     C10711  13.314   2.323   8.382  0.0473 -0.6022  0.7660
   80MOL0     C10712  13.208   2.327   8.477  0.5166  0.5641 -0.2264
   80MOL0     O10713  12.923   2.133   8.437 -0.2318  0.2702  0.3398
   80MOL0     C10714  12.807   2.273   8.725  0.3417  0.3490 -0.4100
   80MOL0     C10715  12.700   2.284   8.816  0.4108 -0.8304 -0.0215
   80MOL0     N10716  12.329   2.015   9.376 -0.0848  1.0946 -0.3883
   80MOL0     N10717  12.363   2.022   9.502  0.5011  0.5498 -0.5725
   80MOL0     C10718  11.310   2.205   9.487  0.1705 -0.1896  0.2209
   80MOL0     C10719  11.211   2.246   9.404  0.4921 -0.3691 -1.0592
   80MOL0     C10720  10.992   2.503   9.093  0.6937 -0.5888 -0.5016
   80MOL0     C10721  10.990   2.445   8.958 -0.6354  0.3998  0.1280
   80MOL0     C10722  10.907   2.501   8.873  0.0135  0.1594  0.8602
   80MOL0     C10723  10.800   2.593   8.902 -0.2409  0.4462  0.0454
   80MOL0     O10724  10.694   2.640   8.818 -0.1460  0.4314  0.2782
   80MOL0     C10725  10.710   2.622   8.673  1.1840 -0.0845 -0.1544
   80MOL0     C10726  10.666   2.754   8.602 -0.5673  0.5623  0.3497
   80MOL0     C10727  10.643   2.737   8.452  0.4420 -1.0074  0.5588
   80MOL0     C10728  10.562   2.870   8.400 -0.2839  0.0721 -0.3490
   80MOL0     C10729  10.475   2.838   8.289  0.7280 -0.0999  0.2641
   80MOL0     C10730  10.403   2.829   8.196  0.6767 -0.6818  0.7252
   80MOL0     C10731  10.807   2.644   9.030 -0.2373 -0.0321 -0.5282
   80MOL0     C10732  10.893   2.602   9.124  0.0222 -0.0141 -0.2884
   80MOL0     H10733  11.387   2.323   9.126 -2.8598 -0.1087 -0.5120
   80MOL0     H10734  11.568   2.220   9.273  1.0648  1.7284  0.7681
   80MOL0     H10735  11.523   2.174   9.699  2.3692  1.3306 -1.4663
   80MOL0     H10736  11.431   2.035   9.666  0.2334 -0.2445  0.9460
   80MOL0     H10737  11.626   1.950   9.785  0.5226  0.3286 -0.2919
   80MOL0     H10738  11.653   1.890   9.624 -0.4907 -1.2547 -0.1907
   80MOL0     H10739  11.786   2.078   9.562 -2.5390 -0.1161 -0.3242
   80MOL0     H10740  11.774   2.152   9.709  1.7105  1.1111 -0.8135
   80MOL0     H10741  11.881   1.923   9.821  2.0888  1.6242  0.7504
   80MOL0     H10742  11.912   1.890   9.640  1.5069  1.5665 -1.9913
   80MOL0     H10743  12.032   2.129   9.671 -0.1106 -0.8090 -1.0068
   80MOL0     H10744  12.010   2.107   9.846 -0.8373 -1.1127  0.4431
   80MOL0     H10745  12.135   1.888   9.827 -0.4322  0.6933 -0.0766
   80MOL0     H10746  12.165   1.926   9.662 -1.9020 -0.8471  0.0822
   80MOL0     H10747  12.278   2.084   9.902  2.3508 -3.4188  1.0913
   80MOL0     H10748  12.362   1.969   9.801 -1.2269 -1.8750 -1.7870
   80MOL0     H10749  12.417   2.188   9.708  0.6792 -0.7603 -0.2707
   80MOL0     H10750  12.246   2.250   9.715  2.7299  1.9880 -1.1499
   80MOL0     H10751  12.152   2.267   9.483 -1.6644 -1.8990  2.3534
   80MOL0     H10752  12.118   2.072   9.183  2.3958 -1.6243 -3.1486
   80MOL0     H10753  12.173   2.242   9.187  0.6794  0.1359 -0.1859
   80MOL0     H10754  12.345   2.010   9.110  0.8770  0.2544 -1.5386
   80MOL0     H10755  12.412   2.170   9.117 -0.6520  0.8626 -0.7646
   80MOL0     H10756  12.224   2.227   8.966 -0.6702 -0.6701  0.3353
   80MOL0     H10757  12.195   2.056   8.937  0.4663 -0.5061 -2.1239
   80MOL0     H10758  12.323   2.155   8.764 -2.9872 -3.1411  0.3030
   80MOL0     H10759  12.413   2.026   8.851  0.8001 -0.3154 -0.5905
   80MOL0     H10760  12.459   2.134   8.624 -0.7940  0.2473  0.9176
   80MOL0     H10761  12.675   2.022   8.402  1.6294  1.4186 -0.5222
   80MOL0     H10762  12.519   2.114   8.417  0.5841  0.0490 -1.0452
   80MOL0     H10763  12.661   2.178   8.338  1.5204  2.1775  1.2970
   80MOL0     H10764  12.957   2.381   8.265  0.2069  0.8595 -0.8212
   80MOL0     H10765  13.126   2.449   8.116 -1.1466  1.4530  0.3531
   80MOL0     H10766  13.321   2.319   7.979  1.0693  0.8834 -0.5168
   80MOL0     H10767  13.323   2.486   8.010 -0.4242  0.8638 -1.3860
   80MOL0     H10768  13.485   2.408   7.836  0.9768 -1.8472  0.3252
   80MOL0     H10769  13.566   2.485   7.982  0.8590 -1.0039  3.4119
   80MOL0     H10770  13.523   2.193   7.960  0.0253  1.1088 -1.1527
   80MOL0     H10771  13.652   2.283   8.053  0.9342 -0.9134 -0.0755
   80MOL0     H10772  13.658   2.233   7.748 -0.7181 -0.2286 -0.3411
   80MOL0     H10773  13.748   2.363   7.840 -1.3498  1.4145  3.7274
   80MOL0     H10774  13.767   2.065   7.887 -0.0838  0.9955  1.3914
   80MOL0     H10775  13.870   2.185   7.969 -3.1970  1.1524  1.4624
   80MOL0     H10776  13.864   2.108   7.694 -0.5655  1.4652  1.0240
   80MOL0     H10777  13.993   2.232   7.757  0.6481  0.6674 -0.4544
   80MOL0     H10778  13.964   1.934   7.814 -1.0704  0.6911 -0.3730
   80MOL0     H10779  14.069   2.051   7.903  2.5374 -0.8297 -0.0455
   80MOL0     H10780  14.198   2.088   7.696 -1.1166  0.3111  0.3676
   80MOL0     H10781  14.070   2.010   7.600 -0.9839  1.3663  0.9005
   80MOL0     H10782  13.405   2.285   8.426  0.8509  0.7468  0.3460
   80MOL0     H10783  13.220   2.278   8.573 -0.5608 -0.7781 -0.7410
   80MOL0     H10784  12.908   2.296   8.760 -0.0800  1.0769  0.3641
   80MOL0     H10785  12.727   2.314   8.917 -0.8817  1.5263 -0.3142
   80MOL0     H10786  11.269   2.196   9.587 -0.8075  0.3429 -0.1232
   80MOL0     H10787  11.106   2.249   9.431  0.0621 -0.9884 -2.5038
   80MOL0     H10788  11.055   2.362   8.935 -0.8663  0.7723 -2.1383
   80MOL0     H10789  10.918   2.470   8.769  2.1938 -1.1467  1.4231
   80MOL0     H10790  10.812   2.595   8.643  2.3640  2.7673  0.9074
   80MOL0     H10791  10.642   2.545   8.635 -1.3525  1.7608  0.4025
   80MOL0     H10792  10.749   2.824   8.612  1.7124 -1.7442 -0.9679
   80MOL0     H10793  10.570   2.790   8.639 -1.7863 -2.6963  0.6684
   80MOL0     H10794  10.571   2.656   8.442 -2.5691  1.3366  1.6651
   80MOL0     H10795  10.737   2.712   8.402  2.1998  2.1170  1.9532
   80MOL0     H10796  10.631   2.942   8.355  1.4293 -0.0076  1.9843
   80MOL0     H10797  10.520   2.920   8.488 -0.7750 -2.2570  0.7993
   80MOL0     H10798  10.329   2.811   8.120  2.2133 -2.1366 -0.5024
   80MOL0     H10799  10.725   2.713   9.048 -0.0896  0.6057 -2.0904
   80MOL0     H10800  10.870   2.646   9.220  0.3902  3.9224 -1.8357
   81MOL0     O10801   2.124   8.273   7.294  0.5154 -0.1015 -0.5507
   81MOL0     C10802   2.074   8.383   7.322 -0.0272  0.4815 -0.6276
   81MOL0     O10803   2.004   8.460   7.243  0.0323 -0.0687 -0.1950
   81MOL0     C10804   1.975   8.407   7.117  0.4536  0.1454  0.0743
   81MOL0     C10805   1.884   8.306   7.108  0.1985  0.1691  0.3758
   81MOL0     C10806   1.847   8.261   6.979  0.6351 -0.8092  0.5649
   81MOL0     C10807   1.916   8.312   6.861 -0.2288 -0.6991  0.5256
   81MOL0     O10808   1.885   8.260   6.739 -0.1669 -0.9564 -0.0739
   81MOL0     C10809   1.923   8.314   6.607  0.5104  0.2791  0.3403
   81MOL0     C10810   1.845   8.235   6.512  0.6979 -0.3308  0.2058
   81MOL0     C10811   1.901   8.254   6.362  0.1553  0.0048  0.6537
   81MOL0     C10812   1.862   8.396   6.305 -0.4423 -0.8562  0.3999
   81MOL0     C10813   1.719   8.400   6.257 -0.0624 -0.5560  0.6613
   81MOL0     C10814   1.659   8.536   6.234  0.4291 -0.9401 -0.1643
   81MOL0     C10815   1.539   8.546   6.141  0.0858 -0.4206  0.2685
   81MOL0     C10816   1.472   8.687   6.129 -0.7983  1.1916  0.0741
   81MOL0     N10817   1.364   8.703   6.035  0.2516 -0.2361  0.5628
   81MOL0     C10818   1.276   8.601   5.999  0.3654  0.5357 -0.6573
   81MOL0     C10819   1.191   8.659   5.912 -0.3778  0.9710  0.2655
   81MOL0     C10820   1.055   8.591   5.877  0.6141 -0.4995  0.3747
   81MOL0     C10821   0.945   8.686   5.914 -0.5855 -0.4702 -0.3341
   81MOL0     C10822   0.807   8.612   5.931  0.0583  1.0064 -0.8491
   81MOL0     C10823   0.703   8.721   5.935  1.0640  0.1175  0.6578
   81MOL0     O10824   0.579   8.651   5.966 -0.4222 -1.1245  0.6060
   81MOL0     C10825   0.515   8.631   5.849  1.1947  0.8017  0.6576
   81MOL0     C10826   0.500   8.712   5.733 -0.3136  0.1578 -0.5077
   81MOL0     C10827   0.417   8.667   5.629 -0.2231 -0.9080  0.0222
   81MOL0     C10828   0.410   8.771   5.514 -0.3420  0.4151 -0.8369
   81MOL0     C10829   0.360   8.544   5.623 -0.0215 -0.1836 -0.7453
   81MOL0     C10830   0.277   8.485   5.513 -0.4301 -0.0025  0.5019
   81MOL0     O10831   0.224   8.360   5.531  0.0840 -0.0573  0.1695
   81MOL0     C10832   0.132   8.317   5.443  0.3544 -0.0274  0.4574
   81MOL0     C10833  -0.004   8.298   5.479  0.0247 -0.1745  0.3268
   81MOL0     C10834  -0.091   8.251   5.377  0.0795  1.0873  0.6355
   81MOL0     C10835  -0.051   8.226   5.248  0.4358 -0.7418  0.3596
   81MOL0     O10836  -0.146   8.190   5.159  0.2543 -0.4936 -0.4145
   81MOL0     C10837  -0.123   8.205   5.019 -0.2338 -0.5930 -1.2548
   81MOL0     C10838  -0.258   8.157   4.948 -0.4945 -0.8675 -0.7968
   81MOL0     C10839  -0.363   8.275   4.952 -0.1563  0.0912  0.2216
   81MOL0     C10840  -0.505   8.218   4.924 -0.6485 -0.5388 -0.1293
   81MOL0     C10841  -0.562   8.145   5.045 -0.1503  0.8112  1.2242
   81MOL0     C10842  -0.590   7.997   5.038  0.9826 -0.4413  0.1333
   81MOL0     C10843  -0.669   7.970   5.169  0.9983  0.6930 -0.9518
   81MOL0     C10844  -0.683   7.826   5.180  0.0054  0.1985 -0.8053
   81MOL0    Cl10845  -0.771   7.783   5.330 -0.2246 -0.7413 -0.3168
   81MOL0     C10846   0.085   8.245   5.217 -0.5715  0.2018 -0.6582
   81MOL0     C10847   0.173   8.281   5.317  0.3107 -0.7724 -0.0418
   81MOL0     O10848   0.259   8.551   5.412 -0.4338  0.2587 -0.5467
   81MOL0     C10849   0.399   8.461   5.729 -0.4698 -0.2822  0.5968
   81MOL0     C10850   0.469   8.498   5.844 -0.4625 -0.5215  0.1349
   81MOL0     N10851   1.230   8.783   5.890 -0.5746 -0.2452 -0.1856
   81MOL0     N10852   1.331   8.810   5.969  0.1089 -1.0966 -0.8349
   81MOL0     C10853   2.016   8.405   6.873 -0.1802 -0.2892 -0.6940
   81MOL0     C10854   2.031   8.465   7.005 -0.7736  0.2236  0.9355
   81MOL0     C10855   2.097   8.433   7.463  0.5856  0.2864 -0.0502
   81MOL0     C10856   2.193   8.362   7.541 -0.1233 -0.5269 -0.5256
   81MOL0     C10857   2.217   8.415   7.672  0.9276 -0.9324 -0.2386
   81MOL0     C10858   2.152   8.518   7.726  1.2973 -0.1178  0.6861
   81MOL0     O10859   2.167   8.568   7.857  0.4375 -0.6259 -0.0856
   81MOL0     C10860   2.252   8.515   7.969  0.6011 -0.5907  1.1939
   81MOL0     C10861   2.202   8.584   8.097 -0.1637 -1.6531 -0.4704
   81MOL0     C10862   2.045   8.582   8.109  0.6175 -0.6863 -0.6864
   81MOL0     C10863   1.998   8.550   8.248  0.1515 -0.7471  0.1465
   81MOL0     C10864   1.857   8.541   8.239  0.8437  0.4554 -0.0237
   81MOL0     C10865   1.732   8.540   8.217 -0.1948 -0.1934  0.2917
   81MOL0     C10866   2.049   8.577   7.650 -0.2976  0.1799 -0.5962
   81MOL0     C10867   2.029   8.540   7.516  0.4625 -0.9618 -0.1914
   81MOL0     H10868   1.839   8.263   7.197 -0.7893 -0.0566 -0.2077
   81MOL0     H10869   1.773   8.182   6.979  3.9875 -4.4575  4.7045
   81MOL0     H10870   1.914   8.422   6.593  2.3352  0.2101 -2.0960
   81MOL0     H10871   2.026   8.281   6.590  0.5175 -0.5079  1.7508
   81MOL0     H10872   1.842   8.129   6.541  0.7817 -0.4428 -0.1911
   81MOL0     H10873   1.740   8.265   6.516  0.9734  0.8542 -0.8915
   81MOL0     H10874   2.008   8.233   6.356  0.2532  0.8938 -3.1274
   81MOL0     H10875   1.866   8.178   6.292  0.6985 -1.1123  1.5659
   81MOL0     H10876   1.891   8.480   6.369 -0.7457  1.5614 -2.3997
   81MOL0     H10877   1.927   8.425   6.222 -1.3426  0.8524  0.2482
   81MOL0     H10878   1.735   8.331   6.173 -2.2843  1.4807 -1.6149
   81MOL0     H10879   1.647   8.347   6.319 -1.3575  2.8527  2.2997
   81MOL0     H10880   1.653   8.578   6.335 -2.1743  2.6771 -1.5891
   81MOL0     H10881   1.731   8.604   6.186  0.7499  1.7425  3.6181
   81MOL0     H10882   1.580   8.529   6.041  1.2946  0.3490  0.6151
   81MOL0     H10883   1.469   8.470   6.177 -0.2636  0.0694  0.6439
   81MOL0     H10884   1.547   8.764   6.106  2.6047 -2.3835 -1.9468
   81MOL0     H10885   1.444   8.729   6.226 -0.7385  3.8446 -0.9600
   81MOL0     H10886   1.273   8.495   6.025  0.1344  1.2749  2.7805
   81MOL0     H10887   1.051   8.575   5.769  4.2048 -1.6431  0.2884
   81MOL0     H10888   1.044   8.496   5.929  4.5071 -0.3019  1.8999
   81MOL0     H10889   0.935   8.752   5.827  0.0412 -1.7727 -1.4469
   81MOL0     H10890   0.965   8.749   6.001 -1.4831 -0.8483  0.1603
   81MOL0     H10891   0.799   8.539   6.012 -0.5396 -0.7461 -2.4194
   81MOL0     H10892   0.789   8.543   5.848  2.6180 -1.5535  0.5493
   81MOL0     H10893   0.694   8.774   5.839 -0.3235  2.3659  1.9474
   81MOL0     H10894   0.721   8.794   6.014 -2.7347 -1.0249  2.8005
   81MOL0     H10895   0.544   8.811   5.726  1.1919 -0.4063  0.5365
   81MOL0     H10896   0.445   8.871   5.539  0.3674  0.1954 -0.9268
   81MOL0     H10897   0.473   8.735   5.432  0.0842  1.2556 -0.8944
   81MOL0     H10898   0.313   8.786   5.466 -1.7955 -4.4610 -0.0401
   81MOL0     H10899  -0.043   8.313   5.579  0.9344  2.3885  0.3629
   81MOL0     H10900  -0.196   8.234   5.398 -0.4315  0.6992 -1.9311
   81MOL0     H10901  -0.094   8.306   4.991 -0.1029 -0.5855 -1.0943
   81MOL0     H10902  -0.038   8.139   4.998  0.5100  0.2126 -0.8452
   81MOL0     H10903  -0.232   8.125   4.847  1.6915 -3.9564  0.5835
   81MOL0     H10904  -0.302   8.069   4.997 -0.3163 -1.7070 -2.1031
   81MOL0     H10905  -0.335   8.355   4.882 -1.8116 -0.7751 -1.5140
   81MOL0     H10906  -0.355   8.310   5.055  1.3849 -1.1013  0.5388
   81MOL0     H10907  -0.559   8.309   4.895 -0.8278 -1.2346 -2.1229
   81MOL0     H10908  -0.498   8.160   4.831  0.5893  2.1776 -1.8806
   81MOL0     H10909  -0.639   8.214   5.082 -1.0132  1.2935 -1.3109
   81MOL0     H10910  -0.490   8.150   5.127  2.0892  0.5138 -0.6467
   81MOL0     H10911  -0.648   7.976   4.948 -0.3373  1.9651  0.3074
   81MOL0     H10912  -0.495   7.944   5.030  0.9899 -0.3782 -0.2103
   81MOL0     H10913  -0.766   8.019   5.182  0.2873  0.7076 -5.0910
   81MOL0     H10914  -0.600   8.006   5.247  0.2764 -0.7752  0.4131
   81MOL0     H10915  -0.586   7.776   5.178 -0.5625 -0.9169 -1.4462
   81MOL0     H10916  -0.745   7.802   5.093 -0.4733 -3.0076  0.3061
   81MOL0     H10917   0.118   8.239   5.113 -0.7268 -0.9367 -0.6595
   81MOL0     H10918   0.272   8.315   5.287 -0.6693  1.8924 -0.5260
   81MOL0     H10919   0.368   8.358   5.739  1.1021 -0.7699  0.7551
   81MOL0     H10920   0.472   8.428   5.927 -0.2258 -1.5853 -0.7403
   81MOL0     H10921   2.071   8.446   6.789 -1.4486 -0.1375 -1.4783
   81MOL0     H10922   2.088   8.557   7.017  2.5042 -1.4958 -0.0757
   81MOL0     H10923   2.243   8.277   7.495  2.4867 -0.4501  1.9229
   81MOL0     H10924   2.300   8.371   7.726  2.1564 -1.1386 -2.2294
   81MOL0     H10925   2.239   8.407   7.981  0.4683 -1.0031 -1.8594
   81MOL0     H10926   2.360   8.532   7.958  1.1049 -2.7982  2.1364
   81MOL0     H10927   2.233   8.688   8.110 -0.7923 -1.4534 -0.5400
   81MOL0     H10928   2.243   8.526   8.181 -1.1800  0.3521  1.5239
   81MOL0     H10929   1.999   8.508   8.043  0.9629 -1.9403  0.4222
   81MOL0     H10930   2.017   8.685   8.086 -0.4051 -0.6535  0.6298
   81MOL0     H10931   2.017   8.632   8.318  0.4529  0.8532 -1.7406
   81MOL0     H10932   2.040   8.454   8.281  0.3192 -0.9730 -0.7084
   81MOL0     H10933   1.628   8.553   8.197 -0.8766 -0.3166  3.2818
   81MOL0     H10934   1.987   8.654   7.695  0.7532 -0.0158  1.2792
   81MOL0     H10935   1.959   8.590   7.450  2.2616  1.1938 -0.5659
   82MOL0     O10936   1.054   6.136  10.044 -0.2086  0.2867  0.3277
   82MOL0     C10937   0.989   6.165   9.938  0.2338 -0.1737 -1.0478
   82MOL0     O10938   1.009   6.116   9.811  0.5880 -0.2197 -0.4495
   82MOL0     C10939   1.106   6.024   9.798 -0.3282  0.6277 -0.4248
   82MOL0     C10940   1.059   5.885   9.784  0.1151  0.0770 -0.0199
   82MOL0     C10941   1.154   5.784   9.768 -0.8647 -1.0790  0.1678
   82MOL0     C10942   1.291   5.819   9.757  0.6137  0.0771  0.7888
   82MOL0     O10943   1.391   5.724   9.738  0.2762  0.5725  0.2187
   82MOL0     C10944   1.491   5.711   9.844 -0.9385  0.8896  0.3790
   82MOL0     C10945   1.535   5.560   9.876 -0.0765  0.2994 -0.5828
   82MOL0     C10946   1.414   5.476   9.927  0.0892  0.0835 -0.2731
   82MOL0     C10947   1.447   5.332   9.888 -0.7524 -0.9311 -0.0338
   82MOL0     C10948   1.359   5.224   9.948  0.3897 -0.3953 -0.4799
   82MOL0     C10949   1.208   5.253   9.911  0.2071  0.7046  0.1470
   82MOL0     C10950   1.125   5.144   9.982  0.0080  0.3448  0.4204
   82MOL0     C10951   0.982   5.139   9.934 -0.2340  0.3380 -0.0289
   82MOL0     N10952   0.904   5.057  10.028  0.7780  0.3690  0.5641
   82MOL0     C10953   0.930   4.942  10.089 -0.5938 -1.1545 -0.3142
   82MOL0     C10954   0.813   4.904  10.151 -0.4884  0.5772 -0.9951
   82MOL0     C10955   0.821   4.780  10.234 -0.0504 -0.0294 -0.6302
   82MOL0     C10956   0.684   4.751  10.302 -0.3667  0.2536  0.1546
   82MOL0     C10957   0.678   4.636  10.401 -1.1116  0.2405 -0.0374
   82MOL0     C10958   0.542   4.634  10.483 -0.3651  0.0644 -0.4563
   82MOL0     O10959   0.426   4.594  10.413 -0.3366 -0.0393  0.5718
   82MOL0     C10960   0.432   4.460  10.371 -0.1206 -0.8136 -0.0466
   82MOL0     C10961   0.452   4.358  10.466 -0.2705 -0.6158  0.1146
   82MOL0     C10962   0.457   4.223  10.433  0.1840 -0.9579 -0.3355
   82MOL0     C10963   0.464   4.128  10.552 -0.1372  0.2838  0.0888
   82MOL0     C10964   0.430   4.187  10.300  0.4893  0.3151 -0.0468
   82MOL0     C10965   0.433   4.049  10.251  0.9910  0.2930  0.2356
   82MOL0     O10966   0.495   3.949  10.324  0.4438 -0.4275  0.4485
   82MOL0     C10967   0.510   3.826  10.269  0.7567 -0.4762  0.1889
   82MOL0     C10968   0.418   3.757  10.194  0.3868 -0.1066 -0.5294
   82MOL0     C10969   0.456   3.632  10.144 -0.0458 -0.1029  0.7618
   82MOL0     C10970   0.575   3.572  10.174 -0.2970  0.8044  0.7070
   82MOL0     O10971   0.600   3.451  10.121  0.6150  0.2778 -0.3592
   82MOL0     C10972   0.707   3.383  10.180 -0.1128  0.4398  0.1357
   82MOL0     C10973   0.706   3.240  10.121  0.2237  0.2103  0.1270
   82MOL0     C10974   0.625   3.139  10.218  0.5502 -0.2781 -1.3656
   82MOL0     C10975   0.612   2.995  10.157  0.3363  0.4121  0.0569
   82MOL0     C10976   0.509   2.985  10.039  0.3354  0.3089 -0.6762
   82MOL0     C10977   0.532   2.853   9.970 -0.7563  1.0098  0.1668
   82MOL0     C10978   0.480   2.857   9.836 -0.2644 -0.6133  0.4068
   82MOL0     C10979   0.329   2.895   9.830  0.0180 -0.3246  0.5689
   82MOL0    Cl10980   0.250   2.782   9.940  0.0621  0.1224  0.0504
   82MOL0     C10981   0.657   3.634  10.266  0.6372 -0.6699  0.2704
   82MOL0     C10982   0.623   3.760  10.315  0.1208  1.1378  0.5018
   82MOL0     O10983   0.378   4.021  10.143  0.1257  1.1482  0.2584
   82MOL0     C10984   0.398   4.291  10.202  0.9069 -0.0947  0.2565
   82MOL0     C10985   0.399   4.426  10.238 -1.0751  0.2481  0.0869
   82MOL0     N10986   0.716   5.000  10.129 -0.8917  0.5202 -0.0697
   82MOL0     N10987   0.771   5.091  10.051  0.8149 -0.1376 -0.1417
   82MOL0     C10988   1.332   5.953   9.779  0.0347  0.3598  0.2044
   82MOL0     C10989   1.242   6.049   9.817  0.5684 -0.5559  0.2053
   82MOL0     C10990   0.888   6.269   9.946 -1.2350 -0.5500 -0.6422
   82MOL0     C10991   0.849   6.330  10.066 -0.2374 -0.0655 -0.0028
   82MOL0     C10992   0.745   6.435  10.072 -0.8005  0.6533  0.8639
   82MOL0     C10993   0.690   6.473   9.948 -0.6100 -0.2596  1.6247
   82MOL0     O10994   0.593   6.566   9.940 -0.5751 -0.3248 -0.0871
   82MOL0     C10995   0.541   6.631  10.061 -0.3288  0.2110 -0.2709
   82MOL0     C10996   0.638   6.735  10.121  0.3335  0.2718  0.4873
   82MOL0     C10997   0.575   6.868  10.137 -0.1994 -0.7714  0.0371
   82MOL0     C10998   0.689   6.965  10.169 -0.2906 -0.3413  0.7874
   82MOL0     C10999   0.626   7.100  10.165  0.1196 -0.4708 -0.6518
   82MOL0     C11000   0.567   7.203  10.173 -0.3138  0.0757  0.5875
   82MOL0     C11001   0.731   6.419   9.827 -0.1377  0.0000  0.1971
   82MOL0     C11002   0.826   6.319   9.834 -0.4967  0.5180 -0.0867
   82MOL0     H11003   0.958   5.847   9.795  0.8977 -2.1430 -0.0509
   82MOL0     H11004   1.134   5.677   9.762  0.1488 -1.3718  1.4272
   82MOL0     H11005   1.580   5.766   9.811 -1.7577  2.2206  0.2883
   82MOL0     H11006   1.457   5.751   9.940 -0.6905 -0.3174  0.9887
   82MOL0     H11007   1.595   5.503   9.805  1.5676 -1.3383  1.9551
   82MOL0     H11008   1.604   5.568   9.961  0.2007 -0.7863 -0.6849
   82MOL0     H11009   1.397   5.491  10.034 -1.2306  1.7011 -0.6757
   82MOL0     H11010   1.327   5.503   9.866 -0.0958 -1.5428 -0.7677
   82MOL0     H11011   1.436   5.338   9.779  1.2907  0.5966 -0.2270
   82MOL0     H11012   1.550   5.310   9.919 -0.2204  1.3934  0.0488
   82MOL0     H11013   1.390   5.124   9.916  3.1067 -1.2601  3.9018
   82MOL0     H11014   1.362   5.221  10.058 -4.4668 -3.1453 -0.1304
   82MOL0     H11015   1.179   5.349   9.954  3.0721  2.0165 -0.5761
   82MOL0     H11016   1.193   5.257   9.802  3.4455  0.2318 -0.4358
   82MOL0     H11017   1.170   5.045   9.972  2.6368  1.5401 -0.5217
   82MOL0     H11018   1.129   5.179  10.085 -1.6358 -0.1001  0.6596
   82MOL0     H11019   0.990   5.102   9.832  0.7427  0.3990  0.0090
   82MOL0     H11020   0.937   5.238   9.924 -1.8544 -0.3831 -0.1021
   82MOL0     H11021   1.021   4.883  10.086  0.3491  0.2071 -4.5202
   82MOL0     H11022   0.843   4.703  10.160 -0.1416  3.0355 -4.1315
   82MOL0     H11023   0.906   4.797  10.300  1.5595  2.9328 -3.1946
   82MOL0     H11024   0.613   4.723  10.224  0.4153 -2.4738  0.3383
   82MOL0     H11025   0.653   4.845  10.349 -2.7148 -0.3693 -0.0129
   82MOL0     H11026   0.759   4.637  10.475 -1.9390  0.1727  0.8882
   82MOL0     H11027   0.690   4.545  10.343  0.6781 -1.3611  2.5981
   82MOL0     H11028   0.524   4.741  10.495  0.8115  0.7954 -3.9876
   82MOL0     H11029   0.551   4.589  10.583  1.5371 -0.8690 -0.9896
   82MOL0     H11030   0.449   4.405  10.564 -4.4917  2.6865 -1.2556
   82MOL0     H11031   0.564   4.134  10.595  0.4585  0.9734 -1.3159
   82MOL0     H11032   0.390   4.159  10.627  1.4335  0.9642  1.4048
   82MOL0     H11033   0.429   4.029  10.523 -0.4158  0.8938 -1.8224
   82MOL0     H11034   0.322   3.802  10.171  0.1203 -0.6914 -0.5720
   82MOL0     H11035   0.386   3.570  10.089 -1.0532  0.3340  1.5108
   82MOL0     H11036   0.798   3.431  10.141  2.2584 -2.7390  1.3453
   82MOL0     H11037   0.710   3.383  10.289 -0.4320 -1.4429  0.1768
   82MOL0     H11038   0.668   3.241  10.018  2.1173 -0.7607 -0.6155
   82MOL0     H11039   0.812   3.219  10.112  0.1855  0.7961 -2.7961
   82MOL0     H11040   0.528   3.180  10.248  1.4528  0.3671  0.8835
   82MOL0     H11041   0.677   3.120  10.312 -2.1360 -0.2058  0.2369
   82MOL0     H11042   0.712   2.976  10.117 -0.4331 -1.2805 -1.2076
   82MOL0     H11043   0.594   2.930  10.243 -2.1108  3.8204  2.4329
   82MOL0     H11044   0.526   3.068   9.969  2.9647  1.4300  1.1536
   82MOL0     H11045   0.408   2.988  10.082  0.1841 -0.7384 -0.9426
   82MOL0     H11046   0.639   2.830   9.966 -0.8666 -3.7502  6.9403
   82MOL0     H11047   0.506   2.768  10.034  3.9846  0.0871  1.2409
   82MOL0     H11048   0.499   2.758   9.793 -0.5313 -0.2141 -0.6646
   82MOL0     H11049   0.536   2.926   9.772 -0.4745  2.0377  2.8766
   82MOL0     H11050   0.278   2.867   9.737  0.3295 -0.9805  0.5888
   82MOL0     H11051   0.310   2.995   9.870  2.5654 -0.5137  2.4834
   82MOL0     H11052   0.757   3.598  10.289  1.5051  0.6415 -1.2624
   82MOL0     H11053   0.695   3.804  10.383  0.9175 -0.3979  0.6989
   82MOL0     H11054   0.376   4.264  10.099 -3.5012 -0.4707  1.1128
   82MOL0     H11055   0.366   4.501  10.167  0.2405  0.3034 -0.5022
   82MOL0     H11056   1.434   5.987   9.766 -0.1641  1.7269  1.8951
   82MOL0     H11057   1.284   6.148   9.833 -0.1842 -0.4046  1.3137
   82MOL0     H11058   0.893   6.285  10.154  1.2513 -1.1164 -1.2350
   82MOL0     H11059   0.726   6.485  10.167 -1.9186  1.3678  0.2892
   82MOL0     H11060   0.455   6.684  10.020  0.1154  1.0260 -0.1537
   82MOL0     H11061   0.501   6.560  10.133 -2.6207  2.2900  0.6291
   82MOL0     H11062   0.725   6.739  10.055 -0.2236 -0.4616 -0.3231
   82MOL0     H11063   0.672   6.689  10.214 -1.1046 -1.6915  0.1305
   82MOL0     H11064   0.495   6.873  10.211 -1.7889  1.3244 -1.7097
   82MOL0     H11065   0.534   6.902  10.041 -1.0449  0.6927  0.8844
   82MOL0     H11066   0.772   6.955  10.099  2.0966  1.0483  3.1957
   82MOL0     H11067   0.737   6.943  10.265  3.2093  0.4443 -0.6535
   82MOL0     H11068   0.536   7.304  10.157 -0.0709  0.1299  0.4590
   82MOL0     H11069   0.705   6.463   9.732  2.1293  2.3884  0.5467
   82MOL0     H11070   0.856   6.283   9.737 -0.2470  0.0267  0.1681
   83MOL0     O11071  11.204   2.824  10.512  0.5063 -0.5168 -0.1583
   83MOL0     C11072  11.168   2.753  10.599  0.0484  0.3450 -0.1255
   83MOL0     O11073  11.034   2.740  10.645  0.1937  1.1282  0.5797
   83MOL0     C11074  10.932   2.828  10.609  0.0895  0.2660 -0.5375
   83MOL0     C11075  10.801   2.780  10.595  0.1581 -0.1486  0.0573
   83MOL0     C11076  10.696   2.865  10.553 -0.0731 -0.5635  0.1985
   83MOL0     C11077  10.715   3.003  10.534  0.2332  0.5047  0.2574
   83MOL0     O11078  10.611   3.090  10.496 -0.1916 -0.1542 -0.0503
   83MOL0     C11079  10.583   3.204  10.583 -0.0515  0.5998  0.1936
   83MOL0     C11080  10.481   3.286  10.507  0.8100  0.3991  0.4223
   83MOL0     C11081  10.534   3.422  10.481 -0.4219 -0.4283 -0.2024
   83MOL0     C11082  10.433   3.509  10.417 -0.0562  0.3662 -0.4254
   83MOL0     C11083  10.453   3.483  10.267  0.1064 -0.0641 -0.1654
   83MOL0     C11084  10.354   3.574  10.186  0.7205 -0.4132 -0.2561
   83MOL0     C11085  10.357   3.562  10.033 -0.1134  0.4846 -0.7717
   83MOL0     C11086  10.273   3.662   9.965 -0.1083  0.7370 -0.7609
   83MOL0     N11087  10.302   3.677   9.825  0.1654 -0.5612 -0.0939
   83MOL0     C11088  10.353   3.789   9.759  0.0653 -0.2780 -0.5884
   83MOL0     C11089  10.387   3.752   9.640 -0.5352  0.3714  0.6087
   83MOL0     C11090  10.450   3.836   9.544  0.0324  0.6208 -0.2922
   83MOL0     C11091  10.604   3.796   9.534 -0.7982  0.0881 -0.2682
   83MOL0     C11092  10.666   3.796   9.675  0.6375 -0.4657 -0.2361
   83MOL0     C11093  10.815   3.789   9.669  0.0561 -0.2593  0.8952
   83MOL0     O11094  10.860   3.686   9.751 -0.4898 -0.2891 -0.4086
   83MOL0     C11095  10.865   3.692   9.887  0.1339 -0.0445 -0.3945
   83MOL0     C11096  10.913   3.586   9.954  0.2265  0.1282 -0.9830
   83MOL0     C11097  10.911   3.577  10.094  0.1870 -0.3897 -0.5074
   83MOL0     C11098  10.965   3.456  10.162 -0.3793  0.5160  0.0671
   83MOL0     C11099  10.881   3.695  10.167 -0.3443 -1.3005  0.1353
   83MOL0     C11100  10.885   3.708  10.318 -0.1554 -0.8124  0.4632
   83MOL0     O11101  10.932   3.828  10.370  0.1614 -1.0214  1.0649
   83MOL0     C11102  10.962   3.838  10.505  0.1057 -0.3474  0.2180
   83MOL0     C11103  11.018   3.737  10.586 -0.4888  0.0554  0.0578
   83MOL0     C11104  11.031   3.768  10.727  0.5739 -1.1043  0.1608
   83MOL0     C11105  11.011   3.893  10.784  0.6304  0.0254 -0.8389
   83MOL0     O11106  11.033   3.915  10.918  0.0127 -0.3220  0.0797
   83MOL0     C11107  10.922   3.962  10.986 -0.0528 -0.8774  0.1478
   83MOL0     C11108  10.889   3.853  11.086 -0.2023  0.0312  0.4496
   83MOL0     C11109  10.773   3.867  11.184  0.4209 -0.0548 -0.4900
   83MOL0     C11110  10.787   3.994  11.278 -1.4096 -0.5147  0.2571
   83MOL0     C11111  10.695   3.980  11.410  0.5261  0.3412 -0.0609
   83MOL0     C11112  10.749   4.075  11.522 -0.3319 -0.1497 -0.4548
   83MOL0     C11113  10.642   4.102  11.636 -1.3311  0.2441  1.1931
   83MOL0     C11114  10.657   4.235  11.702  0.5571 -0.1507 -0.7978
   83MOL0    Cl11115  10.598   4.358  11.583 -0.1413  0.0960 -0.3980
   83MOL0     C11116  10.969   3.991  10.694 -0.2680 -0.9889 -0.7572
   83MOL0     C11117  10.943   3.970  10.558  1.3744 -0.7546  0.4011
   83MOL0     O11118  10.836   3.620  10.382 -0.4303 -0.2885  0.1139
   83MOL0     C11119  10.830   3.803  10.098  0.6528 -0.0252  0.3505
   83MOL0     C11120  10.813   3.798   9.962  0.3640  0.2519  0.2756
   83MOL0     N11121  10.360   3.619   9.631 -0.2126  0.6187 -0.1757
   83MOL0     N11122  10.312   3.570   9.738 -0.3199 -0.3833  0.9072
   83MOL0     C11123  10.848   3.051  10.555 -0.0900 -0.6850 -1.0953
   83MOL0     C11124  10.956   2.964  10.590 -0.4802 -0.0525 -0.1237
   83MOL0     C11125  11.249   2.643  10.637  0.4613 -0.3555  0.2941
   83MOL0     C11126  11.202   2.526  10.705 -0.2641  0.0453  0.1371
   83MOL0     C11127  11.293   2.441  10.757  1.0298  0.1921 -0.0551
   83MOL0     C11128  11.429   2.456  10.737 -0.4248  0.7630 -0.4679
   83MOL0     O11129  11.520   2.376  10.793  0.2569 -0.0385 -0.4604
   83MOL0     C11130  11.472   2.251  10.845 -0.7082 -0.8504 -0.1181
   83MOL0     C11131  11.587   2.170  10.907  0.8305  0.3730 -0.8873
   83MOL0     C11132  11.533   2.051  10.995  0.5744  0.2418 -0.7346
   83MOL0     C11133  11.524   1.925  10.909 -0.3259  0.3299  0.2043
   83MOL0     C11134  11.452   1.822  10.998 -0.4907 -0.3604 -0.2299
   83MOL0     C11135  11.402   1.747  11.076  0.2996 -0.2665  0.0653
   83MOL0     C11136  11.473   2.572  10.670 -0.2201 -0.1402 -0.4193
   83MOL0     C11137  11.385   2.662  10.618 -0.2697  0.0044 -0.0577
   83MOL0     H11138  10.786   2.674  10.614  1.0695 -0.3222 -0.1314
   83MOL0     H11139  10.597   2.821  10.544 -0.8496  0.6128  2.1791
   83MOL0     H11140  10.532   3.168  10.673 -1.8173  0.4787 -0.8245
   83MOL0     H11141  10.664   3.276  10.594 -0.7068  2.0756 -3.4614
   83MOL0     H11142  10.463   3.237  10.411  2.0094 -0.3984  0.5785
   83MOL0     H11143  10.384   3.297  10.555  0.4939  2.1376 -0.5250
   83MOL0     H11144  10.568   3.457  10.579 -0.9615  0.8646 -0.4599
   83MOL0     H11145  10.629   3.421  10.427  1.2973  0.3882  2.5717
   83MOL0     H11146  10.337   3.486  10.464  1.7803 -1.2021  2.9066
   83MOL0     H11147  10.444   3.617  10.427  0.5797  0.2596  0.1291
   83MOL0     H11148  10.559   3.494  10.242 -0.0357 -1.5105 -1.5363
   83MOL0     H11149  10.423   3.380  10.246 -1.0566 -0.6848  3.6745
   83MOL0     H11150  10.251   3.543  10.203  0.6481  0.4894  1.0682
   83MOL0     H11151  10.367   3.680  10.207 -0.4965 -0.9435  4.1547
   83MOL0     H11152  10.461   3.581  10.002  0.0887  0.3240 -0.2046
   83MOL0     H11153  10.321   3.465  10.000  2.7560 -0.5091 -1.2587
   83MOL0     H11154  10.300   3.759  10.007 -0.0658 -0.3738  1.9955
   83MOL0     H11155  10.171   3.643  10.001  1.2577 -3.2314  1.6376
   83MOL0     H11156  10.342   3.887   9.804 -2.9024 -0.4605 -0.7624
   83MOL0     H11157  10.412   3.808   9.445  1.0560 -1.6433 -0.1191
   83MOL0     H11158  10.433   3.942   9.564 -0.6803  0.2737  1.0426
   83MOL0     H11159  10.664   3.874   9.483  2.0668  0.1124  2.8074
   83MOL0     H11160  10.615   3.695   9.494 -3.4285  0.2242 -1.5279
   83MOL0     H11161  10.621   3.709   9.723  2.8171 -3.3044 -2.8934
   83MOL0     H11162  10.636   3.878   9.741  2.1352  0.0809 -0.2060
   83MOL0     H11163  10.850   3.890   9.689 -0.3523 -0.1376  0.9864
   83MOL0     H11164  10.864   3.776   9.571 -0.0272 -1.6222  1.0134
   83MOL0     H11165  10.967   3.507   9.903  1.0787  2.0927 -3.3168
   83MOL0     H11166  10.882   3.386  10.173  0.4723 -0.7548 -1.3289
   83MOL0     H11167  11.043   3.406  10.105 -1.8628 -1.7937 -0.0398
   83MOL0     H11168  11.003   3.468  10.264  2.3272  0.8307 -0.9133
   83MOL0     H11169  11.055   3.640  10.555  2.2788  1.0665 -0.0349
   83MOL0     H11170  11.073   3.699  10.799 -3.5191 -0.7178  3.3201
   83MOL0     H11171  10.949   4.054  11.038  0.7462 -1.4425  0.7777
   83MOL0     H11172  10.840   3.974  10.915 -2.1724 -2.9031  2.0465
   83MOL0     H11173  10.878   3.762  11.027  0.9947 -0.3045  0.7125
   83MOL0     H11174  10.985   3.845  11.138 -0.3993  0.5575  0.9017
   83MOL0     H11175  10.765   3.782  11.253  1.6936  0.4565  0.3305
   83MOL0     H11176  10.680   3.879  11.129  1.1432 -0.7501 -1.9235
   83MOL0     H11177  10.890   4.013  11.308 -1.3581  0.1305 -0.3272
   83MOL0     H11178  10.748   4.082  11.227  1.6448  1.7738  1.6071
   83MOL0     H11179  10.685   3.882  11.457  0.0240  1.0098  1.2583
   83MOL0     H11180  10.594   4.013  11.382  0.4548  1.1593  1.0953
   83MOL0     H11181  10.843   4.043  11.569  0.1548  1.4277 -0.2860
   83MOL0     H11182  10.791   4.162  11.471  0.8481  0.1801  1.0160
   83MOL0     H11183  10.681   4.034  11.713  1.7084  0.5460  0.0683
   83MOL0     H11184  10.539   4.084  11.605 -1.5665  2.6921  0.2767
   83MOL0     H11185  10.753   4.258  11.750  0.4300 -1.5943  0.2192
   83MOL0     H11186  10.581   4.240  11.781  0.7799 -0.1574 -0.5818
   83MOL0     H11187  10.955   4.092  10.731  0.1377 -1.8677  2.0435
   83MOL0     H11188  10.904   4.053  10.501 -1.8586 -2.9046 -0.7995
   83MOL0     H11189  10.795   3.889  10.155 -1.0403 -0.3231 -0.1841
   83MOL0     H11190  10.750   3.876   9.919 -0.0003 -0.1502  0.0690
   83MOL0     H11191  10.856   3.158  10.564 -2.8537 -0.3348 -1.7102
   83MOL0     H11192  11.054   3.006  10.609 -0.5258 -0.7671  1.9576
   83MOL0     H11193  11.096   2.503  10.709 -0.3856 -0.2381 -2.6223
   83MOL0     H11194  11.262   2.353  10.813  1.5606  0.7437  1.1684
   83MOL0     H11195  11.408   2.276  10.930  1.0628 -0.4765  1.1692
   83MOL0     H11196  11.420   2.185  10.775 -0.0809 -0.0272 -1.4137
   83MOL0     H11197  11.628   2.247  10.973 -3.0838  0.6983  1.4959
   83MOL0     H11198  11.663   2.138  10.835  1.1334  1.3816 -1.0263
   83MOL0     H11199  11.435   2.084  11.032  1.7912 -0.2987  3.4133
   83MOL0     H11200  11.588   2.037  11.088 -0.7923  0.0551  0.0832
   83MOL0     H11201  11.621   1.880  10.887 -1.4181 -1.1491 -1.8862
   83MOL0     H11202  11.473   1.946  10.815 -2.4219 -0.4118  1.1205
   83MOL0     H11203  11.364   1.663  11.129 -1.0927  0.7610  0.7689
   83MOL0     H11204  11.579   2.594  10.683  0.0035 -0.1290 -2.0881
   83MOL0     H11205  11.418   2.757  10.577 -2.4736 -0.3355 -2.9281
   84MOL0     O11206   1.771   7.131   4.243 -1.0916  0.1637 -0.6178
   84MOL0     C11207   1.753   7.249   4.265  0.5177 -0.1367  0.5541
   84MOL0     O11208   1.750   7.313   4.388 -0.3697  0.2364 -0.5803
   84MOL0     C11209   1.777   7.239   4.504 -0.2072  0.3735  0.6941
   84MOL0     C11210   1.871   7.137   4.507 -0.2885  0.1348 -0.8441
   84MOL0     C11211   1.893   7.056   4.617 -0.3515 -0.7530 -1.0803
   84MOL0     C11212   1.821   7.085   4.731  0.0219 -0.4894 -0.7090
   84MOL0     O11213   1.843   7.009   4.840  0.4923 -0.4807 -0.0497
   84MOL0     C11214   1.946   7.075   4.930  0.2996 -0.2603  0.1827
   84MOL0     C11215   2.093   7.055   4.903  0.0142  0.3370  0.7187
   84MOL0     C11216   2.141   6.915   4.947  0.9822  0.9132 -0.0741
   84MOL0     C11217   2.280   6.873   4.892  0.5834  0.5371 -0.5204
   84MOL0     C11218   2.337   6.739   4.929  0.0836  0.1896  0.0299
   84MOL0     C11219   2.473   6.725   4.858  0.5840  0.1200 -0.3981
   84MOL0     C11220   2.529   6.574   4.857  0.4692  0.1920  0.0420
   84MOL0     C11221   2.656   6.568   4.782  0.2813 -0.0221  0.0224
   84MOL0     N11222   2.714   6.431   4.781  0.1861  0.3493 -0.2497
   84MOL0     C11223   2.685   6.327   4.694  0.0444  1.6473  0.5806
   84MOL0     C11224   2.774   6.234   4.730 -0.3119  1.8650 -0.0819
   84MOL0     C11225   2.786   6.089   4.687 -0.5561  0.4062  0.5223
   84MOL0     C11226   2.757   5.988   4.802 -0.3912  0.6977  1.1845
   84MOL0     C11227   2.770   5.848   4.734  0.2668  0.5676  0.2297
   84MOL0     C11228   2.667   5.750   4.802 -0.4445 -0.3690  0.1491
   84MOL0     O11229   2.713   5.732   4.935  0.3959 -0.6923  0.4293
   84MOL0     C11230   2.614   5.690   5.017 -0.0480  0.1941  0.2102
   84MOL0     C11231   2.556   5.776   5.115 -0.2291  0.7428  0.3918
   84MOL0     C11232   2.467   5.726   5.206 -0.8272 -0.2711 -0.6656
   84MOL0     C11233   2.431   5.809   5.330 -0.7431 -0.7557  0.2180
   84MOL0     C11234   2.415   5.598   5.190  0.0714  0.4014  0.0132
   84MOL0     C11235   2.319   5.540   5.286  0.0113 -0.2636  0.4337
   84MOL0     O11236   2.324   5.404   5.308  0.1710  0.4452  0.8013
   84MOL0     C11237   2.280   5.363   5.427  0.1071  0.7182 -0.4578
   84MOL0     C11238   2.200   5.249   5.425 -0.4968 -0.1800 -0.2216
   84MOL0     C11239   2.149   5.183   5.537  0.1750  0.6651 -0.0295
   84MOL0     C11240   2.159   5.253   5.659 -0.0164  0.5363 -0.5449
   84MOL0     O11241   2.088   5.208   5.767  1.0254 -0.3366  0.2623
   84MOL0     C11242   2.111   5.071   5.806 -0.7842  0.7376 -0.8245
   84MOL0     C11243   2.022   5.052   5.929  1.0298 -0.8077 -0.2367
   84MOL0     C11244   2.053   4.919   5.993  0.7147 -0.2861  0.2295
   84MOL0     C11245   1.950   4.869   6.093  0.4768  0.2763  0.7040
   84MOL0     C11246   2.014   4.749   6.159 -0.5527  0.1482 -0.7120
   84MOL0     C11247   1.905   4.656   6.232  1.2117  0.2298  0.0937
   84MOL0     C11248   1.829   4.718   6.350 -0.2516 -0.4534  0.1868
   84MOL0     C11249   1.737   4.630   6.433  0.0528  0.3203  0.0493
   84MOL0    Cl11250   1.834   4.550   6.549  0.2191 -0.2295  0.0346
   84MOL0     C11251   2.239   5.367   5.669 -0.5847 -0.7726 -0.6133
   84MOL0     C11252   2.304   5.420   5.555  0.3519 -0.1182 -0.3827
   84MOL0     O11253   2.232   5.618   5.320 -0.7118 -0.2904  0.3392
   84MOL0     C11254   2.469   5.519   5.094 -0.0005 -0.6745 -0.6860
   84MOL0     C11255   2.565   5.562   5.008 -0.7634  0.1688 -0.9710
   84MOL0     N11256   2.858   6.281   4.828  0.4169 -0.1702  0.0570
   84MOL0     N11257   2.808   6.393   4.868  0.4192 -0.4339  0.4438
   84MOL0     C11258   1.739   7.194   4.731  0.0931 -0.5192  0.1404
   84MOL0     C11259   1.713   7.274   4.619  0.6691  0.3263  0.6318
   84MOL0     C11260   1.731   7.320   4.147  0.0551 -0.0599 -0.9071
   84MOL0     C11261   1.702   7.265   4.023  0.3052 -0.0876 -0.3323
   84MOL0     C11262   1.676   7.341   3.914 -0.2430  0.7980 -0.5035
   84MOL0     C11263   1.702   7.480   3.920  1.0265 -0.0859  0.4146
   84MOL0     O11264   1.699   7.566   3.813 -0.0249  0.3499  0.5444
   84MOL0     C11265   1.697   7.513   3.679  0.7817  0.1063  0.3432
   84MOL0     C11266   1.754   7.619   3.589  0.2858  0.0727  1.1027
   84MOL0     C11267   1.779   7.587   3.441  0.0488 -0.0230  0.1615
   84MOL0     C11268   1.871   7.686   3.376  1.0950 -0.4026  0.5129
   84MOL0     C11269   1.814   7.741   3.256 -0.3436  0.0585 -0.5004
   84MOL0     C11270   1.787   7.795   3.153 -0.4593 -0.6492  0.7805
   84MOL0     C11271   1.733   7.535   4.039 -0.0139 -0.3798  0.3250
   84MOL0     C11272   1.746   7.458   4.154  0.1915 -0.2140 -0.4723
   84MOL0     H11273   1.932   7.103   4.424 -2.4295 -3.1899 -1.2587
   84MOL0     H11274   1.952   6.965   4.621 -0.1531 -0.5928  0.2109
   84MOL0     H11275   1.934   7.183   4.942 -1.0932 -0.5033  1.3024
   84MOL0     H11276   1.933   7.037   5.032 -1.4345 -0.5781 -0.1268
   84MOL0     H11277   2.109   7.070   4.796  0.4602  0.0366  0.7428
   84MOL0     H11278   2.163   7.125   4.949  0.1253 -1.0766  2.8076
   84MOL0     H11279   2.125   6.895   5.053  5.3903  0.6127  0.7113
   84MOL0     H11280   2.069   6.845   4.905 -3.6086  5.5966 -1.1536
   84MOL0     H11281   2.263   6.879   4.784  2.4828  0.7787 -0.8300
   84MOL0     H11282   2.349   6.954   4.916  0.3513  0.4428  0.5116
   84MOL0     H11283   2.352   6.722   5.036 -0.5003  2.1049  0.4502
   84MOL0     H11284   2.258   6.676   4.887  2.1233 -0.0359 -4.0226
   84MOL0     H11285   2.456   6.772   4.761 -1.5031 -0.8032 -0.5326
   84MOL0     H11286   2.541   6.790   4.914  0.7886  0.1837 -0.7186
   84MOL0     H11287   2.554   6.540   4.958 -2.5667 -1.0233  0.4682
   84MOL0     H11288   2.456   6.511   4.806  0.0012 -0.1391  1.0983
   84MOL0     H11289   2.731   6.632   4.830 -0.5556  0.0562  1.2727
   84MOL0     H11290   2.637   6.612   4.684  1.0820  3.5496  1.3087
   84MOL0     H11291   2.600   6.320   4.627 -2.5955 -0.0622  3.8462
   84MOL0     H11292   2.728   6.069   4.596  2.9335 -0.8417 -1.6058
   84MOL0     H11293   2.889   6.074   4.655 -1.2680  0.6036 -2.0704
   84MOL0     H11294   2.655   6.008   4.836 -0.4621  0.4822  1.0947
   84MOL0     H11295   2.829   5.996   4.884  1.1912 -2.5503  0.2834
   84MOL0     H11296   2.869   5.802   4.736 -0.1094 -0.4993 -2.4984
   84MOL0     H11297   2.738   5.855   4.630 -3.3896 -0.6705  1.1453
   84MOL0     H11298   2.674   5.652   4.753  2.5093 -1.0233  1.6115
   84MOL0     H11299   2.565   5.790   4.803 -0.4186 -0.1934 -1.4475
   84MOL0     H11300   2.579   5.882   5.116  1.0034  0.5676  3.6790
   84MOL0     H11301   2.440   5.754   5.424  1.8912  0.4947  0.8090
   84MOL0     H11302   2.495   5.897   5.343 -3.3380  1.2316  0.5193
   84MOL0     H11303   2.335   5.861   5.320  0.3974  1.9091  1.8496
   84MOL0     H11304   2.200   5.195   5.331  1.1089  1.3092 -1.1249
   84MOL0     H11305   2.074   5.105   5.531  1.5018 -0.9093  2.4760
   84MOL0     H11306   2.076   4.994   5.736  1.6240 -2.9914  1.7188
   84MOL0     H11307   2.212   5.034   5.826 -0.2400  1.5454 -1.9333
   84MOL0     H11308   2.035   5.142   5.990  0.5563 -0.3080 -0.8613
   84MOL0     H11309   1.921   5.061   5.887  0.6759 -3.2700 -0.0263
   84MOL0     H11310   2.156   4.911   6.030  0.6971 -0.8578  0.1594
   84MOL0     H11311   2.043   4.839   5.919  1.0040 -0.7350  0.6748
   84MOL0     H11312   1.927   4.949   6.163  0.8543  2.7138 -1.7695
   84MOL0     H11313   1.863   4.824   6.044  2.1015 -1.5748 -0.6842
   84MOL0     H11314   2.075   4.779   6.245 -0.6217  0.8476 -0.9017
   84MOL0     H11315   2.076   4.686   6.095 -1.0253  0.2429 -1.2736
   84MOL0     H11316   1.836   4.612   6.159  1.7490  2.0829 -1.6426
   84MOL0     H11317   1.967   4.574   6.268  1.0680  1.2905  2.9891
   84MOL0     H11318   1.756   4.787   6.307  1.3024  0.5881 -0.9255
   84MOL0     H11319   1.893   4.773   6.420 -2.2617  0.8670  1.0707
   84MOL0     H11320   1.677   4.558   6.378  1.8579 -3.2356  2.3926
   84MOL0     H11321   1.670   4.697   6.488 -0.5984  1.6014 -2.1833
   84MOL0     H11322   2.243   5.425   5.760 -0.4589 -1.1523 -0.3728
   84MOL0     H11323   2.356   5.515   5.553 -1.5535  1.0126  0.6634
   84MOL0     H11324   2.438   5.416   5.078  0.1496 -0.8052 -0.1382
   84MOL0     H11325   2.611   5.497   4.935 -1.0793 -1.4859  0.2518
   84MOL0     H11326   1.675   7.219   4.815  1.6494 -1.5939  1.7074
   84MOL0     H11327   1.635   7.349   4.628  1.2116  1.0164 -0.2476
   84MOL0     H11328   1.668   7.162   4.020  0.7873 -0.2304 -1.7648
   84MOL0     H11329   1.644   7.290   3.823 -3.5109  0.7726  0.5269
   84MOL0     H11330   1.743   7.414   3.673  0.2333 -0.0829 -1.3476
   84MOL0     H11331   1.593   7.489   3.654  1.5592 -3.4660 -0.0316
   84MOL0     H11332   1.845   7.662   3.633 -0.6028  2.4787  0.7365
   84MOL0     H11333   1.674   7.693   3.588 -0.1541 -0.3895  1.6197
   84MOL0     H11334   1.683   7.579   3.389  1.2476 -1.1634 -2.0531
   84MOL0     H11335   1.827   7.491   3.420 -1.1852 -0.4106 -1.0947
   84MOL0     H11336   1.968   7.639   3.359  1.3705 -0.0742  1.1651
   84MOL0     H11337   1.880   7.779   3.433 -2.0381  0.9529 -0.9430
   84MOL0     H11338   1.751   7.833   3.060 -2.1118 -1.5235  1.0283
   84MOL0     H11339   1.756   7.640   4.029  3.3051 -1.1371 -1.5917
   84MOL0     H11340   1.763   7.513   4.246 -2.0819 -1.0936  0.5266
   85MOL0     O11341   6.350   6.370   4.155  0.5301 -0.2751 -0.0729
   85MOL0     C11342   6.283   6.390   4.257  0.0999 -0.5725 -0.3947
   85MOL0     O11343   6.325   6.362   4.381 -0.3584 -0.0114  0.1768
   85MOL0     C11344   6.424   6.266   4.399  0.7622 -0.2547  1.1372
   85MOL0     C11345   6.405   6.133   4.359 -0.1393  1.2045  0.0575
   85MOL0     C11346   6.496   6.034   4.390 -0.0730  0.0044  1.2400
   85MOL0     C11347   6.604   6.060   4.473 -0.7577 -0.7459 -0.7150
   85MOL0     O11348   6.689   5.959   4.508 -1.0626 -0.1089  0.1303
   85MOL0     C11349   6.828   5.978   4.545  1.0844  0.2885 -0.8709
   85MOL0     C11350   6.821   5.987   4.708  0.2657 -0.4607 -0.0872
   85MOL0     C11351   6.964   6.027   4.760 -0.8519 -0.5812  0.7254
   85MOL0     C11352   7.036   6.157   4.713 -0.5655 -0.7360 -1.4444
   85MOL0     C11353   7.086   6.252   4.831  0.1297 -0.2968 -0.1691
   85MOL0     C11354   7.189   6.191   4.929  1.3442 -0.8442  0.1922
   85MOL0     C11355   7.313   6.272   4.976  0.0360 -0.2680  0.6375
   85MOL0     C11356   7.288   6.415   5.033 -0.0179 -1.1188  0.6484
   85MOL0     N11357   7.407   6.498   5.068  0.3009 -0.5573 -0.7782
   85MOL0     C11358   7.536   6.452   5.084  0.0115 -0.5751 -0.0513
   85MOL0     C11359   7.608   6.553   5.135  0.6178 -0.2003  0.1254
   85MOL0     C11360   7.758   6.556   5.166 -0.7981 -0.4412 -0.3023
   85MOL0     C11361   7.805   6.445   5.269 -0.0446  0.0900 -1.0765
   85MOL0     C11362   7.956   6.452   5.303 -0.1011 -0.3022 -0.7909
   85MOL0     C11363   7.990   6.577   5.379 -0.4208  1.1062  0.0231
   85MOL0     O11364   8.141   6.574   5.383 -0.0352  0.0019 -0.6363
   85MOL0     C11365   8.210   6.645   5.291 -0.1143 -0.5188 -1.2962
   85MOL0     C11366   8.341   6.684   5.335  0.2994 -0.5923  0.5302
   85MOL0     C11367   8.403   6.791   5.266 -0.0006 -0.3607 -0.1681
   85MOL0     C11368   8.529   6.835   5.323 -1.2407 -0.2303  0.1348
   85MOL0     C11369   8.348   6.837   5.148  0.5876 -0.2194 -0.0761
   85MOL0     C11370   8.411   6.940   5.065  1.0702  0.0003  0.5619
   85MOL0     O11371   8.392   6.930   4.927  0.3437  0.7815 -0.2452
   85MOL0     C11372   8.457   7.009   4.842 -0.2655 -0.3027  0.0577
   85MOL0     C11373   8.598   7.017   4.859  1.0057  0.7469  0.7151
   85MOL0     C11374   8.674   7.097   4.767  0.2087  0.6081  0.1754
   85MOL0     C11375   8.609   7.174   4.673 -0.3950  0.2654 -1.2542
   85MOL0     O11376   8.671   7.269   4.591  1.6854  0.0200 -0.1036
   85MOL0     C11377   8.782   7.343   4.644  0.4049 -0.1254 -0.7908
   85MOL0     C11378   8.861   7.435   4.539 -0.2474  0.7019 -0.5831
   85MOL0     C11379   8.877   7.358   4.406  0.2949  0.4650  0.3780
   85MOL0     C11380   8.960   7.444   4.309  0.3498 -0.4798  0.9959
   85MOL0     C11381   8.953   7.387   4.172 -0.4057 -0.3184  0.1575
   85MOL0     C11382   9.044   7.452   4.067  0.2429 -0.0646 -0.6068
   85MOL0     C11383   9.052   7.386   3.932 -0.2435  0.2200  0.0792
   85MOL0     C11384   9.140   7.470   3.843  0.4941 -0.2517  0.5687
   85MOL0    Cl11385   9.305   7.463   3.893  0.0898  0.1023  0.4390
   85MOL0     C11386   8.473   7.174   4.659 -0.7179  0.2220 -0.1463
   85MOL0     C11387   8.393   7.100   4.747  0.9696  0.7498 -0.5151
   85MOL0     O11388   8.467   7.035   5.126  0.6097  0.1065  0.2545
   85MOL0     C11389   8.235   6.788   5.101 -0.4776 -0.6549  0.7400
   85MOL0     C11390   8.162   6.699   5.174 -0.3324  1.0027 -0.3722
   85MOL0     N11391   7.515   6.653   5.160  0.0325 -1.0478 -0.3124
   85MOL0     N11392   7.405   6.627   5.105  0.4614  0.5796 -0.2478
   85MOL0     C11393   6.628   6.187   4.509 -0.8046 -0.2494 -0.0534
   85MOL0     C11394   6.538   6.284   4.476  0.2712 -0.0740 -0.2301
   85MOL0     C11395   6.159   6.478   4.241  0.6073 -0.3299  0.4617
   85MOL0     C11396   6.090   6.545   4.344  0.1895  0.3933  0.1951
   85MOL0     C11397   5.998   6.641   4.332  0.6723 -0.1923  0.3572
   85MOL0     C11398   5.950   6.684   4.205 -0.2480  0.4605 -0.3050
   85MOL0     O11399   5.868   6.793   4.209  0.1608  0.2358  0.9431
   85MOL0     C11400   5.821   6.849   4.084  0.3235  0.7222 -0.0662
   85MOL0     C11401   5.704   6.752   4.045 -0.0620  0.1268 -0.6037
   85MOL0     C11402   5.627   6.805   3.922  0.1778  0.2459  0.0120
   85MOL0     C11403   5.670   6.731   3.786  0.4432 -0.5574 -1.5087
   85MOL0     C11404   5.643   6.592   3.775 -0.3608  0.6405 -1.0790
   85MOL0     C11405   5.614   6.484   3.738 -0.1543  0.1027  0.2396
   85MOL0     C11406   6.015   6.625   4.096 -0.7071  0.6399 -0.7686
   85MOL0     C11407   6.117   6.527   4.112 -0.2474 -0.2305 -0.9365
   85MOL0     H11408   6.320   6.116   4.293  0.5505  0.8140 -0.7550
   85MOL0     H11409   6.475   5.942   4.336  1.4519  0.9069 -1.0233
   85MOL0     H11410   6.884   5.887   4.522 -0.2806 -0.3577 -1.7429
   85MOL0     H11411   6.876   6.060   4.491 -0.0845  0.2385 -2.0339
   85MOL0     H11412   6.758   6.071   4.738  0.6458 -0.7899  1.7956
   85MOL0     H11413   6.778   5.900   4.760 -0.4606 -1.3744 -2.1273
   85MOL0     H11414   6.953   6.035   4.869 -4.7582 -3.0390  0.7316
   85MOL0     H11415   7.032   5.943   4.743  0.4311  0.9739 -2.5944
   85MOL0     H11416   7.125   6.134   4.655  1.3315  1.4109  0.4095
   85MOL0     H11417   6.962   6.215   4.657 -1.0775  0.0369 -0.0274
   85MOL0     H11418   7.132   6.339   4.782 -3.7743  2.5930  0.8166
   85MOL0     H11419   7.005   6.294   4.892  3.4041  2.4589  2.7488
   85MOL0     H11420   7.153   6.163   5.029  1.0494  0.3777  0.4357
   85MOL0     H11421   7.221   6.097   4.884  0.3655 -4.4294  5.8807
   85MOL0     H11422   7.374   6.213   5.045  1.8913  1.8687  0.9545
   85MOL0     H11423   7.384   6.284   4.894 -0.1464  2.1837  0.7615
   85MOL0     H11424   7.229   6.413   5.125  0.4358 -3.7761  0.9626
   85MOL0     H11425   7.227   6.466   4.958  0.1290  1.0800  1.9314
   85MOL0     H11426   7.582   6.355   5.066 -0.0417 -0.6692  0.3224
   85MOL0     H11427   7.811   6.532   5.073 -2.9402 -5.4754 -0.5469
   85MOL0     H11428   7.788   6.659   5.184  0.0381 -0.9107  1.1249
   85MOL0     H11429   7.789   6.349   5.218  1.0316 -1.1075  0.6894
   85MOL0     H11430   7.751   6.453   5.364 -0.5888 -0.6526 -1.3116
   85MOL0     H11431   8.011   6.462   5.208 -0.1102  0.5874 -0.7050
   85MOL0     H11432   7.996   6.364   5.354  2.6129 -0.4553 -2.9374
   85MOL0     H11433   7.951   6.576   5.482 -0.0029  1.5241  0.1867
   85MOL0     H11434   7.943   6.664   5.333 -3.3579 -1.0114 -1.3442
   85MOL0     H11435   8.378   6.629   5.421  0.9584  1.2050  1.4383
   85MOL0     H11436   8.567   6.780   5.410  1.4551  1.6606  0.2811
   85MOL0     H11437   8.613   6.817   5.256  0.6811 -0.5035  2.4715
   85MOL0     H11438   8.543   6.942   5.339 -1.6293  0.1438 -1.7862
   85MOL0     H11439   8.666   6.962   4.924  2.5695 -0.3070 -1.6561
   85MOL0     H11440   8.781   7.104   4.786  0.4825  0.9368 -1.3492
   85MOL0     H11441   8.733   7.423   4.701 -1.1889  2.9531 -5.7533
   85MOL0     H11442   8.852   7.277   4.696  0.4027 -0.2565 -0.9553
   85MOL0     H11443   8.806   7.529   4.530 -0.5434  0.4513 -1.4779
   85MOL0     H11444   8.960   7.449   4.582 -1.1482  3.9288  0.7563
   85MOL0     H11445   8.782   7.322   4.364 -1.9169  2.4833  3.2262
   85MOL0     H11446   8.926   7.264   4.436 -0.8507  0.0459  1.0308
   85MOL0     H11447   8.919   7.545   4.314 -2.5107 -1.5913  3.5043
   85MOL0     H11448   9.062   7.453   4.347  0.3562  2.3988  0.4806
   85MOL0     H11449   8.851   7.411   4.139 -0.2962 -0.5196 -0.3281
   85MOL0     H11450   8.965   7.279   4.180 -0.5530 -0.3936 -0.5550
   85MOL0     H11451   9.012   7.557   4.059 -0.7948 -0.3843 -0.8301
   85MOL0     H11452   9.145   7.441   4.107  0.4754  1.7657 -0.5909
   85MOL0     H11453   8.948   7.381   3.896 -0.3266 -1.5642  0.5010
   85MOL0     H11454   9.082   7.281   3.939 -0.7777  0.1949  3.6760
   85MOL0     H11455   9.086   7.565   3.829 -3.3227 -2.2754  0.1134
   85MOL0     H11456   9.148   7.414   3.749 -0.8985 -1.1536  0.9592
   85MOL0     H11457   8.430   7.232   4.578  2.2006  0.0359 -1.9982
   85MOL0     H11458   8.285   7.092   4.743  1.1177 -3.0808 -0.6149
   85MOL0     H11459   8.207   6.807   4.998 -2.0781 -5.5087  0.0353
   85MOL0     H11460   8.074   6.656   5.126  2.8821 -2.0804 -4.2110
   85MOL0     H11461   6.704   6.222   4.578  1.6650 -3.1676 -1.1059
   85MOL0     H11462   6.565   6.378   4.522  0.6959 -0.4249  0.2510
   85MOL0     H11463   6.133   6.523   4.442  1.6922  0.5018 -0.4102
   85MOL0     H11464   5.957   6.685   4.422 -3.9708  0.1483 -1.6521
   85MOL0     H11465   5.782   6.945   4.119 -0.2227 -0.4532  2.9363
   85MOL0     H11466   5.905   6.857   4.016  1.8647 -0.4236  1.5989
   85MOL0     H11467   5.617   6.770   4.109 -0.5128  2.1110 -1.6936
   85MOL0     H11468   5.737   6.649   4.034  0.8378  0.2345  0.7917
   85MOL0     H11469   5.624   6.914   3.917 -4.7856  0.3204 -1.1605
   85MOL0     H11470   5.521   6.779   3.932 -0.4176  2.9132  1.5314
   85MOL0     H11471   5.772   6.760   3.759 -0.1139  2.9672 -0.3691
   85MOL0     H11472   5.601   6.781   3.717 -0.0031 -0.3166 -0.8912
   85MOL0     H11473   5.577   6.384   3.724  1.1644 -0.4329  0.4795
   85MOL0     H11474   5.990   6.657   3.995  1.0996  1.6683 -0.9379
   85MOL0     H11475   6.167   6.494   4.022 -0.6455 -0.4229 -1.0869
   86MOL0     O11476  11.142   0.764  11.175 -0.4635  0.1447 -0.0072
   86MOL0     C11477  11.208   0.678  11.117  0.4524  0.2247  0.7081
   86MOL0     O11478  11.275   0.698  11.000  0.7293 -0.9998 -0.0821
   86MOL0     C11479  11.272   0.827  10.945 -0.4760 -0.3994  0.5414
   86MOL0     C11480  11.394   0.884  10.916 -0.1434  0.2994 -0.5893
   86MOL0     C11481  11.408   1.002  10.838 -0.8687  0.3515  0.2789
   86MOL0     C11482  11.295   1.068  10.802  0.7542  0.0326  0.1872
   86MOL0     O11483  11.302   1.182  10.737 -0.7561  0.1494  0.4753
   86MOL0     C11484  11.332   1.302  10.807 -0.3734 -1.1972 -0.6001
   86MOL0     C11485  11.392   1.406  10.707  0.3848 -0.2292 -0.0028
   86MOL0     C11486  11.287   1.468  10.616 -0.3622 -0.3771  0.1055
   86MOL0     C11487  11.345   1.601  10.574 -0.9096 -0.2733 -0.1515
   86MOL0     C11488  11.246   1.672  10.484 -0.6696 -0.1164  0.0330
   86MOL0     C11489  11.260   1.616  10.344 -0.1002 -0.0477  0.0495
   86MOL0     C11490  11.163   1.691  10.254 -0.4995 -0.5767 -0.3548
   86MOL0     C11491  11.159   1.629  10.115  0.5043  0.1131  0.2537
   86MOL0     N11492  11.078   1.503  10.098  0.8568 -0.5475  0.1013
   86MOL0     C11493  10.947   1.484  10.138 -0.6328 -0.3015 -0.2140
   86MOL0     C11494  10.927   1.353  10.147  0.4979  0.2997 -0.1832
   86MOL0     C11495  10.804   1.274  10.177  1.3518 -1.3814  0.1491
   86MOL0     C11496  10.729   1.357  10.285  0.6704  0.5603 -0.1789
   86MOL0     C11497  10.605   1.289  10.341  0.6884 -0.3736 -0.9073
   86MOL0     C11498  10.534   1.392  10.438  0.1423 -0.2738 -0.2310
   86MOL0     O11499  10.442   1.320  10.519  0.4798 -0.8628  0.2617
   86MOL0     C11500  10.382   1.376  10.626  0.6877  0.5093  0.4876
   86MOL0     C11501  10.383   1.506  10.666  0.2354 -0.0444 -0.7087
   86MOL0     C11502  10.337   1.543  10.788 -0.2765  0.6189 -0.5031
   86MOL0     C11503  10.356   1.679  10.822 -0.3982 -0.4565 -0.2692
   86MOL0     C11504  10.273   1.444  10.878 -0.5509 -0.0020 -0.1518
   86MOL0     C11505  10.226   1.477  11.018 -0.4839  0.2079  0.0272
   86MOL0     O11506  10.136   1.383  11.061 -0.1008 -0.1564 -0.1411
   86MOL0     C11507  10.107   1.387  11.192  0.3377 -0.6429  0.1463
   86MOL0     C11508  10.003   1.466  11.246  1.1680 -0.2115 -0.2641
   86MOL0     C11509   9.970   1.449  11.379  0.0576 -0.3341  0.9731
   86MOL0     C11510  10.040   1.352  11.461 -0.0721 -0.0357 -0.1900
   86MOL0     O11511   9.998   1.323  11.583  0.0045 -0.1626 -0.0902
   86MOL0     C11512  10.084   1.264  11.679 -0.8058 -0.0204  0.9899
   86MOL0     C11513  10.194   1.367  11.723 -0.3009 -0.6791 -0.1486
   86MOL0     C11514  10.279   1.318  11.832  0.5435  0.2526 -0.9472
   86MOL0     C11515  10.196   1.252  11.955 -0.1627 -0.0880  0.3122
   86MOL0     C11516  10.300   1.215  12.062 -0.4787 -0.4570 -0.5323
   86MOL0     C11517  10.245   1.173  12.207  0.9794  0.2795 -0.1302
   86MOL0     C11518  10.336   1.203  12.330 -0.2057  0.8090 -0.5887
   86MOL0     C11519  10.308   1.090  12.424  0.1153 -0.7485 -0.5451
   86MOL0    Cl11520  10.423   1.106  12.564 -0.1894 -0.3357 -0.0563
   86MOL0     C11521  10.148   1.274  11.404 -0.0272 -0.6527 -0.2314
   86MOL0     C11522  10.176   1.295  11.271 -1.0415  0.5452  0.0386
   86MOL0     O11523  10.277   1.565  11.088  0.5514 -0.4554 -0.0947
   86MOL0     C11524  10.255   1.315  10.827 -0.2544 -0.0805  0.6038
   86MOL0     C11525  10.300   1.287  10.703  0.3401 -0.1688  0.9565
   86MOL0     N11526  11.049   1.298  10.120 -0.6832 -0.3678 -0.5887
   86MOL0     N11527  11.142   1.388  10.095 -0.9163 -0.5711 -0.7275
   86MOL0     C11528  11.171   1.018  10.830 -0.5558  0.0574  0.8366
   86MOL0     C11529  11.155   0.897  10.899 -0.7104  0.0387  0.9110
   86MOL0     C11530  11.200   0.549  11.172  0.7346  1.1583 -0.7145
   86MOL0     C11531  11.241   0.434  11.093  0.3001  0.7437 -0.5820
   86MOL0     C11532  11.275   0.313  11.157  0.2051  0.6745 -0.1673
   86MOL0     C11533  11.227   0.282  11.283 -0.0762  0.5635 -0.4203
   86MOL0     O11534  11.231   0.156  11.342 -0.6089 -0.4400  0.3569
   86MOL0     C11535  11.175   0.052  11.264  1.1275  0.2161 -0.7075
   86MOL0     C11536  11.114  -0.042  11.359 -0.0221 -0.4680 -0.3808
   86MOL0     C11537  11.002   0.002  11.462  0.0119 -1.0566 -0.4813
   86MOL0     C11538  10.881   0.067  11.391  0.2596 -0.1240 -0.2878
   86MOL0     C11539  10.790  -0.036  11.333  0.1014 -0.2230  0.9848
   86MOL0     C11540  10.730  -0.130  11.291 -1.0656 -1.5773  0.5474
   86MOL0     C11541  11.165   0.390  11.361  0.8868  0.2059 -0.0622
   86MOL0     C11542  11.164   0.517  11.307  0.5894 -0.0445 -0.0711
   86MOL0     H11543  11.485   0.831  10.942 -0.4646 -0.4823 -1.0180
   86MOL0     H11544  11.508   1.026  10.805 -0.4113 -1.9632 -0.2505
   86MOL0     H11545  11.248   1.348  10.859  0.3312  0.8943 -1.1868
   86MOL0     H11546  11.416   1.278  10.873  0.0063 -2.7847 -1.6211
   86MOL0     H11547  11.424   1.489  10.771 -3.7376  0.4535  1.5033
   86MOL0     H11548  11.467   1.348  10.653  1.1129 -1.2102  2.0059
   86MOL0     H11549  11.267   1.403  10.530  0.9749 -2.1754  1.0826
   86MOL0     H11550  11.184   1.481  10.649  0.5886  1.5434  2.5405
   86MOL0     H11551  11.361   1.672  10.656  0.3946  0.6552 -1.1625
   86MOL0     H11552  11.436   1.579  10.518 -0.4668 -3.3422  1.5370
   86MOL0     H11553  11.145   1.652  10.522  1.0722 -2.0454  4.3140
   86MOL0     H11554  11.269   1.779  10.481 -0.8474 -0.0450  0.9789
   86MOL0     H11555  11.363   1.643  10.316  0.7990 -0.1031  2.9641
   86MOL0     H11556  11.242   1.508  10.334 -2.7361  0.3348 -0.0641
   86MOL0     H11557  11.061   1.699  10.293 -0.9442  1.0527 -1.7318
   86MOL0     H11558  11.195   1.795  10.249 -3.6739  0.6090  1.0195
   86MOL0     H11559  11.266   1.624  10.095  0.6266  2.8915 -0.1326
   86MOL0     H11560  11.119   1.709  10.053 -3.4631 -1.3481  0.6326
   86MOL0     H11561  10.875   1.564  10.149 -1.0425 -1.0059  3.3366
   86MOL0     H11562  10.739   1.257  10.091  2.0325 -1.1183 -0.4232
   86MOL0     H11563  10.834   1.175  10.215  1.3865 -0.8823  1.4831
   86MOL0     H11564  10.684   1.448  10.245  0.5869  0.9654  0.8159
   86MOL0     H11565  10.799   1.369  10.368  3.3299  0.1493 -2.2038
   86MOL0     H11566  10.623   1.202  10.405 -1.3518  0.1050  0.4486
   86MOL0     H11567  10.534   1.259  10.264 -0.9346  0.1458  0.3197
   86MOL0     H11568  10.477   1.469  10.385  2.3479  0.8742 -1.0712
   86MOL0     H11569  10.613   1.441  10.496  1.1533  1.7841 -3.1119
   86MOL0     H11570  10.414   1.577  10.590  0.3474 -1.7099 -2.2923
   86MOL0     H11571  10.350   1.736  10.729 -1.3901 -3.3747 -2.1194
   86MOL0     H11572  10.281   1.726  10.885 -0.8209  3.3587 -3.1931
   86MOL0     H11573  10.452   1.695  10.872 -0.1669  1.7025 -1.2616
   86MOL0     H11574   9.960   1.537  11.177  0.5703 -0.5713 -0.2757
   86MOL0     H11575   9.893   1.513  11.420 -0.5795  0.2258 -1.0041
   86MOL0     H11576  10.030   1.217  11.761 -1.2251 -3.8671 -1.2690
   86MOL0     H11577  10.124   1.171  11.639 -3.2562 -0.7337  0.0155
   86MOL0     H11578  10.262   1.371  11.638  2.4382 -2.4847  1.8069
   86MOL0     H11579  10.156   1.467  11.747 -0.1337 -0.7064  0.2277
   86MOL0     H11580  10.353   1.393  11.864  1.2213 -2.0552  3.8420
   86MOL0     H11581  10.340   1.234  11.799  1.3176  1.1047 -1.7309
   86MOL0     H11582  10.120   1.319  11.994 -0.7490 -0.7001  0.2396
   86MOL0     H11583  10.141   1.165  11.918 -1.3584  1.2376 -1.1817
   86MOL0     H11584  10.362   1.305  12.075 -0.3403 -0.7069  0.6301
   86MOL0     H11585  10.359   1.127  12.034 -0.3082 -1.4211  2.4186
   86MOL0     H11586  10.146   1.218  12.211  0.1098 -1.1572 -2.9042
   86MOL0     H11587  10.220   1.067  12.214 -0.3084  0.6118  0.5295
   86MOL0     H11588  10.314   1.301  12.374 -2.4512  1.1183 -2.2612
   86MOL0     H11589  10.444   1.202  12.312  0.2479 -2.4734  1.4622
   86MOL0     H11590  10.321   0.989  12.384 -0.7939 -0.5574 -1.3512
   86MOL0     H11591  10.209   1.103  12.470  1.1131 -3.4117  2.8011
   86MOL0     H11592  10.216   1.205  11.453 -1.4326 -1.4356  0.6781
   86MOL0     H11593  10.249   1.224  11.234  0.9726  2.2698  0.4798
   86MOL0     H11594  10.206   1.229  10.870 -3.5362 -0.2033 -2.8778
   86MOL0     H11595  10.286   1.183  10.676 -3.1740  0.2558  0.6606
   86MOL0     H11596  11.081   1.072  10.802  0.1996  0.3650 -1.1659
   86MOL0     H11597  11.060   0.845  10.903 -1.2174  0.7156 -0.9892
   86MOL0     H11598  11.273   0.456  10.991  0.4954  3.0992 -0.0631
   86MOL0     H11599  11.325   0.233  11.101 -1.3258 -1.9699  1.9830
   86MOL0     H11600  11.102   0.102  11.198 -0.5252  2.4840  2.5662
   86MOL0     H11601  11.250   0.003  11.201  0.0966  1.3158 -2.9110
   86MOL0     H11602  11.182  -0.090  11.429 -2.3537 -2.9008  0.3828
   86MOL0     H11603  11.072  -0.129  11.309 -0.4692 -2.0104  2.5143
   86MOL0     H11604  11.056   0.074  11.525 -0.5883  1.2260 -2.4068
   86MOL0     H11605  10.959  -0.079  11.521  0.1749  0.2349  1.4892
   86MOL0     H11606  10.897   0.129  11.301 -3.5562 -0.5133 -1.4144
   86MOL0     H11607  10.837   0.140  11.460  2.0935  0.2676  0.5215
   86MOL0     H11608  10.693  -0.218  11.243  1.2538 -4.4512  3.6660
   86MOL0     H11609  11.121   0.363  11.457  0.1893 -3.4202 -1.2527
   86MOL0     H11610  11.117   0.598  11.362 -0.2356  0.6619 -1.7317
   87MOL0     O11611   3.379   9.784   4.921 -0.0671  0.8063  0.2384
   87MOL0     C11612   3.485   9.748   4.868 -0.8638 -0.3932  0.6713
   87MOL0     O11613   3.608   9.799   4.897  0.3413  0.0670  0.0625
   87MOL0     C11614   3.634   9.890   4.996  0.6054  0.3393  0.8361
   87MOL0     C11615   3.753   9.963   4.991 -0.2465 -0.2393 -0.2619
   87MOL0     C11616   3.781  10.059   5.087 -0.4677 -0.0988 -0.2020
   87MOL0     C11617   3.702  10.073   5.200  1.1877 -1.1421  0.8077
   87MOL0     O11618   3.737  10.169   5.294 -0.1831  0.6108  0.4974
   87MOL0     C11619   3.642  10.201   5.390  0.3124  0.0704 -0.2858
   87MOL0     C11620   3.684  10.333   5.448  0.6604 -0.3886  0.0603
   87MOL0     C11621   3.577  10.404   5.539  0.6546  0.8071 -0.1313
   87MOL0     C11622   3.612  10.556   5.552  0.1110 -0.4983  1.0288
   87MOL0     C11623   3.479  10.627   5.596 -0.1336 -0.0207 -0.5601
   87MOL0     C11624   3.510  10.768   5.634  0.1948 -0.2149 -0.5337
   87MOL0     C11625   3.383  10.843   5.680  0.3641  0.5390  0.2547
   87MOL0     C11626   3.309  10.802   5.807 -0.4993 -0.2351 -0.3550
   87MOL0     N11627   3.189  10.884   5.805  0.0892 -0.3795 -0.1004
   87MOL0     C11628   3.165  11.010   5.866  0.5646  0.3362 -0.4533
   87MOL0     C11629   3.033  11.045   5.854  0.2859  0.3315 -0.1680
   87MOL0     C11630   2.971  11.175   5.898  0.2251  0.3694  0.0513
   87MOL0     C11631   2.929  11.185   6.042  0.3315  0.0453 -0.2774
   87MOL0     C11632   2.949  11.327   6.098 -0.4681 -0.5954 -0.9035
   87MOL0     C11633   2.941  11.319   6.250 -0.3317 -0.0919 -0.0748
   87MOL0     O11634   2.808  11.313   6.296 -0.4804 -0.2139  0.0107
   87MOL0     C11635   2.733  11.426   6.326 -0.2780 -0.6192 -0.5821
   87MOL0     C11636   2.773  11.559   6.315  0.7259  0.6967 -0.0832
   87MOL0     C11637   2.691  11.667   6.361  0.3348  0.2145  1.1787
   87MOL0     C11638   2.747  11.806   6.345  0.2594  0.7659 -0.1338
   87MOL0     C11639   2.564  11.644   6.418 -0.4282  0.3125  0.1941
   87MOL0     C11640   2.476  11.748   6.463  0.1738  0.6186  0.4338
   87MOL0     O11641   2.388  11.705   6.555  0.3340 -0.1876 -1.4028
   87MOL0     C11642   2.258  11.763   6.546  0.1298  0.8728  0.1530
   87MOL0     C11643   2.223  11.857   6.628 -0.8208 -0.1025 -0.0314
   87MOL0     C11644   2.098  11.907   6.651 -0.2913 -0.0882  0.7638
   87MOL0     C11645   1.996  11.851   6.574  0.3096  0.1397 -0.1491
   87MOL0     O11646   1.866  11.882   6.594  0.4196 -0.3663 -0.4542
   87MOL0     C11647   1.831  12.003   6.524 -0.7470 -0.4165  0.2098
   87MOL0     C11648   1.682  12.027   6.508  0.0094  1.7860  0.9633
   87MOL0     C11649   1.637  12.156   6.428  0.1314 -0.0128 -0.4553
   87MOL0     C11650   1.493  12.200   6.446 -0.1850 -0.6626 -0.0699
   87MOL0     C11651   1.393  12.105   6.379  1.0602  0.1489  0.5098
   87MOL0     C11652   1.257  12.108   6.436  0.2522  0.2959 -1.0599
   87MOL0     C11653   1.170  11.993   6.378  0.1559  0.7320 -0.1665
   87MOL0     C11654   1.028  11.996   6.432 -0.5900 -0.2453 -0.2589
   87MOL0    Cl11655   0.947  11.841   6.362 -0.5359  0.0218  0.1814
   87MOL0     C11656   2.031  11.746   6.486  0.1081 -0.0147 -0.3351
   87MOL0     C11657   2.159  11.702   6.471 -0.2603  0.3985  0.1230
   87MOL0     O11658   2.474  11.859   6.412 -0.0426  0.5740  0.1473
   87MOL0     C11659   2.525  11.507   6.420 -0.4314  0.1620 -0.7658
   87MOL0     C11660   2.604  11.401   6.377 -0.9522  0.2660  1.5069
   87MOL0     N11661   2.979  10.945   5.786  0.2312 -0.7026 -0.6073
   87MOL0     N11662   3.063  10.854   5.760  0.6380 -0.2650 -0.3083
   87MOL0     C11663   3.605   9.974   5.221  0.6012  0.4044 -0.7126
   87MOL0     C11664   3.564   9.891   5.117  0.0794  0.1427  0.4823
   87MOL0     C11665   3.494   9.632   4.785  0.1078 -0.0811 -0.2357
   87MOL0     C11666   3.598   9.617   4.695 -0.7081 -0.9424 -0.2184
   87MOL0     C11667   3.598   9.512   4.598 -0.1939 -1.0208 -0.0286
   87MOL0     C11668   3.495   9.416   4.602 -0.2950  0.3283  0.9431
   87MOL0     O11669   3.493   9.312   4.509  0.0121  0.4945  0.1124
   87MOL0     C11670   3.545   9.329   4.379 -0.6502  0.5971  0.2974
   87MOL0     C11671   3.491   9.225   4.291 -0.9984 -0.5026 -1.1554
   87MOL0     C11672   3.565   9.236   4.165 -0.2415  0.3733  0.4449
   87MOL0     C11673   3.561   9.101   4.086 -0.9953 -1.3087  0.6280
   87MOL0     C11674   3.632   9.113   3.955  0.8938  0.2541  0.6462
   87MOL0     C11675   3.675   9.125   3.844  0.3299  0.2161 -0.3942
   87MOL0     C11676   3.393   9.424   4.696  0.0644 -0.6303 -0.4362
   87MOL0     C11677   3.386   9.540   4.779  0.0601  0.2085  1.0160
   87MOL0     H11678   3.818   9.949   4.905 -1.7943 -1.0678 -1.3474
   87MOL0     H11679   3.859  10.134   5.075 -2.0210  1.2186 -3.3740
   87MOL0     H11680   3.541  10.194   5.348  0.1772 -1.7061  0.2591
   87MOL0     H11681   3.639  10.131   5.474 -3.3163  1.0582  0.6148
   87MOL0     H11682   3.779  10.320   5.502 -0.7819 -1.3507  2.5669
   87MOL0     H11683   3.698  10.404   5.367 -1.3519  0.2490  0.2295
   87MOL0     H11684   3.485  10.403   5.480  1.4473 -3.0604 -1.6332
   87MOL0     H11685   3.573  10.347   5.632  4.3076 -3.3289 -2.1409
   87MOL0     H11686   3.691  10.577   5.624  2.2352 -0.8167 -1.0920
   87MOL0     H11687   3.640  10.595   5.453 -1.5672 -2.0450 -0.1114
   87MOL0     H11688   3.388  10.616   5.536  0.0963  1.5072 -1.2335
   87MOL0     H11689   3.447  10.582   5.690 -1.2440  0.6438 -0.5978
   87MOL0     H11690   3.590  10.779   5.707  1.3480  0.4864 -1.8598
   87MOL0     H11691   3.547  10.817   5.543  1.3806 -3.7402 -2.1248
   87MOL0     H11692   3.422  10.945   5.689  1.1911  0.1243  1.6803
   87MOL0     H11693   3.309  10.837   5.600  2.1237 -0.0580 -1.3893
   87MOL0     H11694   3.369  10.825   5.896  0.5813 -1.6342 -0.6847
   87MOL0     H11695   3.282  10.696   5.812 -1.9588  0.1699  3.3285
   87MOL0     H11696   3.234  11.079   5.913 -0.5650  1.0148  0.2583
   87MOL0     H11697   3.054  11.245   5.885 -0.6481  1.2957 -0.7510
   87MOL0     H11698   2.879  11.187   5.839 -0.2074  0.8303  0.7997
   87MOL0     H11699   2.990  11.121   6.107 -0.0331  0.9369  0.9783
   87MOL0     H11700   2.831  11.137   6.044  1.8611 -3.4218 -0.7022
   87MOL0     H11701   2.871  11.398   6.068 -0.5312 -1.0911 -1.9430
   87MOL0     H11702   3.046  11.361   6.062 -0.8894  1.4111 -0.2905
   87MOL0     H11703   2.976  11.416   6.287  2.3280  0.5906 -3.7632
   87MOL0     H11704   2.998  11.242   6.301  2.4187  1.2960 -0.8458
   87MOL0     H11705   2.865  11.580   6.261  0.3026 -0.0565 -1.1441
   87MOL0     H11706   2.840  11.804   6.286  0.2149 -0.9290 -0.1811
   87MOL0     H11707   2.676  11.879   6.306 -0.4807  0.6646  0.9930
   87MOL0     H11708   2.774  11.830   6.448  1.0504  0.4781 -0.2641
   87MOL0     H11709   2.296  11.894   6.700 -2.1946  2.9343 -0.0459
   87MOL0     H11710   2.073  11.986   6.722  2.1257  1.2441  0.2696
   87MOL0     H11711   1.891  12.084   6.569 -0.1086 -0.5770 -0.3441
   87MOL0     H11712   1.877  12.000   6.425  2.7544 -3.0375  1.7167
   87MOL0     H11713   1.650  11.948   6.441 -1.0086  1.3625  1.9232
   87MOL0     H11714   1.630  12.017   6.604 -0.0795 -0.2484  0.7338
   87MOL0     H11715   1.654  12.149   6.321  0.2565 -1.7650 -0.3460
   87MOL0     H11716   1.704  12.235   6.465  2.2951 -1.6903 -0.5641
   87MOL0     H11717   1.464  12.217   6.550 -0.4115 -1.1367 -0.0505
   87MOL0     H11718   1.496  12.299   6.399  0.2024 -0.7959 -0.3405
   87MOL0     H11719   1.432  12.003   6.383 -0.1167 -0.3014  1.2501
   87MOL0     H11720   1.385  12.136   6.275 -1.3613  1.6454  1.0640
   87MOL0     H11721   1.269  12.091   6.543  1.5011  2.4024 -0.7918
   87MOL0     H11722   1.217  12.208   6.415 -0.0123  0.4043 -0.0710
   87MOL0     H11723   1.211  11.893   6.397 -1.5777 -0.6646 -3.1206
   87MOL0     H11724   1.176  11.997   6.269  1.4232 -1.3650 -0.2199
   87MOL0     H11725   0.977  12.085   6.392  3.2097  0.8309 -3.3446
   87MOL0     H11726   1.025  11.989   6.541 -2.5652 -3.8994 -0.3538
   87MOL0     H11727   1.957  11.694   6.426 -1.4532 -1.1431  2.3837
   87MOL0     H11728   2.189  11.618   6.409  0.6803  1.9705 -1.6568
   87MOL0     H11729   2.419  11.496   6.439 -0.8416  2.9944 -0.9480
   87MOL0     H11730   2.569  11.298   6.384 -2.5365  0.8092  2.2974
   87MOL0     H11731   3.553   9.961   5.315  0.4019  2.4248 -0.5023
   87MOL0     H11732   3.480   9.825   5.134 -1.8740  1.3751 -3.2468
   87MOL0     H11733   3.671   9.697   4.701 -1.1998 -0.4008 -1.3395
   87MOL0     H11734   3.673   9.528   4.522 -0.1800  2.5331  0.5466
   87MOL0     H11735   3.516   9.428   4.343 -1.0740  0.1768 -0.5694
   87MOL0     H11736   3.653   9.325   4.395 -0.7799  0.9332  1.3261
   87MOL0     H11737   3.383   9.234   4.278 -1.7197 -2.0499  2.5807
   87MOL0     H11738   3.510   9.128   4.336 -0.9217  0.5417  1.2012
   87MOL0     H11739   3.670   9.248   4.193  0.2131 -2.8518  0.5328
   87MOL0     H11740   3.515   9.316   4.111 -0.9395 -0.1284  0.3366
   87MOL0     H11741   3.453   9.094   4.074 -1.6180  3.9388  1.1382
   87MOL0     H11742   3.602   9.024   4.152 -1.0874 -0.2671  1.9376
   87MOL0     H11743   3.718   9.133   3.746 -0.2229 -0.1716 -0.6711
   87MOL0     H11744   3.325   9.339   4.707 -0.8216  0.2511  1.3656
   87MOL0     H11745   3.289   9.567   4.820 -0.6629  0.6066 -0.8489
   88MOL0     O11746   9.011   7.354  10.512  0.3123  0.2907 -0.2160
   88MOL0     C11747   9.000   7.403  10.624 -1.4516 -0.6309 -0.0764
   88MOL0     O11748   9.018   7.343  10.740  0.1569  0.6184  0.7087
   88MOL0     C11749   9.037   7.205  10.741  0.3167 -0.7479 -0.7345
   88MOL0     C11750   9.119   7.126  10.663 -0.7228  0.4537  0.4111
   88MOL0     C11751   9.130   6.985  10.687  0.2742  0.1056  0.6985
   88MOL0     C11752   9.073   6.930  10.801 -0.2683 -0.4659  0.5355
   88MOL0     O11753   9.095   6.797  10.821  0.8175 -0.6888  0.1366
   88MOL0     C11754   9.109   6.749  10.955 -0.1411 -0.7503 -0.0682
   88MOL0     C11755   9.147   6.605  10.957  0.0971 -0.1358  0.3958
   88MOL0     C11756   9.294   6.573  10.904  0.2683  0.3850 -0.1153
   88MOL0     C11757   9.391   6.587  11.022 -0.6216 -0.5109  0.2930
   88MOL0     C11758   9.540   6.594  10.974  0.2299 -0.1672  0.6170
   88MOL0     C11759   9.582   6.451  10.946 -0.6951 -0.4630 -0.3246
   88MOL0     C11760   9.737   6.446  10.943  0.7448  0.1062 -0.6957
   88MOL0     C11761   9.788   6.498  10.803  0.9966  0.2463 -0.0169
   88MOL0     N11762   9.728   6.419  10.698 -0.1826 -0.4357  0.8342
   88MOL0     C11763   9.718   6.468  10.570 -0.0759  0.4823  0.5167
   88MOL0     C11764   9.716   6.356  10.492  0.4306 -0.1690  0.6132
   88MOL0     C11765   9.684   6.338  10.343 -0.9774 -0.2397 -0.2897
   88MOL0     C11766   9.748   6.445  10.265 -0.7974 -0.5070  0.6956
   88MOL0     C11767   9.900   6.430  10.275  0.1357 -0.0626 -0.1324
   88MOL0     C11768   9.971   6.550  10.199  0.6713  0.0322 -0.0779
   88MOL0     O11769   9.942   6.682  10.255 -0.8930  0.1956 -0.0421
   88MOL0     C11770  10.013   6.723  10.369  0.2956  0.0648  0.2972
   88MOL0     C11771   9.969   6.855  10.419 -1.0299  0.2299  0.6043
   88MOL0     C11772  10.004   6.895  10.549  0.0066  0.4667  0.6319
   88MOL0     C11773   9.967   7.041  10.580  0.5922 -0.3124  0.7820
   88MOL0     C11774  10.088   6.811  10.625  0.2545  0.0761  0.8962
   88MOL0     C11775  10.118   6.847  10.758  1.3901 -0.1066  0.1342
   88MOL0     O11776  10.149   6.745  10.846 -0.0937  0.5522  0.2172
   88MOL0     C11777  10.171   6.762  10.982 -0.3527  0.1906 -0.4168
   88MOL0     C11778  10.095   6.693  11.073 -0.4235 -0.0580  0.3437
   88MOL0     C11779  10.136   6.677  11.208  0.0061  0.0068  0.6525
   88MOL0     C11780  10.245   6.748  11.254 -0.2586 -0.0128 -0.1911
   88MOL0     O11781  10.287   6.737  11.386  0.2347 -0.3120 -0.3484
   88MOL0     C11782  10.186   6.720  11.493  0.3477 -0.0220  0.0313
   88MOL0     C11783  10.232   6.792  11.617 -1.2013 -0.3318 -0.9726
   88MOL0     C11784  10.140   6.759  11.735 -1.0997  0.2829 -0.2402
   88MOL0     C11785  10.202   6.833  11.856 -0.4420 -0.0355 -0.1465
   88MOL0     C11786  10.118   6.820  11.985  0.3035  0.0643 -0.1564
   88MOL0     C11787  10.154   6.692  12.059  0.5997  0.5683  0.0298
   88MOL0     C11788  10.054   6.662  12.168 -0.1202  0.6666  0.3288
   88MOL0     C11789  10.048   6.766  12.284 -0.0181  0.1736 -0.3309
   88MOL0    Cl11790  10.206   6.817  12.346 -0.4858  0.0584  0.3240
   88MOL0     C11791  10.320   6.819  11.167 -0.4751 -1.0313  0.7732
   88MOL0     C11792  10.284   6.832  11.031  0.1831 -0.5613 -0.7719
   88MOL0     O11793  10.137   6.970  10.793  0.5828  0.4765  0.2755
   88MOL0     C11794  10.128   6.679  10.580 -0.6230  0.3353 -0.3168
   88MOL0     C11795  10.099   6.642  10.447 -1.2643  0.0213 -0.5938
   88MOL0     N11796   9.721   6.244  10.574 -0.1626  0.2436  0.7602
   88MOL0     N11797   9.734   6.282  10.700  0.0229 -0.4475  0.4557
   88MOL0     C11798   8.988   7.003  10.884  0.1235 -0.0515 -0.5237
   88MOL0     C11799   8.977   7.139  10.851 -0.0517 -0.4599 -0.6719
   88MOL0     C11800   8.966   7.546  10.625 -0.2177 -0.7684  0.5251
   88MOL0     C11801   8.934   7.605  10.741 -0.3606 -1.5441 -0.1537
   88MOL0     C11802   8.895   7.740  10.745 -0.4799  0.1767 -0.9584
   88MOL0     C11803   8.877   7.813  10.619 -0.0745  0.2140  0.6722
   88MOL0     O11804   8.832   7.940  10.640 -0.0712 -0.0933 -0.1647
   88MOL0     C11805   8.783   8.009  10.525  0.1146 -0.1316  0.1018
   88MOL0     C11806   8.873   8.121  10.492  0.0322  0.8589 -0.2345
   88MOL0     C11807   8.900   8.207  10.617 -0.5685 -0.4199  0.1164
   88MOL0     C11808   8.984   8.324  10.567  0.4932 -0.6080  1.2022
   88MOL0     C11809   9.014   8.413  10.682 -0.5149  0.2246  0.0417
   88MOL0     C11810   9.026   8.489  10.779  0.4575  1.0201  0.2372
   88MOL0     C11811   8.904   7.744  10.505 -0.0610  0.7793  0.2327
   88MOL0     C11812   8.954   7.620  10.513 -0.0934  0.5806 -0.4074
   88MOL0     H11813   9.179   7.155  10.577  0.6490 -1.2328  0.7445
   88MOL0     H11814   9.180   6.934  10.605 -0.6903  0.2686 -0.0212
   88MOL0     H11815   9.187   6.802  11.012 -1.3548  0.1962  0.7662
   88MOL0     H11816   9.013   6.762  11.005  0.7938  2.0507  1.2243
   88MOL0     H11817   9.139   6.567  11.060 -3.6735  0.6374  0.5430
   88MOL0     H11818   9.073   6.538  10.912  0.6418 -0.8665  0.5555
   88MOL0     H11819   9.296   6.473  10.860  2.4913 -0.0973  0.9294
   88MOL0     H11820   9.338   6.641  10.831  1.3834  0.1685  0.3400
   88MOL0     H11821   9.367   6.683  11.068 -0.7780  1.5949 -3.7623
   88MOL0     H11822   9.380   6.499  11.086  1.8219 -2.0041 -1.1851
   88MOL0     H11823   9.572   6.655  10.889 -0.6153  0.3616  0.6687
   88MOL0     H11824   9.604   6.620  11.059  0.2472 -0.3339  0.6537
   88MOL0     H11825   9.550   6.389  11.030 -0.0458 -0.0196  0.2600
   88MOL0     H11826   9.528   6.409  10.860 -0.7462 -1.7857  0.3276
   88MOL0     H11827   9.788   6.514  11.012 -0.1543 -1.6111  1.7549
   88MOL0     H11828   9.771   6.343  10.955 -2.9192 -1.0710  1.0466
   88MOL0     H11829   9.896   6.488  10.797  0.9947  0.2769 -0.0996
   88MOL0     H11830   9.760   6.603  10.788  0.3654  0.3020  1.4044
   88MOL0     H11831   9.696   6.567  10.532 -1.5395 -0.5288 -1.4413
   88MOL0     H11832   9.722   6.239  10.315 -0.1550 -2.0954  5.7938
   88MOL0     H11833   9.576   6.342  10.324 -1.0619  2.1841  0.3701
   88MOL0     H11834   9.717   6.544  10.300  3.5462  0.9757  0.9709
   88MOL0     H11835   9.720   6.448  10.160  2.0254 -0.0296 -0.1500
   88MOL0     H11836   9.934   6.338  10.227 -1.3564  0.0915 -1.5512
   88MOL0     H11837   9.936   6.426  10.378  0.6518  3.5673 -0.0581
   88MOL0     H11838   9.941   6.532  10.095  0.5218 -0.6878  0.0832
   88MOL0     H11839  10.076   6.522  10.213  0.6771  0.9246  1.9944
   88MOL0     H11840   9.901   6.910  10.355  1.0421  0.8406 -1.1935
   88MOL0     H11841   9.882   7.046  10.649  1.6723  0.5138  2.0870
   88MOL0     H11842  10.044   7.104  10.624 -2.6203  5.4248 -0.8594
   88MOL0     H11843   9.938   7.094  10.489 -3.3706 -2.5149  0.5283
   88MOL0     H11844  10.002   6.650  11.041 -0.8765  0.9460  0.2669
   88MOL0     H11845  10.081   6.606  11.269  1.3707 -1.8159 -0.1510
   88MOL0     H11846  10.086   6.753  11.467  0.5953 -0.3288 -1.4066
   88MOL0     H11847  10.178   6.615  11.525  0.5394  1.0199  4.0782
   88MOL0     H11848  10.333   6.756  11.640 -1.3685 -0.7755 -0.9402
   88MOL0     H11849  10.238   6.900  11.601 -0.8026  0.6325  4.0371
   88MOL0     H11850  10.131   6.650  11.744 -0.1027 -0.1176 -3.1288
   88MOL0     H11851  10.044   6.807  11.716 -0.2390  1.5961 -1.4642
   88MOL0     H11852  10.298   6.788  11.882 -2.1616 -2.3380  2.8752
   88MOL0     H11853  10.208   6.937  11.824  0.1744  0.5504  1.6802
   88MOL0     H11854  10.011   6.820  11.962 -0.0837 -2.0366  1.3773
   88MOL0     H11855  10.134   6.906  12.051 -2.2715 -0.9973  2.0258
   88MOL0     H11856  10.143   6.609  11.988 -0.9683 -1.2352  2.2000
   88MOL0     H11857  10.259   6.688  12.089  1.1497  1.9984 -1.6066
   88MOL0     H11858  10.067   6.559  12.202 -1.8377  0.3957  0.2391
   88MOL0     H11859   9.957   6.658  12.118  1.0594 -2.0972 -2.1409
   88MOL0     H11860   9.985   6.724  12.363  3.8038 -0.6397  2.5882
   88MOL0     H11861   9.992   6.851  12.245  0.6085  0.0220 -1.6070
   88MOL0     H11862  10.393   6.889  11.207 -1.9021  0.9529  0.0619
   88MOL0     H11863  10.340   6.885  10.954 -0.7136  1.3015 -0.1995
   88MOL0     H11864  10.186   6.612  10.642 -4.5800 -0.8035  2.5097
   88MOL0     H11865  10.134   6.543  10.419 -0.3543  0.3564 -0.6587
   88MOL0     H11866   8.952   6.957  10.976  1.4953 -1.4823 -0.6702
   88MOL0     H11867   8.910   7.198  10.913 -0.0996 -0.8918 -0.3081
   88MOL0     H11868   8.942   7.549  10.834  1.3448  2.0178  2.0531
   88MOL0     H11869   8.871   7.787  10.839  0.6659 -3.0470  1.1252
   88MOL0     H11870   8.762   7.949  10.436  2.2211 -0.8036 -0.0009
   88MOL0     H11871   8.685   8.051  10.549 -0.9676 -1.5264 -1.6480
   88MOL0     H11872   8.819   8.189  10.426  1.0302  0.0191 -1.9661
   88MOL0     H11873   8.967   8.084  10.449  0.0986 -1.7357  1.9252
   88MOL0     H11874   8.963   8.158  10.691  0.3923  2.8681  1.6609
   88MOL0     H11875   8.812   8.240  10.674  1.6371  3.4379  1.6539
   88MOL0     H11876   8.921   8.375  10.493 -1.2493  0.3931  3.2529
   88MOL0     H11877   9.078   8.288  10.526 -0.0498 -2.9803  1.8903
   88MOL0     H11878   9.029   8.545  10.870  1.5091  1.8485 -0.2896
   88MOL0     H11879   8.904   7.795  10.409  2.3821  2.0192  0.8174
   88MOL0     H11880   8.970   7.574  10.416 -0.9230  1.4832 -0.9886
   89MOL0     O11881   4.968   5.037   9.688  0.7688  1.0946 -0.4885
   89MOL0     C11882   5.060   5.086   9.634  1.8497 -0.2144 -0.3836
   89MOL0     O11883   5.082   5.090   9.502 -0.7673 -0.9375  0.6255
   89MOL0     C11884   4.985   5.055   9.417 -0.0089 -0.6953 -0.1952
   89MOL0     C11885   5.001   4.930   9.364  0.8734  0.6862  0.3121
   89MOL0     C11886   4.898   4.885   9.291 -0.7421  0.0729 -0.4638
   89MOL0     C11887   4.797   4.972   9.243 -0.3889  0.5829 -0.2059
   89MOL0     O11888   4.680   4.939   9.171  0.2014  0.0922 -0.2650
   89MOL0     C11889   4.682   4.817   9.092 -0.1630  0.1656 -0.4786
   89MOL0     C11890   4.551   4.795   9.008 -0.6501 -0.3636  0.2554
   89MOL0     C11891   4.424   4.798   9.091  0.1302 -0.0806 -0.7038
   89MOL0     C11892   4.296   4.806   9.007  0.3606 -0.2831  0.6884
   89MOL0     C11893   4.174   4.788   9.088 -0.7519 -0.1065 -0.9654
   89MOL0     C11894   4.057   4.764   9.005 -0.3452 -0.4441  0.4442
   89MOL0     C11895   3.926   4.733   9.074  0.2923 -0.3898  0.6946
   89MOL0     C11896   3.812   4.700   8.976  0.7215 -0.3337  0.4627
   89MOL0     N11897   3.786   4.801   8.868 -0.1266  0.6060 -0.9627
   89MOL0     C11898   3.738   4.926   8.894 -0.0082 -0.0049 -0.6845
   89MOL0     C11899   3.729   4.990   8.776 -0.1100 -1.0056  0.3149
   89MOL0     C11900   3.691   5.133   8.754  0.7154 -0.6535 -1.0572
   89MOL0     C11901   3.791   5.216   8.831  1.0609 -0.7140  0.1891
   89MOL0     C11902   3.938   5.187   8.791  0.4710 -0.2868  0.2477
   89MOL0     C11903   4.029   5.303   8.834  0.7691 -0.5676  0.0788
   89MOL0     O11904   4.154   5.234   8.875 -0.0197  0.5186  0.1622
   89MOL0     C11905   4.261   5.305   8.928  0.3644 -0.0959 -0.1328
   89MOL0     C11906   4.275   5.445   8.906 -0.2504 -0.1542  0.5669
   89MOL0     C11907   4.372   5.524   8.963 -0.9133  0.0734 -0.5712
   89MOL0     C11908   4.371   5.668   8.931  0.5752 -0.8808 -0.3222
   89MOL0     C11909   4.458   5.461   9.056 -0.2678  0.4590 -0.3444
   89MOL0     C11910   4.563   5.524   9.137 -0.2130  0.5099 -0.5872
   89MOL0     O11911   4.604   5.455   9.243  0.1958 -0.8116 -0.1827
   89MOL0     C11912   4.708   5.497   9.325 -0.6451  0.6895  0.7423
   89MOL0     C11913   4.809   5.571   9.277 -0.8794 -0.6885 -0.9003
   89MOL0     C11914   4.920   5.613   9.356 -0.7484  0.0094  1.4296
   89MOL0     C11915   4.920   5.596   9.493  1.0198 -0.0667  0.3357
   89MOL0     O11916   5.032   5.634   9.558  0.2509  1.2572  0.1363
   89MOL0     C11917   5.065   5.557   9.675  0.6994 -1.0797 -0.2599
   89MOL0     C11918   5.159   5.638   9.769  0.2359  0.2411 -0.5625
   89MOL0     C11919   5.289   5.684   9.703 -0.3969 -0.1052 -0.1850
   89MOL0     C11920   5.384   5.756   9.801 -0.1848 -0.1363  0.1628
   89MOL0     C11921   5.526   5.794   9.750  0.1371  1.0163  0.6178
   89MOL0     C11922   5.571   5.920   9.815  0.3822 -0.2549 -0.0793
   89MOL0     C11923   5.704   5.971   9.778 -0.4049 -0.4417  0.7517
   89MOL0     C11924   5.731   6.008   9.632  0.2653  0.7949 -0.4593
   89MOL0    Cl11925   5.594   6.076   9.528  0.1864 -0.2754  0.3427
   89MOL0     C11926   4.821   5.504   9.540 -0.4676 -0.7189  0.3981
   89MOL0     C11927   4.710   5.454   9.461 -2.0662 -0.1863  0.9155
   89MOL0     O11928   4.600   5.634   9.103 -0.4214 -0.5266  0.6057
   89MOL0     C11929   4.444   5.319   9.072  0.3093 -0.1080 -0.8315
   89MOL0     C11930   4.353   5.236   9.006 -0.2155 -0.3425  0.6396
   89MOL0     N11931   3.757   4.896   8.677 -0.6813 -0.2853  0.0192
   89MOL0     N11932   3.799   4.783   8.730  0.3904  0.2337 -0.3973
   89MOL0     C11933   4.794   5.110   9.285  0.3062  0.1988 -0.4548
   89MOL0     C11934   4.894   5.151   9.373 -0.1399  0.3188  0.5195
   89MOL0     C11935   5.159   5.161   9.718  0.3520  0.3391  0.6655
   89MOL0     C11936   5.155   5.164   9.864  1.2207 -0.2301  0.8694
   89MOL0     C11937   5.237   5.242   9.939  0.5642 -0.3725 -0.3937
   89MOL0     C11938   5.345   5.317   9.872  0.9897  0.5365 -0.8271
   89MOL0     O11939   5.435   5.387   9.940 -0.1143  0.5343 -0.1576
   89MOL0     C11940   5.484   5.323  10.063  0.1703 -0.9869  0.8544
   89MOL0     C11941   5.617   5.397  10.101 -0.2438  0.3265  0.4322
   89MOL0     C11942   5.598   5.550  10.119 -0.0323 -0.4082 -0.2159
   89MOL0     C11943   5.729   5.603  10.197 -0.0735  0.5274 -0.4312
   89MOL0     C11944   5.833   5.613  10.092  0.8752 -0.6781 -0.6021
   89MOL0     C11945   5.898   5.623   9.989 -0.5571  0.0575  0.0318
   89MOL0     C11946   5.353   5.305   9.732 -0.4365  0.3199  0.5562
   89MOL0     C11947   5.256   5.239   9.656  0.2890 -0.7372  0.1270
   89MOL0     H11948   5.087   4.868   9.387 -0.8286 -1.3789  1.5142
   89MOL0     H11949   4.918   4.790   9.242  1.6661  0.3755 -0.2105
   89MOL0     H11950   4.767   4.806   9.024  1.3408  0.7238  1.2347
   89MOL0     H11951   4.684   4.736   9.164 -3.0463  1.0631  0.7794
   89MOL0     H11952   4.549   4.875   8.934  0.9205 -1.1462 -0.7127
   89MOL0     H11953   4.557   4.697   8.959  0.5047  0.1177 -0.6504
   89MOL0     H11954   4.422   4.712   9.158 -0.3247  1.0142  0.7274
   89MOL0     H11955   4.423   4.893   9.144  1.6273 -0.6881  0.4900
   89MOL0     H11956   4.287   4.890   8.937  1.1110 -1.1349 -0.4728
   89MOL0     H11957   4.305   4.719   8.940  2.9436 -0.7238  1.5310
   89MOL0     H11958   4.193   4.706   9.157  0.8092  1.6008  0.7718
   89MOL0     H11959   4.166   4.881   9.146 -0.9036  1.8439 -3.9191
   89MOL0     H11960   4.055   4.849   8.936  3.1887 -2.3912 -2.3893
   89MOL0     H11961   4.089   4.673   8.954 -1.6574 -1.0861  0.7098
   89MOL0     H11962   3.927   4.640   9.132 -4.0630 -0.8865  0.2769
   89MOL0     H11963   3.891   4.824   9.123 -0.0680  1.6950 -3.0476
   89MOL0     H11964   3.718   4.702   9.031  0.3084 -2.0294 -0.1425
   89MOL0     H11965   3.817   4.599   8.936 -2.6222 -0.1305 -0.7530
   89MOL0     H11966   3.739   4.973   8.992  0.9841 -0.4545 -0.4658
   89MOL0     H11967   3.701   5.165   8.650  0.9411 -2.3132 -1.5816
   89MOL0     H11968   3.587   5.139   8.787  2.0993 -0.7205  4.2080
   89MOL0     H11969   3.797   5.205   8.940  2.2337  1.8705  0.4519
   89MOL0     H11970   3.769   5.321   8.812 -0.3054 -0.3794  3.0222
   89MOL0     H11971   3.948   5.169   8.684  0.3953  1.6987 -0.1188
   89MOL0     H11972   3.970   5.096   8.843  2.1058  1.2074  2.0006
   89MOL0     H11973   3.994   5.368   8.915 -1.9445  1.8735 -2.8424
   89MOL0     H11974   4.042   5.359   8.741 -2.5942 -0.1389 -0.2413
   89MOL0     H11975   4.211   5.502   8.840 -0.0745 -0.4015  0.1775
   89MOL0     H11976   4.454   5.692   8.864 -0.1968  2.1936 -0.3254
   89MOL0     H11977   4.281   5.696   8.876 -3.1670  0.7318  5.6182
   89MOL0     H11978   4.365   5.731   9.020  0.9413  0.6405 -1.3468
   89MOL0     H11979   4.813   5.599   9.172 -2.5295 -0.3064 -0.8974
   89MOL0     H11980   4.998   5.671   9.307  1.8700 -1.8908  3.0995
   89MOL0     H11981   4.982   5.526   9.739 -0.4201  0.5203 -0.8910
   89MOL0     H11982   5.110   5.464   9.639  0.2194 -0.7022 -1.9079
   89MOL0     H11983   5.105   5.728   9.802  3.4255  1.3350  2.2598
   89MOL0     H11984   5.164   5.568   9.853 -3.5996 -1.9848 -1.9026
   89MOL0     H11985   5.279   5.758   9.622  0.4735  0.9060  0.5915
   89MOL0     H11986   5.354   5.606   9.663  1.3523  0.9203  0.4906
   89MOL0     H11987   5.329   5.847   9.828  1.9352  2.8677 -4.3098
   89MOL0     H11988   5.389   5.690   9.888  0.7242 -1.8274 -1.1060
   89MOL0     H11989   5.528   5.815   9.642  0.4385  1.1681  0.6525
   89MOL0     H11990   5.595   5.712   9.770  1.2844  1.0773 -2.4460
   89MOL0     H11991   5.502   6.004   9.805  2.2408  1.3833  0.2271
   89MOL0     H11992   5.572   5.898   9.922 -2.2933 -0.5062 -0.0561
   89MOL0     H11993   5.790   5.917   9.819  1.4191  0.1788 -1.9796
   89MOL0     H11994   5.700   6.065   9.834 -2.0595 -1.5794  2.6936
   89MOL0     H11995   5.769   5.915   9.587 -1.3417 -0.7930  1.2555
   89MOL0     H11996   5.812   6.080   9.626  0.2554  0.7338 -1.5888
   89MOL0     H11997   4.820   5.455   9.637 -0.8430 -1.9630 -0.2176
   89MOL0     H11998   4.645   5.372   9.486 -0.6587 -2.5071 -2.3165
   89MOL0     H11999   4.520   5.264   9.128  1.4743  1.2218 -1.0435
   89MOL0     H12000   4.345   5.128   9.012 -0.1324 -0.4167 -0.4422
   89MOL0     H12001   4.712   5.176   9.258 -0.3882 -0.9212 -1.1516
   89MOL0     H12002   4.898   5.251   9.415 -0.4101  0.0974  1.0806
   89MOL0     H12003   5.081   5.111   9.923 -0.5085 -2.4249 -2.9144
   89MOL0     H12004   5.227   5.241  10.047 -1.0718 -0.6918 -0.5298
   89MOL0     H12005   5.415   5.341  10.146  0.3193  0.9752  0.5979
   89MOL0     H12006   5.501   5.216  10.049  0.4614 -1.0138  1.3837
   89MOL0     H12007   5.696   5.378  10.028 -0.3785  2.0400 -0.2019
   89MOL0     H12008   5.646   5.358  10.199  0.8300 -0.1833 -0.0761
   89MOL0     H12009   5.507   5.553  10.179 -0.2867 -1.0224 -0.5662
   89MOL0     H12010   5.596   5.591  10.017 -2.5604 -0.5053 -0.2688
   89MOL0     H12011   5.751   5.534  10.279 -0.3259  0.8074 -0.1227
   89MOL0     H12012   5.707   5.697  10.249  1.0816 -0.9291  3.0052
   89MOL0     H12013   5.955   5.636   9.899  0.6471  0.1912  0.7934
   89MOL0     H12014   5.420   5.368   9.674 -0.2105 -0.2308  0.2122
   89MOL0     H12015   5.256   5.243   9.548 -1.9955  1.5600  0.0986
   90MOL0     O12016   8.040   8.217   3.640 -0.4878 -0.2805 -0.2808
   90MOL0     C12017   8.161   8.239   3.617  0.1919  0.2783 -0.1553
   90MOL0     O12018   8.268   8.162   3.650  0.6449 -0.5152 -0.1752
   90MOL0     C12019   8.234   8.034   3.696 -0.2423 -0.5840  0.2580
   90MOL0     C12020   8.157   7.951   3.617 -0.2663 -0.9041  0.5134
   90MOL0     C12021   8.135   7.812   3.653 -0.2116  0.5740  0.4975
   90MOL0     C12022   8.176   7.770   3.778 -0.8281 -0.3886  0.0952
   90MOL0     O12023   8.166   7.641   3.809 -0.8773  0.5372  0.0964
   90MOL0     C12024   8.033   7.602   3.855 -0.1373  0.4027  0.0179
   90MOL0     C12025   7.959   7.676   3.975 -1.0066  0.0214  0.3068
   90MOL0     C12026   7.897   7.809   3.938  1.0878 -0.1221 -0.4692
   90MOL0     C12027   7.798   7.856   4.039 -0.1006  0.2085  0.4056
   90MOL0     C12028   7.770   8.004   4.032  0.3858  0.7235  0.0199
   90MOL0     C12029   7.669   8.059   4.142  0.5608  0.3316  0.2773
   90MOL0     C12030   7.650   8.217   4.129  0.6559  0.1729  0.8703
   90MOL0     C12031   7.550   8.277   4.238  0.0191  0.2989  0.4076
   90MOL0     N12032   7.593   8.290   4.379  0.0854  0.2220  0.2582
   90MOL0     C12033   7.700   8.361   4.418  0.1241 -0.9597  0.1614
   90MOL0     C12034   7.701   8.375   4.550  0.3666 -0.2895 -0.1160
   90MOL0     C12035   7.800   8.470   4.616  0.5733 -1.1723  0.5279
   90MOL0     C12036   7.773   8.611   4.586 -0.3072  0.2487  0.0742
   90MOL0     C12037   7.640   8.669   4.643  0.2857 -0.2051 -0.1905
   90MOL0     C12038   7.504   8.645   4.575 -0.7700  0.4223  0.0193
   90MOL0     O12039   7.514   8.658   4.437  0.7472 -0.4544 -0.6256
   90MOL0     C12040   7.421   8.604   4.361  0.3145  1.0458 -0.0499
   90MOL0     C12041   7.314   8.518   4.403  0.2553 -0.1648 -0.0256
   90MOL0     C12042   7.223   8.460   4.313  0.0149 -0.5572  0.6393
   90MOL0     C12043   7.115   8.367   4.363 -0.5433 -0.2363  0.9420
   90MOL0     C12044   7.227   8.512   4.178 -0.0411 -0.3244  0.2301
   90MOL0     C12045   7.134   8.487   4.065 -0.3377  0.2213  0.2331
   90MOL0     O12046   7.053   8.381   4.072 -0.0476  0.3679 -0.5386
   90MOL0     C12047   6.958   8.356   3.972  0.0804  0.4886 -0.6326
   90MOL0     C12048   6.960   8.218   3.937  0.7309 -0.0086 -0.0000
   90MOL0     C12049   6.857   8.162   3.861 -0.9319  0.3438  0.0163
   90MOL0     C12050   6.743   8.235   3.822  0.1999  0.0752 -0.7080
   90MOL0     O12051   6.622   8.192   3.762  0.2053 -0.4049  0.4289
   90MOL0     C12052   6.615   8.082   3.674  0.1584  0.8950  0.4998
   90MOL0     C12053   6.685   8.088   3.542  0.4426  0.0964  0.2734
   90MOL0     C12054   6.776   8.199   3.521 -0.3178 -0.7187  0.0160
   90MOL0     C12055   6.833   8.204   3.382  0.6757  0.0252  0.5628
   90MOL0     C12056   6.960   8.295   3.376  0.3957 -0.0402  0.6402
   90MOL0     C12057   6.948   8.432   3.430 -0.3722 -0.6442 -1.0668
   90MOL0     C12058   7.087   8.494   3.430  0.5335 -1.1082  0.3652
   90MOL0     C12059   7.201   8.417   3.507 -0.1840 -0.3571  0.2233
   90MOL0    Cl12060   7.169   8.401   3.686  0.1410 -0.1811  0.4118
   90MOL0     C12061   6.745   8.372   3.855  0.3780  0.0255 -0.2779
   90MOL0     C12062   6.851   8.435   3.929  0.2897  0.3540 -0.5894
   90MOL0     O12063   7.124   8.579   3.984  0.6162  0.2162  0.2650
   90MOL0     C12064   7.332   8.598   4.142  1.0771 -0.0853  0.3618
   90MOL0     C12065   7.433   8.636   4.224  0.2204  0.6181  0.4487
   90MOL0     N12066   7.590   8.310   4.600  0.2932 -0.5388  0.0151
   90MOL0     N12067   7.539   8.251   4.495  0.1762  0.4796  0.5616
   90MOL0     C12068   8.242   7.862   3.872 -0.3011 -0.3200  1.1580
   90MOL0     C12069   8.269   7.991   3.824  0.6352 -1.7571 -0.5256
   90MOL0     C12070   8.195   8.358   3.547  0.0795 -0.3027 -0.6152
   90MOL0     C12071   8.093   8.459   3.517 -0.6624 -0.1826 -0.3451
   90MOL0     C12072   8.133   8.576   3.457  0.8299 -0.0489  0.0078
   90MOL0     C12073   8.258   8.587   3.408 -0.6564 -0.2392 -0.6215
   90MOL0     O12074   8.281   8.704   3.328 -0.1420 -0.1620 -0.2036
   90MOL0     C12075   8.403   8.724   3.264  0.2278 -0.5372  0.1047
   90MOL0     C12076   8.500   8.777   3.373  0.2623 -0.0782  1.3110
   90MOL0     C12077   8.639   8.769   3.324 -0.4238  0.2456 -0.1565
   90MOL0     C12078   8.718   8.908   3.313 -0.2125 -0.5874 -0.3434
   90MOL0     C12079   8.763   8.959   3.445 -0.1110  0.7155  0.7692
   90MOL0     C12080   8.799   9.004   3.548  1.3990  0.1492  0.0889
   90MOL0     C12081   8.359   8.488   3.440 -0.7035  0.4374 -0.3049
   90MOL0     C12082   8.328   8.374   3.511  0.3165 -0.5617  0.0951
   90MOL0     H12083   8.132   7.979   3.515 -0.2964 -1.2515  0.4228
   90MOL0     H12084   8.089   7.754   3.574  0.8826  0.7070 -0.2631
   90MOL0     H12085   7.960   7.617   3.774 -1.3039  0.1088  0.9807
   90MOL0     H12086   8.026   7.496   3.879  1.9339  0.0464 -0.7816
   90MOL0     H12087   7.881   7.603   3.999 -0.3121 -0.3321  1.6186
   90MOL0     H12088   8.035   7.685   4.054 -0.8361 -1.0995  0.3005
   90MOL0     H12089   7.974   7.885   3.924  0.4412  0.3576 -1.5231
   90MOL0     H12090   7.832   7.790   3.852  0.3381 -2.9077  0.6028
   90MOL0     H12091   7.703   7.801   4.035  0.7191 -1.1831 -0.8248
   90MOL0     H12092   7.845   7.826   4.133  1.8326 -1.6920 -1.0703
   90MOL0     H12093   7.868   8.053   4.039 -1.0081  3.8358 -0.5560
   90MOL0     H12094   7.738   8.024   3.929 -0.3622 -1.6567 -0.2592
   90MOL0     H12095   7.570   8.013   4.145 -0.3237  2.1566  2.6934
   90MOL0     H12096   7.714   8.031   4.237 -1.5099 -3.5341  0.3134
   90MOL0     H12097   7.753   8.253   4.140  1.4510 -1.3492 -0.9541
   90MOL0     H12098   7.611   8.244   4.030  0.5408 -0.4889  0.7280
   90MOL0     H12099   7.463   8.212   4.244 -0.4362  0.4891 -2.5110
   90MOL0     H12100   7.529   8.379   4.203  1.7830  1.4286  2.3290
   90MOL0     H12101   7.779   8.405   4.358 -1.3273  0.2968 -0.9376
   90MOL0     H12102   7.782   8.457   4.724 -1.0010  0.4402  0.5076
   90MOL0     H12103   7.904   8.446   4.593 -0.0892 -3.0986 -0.6777
   90MOL0     H12104   7.780   8.636   4.480 -4.0957 -2.9050 -1.1440
   90MOL0     H12105   7.855   8.661   4.639 -0.4887  0.7952 -0.1538
   90MOL0     H12106   7.647   8.779   4.645  1.3972 -0.2451 -1.0893
   90MOL0     H12107   7.625   8.639   4.747  1.4335  0.8711  0.3104
   90MOL0     H12108   7.428   8.716   4.609 -1.5232  1.6396 -3.7119
   90MOL0     H12109   7.466   8.547   4.606 -1.1332 -0.6405 -3.3499
   90MOL0     H12110   7.310   8.475   4.502 -0.5021 -1.5340 -0.6191
   90MOL0     H12111   7.133   8.360   4.471  5.0300  3.2036  0.6310
   90MOL0     H12112   7.013   8.400   4.341 -2.9471 -2.9555  6.2478
   90MOL0     H12113   7.120   8.267   4.318  0.4615  1.2105 -2.4841
   90MOL0     H12114   7.046   8.162   3.971  1.2846  0.1096 -1.1632
   90MOL0     H12115   6.867   8.062   3.822  0.1843 -0.6966  2.7495
   90MOL0     H12116   6.659   7.999   3.730 -0.1050  0.7049  0.4308
   90MOL0     H12117   6.511   8.050   3.660  0.6089 -1.3112  1.8093
   90MOL0     H12118   6.745   7.999   3.520  4.5584  2.2402  1.7501
   90MOL0     H12119   6.613   8.079   3.460  0.4860 -3.2820  0.4793
   90MOL0     H12120   6.859   8.207   3.592 -1.6845 -0.1302  1.6277
   90MOL0     H12121   6.724   8.295   3.526  1.7430  0.6900 -2.4803
   90MOL0     H12122   6.859   8.109   3.335 -0.2388  0.2999 -0.5281
   90MOL0     H12123   6.752   8.253   3.328  0.0943  0.4135  1.7647
   90MOL0     H12124   6.992   8.302   3.272  0.1769  0.6096  0.6141
   90MOL0     H12125   7.034   8.247   3.441  0.8979  0.7013  0.6293
   90MOL0     H12126   6.874   8.485   3.370 -0.1618 -2.1311 -2.7339
   90MOL0     H12127   6.912   8.427   3.533  2.1064 -4.5184 -0.1489
   90MOL0     H12128   7.088   8.596   3.467  0.5048 -0.9319 -0.1075
   90MOL0     H12129   7.118   8.498   3.325  2.6656  2.7700  0.9587
   90MOL0     H12130   7.295   8.470   3.489  1.0071 -2.6676 -0.8635
   90MOL0     H12131   7.220   8.318   3.462 -0.4606  0.0829 -0.9035
   90MOL0     H12132   6.663   8.439   3.836 -1.6152 -2.3966 -0.7673
   90MOL0     H12133   6.858   8.537   3.968  0.7144 -0.4066  1.4863
   90MOL0     H12134   7.341   8.654   4.050  0.4263  2.4748  1.7648
   90MOL0     H12135   7.517   8.692   4.186  0.1569  0.7843  0.5520
   90MOL0     H12136   8.277   7.853   3.974  2.6712  2.4150  0.5176
   90MOL0     H12137   8.324   8.058   3.889  2.3837 -3.6963  0.0914
   90MOL0     H12138   7.992   8.437   3.550  0.0852  0.0843  2.3726
   90MOL0     H12139   8.058   8.654   3.459 -0.9238 -1.6486 -0.8158
   90MOL0     H12140   8.452   8.645   3.207  2.6036  2.0074 -1.6460
   90MOL0     H12141   8.391   8.807   3.194  0.5673 -0.3960  0.2132
   90MOL0     H12142   8.506   8.723   3.467 -0.8194 -1.0024  0.8706
   90MOL0     H12143   8.478   8.884   3.380 -2.2366 -0.4806  0.6057
   90MOL0     H12144   8.640   8.734   3.220 -0.0098 -1.1809  0.3055
   90MOL0     H12145   8.704   8.703   3.382  1.2679 -0.4598 -2.7089
   90MOL0     H12146   8.656   8.975   3.253  0.8618  0.8583  0.0924
   90MOL0     H12147   8.806   8.899   3.249  1.6515 -1.3854  2.1742
   90MOL0     H12148   8.820   9.061   3.637 -1.6741 -1.0210  1.6988
   90MOL0     H12149   8.462   8.522   3.439  0.3538 -2.4804 -0.3032
   90MOL0     H12150   8.408   8.311   3.548  1.6570  1.3249  0.5361
   91MOL0     O12151   3.152   7.233   5.826 -0.5384  0.3451 -0.1683
   91MOL0     C12152   3.240   7.311   5.801 -0.8263 -0.9124 -0.3676
   91MOL0     O12153   3.333   7.290   5.706  0.3196  0.0753 -0.1718
   91MOL0     C12154   3.313   7.171   5.629  0.5151 -0.5099 -0.6820
   91MOL0     C12155   3.223   7.167   5.522  1.1695 -0.4637  0.2948
   91MOL0     C12156   3.210   7.051   5.444 -0.3797 -0.2638 -0.2453
   91MOL0     C12157   3.280   6.936   5.480 -0.5545 -0.2628 -0.2473
   91MOL0     O12158   3.280   6.808   5.428 -0.2427  0.2698  0.0597
   91MOL0     C12159   3.145   6.763   5.376 -0.3239 -0.0478  0.3505
   91MOL0     C12160   3.158   6.613   5.355 -0.8540 -0.8078 -0.6285
   91MOL0     C12161   3.182   6.529   5.489  0.1310  1.0615  0.7871
   91MOL0     C12162   3.049   6.482   5.542 -0.2957 -0.4684  0.2606
   91MOL0     C12163   3.068   6.387   5.654 -0.1313  0.6214  0.6259
   91MOL0     C12164   2.938   6.341   5.706 -0.0834  0.5342 -0.8178
   91MOL0     C12165   2.957   6.275   5.850 -0.4473 -0.0928  0.2009
   91MOL0     C12166   2.837   6.203   5.913  0.5256 -0.6664  0.5449
   91MOL0     N12167   2.879   6.103   6.019 -0.4459  0.1159 -0.1725
   91MOL0     C12168   2.936   5.980   5.983 -0.9565 -0.3005  0.0252
   91MOL0     C12169   2.948   5.910   6.105  0.4279 -0.3086  0.8267
   91MOL0     C12170   2.983   5.760   6.111  0.3946 -0.0260  1.5199
   91MOL0     C12171   3.089   5.705   6.205 -0.2689  0.0995 -0.2340
   91MOL0     C12172   3.039   5.680   6.348  1.0447  0.0535  1.0955
   91MOL0     C12173   3.145   5.648   6.460  1.1733 -0.0007  0.3764
   91MOL0     O12174   3.266   5.621   6.394 -0.3380 -0.3408 -0.0335
   91MOL0     C12175   3.376   5.673   6.452  0.6482 -0.5607  0.0033
   91MOL0     C12176   3.476   5.712   6.360 -0.0403  0.8997 -0.4441
   91MOL0     C12177   3.594   5.775   6.409 -0.3577  0.2533  0.1487
   91MOL0     C12178   3.691   5.795   6.297 -0.4333  0.8771  0.0311
   91MOL0     C12179   3.617   5.795   6.548 -0.3561  0.3497 -0.6947
   91MOL0     C12180   3.751   5.839   6.594  0.7179  0.2616 -0.4197
   91MOL0     O12181   3.763   5.964   6.647 -0.0545  0.3005 -0.2199
   91MOL0     C12182   3.886   6.013   6.682 -0.2400  0.4308  0.3868
   91MOL0     C12183   4.012   6.001   6.610 -0.2284  1.4182 -0.5613
   91MOL0     C12184   4.120   6.081   6.637  0.2678 -0.2390 -1.0303
   91MOL0     C12185   4.120   6.160   6.754 -0.5936 -0.3201 -1.0051
   91MOL0     O12186   4.226   6.211   6.829 -0.0202  0.5085 -0.0195
   91MOL0     C12187   4.361   6.179   6.796 -0.1236  1.2119  0.8065
   91MOL0     C12188   4.427   6.272   6.706 -0.2140 -0.5740 -0.2067
   91MOL0     C12189   4.446   6.410   6.783  0.1111 -0.6156  1.0594
   91MOL0     C12190   4.468   6.519   6.673 -0.5735 -0.4729 -0.7763
   91MOL0     C12191   4.594   6.496   6.586  0.3475 -0.1964 -0.3367
   91MOL0     C12192   4.590   6.563   6.454 -0.0593  0.2069  0.1645
   91MOL0     C12193   4.648   6.703   6.459 -0.1898 -0.1268 -0.1183
   91MOL0     C12194   4.721   6.739   6.331 -0.0273 -0.4598  0.5032
   91MOL0    Cl12195   4.878   6.648   6.317  0.2450  0.3824  0.2055
   91MOL0     C12196   3.994   6.181   6.821 -0.5175  0.0298 -0.1071
   91MOL0     C12197   3.881   6.099   6.786 -0.1859  0.0681  0.2520
   91MOL0     O12198   3.839   5.753   6.593 -0.3904 -0.1328 -0.9160
   91MOL0     C12199   3.523   5.740   6.635  0.6721  0.4664  0.2730
   91MOL0     C12200   3.393   5.698   6.593 -0.0031  0.2014 -0.5399
   91MOL0     N12201   2.903   6.001   6.207  0.5570 -0.6248  0.1565
   91MOL0     N12202   2.859   6.113   6.153 -0.3682 -0.2308  1.3487
   91MOL0     C12203   3.376   6.946   5.581 -0.2000 -0.4843 -0.3133
   91MOL0     C12204   3.392   7.062   5.651  0.8186 -0.3902  0.1007
   91MOL0     C12205   3.252   7.429   5.886  0.6686  0.0710 -1.2478
   91MOL0     C12206   3.153   7.465   5.982 -0.6006 -0.7238 -0.5451
   91MOL0     C12207   3.164   7.594   6.044  0.1069 -0.2813 -0.6238
   91MOL0     C12208   3.270   7.682   6.021 -0.0837  0.1009  0.5643
   91MOL0     O12209   3.294   7.815   6.063  0.3235 -0.1501 -0.3387
   91MOL0     C12210   3.202   7.844   6.175 -0.3378  1.2127 -0.1819
   91MOL0     C12211   3.234   7.991   6.182  0.1452 -0.0366  0.0602
   91MOL0     C12212   3.160   8.065   6.296  0.3853  0.7401 -0.7849
   91MOL0     C12213   3.187   7.997   6.439  1.1849 -0.4493 -0.1225
   91MOL0     C12214   3.322   7.954   6.487  0.1506  0.2284 -0.5614
   91MOL0     C12215   3.439   7.928   6.533  0.7224 -0.8059  0.1138
   91MOL0     C12216   3.369   7.639   5.936 -0.4177  0.1953 -0.5206
   91MOL0     C12217   3.359   7.515   5.869 -1.0648  0.0437  0.4655
   91MOL0     H12218   3.162   7.246   5.479 -0.6575 -1.4277  1.0039
   91MOL0     H12219   3.131   7.046   5.370 -2.2090 -2.0527  1.6797
   91MOL0     H12220   3.054   6.773   5.436 -1.5771  0.7040 -1.5797
   91MOL0     H12221   3.134   6.808   5.277  1.2088 -2.0645 -0.8313
   91MOL0     H12222   3.077   6.566   5.298 -0.5429 -0.2450 -1.5762
   91MOL0     H12223   3.250   6.607   5.296  0.6904 -1.8646  1.7418
   91MOL0     H12224   3.246   6.443   5.465  1.2832  2.1722 -0.2291
   91MOL0     H12225   3.240   6.574   5.570 -0.8158  0.3781  1.8863
   91MOL0     H12226   2.998   6.564   5.595  0.9693  0.4840  0.0527
   91MOL0     H12227   2.998   6.432   5.459 -1.1346  1.4527 -0.4462
   91MOL0     H12228   3.135   6.312   5.612  0.9967  1.0508  1.6115
   91MOL0     H12229   3.132   6.428   5.733  0.1948  1.9259 -0.2766
   91MOL0     H12230   2.867   6.424   5.713 -2.4360 -1.4874  1.0812
   91MOL0     H12231   2.886   6.280   5.632  0.1663 -0.5794 -0.0969
   91MOL0     H12232   3.041   6.206   5.836  1.0645  1.1430  2.5607
   91MOL0     H12233   2.988   6.355   5.918 -0.0138  1.9523 -2.2352
   91MOL0     H12234   2.772   6.158   5.837 -1.1940  0.4112  1.3008
   91MOL0     H12235   2.778   6.283   5.961 -1.1231 -0.7229 -1.2642
   91MOL0     H12236   2.957   5.953   5.880 -1.7936 -0.4716 -0.1130
   91MOL0     H12237   2.898   5.694   6.131  2.0002 -1.9774  2.3310
   91MOL0     H12238   3.013   5.731   6.010 -0.2267 -0.3047  1.4114
   91MOL0     H12239   3.170   5.779   6.204 -2.0311  2.1823 -2.3643
   91MOL0     H12240   3.123   5.610   6.164 -2.3817 -0.3813 -1.0333
   91MOL0     H12241   2.973   5.593   6.339  2.7177 -1.6661  3.8072
   91MOL0     H12242   2.974   5.766   6.363  0.8902  0.0221  0.6170
   91MOL0     H12243   3.114   5.571   6.531  0.9004  0.5206  0.8279
   91MOL0     H12244   3.160   5.738   6.519  0.6207  2.0254 -2.3677
   91MOL0     H12245   3.455   5.687   6.257 -2.5258 -1.0672  0.4405
   91MOL0     H12246   3.746   5.889   6.305 -1.0243  1.1414  1.1515
   91MOL0     H12247   3.769   5.718   6.292 -0.9856  0.2565  0.7755
   91MOL0     H12248   3.636   5.796   6.203 -1.3415  1.9533  0.5542
   91MOL0     H12249   4.026   5.933   6.526 -0.9481  1.1273 -0.4562
   91MOL0     H12250   4.211   6.065   6.580  0.3555  1.2454 -1.3490
   91MOL0     H12251   4.427   6.181   6.883  0.5119  1.4222  0.3230
   91MOL0     H12252   4.365   6.082   6.746  1.0508  0.4621  2.2875
   91MOL0     H12253   4.528   6.231   6.702  0.7074  1.4443  0.9094
   91MOL0     H12254   4.380   6.286   6.608  0.5552 -1.6095 -0.7369
   91MOL0     H12255   4.523   6.381   6.855  1.4282 -2.0158 -0.8020
   91MOL0     H12256   4.361   6.449   6.841  0.3844  2.7571 -0.6148
   91MOL0     H12257   4.381   6.509   6.607  0.5304 -1.9772 -2.0750
   91MOL0     H12258   4.476   6.611   6.731 -0.0599 -1.0345  0.0724
   91MOL0     H12259   4.593   6.389   6.561  0.1204  0.0401 -1.3913
   91MOL0     H12260   4.691   6.511   6.633 -0.5416 -2.2341  2.3629
   91MOL0     H12261   4.651   6.508   6.382 -2.8529 -3.0140  0.0078
   91MOL0     H12262   4.489   6.574   6.414 -0.0170 -2.0333 -0.7114
   91MOL0     H12263   4.714   6.715   6.545 -3.0653 -0.5571  2.3022
   91MOL0     H12264   4.556   6.762   6.466 -0.0775  0.0969 -0.4823
   91MOL0     H12265   4.754   6.843   6.331  2.8169 -1.2591  1.1983
   91MOL0     H12266   4.653   6.731   6.246  1.6672  2.8156 -1.3714
   91MOL0     H12267   3.998   6.254   6.901  0.0023  0.2514 -0.3300
   91MOL0     H12268   3.786   6.108   6.838 -1.0483  1.5523 -1.4638
   91MOL0     H12269   3.552   5.745   6.739  0.6482  2.1093  0.2236
   91MOL0     H12270   3.316   5.664   6.662 -1.3098  1.6543 -1.1991
   91MOL0     H12271   3.436   6.858   5.603  0.1066  0.2370  1.9104
   91MOL0     H12272   3.458   7.064   5.738 -2.1373  2.4624  2.5780
   91MOL0     H12273   3.061   7.407   5.980 -1.4288  0.5023  0.3186
   91MOL0     H12274   3.091   7.621   6.120 -0.8792 -2.5349 -0.6755
   91MOL0     H12275   3.096   7.831   6.155 -0.0979 -0.5650 -0.5640
   91MOL0     H12276   3.248   7.790   6.259  0.4394 -1.1254 -2.0028
   91MOL0     H12277   3.198   8.037   6.089  2.0633 -0.9982 -1.2175
   91MOL0     H12278   3.342   8.002   6.191  0.0507 -0.1529  1.6070
   91MOL0     H12279   3.053   8.057   6.277  0.1007 -1.2892  1.2433
   91MOL0     H12280   3.196   8.168   6.300 -0.4281  1.0133 -0.2469
   91MOL0     H12281   3.118   7.912   6.434 -0.7644  1.1009 -0.7285
   91MOL0     H12282   3.164   8.069   6.518  0.3462  1.4342 -2.0028
   91MOL0     H12283   3.537   7.907   6.571  3.2559 -0.8141 -5.4984
   91MOL0     H12284   3.461   7.696   5.931 -0.2085  0.5909  4.0835
   91MOL0     H12285   3.435   7.501   5.792 -1.6143  3.6177 -0.9142
   92MOL0     O12286   3.875   2.228  11.439 -0.4484  0.3488  0.5071
   92MOL0     C12287   3.830   2.118  11.411 -0.0326 -0.4883  0.3195
   92MOL0     O12288   3.910   2.009  11.394 -0.6219  0.1191 -0.2237
   92MOL0     C12289   4.045   1.998  11.420  0.4858  0.5843  0.9140
   92MOL0     C12290   4.120   2.072  11.515  0.2014  0.7005  0.2295
   92MOL0     C12291   4.256   2.050  11.535 -0.8054  0.3038  0.9295
   92MOL0     C12292   4.325   1.947  11.464 -0.0689  0.3977  0.9650
   92MOL0     O12293   4.460   1.931  11.496 -0.1356  0.4258 -0.2124
   92MOL0     C12294   4.514   1.798  11.490 -0.0919  0.0359 -0.6000
   92MOL0     C12295   4.661   1.806  11.450  0.6604  0.7170  0.4384
   92MOL0     C12296   4.676   1.833  11.298  0.9054  0.4485 -0.2063
   92MOL0     C12297   4.700   1.970  11.274 -0.5892 -0.8025  0.0044
   92MOL0     C12298   4.658   2.013  11.135 -0.5734  0.0490  0.8454
   92MOL0     C12299   4.516   2.072  11.134  0.1912  1.0052 -0.8598
   92MOL0     C12300   4.456   2.100  10.997  0.7356  0.1013  0.9016
   92MOL0     C12301   4.305   2.131  11.013 -0.0591  0.3025 -0.7456
   92MOL0     N12302   4.276   2.256  11.077 -0.2567  0.2688 -0.0817
   92MOL0     C12303   4.243   2.279  11.210 -0.6497  0.8301  0.8713
   92MOL0     C12304   4.204   2.409  11.212  0.1128  0.6517  0.2035
   92MOL0     C12305   4.128   2.475  11.323 -0.5287  1.2085  0.3781
   92MOL0     C12306   4.201   2.558  11.427  0.0490 -0.4582 -0.1524
   92MOL0     C12307   4.311   2.474  11.494  0.7889  0.2519  0.2726
   92MOL0     C12308   4.399   2.543  11.602 -0.6323 -0.4594  0.8598
   92MOL0     O12309   4.525   2.589  11.547  0.3254  0.3750  0.0940
   92MOL0     C12310   4.523   2.722  11.511 -0.1853  0.6202 -0.1598
   92MOL0     C12311   4.568   2.811  11.608  0.1862  0.3242  0.4880
   92MOL0     C12312   4.574   2.947  11.572  0.2641  0.0088 -0.3098
   92MOL0     C12313   4.641   3.031  11.678 -0.3948 -0.3429  0.5385
   92MOL0     C12314   4.544   2.989  11.439 -0.2073 -0.0541  0.9295
   92MOL0     C12315   4.577   3.133  11.395  0.2516 -0.0947  0.1005
   92MOL0     O12316   4.555   3.171  11.262  0.2827  0.0694  0.3379
   92MOL0     C12317   4.569   3.300  11.213  0.7189  0.3930 -0.3299
   92MOL0     C12318   4.464   3.354  11.135  0.5066 -0.6126 -0.3198
   92MOL0     C12319   4.480   3.482  11.078 -0.7823  0.0145 -0.2303
   92MOL0     C12320   4.596   3.551  11.103 -0.9967 -0.6370  0.4890
   92MOL0     O12321   4.588   3.680  11.050 -0.5531  0.1086 -0.9799
   92MOL0     C12322   4.706   3.770  11.049  0.8567 -0.4223  0.2225
   92MOL0     C12323   4.825   3.724  10.953  0.1569 -0.0379  0.2469
   92MOL0     C12324   4.920   3.845  10.913 -0.0429 -0.3544  0.0263
   92MOL0     C12325   5.059   3.794  10.891  0.0484  0.1450  0.3832
   92MOL0     C12326   5.158   3.921  10.899 -0.7439  0.3444 -0.4629
   92MOL0     C12327   5.130   4.025  10.791 -0.1248  0.2367 -0.3238
   92MOL0     C12328   5.234   4.132  10.810 -0.3180  0.0165  0.2981
   92MOL0     C12329   5.229   4.239  10.699  0.2734  0.3415 -0.2244
   92MOL0    Cl12330   5.101   4.362  10.741 -0.1939  0.5200  0.3609
   92MOL0     C12331   4.704   3.496  11.169  0.9276  0.3077 -0.7475
   92MOL0     C12332   4.691   3.368  11.228 -0.1629  0.0706 -0.3307
   92MOL0     O12333   4.610   3.214  11.482 -0.4149  1.0849 -0.1811
   92MOL0     C12334   4.481   2.896  11.357 -0.2241 -0.0927 -0.4784
   92MOL0     C12335   4.476   2.759  11.388  0.9708  0.3056  0.1206
   92MOL0     N12336   4.210   2.460  11.084  0.4096 -0.7114  0.7277
   92MOL0     N12337   4.244   2.363  11.003  0.1080  0.0697 -0.2507
   92MOL0     C12338   4.250   1.880  11.366  0.4489 -0.6220  0.0560
   92MOL0     C12339   4.117   1.904  11.336  0.4493 -0.7041  0.0300
   92MOL0     C12340   3.690   2.105  11.400  0.0694 -0.1703 -0.2944
   92MOL0     C12341   3.601   2.174  11.486 -0.1833 -1.4577  0.7899
   92MOL0     C12342   3.470   2.159  11.481  0.0172 -0.6864 -0.1509
   92MOL0     C12343   3.418   2.066  11.392  0.7958 -0.0341 -0.1447
   92MOL0     O12344   3.283   2.044  11.384 -0.4025  0.6712  0.7181
   92MOL0     C12345   3.187   2.141  11.426  0.1873  0.0994  0.0129
   92MOL0     C12346   3.120   2.094  11.559 -1.1553  0.4792  0.2035
   92MOL0     C12347   2.979   2.152  11.595  0.0942 -0.2319 -0.1569
   92MOL0     C12348   3.004   2.258  11.709 -0.2769 -0.3606 -0.5550
   92MOL0     C12349   3.051   2.381  11.632  0.4356  0.7232 -0.6855
   92MOL0     C12350   3.097   2.480  11.580  0.5709 -0.1199 -0.6632
   92MOL0     C12351   3.498   1.992  11.313 -1.2207 -0.2202 -0.0178
   92MOL0     C12352   3.637   2.005  11.315  0.1208 -0.4189 -0.1115
   92MOL0     H12353   4.072   2.153  11.569  0.3459  3.2685 -3.2009
   92MOL0     H12354   4.301   2.116  11.609 -0.0289 -0.9902  1.6387
   92MOL0     H12355   4.518   1.762  11.593  3.4252  4.8848  1.3006
   92MOL0     H12356   4.453   1.732  11.427 -1.0981  2.4649 -2.2893
   92MOL0     H12357   4.717   1.883  11.504  0.1126  2.4545 -1.3517
   92MOL0     H12358   4.724   1.720  11.475  2.2114  0.9871 -2.2095
   92MOL0     H12359   4.762   1.783  11.254  1.3627  3.2421 -2.8789
   92MOL0     H12360   4.588   1.791  11.248  1.1779 -1.9085  1.1426
   92MOL0     H12361   4.655   2.035  11.350  5.5015 -0.0616  3.6817
   92MOL0     H12362   4.805   1.999  11.284 -1.0854  0.7686  1.0783
   92MOL0     H12363   4.734   2.085  11.104  1.9572 -2.9120 -0.4248
   92MOL0     H12364   4.672   1.933  11.062 -0.5443  1.1371 -0.3747
   92MOL0     H12365   4.446   2.006  11.184  1.1594  1.5844  1.3966
   92MOL0     H12366   4.515   2.167  11.188  0.1793  0.4121  0.2104
   92MOL0     H12367   4.507   2.186  10.952  2.3814 -0.2880  1.9250
   92MOL0     H12368   4.475   2.012  10.934 -3.0937  1.1102 -2.0438
   92MOL0     H12369   4.270   2.052  11.079  2.7426  0.4686  1.1067
   92MOL0     H12370   4.264   2.126  10.911  1.6336  0.7616 -1.4959
   92MOL0     H12371   4.230   2.209  11.291  0.9263 -0.1448  0.3254
   92MOL0     H12372   4.040   2.525  11.280 -1.0713 -0.3594 -0.3823
   92MOL0     H12373   4.086   2.388  11.374 -0.2993  0.8204 -0.0939
   92MOL0     H12374   4.145   2.590  11.516  0.3746 -0.6264  0.1141
   92MOL0     H12375   4.239   2.654  11.390 -0.6968  0.4617  1.3727
   92MOL0     H12376   4.373   2.436  11.412 -2.3295 -1.8681 -1.3267
   92MOL0     H12377   4.253   2.392  11.538 -2.0613  0.6642 -2.3503
   92MOL0     H12378   4.411   2.481  11.691  2.3465 -2.5718 -0.8225
   92MOL0     H12379   4.349   2.634  11.635 -1.7375 -0.5253 -0.5248
   92MOL0     H12380   4.601   2.785  11.708 -1.7588  2.8315  1.9021
   92MOL0     H12381   4.671   2.981  11.770  1.8278 -0.0915  0.0020
   92MOL0     H12382   4.737   3.067  11.639 -0.3961  0.8669  1.5619
   92MOL0     H12383   4.571   3.108  11.713  0.2394  1.9202 -2.6235
   92MOL0     H12384   4.374   3.296  11.119 -1.1208  1.4681  0.8285
   92MOL0     H12385   4.393   3.527  11.030 -1.7342  0.4114  1.7367
   92MOL0     H12386   4.672   3.869  11.018  2.5849  0.2630  0.3592
   92MOL0     H12387   4.745   3.794  11.148  0.0764  1.0078  0.1976
   92MOL0     H12388   4.868   3.646  11.017 -0.4479 -0.7464 -0.2019
   92MOL0     H12389   4.792   3.682  10.858 -2.4015 -1.3405  1.6013
   92MOL0     H12390   4.920   3.913  10.998  0.7496  0.7143 -0.8133
   92MOL0     H12391   4.879   3.891  10.823  1.0503  2.7287  0.9658
   92MOL0     H12392   5.077   3.727  10.976  0.6536  2.7442  2.4354
   92MOL0     H12393   5.064   3.740  10.796 -3.1969 -0.8318  0.6522
   92MOL0     H12394   5.264   3.895  10.897 -1.3995 -3.2155  1.4192
   92MOL0     H12395   5.146   3.971  10.996  1.1486  1.1948 -0.6226
   92MOL0     H12396   5.129   3.979  10.692  1.3031 -1.6657  0.4838
   92MOL0     H12397   5.026   4.059  10.797 -0.2086  0.5383 -2.6025
   92MOL0     H12398   5.334   4.098  10.784  0.4774  2.7268 -0.6078
   92MOL0     H12399   5.244   4.181  10.907  1.5939  3.2908 -1.3416
   92MOL0     H12400   5.215   4.182  10.607  2.3289 -0.0712 -0.3312
   92MOL0     H12401   5.330   4.280  10.693  0.3220  0.5271  1.4822
   92MOL0     H12402   4.791   3.559  11.181  1.9070 -1.0653 -0.4169
   92MOL0     H12403   4.779   3.325  11.273  2.1379  2.6535 -2.0554
   92MOL0     H12404   4.442   2.925  11.260 -0.5308 -0.0969 -0.3575
   92MOL0     H12405   4.438   2.685  11.317  1.2110  1.2898 -1.0607
   92MOL0     H12406   4.306   1.803  11.314 -0.0899 -0.9871  0.0074
   92MOL0     H12407   4.067   1.850  11.257 -1.6523  0.8454  0.2154
   92MOL0     H12408   3.641   2.259  11.539 -1.4338 -0.4697  0.1980
   92MOL0     H12409   3.404   2.220  11.541 -0.4459  0.8824 -2.1102
   92MOL0     H12410   3.229   2.242  11.433  0.1103  0.1045  0.4429
   92MOL0     H12411   3.117   2.152  11.343  1.2486 -0.1082 -0.9386
   92MOL0     H12412   3.188   2.103  11.644 -2.1579 -1.2533  1.2474
   92MOL0     H12413   3.117   1.985  11.561  0.1694  0.2634 -3.0562
   92MOL0     H12414   2.923   2.075  11.648 -0.7547 -0.1768 -0.9601
   92MOL0     H12415   2.920   2.180  11.508  0.3136 -0.4979 -0.3920
   92MOL0     H12416   3.074   2.226  11.786  2.0786  1.1947 -1.9369
   92MOL0     H12417   2.906   2.281  11.752 -0.0119  0.6418 -0.4608
   92MOL0     H12418   3.155   2.547  11.520 -0.5193  1.1425 -0.3609
   92MOL0     H12419   3.447   1.932  11.238  0.3234  1.7526 -2.8283
   92MOL0     H12420   3.702   1.943  11.253  2.6621  0.6714  1.3068
   93MOL0     O12421   1.727  10.265  10.555  1.0492 -0.1709  0.5494
   93MOL0     C12422   1.609  10.303  10.566 -0.3600  1.3285  0.1913
   93MOL0     O12423   1.554  10.371  10.664  0.7916  0.6547  0.0722
   93MOL0     C12424   1.627  10.398  10.773 -0.5389  0.1882  0.0815
   93MOL0     C12425   1.692  10.303  10.850  0.3070  0.2487  0.2809
   93MOL0     C12426   1.764  10.331  10.961  0.1583 -0.1680  0.7652
   93MOL0     C12427   1.780  10.467  10.992 -0.0291  0.0261  0.1647
   93MOL0     O12428   1.865  10.516  11.093  0.2006  0.0037  0.1484
   93MOL0     C12429   1.957  10.411  11.143  0.4648  0.5133 -0.5808
   93MOL0     C12430   2.060  10.468  11.234 -1.1872 -0.3025 -0.2660
   93MOL0     C12431   2.162  10.362  11.271  0.7775  0.4344  0.2881
   93MOL0     C12432   2.291  10.427  11.326 -0.3940 -0.0197 -0.8160
   93MOL0     C12433   2.391  10.322  11.372  0.1189  0.0810  0.3172
   93MOL0     C12434   2.451  10.244  11.256 -0.2488  0.0779  0.0544
   93MOL0     C12435   2.562  10.158  11.324  0.6538  0.3217 -0.0860
   93MOL0     C12436   2.632  10.075  11.206  0.7238  0.3346  0.2002
   93MOL0     N12437   2.688  10.153  11.090  0.7151  0.0929  0.1314
   93MOL0     C12438   2.636  10.163  10.966  0.3264 -0.0990 -0.2555
   93MOL0     C12439   2.713  10.253  10.909  0.5346 -0.2367  0.3909
   93MOL0     C12440   2.718  10.294  10.763 -0.5414 -0.0120 -0.3570
   93MOL0     C12441   2.595  10.262  10.684 -0.0027  0.0381 -0.7066
   93MOL0     C12442   2.598  10.304  10.539 -0.0683 -1.2097 -0.3062
   93MOL0     C12443   2.567  10.459  10.516  0.4161  0.8894  0.7952
   93MOL0     O12444   2.684  10.532  10.512 -0.0366 -0.7297 -0.2416
   93MOL0     C12445   2.681  10.673  10.539  0.1417  0.8218  0.4279
   93MOL0     C12446   2.562  10.757  10.525 -0.5314  0.4421  0.7654
   93MOL0     C12447   2.572  10.894  10.535  0.2823  0.5449 -0.8029
   93MOL0     C12448   2.432  10.961  10.530  0.5916  0.7483 -0.7652
   93MOL0     C12449   2.697  10.952  10.585  0.1787  0.1032  0.7916
   93MOL0     C12450   2.726  11.098  10.595 -0.1057 -0.1680 -0.1819
   93MOL0     O12451   2.840  11.127  10.662 -0.6931  0.2019  1.3291
   93MOL0     C12452   2.882  11.256  10.651 -0.0475  0.0259 -0.3335
   93MOL0     C12453   2.933  11.310  10.536 -0.2499 -0.4992 -0.1627
   93MOL0     C12454   2.973  11.445  10.532  0.3340 -0.3558 -0.6438
   93MOL0     C12455   2.977  11.520  10.651 -0.6892  0.8289 -0.5267
   93MOL0     O12456   3.036  11.644  10.654  0.3981 -0.1565  0.5990
   93MOL0     C12457   3.125  11.674  10.762 -0.0539  1.2750  0.0699
   93MOL0     C12458   3.259  11.679  10.697  0.0276 -0.2226 -0.3344
   93MOL0     C12459   3.268  11.812  10.630  0.8529  0.1865  0.8564
   93MOL0     C12460   3.413  11.851  10.580 -0.6942  0.1600 -1.0083
   93MOL0     C12461   3.409  12.003  10.562  0.5113 -0.0839 -0.7155
   93MOL0     C12462   3.313  12.059  10.452  0.6435 -0.0891 -0.2688
   93MOL0     C12463   3.378  12.155  10.354 -0.6122  0.3857  0.2430
   93MOL0     C12464   3.292  12.203  10.241 -0.1909  0.1932 -0.4808
   93MOL0    Cl12465   3.181  12.322  10.312  0.2985  0.1378  0.4625
   93MOL0     C12466   2.922  11.463  10.766  1.1666  0.5731  0.7771
   93MOL0     C12467   2.872  11.326  10.770 -0.9479  0.0015  0.2206
   93MOL0     O12468   2.658  11.175  10.528  0.4699  0.0479 -0.7983
   93MOL0     C12469   2.801  10.863  10.603 -0.1066 -1.0046  0.2601
   93MOL0     C12470   2.797  10.731  10.587  0.4080  0.4961  0.3910
   93MOL0     N12471   2.799  10.297  11.001  0.0561 -0.6258 -0.3326
   93MOL0     N12472   2.788  10.239  11.109  0.1821 -0.3003 -0.7037
   93MOL0     C12473   1.708  10.567  10.919  0.2824  0.3691 -0.3201
   93MOL0     C12474   1.645  10.534  10.803 -0.0875  0.2047 -1.0423
   93MOL0     C12475   1.518  10.261  10.455  0.6461 -0.6021 -0.6590
   93MOL0     C12476   1.414  10.339  10.423  0.0593 -0.4107 -0.2576
   93MOL0     C12477   1.320  10.311  10.325 -1.0994 -0.1192  0.6894
   93MOL0     C12478   1.337  10.195  10.245 -0.1053  0.0904  0.5345
   93MOL0     O12479   1.245  10.157  10.154  0.5300  0.1817  0.8411
   93MOL0     C12480   1.175  10.254  10.068  0.3641 -0.0345 -0.7475
   93MOL0     C12481   1.032  10.204  10.047 -0.1460 -0.2052 -0.0939
   93MOL0     C12482   1.013  10.109   9.926  0.6884  0.3706 -0.2074
   93MOL0     C12483   1.064   9.966   9.946 -0.1155 -0.6224 -0.3179
   93MOL0     C12484   1.040   9.869   9.839  0.5592 -0.1884  0.0860
   93MOL0     C12485   1.013   9.780   9.759 -0.5228 -0.4812  0.0120
   93MOL0     C12486   1.439  10.113  10.287  0.6398 -0.4403  0.0210
   93MOL0     C12487   1.526  10.143  10.393  0.7316  0.2177 -0.2006
   93MOL0     H12488   1.681  10.197  10.829 -0.1476  0.3264  0.1159
   93MOL0     H12489   1.801  10.240  11.008 -0.2174 -1.0970 -0.6592
   93MOL0     H12490   1.900  10.338  11.201 -1.5498  3.2593  1.0897
   93MOL0     H12491   2.015  10.365  11.062  0.9709  0.3616 -0.1369
   93MOL0     H12492   2.115  10.545  11.180  2.9146 -2.2644  0.7773
   93MOL0     H12493   2.013  10.501  11.327  1.4411 -0.3504  1.1633
   93MOL0     H12494   2.107  10.292  11.334 -1.2478  0.5461 -1.2383
   93MOL0     H12495   2.182  10.318  11.172 -0.1764  3.5743 -1.4540
   93MOL0     H12496   2.343  10.497  11.260  1.8949 -1.1763 -0.3379
   93MOL0     H12497   2.262  10.483  11.415  2.4897 -0.8393  0.7559
   93MOL0     H12498   2.474  10.374  11.421  0.4247 -0.3226  0.2285
   93MOL0     H12499   2.355  10.254  11.449  1.0950 -2.3070 -1.2387
   93MOL0     H12500   2.377  10.172  11.220  0.9955 -1.6846  0.8439
   93MOL0     H12501   2.490  10.302  11.173 -0.0483 -0.7163 -0.4168
   93MOL0     H12502   2.632  10.224  11.375 -0.1149 -0.6240  2.3525
   93MOL0     H12503   2.518  10.094  11.401  0.2883  1.7241  0.9041
   93MOL0     H12504   2.558  10.000  11.179  1.4439 -0.5687  0.6686
   93MOL0     H12505   2.717  10.024  11.254  0.2095 -0.5800  0.1567
   93MOL0     H12506   2.544  10.119  10.930  0.4556  0.4565 -1.3026
   93MOL0     H12507   2.723  10.403  10.769  0.1536  0.1594 -2.8884
   93MOL0     H12508   2.808  10.260  10.710  0.1128  0.5463  0.3690
   93MOL0     H12509   2.498  10.297  10.722  0.5590 -0.7793  1.6603
   93MOL0     H12510   2.586  10.153  10.685 -0.7137  0.0600  2.1202
   93MOL0     H12511   2.520  10.258  10.477  0.3267 -1.8609 -0.3271
   93MOL0     H12512   2.692  10.281  10.489  0.8386  0.3961  0.5823
   93MOL0     H12513   2.502  10.499  10.594  2.4925  0.9620  2.5906
   93MOL0     H12514   2.509  10.463  10.423  0.2299 -0.9052  0.7909
   93MOL0     H12515   2.466  10.707  10.516 -0.0484 -0.3031 -0.4348
   93MOL0     H12516   2.363  10.920  10.604 -0.3839 -2.5036 -3.1837
   93MOL0     H12517   2.437  11.068  10.549  0.6070  0.2291  2.6351
   93MOL0     H12518   2.387  10.947  10.431 -2.1966  0.0925  0.5095
   93MOL0     H12519   2.934  11.236  10.456 -0.0500  0.1218 -0.7485
   93MOL0     H12520   3.015  11.491  10.443 -0.5393 -2.6242 -2.3484
   93MOL0     H12521   3.094  11.765  10.813 -4.0707  0.8928 -1.3095
   93MOL0     H12522   3.128  11.590  10.833  0.3511 -0.1656 -1.5783
   93MOL0     H12523   3.336  11.676  10.774  0.9772  1.8660 -1.1236
   93MOL0     H12524   3.264  11.592  10.631  1.9860 -1.2267  1.0358
   93MOL0     H12525   3.221  11.885  10.697 -1.5840 -0.5333  0.0308
   93MOL0     H12526   3.201  11.814  10.543  1.9320  1.8651 -0.0014
   93MOL0     H12527   3.479  11.834  10.665 -2.5180 -1.3462  0.1961
   93MOL0     H12528   3.430  11.785  10.494 -3.4194 -0.4131 -1.1943
   93MOL0     H12529   3.513  12.034  10.547 -0.3808  2.9053 -1.3245
   93MOL0     H12530   3.372  12.051  10.652  0.0721 -1.8705  0.1038
   93MOL0     H12531   3.268  11.970  10.406  2.6077 -1.6420  0.6672
   93MOL0     H12532   3.229  12.110  10.499 -1.2448 -1.7486 -1.6244
   93MOL0     H12533   3.455  12.092  10.308 -1.9575  0.2059 -1.8830
   93MOL0     H12534   3.430  12.239  10.401 -0.4183  1.3977 -1.7219
   93MOL0     H12535   3.240  12.122  10.188  2.7291 -3.0793  1.2562
   93MOL0     H12536   3.365  12.247  10.173  1.7631  0.3754  1.6262
   93MOL0     H12537   2.929  11.510  10.864 -0.1866 -2.2349  2.3447
   93MOL0     H12538   2.848  11.276  10.863  1.6517 -1.1054  0.4082
   93MOL0     H12539   2.906  10.890  10.614 -0.9201  2.5323  0.5126
   93MOL0     H12540   2.885  10.674  10.614 -0.2308 -0.5485  0.3231
   93MOL0     H12541   1.703  10.671  10.950  1.3079  0.3807 -0.1622
   93MOL0     H12542   1.597  10.607  10.738 -1.9370 -0.2163 -0.2118
   93MOL0     H12543   1.416  10.435  10.474  1.9704  0.5873 -2.0416
   93MOL0     H12544   1.243  10.386  10.307 -0.3372  0.2073 -1.4026
   93MOL0     H12545   1.159  10.350  10.118  0.5350 -1.7659  2.9683
   93MOL0     H12546   1.235  10.268   9.977  0.4101  1.5360 -0.5038
   93MOL0     H12547   0.967  10.288  10.020  1.1550  1.1287  0.8426
   93MOL0     H12548   0.986  10.160  10.136 -0.9456  1.9847  0.6397
   93MOL0     H12549   1.079  10.145   9.846  2.4031 -3.6397 -0.8611
   93MOL0     H12550   0.907  10.108   9.900  0.1143 -2.8104  1.7504
   93MOL0     H12551   1.020   9.927  10.039  0.6550  0.9828  0.7599
   93MOL0     H12552   1.173   9.968   9.954  0.0539  1.2158 -2.3106
   93MOL0     H12553   0.992   9.698   9.693 -0.2749 -0.0417 -0.6213
   93MOL0     H12554   1.449  10.013  10.245 -2.2526 -1.0758  0.6487
   93MOL0     H12555   1.609  10.081  10.427 -0.5936 -1.5067  0.0370
   94MOL0     O12556   2.068   0.438   4.403 -0.7306  0.2021 -0.1326
   94MOL0     C12557   2.030   0.381   4.512  1.2078  0.0859 -0.4829
   94MOL0     O12558   1.892   0.354   4.542  0.3136  0.0179 -0.1411
   94MOL0     C12559   1.806   0.380   4.444  0.1572 -0.0263  0.3124
   94MOL0     C12560   1.745   0.272   4.374 -0.0765 -0.1580  0.3613
   94MOL0     C12561   1.641   0.311   4.280  0.0005  1.4278  0.3928
   94MOL0     C12562   1.600   0.442   4.261 -0.0611 -0.1825  0.6358
   94MOL0     O12563   1.498   0.462   4.177  0.6421 -0.1710 -0.3798
   94MOL0     C12564   1.469   0.594   4.116  1.0457  0.1129 -0.4830
   94MOL0     C12565   1.560   0.612   3.993  0.1237 -1.2777 -0.6143
   94MOL0     C12566   1.534   0.533   3.864  0.4832  0.7422  0.5753
   94MOL0     C12567   1.395   0.551   3.798  0.0629  0.4271  0.2950
   94MOL0     C12568   1.391   0.463   3.663  0.1415  0.4214 -0.0341
   94MOL0     C12569   1.279   0.512   3.575 -0.2496 -0.5036  0.3230
   94MOL0     C12570   1.283   0.429   3.447 -0.1814  0.0416 -0.2299
   94MOL0     C12571   1.171   0.486   3.348 -0.1086 -0.6890 -0.0721
   94MOL0     N12572   1.036   0.455   3.387 -0.6964 -0.2831 -0.0494
   94MOL0     C12573   0.978   0.330   3.371  0.1988  0.4081 -0.6114
   94MOL0     C12574   0.848   0.347   3.398 -0.0655 -0.1441  0.9551
   94MOL0     C12575   0.729   0.250   3.384  0.5524  0.1358  0.3922
   94MOL0     C12576   0.689   0.182   3.513  0.1818 -0.4303 -0.6163
   94MOL0     C12577   0.577   0.072   3.517  0.7574 -0.0406  0.8049
   94MOL0     C12578   0.448   0.128   3.458  0.2383  0.5335  0.1153
   94MOL0     O12579   0.352   0.049   3.523 -0.2488  0.0418 -0.0385
   94MOL0     C12580   0.225   0.093   3.509  0.2525  0.5031 -0.0052
   94MOL0     C12581   0.186   0.207   3.439 -0.3283 -0.3100 -0.9461
   94MOL0     C12582   0.056   0.261   3.433 -0.1658 -0.7327 -0.3778
   94MOL0     C12583   0.017   0.369   3.335  0.6668  0.1828 -0.4982
   94MOL0     C12584  -0.035   0.200   3.525  0.2507 -0.4942  0.0677
   94MOL0     C12585  -0.174   0.249   3.548 -0.1330 -0.7939  0.7633
   94MOL0     O12586  -0.199   0.382   3.542 -0.4382 -0.1830 -0.0614
   94MOL0     C12587  -0.331   0.412   3.554 -1.1125 -0.4349  1.7001
   94MOL0     C12588  -0.411   0.407   3.440 -0.6280  0.5444 -0.9074
   94MOL0     C12589  -0.538   0.467   3.457 -0.5491 -0.0177  0.8059
   94MOL0     C12590  -0.582   0.524   3.576  0.1488 -0.3883 -0.4630
   94MOL0     O12591  -0.707   0.578   3.595 -0.3291  0.2051 -0.4403
   94MOL0     C12592  -0.787   0.586   3.480  0.3339  0.3107  0.2720
   94MOL0     C12593  -0.926   0.627   3.525  0.4978 -1.0732  1.3077
   94MOL0     C12594  -0.954   0.768   3.555  0.1350 -1.0246 -0.0909
   94MOL0     C12595  -0.900   0.830   3.686  0.2093 -0.9369  0.2403
   94MOL0     C12596  -0.931   0.981   3.680  0.3027  0.4922 -0.6660
   94MOL0     C12597  -0.856   1.036   3.800  0.3036 -0.6016 -0.1299
   94MOL0     C12598  -0.859   1.188   3.794 -0.1116  0.2261  0.1974
   94MOL0     C12599  -0.794   1.252   3.918  0.1875 -0.7461 -0.6756
   94MOL0    Cl12600  -0.814   1.427   3.909 -0.0085  0.0920  0.0229
   94MOL0     C12601  -0.489   0.536   3.681 -0.1302 -0.5897 -0.6648
   94MOL0     C12602  -0.366   0.476   3.671 -0.4273 -0.3301 -0.4874
   94MOL0     O12603  -0.256   0.160   3.568  0.3964  0.4947 -0.1842
   94MOL0     C12604   0.000   0.083   3.599 -0.0973 -0.5023 -0.4766
   94MOL0     C12605   0.126   0.032   3.589  0.1411 -0.0924 -0.8260
   94MOL0     N12606   0.835   0.477   3.447  0.5656 -0.4246 -0.1717
   94MOL0     N12607   0.943   0.545   3.426 -0.1798  0.3569 -0.3604
   94MOL0     C12608   1.671   0.545   4.327  0.5138 -0.2593  0.9515
   94MOL0     C12609   1.780   0.508   4.413 -0.1584 -0.5802  0.6176
   94MOL0     C12610   2.129   0.349   4.614  0.3655  0.6476  0.6496
   94MOL0     C12611   2.253   0.414   4.608 -0.8046  1.5187  0.5546
   94MOL0     C12612   2.348   0.394   4.704 -0.1835  0.5091  0.6660
   94MOL0     C12613   2.334   0.291   4.793  0.1540 -0.3785 -0.0059
   94MOL0     O12614   2.444   0.271   4.877  0.5477 -0.0212  0.5298
   94MOL0     C12615   2.436   0.199   4.998 -0.7514 -0.0513 -1.0007
   94MOL0     C12616   2.512   0.270   5.109  0.5979 -0.2739 -0.0103
   94MOL0     C12617   2.659   0.293   5.070  0.1842 -0.2642  0.0272
   94MOL0     C12618   2.753   0.272   5.198 -0.2366 -0.6477 -0.9643
   94MOL0     C12619   2.830   0.146   5.200 -0.9489  0.2816 -0.3350
   94MOL0     C12620   2.897   0.052   5.236  1.0501 -0.3208  0.0442
   94MOL0     C12621   2.219   0.225   4.794 -0.9036  0.1029  0.1174
   94MOL0     C12622   2.113   0.246   4.710 -0.6351  0.7435  0.2227
   94MOL0     H12623   1.777   0.170   4.393  0.4844 -0.3704 -1.5635
   94MOL0     H12624   1.591   0.231   4.227 -0.1336 -0.1667  2.7836
   94MOL0     H12625   1.366   0.584   4.081  0.9810 -1.8002  0.1592
   94MOL0     H12626   1.461   0.683   4.180 -2.8025  0.2422 -0.9213
   94MOL0     H12627   1.550   0.717   3.963  0.8487 -0.6875  1.0970
   94MOL0     H12628   1.663   0.601   4.027  1.0341 -2.3371 -3.4245
   94MOL0     H12629   1.615   0.571   3.801 -0.8722  0.8305 -1.2046
   94MOL0     H12630   1.547   0.432   3.904 -0.4808 -0.3739 -1.7444
   94MOL0     H12631   1.325   0.504   3.867  0.2751 -1.1722 -0.5380
   94MOL0     H12632   1.379   0.659   3.787 -2.1161  0.1178  0.0096
   94MOL0     H12633   1.486   0.485   3.612  1.4423 -1.3945  1.4778
   94MOL0     H12634   1.375   0.355   3.668  1.0650  0.1302 -2.0249
   94MOL0     H12635   1.189   0.509   3.636  0.3928  1.8510  1.4773
   94MOL0     H12636   1.295   0.617   3.552 -0.5740 -0.5965 -0.3431
   94MOL0     H12637   1.379   0.444   3.397 -1.4709 -0.5626 -3.0931
   94MOL0     H12638   1.254   0.325   3.463  1.1536 -0.2920  0.1851
   94MOL0     H12639   1.168   0.426   3.257 -2.5728  0.0787 -0.5611
   94MOL0     H12640   1.192   0.591   3.326  1.1233 -0.4183  2.1261
   94MOL0     H12641   1.021   0.233   3.347 -2.3925 -1.1497  0.5859
   94MOL0     H12642   0.641   0.313   3.369 -0.0310 -0.7490  0.0091
   94MOL0     H12643   0.744   0.180   3.301 -1.6605  1.0540 -0.8701
   94MOL0     H12644   0.645   0.268   3.563 -2.0518 -0.5099 -2.2957
   94MOL0     H12645   0.769   0.142   3.576  0.5031 -0.5657 -1.1045
   94MOL0     H12646   0.574   0.038   3.621  1.5487 -1.1256  0.4950
   94MOL0     H12647   0.618  -0.005   3.451  1.9904 -1.8773  3.5163
   94MOL0     H12648   0.449   0.112   3.350  0.3239 -1.6641  0.3802
   94MOL0     H12649   0.441   0.233   3.485 -1.0126  0.7759 -1.0741
   94MOL0     H12650   0.255   0.256   3.371  0.7394  2.6457  2.0429
   94MOL0     H12651   0.012   0.472   3.372  2.2976  0.3100 -0.5215
   94MOL0     H12652   0.075   0.369   3.242  0.3923 -0.9754 -0.6856
   94MOL0     H12653  -0.084   0.346   3.302  0.7509 -0.2701 -0.4457
   94MOL0     H12654  -0.384   0.363   3.345 -2.7331  0.5584 -1.5643
   94MOL0     H12655  -0.588   0.456   3.361 -0.1391  0.3998  0.5379
   94MOL0     H12656  -0.748   0.662   3.411 -1.4021  0.2740 -0.7883
   94MOL0     H12657  -0.789   0.491   3.425 -1.7825 -1.2978  2.8890
   94MOL0     H12658  -1.001   0.591   3.454  1.5570 -0.3506 -0.2516
   94MOL0     H12659  -0.929   0.568   3.617  1.0299 -1.8951  0.8091
   94MOL0     H12660  -1.063   0.769   3.564  0.2682  0.3676  2.3642
   94MOL0     H12661  -0.923   0.827   3.468  0.6086  0.0430  0.7667
   94MOL0     H12662  -0.956   0.777   3.763  0.8463 -1.0110  0.6576
   94MOL0     H12663  -0.793   0.814   3.698 -0.0633 -1.3931  2.5915
   94MOL0     H12664  -1.039   1.001   3.685  0.0484 -0.7379 -0.9616
   94MOL0     H12665  -0.886   1.014   3.586  0.0581 -0.1889 -1.0244
   94MOL0     H12666  -0.907   0.994   3.887  0.1304 -1.3241 -0.5673
   94MOL0     H12667  -0.752   1.004   3.804  1.7383  2.9833 -3.3084
   94MOL0     H12668  -0.959   1.233   3.783  0.7178  1.6822 -2.2850
   94MOL0     H12669  -0.818   1.227   3.700 -0.3464  1.3213  0.5298
   94MOL0     H12670  -0.689   1.223   3.923  0.4279  0.1206 -0.5924
   94MOL0     H12671  -0.840   1.226   4.014  0.5776  1.1414  0.0747
   94MOL0     H12672  -0.523   0.588   3.770  2.3499  1.1215 -0.6361
   94MOL0     H12673  -0.287   0.476   3.745 -0.5816  0.9489 -0.3037
   94MOL0     H12674  -0.067   0.030   3.667  1.7027  0.4023  2.1693
   94MOL0     H12675   0.154  -0.059   3.641  0.7354 -0.5938 -1.9877
   94MOL0     H12676   1.645   0.650   4.314  1.2034 -0.1074  0.7374
   94MOL0     H12677   1.834   0.592   4.454 -0.0685 -1.2352  1.8837
   94MOL0     H12678   2.272   0.488   4.530 -2.2951  2.4584  1.0457
   94MOL0     H12679   2.449   0.434   4.706 -0.1060  0.3438  0.1058
   94MOL0     H12680   2.338   0.174   5.039 -0.2769 -0.1969  0.1063
   94MOL0     H12681   2.491   0.104   4.988 -0.4761 -0.1059  0.6655
   94MOL0     H12682   2.495   0.214   5.202 -1.0126 -1.9303 -1.2219
   94MOL0     H12683   2.464   0.363   5.140 -0.4703 -0.9863  0.5777
   94MOL0     H12684   2.681   0.393   5.031  2.3645 -0.9180 -0.5647
   94MOL0     H12685   2.691   0.238   4.982 -2.3439  1.7909 -2.3624
   94MOL0     H12686   2.684   0.271   5.283 -4.0940  1.1199 -3.7432
   94MOL0     H12687   2.828   0.352   5.204 -0.4357 -0.5901  1.7096
   94MOL0     H12688   2.959  -0.031   5.259  0.1145 -1.9182 -2.6859
   94MOL0     H12689   2.202   0.146   4.866 -1.3406  1.3673  1.4490
   94MOL0     H12690   2.024   0.185   4.716  0.8748 -1.7299 -0.7495
   95MOL0     O12691   5.918   3.111   0.512  0.4365 -0.7658  0.1602
   95MOL0     C12692   5.798   3.135   0.486 -0.2102 -0.3825 -0.8834
   95MOL0     O12693   5.691   3.092   0.559  0.0815  0.1109  0.1654
   95MOL0     C12694   5.722   3.032   0.683  1.3567  0.1247  0.5984
   95MOL0     C12695   5.830   2.957   0.729 -1.0086  0.2809 -0.0651
   95MOL0     C12696   5.843   2.915   0.861 -0.8509  0.1617 -0.8537
   95MOL0     C12697   5.735   2.929   0.943 -0.4666  0.3560 -0.0955
   95MOL0     O12698   5.755   2.888   1.073 -0.6556 -0.2062  0.3474
   95MOL0     C12699   5.654   2.846   1.161  0.5777  0.3249 -0.5889
   95MOL0     C12700   5.628   2.939   1.278  0.4864 -0.8514  0.1665
   95MOL0     C12701   5.498   2.897   1.354 -0.9140 -0.1164 -0.4627
   95MOL0     C12702   5.526   2.784   1.448  1.2860  1.1501  0.9387
   95MOL0     C12703   5.409   2.731   1.529  0.5980  0.4432 -0.2436
   95MOL0     C12704   5.293   2.668   1.444  1.1757  0.3899  0.1938
   95MOL0     C12705   5.199   2.568   1.516 -0.2708 -0.0367 -0.0822
   95MOL0     C12706   5.105   2.515   1.414 -0.3370 -0.0355  1.5114
   95MOL0     N12707   5.015   2.412   1.448 -0.2819 -0.0236  0.6265
   95MOL0     C12708   5.045   2.278   1.442  0.9716  0.1464  0.2034
   95MOL0     C12709   4.926   2.214   1.429 -0.5324 -0.0161 -0.3091
   95MOL0     C12710   4.915   2.060   1.413  0.6373 -0.5397  0.3713
   95MOL0     C12711   4.811   2.001   1.315 -0.7137 -0.6535  0.4474
   95MOL0     C12712   4.666   2.025   1.359 -0.2608  0.4739  0.0310
   95MOL0     C12713   4.567   1.984   1.256 -0.1528 -0.4897 -0.9733
   95MOL0     O12714   4.434   2.014   1.308 -0.0596 -0.1667  0.5111
   95MOL0     C12715   4.342   2.026   1.214  0.5720  0.6965  0.4859
   95MOL0     C12716   4.221   2.082   1.244  0.8214 -0.5770  0.3104
   95MOL0     C12717   4.111   2.094   1.152 -0.8701 -0.2604  0.4855
   95MOL0     C12718   3.998   2.189   1.192  0.5632  0.3897  0.3019
   95MOL0     C12719   4.121   2.019   1.032 -0.1422 -0.4621  0.2923
   95MOL0     C12720   4.017   2.014   0.929  0.8123  0.5562  0.5593
   95MOL0     O12721   3.913   2.103   0.934  0.3572  0.0828  0.5941
   95MOL0     C12722   3.792   2.088   0.879  0.9073  0.7007  0.0312
   95MOL0     C12723   3.719   1.973   0.876  0.3094 -0.3924 -0.0710
   95MOL0     C12724   3.591   1.970   0.815  0.5665  0.6594 -0.4584
   95MOL0     C12725   3.533   2.087   0.762 -0.3256  0.0746 -0.4979
   95MOL0     O12726   3.406   2.112   0.704 -0.0639 -0.2384  0.5530
   95MOL0     C12727   3.341   2.001   0.641  0.1380  0.0174 -0.2513
   95MOL0     C12728   3.196   2.022   0.638  0.1271  1.1537  0.0338
   95MOL0     C12729   3.125   1.944   0.533  0.7139  0.7152 -0.1757
   95MOL0     C12730   2.971   1.960   0.535 -0.7898 -0.5391  0.4047
   95MOL0     C12731   2.896   1.864   0.437  0.0143 -0.4291 -0.0525
   95MOL0     C12732   2.742   1.894   0.436 -0.5127 -0.7026  0.5650
   95MOL0     C12733   2.660   1.800   0.341 -0.0129  0.2122 -0.3611
   95MOL0     C12734   2.512   1.836   0.325 -0.6430 -0.6718  0.0916
   95MOL0    Cl12735   2.507   2.003   0.262  0.0508 -0.2592 -0.7944
   95MOL0     C12736   3.610   2.207   0.767 -0.2677 -0.0566  0.0353
   95MOL0     C12737   3.743   2.206   0.818  0.3419  0.5791  0.0293
   95MOL0     O12738   4.015   1.923   0.844 -0.1082  0.6777  1.0387
   95MOL0     C12739   4.242   1.952   1.005  0.3625 -0.0199  0.2966
   95MOL0     C12740   4.347   1.952   1.103 -0.9262 -0.0046 -0.2950
   95MOL0     N12741   4.829   2.312   1.432  0.0751  0.0536 -0.6275
   95MOL0     N12742   4.876   2.429   1.442 -0.5026  0.0181 -0.6533
   95MOL0     C12743   5.613   2.995   0.895 -0.2936 -1.0397 -0.1853
   95MOL0     C12744   5.611   3.048   0.765 -0.9066  0.4070  0.0347
   95MOL0     C12745   5.769   3.226   0.369 -0.4811 -0.2007  0.2651
   95MOL0     C12746   5.654   3.306   0.367  0.3993 -0.2284 -0.6278
   95MOL0     C12747   5.647   3.413   0.265  0.1728  0.2880 -0.1984
   95MOL0     C12748   5.745   3.440   0.178  0.8478  0.4568  0.4885
   95MOL0     O12749   5.711   3.520   0.075 -0.7032  0.1686  0.1029
   95MOL0     C12750   5.802   3.545  -0.027 -0.5931  0.0289  0.6276
   95MOL0     C12751   5.807   3.446  -0.149  0.3353 -0.1785  0.3767
   95MOL0     C12752   5.915   3.485  -0.255  0.0944 -0.0494 -0.0505
   95MOL0     C12753   5.902   3.376  -0.363 -0.2848  0.0823 -0.5473
   95MOL0     C12754   5.997   3.401  -0.477 -0.1945 -0.5010 -0.0464
   95MOL0     C12755   6.060   3.406  -0.581 -0.0079  0.2574  0.2520
   95MOL0     C12756   5.858   3.365   0.175 -0.0367 -0.0270 -0.6131
   95MOL0     C12757   5.873   3.261   0.269 -0.1115  0.3388  0.5412
   95MOL0     H12758   5.902   2.930   0.653 -0.2530  1.6865  0.1285
   95MOL0     H12759   5.933   2.859   0.883  0.3923  2.5808  0.7058
   95MOL0     H12760   5.561   2.837   1.103 -0.4985  0.8551  0.9902
   95MOL0     H12761   5.685   2.747   1.195  1.5369  2.2048  4.9637
   95MOL0     H12762   5.713   2.943   1.348 -0.6354 -0.4199  1.5644
   95MOL0     H12763   5.614   3.038   1.234  1.0819 -0.5795  0.5764
   95MOL0     H12764   5.452   2.975   1.415 -1.6113 -1.1967  0.4483
   95MOL0     H12765   5.426   2.865   1.278  0.4998 -2.5154 -0.9244
   95MOL0     H12766   5.567   2.704   1.385  1.7471  0.4162  2.1352
   95MOL0     H12767   5.610   2.811   1.513  3.1448  1.0337 -1.2521
   95MOL0     H12768   5.442   2.656   1.600 -0.0035  1.1282  0.7819
   95MOL0     H12769   5.371   2.807   1.598 -2.5758 -1.4696  0.3257
   95MOL0     H12770   5.233   2.755   1.414  2.1553  1.1879  0.4729
   95MOL0     H12771   5.341   2.624   1.356 -1.1273  0.2034 -1.0324
   95MOL0     H12772   5.253   2.490   1.570  0.2775  0.7401  0.5019
   95MOL0     H12773   5.138   2.624   1.588 -1.3647  1.3677 -1.9969
   95MOL0     H12774   5.166   2.475   1.332  0.7784  2.4757  1.0158
   95MOL0     H12775   5.055   2.602   1.371 -1.1744 -1.0154  0.4207
   95MOL0     H12776   5.139   2.225   1.431 -0.1408 -2.1684  1.1864
   95MOL0     H12777   5.017   2.026   1.392  3.0466  5.5074  0.0839
   95MOL0     H12778   4.870   2.026   1.506 -2.5112 -2.7269 -1.7722
   95MOL0     H12779   4.835   1.895   1.307  1.7424 -0.0510 -1.4958
   95MOL0     H12780   4.837   2.048   1.220 -0.7470 -1.5755 -0.0300
   95MOL0     H12781   4.642   2.130   1.379 -1.9062  0.3969 -1.3289
   95MOL0     H12782   4.641   1.973   1.453  1.4733 -0.5673 -0.0386
   95MOL0     H12783   4.585   1.878   1.234  0.2880 -0.8546  0.9344
   95MOL0     H12784   4.599   2.032   1.163 -3.2244  2.4376 -0.7215
   95MOL0     H12785   4.200   2.114   1.346  0.3292 -0.6201  0.2269
   95MOL0     H12786   3.998   2.253   1.103 -0.8420 -1.4036 -1.0402
   95MOL0     H12787   3.904   2.137   1.210  1.2371 -0.8508  0.3387
   95MOL0     H12788   4.026   2.246   1.281 -0.3971  1.9132 -0.3406
   95MOL0     H12789   3.770   1.887   0.917  4.7243  1.6719 -0.5725
   95MOL0     H12790   3.538   1.876   0.814 -0.9739  1.4573  0.9645
   95MOL0     H12791   3.383   2.006   0.541 -1.4267  1.1477 -0.8862
   95MOL0     H12792   3.365   1.913   0.702 -1.1076  0.4290  0.8826
   95MOL0     H12793   3.153   2.014   0.738  2.7368  1.7180  1.3054
   95MOL0     H12794   3.172   2.127   0.617 -4.6020  0.2685 -0.0224
   95MOL0     H12795   3.163   1.842   0.542  1.9242  1.0993 -0.6427
   95MOL0     H12796   3.154   1.980   0.433 -3.3676  1.5059 -1.2304
   95MOL0     H12797   2.914   1.956   0.628 -3.3869 -0.6238 -1.0735
   95MOL0     H12798   2.963   2.063   0.498  3.2560 -1.0508 -2.6090
   95MOL0     H12799   2.917   1.763   0.473 -0.5096  0.1018  1.8328
   95MOL0     H12800   2.934   1.880   0.335 -0.3842 -3.6590 -0.8210
   95MOL0     H12801   2.690   1.889   0.533 -1.4321 -1.8482  0.0551
   95MOL0     H12802   2.734   1.993   0.392  3.8562 -0.2245  0.4500
   95MOL0     H12803   2.670   1.701   0.385  2.7382  0.2075 -0.7955
   95MOL0     H12804   2.705   1.790   0.241  0.9495  0.6305  0.0168
   95MOL0     H12805   2.468   1.841   0.425  1.3634  0.0893  0.9858
   95MOL0     H12806   2.456   1.763   0.266  1.2129 -2.1888  0.1042
   95MOL0     H12807   3.571   2.301   0.729  1.0113 -0.2123 -1.7641
   95MOL0     H12808   3.801   2.298   0.807 -0.3114  1.4482  3.0369
   95MOL0     H12809   4.259   1.887   0.920 -2.1557 -0.1745 -0.1400
   95MOL0     H12810   4.432   1.890   1.077 -1.7908 -0.6138 -1.8317
   95MOL0     H12811   5.536   3.008   0.970 -0.4105 -4.5149  0.4768
   95MOL0     H12812   5.521   3.092   0.725 -1.8401 -1.2400  0.1982
   95MOL0     H12813   5.573   3.292   0.437  0.1490  3.1629 -0.1009
   95MOL0     H12814   5.555   3.471   0.265  0.1652  0.2815 -0.6591
   95MOL0     H12815   5.774   3.639  -0.075 -0.2220  0.6851  1.6710
   95MOL0     H12816   5.903   3.564   0.008 -0.7556  0.8321  0.6706
   95MOL0     H12817   5.707   3.433  -0.192  1.3529 -0.4340 -2.0363
   95MOL0     H12818   5.819   3.345  -0.107 -2.3884 -0.8997 -0.3844
   95MOL0     H12819   6.016   3.492  -0.214  1.2461  1.1855 -2.8911
   95MOL0     H12820   5.884   3.576  -0.307 -3.4884 -1.8095 -1.3269
   95MOL0     H12821   5.799   3.376  -0.400 -0.1056  0.6167 -1.0606
   95MOL0     H12822   5.902   3.275  -0.322 -2.7782  0.2481  0.0098
   95MOL0     H12823   6.117   3.407  -0.672 -0.1752 -0.7113  0.1278
   95MOL0     H12824   5.946   3.380   0.112 -1.9848 -0.0095 -3.5127
   95MOL0     H12825   5.958   3.194   0.262  0.4405  1.1485 -0.8976
   96MOL0     O12826   1.589   9.499   2.423  0.5959 -0.2082  0.5453
   96MOL0     C12827   1.640   9.524   2.318 -0.9353 -0.0531  0.7242
   96MOL0     O12828   1.768   9.553   2.300 -0.5481  0.2338  0.5891
   96MOL0     C12829   1.833   9.612   2.409  0.1482  0.2926  0.8956
   96MOL0     C12830   1.849   9.749   2.424 -0.2815  0.6082 -0.3702
   96MOL0     C12831   1.903   9.806   2.537 -0.1537 -0.6170 -0.7534
   96MOL0     C12832   1.938   9.723   2.649 -1.3411 -0.3510  0.3922
   96MOL0     O12833   2.004   9.752   2.759 -0.3835  0.0422  0.2938
   96MOL0     C12834   2.001   9.887   2.817 -0.0402  1.2936  0.5477
   96MOL0     C12835   2.060   9.893   2.955 -0.8793 -0.0326 -0.0477
   96MOL0     C12836   2.205   9.853   2.951  0.2900  0.0474  0.1706
   96MOL0     C12837   2.280   9.970   2.903 -0.3485  0.6985 -0.1441
   96MOL0     C12838   2.433   9.958   2.886 -0.7251 -0.3810 -0.5784
   96MOL0     C12839   2.512   9.903   3.011 -0.3429 -0.0634  0.2340
   96MOL0     C12840   2.488   9.998   3.134  0.5605  0.6146  0.6452
   96MOL0     C12841   2.563   9.953   3.253  0.4275  0.2164 -0.2676
   96MOL0     N12842   2.708   9.917   3.237  0.3705 -1.1617 -0.2743
   96MOL0     C12843   2.803  10.012   3.212  0.0402 -0.1440  1.0504
   96MOL0     C12844   2.911   9.939   3.203  0.8865  0.2094 -0.5707
   96MOL0     C12845   3.054   9.984   3.164  0.1326 -0.2057 -0.4181
   96MOL0     C12846   3.107  10.079   3.267 -0.5999  0.9812  0.5373
   96MOL0     C12847   3.104  10.024   3.420 -0.1397  0.3676  0.1001
   96MOL0     C12848   3.182  10.130   3.520  0.3819  0.5110 -0.2156
   96MOL0     O12849   3.142  10.259   3.482  0.4010 -0.0848  0.3418
   96MOL0     C12850   3.151  10.358   3.577  0.1540 -0.3712  0.2277
   96MOL0     C12851   3.055  10.454   3.571  0.0961 -0.2188  0.1636
   96MOL0     C12852   3.057  10.568   3.646 -0.8664  0.6834 -0.2536
   96MOL0     C12853   2.928  10.647   3.631  0.0874  0.4659  0.4292
   96MOL0     C12854   3.162  10.580   3.741 -0.1117  0.2012 -0.0846
   96MOL0     C12855   3.172  10.706   3.829 -0.9777 -0.3711  0.5082
   96MOL0     O12856   3.098  10.823   3.804  0.2614  0.2215  0.2803
   96MOL0     C12857   3.115  10.919   3.903 -0.5276  0.4112 -0.2155
   96MOL0     C12858   3.031  10.923   4.011  0.1219  0.5796  1.5152
   96MOL0     C12859   3.051  11.009   4.122  0.1276  1.1067  0.0730
   96MOL0     C12860   3.162  11.093   4.121  0.3902  0.0149 -0.9228
   96MOL0     O12861   3.197  11.163   4.234  0.7767  0.5184 -0.3996
   96MOL0     C12862   3.316  11.222   4.251 -0.4062  0.6475 -0.3150
   96MOL0     C12863   3.316  11.319   4.368  0.7372 -0.0726 -0.1450
   96MOL0     C12864   3.452  11.382   4.400  0.4001 -0.0954  0.1291
   96MOL0     C12865   3.447  11.458   4.525 -0.0037  0.2029  0.2128
   96MOL0     C12866   3.572  11.530   4.566  0.0137 -0.1324 -0.7215
   96MOL0     C12867   3.707  11.460   4.575 -0.7964 -0.0444  0.1765
   96MOL0     C12868   3.721  11.339   4.673 -0.2277 -0.0731  0.0618
   96MOL0     C12869   3.652  11.349   4.807 -0.4138  0.4661 -0.4293
   96MOL0    Cl12870   3.624  11.181   4.871 -0.0624 -0.0920 -0.1481
   96MOL0     C12871   3.254  11.071   4.016 -0.5052 -0.7417  1.0256
   96MOL0     C12872   3.235  10.989   3.900 -1.1334  0.5174 -0.7218
   96MOL0     O12873   3.255  10.700   3.918  0.2410  0.1538 -0.6733
   96MOL0     C12874   3.263  10.487   3.747 -0.5741  0.4924  0.1679
   96MOL0     C12875   3.263  10.374   3.666  0.7435  1.0301  0.7892
   96MOL0     N12876   2.885   9.811   3.250 -0.1813  0.0578 -1.0781
   96MOL0     N12877   2.756   9.796   3.263 -0.2671  0.2417  0.5768
   96MOL0     C12878   1.921   9.584   2.628  0.6488 -0.7222 -0.9821
   96MOL0     C12879   1.871   9.527   2.513  0.6056 -0.2530 -0.0388
   96MOL0     C12880   1.558   9.500   2.200 -0.0549 -0.5300 -0.2101
   96MOL0     C12881   1.618   9.491   2.078  0.2719  0.4156  0.9491
   96MOL0     C12882   1.547   9.443   1.966  0.4763 -0.4198 -0.1100
   96MOL0     C12883   1.416   9.384   1.978  0.3084  0.5578 -0.5616
   96MOL0     O12884   1.358   9.335   1.860 -0.1858  0.3743 -0.5076
   96MOL0     C12885   1.234   9.269   1.867 -0.2375 -0.1334  0.9984
   96MOL0     C12886   1.175   9.258   1.724  0.4590 -1.1364  0.6518
   96MOL0     C12887   1.028   9.243   1.732  0.5261  0.5933  0.0115
   96MOL0     C12888   0.996   9.120   1.837 -0.2326 -0.4188 -0.1136
   96MOL0     C12889   0.863   9.080   1.808  0.1940 -0.5456  0.5424
   96MOL0     C12890   0.756   9.029   1.780 -0.6121 -0.8040  0.5781
   96MOL0     C12891   1.357   9.399   2.104 -0.2704  0.4140 -1.2544
   96MOL0     C12892   1.425   9.463   2.209  0.1554  0.0557 -0.7353
   96MOL0     H12893   1.817   9.815   2.344  0.6782 -2.8284 -3.9176
   96MOL0     H12894   1.910   9.915   2.541 -1.8258 -0.4684 -0.8587
   96MOL0     H12895   2.052   9.938   2.735 -0.0998 -0.8808 -0.9504
   96MOL0     H12896   1.899   9.927   2.826  0.5950  3.1646 -0.2035
   96MOL0     H12897   2.050   9.993   2.998  0.7952  1.0389 -2.0108
   96MOL0     H12898   1.995   9.834   3.020  2.6542 -2.3910  1.6285
   96MOL0     H12899   2.238   9.824   3.052 -1.9917  1.4461  1.4005
   96MOL0     H12900   2.225   9.772   2.880 -0.3215  2.0026 -2.3680
   96MOL0     H12901   2.241   9.997   2.804 -1.4976  2.5676  0.7762
   96MOL0     H12902   2.255  10.054   2.969  0.6422  3.0438 -2.5450
   96MOL0     H12903   2.462   9.891   2.804  1.7039  0.4341 -0.4614
   96MOL0     H12904   2.482  10.053   2.867  2.4308 -1.8981 -0.7025
   96MOL0     H12905   2.475   9.801   3.029  1.3404 -0.8174 -0.4067
   96MOL0     H12906   2.618   9.897   2.987 -0.2526  2.7431 -0.3552
   96MOL0     H12907   2.521  10.095   3.095  1.1819 -0.2019 -0.9623
   96MOL0     H12908   2.380   9.997   3.153  0.1933  2.7051 -0.8484
   96MOL0     H12909   2.526   9.862   3.302  0.9376 -0.2446 -0.7241
   96MOL0     H12910   2.555  10.039   3.319  1.4359 -1.9026  2.8505
   96MOL0     H12911   2.788  10.119   3.204  3.1190  0.2737 -0.1593
   96MOL0     H12912   3.127   9.903   3.153 -0.0564 -0.1234 -2.9236
   96MOL0     H12913   3.048  10.023   3.062 -2.1613 -1.3287 -0.7843
   96MOL0     H12914   3.048  10.171   3.269  0.2438  1.5527 -0.1732
   96MOL0     H12915   3.204  10.107   3.225 -1.8768  3.2286 -1.1345
   96MOL0     H12916   3.154   9.927   3.422 -3.5478 -1.6007 -1.1898
   96MOL0     H12917   3.004  10.010   3.461  0.2690  0.5807  1.1885
   96MOL0     H12918   3.289  10.116   3.503 -0.3325 -0.8244 -5.0853
   96MOL0     H12919   3.157  10.120   3.626 -1.4093  1.2712 -0.5283
   96MOL0     H12920   2.983  10.439   3.490  1.4538  0.5073 -1.2326
   96MOL0     H12921   2.909  10.703   3.539 -3.5578 -0.9542  0.1583
   96MOL0     H12922   2.838  10.585   3.623 -2.2597  3.6839 -0.2212
   96MOL0     H12923   2.917  10.714   3.716  1.1706  0.7785  0.3399
   96MOL0     H12924   2.946  10.855   4.014  0.9428 -0.4412  2.0323
   96MOL0     H12925   2.989  11.025   4.210  0.6768  1.3654  0.4206
   96MOL0     H12926   3.378  11.133   4.262 -2.8192 -0.8987  1.9227
   96MOL0     H12927   3.345  11.288   4.169 -2.9108  0.6283 -1.3048
   96MOL0     H12928   3.247  11.397   4.334 -0.1024 -0.4974  0.5495
   96MOL0     H12929   3.278  11.270   4.458 -2.4856  0.7600 -0.9524
   96MOL0     H12930   3.491  11.439   4.315  0.2967  1.2903  0.9883
   96MOL0     H12931   3.532  11.307   4.408  0.6326 -0.5449 -4.0722
   96MOL0     H12932   3.366  11.526   4.499  0.9542  0.7413 -1.5774
   96MOL0     H12933   3.423  11.393   4.609  1.9458  0.1517  0.7733
   96MOL0     H12934   3.553  11.570   4.666 -1.7734  0.9190 -1.4394
   96MOL0     H12935   3.604  11.614   4.503  2.2267 -0.2285  0.1716
   96MOL0     H12936   3.724  11.435   4.470 -0.1650 -0.4973  0.3813
   96MOL0     H12937   3.762  11.546   4.615 -0.5924 -1.3534  2.9753
   96MOL0     H12938   3.828  11.332   4.697 -0.4689 -0.1511  1.1577
   96MOL0     H12939   3.689  11.249   4.620  2.0617 -0.8651 -0.0937
   96MOL0     H12940   3.555  11.399   4.796 -0.7555 -0.0135  0.2759
   96MOL0     H12941   3.721  11.404   4.872 -0.7273  1.0058 -0.5515
   96MOL0     H12942   3.350  11.123   4.020 -0.3916 -1.0494  2.6787
   96MOL0     H12943   3.309  10.972   3.823  3.7602 -1.6475  3.8446
   96MOL0     H12944   3.342  10.499   3.820 -2.1315  2.4705  1.6592
   96MOL0     H12945   3.344  10.303   3.659 -1.8823 -2.2138  0.7514
   96MOL0     H12946   1.949   9.513   2.705  1.0804 -1.9683 -2.2631
   96MOL0     H12947   1.850   9.421   2.505  1.9726 -0.4349 -1.9655
   96MOL0     H12948   1.711   9.546   2.065 -0.2682  0.7750 -2.1644
   96MOL0     H12949   1.598   9.447   1.870  0.1605 -4.3975 -0.6095
   96MOL0     H12950   1.256   9.170   1.909 -2.2451 -0.6815  0.8377
   96MOL0     H12951   1.167   9.324   1.932 -0.4225 -1.3103  1.8444
   96MOL0     H12952   1.205   9.168   1.670  1.7052  0.0377 -0.7054
   96MOL0     H12953   1.198   9.344   1.661 -3.1291 -0.8237 -0.4319
   96MOL0     H12954   0.990   9.227   1.630  0.5890 -0.7959  0.1869
   96MOL0     H12955   0.985   9.337   1.766  2.1225  1.9290 -1.4573
   96MOL0     H12956   1.001   9.155   1.941 -0.4357 -1.1057  0.1341
   96MOL0     H12957   1.064   9.036   1.823 -1.7503 -2.0019  1.4165
   96MOL0     H12958   0.656   8.996   1.762 -2.0791  2.8359  1.2507
   96MOL0     H12959   1.253   9.371   2.120 -0.4504  2.2679  1.5632
   96MOL0     H12960   1.368   9.479   2.301 -0.4622  3.9222 -1.6249
   97MOL0     O12961   4.403   7.091   4.032 -0.4356 -0.0135  0.4524
   97MOL0     C12962   4.396   6.973   4.087  0.0144  0.3626 -0.5800
   97MOL0     O12963   4.352   6.861   4.027 -0.5112  0.1224  0.1147
   97MOL0     C12964   4.282   6.856   3.915 -0.3061 -0.3634 -0.1139
   97MOL0     C12965   4.276   6.726   3.857 -0.6759  0.6446 -0.4957
   97MOL0     C12966   4.196   6.692   3.753  0.2294 -0.4011  0.7557
   97MOL0     C12967   4.136   6.789   3.677  0.3109  0.2254  0.8474
   97MOL0     O12968   4.069   6.765   3.556  0.0793 -0.1655 -0.1470
   97MOL0     C12969   3.926   6.729   3.567 -0.4594 -1.1925 -0.5610
   97MOL0     C12970   3.929   6.581   3.508  0.9825 -0.6282  0.3096
   97MOL0     C12971   3.847   6.502   3.604  0.2116  0.0301 -0.5004
   97MOL0     C12972   3.849   6.352   3.554  0.3011 -0.7019 -0.3690
   97MOL0     C12973   3.737   6.277   3.630 -0.1919  0.7417 -0.7335
   97MOL0     C12974   3.755   6.297   3.784  0.3455  0.4710  0.3143
   97MOL0     C12975   3.668   6.197   3.870  0.7914  0.1366  0.1789
   97MOL0     C12976   3.506   6.181   3.863 -0.5781  0.0719  0.6466
   97MOL0     N12977   3.437   6.303   3.868  0.2718  0.3196 -0.0793
   97MOL0     C12978   3.392   6.369   3.759  0.6366 -0.6531  0.6506
   97MOL0     C12979   3.312   6.471   3.802 -0.3835  0.0875  0.7670
   97MOL0     C12980   3.242   6.572   3.728 -0.5582  0.3730 -0.2153
   97MOL0     C12981   3.212   6.565   3.578  0.7000  0.8473 -0.6187
   97MOL0     C12982   3.073   6.502   3.546 -0.7071  0.1762  0.1557
   97MOL0     C12983   3.061   6.347   3.556  0.3120 -0.6136 -0.7201
   97MOL0     O12984   2.932   6.312   3.507  0.4205  0.6255  0.0581
   97MOL0     C12985   2.896   6.182   3.510 -0.4160 -0.3217 -0.2416
   97MOL0     C12986   2.783   6.155   3.432 -0.6165  0.1237 -0.2640
   97MOL0     C12987   2.745   6.025   3.404  0.6857 -0.2536 -0.4902
   97MOL0     C12988   2.649   6.011   3.297 -0.5476  0.1766  0.1663
   97MOL0     C12989   2.819   5.919   3.470 -0.1515  1.0389  1.1610
   97MOL0     C12990   2.780   5.779   3.469  0.3009  1.5732 -0.1193
   97MOL0     O12991   2.810   5.704   3.582 -0.8270  0.8070  0.0190
   97MOL0     C12992   2.787   5.575   3.600 -0.5355 -0.2864  0.3135
   97MOL0     C12993   2.811   5.511   3.726 -1.2205 -0.1190 -0.1019
   97MOL0     C12994   2.818   5.371   3.747 -0.5103 -0.8890  0.3434
   97MOL0     C12995   2.788   5.288   3.643  0.0397 -0.8642 -0.8743
   97MOL0     O12996   2.801   5.157   3.657  0.6530 -0.5207 -0.0894
   97MOL0     C12997   2.695   5.087   3.589 -0.6567  1.0045 -0.4003
   97MOL0     C12998   2.680   4.944   3.632  1.0724  0.6598 -0.2820
   97MOL0     C12999   2.579   4.922   3.746 -0.3931 -0.1794 -0.3769
   97MOL0     C13000   2.650   4.970   3.876 -0.0355  0.1228 -0.3125
   97MOL0     C13001   2.578   4.921   4.003 -0.3415 -0.8147 -0.1990
   97MOL0     C13002   2.655   4.953   4.128 -0.1618  0.2509 -0.4118
   97MOL0     C13003   2.588   4.856   4.233  0.1700 -0.3776  0.3071
   97MOL0     C13004   2.646   4.901   4.368  0.3501  0.1686 -0.4343
   97MOL0    Cl13005   2.605   4.796   4.499  0.2901 -0.1273 -0.0592
   97MOL0     C13006   2.764   5.345   3.519  0.5341 -0.3009 -0.3945
   97MOL0     C13007   2.765   5.482   3.502 -0.3474  0.7396  0.9960
   97MOL0     O13008   2.727   5.739   3.369 -0.4182 -0.0426 -0.6336
   97MOL0     C13009   2.926   5.952   3.558 -0.0315  0.9191  0.1385
   97MOL0     C13010   2.969   6.083   3.575  0.3824 -0.6369 -0.7132
   97MOL0     N13011   3.287   6.448   3.937 -0.9754 -0.3897  0.3115
   97MOL0     N13012   3.369   6.356   3.974 -0.1533 -0.3341  0.2662
   97MOL0     C13013   4.150   6.920   3.710 -0.3668 -0.4645 -0.8304
   97MOL0     C13014   4.213   6.956   3.836 -1.0405  0.6217 -0.1122
   97MOL0     C13015   4.447   6.950   4.225  0.8176 -1.1472  0.3401
   97MOL0     C13016   4.507   7.060   4.298  1.1699  0.2578 -0.3175
   97MOL0     C13017   4.564   7.034   4.428 -0.8644  0.3498  0.1914
   97MOL0     C13018   4.566   6.903   4.480 -0.7375  0.4683  0.8697
   97MOL0     O13019   4.628   6.891   4.597 -0.7800  0.5796 -0.3267
   97MOL0     C13020   4.643   6.768   4.653 -0.1584  0.6140 -0.8420
   97MOL0     C13021   4.539   6.737   4.764 -0.3727 -0.3042  1.1817
   97MOL0     C13022   4.578   6.831   4.882 -0.2559  0.4215 -0.1318
   97MOL0     C13023   4.465   6.830   4.985 -0.2156  0.2047 -1.4052
   97MOL0     C13024   4.469   6.705   5.055  0.0911 -0.9217  0.5191
   97MOL0     C13025   4.457   6.588   5.084 -0.1822 -0.0751  0.0474
   97MOL0     C13026   4.498   6.799   4.413 -0.0566  0.5325 -0.3337
   97MOL0     C13027   4.454   6.825   4.283  0.0148  0.3961 -0.1183
   97MOL0     H13028   4.323   6.647   3.915 -0.0974 -0.2708 -2.1365
   97MOL0     H13029   4.187   6.584   3.747 -0.0527 -0.3683  0.5324
   97MOL0     H13030   3.891   6.734   3.671 -2.3004 -1.6616 -1.1252
   97MOL0     H13031   3.875   6.800   3.502 -0.9480 -1.0291 -0.0074
   97MOL0     H13032   3.884   6.594   3.410  1.1290  1.1497  0.4528
   97MOL0     H13033   4.026   6.531   3.498 -0.2609 -2.8402 -1.9149
   97MOL0     H13034   3.901   6.498   3.699 -0.4230 -1.9250 -0.1833
   97MOL0     H13035   3.741   6.531   3.612  0.1257 -0.0931 -1.0961
   97MOL0     H13036   3.833   6.351   3.446 -3.6422  1.7894 -0.0202
   97MOL0     H13037   3.949   6.309   3.571  0.5341  0.9006  3.2971
   97MOL0     H13038   3.638   6.313   3.602  0.1924 -0.0802 -3.4207
   97MOL0     H13039   3.752   6.171   3.609  0.5351  0.6748  0.0648
   97MOL0     H13040   3.859   6.294   3.817  1.5378 -3.0897 -3.0520
   97MOL0     H13041   3.725   6.397   3.816  2.8318  2.0953 -1.9766
   97MOL0     H13042   3.707   6.098   3.847  1.3008  0.8149 -2.1869
   97MOL0     H13043   3.688   6.208   3.977  0.7095 -4.4889  0.8700
   97MOL0     H13044   3.467   6.117   3.943 -3.8538  1.2086  0.1259
   97MOL0     H13045   3.490   6.130   3.768  2.3075 -0.7570  0.5100
   97MOL0     H13046   3.414   6.355   3.653 -1.2607 -0.9402  0.2523
   97MOL0     H13047   3.146   6.582   3.779  1.5963  1.6721  4.0125
   97MOL0     H13048   3.292   6.667   3.748 -2.2165  0.8224  2.2686
   97MOL0     H13049   3.285   6.504   3.524  2.7293  2.2540  0.3951
   97MOL0     H13050   3.211   6.665   3.535  1.4013  0.9570 -0.3952
   97MOL0     H13051   3.040   6.536   3.448  1.6498 -1.2572 -1.2426
   97MOL0     H13052   2.995   6.542   3.612 -1.6041 -2.0479  0.5256
   97MOL0     H13053   3.076   6.332   3.663  1.3492 -2.1051 -1.0474
   97MOL0     H13054   3.141   6.293   3.504  0.6355 -0.4885 -0.3575
   97MOL0     H13055   2.729   6.236   3.385 -1.3748  1.0792  2.1229
   97MOL0     H13056   2.577   6.093   3.295 -0.5910  0.1447  0.4250
   97MOL0     H13057   2.706   6.013   3.204 -0.6165  0.5135  0.1300
   97MOL0     H13058   2.575   5.932   3.313  1.0979 -1.6789 -0.9365
   97MOL0     H13059   2.845   5.578   3.804  4.1554 -4.6067  2.0794
   97MOL0     H13060   2.863   5.335   3.839  4.1648  1.9083 -0.5398
   97MOL0     H13061   2.599   5.134   3.614 -0.6975 -0.2505  2.0115
   97MOL0     H13062   2.710   5.072   3.482  1.6219  1.1072 -0.1510
   97MOL0     H13063   2.637   4.897   3.543 -2.4258  2.5768  0.2214
   97MOL0     H13064   2.775   4.898   3.659  0.2569 -1.4623 -0.8328
   97MOL0     H13065   2.571   4.814   3.736 -0.5385 -0.0474 -1.9513
   97MOL0     H13066   2.481   4.968   3.726  1.0445  2.2119 -2.6662
   97MOL0     H13067   2.758   4.951   3.872 -0.3582 -2.6850  1.3636
   97MOL0     H13068   2.647   5.079   3.876  0.2175  0.1766 -2.5826
   97MOL0     H13069   2.573   4.815   3.974  0.6210 -0.5390 -1.4593
   97MOL0     H13070   2.474   4.956   4.001  0.0580  0.5673  1.6086
   97MOL0     H13071   2.763   4.938   4.118  0.3411  2.6938  0.5094
   97MOL0     H13072   2.648   5.057   4.162  0.2965 -0.2070  1.2018
   97MOL0     H13073   2.611   4.751   4.211 -0.9276 -0.1227 -2.4221
   97MOL0     H13074   2.481   4.876   4.232  0.3036  0.3612 -0.3232
   97MOL0     H13075   2.623   5.003   4.398 -1.8728 -0.0215 -1.3314
   97MOL0     H13076   2.755   4.891   4.368  0.4239 -0.2420  3.3153
   97MOL0     H13077   2.745   5.281   3.433 -5.2119  0.9455 -0.4823
   97MOL0     H13078   2.741   5.520   3.403  2.1686  3.1630  1.2135
   97MOL0     H13079   2.973   5.871   3.613 -4.0602  0.0718  2.7732
   97MOL0     H13080   3.047   6.109   3.646 -0.7391  0.0550  0.2931
   97MOL0     H13081   4.117   7.001   3.646  0.6203  0.1351 -0.6026
   97MOL0     H13082   4.230   7.056   3.874 -0.8712  0.1254  1.1769
   97MOL0     H13083   4.512   7.158   4.253  3.0727 -0.4917 -1.8498
   97MOL0     H13084   4.620   7.104   4.489  1.6430  0.6325 -2.2033
   97MOL0     H13085   4.652   6.679   4.590  0.3687 -1.7942  2.3841
   97MOL0     H13086   4.734   6.771   4.714 -0.0416 -3.0191 -0.6070
   97MOL0     H13087   4.546   6.629   4.780  1.1890 -0.8310 -2.0634
   97MOL0     H13088   4.435   6.757   4.735  0.0491 -0.0566 -0.2659
   97MOL0     H13089   4.604   6.933   4.851  0.3337  0.1654 -0.4827
   97MOL0     H13090   4.667   6.790   4.929 -0.1999  0.7651  0.0607
   97MOL0     H13091   4.370   6.838   4.932 -1.4510 -1.6060  0.3560
   97MOL0     H13092   4.480   6.920   5.045 -1.5697 -0.6345  0.3010
   97MOL0     H13093   4.444   6.487   5.116 -0.8290  0.2150  0.7283
   97MOL0     H13094   4.487   6.698   4.451 -3.9427  0.2148 -1.9208
   97MOL0     H13095   4.404   6.740   4.238 -0.4915  0.5818  0.0892
   98MOL0     O13096   0.279   3.153   8.502 -0.3337  0.1910 -0.3470
   98MOL0     C13097   0.372   3.176   8.425 -0.6665 -0.3456  0.8495
   98MOL0     O13098   0.498   3.209   8.450 -0.1630 -0.4605 -0.0559
   98MOL0     C13099   0.551   3.258   8.569  0.2296  0.5171  0.0012
   98MOL0     C13100   0.485   3.255   8.695  0.4589 -0.2083  0.6204
   98MOL0     C13101   0.551   3.310   8.811  0.0552 -1.1917 -0.3932
   98MOL0     C13102   0.680   3.353   8.807  0.7652 -0.0213 -0.8446
   98MOL0     O13103   0.723   3.406   8.928 -0.2368  0.1650  0.3584
   98MOL0     C13104   0.866   3.419   8.958  0.5454 -0.8712 -0.1940
   98MOL0     C13105   0.878   3.494   9.094  0.0205 -0.1937 -0.5179
   98MOL0     C13106   0.839   3.401   9.204  0.1326 -0.7808 -0.0036
   98MOL0     C13107   0.881   3.435   9.353 -0.3853  0.4143  0.0903
   98MOL0     C13108   0.791   3.355   9.454 -0.7480  0.4208  0.3564
   98MOL0     C13109   0.813   3.200   9.440 -0.0526  0.8088 -0.5428
   98MOL0     C13110   0.733   3.124   9.549 -0.4021 -0.0776 -0.5087
   98MOL0     C13111   0.798   2.999   9.595 -0.4895 -0.5513 -0.7794
   98MOL0     N13112   0.873   3.010   9.716  0.2233  0.1534 -0.6412
   98MOL0     C13113   1.002   3.034   9.716  0.3789  0.1401 -0.4530
   98MOL0     C13114   1.021   3.073   9.845 -0.1618  0.1767 -0.0448
   98MOL0     C13115   1.136   3.149   9.887  0.4023  0.1812 -0.7904
   98MOL0     C13116   1.130   3.299   9.857  0.1164 -0.2388 -0.4555
   98MOL0     C13117   0.997   3.364   9.853 -0.0743 -0.4813  0.6016
   98MOL0     C13118   1.004   3.514   9.838 -0.6573 -0.9657 -0.1831
   98MOL0     O13119   0.871   3.569   9.820  0.8184 -0.7051  0.2750
   98MOL0     C13120   0.852   3.697   9.855  0.8662 -0.2506 -0.7613
   98MOL0     C13121   0.932   3.807   9.824 -0.8381  0.3993 -0.5636
   98MOL0     C13122   0.897   3.947   9.844  0.4811 -0.5406 -0.8073
   98MOL0     C13123   1.005   4.048   9.824 -0.7338  0.0167  0.3174
   98MOL0     C13124   0.769   3.971   9.887 -0.4577 -0.3589  0.2566
   98MOL0     C13125   0.719   4.112   9.899  0.0841 -0.7861  1.1427
   98MOL0     O13126   0.754   4.208   9.809  0.7902 -0.1274  0.1322
   98MOL0     C13127   0.690   4.328   9.810 -0.1694  0.1718 -0.3192
   98MOL0     C13128   0.552   4.344   9.833 -0.2449 -0.3158 -0.7459
   98MOL0     C13129   0.489   4.471   9.830  0.2408 -0.1398 -0.1146
   98MOL0     C13130   0.560   4.590   9.813 -0.2465  0.3022 -0.0498
   98MOL0     O13131   0.496   4.716   9.823  0.0953 -0.4189 -0.2038
   98MOL0     C13132   0.579   4.830   9.830  0.2203  0.0574 -0.0053
   98MOL0     C13133   0.602   4.883   9.684  0.1633  1.2791 -0.0945
   98MOL0     C13134   0.744   4.947   9.681  0.1286  0.1657 -0.5748
   98MOL0     C13135   0.801   4.983   9.541 -0.1353  0.5157  0.3562
   98MOL0     C13136   0.940   5.050   9.530 -0.0993  0.1989  0.3441
   98MOL0     C13137   1.054   4.954   9.555 -0.9228  0.6191 -0.2579
   98MOL0     C13138   1.182   5.032   9.521 -0.1545  0.3854 -0.0810
   98MOL0     C13139   1.310   4.961   9.566 -0.6334  0.9775 -0.4649
   98MOL0    Cl13140   1.456   5.024   9.482 -0.6982  0.1566  0.1741
   98MOL0     C13141   0.698   4.567   9.774  0.3596  0.0746 -0.2672
   98MOL0     C13142   0.756   4.443   9.780 -0.2146 -0.3477  0.4263
   98MOL0     O13143   0.657   4.137  10.003 -0.4396 -0.0618 -0.9616
   98MOL0     C13144   0.681   3.860   9.916  0.1604  1.1361 -0.3224
   98MOL0     C13145   0.720   3.731   9.906  0.3068  0.7146  0.5778
   98MOL0     N13146   0.907   3.055   9.914  0.5678  0.3997 -0.1526
   98MOL0     N13147   0.815   3.024   9.830 -0.6158 -0.2772  0.7272
   98MOL0     C13148   0.754   3.331   8.696  0.4201 -0.2973  0.2283
   98MOL0     C13149   0.687   3.283   8.582 -1.0602  0.2859 -0.3644
   98MOL0     C13150   0.348   3.158   8.283  0.0826  0.6755 -0.5406
   98MOL0     C13151   0.435   3.182   8.186  0.3995 -0.8624 -0.6257
   98MOL0     C13152   0.393   3.179   8.053 -0.5469 -0.6063  0.3554
   98MOL0     C13153   0.267   3.147   8.022 -0.9123 -0.5970 -0.4542
   98MOL0     O13154   0.247   3.158   7.890  0.2747 -0.6798  0.3813
   98MOL0     C13155   0.194   3.044   7.818 -0.1912 -0.6960  0.3187
   98MOL0     C13156   0.194   3.080   7.670 -0.2238  0.0241  1.2536
   98MOL0     C13157   0.332   3.119   7.626  0.1205  0.7629  0.7360
   98MOL0     C13158   0.354   3.124   7.475  0.8269  0.1539  0.3683
   98MOL0     C13159   0.461   3.221   7.427 -0.2278 -0.2725  0.3776
   98MOL0     C13160   0.539   3.284   7.363 -0.2356 -0.0548 -0.4753
   98MOL0     C13161   0.182   3.107   8.116 -0.6844  0.4259 -0.0672
   98MOL0     C13162   0.216   3.108   8.244 -1.3428 -0.5151  0.2302
   98MOL0     H13163   0.382   3.222   8.706  0.3727  0.1281  0.8521
   98MOL0     H13164   0.497   3.318   8.905 -0.8244  3.3759 -1.0623
   98MOL0     H13165   0.903   3.316   8.964  1.5938 -0.4878  0.2366
   98MOL0     H13166   0.925   3.468   8.880 -1.3435  1.3827 -0.3055
   98MOL0     H13167   0.984   3.517   9.104  0.0584 -0.8035  0.6488
   98MOL0     H13168   0.813   3.581   9.107 -2.5437 -2.2134  1.2467
   98MOL0     H13169   0.730   3.396   9.199  0.1631 -0.1607 -1.9429
   98MOL0     H13170   0.875   3.300   9.182  3.1359  0.1027  0.3636
   98MOL0     H13171   0.982   3.401   9.380 -0.3551  0.5874  0.1971
   98MOL0     H13172   0.876   3.542   9.374  0.1638  0.8424 -1.8154
   98MOL0     H13173   0.812   3.371   9.561 -3.0585 -0.6941  1.0421
   98MOL0     H13174   0.685   3.378   9.451 -0.9672 -0.4507  0.8211
   98MOL0     H13175   0.771   3.165   9.345  1.8356  0.7411 -1.4195
   98MOL0     H13176   0.921   3.181   9.442  0.1847  1.7425 -2.2998
   98MOL0     H13177   0.727   3.190   9.636  0.2537  2.1045 -2.0286
   98MOL0     H13178   0.631   3.101   9.516 -1.0643  0.2067  1.2776
   98MOL0     H13179   0.868   2.966   9.518  0.0840 -1.2523  0.0230
   98MOL0     H13180   0.721   2.924   9.612 -2.1167  0.8952 -1.5032
   98MOL0     H13181   1.071   3.038   9.632  1.2526 -1.8419  0.1034
   98MOL0     H13182   1.149   3.144   9.996  1.2430  1.6922 -0.7906
   98MOL0     H13183   1.226   3.106   9.841  1.3069  2.1672 -0.9844
   98MOL0     H13184   1.172   3.308   9.756  0.5277 -1.0419 -0.3546
   98MOL0     H13185   1.194   3.351   9.929 -0.9082  1.1618 -0.4933
   98MOL0     H13186   0.942   3.338   9.944  0.2717 -3.3467  0.0869
   98MOL0     H13187   0.947   3.323   9.764  0.2482 -0.5797  0.4662
   98MOL0     H13188   1.074   3.530   9.755  0.4957 -2.2290  0.4921
   98MOL0     H13189   1.056   3.548   9.928 -1.1672  0.2850 -0.3426
   98MOL0     H13190   1.032   3.775   9.795 -0.3764  0.0756  1.2812
   98MOL0     H13191   0.986   4.089   9.725 -1.9816 -1.2743  0.0055
   98MOL0     H13192   1.013   4.130   9.897 -1.8809 -1.1341  1.8106
   98MOL0     H13193   1.099   3.992   9.823 -2.1956 -2.7471 -2.9720
   98MOL0     H13194   0.480   4.267   9.860  0.7188 -0.1869  2.6407
   98MOL0     H13195   0.383   4.481   9.852  0.4902 -0.2491  1.2143
   98MOL0     H13196   0.537   4.907   9.895  0.6858 -1.8563  2.6946
   98MOL0     H13197   0.677   4.811   9.874  0.8339  1.7157 -0.5897
   98MOL0     H13198   0.583   4.799   9.616 -1.2539  1.5742 -0.1050
   98MOL0     H13199   0.528   4.962   9.664 -0.0881  1.1266  0.2289
   98MOL0     H13200   0.816   4.882   9.733  1.9685  2.5842  0.1037
   98MOL0     H13201   0.732   5.039   9.739 -1.8317 -0.0160 -0.6303
   98MOL0     H13202   0.797   4.893   9.480 -0.4287  2.1370 -2.1896
   98MOL0     H13203   0.723   5.051   9.506 -0.2057  1.4604  2.2084
   98MOL0     H13204   0.935   5.135   9.597  0.2060  1.5323 -1.2563
   98MOL0     H13205   0.951   5.082   9.426  1.2858 -2.0737 -0.2958
   98MOL0     H13206   1.061   4.927   9.660 -2.1179  0.4989 -0.1947
   98MOL0     H13207   1.051   4.862   9.496  1.3167 -0.4268  1.1312
   98MOL0     H13208   1.192   5.128   9.573 -0.8137  0.9646 -1.0091
   98MOL0     H13209   1.188   5.049   9.414 -0.4708 -0.0350 -0.1675
   98MOL0     H13210   1.305   4.855   9.539  2.7116  0.7382 -0.5122
   98MOL0     H13211   1.320   4.956   9.675 -1.4198  2.4035 -0.3060
   98MOL0     H13212   0.765   4.652   9.766 -0.4332  1.2982  3.7852
   98MOL0     H13213   0.858   4.426   9.747 -0.5699 -0.1234 -0.8281
   98MOL0     H13214   0.584   3.885   9.958  0.4444  0.2178  0.9279
   98MOL0     H13215   0.636   3.665   9.924 -2.8185  4.9700  3.9029
   98MOL0     H13216   0.859   3.358   8.684  0.0945  0.5471 -0.7925
   98MOL0     H13217   0.756   3.282   8.498  0.4511  3.3309  0.6931
   98MOL0     H13218   0.537   3.212   8.206  0.4077 -1.3085  0.0233
   98MOL0     H13219   0.468   3.215   7.984  1.2047 -0.9409  2.0114
   98MOL0     H13220   0.237   2.944   7.831  0.5358 -0.4442 -0.0691
   98MOL0     H13221   0.090   3.038   7.852 -0.5603 -0.5875 -0.7391
   98MOL0     H13222   0.128   3.163   7.641  0.2707  1.2015  3.3154
   98MOL0     H13223   0.155   2.999   7.608  0.3397  0.9941 -0.4221
   98MOL0     H13224   0.417   3.065   7.669 -0.1625 -1.5455 -1.3560
   98MOL0     H13225   0.337   3.227   7.643  2.3299  2.1522 -5.8438
   98MOL0     H13226   0.256   3.147   7.432  0.3553 -1.0251  0.7787
   98MOL0     H13227   0.377   3.020   7.449  3.0499  0.4430  0.9845
   98MOL0     H13228   0.612   3.355   7.330  1.2001 -1.1485  0.2607
   98MOL0     H13229   0.094   3.055   8.079 -2.0591  0.8775  2.4024
   98MOL0     H13230   0.142   3.063   8.308 -0.9285  0.3381  1.3415
   99MOL0     O13231   5.094   6.456   8.038  0.1004  0.0762  0.8813
   99MOL0     C13232   5.149   6.556   7.997 -0.2325 -0.1824 -0.0716
   99MOL0     O13233   5.086   6.663   7.947 -0.2416 -0.5946  0.2616
   99MOL0     C13234   4.957   6.654   7.940 -0.0293  0.3448 -0.4785
   99MOL0     C13235   4.876   6.635   8.054  0.3658 -0.7886 -0.2781
   99MOL0     C13236   4.735   6.618   8.049  0.9037 -0.3819  0.1068
   99MOL0     C13237   4.667   6.623   7.913 -0.1897 -0.0507  0.1210
   99MOL0     O13238   4.537   6.618   7.881 -0.6218  0.0273  0.6351
   99MOL0     C13239   4.435   6.606   7.981  0.6385  0.4499 -0.3105
   99MOL0     C13240   4.332   6.520   7.906 -0.3570  0.0286  0.3836
   99MOL0     C13241   4.218   6.455   7.978  0.2742 -0.2846 -0.1623
   99MOL0     C13242   4.169   6.537   8.093  0.3053 -0.9861 -0.5245
   99MOL0     C13243   4.019   6.551   8.125 -0.2468 -0.2948 -0.0365
   99MOL0     C13244   4.003   6.608   8.265  0.3333 -0.1150  0.2229
   99MOL0     C13245   3.859   6.634   8.297 -0.1435 -0.2252 -0.4363
   99MOL0     C13246   3.842   6.735   8.416  0.7040  0.4059  0.2353
   99MOL0     N13247   3.700   6.760   8.445  0.0475  0.1158 -0.3470
   99MOL0     C13248   3.603   6.779   8.352  0.4331  0.9577  0.1687
   99MOL0     C13249   3.482   6.776   8.421 -0.1141  1.2593 -0.0243
   99MOL0     C13250   3.339   6.780   8.359 -0.3754  0.5313  0.8745
   99MOL0     C13251   3.306   6.642   8.297 -0.0634  0.2119  0.7247
   99MOL0     C13252   3.170   6.637   8.228  0.5013 -0.2189 -0.1725
   99MOL0     C13253   3.145   6.499   8.160  0.5119 -0.1981 -0.5774
   99MOL0     O13254   3.143   6.387   8.254 -0.2101 -0.0690 -0.3582
   99MOL0     C13255   3.034   6.375   8.344 -0.8660  0.1744  0.4930
   99MOL0     C13256   2.910   6.381   8.304  0.7357 -0.4770 -0.3792
   99MOL0     C13257   2.801   6.365   8.396 -0.8671 -0.6344 -0.4347
   99MOL0     C13258   2.669   6.382   8.323 -0.2527 -0.8945  0.0914
   99MOL0     C13259   2.822   6.341   8.529  0.3428  0.5618  0.2187
   99MOL0     C13260   2.719   6.293   8.631 -0.6809  0.5764 -0.5225
   99MOL0     O13261   2.742   6.334   8.758  0.0477 -0.6727 -0.2754
   99MOL0     C13262   2.659   6.292   8.861 -0.6507 -0.1907  0.8650
   99MOL0     C13263   2.720   6.257   8.978  0.4491 -0.1807 -0.0576
   99MOL0     C13264   2.637   6.208   9.092 -0.4391  0.4004  0.1080
   99MOL0     C13265   2.502   6.220   9.092 -0.0496  0.4398 -0.5265
   99MOL0     O13266   2.434   6.164   9.194 -0.3505 -0.3267 -0.7661
   99MOL0     C13267   2.331   6.256   9.246  0.1127  0.1328 -0.2068
   99MOL0     C13268   2.274   6.184   9.365 -0.2844 -0.5632  0.0326
   99MOL0     C13269   2.369   6.103   9.460 -0.6541 -0.7541 -0.0067
   99MOL0     C13270   2.312   6.026   9.576 -0.8351 -0.5704 -1.0821
   99MOL0     C13271   2.218   6.105   9.665  0.6128  0.1985 -0.9375
   99MOL0     C13272   2.177   6.037   9.795 -0.8786  0.3369  0.2748
   99MOL0     C13273   2.050   6.084   9.862  0.1311 -0.3318 -0.5009
   99MOL0     C13274   1.915   6.022   9.826  0.7284  0.6540 -0.2905
   99MOL0    Cl13275   1.871   5.887   9.945  0.0250  0.0348 -0.1090
   99MOL0     C13276   2.441   6.242   8.963 -0.4944  0.2795 -0.6562
   99MOL0     C13277   2.519   6.293   8.856 -0.2715  0.3622  1.0692
   99MOL0     O13278   2.621   6.231   8.587 -0.5080 -0.3872 -0.0745
   99MOL0     C13279   2.961   6.351   8.573  0.1587 -0.1122 -0.4192
   99MOL0     C13280   3.058   6.375   8.477  0.2263  0.8423  0.7114
   99MOL0     N13281   3.519   6.753   8.553  0.2977  0.3847  0.7085
   99MOL0     N13282   3.644   6.731   8.564  0.1352 -0.1790  0.2335
   99MOL0     C13283   4.757   6.660   7.804  0.1760  0.1829 -0.3287
   99MOL0     C13284   4.893   6.663   7.817  0.6643 -0.4282  0.2905
   99MOL0     C13285   5.304   6.547   7.986  0.6000  0.5447 -0.7715
   99MOL0     C13286   5.371   6.642   7.907 -0.2161  0.5321 -0.7461
   99MOL0     C13287   5.501   6.640   7.882 -0.1499 -0.0294  0.3697
   99MOL0     C13288   5.576   6.528   7.930 -0.1245 -0.5158  0.1598
   99MOL0     O13289   5.713   6.507   7.899  0.1462  0.4292  0.2336
   99MOL0     C13290   5.731   6.442   7.767  0.1034 -0.2594  0.3043
   99MOL0     C13291   5.844   6.340   7.778 -0.0210 -0.3113 -0.9529
   99MOL0     C13292   5.804   6.208   7.836 -0.1784  0.1638  0.2940
   99MOL0     C13293   5.918   6.111   7.815  0.2092 -0.2080  0.5772
   99MOL0     C13294   5.887   5.981   7.870  0.5724  0.0850 -0.0339
   99MOL0     C13295   5.864   5.879   7.916  0.2463 -0.7222  0.2676
   99MOL0     C13296   5.513   6.429   8.013  0.2066  0.3812  0.8943
   99MOL0     C13297   5.384   6.450   8.049 -0.5640  0.5145  1.0437
   99MOL0     H13298   4.928   6.631   8.150 -0.1148  1.1747  0.1090
   99MOL0     H13299   4.677   6.605   8.139  1.2730 -0.9528  0.2746
   99MOL0     H13300   4.463   6.569   8.080 -1.7534 -0.9361 -0.0755
   99MOL0     H13301   4.379   6.699   7.990  0.1902  0.9007 -5.1938
   99MOL0     H13302   4.288   6.591   7.835 -2.3767 -0.9983  0.5272
   99MOL0     H13303   4.380   6.444   7.843 -1.4124  1.1432 -1.9180
   99MOL0     H13304   4.134   6.441   7.911 -0.2078  1.4885  0.0104
   99MOL0     H13305   4.231   6.355   8.020 -0.5080 -0.0799  0.5992
   99MOL0     H13306   4.223   6.478   8.167  2.7348 -0.2491 -1.6239
   99MOL0     H13307   4.214   6.637   8.097 -1.0191 -0.3501 -0.8489
   99MOL0     H13308   3.989   6.630   8.056  4.8402 -0.0644 -2.4403
   99MOL0     H13309   3.968   6.454   8.127 -0.6749 -0.0648  1.3295
   99MOL0     H13310   4.048   6.532   8.330  0.5435  0.2140  0.4660
   99MOL0     H13311   4.046   6.708   8.277  3.5286 -0.8203 -3.2927
   99MOL0     H13312   3.809   6.677   8.210 -1.9623 -2.4525 -0.5717
   99MOL0     H13313   3.809   6.539   8.318 -3.3109  0.9988 -1.8258
   99MOL0     H13314   3.900   6.824   8.390  0.1835  0.7768  0.3275
   99MOL0     H13315   3.883   6.686   8.505 -1.4561 -1.5414  0.2421
   99MOL0     H13316   3.611   6.794   8.245  0.4165 -3.1952 -0.5710
   99MOL0     H13317   3.264   6.811   8.433 -0.3308 -0.3278  1.2945
   99MOL0     H13318   3.342   6.844   8.271 -1.2812  0.4459  0.7705
   99MOL0     H13319   3.319   6.558   8.366  1.0800 -1.3184 -1.2500
   99MOL0     H13320   3.379   6.612   8.222  0.0970 -0.9069  1.3040
   99MOL0     H13321   3.168   6.721   8.158 -3.3694  2.1723  2.4397
   99MOL0     H13322   3.085   6.655   8.294  1.9772  0.3065  1.6621
   99MOL0     H13323   3.224   6.475   8.088 -0.5694 -1.5181 -1.3566
   99MOL0     H13324   3.055   6.501   8.098  2.3502  1.1244 -3.4786
   99MOL0     H13325   2.902   6.402   8.198  0.4042 -3.1135 -0.9368
   99MOL0     H13326   2.584   6.410   8.386  0.8469  0.4713  1.0227
   99MOL0     H13327   2.674   6.462   8.249 -3.2043 -1.3201 -0.7131
   99MOL0     H13328   2.630   6.301   8.260 -2.3773  0.6408 -0.6700
   99MOL0     H13329   2.828   6.266   8.985  0.4606  0.1000 -0.5301
   99MOL0     H13330   2.684   6.177   9.185  0.3346  2.0184  0.2879
   99MOL0     H13331   2.380   6.348   9.280  0.9197 -1.4377  3.3725
   99MOL0     H13332   2.256   6.277   9.170  0.0546  1.8358  0.3014
   99MOL0     H13333   2.227   6.258   9.430 -0.6218 -0.3782 -0.4127
   99MOL0     H13334   2.187   6.128   9.326 -2.3712  2.1992  0.4238
   99MOL0     H13335   2.448   6.169   9.497 -2.3938  2.6266 -1.8185
   99MOL0     H13336   2.431   6.035   9.401  1.5523  0.7899  0.4106
   99MOL0     H13337   2.253   5.949   9.525  1.4905 -4.6887  1.8386
   99MOL0     H13338   2.381   5.963   9.633 -1.4767  1.1713  1.8809
   99MOL0     H13339   2.122   6.129   9.618  0.5847 -1.3725 -1.7546
   99MOL0     H13340   2.246   6.208   9.689  0.5740 -0.5050  2.8241
   99MOL0     H13341   2.158   5.933   9.768 -3.0277  0.2185  1.9046
   99MOL0     H13342   2.267   6.031   9.857 -0.2457 -0.2989 -0.6824
   99MOL0     H13343   2.027   6.190   9.843 -1.3367 -0.4788  0.3266
   99MOL0     H13344   2.070   6.087   9.969 -0.5709  1.8105 -0.3717
   99MOL0     H13345   1.903   5.995   9.720 -2.0604  2.3380 -0.5207
   99MOL0     H13346   1.835   6.095   9.841  1.7226  1.5602  0.7970
   99MOL0     H13347   2.333   6.235   8.959 -0.3360 -2.6826 -2.3026
   99MOL0     H13348   2.477   6.323   8.760  2.4166  1.3836  0.1225
   99MOL0     H13349   2.981   6.336   8.678 -1.0489  2.8541  0.3337
   99MOL0     H13350   3.160   6.384   8.512  1.3645 -0.9939 -1.8138
   99MOL0     H13351   4.712   6.683   7.708  1.5234  3.5066 -0.2957
   99MOL0     H13352   4.951   6.682   7.727  1.5613 -0.8141  0.7739
   99MOL0     H13353   5.311   6.716   7.855 -2.8536 -1.3469 -0.5726
   99MOL0     H13354   5.540   6.721   7.819  1.7551 -0.5830  0.7677
   99MOL0     H13355   5.640   6.391   7.735  0.0983 -0.9132  1.3279
   99MOL0     H13356   5.757   6.518   7.693  0.5659 -0.3907  0.3298
   99MOL0     H13357   5.934   6.375   7.829  0.8285  1.8089 -3.6813
   99MOL0     H13358   5.871   6.322   7.674  1.9712  4.9819 -1.6381
   99MOL0     H13359   5.715   6.172   7.784  0.1026  0.2658 -0.2637
   99MOL0     H13360   5.776   6.216   7.942 -2.3497 -0.8361 -0.1474
   99MOL0     H13361   6.008   6.150   7.862 -0.7901  2.2505  0.6254
   99MOL0     H13362   5.934   6.110   7.707 -0.8870  2.4921  0.3033
   99MOL0     H13363   5.842   5.791   7.974  2.1203  0.2146  2.5833
   99MOL0     H13364   5.569   6.344   8.051  0.4338  0.9944  1.9803
   99MOL0     H13365   5.330   6.389   8.120 -3.2947  3.8330  2.0964
  100MOL0     O13366  10.392   4.766   0.154 -0.2994  0.4534 -0.1332
  100MOL0     C13367  10.457   4.851   0.213 -0.8819 -0.4733  0.1545
  100MOL0     O13368  10.522   4.968   0.160 -0.6913 -0.0106 -0.1226
  100MOL0     C13369  10.547   4.996   0.025 -0.1662  0.0283 -0.6745
  100MOL0     C13370  10.486   4.938  -0.086  0.6084 -0.5563  0.9862
  100MOL0     C13371  10.537   4.952  -0.213 -0.8296 -0.3667  0.6545
  100MOL0     C13372  10.649   5.036  -0.236  0.2713  0.0603 -0.5199
  100MOL0     O13373  10.698   5.061  -0.361  0.4742 -0.2272 -0.3620
  100MOL0     C13374  10.788   4.967  -0.409  0.3733  0.1913 -0.4329
  100MOL0     C13375  10.828   5.001  -0.543 -0.2259 -0.1959 -0.1687
  100MOL0     C13376  10.965   5.064  -0.542  0.1400 -0.2014 -0.6033
  100MOL0     C13377  11.011   5.095  -0.689 -0.2181 -0.7061 -0.8502
  100MOL0     C13378  11.157   5.153  -0.707  0.3862 -0.8081  0.5227
  100MOL0     C13379  11.151   5.249  -0.827 -0.8351 -0.1116  0.1642
  100MOL0     C13380  11.278   5.329  -0.854  0.2156  0.9551 -0.1229
  100MOL0     C13381  11.265   5.443  -0.956 -0.0887 -0.7020  0.5538
  100MOL0     N13382  11.402   5.496  -0.969  0.6221  0.5224  0.4912
  100MOL0     C13383  11.513   5.442  -1.019 -0.3763  0.1486 -0.0992
  100MOL0     C13384  11.611   5.531  -1.005  0.0015  0.0881 -0.4254
  100MOL0     C13385  11.753   5.545  -1.055 -0.5226 -0.2083  0.1762
  100MOL0     C13386  11.776   5.485  -1.202  0.1009  0.1415  0.4044
  100MOL0     C13387  11.676   5.538  -1.315  0.0361 -0.5225 -0.5720
  100MOL0     C13388  11.686   5.691  -1.331 -0.2311 -0.2819  0.3218
  100MOL0     O13389  11.589   5.756  -1.424  0.3438  0.4129  0.3203
  100MOL0     C13390  11.455   5.744  -1.390  0.5764  0.0535 -0.6328
  100MOL0     C13391  11.369   5.722  -1.497  0.1087 -0.6341  0.0572
  100MOL0     C13392  11.233   5.692  -1.472 -0.0503  0.4773 -0.0650
  100MOL0     C13393  11.144   5.684  -1.600 -0.9264  0.5321  0.5685
  100MOL0     C13394  11.182   5.681  -1.339 -0.5675  0.0535  0.0645
  100MOL0     C13395  11.050   5.624  -1.300 -0.3512  0.9538  1.1296
  100MOL0     O13396  11.043   5.591  -1.166 -0.1644 -0.8764 -1.1082
  100MOL0     C13397  10.936   5.519  -1.126 -0.3969  0.4752  0.7181
  100MOL0     C13398  10.827   5.586  -1.065  0.0227 -0.2437 -1.3629
  100MOL0     C13399  10.719   5.512  -1.011 -0.0957  0.5426  0.9601
  100MOL0     C13400  10.713   5.367  -1.015 -0.2423 -0.5890 -0.0434
  100MOL0     O13401  10.616   5.295  -0.956  0.9233 -0.3052  0.5987
  100MOL0     C13402  10.496   5.367  -0.908 -0.5087 -0.1067 -0.6776
  100MOL0     C13403  10.411   5.234  -0.885  0.0756 -0.2248  0.6958
  100MOL0     C13404  10.316   5.238  -0.765  0.2986  0.0266 -0.4255
  100MOL0     C13405  10.401   5.190  -0.647 -0.5714  0.5756  0.2044
  100MOL0     C13406  10.321   5.177  -0.519  0.1551  0.2493  0.6154
  100MOL0     C13407  10.243   5.056  -0.520  0.2703  0.2585 -1.0385
  100MOL0     C13408  10.182   5.012  -0.384 -0.2680  0.6003  0.2952
  100MOL0     C13409  10.130   4.872  -0.378 -0.0103  0.4135  0.3951
  100MOL0    Cl13410  10.254   4.754  -0.416 -0.0703 -0.1739 -0.1759
  100MOL0     C13411  10.822   5.303  -1.072  0.1734 -0.9929  0.4052
  100MOL0     C13412  10.932   5.377  -1.138  0.5416  0.6299  0.3741
  100MOL0     O13413  10.972   5.598  -1.389  0.0802  0.0074  0.2841
  100MOL0     C13414  11.272   5.713  -1.232 -0.5231 -1.1187 -0.4402
  100MOL0     C13415  11.411   5.736  -1.258  0.3975  0.9221  0.5849
  100MOL0     N13416  11.553   5.638  -0.934  0.4745 -0.6961  0.8063
  100MOL0     N13417  11.431   5.615  -0.915 -0.1524 -0.4578 -0.1222
  100MOL0     C13418  10.704   5.101  -0.125  0.8401 -0.1588 -0.9565
  100MOL0     C13419  10.661   5.078   0.008 -0.7799 -1.3168 -0.3513
  100MOL0     C13420  10.468   4.841   0.357  0.1554 -0.3473 -0.0930
  100MOL0     C13421  10.413   4.728   0.421  0.7390  0.3988  0.3923
  100MOL0     C13422  10.410   4.728   0.558  0.8880  0.4836 -0.6271
  100MOL0     C13423  10.462   4.839   0.634  0.8318  1.1324  0.2716
  100MOL0     O13424  10.483   4.813   0.766 -0.0258 -0.1740  0.4874
  100MOL0     C13425  10.415   4.904   0.856 -0.3231 -0.7844  0.3966
  100MOL0     C13426  10.371   4.832   0.981 -0.0481  0.5055 -0.6030
  100MOL0     C13427  10.484   4.772   1.057 -1.2079 -0.6079  0.4997
  100MOL0     C13428  10.476   4.621   1.090 -0.0560  0.5242 -0.1570
  100MOL0     C13429  10.368   4.595   1.189 -0.2628 -0.9806 -0.4799
  100MOL0     C13430  10.276   4.572   1.264 -0.0691 -0.0284 -1.2399
  100MOL0     C13431  10.525   4.943   0.574  0.3971  0.3442  0.2864
  100MOL0     C13432  10.524   4.946   0.432  0.2169  0.1463  0.7879
  100MOL0     H13433  10.401   4.876  -0.060 -1.8159  2.4698  0.8230
  100MOL0     H13434  10.485   4.904  -0.295 -2.9768  0.5953  1.4017
  100MOL0     H13435  10.876   4.953  -0.344  0.1194  2.7274  0.5887
  100MOL0     H13436  10.740   4.869  -0.409  0.2254  0.2625 -0.1063
  100MOL0     H13437  10.827   4.911  -0.606  2.5076  0.2855 -1.0595
  100MOL0     H13438  10.755   5.071  -0.582  0.6398 -0.4038 -2.3057
  100MOL0     H13439  10.963   5.157  -0.483  5.6962 -0.2247  0.1413
  100MOL0     H13440  11.032   4.999  -0.485  1.7793  1.6531 -0.2905
  100MOL0     H13441  11.017   4.995  -0.734  1.2148 -1.0726  0.0661
  100MOL0     H13442  10.936   5.159  -0.736  0.8371  3.0395  2.0401
  100MOL0     H13443  11.190   5.214  -0.622 -1.2292  4.9631 -2.4909
  100MOL0     H13444  11.237   5.082  -0.729  0.3408 -0.3300 -1.2978
  100MOL0     H13445  11.119   5.194  -0.916  1.0686  2.6426 -2.4403
  100MOL0     H13446  11.081   5.331  -0.807 -0.0133  1.3414 -2.4336
  100MOL0     H13447  11.322   5.360  -0.758  3.5734 -1.7365 -0.5858
  100MOL0     H13448  11.356   5.262  -0.891  2.0855  2.1318  1.4262
  100MOL0     H13449  11.204   5.515  -0.900  2.6488  0.8978  1.7119
  100MOL0     H13450  11.221   5.407  -1.049 -0.2534  0.6939  0.0557
  100MOL0     H13451  11.532   5.344  -1.061 -0.3464 -0.6145  1.6091
  100MOL0     H13452  11.759   5.654  -1.049 -1.2226 -0.1529 -0.0492
  100MOL0     H13453  11.816   5.497  -0.980  0.3135 -0.2919 -0.5617
  100MOL0     H13454  11.767   5.376  -1.191 -0.5519 -0.1011 -1.9568
  100MOL0     H13455  11.880   5.494  -1.234 -0.5516 -0.0071 -1.9069
  100MOL0     H13456  11.573   5.500  -1.312  0.6122 -2.2322 -1.0454
  100MOL0     H13457  11.712   5.507  -1.414  0.7167  1.8512 -1.1322
  100MOL0     H13458  11.771   5.708  -1.398 -1.9209  0.7329 -1.7003
  100MOL0     H13459  11.685   5.740  -1.233 -0.8476 -2.3315  1.4008
  100MOL0     H13460  11.397   5.732  -1.601 -1.4389 -1.5702 -0.4731
  100MOL0     H13461  11.054   5.745  -1.590 -1.0116  0.2209  1.8997
  100MOL0     H13462  11.195   5.694  -1.697 -3.0785 -3.1196 -1.1716
  100MOL0     H13463  11.100   5.585  -1.616  2.1503 -0.5936 -2.0928
  100MOL0     H13464  10.828   5.694  -1.055  3.3134 -0.2902  0.5208
  100MOL0     H13465  10.645   5.569  -0.957 -0.2482 -0.3249  1.6935
  100MOL0     H13466  10.504   5.429  -0.819 -1.5729  1.6809 -1.7747
  100MOL0     H13467  10.447   5.441  -0.972 -0.9553 -0.5445 -0.8538
  100MOL0     H13468  10.354   5.217  -0.977  2.8586 -0.4735 -1.0832
  100MOL0     H13469  10.484   5.153  -0.879  0.8022  0.2774 -0.7830
  100MOL0     H13470  10.234   5.170  -0.792 -0.4615  1.4291 -1.9169
  100MOL0     H13471  10.277   5.337  -0.738  1.4143  0.3584  0.0158
  100MOL0     H13472  10.456   5.097  -0.663  1.8424  1.9987 -0.2596
  100MOL0     H13473  10.490   5.253  -0.642  0.4646 -0.8173  0.2223
  100MOL0     H13474  10.258   5.266  -0.517 -1.4229 -0.5625 -3.1409
  100MOL0     H13475  10.386   5.169  -0.432 -0.4352 -0.8776  0.9784
  100MOL0     H13476  10.153   5.083  -0.575 -2.2573 -0.4347  2.4173
  100MOL0     H13477  10.289   4.969  -0.570 -0.2482  0.2078 -1.4358
  100MOL0     H13478  10.103   5.078  -0.347 -0.8048 -0.8112  1.7867
  100MOL0     H13479  10.257   5.013  -0.304  3.4679  5.4125 -2.6487
  100MOL0     H13480  10.037   4.861  -0.436  1.0872 -1.5762 -1.1160
  100MOL0     H13481  10.100   4.846  -0.276 -1.2014 -2.1406 -0.5260
  100MOL0     H13482  10.833   5.196  -1.061  1.1365 -1.0542 -0.9719
  100MOL0     H13483  11.014   5.318  -1.179 -1.5609 -0.3143 -2.8334
  100MOL0     H13484  11.234   5.708  -1.131  0.2865 -1.5233 -0.1497
  100MOL0     H13485  11.481   5.738  -1.175  1.6125  0.9118 -0.3996
  100MOL0     H13486  10.787   5.169  -0.143  1.7012 -1.3826 -1.8107
  100MOL0     H13487  10.714   5.132   0.085 -2.5721  2.8613 -1.7362
  100MOL0     H13488  10.376   4.640   0.370  0.5829  0.4763  0.3723
  100MOL0     H13489  10.394   4.637   0.615  1.0566 -1.3000 -3.2616
  100MOL0     H13490  10.484   4.987   0.871 -0.1291 -0.4791 -1.8941
  100MOL0     H13491  10.320   4.948   0.826  1.3639  0.5251 -3.7276
  100MOL0     H13492  10.309   4.743   0.962  1.9138 -0.6276 -2.0242
  100MOL0     H13493  10.307   4.889   1.049  1.5456  0.1083  1.3193
  100MOL0     H13494  10.504   4.833   1.146  1.9801  2.4282 -2.0265
  100MOL0     H13495  10.576   4.791   1.002 -0.7101  0.4107  1.6585
  100MOL0     H13496  10.570   4.582   1.130 -0.5036 -0.3653  0.0602
  100MOL0     H13497  10.457   4.560   1.001 -1.3765 -2.0223  1.7479
  100MOL0     H13498  10.189   4.554   1.324 -1.4192 -1.3342 -3.4713
  100MOL0     H13499  10.578   5.020   0.631  0.1713  0.3001  0.5591
  100MOL0     H13500  10.549   5.036   0.376 -2.8427  1.3047  1.0938
  101MOL0     O13501   5.207   1.101  11.355 -0.7221  0.5438 -0.5683
  101MOL0     C13502   5.235   1.024  11.447  0.5332  0.3558 -0.1642
  101MOL0     O13503   5.358   1.003  11.506  0.6154 -0.4308  0.2530
  101MOL0     C13504   5.476   1.071  11.466 -0.1883  0.0750  0.4885
  101MOL0     C13505   5.511   1.096  11.326  0.6749  0.1162  0.8174
  101MOL0     C13506   5.631   1.165  11.285 -0.0172  0.0268 -0.4636
  101MOL0     C13507   5.719   1.197  11.393 -0.6326  0.9612 -0.9972
  101MOL0     O13508   5.836   1.262  11.361  0.0407 -0.6796 -0.0887
  101MOL0     C13509   5.930   1.300  11.455 -0.2162 -0.1348 -0.0749
  101MOL0     C13510   6.057   1.349  11.376 -0.9353  0.0303  0.1980
  101MOL0     C13511   6.174   1.410  11.445  0.1365 -0.1573  0.1006
  101MOL0     C13512   6.121   1.519  11.535  0.4915 -0.3822  0.1156
  101MOL0     C13513   6.232   1.594  11.609  0.3594 -0.0522 -0.6136
  101MOL0     C13514   6.191   1.695  11.716 -0.1762  0.2303 -0.6909
  101MOL0     C13515   6.311   1.743  11.804 -0.2860  0.2032  0.5904
  101MOL0     C13516   6.257   1.861  11.886  0.0097  0.6887 -0.1812
  101MOL0     N13517   6.352   1.863  12.004 -0.0960 -0.5050  0.1966
  101MOL0     C13518   6.476   1.907  12.001 -0.0458  0.0040  0.3495
  101MOL0     C13519   6.517   1.913  12.126 -0.2058 -0.3791  0.0960
  101MOL0     C13520   6.645   1.974  12.181  0.2649 -0.2972 -0.4508
  101MOL0     C13521   6.705   1.890  12.294 -0.5189 -0.8484 -0.2345
  101MOL0     C13522   6.767   1.756  12.252  0.7221  0.1225  0.0870
  101MOL0     C13523   6.745   1.631  12.330 -0.1989  0.1938  0.2567
  101MOL0     O13524   6.605   1.596  12.312 -0.3524  0.1824  0.0352
  101MOL0     C13525   6.562   1.480  12.361 -0.2297  1.1031 -0.5080
  101MOL0     C13526   6.632   1.389  12.446  0.0622  0.3005 -1.0142
  101MOL0     C13527   6.564   1.275  12.500  0.4197  0.0264  0.3534
  101MOL0     C13528   6.656   1.194  12.598  0.4867  0.4284  0.3893
  101MOL0     C13529   6.430   1.247  12.460 -0.6239 -0.3982 -0.7383
  101MOL0     C13530   6.340   1.142  12.509 -0.0037  0.1120  0.2368
  101MOL0     O13531   6.205   1.171  12.515 -0.1354  0.4931  0.4245
  101MOL0     C13532   6.107   1.093  12.572  0.0195  0.5813 -1.4354
  101MOL0     C13533   6.123   0.973  12.652 -0.5456 -1.2965 -0.8417
  101MOL0     C13534   6.009   0.901  12.693  0.0747  0.0764 -0.3016
  101MOL0     C13535   5.881   0.958  12.662  0.7506 -0.3420 -0.4337
  101MOL0     O13536   5.762   0.903  12.706 -0.3675  0.0153 -0.1295
  101MOL0     C13537   5.756   0.824  12.828 -0.3633 -0.2349  0.6989
  101MOL0     C13538   5.652   0.896  12.907 -0.3528  0.0121 -0.2461
  101MOL0     C13539   5.601   0.806  13.035 -0.7807 -0.6266 -0.3605
  101MOL0     C13540   5.702   0.792  13.144  0.8691  0.5183 -0.5470
  101MOL0     C13541   5.664   0.690  13.246 -0.4507  0.8714  0.4451
  101MOL0     C13542   5.786   0.681  13.334 -0.6003  0.4154 -0.1183
  101MOL0     C13543   5.782   0.568  13.429  0.5939  0.2503  0.2587
  101MOL0     C13544   5.677   0.601  13.537 -0.2350 -1.0658  0.5961
  101MOL0    Cl13545   5.753   0.737  13.629  0.7254  0.3470 -0.3537
  101MOL0     C13546   5.865   1.077  12.594 -0.4130 -0.1304  0.9260
  101MOL0     C13547   5.979   1.142  12.553 -0.2435 -0.2494 -0.0835
  101MOL0     O13548   6.387   1.038  12.546  0.9094  0.5006 -0.6717
  101MOL0     C13549   6.374   1.333  12.363  0.1879  0.4896  1.0542
  101MOL0     C13550   6.434   1.440  12.326 -0.3854  0.4878 -0.5897
  101MOL0     N13551   6.412   1.879  12.204 -0.0758  0.2662 -0.3583
  101MOL0     N13552   6.316   1.850  12.135 -0.1635 -0.6686  0.3751
  101MOL0     C13553   5.698   1.147  11.524 -0.7053  0.1425  0.2732
  101MOL0     C13554   5.574   1.094  11.556 -0.5302  0.7085  0.2436
  101MOL0     C13555   5.111   0.967  11.512 -0.3636 -0.0604  0.3069
  101MOL0     C13556   5.115   0.834  11.562  0.4783 -0.2196  0.5759
  101MOL0     C13557   5.006   0.785  11.631 -0.1827 -0.6152  0.2138
  101MOL0     C13558   4.888   0.864  11.654 -0.8438 -0.2181 -0.1683
  101MOL0     O13559   4.778   0.827  11.727 -0.0151  0.8588  0.1706
  101MOL0     C13560   4.752   0.695  11.748 -0.1834  0.1558 -0.7230
  101MOL0     C13561   4.760   0.672  11.895 -0.0674  1.2376 -0.0945
  101MOL0     C13562   4.895   0.614  11.957 -0.1914  0.8678  0.7973
  101MOL0     C13563   4.878   0.573  12.096  0.9415 -0.1031  0.4972
  101MOL0     C13564   4.874   0.687  12.180 -0.2621  0.7148  0.3525
  101MOL0     C13565   4.882   0.777  12.266 -0.9484  0.5539 -0.2021
  101MOL0     C13566   4.891   0.995  11.600  0.2070 -0.4793 -0.6875
  101MOL0     C13567   4.996   1.041  11.519  0.3500  0.3830 -0.6140
  101MOL0     H13568   5.456   1.047  11.246  1.4472  0.1911  0.2327
  101MOL0     H13569   5.665   1.186  11.185  1.4916  3.2994  0.5966
  101MOL0     H13570   5.887   1.381  11.513 -1.3100 -1.1481  0.5799
  101MOL0     H13571   5.955   1.225  11.530 -2.9293 -2.0715 -0.9163
  101MOL0     H13572   6.088   1.255  11.328 -2.7784  1.4216 -4.2693
  101MOL0     H13573   6.048   1.424  11.296  3.9463  0.9868  0.2223
  101MOL0     H13574   6.224   1.327  11.496  1.4757  0.8283  0.4796
  101MOL0     H13575   6.249   1.455  11.379 -0.5453 -2.3641 -2.3237
  101MOL0     H13576   6.066   1.582  11.465 -0.7078 -0.9669  0.4938
  101MOL0     H13577   6.055   1.462  11.602  0.7860 -0.7229  0.1201
  101MOL0     H13578   6.291   1.516  11.659 -0.6201 -0.1417  0.4297
  101MOL0     H13579   6.289   1.646  11.531  0.8798  1.6973  0.8682
  101MOL0     H13580   6.138   1.775  11.662 -2.0335 -0.2284  0.3549
  101MOL0     H13581   6.121   1.651  11.788  1.0683 -0.5561  0.0717
  101MOL0     H13582   6.349   1.653  11.854 -1.9362 -2.6125 -2.7184
  101MOL0     H13583   6.386   1.767  11.729 -0.2076 -2.5879 -0.3503
  101MOL0     H13584   6.160   1.835  11.928  2.5313 -2.8104  4.5207
  101MOL0     H13585   6.244   1.950  11.825  2.5386  2.7257  1.9618
  101MOL0     H13586   6.531   1.940  11.914  0.4067  0.0497  0.6525
  101MOL0     H13587   6.719   1.971  12.101  1.6210  1.6614  0.6511
  101MOL0     H13588   6.627   2.080  12.198  3.3331  0.8677 -3.4709
  101MOL0     H13589   6.616   1.874  12.356 -0.9471 -2.4071 -1.1921
  101MOL0     H13590   6.773   1.945  12.360  1.0140 -1.0437 -1.5833
  101MOL0     H13591   6.876   1.758  12.251  0.8549 -2.6306  1.1827
  101MOL0     H13592   6.736   1.735  12.149  2.4837 -1.0206 -0.2462
  101MOL0     H13593   6.767   1.665  12.431 -2.8526 -0.9437  1.3019
  101MOL0     H13594   6.819   1.552  12.312  1.6153  0.2842  5.6606
  101MOL0     H13595   6.729   1.415  12.486 -0.7192 -0.4833  1.5585
  101MOL0     H13596   6.601   1.104  12.629  3.0403 -2.3545 -2.3805
  101MOL0     H13597   6.753   1.162  12.559  0.5622 -0.8220  1.4923
  101MOL0     H13598   6.682   1.265  12.677  2.1122  1.3827 -0.9495
  101MOL0     H13599   6.219   0.932  12.681  0.4384  1.7923  0.7749
  101MOL0     H13600   6.026   0.812  12.753  3.3373  0.0549 -1.0697
  101MOL0     H13601   5.726   0.721  12.802  0.8973  0.1174 -2.6781
  101MOL0     H13602   5.852   0.824  12.880  0.0111  0.8506  0.0319
  101MOL0     H13603   5.691   0.992  12.943 -0.5711  1.4533 -3.5281
  101MOL0     H13604   5.568   0.931  12.847 -1.0842  0.6311  1.0795
  101MOL0     H13605   5.566   0.709  12.999 -1.6999 -0.3520 -0.2327
  101MOL0     H13606   5.514   0.851  13.086 -1.1503 -0.0685 -1.4392
  101MOL0     H13607   5.788   0.762  13.083  1.6672  2.3020 -0.3710
  101MOL0     H13608   5.733   0.885  13.194  3.0442  0.5128 -1.7393
  101MOL0     H13609   5.649   0.596  13.193  1.7909  1.8507 -2.2137
  101MOL0     H13610   5.577   0.717  13.306 -1.1797 -3.1138  1.4211
  101MOL0     H13611   5.872   0.656  13.272  0.0274  2.6839 -0.2482
  101MOL0     H13612   5.798   0.775  13.389 -0.1196 -0.3199  1.0593
  101MOL0     H13613   5.880   0.553  13.475  0.2236 -0.4833  0.8406
  101MOL0     H13614   5.752   0.476  13.378 -2.8401  0.3921  1.7287
  101MOL0     H13615   5.672   0.512  13.600  1.7638 -0.5031  1.6519
  101MOL0     H13616   5.579   0.629  13.499 -0.0423 -1.3851 -0.1543
  101MOL0     H13617   5.766   1.120  12.580 -0.5745 -1.0101 -0.9384
  101MOL0     H13618   5.982   1.238  12.501  0.4872 -1.8697 -3.3063
  101MOL0     H13619   6.270   1.318  12.335 -0.0109  1.3330  1.3007
  101MOL0     H13620   6.366   1.500  12.268  0.7816  1.5379 -0.9152
  101MOL0     H13621   5.763   1.149  11.611  3.0123  0.4127 -2.2465
  101MOL0     H13622   5.558   1.064  11.659 -0.0681 -2.3150 -0.4671
  101MOL0     H13623   5.196   0.765  11.536  2.0840  1.8640 -0.2362
  101MOL0     H13624   4.995   0.683  11.667 -0.0428 -0.3842  0.9432
  101MOL0     H13625   4.648   0.676  11.721 -0.4504  1.0511 -0.3709
  101MOL0     H13626   4.810   0.625  11.689 -0.4018 -0.1336 -0.5953
  101MOL0     H13627   4.677   0.603  11.916  1.4746 -1.9512 -3.5265
  101MOL0     H13628   4.743   0.761  11.957  0.4866  0.0988  1.7694
  101MOL0     H13629   4.978   0.685  11.952  0.7202 -0.2465 -0.6478
  101MOL0     H13630   4.907   0.522  11.899 -0.6147 -0.6894  3.0454
  101MOL0     H13631   4.948   0.493  12.119  0.3451 -0.7492  0.1144
  101MOL0     H13632   4.781   0.524  12.112  1.6393 -1.2776  1.3151
  101MOL0     H13633   4.901   0.856  12.336  1.5091  2.8489 -3.1297
  101MOL0     H13634   4.805   1.057  11.626  1.7279  0.8288  1.5591
  101MOL0     H13635   4.976   1.140  11.479 -2.0215  0.6065  0.9551
  102MOL0     O13636   6.032   0.875   5.561  0.3159  0.0794  0.0905
  102MOL0     C13637   5.931   0.875   5.630 -1.2390 -0.0924 -0.0332
  102MOL0     O13638   5.802   0.830   5.599  0.1341 -0.4258 -0.6275
  102MOL0     C13639   5.797   0.785   5.470  0.1101 -0.5637 -0.3484
  102MOL0     C13640   5.851   0.670   5.420  0.5065  0.4993 -0.7327
  102MOL0     C13641   5.825   0.624   5.287  0.5036  0.4859 -0.4643
  102MOL0     C13642   5.731   0.695   5.211  0.4191  0.1652  1.0827
  102MOL0     O13643   5.691   0.634   5.094 -0.9454 -0.7646 -0.5970
  102MOL0     C13644   5.599   0.694   4.998  0.0567 -0.1450 -0.2518
  102MOL0     C13645   5.585   0.634   4.852 -0.8631  0.0329  0.8106
  102MOL0     C13646   5.723   0.569   4.803  0.4983 -0.0956 -0.1345
  102MOL0     C13647   5.710   0.513   4.659 -0.0221 -0.4691 -0.8373
  102MOL0     C13648   5.832   0.449   4.606 -1.4197  0.2416  0.6857
  102MOL0     C13649   5.865   0.315   4.678  0.0068  0.2809  0.5126
  102MOL0     C13650   6.010   0.271   4.640  0.1942  0.5769 -0.8960
  102MOL0     C13651   5.991   0.189   4.510  0.4616 -0.0434  0.4511
  102MOL0     N13652   6.115   0.196   4.435 -0.0587  0.3640  0.3749
  102MOL0     C13653   6.221   0.111   4.441  0.1634  0.0172  0.9369
  102MOL0     C13654   6.315   0.153   4.359  0.5165  1.4544 -0.0732
  102MOL0     C13655   6.445   0.094   4.350 -0.4852  0.0559  0.3618
  102MOL0     C13656   6.546   0.139   4.453 -0.2120 -0.7705 -0.1389
  102MOL0     C13657   6.560   0.290   4.461  0.6121 -0.1755 -0.1912
  102MOL0     C13658   6.489   0.346   4.583  0.1985  0.6420  0.7269
  102MOL0     O13659   6.537   0.281   4.704  0.2669 -0.6370  0.1707
  102MOL0     C13660   6.458   0.274   4.812  0.1337  0.3291 -0.3597
  102MOL0     C13661   6.484   0.332   4.940  0.7622 -0.4096  0.7389
  102MOL0     C13662   6.390   0.327   5.040 -0.3730  0.2588 -0.6427
  102MOL0     C13663   6.433   0.385   5.176  0.6434 -0.8142  1.1769
  102MOL0     C13664   6.272   0.252   5.027  0.4458  0.1700 -0.0300
  102MOL0     C13665   6.154   0.251   5.124 -0.3067  0.1829 -0.3091
  102MOL0     O13666   6.045   0.177   5.083  0.2923 -0.0795 -0.1381
  102MOL0     C13667   5.935   0.160   5.158  0.0094 -0.9058 -0.4280
  102MOL0     C13668   5.854   0.055   5.124  0.2026  0.5312  0.1510
  102MOL0     C13669   5.730   0.034   5.188  0.3514  1.0096  1.4793
  102MOL0     C13670   5.692   0.118   5.292  0.0038  0.4191  0.5621
  102MOL0     O13671   5.562   0.098   5.328  0.7097 -0.5990  0.6413
  102MOL0     C13672   5.541   0.106   5.471 -0.8072 -0.6239  0.6991
  102MOL0     C13673   5.475  -0.031   5.512  0.1182 -0.7585  0.0620
  102MOL0     C13674   5.522  -0.164   5.446 -0.3744  0.6591  0.9254
  102MOL0     C13675   5.668  -0.209   5.485 -0.2870  0.2800  0.0053
  102MOL0     C13676   5.694  -0.349   5.418  0.0043  0.6451  0.1475
  102MOL0     C13677   5.730  -0.344   5.275  0.7699 -0.4570  0.1132
  102MOL0     C13678   5.700  -0.479   5.211  0.4224  0.1046  0.3190
  102MOL0     C13679   5.762  -0.477   5.075 -1.3499 -0.2003  0.1667
  102MOL0    Cl13680   5.937  -0.523   5.093 -0.3489  0.1716 -0.1577
  102MOL0     C13681   5.780   0.213   5.344 -0.3656  0.5459  0.3284
  102MOL0     C13682   5.897   0.237   5.273 -0.3881  0.0838  0.3684
  102MOL0     O13683   6.174   0.288   5.238 -0.1779  0.3061 -0.9646
  102MOL0     C13684   6.252   0.184   4.901 -0.0742  0.4898  0.7583
  102MOL0     C13685   6.342   0.192   4.797 -0.6271 -0.0502  0.7416
  102MOL0     N13686   6.266   0.265   4.291 -0.2280  0.0636 -0.1625
  102MOL0     N13687   6.150   0.296   4.343 -0.0308  0.5071 -0.3180
  102MOL0     C13688   5.689   0.824   5.257  0.7327 -0.5235 -0.4463
  102MOL0     C13689   5.723   0.864   5.386 -0.4542 -0.8041 -0.4146
  102MOL0     C13690   5.951   0.924   5.772  0.2568 -0.4455  0.8443
  102MOL0     C13691   6.059   1.014   5.809 -0.7537 -0.2197  0.1893
  102MOL0     C13692   6.058   1.071   5.937 -0.5607 -0.3350  0.8165
  102MOL0     C13693   5.964   1.042   6.036 -0.1328 -0.2601 -0.6482
  102MOL0     O13694   5.975   1.114   6.157 -0.4993 -0.1617  0.3670
  102MOL0     C13695   5.880   1.090   6.259 -0.3265 -0.2063  0.1331
  102MOL0     C13696   5.909   1.173   6.378  0.2851 -0.0296  0.4333
  102MOL0     C13697   5.859   1.317   6.351  0.0428  0.3815 -0.5153
  102MOL0     C13698   5.880   1.413   6.471 -0.5373 -0.3854 -0.3988
  102MOL0     C13699   5.828   1.544   6.453 -0.2641 -0.5588  0.0046
  102MOL0     C13700   5.800   1.659   6.437 -0.5153  0.6253 -0.6886
  102MOL0     C13701   5.863   0.947   6.002 -0.1407  0.4144  0.3481
  102MOL0     C13702   5.859   0.893   5.872  1.1987  0.7227  0.1800
  102MOL0     H13703   5.900   0.612   5.498  0.4600  3.7026  1.8976
  102MOL0     H13704   5.864   0.533   5.244  0.1265  0.8232 -1.5541
  102MOL0     H13705   5.501   0.681   5.043  0.4256 -2.1327  0.0677
  102MOL0     H13706   5.632   0.797   4.982  0.0034  0.0105  0.5751
  102MOL0     H13707   5.512   0.552   4.852 -0.0655 -0.7374 -0.8572
  102MOL0     H13708   5.544   0.698   4.774 -0.2582 -0.1922  0.2946
  102MOL0     H13709   5.789   0.657   4.801 -0.6675  0.7968 -0.9424
  102MOL0     H13710   5.755   0.497   4.879  0.1670 -0.2688 -0.1540
  102MOL0     H13711   5.630   0.438   4.659  0.4649 -1.1036  1.7806
  102MOL0     H13712   5.689   0.595   4.590 -0.4025  1.4340  1.4568
  102MOL0     H13713   5.811   0.436   4.499 -0.9520 -2.9030  0.8650
  102MOL0     H13714   5.919   0.511   4.628  0.2195 -0.5063 -2.8676
  102MOL0     H13715   5.863   0.326   4.787 -1.0479 -1.0613  0.6481
  102MOL0     H13716   5.786   0.243   4.655  1.0271 -1.0544  1.0674
  102MOL0     H13717   6.077   0.357   4.629 -1.4996  1.7587 -2.6142
  102MOL0     H13718   6.046   0.203   4.718  3.7050  1.6877 -1.3593
  102MOL0     H13719   5.912   0.237   4.451  0.3185  0.6330  1.1872
  102MOL0     H13720   5.963   0.089   4.544  0.7199  0.0763  1.0133
  102MOL0     H13721   6.219   0.014   4.489 -0.3522 -0.9722 -0.9663
  102MOL0     H13722   6.447  -0.014   4.364  1.4237 -0.0425 -0.3765
  102MOL0     H13723   6.488   0.113   4.251 -1.8065  0.8421 -0.0888
  102MOL0     H13724   6.647   0.103   4.430  2.1389  3.8437  1.5707
  102MOL0     H13725   6.529   0.095   4.552  3.0300 -1.3414  0.2857
  102MOL0     H13726   6.502   0.333   4.379 -2.3214 -0.0339  1.7891
  102MOL0     H13727   6.662   0.329   4.457  0.1161  1.3614  1.3456
  102MOL0     H13728   6.381   0.329   4.579  0.0186  1.3768  1.8611
  102MOL0     H13729   6.509   0.452   4.569 -0.3915  0.6264 -0.3060
  102MOL0     H13730   6.564   0.404   4.946 -1.2185  1.8168  2.6775
  102MOL0     H13731   6.352   0.453   5.203 -2.0564 -1.5876 -3.7379
  102MOL0     H13732   6.454   0.301   5.242 -3.5301 -2.9474  0.1389
  102MOL0     H13733   6.519   0.451   5.160 -0.4997  0.5795  0.4895
  102MOL0     H13734   5.896   0.003   5.038  0.1433  0.0629  0.4031
  102MOL0     H13735   5.666  -0.050   5.163  3.3453 -1.3564  1.2380
  102MOL0     H13736   5.637   0.099   5.522  0.2159 -0.6316 -1.1101
  102MOL0     H13737   5.487   0.192   5.511 -0.7401 -1.5158  2.8447
  102MOL0     H13738   5.472  -0.030   5.622 -0.3860 -0.6477  0.0520
  102MOL0     H13739   5.369  -0.023   5.486  0.3953  1.6367 -0.5285
  102MOL0     H13740   5.525  -0.159   5.337  0.0788 -0.4908  0.8721
  102MOL0     H13741   5.451  -0.243   5.475 -0.3936  1.6918  4.0612
  102MOL0     H13742   5.737  -0.128   5.459  1.6448 -0.2939  2.8563
  102MOL0     H13743   5.666  -0.226   5.593 -1.9488 -3.0383 -0.4199
  102MOL0     H13744   5.613  -0.419   5.443  2.5145 -1.4366  3.3187
  102MOL0     H13745   5.785  -0.391   5.463  0.4155  0.0176 -1.2176
  102MOL0     H13746   5.664  -0.274   5.222  1.7744  1.4946  1.3036
  102MOL0     H13747   5.826  -0.296   5.257 -0.7440  1.4593 -4.3684
  102MOL0     H13748   5.593  -0.499   5.210  0.1433  1.4864 -0.0270
  102MOL0     H13749   5.739  -0.564   5.267 -5.8087 -2.5878  1.3520
  102MOL0     H13750   5.747  -0.383   5.020  0.6939  0.6411  0.9634
  102MOL0     H13751   5.704  -0.555   5.025  0.1850 -1.1883 -0.1071
  102MOL0     H13752   5.760   0.282   5.425 -3.0411 -0.0366  0.2420
  102MOL0     H13753   5.942   0.334   5.294  1.7571 -0.6885 -0.3805
  102MOL0     H13754   6.164   0.120   4.892  0.9079 -1.0716  1.8356
  102MOL0     H13755   6.314   0.135   4.709 -0.2432 -2.8802  2.3568
  102MOL0     H13756   5.625   0.888   5.196  1.0154 -0.2278 -0.4357
  102MOL0     H13757   5.696   0.965   5.413 -2.6911 -1.0693 -1.4778
  102MOL0     H13758   6.150   1.039   5.756 -0.6385 -1.8567 -0.4603
  102MOL0     H13759   6.132   1.149   5.956 -0.0079 -1.0340  1.5998
  102MOL0     H13760   5.776   1.102   6.226 -0.9566 -2.6889  0.9669
  102MOL0     H13761   5.893   0.984   6.283 -0.9192 -0.8214 -2.0310
  102MOL0     H13762   6.017   1.164   6.392  0.6562  2.4873 -0.3768
  102MOL0     H13763   5.860   1.131   6.466 -0.3529 -2.1213 -0.8263
  102MOL0     H13764   5.752   1.310   6.327 -0.1700 -0.3125  0.6017
  102MOL0     H13765   5.902   1.360   6.260 -0.9541 -1.5433 -1.9784
  102MOL0     H13766   5.986   1.433   6.488 -1.2711  5.3870 -0.6264
  102MOL0     H13767   5.844   1.372   6.567 -1.7448  3.2332  0.8623
  102MOL0     H13768   5.774   1.762   6.422  1.5925  1.4362  0.7077
  102MOL0     H13769   5.794   0.920   6.082 -2.1392  0.2520 -1.3629
  102MOL0     H13770   5.773   0.828   5.863  1.2103  0.6140  0.7740
  103MOL0     O13771   3.688   9.913   7.319  0.1555  0.1873 -0.2855
  103MOL0     C13772   3.646   9.848   7.417  0.9595  0.6444 -0.5942
  103MOL0     O13773   3.647   9.889   7.546 -0.3390 -0.0378  0.4982
  103MOL0     C13774   3.701  10.009   7.581 -0.7938 -1.7151 -1.0059
  103MOL0     C13775   3.842  10.029   7.569 -0.5662 -0.1785  0.2968
  103MOL0     C13776   3.897  10.157   7.609  0.6914  0.4716  0.1920
  103MOL0     C13777   3.825  10.262   7.656  0.2516  0.2219  0.0498
  103MOL0     O13778   3.901  10.371   7.696 -0.5819 -0.4472  0.4706
  103MOL0     C13779   3.820  10.477   7.746  0.5482  0.9219 -0.2663
  103MOL0     C13780   3.917  10.595   7.786  0.2964 -0.5750  0.3442
  103MOL0     C13781   3.998  10.590   7.914 -0.4916  0.0749 -0.2569
  103MOL0     C13782   3.922  10.585   8.052  1.0163  0.0280  0.5860
  103MOL0     C13783   4.020  10.613   8.167 -0.5588 -0.3794  0.6454
  103MOL0     C13784   3.938  10.618   8.302 -0.9666  0.9632  0.4716
  103MOL0     C13785   4.034  10.640   8.424  0.5730 -0.5318  0.0779
  103MOL0     C13786   4.133  10.521   8.444  0.5749 -0.7340 -0.6906
  103MOL0     N13787   4.068  10.400   8.494  0.3921 -0.2685  0.2072
  103MOL0     C13788   4.014  10.385   8.621 -0.7846 -0.5708  0.4370
  103MOL0     C13789   3.974  10.256   8.627 -0.9278  0.3268 -1.4154
  103MOL0     C13790   3.928  10.167   8.743 -0.0183 -0.4617 -0.8742
  103MOL0     C13791   4.047  10.128   8.836 -0.1052  0.3662  0.0435
  103MOL0     C13792   3.994  10.048   8.958 -0.0207  0.1741  0.6008
  103MOL0     C13793   4.111   9.978   9.031 -0.0298  0.1074  0.4158
  103MOL0     O13794   4.170  10.076   9.112 -0.4422 -0.2241 -0.4880
  103MOL0     C13795   4.294  10.049   9.157 -0.0840 -0.7615  0.1791
  103MOL0     C13796   4.323   9.966   9.263  0.9323 -0.2259  0.1366
  103MOL0     C13797   4.458   9.950   9.304 -0.2484  0.3828 -0.7711
  103MOL0     C13798   4.478   9.861   9.419  0.7843  0.2375  0.2961
  103MOL0     C13799   4.565  10.017   9.229  1.0047 -0.0038 -0.8489
  103MOL0     C13800   4.707   9.998   9.254 -0.0006  0.1558  0.2962
  103MOL0     O13801   4.751   9.914   9.358 -0.1742 -0.0270  0.6595
  103MOL0     C13802   4.883   9.914   9.390  0.2578 -1.0096 -0.4035
  103MOL0     C13803   4.985   9.882   9.306  0.1386 -0.6909 -0.1884
  103MOL0     C13804   5.115   9.876   9.344 -0.3560  0.4127 -0.0188
  103MOL0     C13805   5.152   9.924   9.473 -0.2043  0.2724 -0.0481
  103MOL0     O13806   5.284   9.946   9.520 -0.0634  0.4553 -0.1322
  103MOL0     C13807   5.393   9.904   9.436  0.4354  0.9364 -0.4523
  103MOL0     C13808   5.471   9.787   9.502 -0.5400 -0.2864 -0.4230
  103MOL0     C13809   5.517   9.826   9.647  0.2477  0.2487 -0.0793
  103MOL0     C13810   5.614   9.717   9.715  0.5383  0.6360  0.9250
  103MOL0     C13811   5.661   9.760   9.860 -0.0867  1.2894  0.0526
  103MOL0     C13812   5.744   9.888   9.853  0.3987  0.1033 -0.0742
  103MOL0     C13813   5.799   9.915   9.992 -0.7997 -0.2839  0.2181
  103MOL0     C13814   5.884  10.045   9.987 -0.3982  1.4900  0.2660
  103MOL0    Cl13815   6.033   9.982   9.923 -0.1765 -0.3096 -0.0287
  103MOL0     C13816   5.050   9.978   9.554 -0.9200  0.6636  0.5403
  103MOL0     C13817   4.916   9.970   9.516 -0.8337  1.0902 -0.9180
  103MOL0     O13818   4.785  10.056   9.179 -0.1424 -0.2271 -0.3468
  103MOL0     C13819   4.522  10.098   9.119  0.1287 -0.5405 -0.8834
  103MOL0     C13820   4.396  10.108   9.076  0.2964  1.2090 -0.1717
  103MOL0     N13821   4.012  10.200   8.509 -0.2992  0.3217 -0.2789
  103MOL0     N13822   4.076  10.284   8.435  1.1372 -0.1081  0.2863
  103MOL0     C13823   3.683  10.246   7.666 -0.9291 -0.4942  0.8049
  103MOL0     C13824   3.629  10.121   7.630  0.4653 -0.0091 -0.8321
  103MOL0     C13825   3.571   9.721   7.400  0.2046  0.7690 -0.3949
  103MOL0     C13826   3.544   9.631   7.506  1.1615 -0.5061 -0.4180
  103MOL0     C13827   3.478   9.505   7.478 -0.0372  0.8846  0.4230
  103MOL0     C13828   3.466   9.461   7.350 -0.6808  0.0384  0.3302
  103MOL0     O13829   3.410   9.347   7.306  0.5544  0.1828 -0.0484
  103MOL0     C13830   3.354   9.254   7.403  0.3196  0.6142  0.1024
  103MOL0     C13831   3.304   9.128   7.347 -0.4308 -0.2095 -0.8622
  103MOL0     C13832   3.417   9.057   7.275 -0.6882 -0.4333 -0.4224
  103MOL0     C13833   3.398   8.913   7.216 -0.1772  0.0868  0.7497
  103MOL0     C13834   3.275   8.913   7.141 -0.0411 -0.3896  0.2162
  103MOL0     C13835   3.181   8.908   7.068 -0.4743 -0.4459  0.8539
  103MOL0     C13836   3.494   9.550   7.246 -1.1080 -0.1299 -0.2628
  103MOL0     C13837   3.542   9.677   7.267  0.4195  0.3218 -0.9821
  103MOL0     H13838   3.915   9.960   7.530  0.6742  0.6178  1.1387
  103MOL0     H13839   4.003  10.175   7.596  0.9564 -1.0002  0.0901
  103MOL0     H13840   3.751  10.522   7.675  0.4811 -2.5617 -2.6782
  103MOL0     H13841   3.764  10.438   7.832  2.6817 -2.3345 -0.1708
  103MOL0     H13842   3.987  10.611   7.704  3.0880  1.7697  2.9398
  103MOL0     H13843   3.856  10.686   7.781  0.3895 -0.5673 -1.2492
  103MOL0     H13844   4.062  10.502   7.911  0.3037  0.6721 -1.7415
  103MOL0     H13845   4.060  10.679   7.903  1.9811 -1.6703 -1.3183
  103MOL0     H13846   3.843  10.660   8.047 -0.0306 -1.1154 -1.8104
  103MOL0     H13847   3.857  10.498   8.065 -2.3050  2.1142 -0.7252
  103MOL0     H13848   4.103  10.541   8.164  0.1948  0.4373  1.3645
  103MOL0     H13849   4.071  10.708   8.150  0.4241 -0.6117  2.0943
  103MOL0     H13850   3.857  10.692   8.306 -1.5564  0.3527  0.0409
  103MOL0     H13851   3.886  10.524   8.322  3.4069 -0.8226  5.8315
  103MOL0     H13852   4.087  10.734   8.404 -1.3599  0.1587 -2.2906
  103MOL0     H13853   3.982  10.645   8.520  1.8732 -0.2538  0.7852
  103MOL0     H13854   4.215  10.548   8.511 -0.1269 -1.9404  0.7450
  103MOL0     H13855   4.177  10.493   8.348 -3.2569 -0.2034 -2.7768
  103MOL0     H13856   3.975  10.468   8.679 -0.5655  1.2689 -1.9271
  103MOL0     H13857   3.854  10.211   8.810 -0.3963 -1.8858 -0.3135
  103MOL0     H13858   3.891  10.075   8.696 -3.7192  0.5859 -0.3363
  103MOL0     H13859   4.092  10.221   8.872 -0.7069  0.7432 -0.1537
  103MOL0     H13860   4.119  10.071   8.777 -0.0303  0.7906 -0.2821
  103MOL0     H13861   3.920   9.976   8.920  1.7446  0.3877 -3.8994
  103MOL0     H13862   3.942  10.118   9.024  0.1143 -1.7163  2.8045
  103MOL0     H13863   4.189   9.934   8.969  1.6256  2.2598  0.8322
  103MOL0     H13864   4.073   9.903   9.101 -2.9143  1.3732  0.3591
  103MOL0     H13865   4.230   9.941   9.313 -0.8742  1.8478 -1.9606
  103MOL0     H13866   4.386   9.833   9.471  0.4666 -1.0402 -0.8907
  103MOL0     H13867   4.508   9.766   9.373 -1.8427 -0.2362 -0.5829
  103MOL0     H13868   4.559   9.896   9.484 -0.5513 -0.9402  2.7322
  103MOL0     H13869   4.959   9.846   9.206  1.2775 -0.1923 -0.6858
  103MOL0     H13870   5.186   9.823   9.280  0.1959 -3.0012  3.0623
  103MOL0     H13871   5.361   9.877   9.335 -0.3394 -0.2576  0.0739
  103MOL0     H13872   5.463   9.987   9.430 -1.6083  2.6557 -1.9245
  103MOL0     H13873   5.411   9.696   9.504 -1.1336  0.1067  1.6521
  103MOL0     H13874   5.554   9.754   9.439 -0.6533  2.2227 -2.0526
  103MOL0     H13875   5.428   9.829   9.710  0.4144 -1.6006  0.2918
  103MOL0     H13876   5.571   9.921   9.640  0.6388  0.1292  1.1942
  103MOL0     H13877   5.570   9.617   9.724  2.6770 -0.4850 -0.3595
  103MOL0     H13878   5.699   9.706   9.647 -0.2400 -2.8288  0.3301
  103MOL0     H13879   5.723   9.676   9.894  1.0995  0.3953 -3.8129
  103MOL0     H13880   5.579   9.777   9.930 -0.0829  2.9701 -0.3149
  103MOL0     H13881   5.824   9.869   9.781 -0.7121 -1.5760 -0.9153
  103MOL0     H13882   5.675   9.967   9.820 -0.5208  0.2499  2.0302
  103MOL0     H13883   5.862   9.831  10.022 -0.7415 -0.3858 -0.1861
  103MOL0     H13884   5.712   9.934  10.056 -0.1305  0.4319  0.9337
  103MOL0     H13885   5.893  10.077  10.091 -0.1581 -1.9188  1.3907
  103MOL0     H13886   5.838  10.117   9.918  1.0599  1.0591 -1.2235
  103MOL0     H13887   5.080  10.022   9.649  0.2822 -0.1241  0.5485
  103MOL0     H13888   4.834   9.996   9.583 -0.2147  2.4476 -0.6663
  103MOL0     H13889   4.595  10.150   9.058  0.1877 -1.0015 -1.2191
  103MOL0     H13890   4.387  10.176   8.991  1.7892  1.1010 -0.4493
  103MOL0     H13891   3.618  10.321   7.709  0.8206  1.0296  0.9362
  103MOL0     H13892   3.521  10.106   7.633  0.8109 -3.1299  2.3503
  103MOL0     H13893   3.574   9.668   7.603  0.9471  4.1870 -1.8845
  103MOL0     H13894   3.442   9.443   7.559  0.6303 -2.8489 -1.8704
  103MOL0     H13895   3.422   9.232   7.486  1.7988  1.8377 -0.7294
  103MOL0     H13896   3.271   9.295   7.461 -0.6639 -0.4015 -0.5487
  103MOL0     H13897   3.227   9.149   7.273  1.6151 -0.1386 -3.0897
  103MOL0     H13898   3.258   9.070   7.427  1.2187  2.9567  2.7220
  103MOL0     H13899   3.497   9.048   7.350 -2.2679 -3.4447  1.0965
  103MOL0     H13900   3.450   9.122   7.194 -2.0199  1.2112  0.2829
  103MOL0     H13901   3.384   8.840   7.296  0.7760  0.3117  1.1340
  103MOL0     H13902   3.481   8.882   7.152  1.4029  2.7827  1.3416
  103MOL0     H13903   3.108   8.895   6.991  2.2759 -2.1387 -1.6763
  103MOL0     H13904   3.496   9.515   7.143  3.7115 -5.6408  1.1987
  103MOL0     H13905   3.560   9.735   7.177  0.3713 -0.1915 -1.3273
  104MOL0     O13906   0.309   9.000   9.862 -0.3374 -0.1086 -0.3123
  104MOL0     C13907   0.286   9.001   9.984  0.7657 -0.8361  0.5901
  104MOL0     O13908   0.259   8.888  10.060 -0.4780 -0.2172 -0.6235
  104MOL0     C13909   0.309   8.768  10.028 -0.3844  0.7510  0.0731
  104MOL0     C13910   0.234   8.658  10.074  0.1448  0.1418 -0.1168
  104MOL0     C13911   0.266   8.523  10.049  0.6901 -0.5797 -0.8008
  104MOL0     C13912   0.391   8.499  10.000 -0.4087  0.1971 -1.2266
  104MOL0     O13913   0.456   8.381   9.972 -0.4531 -0.0799 -0.0868
  104MOL0     C13914   0.375   8.263  10.000 -0.7034 -0.1803  0.7538
  104MOL0     C13915   0.441   8.149   9.922 -0.1078  0.3205  0.5785
  104MOL0     C13916   0.437   8.175   9.771 -0.7199 -0.0768 -0.2292
  104MOL0     C13917   0.436   8.042   9.691 -0.6076 -0.1030  0.2986
  104MOL0     C13918   0.445   8.055   9.539  0.1148 -0.0859 -0.7959
  104MOL0     C13919   0.504   7.920   9.487  0.3824  0.2494  1.0567
  104MOL0     C13920   0.393   7.821   9.437 -0.2769  0.7936  0.3336
  104MOL0     C13921   0.311   7.862   9.302  0.2013 -0.5609 -0.2057
  104MOL0     N13922   0.236   7.748   9.274 -0.1261  0.7910  0.0226
  104MOL0     C13923   0.265   7.647   9.182 -0.4332  0.5985 -0.7964
  104MOL0     C13924   0.149   7.580   9.163  0.6184  0.1997 -0.5624
  104MOL0     C13925   0.132   7.476   9.067 -0.4398  0.6328  0.3660
  104MOL0     C13926  -0.004   7.455   8.991 -0.5681 -0.1255 -1.2654
  104MOL0     C13927  -0.051   7.589   8.927  0.5101  0.2333  0.4841
  104MOL0     C13928  -0.179   7.579   8.841  0.0935 -0.2494  0.3144
  104MOL0     O13929  -0.145   7.515   8.724 -0.1290  0.2031 -0.5206
  104MOL0     C13930  -0.237   7.429   8.670  0.4721 -0.3900 -0.5353
  104MOL0     C13931  -0.379   7.434   8.698 -0.8095 -0.6468 -0.3889
  104MOL0     C13932  -0.472   7.339   8.652 -0.9014  0.0111  0.3228
  104MOL0     C13933  -0.616   7.371   8.686 -0.0860 -0.2327  0.0547
  104MOL0     C13934  -0.423   7.250   8.563 -0.0112 -0.1060  0.0325
  104MOL0     C13935  -0.511   7.145   8.523 -1.3837  0.1839 -0.1878
  104MOL0     O13936  -0.608   7.115   8.601  0.1112  0.2992 -0.1306
  104MOL0     C13937  -0.707   7.040   8.541 -0.1689  0.4422  0.7430
  104MOL0     C13938  -0.831   7.103   8.518 -0.4775  0.0397  1.1578
  104MOL0     C13939  -0.932   7.033   8.456 -0.4727  0.8851 -0.6454
  104MOL0     C13940  -0.923   6.896   8.428  0.2788 -1.1524  0.2431
  104MOL0     O13941  -1.037   6.833   8.382 -0.8545  0.2772 -0.3520
  104MOL0     C13942  -1.048   6.690   8.390  0.0311 -0.0876 -1.1272
  104MOL0     C13943  -1.185   6.676   8.327  0.0264  0.7847 -0.2045
  104MOL0     C13944  -1.217   6.532   8.310  0.8250 -0.2210  0.6435
  104MOL0     C13945  -1.348   6.523   8.218 -1.0519  0.7489 -0.4045
  104MOL0     C13946  -1.451   6.432   8.272 -0.0648 -0.0735 -0.6582
  104MOL0     C13947  -1.544   6.377   8.166  0.0072  1.0926  0.7315
  104MOL0     C13948  -1.658   6.472   8.132  1.0148  0.3368 -0.2311
  104MOL0     C13949  -1.751   6.435   8.021  0.2469  0.6892  0.7188
  104MOL0    Cl13950  -1.829   6.283   8.080 -0.5181  0.0367 -0.1316
  104MOL0     C13951  -0.803   6.836   8.468  0.7738 -0.2800  0.2405
  104MOL0     C13952  -0.689   6.905   8.524  0.6425  0.1576  0.4537
  104MOL0     O13953  -0.489   7.094   8.414  0.5239 -0.3183 -0.1396
  104MOL0     C13954  -0.290   7.254   8.521 -0.0737  0.1715 -0.5772
  104MOL0     C13955  -0.198   7.348   8.565  0.2091 -0.1042  0.4417
  104MOL0     N13956   0.054   7.633   9.252 -0.1630 -0.8066 -0.2428
  104MOL0     N13957   0.106   7.736   9.314 -0.3872  0.4098  0.2810
  104MOL0     C13958   0.476   8.604   9.969 -0.1334  0.2673 -0.0063
  104MOL0     C13959   0.437   8.737   9.988 -0.1879 -0.0861 -0.7580
  104MOL0     C13960   0.278   9.128  10.050 -0.7864 -0.0511  0.0458
  104MOL0     C13961   0.250   9.145  10.188 -0.3385  0.5405 -0.2587
  104MOL0     C13962   0.241   9.273  10.246  0.8154  0.4711  1.3106
  104MOL0     C13963   0.289   9.386  10.181 -0.7552 -0.0251  0.0682
  104MOL0     O13964   0.302   9.510  10.239  0.2538  0.9561 -0.0502
  104MOL0     C13965   0.172   9.569  10.275  0.5949 -1.4687  0.0577
  104MOL0     C13966   0.119   9.660  10.171  0.7615  1.0530 -0.0771
  104MOL0     C13967   0.220   9.779  10.158 -0.4970 -0.8666  0.1424
  104MOL0     C13968   0.156   9.888  10.073 -0.0665  0.1121  0.6099
  104MOL0     C13969   0.254   9.996  10.064  0.3054  0.1647  0.1855
  104MOL0     C13970   0.344  10.077  10.060  0.1837  0.4716  1.6154
  104MOL0     C13971   0.334   9.366  10.051  0.4578 -1.2681 -0.1745
  104MOL0     C13972   0.327   9.246   9.985  1.1549 -0.0753  0.7009
  104MOL0     H13973   0.143   8.668  10.132 -0.2735  0.7488 -0.8520
  104MOL0     H13974   0.200   8.445  10.085  1.0050  0.0356  1.2216
  104MOL0     H13975   0.383   8.245  10.108  0.3689 -0.9989  0.5549
  104MOL0     H13976   0.269   8.267   9.973 -0.2906  0.7988 -0.8221
  104MOL0     H13977   0.543   8.132   9.960 -0.0216 -0.5264  0.0154
  104MOL0     H13978   0.379   8.065   9.955 -2.5178  1.9473  0.4192
  104MOL0     H13979   0.349   8.231   9.737  1.4562  3.4691 -0.5656
  104MOL0     H13980   0.525   8.237   9.751  0.3655 -0.3176  3.1535
  104MOL0     H13981   0.523   7.989   9.732  0.1980 -0.2020 -1.4287
  104MOL0     H13982   0.342   7.996   9.720 -1.3814  1.7484  0.8814
  104MOL0     H13983   0.356   8.092   9.487  0.5144  3.0582  0.5225
  104MOL0     H13984   0.513   8.132   9.502 -1.9317  2.4569  0.4274
  104MOL0     H13985   0.560   7.936   9.394 -2.0017 -0.1393 -0.5092
  104MOL0     H13986   0.568   7.871   9.561  2.5250  1.4780  0.1158
  104MOL0     H13987   0.440   7.724   9.421  0.1146  0.9641  0.4308
  104MOL0     H13988   0.327   7.797   9.520 -1.8198 -1.8636 -1.4991
  104MOL0     H13989   0.376   7.877   9.216 -0.2467 -2.2641 -0.8862
  104MOL0     H13990   0.254   7.954   9.322  1.1958 -0.0500  0.3448
  104MOL0     H13991   0.351   7.645   9.115 -0.5749  1.2056 -1.0089
  104MOL0     H13992   0.216   7.468   8.998  2.0494 -0.9700  3.3271
  104MOL0     H13993   0.136   7.383   9.124 -1.0615 -1.0576 -2.1496
  104MOL0     H13994  -0.071   7.416   9.068  0.6863  1.8377  0.9606
  104MOL0     H13995  -0.000   7.368   8.925  2.3511 -0.3548 -0.9403
  104MOL0     H13996   0.031   7.622   8.863  0.4881  0.3636  0.5228
  104MOL0     H13997  -0.071   7.663   9.005 -3.9269 -0.9460  0.7251
  104MOL0     H13998  -0.204   7.684   8.823 -1.0879 -0.4502  0.7343
  104MOL0     H13999  -0.253   7.525   8.900  1.2414 -1.2202  0.9086
  104MOL0     H14000  -0.402   7.528   8.747  2.8220 -0.2864  0.8799
  104MOL0     H14001  -0.683   7.377   8.600 -2.9194 -2.9643  1.8620
  104MOL0     H14002  -0.653   7.294   8.754 -2.1650 -0.0121 -0.7859
  104MOL0     H14003  -0.620   7.463   8.745 -4.3144  0.1010 -0.4953
  104MOL0     H14004  -0.853   7.207   8.538 -1.3614 -0.3440  2.2718
  104MOL0     H14005  -1.027   7.080   8.433  0.1639  3.9130  2.2060
  104MOL0     H14006  -0.963   6.637   8.347  0.7314  2.2503 -2.8617
  104MOL0     H14007  -1.050   6.657   8.494  0.0093  2.8106 -0.1083
  104MOL0     H14008  -1.267   6.723   8.383 -1.3008 -0.5342 -0.9585
  104MOL0     H14009  -1.178   6.725   8.229  0.9056  2.9957  0.8912
  104MOL0     H14010  -1.229   6.482   8.406 -1.8506  1.9538  1.5370
  104MOL0     H14011  -1.130   6.501   8.251  1.0268 -0.1090  0.8841
  104MOL0     H14012  -1.401   6.618   8.207 -1.7731  0.5994  1.4059
  104MOL0     H14013  -1.311   6.481   8.124 -0.7586 -0.7702  0.3509
  104MOL0     H14014  -1.512   6.476   8.352 -0.4234  1.0855 -1.5401
  104MOL0     H14015  -1.400   6.354   8.330 -1.0227  0.0055  0.3430
  104MOL0     H14016  -1.492   6.368   8.070  2.0187  0.8896  1.7880
  104MOL0     H14017  -1.580   6.279   8.199  1.4232 -0.1410 -1.1674
  104MOL0     H14018  -1.621   6.571   8.103  0.3521  0.4742 -0.6523
  104MOL0     H14019  -1.716   6.466   8.225  1.1826  3.1519  0.1520
  104MOL0     H14020  -1.708   6.414   7.923  0.8084 -0.7358  1.2462
  104MOL0     H14021  -1.836   6.501   8.004 -0.5486 -0.9307 -2.3860
  104MOL0     H14022  -0.785   6.729   8.458 -1.5844 -0.6652 -0.4692
  104MOL0     H14023  -0.593   6.864   8.555 -0.4321 -2.8723  0.1086
  104MOL0     H14024  -0.261   7.200   8.431  1.6301  1.4481 -0.8355
  104MOL0     H14025  -0.101   7.355   8.519  0.3071  2.9224  0.9391
  104MOL0     H14026   0.570   8.565   9.931 -1.5870 -1.8301 -1.6859
  104MOL0     H14027   0.519   8.806   9.972  2.5502 -2.6276  1.3289
  104MOL0     H14028   0.230   9.059  10.252  1.5421 -0.9247 -1.5416
  104MOL0     H14029   0.196   9.278  10.345 -2.4435  0.4679 -0.0703
  104MOL0     H14030   0.095   9.492  10.289 -2.6415  1.6790  0.9143
  104MOL0     H14031   0.171   9.633  10.364 -3.4930 -3.1760  1.5074
  104MOL0     H14032   0.019   9.686  10.208  0.6751 -0.5491  0.9250
  104MOL0     H14033   0.098   9.600  10.082  0.1592  0.6562  0.3203
  104MOL0     H14034   0.315   9.739  10.122  1.8305  1.6681  2.9561
  104MOL0     H14035   0.256   9.820  10.253  0.8280 -0.5078 -0.4869
  104MOL0     H14036   0.064   9.929  10.116 -1.7115 -1.4731 -1.1460
  104MOL0     H14037   0.131   9.842   9.976  0.1857 -0.7623  0.9493
  104MOL0     H14038   0.419  10.152  10.070 -0.4795  1.4270 -0.2237
  104MOL0     H14039   0.386   9.449  10.003  0.3577  0.2517  2.2162
  104MOL0     H14040   0.364   9.238   9.884  1.5357  1.4665  0.6916
  105MOL0     O14041   6.275   7.993   1.230  0.4701  0.1995 -0.1306
  105MOL0     C14042   6.299   8.071   1.319  0.2326  1.2863  0.5778
  105MOL0     O14043   6.246   8.193   1.325 -0.1306  0.2640  0.9191
  105MOL0     C14044   6.139   8.214   1.236 -0.7006 -1.0640  0.6312
  105MOL0     C14045   6.005   8.190   1.276 -1.0735  0.3700  0.5875
  105MOL0     C14046   5.897   8.246   1.204  0.6421 -0.6877  0.5576
  105MOL0     C14047   5.919   8.294   1.069 -0.8470 -0.0127  0.2104
  105MOL0     O14048   5.831   8.339   0.979 -0.5737 -0.1961  0.0313
  105MOL0     C14049   5.765   8.231   0.918 -0.5889  0.1756 -0.0066
  105MOL0     C14050   5.737   8.266   0.773 -0.5475 -0.2395 -0.9419
  105MOL0     C14051   5.640   8.384   0.755 -0.5471 -0.6877 -0.2562
  105MOL0     C14052   5.606   8.421   0.612  0.0706 -0.6003  1.0801
  105MOL0     C14053   5.527   8.554   0.603 -0.5685  0.2337 -0.7884
  105MOL0     C14054   5.481   8.592   0.463  0.4734  0.1847  0.6886
  105MOL0     C14055   5.574   8.562   0.348  0.8123  0.1529 -0.3801
  105MOL0     C14056   5.696   8.645   0.352 -0.2130 -0.0745  0.3245
  105MOL0     N14057   5.705   8.792   0.333 -0.4852 -0.0702 -0.3912
  105MOL0     C14058   5.780   8.846   0.222  1.1059 -0.4489 -0.2548
  105MOL0     C14059   5.706   8.963   0.198 -1.1533 -0.2163 -0.0885
  105MOL0     C14060   5.709   9.052   0.072 -0.4834  0.4004 -1.1410
  105MOL0     C14061   5.587   9.017  -0.017 -0.0148  0.0829 -0.2128
  105MOL0     C14062   5.567   9.107  -0.128  0.2191 -0.3435 -0.1208
  105MOL0     C14063   5.671   9.094  -0.247  0.0171 -0.0002  0.4158
  105MOL0     O14064   5.680   8.953  -0.274  0.5002  0.4438 -0.5745
  105MOL0     C14065   5.789   8.911  -0.349  0.5621 -1.1559 -0.4659
  105MOL0     C14066   5.810   8.779  -0.352 -0.2456  0.4059 -0.2556
  105MOL0     C14067   5.917   8.720  -0.420  0.8048  1.1181 -0.2992
  105MOL0     C14068   5.909   8.563  -0.413  0.3613  0.6207 -0.3123
  105MOL0     C14069   6.026   8.796  -0.461  0.7486 -0.7798  1.3515
  105MOL0     C14070   6.156   8.734  -0.497 -0.0456  0.0974  0.8682
  105MOL0     O14071   6.248   8.817  -0.561 -0.3259 -0.4957  0.2372
  105MOL0     C14072   6.372   8.776  -0.603 -0.5798 -0.2979 -0.6727
  105MOL0     C14073   6.426   8.835  -0.717  0.5135 -0.3598  0.3121
  105MOL0     C14074   6.558   8.816  -0.765 -0.6921 -0.2762  0.0410
  105MOL0     C14075   6.653   8.741  -0.693  0.0300  0.4340 -0.5667
  105MOL0     O14076   6.778   8.753  -0.725 -1.0756  0.1645 -0.1899
  105MOL0     C14077   6.889   8.731  -0.636 -0.3009 -0.3030 -0.3354
  105MOL0     C14078   7.022   8.723  -0.717  0.1783 -0.0886  0.2911
  105MOL0     C14079   7.061   8.855  -0.781  0.4264  0.0252 -0.3939
  105MOL0     C14080   6.979   8.872  -0.914  0.0966  0.8667  0.6778
  105MOL0     C14081   7.049   8.951  -1.025 -0.2193 -0.7804 -0.5359
  105MOL0     C14082   7.089   9.092  -0.988  0.3773 -0.1104  0.3352
  105MOL0     C14083   7.173   9.160  -1.094  0.1823  0.8234 -0.9526
  105MOL0     C14084   7.261   9.258  -1.028  0.3071  1.2726 -0.3230
  105MOL0    Cl14085   7.158   9.397  -0.983  0.0011  0.2561 -0.2622
  105MOL0     C14086   6.599   8.686  -0.568  0.2723  0.0844  0.2583
  105MOL0     C14087   6.463   8.688  -0.536  0.0204  0.5095 -0.1070
  105MOL0     O14088   6.176   8.609  -0.472 -0.8736 -0.0520 -0.0005
  105MOL0     C14089   5.996   8.937  -0.468 -0.2632  0.0786 -0.2227
  105MOL0     C14090   5.879   8.992  -0.411  1.7366  0.3826  0.4835
  105MOL0     N14091   5.616   8.986   0.298  0.4336 -0.2024  0.7530
  105MOL0     N14092   5.613   8.884   0.375 -0.1028  0.5193  0.1544
  105MOL0     C14093   6.058   8.301   1.025 -0.3283  0.2491  0.1706
  105MOL0     C14094   6.162   8.266   1.105 -0.8125 -0.3189 -0.6424
  105MOL0     C14095   6.392   8.015   1.419  0.6880  0.2746  0.8833
  105MOL0     C14096   6.375   8.061   1.545 -0.2062 -0.7321 -0.5545
  105MOL0     C14097   6.449   8.019   1.655 -0.2244  0.1203 -0.0811
  105MOL0     C14098   6.560   7.935   1.631 -0.0585 -0.4099 -1.0422
  105MOL0     O14099   6.639   7.887   1.731 -0.1353 -0.9779 -0.3108
  105MOL0     C14100   6.637   7.944   1.868  0.0315  0.2041 -0.1920
  105MOL0     C14101   6.745   7.876   1.952  0.1124  0.2871  0.0972
  105MOL0     C14102   6.882   7.931   1.902 -0.3625 -0.3536 -0.0632
  105MOL0     C14103   6.993   7.911   2.007  0.4019  0.1197  0.7298
  105MOL0     C14104   7.125   7.959   1.956 -0.3991 -0.1240  0.9527
  105MOL0     C14105   7.231   7.987   1.916 -0.7536  0.7576 -0.4003
  105MOL0     C14106   6.566   7.875   1.504  0.4334 -0.2951  0.0488
  105MOL0     C14107   6.479   7.905   1.400  0.5385 -0.4796  0.1686
  105MOL0     H14108   5.981   8.151   1.374  1.8103 -0.6670  0.9940
  105MOL0     H14109   5.794   8.244   1.239 -0.2552  0.0327 -1.8301
  105MOL0     H14110   5.830   8.143   0.917 -0.6955  0.0875 -1.4286
  105MOL0     H14111   5.676   8.205   0.976  1.0435  1.3606  3.2850
  105MOL0     H14112   5.824   8.294   0.712 -1.0677 -1.5990 -2.3789
  105MOL0     H14113   5.689   8.184   0.719 -0.5600  0.3070 -1.7872
  105MOL0     H14114   5.550   8.371   0.815 -0.7903  1.3362 -0.1286
  105MOL0     H14115   5.697   8.465   0.802 -0.0574  1.5104 -4.2070
  105MOL0     H14116   5.701   8.438   0.561  0.2947 -0.0843  1.6599
  105MOL0     H14117   5.553   8.338   0.564  1.7541  0.2279 -2.6238
  105MOL0     H14118   5.435   8.550   0.661  0.1191 -3.6344  0.2898
  105MOL0     H14119   5.598   8.622   0.653  1.2981 -2.8911  1.1415
  105MOL0     H14120   5.394   8.528   0.449  1.9725 -1.3579 -2.5354
  105MOL0     H14121   5.443   8.695   0.458  1.0087  0.3165 -2.0532
  105MOL0     H14122   5.597   8.456   0.354 -3.0949 -0.8521 -0.3533
  105MOL0     H14123   5.522   8.568   0.252 -0.9687 -0.4651  0.4999
  105MOL0     H14124   5.770   8.605   0.282  1.7498 -1.8435  3.1998
  105MOL0     H14125   5.737   8.633   0.452 -2.4736 -1.2967  1.1862
  105MOL0     H14126   5.852   8.794   0.159  2.9834 -1.5746  2.6427
  105MOL0     H14127   5.712   9.157   0.104  2.3139 -0.8083  3.6418
  105MOL0     H14128   5.802   9.029   0.019  0.8020  0.7713  0.8283
  105MOL0     H14129   5.500   9.032   0.047  0.0435  1.4660 -0.4319
  105MOL0     H14130   5.575   8.913  -0.050 -1.7324 -0.4195  1.7467
  105MOL0     H14131   5.580   9.210  -0.093  1.1032  1.1583 -4.2821
  105MOL0     H14132   5.462   9.093  -0.156  0.5758 -0.8518 -1.2499
  105MOL0     H14133   5.771   9.128  -0.221  0.7657 -0.5492 -1.5654
  105MOL0     H14134   5.616   9.136  -0.332 -1.2468 -0.1868  1.1165
  105MOL0     H14135   5.724   8.722  -0.318 -0.7336  0.5569 -1.2177
  105MOL0     H14136   5.806   8.528  -0.404  0.1153  0.3525 -3.2607
  105MOL0     H14137   5.948   8.522  -0.506  2.0821  2.6582 -0.5805
  105MOL0     H14138   5.967   8.532  -0.325 -0.9863  0.9007  0.7023
  105MOL0     H14139   6.361   8.895  -0.780  1.0211 -1.0567 -0.9196
  105MOL0     H14140   6.585   8.855  -0.862 -1.4645 -1.9253 -0.8752
  105MOL0     H14141   6.899   8.820  -0.573 -0.6912 -1.4518  1.4021
  105MOL0     H14142   6.885   8.635  -0.585 -0.5987 -0.7450 -1.1775
  105MOL0     H14143   7.101   8.701  -0.644  0.8451 -2.6495 -1.0934
  105MOL0     H14144   7.021   8.637  -0.785  1.6743  1.0144 -1.1968
  105MOL0     H14145   7.169   8.856  -0.797  0.3865  0.8089 -0.6735
  105MOL0     H14146   7.036   8.935  -0.711  0.2430  0.8375 -1.3603
  105MOL0     H14147   6.952   8.773  -0.953 -1.1622  1.8937 -1.2394
  105MOL0     H14148   6.878   8.911  -0.899 -0.2613  0.4708 -0.5520
  105MOL0     H14149   6.990   8.949  -1.117 -0.3127  2.2707 -0.6458
  105MOL0     H14150   7.139   8.899  -1.059 -1.3196 -2.4520 -1.0290
  105MOL0     H14151   6.995   9.146  -0.968  0.2103 -0.0926 -0.4757
  105MOL0     H14152   7.144   9.094  -0.893 -0.1438 -0.7198  0.6596
  105MOL0     H14153   7.121   9.217  -1.171  1.4282  1.4298 -1.3772
  105MOL0     H14154   7.249   9.101  -1.146 -0.2785  0.8553 -1.6790
  105MOL0     H14155   7.345   9.270  -1.097  1.5947  0.0740  0.9844
  105MOL0     H14156   7.307   9.224  -0.935  1.1770  1.5233 -0.6531
  105MOL0     H14157   6.664   8.634  -0.499 -0.3101 -0.2833  0.5376
  105MOL0     H14158   6.428   8.627  -0.454  0.6999  0.4464  0.1406
  105MOL0     H14159   6.079   8.995  -0.508 -0.4156  0.5386  0.1278
  105MOL0     H14160   5.864   9.099  -0.415  1.1947  0.4282  2.7153
  105MOL0     H14161   6.098   8.335   0.930  0.0993  2.2356  1.0147
  105MOL0     H14162   6.261   8.298   1.077 -0.3997 -1.4281 -0.4736
  105MOL0     H14163   6.298   8.134   1.568  0.2635  0.1885 -1.8080
  105MOL0     H14164   6.441   8.071   1.750 -1.3520  1.6782 -0.9940
  105MOL0     H14165   6.637   8.052   1.885 -1.5229  0.1088  0.5730
  105MOL0     H14166   6.547   7.911   1.920  0.0939 -1.9050 -1.3472
  105MOL0     H14167   6.740   7.768   1.935  0.9827 -0.8217  5.2330
  105MOL0     H14168   6.726   7.888   2.059 -0.2851 -0.7290  0.1536
  105MOL0     H14169   6.870   8.037   1.877 -2.0140  0.4057  3.3455
  105MOL0     H14170   6.914   7.876   1.813 -0.3646  0.8036 -0.8099
  105MOL0     H14171   6.998   7.804   2.029  0.4287  0.6971  3.9136
  105MOL0     H14172   6.964   7.963   2.098  0.1004 -0.8627  1.2039
  105MOL0     H14173   7.337   7.978   1.902 -0.1018  1.5281  3.0600
  105MOL0     H14174   6.641   7.797   1.496 -0.8239 -1.3611 -2.0955
  105MOL0     H14175   6.486   7.853   1.305  0.2809  0.1633 -0.2096
  106MOL0     O14176   4.503   4.099   0.052 -0.4936 -0.1371  0.2224
  106MOL0     C14177   4.511   3.997  -0.016 -0.1181 -0.5379 -0.6074
  106MOL0     O14178   4.498   3.990  -0.148 -0.0037  0.4669  0.0013
  106MOL0     C14179   4.469   4.105  -0.219  0.5144  0.0463  0.7627
  106MOL0     C14180   4.443   4.082  -0.358  0.6240  0.4057  0.3581
  106MOL0     C14181   4.428   4.194  -0.443 -1.5350  0.0629  0.2572
  106MOL0     C14182   4.444   4.326  -0.406  0.7892 -0.8639  0.0811
  106MOL0     O14183   4.432   4.431  -0.499 -0.5295  0.0089  0.0929
  106MOL0     C14184   4.357   4.404  -0.622  0.0020  0.1145  0.4084
  106MOL0     C14185   4.318   4.537  -0.690 -0.2336  0.7825  0.6551
  106MOL0     C14186   4.238   4.516  -0.817 -0.4342 -0.4341 -0.2935
  106MOL0     C14187   4.268   4.382  -0.898 -0.4116 -0.8200 -0.4898
  106MOL0     C14188   4.211   4.381  -1.040 -0.8434  0.5353 -1.0321
  106MOL0     C14189   4.052   4.371  -1.042 -0.2915  0.3464 -0.2326
  106MOL0     C14190   3.997   4.426  -1.184 -0.3331  0.0504  0.0479
  106MOL0     C14191   3.958   4.322  -1.282 -0.7465 -0.6741 -1.2536
  106MOL0     N14192   4.062   4.224  -1.316 -0.0910  0.1331 -1.1942
  106MOL0     C14193   4.156   4.240  -1.408 -0.9375  0.1644 -0.3554
  106MOL0     C14194   4.252   4.141  -1.399  0.0781 -0.0857 -0.5507
  106MOL0     C14195   4.369   4.093  -1.483  0.0488  0.9011  0.9744
  106MOL0     C14196   4.501   4.156  -1.445 -0.3713  0.1944  0.2601
  106MOL0     C14197   4.509   4.312  -1.463 -0.1159  0.3569  0.2183
  106MOL0     C14198   4.650   4.354  -1.433 -0.5253  0.4715  0.3701
  106MOL0     O14199   4.748   4.303  -1.526  0.4019  0.2143 -0.1884
  106MOL0     C14200   4.728   4.345  -1.655 -0.6502  0.0088 -0.7141
  106MOL0     C14201   4.729   4.481  -1.690 -0.1079 -0.4503 -0.2880
  106MOL0     C14202   4.743   4.532  -1.820  0.1314 -1.0064  0.6173
  106MOL0     C14203   4.730   4.685  -1.851  0.7979  0.7537 -0.4284
  106MOL0     C14204   4.757   4.426  -1.919  0.7367 -0.2051  0.1383
  106MOL0     C14205   4.758   4.453  -2.070 -0.1938  0.0656  0.8801
  106MOL0     O14206   4.758   4.344  -2.156  0.5293  0.8485  0.1780
  106MOL0     C14207   4.759   4.369  -2.286  0.8082 -0.2323  0.8809
  106MOL0     C14208   4.870   4.349  -2.363  0.0219  0.3757  0.4639
  106MOL0     C14209   4.862   4.378  -2.507 -0.4731 -0.0688  0.6950
  106MOL0     C14210   4.735   4.409  -2.569  0.0987 -0.4490 -0.9264
  106MOL0     O14211   4.723   4.431  -2.700 -0.2075  0.7511 -0.5709
  106MOL0     C14212   4.839   4.490  -2.769 -0.8665  0.5464  0.7365
  106MOL0     C14213   4.865   4.630  -2.714  0.0067 -0.5831 -0.3553
  106MOL0     C14214   4.759   4.730  -2.763 -0.2821  0.4310 -0.3718
  106MOL0     C14215   4.811   4.869  -2.730  0.3411  0.1164  0.2134
  106MOL0     C14216   4.709   4.972  -2.788 -0.5102 -0.7307 -1.0969
  106MOL0     C14217   4.750   5.110  -2.721  0.2900 -0.1217  0.3627
  106MOL0     C14218   4.637   5.212  -2.756  0.4397  0.7124 -1.3564
  106MOL0     C14219   4.642   5.352  -2.714 -0.4314 -0.3098 -0.4898
  106MOL0    Cl14220   4.505   5.453  -2.769 -0.1906 -0.7245 -0.1142
  106MOL0     C14221   4.621   4.416  -2.483  0.6670 -0.3683  0.6525
  106MOL0     C14222   4.636   4.395  -2.347 -0.1620 -0.2376  0.4678
  106MOL0     O14223   4.780   4.569  -2.108  0.2707 -0.6678 -0.2630
  106MOL0     C14224   4.747   4.292  -1.881  0.8386  0.3733 -0.6279
  106MOL0     C14225   4.733   4.253  -1.748  0.4896  0.4295  0.0866
  106MOL0     N14226   4.212   4.071  -1.283 -0.1988  0.6703  0.0356
  106MOL0     N14227   4.101   4.120  -1.243  0.0530 -0.5910  0.5976
  106MOL0     C14228   4.455   4.352  -0.274 -0.5887 -0.2329 -0.3901
  106MOL0     C14229   4.468   4.244  -0.179 -0.3506  0.2373  0.1138
  106MOL0     C14230   4.557   3.872   0.047 -0.1876 -0.9209 -0.9418
  106MOL0     C14231   4.553   3.867   0.190 -0.4768 -0.0636  0.4576
  106MOL0     C14232   4.612   3.760   0.248  0.3738  0.2009  0.8899
  106MOL0     C14233   4.666   3.644   0.178  0.5309 -0.1001  0.3825
  106MOL0     O14234   4.725   3.545   0.249  0.2442  0.0445 -0.0721
  106MOL0     C14235   4.642   3.435   0.294  0.4305 -0.1273  0.8411
  106MOL0     C14236   4.607   3.439   0.443 -0.8697 -0.6340 -0.7533
  106MOL0     C14237   4.724   3.369   0.523 -0.2389  0.7446 -0.2597
  106MOL0     C14238   4.711   3.391   0.673  0.8659 -0.0726  0.7053
  106MOL0     C14239   4.762   3.517   0.708  0.0453  0.0754 -1.0450
  106MOL0     C14240   4.803   3.628   0.719  0.4732  0.3095  0.0286
  106MOL0     C14241   4.658   3.651   0.040  0.9497 -0.2179  0.0693
  106MOL0     C14242   4.606   3.763  -0.028  0.3163 -0.1259  0.0882
  106MOL0     H14243   4.439   3.979  -0.391 -0.7150  1.4062 -3.0498
  106MOL0     H14244   4.409   4.168  -0.547  1.9382 -4.3526  0.4037
  106MOL0     H14245   4.416   4.341  -0.689 -2.3368 -0.4200 -1.2672
  106MOL0     H14246   4.263   4.357  -0.592 -0.8012  0.7007 -1.0966
  106MOL0     H14247   4.281   4.622  -0.632  1.0565  2.1412 -0.4297
  106MOL0     H14248   4.412   4.573  -0.732  1.1873 -1.9693  1.2948
  106MOL0     H14249   4.135   4.501  -0.781 -0.9910 -0.3398 -1.7566
  106MOL0     H14250   4.244   4.607  -0.877  1.2534 -1.0527 -1.1312
  106MOL0     H14251   4.375   4.371  -0.920 -0.3681  0.0268 -0.7245
  106MOL0     H14252   4.231   4.300  -0.836 -1.3440 -0.4103 -0.4777
  106MOL0     H14253   4.256   4.464  -1.095  1.2819 -2.0438 -3.4604
  106MOL0     H14254   4.257   4.299  -1.094 -1.1479 -0.1729 -0.2383
  106MOL0     H14255   4.014   4.271  -1.022 -0.7982  1.1361  3.6517
  106MOL0     H14256   4.002   4.440  -0.973 -1.7419  1.3012 -2.1401
  106MOL0     H14257   3.902   4.474  -1.162 -1.1412 -2.1929  1.7414
  106MOL0     H14258   4.071   4.493  -1.231  1.1690 -1.2722  0.4203
  106MOL0     H14259   3.927   4.370  -1.376 -2.1955 -0.7511 -0.8383
  106MOL0     H14260   3.869   4.278  -1.236 -2.0721  0.2632 -2.8083
  106MOL0     H14261   4.158   4.316  -1.485 -2.5379 -1.5514 -2.2056
  106MOL0     H14262   4.383   3.984  -1.477 -1.0413  0.4838 -2.1999
  106MOL0     H14263   4.345   4.113  -1.587  0.8099 -0.6813  0.4565
  106MOL0     H14264   4.568   4.119  -1.523  0.3664  1.0892  0.4500
  106MOL0     H14265   4.536   4.129  -1.345  0.1821 -1.8327 -0.4227
  106MOL0     H14266   4.434   4.349  -1.393 -0.0750  0.9644 -0.0542
  106MOL0     H14267   4.476   4.336  -1.564 -0.9424  1.8830  0.8275
  106MOL0     H14268   4.686   4.315  -1.337  0.0096  0.9180  0.3605
  106MOL0     H14269   4.658   4.463  -1.429  1.6693  0.4485 -1.3975
  106MOL0     H14270   4.714   4.543  -1.603 -0.3497 -3.3803  1.9380
  106MOL0     H14271   4.677   4.699  -1.945 -0.2508  0.7769  0.1519
  106MOL0     H14272   4.671   4.736  -1.775 -1.5793  0.6207 -2.0925
  106MOL0     H14273   4.835   4.715  -1.859  1.9434 -2.9616 -1.3843
  106MOL0     H14274   4.967   4.327  -2.320 -0.2814  0.7238  1.3595
  106MOL0     H14275   4.956   4.371  -2.560 -1.0914  0.2602 -0.4668
  106MOL0     H14276   4.932   4.432  -2.766  0.8392  3.1293  1.5585
  106MOL0     H14277   4.816   4.499  -2.875 -0.0411  1.7715  0.6492
  106MOL0     H14278   4.875   4.637  -2.605  0.7849  0.5207 -0.4811
  106MOL0     H14279   4.956   4.681  -2.747  0.5910  2.5551  4.9510
  106MOL0     H14280   4.667   4.705  -2.710 -0.6210 -2.5487 -2.0956
  106MOL0     H14281   4.743   4.728  -2.871 -1.0816  0.1331 -0.2519
  106MOL0     H14282   4.827   4.890  -2.624 -0.3902  1.1388  0.1398
  106MOL0     H14283   4.907   4.876  -2.782 -0.4898  0.5859 -1.3107
  106MOL0     H14284   4.607   4.960  -2.748  0.0930 -0.6182  0.5385
  106MOL0     H14285   4.708   4.980  -2.897 -0.7938 -0.1581 -1.0558
  106MOL0     H14286   4.771   5.111  -2.613  0.8559 -4.3960  0.4727
  106MOL0     H14287   4.834   5.144  -2.782  0.9232 -1.6271  0.3509
  106MOL0     H14288   4.545   5.176  -2.709  1.3035  0.6475  0.3784
  106MOL0     H14289   4.633   5.220  -2.865 -2.1767  3.1787 -1.1781
  106MOL0     H14290   4.740   5.388  -2.747  0.7144 -1.8174  1.0644
  106MOL0     H14291   4.640   5.353  -2.604 -3.0150 -1.4977 -0.4570
  106MOL0     H14292   4.518   4.426  -2.516  0.4585 -2.8847  0.3538
  106MOL0     H14293   4.549   4.376  -2.284  0.6052 -2.8915  0.8627
  106MOL0     H14294   4.752   4.212  -1.954 -0.1829 -1.0792  0.8234
  106MOL0     H14295   4.735   4.148  -1.718  4.1004  0.5933  0.8793
  106MOL0     H14296   4.450   4.455  -0.241 -0.0805 -0.2475 -0.2708
  106MOL0     H14297   4.488   4.278  -0.078  0.1459  0.5711 -0.0962
  106MOL0     H14298   4.515   3.951   0.246  0.2780  1.0996 -0.7192
  106MOL0     H14299   4.628   3.748   0.355  0.1079 -2.2520  0.7288
  106MOL0     H14300   4.548   3.438   0.238  0.0150 -0.1950  1.5254
  106MOL0     H14301   4.695   3.343   0.270 -0.2805 -0.2715 -0.2358
  106MOL0     H14302   4.513   3.389   0.468 -0.2889  0.1938  4.2060
  106MOL0     H14303   4.587   3.541   0.478  1.0996 -1.0149  1.8326
  106MOL0     H14304   4.822   3.407   0.491  0.0448  0.0485 -0.2352
  106MOL0     H14305   4.732   3.265   0.488  0.2268  1.4533 -2.4412
  106MOL0     H14306   4.766   3.316   0.730  1.4820 -0.7722 -0.7774
  106MOL0     H14307   4.607   3.397   0.707  0.5617  0.0241 -0.2207
  106MOL0     H14308   4.846   3.726   0.724 -2.3199  1.5945  0.6839
  106MOL0     H14309   4.684   3.566  -0.022  2.0627 -1.1530  1.7166
  106MOL0     H14310   4.606   3.770  -0.136 -3.4013  0.1756 -0.0160
  107MOL0     O14311   1.926  11.365   4.517 -0.1682 -0.1271 -0.5772
  107MOL0     C14312   1.883  11.343   4.628  1.2156  1.0032  1.1886
  107MOL0     O14313   1.751  11.324   4.654 -0.4207  0.5662  0.1420
  107MOL0     C14314   1.660  11.361   4.560 -1.1762 -0.4149 -0.0130
  107MOL0     C14315   1.643  11.269   4.458 -0.6952  0.1163 -0.1292
  107MOL0     C14316   1.547  11.295   4.364 -0.5122  0.1522  0.6538
  107MOL0     C14317   1.473  11.411   4.370  0.8841  0.3455 -0.4964
  107MOL0     O14318   1.379  11.433   4.275 -0.4712 -0.4015  0.3165
  107MOL0     C14319   1.411  11.387   4.140 -1.1002  0.6035  1.0793
  107MOL0     C14320   1.392  11.485   4.028 -0.6995  0.2563 -0.1514
  107MOL0     C14321   1.248  11.512   3.999  0.7929  0.5767 -0.6169
  107MOL0     C14322   1.214  11.599   3.883 -0.0974  0.3313  0.8297
  107MOL0     C14323   1.059  11.583   3.844 -0.3652 -0.1451  0.0490
  107MOL0     C14324   1.024  11.712   3.763  0.6389  0.7450 -0.1665
  107MOL0     C14325   0.994  11.839   3.846 -0.3374  0.1538 -0.6816
  107MOL0     C14326   0.912  11.941   3.769  0.2767  0.2128 -1.0473
  107MOL0     N14327   0.816  12.013   3.856  0.1494  0.3931  0.2203
  107MOL0     C14328   0.852  12.115   3.943  0.3250 -0.1466 -0.6046
  107MOL0     C14329   0.736  12.171   3.975  0.3426  0.4648 -0.6471
  107MOL0     C14330   0.722  12.268   4.097  0.0334  0.5518 -0.0489
  107MOL0     C14331   0.759  12.411   4.050  1.1862  0.0499 -0.3408
  107MOL0     C14332   0.782  12.506   4.168  0.5088 -1.0378 -0.5433
  107MOL0     C14333   0.870  12.449   4.276  0.1471  0.1015  0.3035
  107MOL0     O14334   0.910  12.567   4.351 -0.0528 -0.3043  0.0275
  107MOL0     C14335   1.001  12.550   4.458  0.1019  0.5061 -0.3483
  107MOL0     C14336   0.970  12.488   4.585  0.1109  0.0778 -0.7496
  107MOL0     C14337   1.068  12.470   4.685 -0.4618 -0.4267 -0.8269
  107MOL0     C14338   1.013  12.406   4.810 -0.6084 -0.0313  0.0473
  107MOL0     C14339   1.206  12.518   4.658  0.0401  0.8446  0.0705
  107MOL0     C14340   1.313  12.484   4.752  0.8131  1.0958  0.3199
  107MOL0     O14341   1.283  12.443   4.878  0.1190  0.3403  0.0795
  107MOL0     C14342   1.388  12.399   4.952 -0.4010  0.3723  0.3901
  107MOL0     C14343   1.467  12.484   5.021 -0.4016 -0.1452 -1.0889
  107MOL0     C14344   1.574  12.422   5.092  1.6568  0.5555  0.3833
  107MOL0     C14345   1.609  12.293   5.093 -0.4452  1.1865  0.5748
  107MOL0     O14346   1.719  12.268   5.183  0.0204 -0.4751 -0.3168
  107MOL0     C14347   1.768  12.134   5.163 -0.8110  0.7090 -0.7061
  107MOL0     C14348   1.881  12.112   5.270 -0.2828  0.0556 -0.8231
  107MOL0     C14349   1.838  12.032   5.394  0.0938 -0.7081  0.1867
  107MOL0     C14350   1.956  12.003   5.486  0.0362 -0.2058  0.3877
  107MOL0     C14351   1.895  11.937   5.614 -0.7953  0.0115 -0.4607
  107MOL0     C14352   1.941  11.790   5.643 -0.0884 -1.0368  0.1716
  107MOL0     C14353   1.864  11.711   5.754 -0.3028  0.1957  0.0103
  107MOL0     C14354   1.718  11.671   5.717 -1.0577 -0.9297 -0.1262
  107MOL0    Cl14355   1.666  11.532   5.802 -0.3790 -0.6077  0.1874
  107MOL0     C14356   1.525  12.200   5.014 -0.2275 -1.0239  0.3598
  107MOL0     C14357   1.410  12.258   4.955 -0.3156  0.1800 -0.1196
  107MOL0     O14358   1.422  12.480   4.701 -0.7847  0.2136  0.7486
  107MOL0     C14359   1.234  12.577   4.531  0.0834 -0.3904 -0.1403
  107MOL0     C14360   1.131  12.598   4.442  0.6374  0.0080  1.0784
  107MOL0     N14361   0.634  12.123   3.902 -0.6072 -0.1786  0.2844
  107MOL0     N14362   0.684  12.038   3.822 -0.1767  0.4732 -0.0428
  107MOL0     C14363   1.500  11.502   4.472  0.0480  0.4714 -0.5588
  107MOL0     C14364   1.594  11.475   4.576 -0.4404 -0.8453  0.6606
  107MOL0     C14365   1.981  11.332   4.737 -0.8208 -0.2910 -0.9488
  107MOL0     C14366   2.124  11.338   4.706  0.1818  0.2924 -0.0467
  107MOL0     C14367   2.219  11.343   4.811 -1.1280 -0.0934 -0.0752
  107MOL0     C14368   2.181  11.326   4.941 -0.2026  1.0033  0.0794
  107MOL0     O14369   2.283  11.341   5.037 -0.4370 -0.1330  0.2033
  107MOL0     C14370   2.258  11.314   5.181  0.7953  0.2630  0.0519
  107MOL0     C14371   2.374  11.254   5.245  0.1692  0.7023  0.2265
  107MOL0     C14372   2.511  11.340   5.253  1.1592 -0.3871  0.8888
  107MOL0     C14373   2.520  11.414   5.381  0.0870 -0.0413 -0.3069
  107MOL0     C14374   2.411  11.504   5.420  0.2040  0.1430  0.2328
  107MOL0     C14375   2.316  11.571   5.463  0.3703  0.5818 -0.2753
  107MOL0     C14376   2.040  11.315   4.971  0.0134 -0.3742  0.2716
  107MOL0     C14377   1.939  11.312   4.868  0.5136  0.2606 -0.3460
  107MOL0     H14378   1.696  11.175   4.442 -3.0787 -1.9022  2.6552
  107MOL0     H14379   1.527  11.214   4.294  3.2404  2.3097 -3.3980
  107MOL0     H14380   1.514  11.349   4.134 -1.4070 -0.0856 -0.7298
  107MOL0     H14381   1.354  11.298   4.113 -1.8753  0.9648  1.5234
  107MOL0     H14382   1.430  11.582   4.063 -1.1721  1.9377 -3.8367
  107MOL0     H14383   1.442  11.438   3.943  2.7535  0.1207  1.7761
  107MOL0     H14384   1.199  11.415   3.984 -0.9310  1.2599  0.3091
  107MOL0     H14385   1.196  11.550   4.088  0.2729  0.1105 -0.7133
  107MOL0     H14386   1.246  11.701   3.904  4.0968 -0.6000 -0.0816
  107MOL0     H14387   1.285  11.572   3.804  2.1039  2.4559  1.9520
  107MOL0     H14388   1.050  11.504   3.769 -1.3100  2.0756 -2.3682
  107MOL0     H14389   0.991  11.565   3.927  0.3251  2.5202  1.3059
  107MOL0     H14390   1.097  11.737   3.685 -1.5292  1.9345 -1.9315
  107MOL0     H14391   0.924  11.695   3.722  0.5414 -1.2156  0.7834
  107MOL0     H14392   0.937  11.826   3.939 -0.1810  0.4040 -0.5505
  107MOL0     H14393   1.087  11.891   3.871  0.2014 -1.5132  0.9883
  107MOL0     H14394   0.848  11.895   3.694  0.9614 -1.2272 -0.7821
  107MOL0     H14395   0.983  12.012   3.726  3.1214 -0.9685  1.2930
  107MOL0     H14396   0.951  12.133   3.982 -0.2636  0.6012  0.5836
  107MOL0     H14397   0.615  12.254   4.117  0.2597  0.3453  1.1074
  107MOL0     H14398   0.786  12.233   4.178  0.4631  2.4287  0.4813
  107MOL0     H14399   0.682  12.445   3.980 -0.5571 -2.7071  0.0637
  107MOL0     H14400   0.853  12.406   3.995  2.1105  1.4299  1.0202
  107MOL0     H14401   0.678  12.514   4.200  0.5455 -1.6434 -0.2647
  107MOL0     H14402   0.817  12.602   4.129  1.0051 -0.4778  1.2070
  107MOL0     H14403   0.957  12.402   4.230  0.0947  1.2275 -1.0199
  107MOL0     H14404   0.814  12.382   4.343  1.6653 -0.7010  0.8049
  107MOL0     H14405   0.864  12.480   4.604  0.4498 -1.2722  0.8064
  107MOL0     H14406   0.994  12.483   4.886 -2.8775  2.1127 -2.4663
  107MOL0     H14407   0.919  12.350   4.798 -0.3759 -0.2869 -0.5972
  107MOL0     H14408   1.081  12.326   4.842 -2.2889 -0.4705  2.8815
  107MOL0     H14409   1.463  12.593   5.018  2.8761  0.1492  0.7829
  107MOL0     H14410   1.636  12.483   5.158 -0.5830 -1.1493  4.4077
  107MOL0     H14411   1.685  12.063   5.165 -0.2378  0.0207  2.0727
  107MOL0     H14412   1.825  12.127   5.070  1.6083 -1.8442  0.8169
  107MOL0     H14413   1.956  12.054   5.216  0.5085 -0.6450  0.9381
  107MOL0     H14414   1.931  12.204   5.303 -1.8090  0.1805  1.3797
  107MOL0     H14415   1.798  11.937   5.355 -1.2064 -0.0996 -0.0020
  107MOL0     H14416   1.748  12.077   5.436 -1.2000 -0.8318 -2.2264
  107MOL0     H14417   2.035  11.946   5.436  1.3001  0.9462  1.0156
  107MOL0     H14418   2.005  12.096   5.515  1.6700 -0.8542 -0.2058
  107MOL0     H14419   1.788  11.956   5.627 -0.1201  5.4743 -0.7105
  107MOL0     H14420   1.936  11.993   5.698  1.3363 -1.3013 -0.5455
  107MOL0     H14421   1.920  11.732   5.553  2.1764 -0.6522 -0.6709
  107MOL0     H14422   2.048  11.785   5.664 -0.2095  0.6143  1.4523
  107MOL0     H14423   1.866  11.767   5.847  0.0805 -0.1338  0.2026
  107MOL0     H14424   1.927  11.622   5.756 -0.6523 -0.0602 -0.2636
  107MOL0     H14425   1.702  11.668   5.609  0.3677 -1.2149 -0.3551
  107MOL0     H14426   1.648  11.746   5.754 -2.4746 -1.1430 -2.2170
  107MOL0     H14427   1.540  12.094   4.994 -0.6122 -0.7805 -1.3585
  107MOL0     H14428   1.346  12.194   4.895 -0.3519 -0.3683  0.4906
  107MOL0     H14429   1.334  12.612   4.507  0.4950 -1.7508 -0.5510
  107MOL0     H14430   1.148  12.646   4.346 -0.8989 -0.6588  0.4319
  107MOL0     H14431   1.440  11.593   4.479 -1.7274 -0.7194  0.5184
  107MOL0     H14432   1.610  11.550   4.653 -5.0180  2.0398 -0.7831
  107MOL0     H14433   2.159  11.351   4.604  2.9874  1.5949  0.9636
  107MOL0     H14434   2.321  11.363   4.780 -0.7854 -2.0731 -0.3786
  107MOL0     H14435   2.250  11.412   5.229 -0.6697 -0.1780  0.7867
  107MOL0     H14436   2.168  11.254   5.196 -2.0359  3.0973 -3.4555
  107MOL0     H14437   2.396  11.161   5.192  0.3368 -0.1400  1.7358
  107MOL0     H14438   2.345  11.226   5.347 -0.5864 -1.8783 -0.6211
  107MOL0     H14439   2.510  11.412   5.170  1.6569 -0.6042  0.6894
  107MOL0     H14440   2.592  11.268   5.239  0.9612 -0.3977 -0.3626
  107MOL0     H14441   2.615  11.470   5.382 -0.0288  0.2697  2.7551
  107MOL0     H14442   2.534  11.353   5.471  1.6345 -2.0396 -1.8015
  107MOL0     H14443   2.236  11.634   5.497  0.6661  0.6681  0.2697
  107MOL0     H14444   2.006  11.310   5.074 -0.9478  4.0939  0.3723
  107MOL0     H14445   1.831  11.301   4.882 -0.2145  5.0378 -0.7003
  108MOL0     O14446   5.249   2.325   5.057  0.0789 -0.0937 -0.0302
  108MOL0     C14447   5.362   2.279   5.045  1.0832  0.1398 -0.8252
  108MOL0     O14448   5.401   2.204   4.941  0.1289  0.1261  0.1465
  108MOL0     C14449   5.309   2.163   4.841  0.0964  0.1471  0.2817
  108MOL0     C14450   5.335   2.036   4.773  1.2141 -0.0371 -1.0197
  108MOL0     C14451   5.244   1.997   4.668 -0.5537 -1.0488 -0.2636
  108MOL0     C14452   5.135   2.078   4.632 -0.0092  0.9235 -0.2279
  108MOL0     O14453   5.053   2.021   4.536  0.4169 -0.5412  0.6960
  108MOL0     C14454   5.064   1.879   4.504  0.4621  0.4452  1.0461
  108MOL0     C14455   4.942   1.848   4.419 -0.3867  0.7299 -0.1686
  108MOL0     C14456   4.817   1.850   4.506  0.2928  0.2602 -0.1528
  108MOL0     C14457   4.706   1.787   4.426  0.4102  0.5484  0.5698
  108MOL0     C14458   4.578   1.775   4.502  0.9315  0.3343 -0.6534
  108MOL0     C14459   4.477   1.697   4.403  0.2199 -0.7804  0.6621
  108MOL0     C14460   4.352   1.642   4.471 -0.7240  0.0310  0.7276
  108MOL0     C14461   4.395   1.533   4.572 -0.0953  0.6655  0.8018
  108MOL0     N14462   4.286   1.500   4.666 -0.2302 -0.1004  0.2012
  108MOL0     C14463   4.256   1.570   4.776  0.0602  0.2116  0.2844
  108MOL0     C14464   4.155   1.514   4.843 -0.6569 -0.1788 -0.1002
  108MOL0     C14465   4.088   1.559   4.970 -0.4353 -0.2524  0.5012
  108MOL0     C14466   4.023   1.449   5.060  0.4296  0.3970  0.1660
  108MOL0     C14467   3.978   1.495   5.198  0.4633  0.1578 -0.2710
  108MOL0     C14468   3.845   1.580   5.196 -0.6061  0.7100  0.7727
  108MOL0     O14469   3.811   1.592   5.328  0.8281  0.4044 -0.1503
  108MOL0     C14470   3.700   1.665   5.365  0.4924  1.3016 -0.8060
  108MOL0     C14471   3.593   1.687   5.274 -0.5117  0.0823 -0.6372
  108MOL0     C14472   3.468   1.741   5.320  0.7007  0.3968  0.0702
  108MOL0     C14473   3.355   1.751   5.225 -0.4908  0.5026  0.1232
  108MOL0     C14474   3.460   1.801   5.445 -0.4847  0.2845 -0.0430
  108MOL0     C14475   3.346   1.882   5.501 -0.3487 -0.2204  0.4905
  108MOL0     O14476   3.274   1.936   5.411 -0.1332 -1.3827  0.2011
  108MOL0     C14477   3.158   2.002   5.454 -0.5488  0.0663  0.0180
  108MOL0     C14478   3.175   2.142   5.478  0.0143 -0.2561 -0.2103
  108MOL0     C14479   3.072   2.217   5.538 -0.0400  0.2757  0.3486
  108MOL0     C14480   2.945   2.158   5.558  0.2714 -0.6567  0.3145
  108MOL0     O14481   2.831   2.227   5.591 -0.0427 -0.2164 -0.6595
  108MOL0     C14482   2.738   2.242   5.486 -1.4993 -0.1070  1.0862
  108MOL0     C14483   2.793   2.342   5.370 -0.9309  0.1080  0.3391
  108MOL0     C14484   2.896   2.277   5.279  0.0092  0.3206  0.1167
  108MOL0     C14485   2.867   2.280   5.132 -0.1032  0.0873  0.2206
  108MOL0     C14486   2.951   2.193   5.030  0.4373 -0.1785 -1.0023
  108MOL0     C14487   2.968   2.043   5.070 -0.5496  0.1286  0.5809
  108MOL0     C14488   3.053   1.999   4.951 -0.1229  0.1802 -0.4895
  108MOL0     C14489   3.084   1.848   4.967  0.0670 -0.0044 -0.9776
  108MOL0    Cl14490   3.216   1.814   4.858 -0.0471 -0.2935 -0.2363
  108MOL0     C14491   2.943   2.018   5.532 -0.1508  1.2532 -0.7230
  108MOL0     C14492   3.040   1.942   5.472 -0.4784 -0.0220  1.1962
  108MOL0     O14493   3.332   1.884   5.620  0.8218 -0.3876 -0.9655
  108MOL0     C14494   3.566   1.774   5.535 -0.0452  0.6995  0.4990
  108MOL0     C14495   3.687   1.715   5.495  0.2807  0.1012 -0.4808
  108MOL0     N14496   4.124   1.394   4.780 -0.4498 -0.5966  1.2730
  108MOL0     N14497   4.204   1.388   4.667  0.3184 -0.3481 -0.5389
  108MOL0     C14498   5.113   2.199   4.693  0.0475  0.4591  0.7464
  108MOL0     C14499   5.201   2.242   4.792 -0.2573 -0.1940  0.4857
  108MOL0     C14500   5.462   2.300   5.157 -0.3066  0.0169  0.1895
  108MOL0     C14501   5.420   2.335   5.289  0.1116 -0.2867 -0.3970
  108MOL0     C14502   5.508   2.381   5.387 -1.1082  0.6317  0.9750
  108MOL0     C14503   5.638   2.377   5.357 -1.0509 -0.6055  1.1744
  108MOL0     O14504   5.727   2.424   5.456  0.2307  0.3377  0.1618
  108MOL0     C14505   5.872   2.411   5.447  0.0385 -0.4127 -0.4805
  108MOL0     C14506   5.909   2.451   5.591  0.2979 -0.6073  0.2711
  108MOL0     C14507   5.889   2.330   5.686  0.2114  0.9591  0.1226
  108MOL0     C14508   5.948   2.355   5.829  1.1116 -0.1201 -0.5055
  108MOL0     C14509   5.965   2.228   5.903 -0.2588  0.3685 -0.0011
  108MOL0     C14510   5.982   2.115   5.947  0.0658 -0.0438 -0.6930
  108MOL0     C14511   5.685   2.330   5.231 -0.5820  0.4864 -0.4063
  108MOL0     C14512   5.595   2.292   5.128 -0.0058  0.4676  0.6421
  108MOL0     H14513   5.403   1.954   4.791 -0.3111 -2.9251 -6.2115
  108MOL0     H14514   5.264   1.907   4.610  0.4794 -1.6082  0.9034
  108MOL0     H14515   5.152   1.868   4.439 -0.9982  0.0079 -0.9749
  108MOL0     H14516   5.073   1.813   4.590  1.8556 -0.3791  0.3030
  108MOL0     H14517   4.948   1.920   4.337 -0.7979  2.9835  1.6714
  108MOL0     H14518   4.961   1.746   4.383  1.4516  0.3256  1.7452
  108MOL0     H14519   4.848   1.805   4.600  0.5038  1.6158  0.4507
  108MOL0     H14520   4.786   1.953   4.525 -0.1254  0.7333 -2.8900
  108MOL0     H14521   4.680   1.844   4.336  1.0740  0.9956  0.6569
  108MOL0     H14522   4.739   1.687   4.395 -2.9786 -0.9268  1.2850
  108MOL0     H14523   4.596   1.714   4.591 -1.5521 -0.6485 -0.7639
  108MOL0     H14524   4.549   1.877   4.526 -1.1966 -0.3712  0.0174
  108MOL0     H14525   4.445   1.754   4.315 -1.7289 -2.1254  0.4304
  108MOL0     H14526   4.536   1.614   4.362 -2.0710 -1.1316 -2.2801
  108MOL0     H14527   4.305   1.732   4.512 -2.1496 -2.8223  6.5093
  108MOL0     H14528   4.282   1.598   4.399 -1.6163  1.3386  0.7675
  108MOL0     H14529   4.483   1.562   4.630  0.3587 -0.2181  0.5787
  108MOL0     H14530   4.420   1.444   4.513 -1.8162  1.3076 -0.9951
  108MOL0     H14531   4.290   1.667   4.811 -0.5776 -0.1749  2.1120
  108MOL0     H14532   4.162   1.613   5.030  0.4444 -0.2919 -0.5197
  108MOL0     H14533   4.002   1.623   4.944 -1.9359 -3.0272 -1.9137
  108MOL0     H14534   4.094   1.367   5.074  1.9305  1.8492  1.4998
  108MOL0     H14535   3.936   1.413   5.005 -1.8403  2.1786  2.3515
  108MOL0     H14536   4.058   1.543   5.255  1.4184  1.5156 -2.6236
  108MOL0     H14537   3.946   1.408   5.256 -0.9217  1.4386  0.9710
  108MOL0     H14538   3.767   1.521   5.147 -0.2529 -0.4123  1.5126
  108MOL0     H14539   3.856   1.676   5.145 -0.1373 -0.6875 -1.9564
  108MOL0     H14540   3.591   1.670   5.167 -2.1780  3.2072 -1.2023
  108MOL0     H14541   3.346   1.852   5.184  0.1252  0.3883 -0.3103
  108MOL0     H14542   3.375   1.702   5.129  0.8248  2.8695 -0.8901
  108MOL0     H14543   3.265   1.713   5.275 -0.4623  1.4748  0.9444
  108MOL0     H14544   3.262   2.194   5.440  0.1054  0.9009  1.4889
  108MOL0     H14545   3.079   2.324   5.556 -1.2910  1.6459 -5.2932
  108MOL0     H14546   2.720   2.146   5.437 -0.0593  0.8338 -1.4875
  108MOL0     H14547   2.645   2.290   5.517 -2.6787 -1.9583  0.5913
  108MOL0     H14548   2.708   2.368   5.306 -1.4582  2.6563  1.9514
  108MOL0     H14549   2.840   2.429   5.416  0.5397 -0.7573  0.5330
  108MOL0     H14550   2.914   2.175   5.314  0.6693 -0.0077 -1.1381
  108MOL0     H14551   2.990   2.333   5.287 -0.9030  2.3282 -2.0631
  108MOL0     H14552   2.763   2.250   5.115  0.4705 -1.4002 -0.8528
  108MOL0     H14553   2.883   2.383   5.099 -0.3206  0.1345  0.2642
  108MOL0     H14554   3.051   2.237   5.019 -0.9371  2.7714 -3.2662
  108MOL0     H14555   2.900   2.196   4.934 -3.1062 -2.0659  0.6534
  108MOL0     H14556   3.020   2.015   5.162 -0.9767 -2.7246  0.0714
  108MOL0     H14557   2.870   1.993   5.077  0.0346 -1.4139 -1.2829
  108MOL0     H14558   3.151   2.049   4.951  0.3247 -0.2722 -4.8781
  108MOL0     H14559   3.003   2.001   4.854 -1.1875 -1.6217 -0.0175
  108MOL0     H14560   2.997   1.783   4.948 -0.6349  0.0346  1.6865
  108MOL0     H14561   3.119   1.816   5.065  0.2012 -1.2997 -1.4143
  108MOL0     H14562   2.861   1.949   5.550  1.0205  0.6661  3.7020
  108MOL0     H14563   3.027   1.837   5.450  2.6790 -0.4173  0.7308
  108MOL0     H14564   3.563   1.814   5.636  0.3632 -0.0183  0.8080
  108MOL0     H14565   3.773   1.719   5.561  0.6091  0.6974 -0.9315
  108MOL0     H14566   5.016   2.245   4.680 -1.3876 -1.7954  2.6646
  108MOL0     H14567   5.187   2.345   4.824 -2.1143 -0.4627  0.6921
  108MOL0     H14568   5.315   2.320   5.311 -1.1562  1.4563 -4.3066
  108MOL0     H14569   5.474   2.420   5.483  0.4051 -0.9725  2.2382
  108MOL0     H14570   5.902   2.308   5.424  2.1610  0.0732 -0.0789
  108MOL0     H14571   5.917   2.482   5.377  1.1786 -1.3882 -0.7666
  108MOL0     H14572   5.840   2.532   5.615  0.4803 -0.8283  1.6177
  108MOL0     H14573   6.014   2.479   5.591  0.1763 -0.1328  0.5325
  108MOL0     H14574   5.933   2.236   5.652  0.3505  0.4646  1.6161
  108MOL0     H14575   5.780   2.314   5.688 -0.4726  4.5394 -0.6705
  108MOL0     H14576   5.871   2.411   5.884  0.6795 -0.8181 -0.3807
  108MOL0     H14577   6.027   2.430   5.821 -1.4431  2.6758 -1.5269
  108MOL0     H14578   6.009   2.023   5.996 -3.1717 -0.0526  1.3395
  108MOL0     H14579   5.788   2.300   5.214 -1.2322 -1.3632 -1.2950
  108MOL0     H14580   5.624   2.247   5.034 -0.9317  2.2620 -0.5463
  109MOL0     O14581   9.247  10.144  10.572 -0.6503 -1.1694  0.3380
  109MOL0     C14582   9.185  10.092  10.481  0.4688 -0.3428 -0.4482
  109MOL0     O14583   9.105  10.155  10.389 -0.6315  0.0564 -0.4992
  109MOL0     C14584   9.061  10.286  10.398  0.4674  0.2224  0.7036
  109MOL0     C14585   9.003  10.342  10.285  0.1631 -0.0312 -0.3069
  109MOL0     C14586   8.975  10.476  10.264  0.8729  1.2268 -1.0981
  109MOL0     C14587   8.994  10.555  10.377  0.0162 -0.0533 -0.3621
  109MOL0     O14588   8.955  10.687  10.380 -1.0938 -0.1882  0.2240
  109MOL0     C14589   8.838  10.732  10.303 -0.1623  0.1392 -0.1447
  109MOL0     C14590   8.790  10.866  10.366 -0.3870 -0.2188  0.3107
  109MOL0     C14591   8.680  10.939  10.285 -0.3534 -0.3808 -0.6579
  109MOL0     C14592   8.687  11.092  10.255 -0.5918  0.3512  0.5059
  109MOL0     C14593   8.720  11.187  10.377 -0.3295  0.8002 -0.0027
  109MOL0     C14594   8.740  11.331  10.311  0.9753 -0.1599  0.0478
  109MOL0     C14595   8.773  11.429  10.432 -1.4774  0.1921  0.2959
  109MOL0     C14596   8.929  11.435  10.460  0.8968 -0.8287  0.3906
  109MOL0     N14597   8.967  11.491  10.582 -0.3504 -0.1803 -0.4885
  109MOL0     C14598   8.956  11.439  10.707  0.2765 -0.2084  0.8525
  109MOL0     C14599   9.073  11.476  10.772  1.0834 -0.0711 -0.4200
  109MOL0     C14600   9.115  11.425  10.903  0.0281  0.4166 -0.6429
  109MOL0     C14601   9.218  11.316  10.871 -0.3174 -0.0875  0.7239
  109MOL0     C14602   9.258  11.238  10.997  0.6933 -0.3835 -0.0985
  109MOL0     C14603   9.350  11.121  10.967  0.1109  0.2579 -0.3122
  109MOL0     O14604   9.449  11.117  11.063 -0.4808 -0.8880  0.7040
  109MOL0     C14605   9.466  11.003  11.138 -0.3547 -1.3948 -0.0293
  109MOL0     C14606   9.493  11.001  11.278 -0.0330  0.0229  0.4147
  109MOL0     C14607   9.506  10.887  11.370  0.2902 -0.2732  0.0114
  109MOL0     C14608   9.499  10.925  11.515 -0.0848  0.1539 -0.7778
  109MOL0     C14609   9.520  10.766  11.305 -0.0648 -0.7231  0.4770
  109MOL0     C14610   9.565  10.645  11.375 -0.4703 -0.1628  0.2440
  109MOL0     O14611   9.482  10.537  11.374 -0.5068  0.3721  0.6893
  109MOL0     C14612   9.493  10.424  11.447  0.4912  0.7354 -0.1959
  109MOL0     C14613   9.443  10.304  11.388  0.3648  1.1279  1.0245
  109MOL0     C14614   9.457  10.182  11.448  0.3579 -0.0438 -0.2865
  109MOL0     C14615   9.508  10.165  11.572  1.2955  0.0992 -0.5028
  109MOL0     O14616   9.493  10.050  11.651  0.8039 -0.8782 -0.8083
  109MOL0     C14617   9.511   9.911  11.597 -0.6791  0.4561  0.6506
  109MOL0     C14618   9.420   9.819  11.677  0.0713 -0.3619 -0.0438
  109MOL0     C14619   9.458   9.840  11.824 -0.1945  0.2915  0.0952
  109MOL0     C14620   9.367   9.765  11.920  0.3100  0.8908  0.1934
  109MOL0     C14621   9.424   9.759  12.068 -0.2321  0.0760 -0.4493
  109MOL0     C14622   9.560   9.679  12.079  0.4732 -0.1351  0.4909
  109MOL0     C14623   9.631   9.696  12.227  0.3307  0.0257 -0.1935
  109MOL0     C14624   9.742   9.598  12.238 -0.6807  0.1386  0.3365
  109MOL0    Cl14625   9.684   9.431  12.235  0.2978 -0.3844 -0.5897
  109MOL0     C14626   9.562  10.277  11.634  0.8801 -0.1879 -0.4464
  109MOL0     C14627   9.553  10.406  11.575  0.3619 -0.6979  0.6667
  109MOL0     O14628   9.687  10.648  11.412 -0.2415 -0.3631  0.1517
  109MOL0     C14629   9.481  10.762  11.165 -0.3380  0.2812 -0.5597
  109MOL0     C14630   9.448  10.877  11.086  0.5783  0.3565 -1.6229
  109MOL0     N14631   9.145  11.563  10.688 -0.0269 -0.0785  0.0687
  109MOL0     N14632   9.082  11.564  10.580 -0.5866  1.0052  0.0020
  109MOL0     C14633   9.045  10.507  10.495  0.5775 -0.5053 -0.3131
  109MOL0     C14634   9.089  10.380  10.504 -0.2952  0.2159 -0.5791
  109MOL0     C14635   9.191   9.952  10.469  0.8578  0.6146  0.4161
  109MOL0     C14636   9.288   9.870  10.533 -0.5928 -0.8189  0.2823
  109MOL0     C14637   9.295   9.739  10.506 -0.1723  1.2076 -0.1326
  109MOL0     C14638   9.223   9.676  10.398 -0.1755  0.0033  0.6830
  109MOL0     O14639   9.231   9.535  10.368 -0.5117 -0.1117  0.9633
  109MOL0     C14640   9.333   9.463  10.441  0.5667  0.5356  0.0467
  109MOL0     C14641   9.344   9.311  10.398  0.0524 -0.5291 -0.0966
  109MOL0     C14642   9.475   9.238  10.446  0.4649  0.6371  0.3535
  109MOL0     C14643   9.459   9.091  10.428  0.4311  0.9889  0.1317
  109MOL0     C14644   9.584   9.024  10.452  0.4869  1.0381  0.0733
  109MOL0     C14645   9.694   8.979  10.462 -0.1267 -0.2816 -1.4725
  109MOL0     C14646   9.132   9.751  10.333  0.0123 -0.6500  0.0804
  109MOL0     C14647   9.115   9.885  10.368  0.2742 -0.0002 -0.0631
  109MOL0     H14648   8.968  10.275  10.207  0.3316  2.8364 -3.0747
  109MOL0     H14649   8.924  10.522  10.181 -2.5090  6.6528  3.2407
  109MOL0     H14650   8.860  10.750  10.197 -2.0289  2.3337 -0.2343
  109MOL0     H14651   8.758  10.658  10.312 -1.3208  1.3758  0.0570
  109MOL0     H14652   8.762  10.859  10.471  2.1493 -2.2509  0.9681
  109MOL0     H14653   8.880  10.929  10.369 -2.2521  2.5806  1.2321
  109MOL0     H14654   8.664  10.897  10.185 -1.2232  0.9891 -1.1269
  109MOL0     H14655   8.581  10.932  10.332 -0.7972  0.4208 -1.4582
  109MOL0     H14656   8.765  11.099  10.179 -1.3895 -1.9472 -0.5988
  109MOL0     H14657   8.589  11.111  10.211 -1.2092 -0.2870  1.5544
  109MOL0     H14658   8.636  11.195  10.448 -2.5962 -1.5001 -2.1979
  109MOL0     H14659   8.809  11.148  10.428 -0.9972 -0.1876  0.4451
  109MOL0     H14660   8.829  11.328  10.248 -0.7310  2.4439 -2.7128
  109MOL0     H14661   8.643  11.358  10.268 -0.5175  0.4036  3.4371
  109MOL0     H14662   8.754  11.536  10.418  1.5924  0.6987 -1.0812
  109MOL0     H14663   8.712  11.392  10.514 -2.4983 -1.4591 -1.1332
  109MOL0     H14664   8.979  11.486  10.377  0.0947  0.7336  0.8390
  109MOL0     H14665   8.967  11.332  10.452 -1.1546 -1.5103 -2.2885
  109MOL0     H14666   8.876  11.370  10.730  0.1171 -0.6593 -0.8767
  109MOL0     H14667   9.162  11.497  10.971 -2.5475  2.3114 -0.7187
  109MOL0     H14668   9.034  11.378  10.960  1.0046 -0.5843 -0.0346
  109MOL0     H14669   9.302  11.349  10.808 -0.3998  0.3167  0.8214
  109MOL0     H14670   9.170  11.244  10.804  1.2777  0.0598 -0.6538
  109MOL0     H14671   9.168  11.210  11.052 -0.2160  3.6201  0.7766
  109MOL0     H14672   9.315  11.295  11.071 -1.4679 -1.1489  2.2765
  109MOL0     H14673   9.410  11.120  10.875 -1.9349  1.2478 -1.7406
  109MOL0     H14674   9.293  11.029  10.958 -1.5331  1.0488  1.4104
  109MOL0     H14675   9.499  11.101  11.319  1.1980 -0.4666  1.4744
  109MOL0     H14676   9.575  10.993  11.555  0.3008 -0.2055 -0.8792
  109MOL0     H14677   9.406  10.979  11.533  1.5168  2.0039  2.9949
  109MOL0     H14678   9.498  10.836  11.579 -0.4615  0.8568  0.2155
  109MOL0     H14679   9.400  10.306  11.288 -0.0648  2.0456  1.2128
  109MOL0     H14680   9.407  10.095  11.408 -0.7970  0.4967 -0.0487
  109MOL0     H14681   9.481   9.885  11.496 -0.2485 -0.9323  0.8604
  109MOL0     H14682   9.611   9.874  11.623  0.2417  0.2699 -2.7436
  109MOL0     H14683   9.317   9.842  11.649  0.4654  0.2128 -1.0627
  109MOL0     H14684   9.426   9.712  11.656  1.2938 -0.4009  0.4072
  109MOL0     H14685   9.465   9.944  11.859  0.2286 -0.2536  1.7588
  109MOL0     H14686   9.555   9.790  11.824 -1.0581 -1.4719 -0.6650
  109MOL0     H14687   9.273   9.818  11.938 -1.2964 -1.3220 -1.1250
  109MOL0     H14688   9.328   9.673  11.875  1.3684  1.4150 -1.9141
  109MOL0     H14689   9.353   9.720  12.141  1.8070 -0.4814  1.3370
  109MOL0     H14690   9.446   9.862  12.098  0.4373 -0.4409  0.9268
  109MOL0     H14691   9.546   9.571  12.071  0.4256 -0.1123  0.2676
  109MOL0     H14692   9.628   9.709  11.999  1.2893 -1.5375  0.6367
  109MOL0     H14693   9.559   9.663  12.303  1.4428 -0.6065  0.6193
  109MOL0     H14694   9.653   9.802  12.236 -3.3766  0.7928  1.6249
  109MOL0     H14695   9.776   9.617  12.340  1.0095  0.5301 -0.2640
  109MOL0     H14696   9.819   9.611  12.161 -0.2469 -0.2554  0.6971
  109MOL0     H14697   9.600  10.266  11.735 -0.4951  2.0982  0.3942
  109MOL0     H14698   9.611  10.483  11.627  1.1510 -1.3476  0.7600
  109MOL0     H14699   9.486  10.661  11.123 -0.9571 -0.5636  1.2982
  109MOL0     H14700   9.417  10.860  10.984  2.0191 -0.1895 -1.9942
  109MOL0     H14701   9.052  10.579  10.576  2.0300 -0.5245 -0.3919
  109MOL0     H14702   9.127  10.341  10.599  2.3254 -2.3034 -2.4725
  109MOL0     H14703   9.351   9.919  10.607 -1.0496  0.3651 -0.0825
  109MOL0     H14704   9.350   9.682  10.579 -0.2163  1.6531  0.2535
  109MOL0     H14705   9.425   9.519  10.421  1.9584 -0.0071  4.0215
  109MOL0     H14706   9.304   9.475  10.545  0.6858  0.1495  0.1267
  109MOL0     H14707   9.351   9.319  10.289 -1.4861  0.0145 -0.1709
  109MOL0     H14708   9.249   9.263  10.423  0.5079 -1.5692 -0.2796
  109MOL0     H14709   9.491   9.267  10.550  1.9309  1.6642 -0.1220
  109MOL0     H14710   9.559   9.268  10.383 -0.1633  0.7525 -0.4501
  109MOL0     H14711   9.428   9.066  10.326 -2.1134  2.7636  0.3752
  109MOL0     H14712   9.392   9.031  10.491  2.7909  0.3008  2.1287
  109MOL0     H14713   9.784   8.925  10.482  0.2357  0.4894 -0.9946
  109MOL0     H14714   9.072   9.713  10.250 -1.8902 -1.7808  1.8785
  109MOL0     H14715   9.052   9.946  10.305  1.6436 -0.2855 -1.7598
  110MOL0     O14716   3.028   0.136   5.807 -0.5877  0.8002  0.7358
  110MOL0     C14717   2.916   0.156   5.763  0.4401  0.6629 -0.6001
  110MOL0     O14718   2.845   0.075   5.679 -0.5539  0.2526  0.1206
  110MOL0     C14719   2.913  -0.027   5.616  0.5351  0.4798 -1.1543
  110MOL0     C14720   2.831  -0.146   5.586 -0.2374  0.0782  0.6645
  110MOL0     C14721   2.887  -0.252   5.516 -0.9519 -0.0802  0.1560
  110MOL0     C14722   3.021  -0.251   5.472  0.0326  0.8984 -0.4587
  110MOL0     O14723   3.080  -0.338   5.390  0.4343 -0.1919 -0.0381
  110MOL0     C14724   3.029  -0.469   5.382 -0.5200 -0.1880  0.5793
  110MOL0     C14725   3.095  -0.530   5.260 -0.0534  0.0532 -0.3390
  110MOL0     C14726   3.252  -0.557   5.263 -0.0080 -0.2396  0.4664
  110MOL0     C14727   3.288  -0.671   5.166  0.1414  0.4026 -0.8748
  110MOL0     C14728   3.431  -0.723   5.188  0.1839  1.4418  0.8211
  110MOL0     C14729   3.451  -0.836   5.087 -0.3220 -0.0783  0.3065
  110MOL0     C14730   3.589  -0.909   5.107 -0.6302  0.9824  0.0230
  110MOL0     C14731   3.598  -1.058   5.057 -0.6470 -0.6696  0.2177
  110MOL0     N14732   3.628  -1.060   4.917  0.2551  0.1738 -0.1820
  110MOL0     C14733   3.752  -1.040   4.865 -0.2944  0.4168  0.2450
  110MOL0     C14734   3.730  -1.014   4.733 -0.8741 -0.6034 -0.1274
  110MOL0     C14735   3.846  -0.980   4.646  0.3642  0.1239  0.8051
  110MOL0     C14736   3.908  -1.112   4.599 -1.3345 -0.1587 -0.1166
  110MOL0     C14737   3.800  -1.212   4.546 -0.9050  0.0329 -0.0529
  110MOL0     C14738   3.862  -1.327   4.471 -0.1922  0.6008  0.0779
  110MOL0     O14739   3.871  -1.432   4.563  0.1893 -0.1009  0.1681
  110MOL0     C14740   3.909  -1.552   4.519 -0.1472  0.4521  0.1280
  110MOL0     C14741   3.955  -1.581   4.387  0.8631 -0.7129  0.5892
  110MOL0     C14742   4.036  -1.693   4.359 -0.4161  0.1323  0.5453
  110MOL0     C14743   4.076  -1.707   4.219 -0.3954  0.8678 -0.7669
  110MOL0     C14744   4.082  -1.777   4.469  0.6831  0.3648 -0.5003
  110MOL0     C14745   4.172  -1.894   4.451 -1.2916 -0.4200 -0.5232
  110MOL0     O14746   4.209  -1.958   4.569 -0.0908 -0.0873  0.3600
  110MOL0     C14747   4.336  -2.014   4.551  0.3141  0.2040 -0.0653
  110MOL0     C14748   4.354  -2.138   4.496 -0.0087  0.5637  0.1846
  110MOL0     C14749   4.482  -2.183   4.472  0.1226 -0.4452  0.0574
  110MOL0     C14750   4.593  -2.108   4.512  0.2861  0.0004 -0.0415
  110MOL0     O14751   4.725  -2.157   4.499  0.6834  0.6093 -0.2092
  110MOL0     C14752   4.734  -2.293   4.536  1.0521  0.0299 -0.3704
  110MOL0     C14753   4.872  -2.326   4.576  0.5938  0.1698 -0.2594
  110MOL0     C14754   4.963  -2.323   4.460  0.4003  0.0837  0.6010
  110MOL0     C14755   5.097  -2.390   4.502  0.1004  0.0082  0.7023
  110MOL0     C14756   5.165  -2.453   4.389 -0.2582  0.0025  0.1623
  110MOL0     C14757   5.193  -2.367   4.273 -0.3903 -0.4751  0.4554
  110MOL0     C14758   5.260  -2.429   4.153 -0.3639  0.7726  0.4859
  110MOL0     C14759   5.403  -2.460   4.167 -0.2071 -0.7220 -0.3690
  110MOL0    Cl14760   5.497  -2.522   4.015  0.0156 -0.5756 -0.3243
  110MOL0     C14761   4.578  -1.984   4.572  0.3719 -0.2164 -1.1060
  110MOL0     C14762   4.448  -1.937   4.591 -1.4215 -0.0770 -1.0120
  110MOL0     O14763   4.220  -1.931   4.344 -0.2432  0.1226  0.5685
  110MOL0     C14764   4.034  -1.746   4.599 -0.0722  0.2102 -0.6745
  110MOL0     C14765   3.943  -1.641   4.620 -0.9120  1.1054 -0.0911
  110MOL0     N14766   3.590  -1.029   4.713  0.2350 -0.4928 -0.3649
  110MOL0     N14767   3.531  -1.049   4.821  0.9463  0.3506  0.2063
  110MOL0     C14768   3.096  -0.136   5.502 -0.5033 -0.1491 -0.0640
  110MOL0     C14769   3.048  -0.028   5.578 -0.3205  0.8354  0.1809
  110MOL0     C14770   2.843   0.268   5.833 -0.6375  0.6693 -0.1014
  110MOL0     C14771   2.916   0.371   5.896 -1.0809  0.4466  0.1995
  110MOL0     C14772   2.855   0.465   5.975  0.1651 -0.3659  0.2018
  110MOL0     C14773   2.715   0.486   5.953 -0.4704 -0.0503  0.6041
  110MOL0     O14774   2.641   0.571   6.029  0.3709  0.0161  0.2404
  110MOL0     C14775   2.621   0.706   5.979  0.4186 -0.0916 -0.1210
  110MOL0     C14776   2.583   0.814   6.074  0.0884  0.2791  0.3583
  110MOL0     C14777   2.537   0.940   6.007 -0.0004  0.2828  0.0716
  110MOL0     C14778   2.646   1.040   5.965 -0.7037 -0.8255 -0.2796
  110MOL0     C14779   2.696   0.999   5.832  0.4165 -0.3225  0.3555
  110MOL0     C14780   2.724   0.956   5.725 -1.0981  0.1954  1.4134
  110MOL0     C14781   2.648   0.393   5.862  0.0993 -0.4851 -0.4444
  110MOL0     C14782   2.707   0.285   5.812 -0.0812  0.2460 -0.9891
  110MOL0     H14783   2.730  -0.141   5.625 -1.9104  0.7789 -3.2887
  110MOL0     H14784   2.833  -0.342   5.489  0.7711 -0.1677 -3.6876
  110MOL0     H14785   3.040  -0.514   5.481  0.6262 -0.3270  0.3942
  110MOL0     H14786   2.924  -0.481   5.354  0.7238 -1.1312 -4.6943
  110MOL0     H14787   3.043  -0.626   5.255 -0.7173  0.3796  0.1387
  110MOL0     H14788   3.080  -0.477   5.166 -0.5824 -2.0891 -1.5287
  110MOL0     H14789   3.316  -0.471   5.242 -1.3636  1.0149  1.2698
  110MOL0     H14790   3.259  -0.596   5.365 -2.3831 -3.9691 -0.5873
  110MOL0     H14791   3.226  -0.759   5.186 -0.3835  1.1591  1.0147
  110MOL0     H14792   3.272  -0.633   5.064  2.3341  0.1131 -1.3713
  110MOL0     H14793   3.499  -0.646   5.150  0.9395 -0.9931 -3.4139
  110MOL0     H14794   3.460  -0.759   5.288  0.0064 -1.7640 -0.1752
  110MOL0     H14795   3.369  -0.908   5.095 -0.6217  0.3138  0.7886
  110MOL0     H14796   3.451  -0.797   4.984  3.0423  1.4948  0.7656
  110MOL0     H14797   3.665  -0.847   5.059 -1.9894  0.8660 -2.3998
  110MOL0     H14798   3.611  -0.913   5.215 -0.3244  1.0518 -0.0356
  110MOL0     H14799   3.506  -1.107   5.090 -0.8357  0.5271  1.5806
  110MOL0     H14800   3.684  -1.103   5.107  0.3254 -0.3502 -1.1025
  110MOL0     H14801   3.847  -1.028   4.915  1.8287 -1.7354 -2.9135
  110MOL0     H14802   3.814  -0.922   4.559  3.7868  0.5203 -0.3497
  110MOL0     H14803   3.915  -0.911   4.695 -0.5124  0.2695  1.8768
  110MOL0     H14804   3.953  -1.159   4.688  1.3888 -0.9646 -1.7985
  110MOL0     H14805   3.989  -1.093   4.529  0.2927 -0.5121  1.5977
  110MOL0     H14806   3.730  -1.158   4.482 -1.3338  2.8226  2.5223
  110MOL0     H14807   3.735  -1.268   4.615  0.0876 -3.4374 -1.6720
  110MOL0     H14808   3.962  -1.303   4.434  0.6406 -2.6624 -0.1673
  110MOL0     H14809   3.802  -1.347   4.382 -4.6218  1.0785  2.6848
  110MOL0     H14810   3.934  -1.512   4.306 -2.5532  1.0010  2.6965
  110MOL0     H14811   4.183  -1.722   4.209 -0.3203  1.5806 -1.1060
  110MOL0     H14812   4.019  -1.796   4.193 -2.5611  1.7275  0.7106
  110MOL0     H14813   4.044  -1.630   4.147 -1.4270 -1.3738 -2.8717
  110MOL0     H14814   4.265  -2.197   4.476  0.0862  0.2578  0.6435
  110MOL0     H14815   4.491  -2.284   4.435  0.4801  0.0407 -1.2108
  110MOL0     H14816   4.666  -2.309   4.619 -0.1578 -0.5992 -1.4442
  110MOL0     H14817   4.692  -2.362   4.462 -4.5675  0.4908  1.8763
  110MOL0     H14818   4.893  -2.263   4.663  1.5176  0.6469 -0.8072
  110MOL0     H14819   4.879  -2.425   4.623  0.0959  1.1401  1.9889
  110MOL0     H14820   4.987  -2.224   4.420  0.9633 -1.1686 -2.4664
  110MOL0     H14821   4.927  -2.380   4.374  5.3791 -4.4024  0.9575
  110MOL0     H14822   5.168  -2.321   4.546  2.9185 -0.7177 -2.2835
  110MOL0     H14823   5.076  -2.465   4.578 -1.7760 -0.9086 -0.6339
  110MOL0     H14824   5.102  -2.532   4.348  0.3059 -0.0690 -0.5909
  110MOL0     H14825   5.248  -2.505   4.439 -0.0302  0.1979 -0.0118
  110MOL0     H14826   5.095  -2.331   4.239 -0.6907 -0.3509  1.4206
  110MOL0     H14827   5.257  -2.283   4.301 -1.3636  0.3169  0.3837
  110MOL0     H14828   5.258  -2.352   4.075 -2.4865 -0.1450 -0.4600
  110MOL0     H14829   5.207  -2.517   4.113 -0.6557  1.0776  0.1977
  110MOL0     H14830   5.418  -2.530   4.250 -1.1550  0.9926  1.3449
  110MOL0     H14831   5.449  -2.367   4.202 -0.0175  0.4094 -3.3785
  110MOL0     H14832   4.669  -1.931   4.597  0.4333 -0.5611 -0.5881
  110MOL0     H14833   4.425  -1.842   4.639  1.8480 -1.4822  4.3148
  110MOL0     H14834   4.068  -1.806   4.683 -2.1155  1.2726  0.9849
  110MOL0     H14835   3.910  -1.620   4.721  1.8726 -0.6625  1.3132
  110MOL0     H14836   3.189  -0.127   5.447 -0.8641  2.1591 -0.4146
  110MOL0     H14837   3.121   0.046   5.606 -0.4508  0.5471  1.3265
  110MOL0     H14838   3.022   0.349   5.901 -1.2237 -0.2118  0.4798
  110MOL0     H14839   2.914   0.542   6.025  1.4839 -0.6872 -0.8055
  110MOL0     H14840   2.714   0.733   5.928  1.2111 -3.3582 -0.6215
  110MOL0     H14841   2.538   0.697   5.908 -1.5862  1.2526  1.9352
  110MOL0     H14842   2.659   0.840   6.148  0.9461 -1.9048  0.3269
  110MOL0     H14843   2.507   0.768   6.138 -0.3149  0.1374 -0.2072
  110MOL0     H14844   2.491   1.003   6.084  0.6728 -1.8560  2.3592
  110MOL0     H14845   2.460   0.921   5.933  0.3876 -1.4078  0.0804
  110MOL0     H14846   2.735   1.046   6.028  0.3025  4.6479 -1.6988
  110MOL0     H14847   2.608   1.142   5.968  2.0342  0.2332  1.4020
  110MOL0     H14848   2.740   0.909   5.630 -0.4322 -0.9610  2.0702
  110MOL0     H14849   2.542   0.398   5.839  0.5059  0.0927 -2.3462
  110MOL0     H14850   2.644   0.219   5.753  1.0729 -2.3030  0.4892
  111MOL0     O14851   9.158   2.759  10.840 -0.7170  0.5383 -0.0581
  111MOL0     C14852   9.043   2.779  10.856  0.4511  0.5089  0.5935
  111MOL0     O14853   8.942   2.715  10.788 -0.2368 -0.3053  0.3909
  111MOL0     C14854   8.976   2.616  10.700  0.2911 -0.2187  0.3489
  111MOL0     C14855   8.887   2.505  10.708 -0.8478 -0.3853 -0.3310
  111MOL0     C14856   8.904   2.387  10.626  0.1823  0.5266 -0.3640
  111MOL0     C14857   9.006   2.379  10.534 -0.1360 -0.5092  0.2812
  111MOL0     O14858   9.009   2.290  10.433  0.4255  0.0541  0.5668
  111MOL0     C14859   8.982   2.154  10.461 -0.0959 -0.4414 -0.4378
  111MOL0     C14860   9.067   2.083  10.572 -0.5793  0.1565  0.9114
  111MOL0     C14861   9.207   2.052  10.520  0.0570 -0.0050  0.4167
  111MOL0     C14862   9.290   1.998  10.626  0.1550 -0.6339  0.3436
  111MOL0     C14863   9.427   1.954  10.562 -0.0240 -0.0075  0.3197
  111MOL0     C14864   9.475   1.807  10.598  0.4425  0.3502  0.0216
  111MOL0     C14865   9.456   1.704  10.476 -0.0719 -0.6273 -0.3285
  111MOL0     C14866   9.317   1.694  10.408  0.5141 -0.4724 -0.3702
  111MOL0     N14867   9.231   1.641  10.522  0.4651  0.4935 -0.5324
  111MOL0     C14868   9.113   1.700  10.549  0.0875 -0.6050 -0.0106
  111MOL0     C14869   9.044   1.612  10.631 -0.0970  0.9960  0.1215
  111MOL0     C14870   8.914   1.642  10.693 -0.7727 -0.1840 -0.1041
  111MOL0     C14871   8.804   1.696  10.594 -1.0502 -0.3292  0.7123
  111MOL0     C14872   8.670   1.714  10.658  1.1510 -0.0243 -0.5221
  111MOL0     C14873   8.567   1.604  10.626  0.2491  0.9884  0.0908
  111MOL0     O14874   8.542   1.605  10.485  0.4285  0.2782 -0.8808
  111MOL0     C14875   8.449   1.681  10.417  0.0076 -0.4525 -0.0657
  111MOL0     C14876   8.450   1.674  10.276  0.9073  1.0353 -0.4394
  111MOL0     C14877   8.364   1.745  10.199  0.4666  0.2912 -0.0262
  111MOL0     C14878   8.361   1.710  10.056 -0.0550 -0.1450 -0.1231
  111MOL0     C14879   8.278   1.837  10.266 -0.3103  0.4690  0.3925
  111MOL0     C14880   8.162   1.909  10.196  1.7755 -0.1662  0.3030
  111MOL0     O14881   8.071   1.839  10.127  0.4007  0.4933  0.6030
  111MOL0     C14882   7.968   1.907  10.074  0.6414  0.0052 -0.1244
  111MOL0     C14883   7.989   1.986   9.958  0.1235 -1.0681  0.9141
  111MOL0     C14884   7.886   2.066   9.904 -0.4272 -0.4218  1.5912
  111MOL0     C14885   7.765   2.074   9.966 -0.3874 -0.6207  0.6390
  111MOL0     O14886   7.674   2.164   9.912 -0.0118  0.2979  0.4243
  111MOL0     C14887   7.603   2.231  10.014  0.4186 -0.0206  0.7144
  111MOL0     C14888   7.522   2.339   9.954 -0.4163 -0.2209  0.0525
  111MOL0     C14889   7.405   2.290   9.876 -0.1636 -0.5777 -0.1238
  111MOL0     C14890   7.309   2.408   9.852 -1.0593  0.9987 -1.3109
  111MOL0     C14891   7.192   2.377   9.760 -0.8214  0.0735 -0.1937
  111MOL0     C14892   7.060   2.340   9.829 -0.3829  0.1761  0.3532
  111MOL0     C14893   6.950   2.397   9.748 -0.0625  0.2424  0.5184
  111MOL0     C14894   6.822   2.378   9.817  0.0232  0.4017  0.1778
  111MOL0    Cl14895   6.812   2.451   9.986  0.8976  0.2167 -0.1086
  111MOL0     C14896   7.740   1.988  10.074  0.7457 -1.0142  0.1054
  111MOL0     C14897   7.845   1.910  10.128  0.0526 -0.3310 -1.1804
  111MOL0     O14898   8.167   2.034  10.208  0.3828  0.7157 -0.3689
  111MOL0     C14899   8.286   1.856  10.403  0.5403 -0.2183 -0.2229
  111MOL0     C14900   8.356   1.768  10.480 -0.3756 -0.5564 -0.2945
  111MOL0     N14901   9.127   1.493  10.646  0.0531  0.2696  0.5881
  111MOL0     N14902   9.240   1.520  10.585  0.2912 -0.6382 -0.1351
  111MOL0     C14903   9.094   2.492  10.522  1.4036  0.2136  0.1168
  111MOL0     C14904   9.078   2.607  10.600  0.1962 -0.7403  0.2695
  111MOL0     C14905   9.002   2.872  10.958  0.0003 -0.3681  0.1769
  111MOL0     C14906   8.871   2.881  10.992  0.0224 -0.1457  0.2315
  111MOL0     C14907   8.839   2.972  11.104 -0.0380 -0.1076  1.0075
  111MOL0     C14908   8.936   3.058  11.156 -0.1266  0.2435 -0.9311
  111MOL0     O14909   8.910   3.156  11.248 -0.0118 -0.8248 -0.5523
  111MOL0     C14910   8.784   3.147  11.323 -0.0811  0.5174  1.2726
  111MOL0     C14911   8.778   3.261  11.427  0.9043  0.1204  0.1798
  111MOL0     C14912   8.752   3.399  11.362 -0.7517  0.1894 -1.1533
  111MOL0     C14913   8.748   3.498  11.490  0.7594  0.5323 -0.5963
  111MOL0     C14914   8.612   3.509  11.535 -0.3996 -0.0930  0.9902
  111MOL0     C14915   8.492   3.506  11.566  0.2143 -0.6410 -0.3913
  111MOL0     C14916   9.063   3.042  11.112 -0.0689  0.1384  0.3572
  111MOL0     C14917   9.095   2.956  11.015 -1.3692  0.1231 -0.3725
  111MOL0     H14918   8.810   2.503  10.784  0.4638 -0.2533  1.0360
  111MOL0     H14919   8.833   2.305  10.628  1.1091 -0.4034  3.3593
  111MOL0     H14920   8.876   2.133  10.478 -0.4382  2.7103  2.4706
  111MOL0     H14921   9.006   2.093  10.373  1.6771 -0.4113 -0.0165
  111MOL0     H14922   9.079   2.151  10.657 -3.1096  1.9022 -0.0196
  111MOL0     H14923   9.033   1.989  10.618  3.8626 -0.2749  4.0111
  111MOL0     H14924   9.201   1.993  10.427  3.2976  0.2937 -0.0984
  111MOL0     H14925   9.261   2.141  10.486 -0.6478 -0.6132 -2.5995
  111MOL0     H14926   9.327   2.078  10.691 -1.8598 -0.5267  1.4321
  111MOL0     H14927   9.236   1.927  10.689  1.1882 -1.6975  0.0723
  111MOL0     H14928   9.438   1.988  10.459  2.6337 -0.9564  0.1914
  111MOL0     H14929   9.498   2.020  10.614 -2.1495  0.8036  2.3559
  111MOL0     H14930   9.583   1.812  10.615 -0.0509  0.7173  3.8903
  111MOL0     H14931   9.436   1.773  10.695 -1.3709  2.1809  0.0007
  111MOL0     H14932   9.535   1.736  10.408  0.8387 -1.2103  0.4152
  111MOL0     H14933   9.486   1.608  10.521  0.9674 -0.3412 -0.3899
  111MOL0     H14934   9.326   1.625  10.323  1.2973  0.6742 -1.2440
  111MOL0     H14935   9.288   1.794  10.378 -0.7267 -0.1845  1.6319
  111MOL0     H14936   9.087   1.794  10.500  0.6725 -0.2906  0.2645
  111MOL0     H14937   8.876   1.546  10.728  1.0148 -1.5881 -1.7708
  111MOL0     H14938   8.928   1.706  10.780 -0.5816  0.0272 -0.2856
  111MOL0     H14939   8.788   1.621  10.516 -0.0330 -2.5097  2.4675
  111MOL0     H14940   8.843   1.784  10.543 -0.1543 -1.2197 -0.1637
  111MOL0     H14941   8.622   1.807  10.624 -0.4027 -1.3986 -2.3470
  111MOL0     H14942   8.672   1.731  10.766 -0.6769 -1.1396 -0.2633
  111MOL0     H14943   8.475   1.615  10.684 -0.6994 -1.2199 -0.8777
  111MOL0     H14944   8.604   1.501  10.637 -0.3450  0.9271  1.8129
  111MOL0     H14945   8.518   1.601  10.233 -1.9302 -1.1332 -1.5107
  111MOL0     H14946   8.279   1.748   9.995 -0.0651  1.2696  0.7440
  111MOL0     H14947   8.453   1.749  10.011 -0.1130  1.1028  0.8118
  111MOL0     H14948   8.354   1.601  10.063 -0.5099  0.0036  3.9872
  111MOL0     H14949   8.092   1.985   9.923 -0.7086 -0.4648 -1.8339
  111MOL0     H14950   7.909   2.128   9.819  1.0348 -1.0653  1.4852
  111MOL0     H14951   7.545   2.152  10.061  2.8575 -3.8416 -2.1458
  111MOL0     H14952   7.661   2.276  10.095 -0.7715  1.6102  0.7133
  111MOL0     H14953   7.504   2.404  10.040 -1.2861 -0.7364  0.2659
  111MOL0     H14954   7.581   2.394   9.880 -1.5053  1.9141  0.6858
  111MOL0     H14955   7.364   2.215   9.943 -0.2435 -1.0356 -0.6791
  111MOL0     H14956   7.433   2.246   9.780 -0.6444  1.6432 -1.3709
  111MOL0     H14957   7.266   2.433   9.949  1.5842 -3.5982  1.4176
  111MOL0     H14958   7.366   2.491   9.808 -0.5688  0.2334 -2.1665
  111MOL0     H14959   7.218   2.289   9.700 -1.3080  0.2880 -0.7230
  111MOL0     H14960   7.189   2.460   9.689  0.5179  0.1788 -0.1531
  111MOL0     H14961   7.055   2.231   9.836  1.1606  0.0699  0.2049
  111MOL0     H14962   7.067   2.379   9.931  2.5923  0.0207  0.2961
  111MOL0     H14963   6.938   2.346   9.652  0.2015  2.1148 -0.5666
  111MOL0     H14964   6.974   2.496   9.707 -0.4178  0.6384  1.2536
  111MOL0     H14965   6.803   2.271   9.825 -1.9778  0.6547 -0.5436
  111MOL0     H14966   6.738   2.420   9.761 -1.5703  1.6975  3.3100
  111MOL0     H14967   7.646   1.973  10.126  0.9627  0.5921  1.0280
  111MOL0     H14968   7.809   1.866  10.221 -1.7116  0.6964 -1.3402
  111MOL0     H14969   8.220   1.931  10.445 -0.0684 -1.2611  0.7663
  111MOL0     H14970   8.357   1.758  10.588 -0.6848 -3.9527 -0.5013
  111MOL0     H14971   9.156   2.476  10.435  0.4060 -3.9302 -0.0197
  111MOL0     H14972   9.143   2.689  10.570 -1.1123  0.4080  0.4817
  111MOL0     H14973   8.790   2.828  10.942 -0.9269 -0.0850  1.6574
  111MOL0     H14974   8.733   2.976  11.128 -0.0088  1.6134  0.9580
  111MOL0     H14975   8.705   3.165  11.250 -0.6524  3.8208  2.5174
  111MOL0     H14976   8.771   3.047  11.366 -1.5272  0.2707  0.3354
  111MOL0     H14977   8.881   3.261  11.465  0.4738  3.0146  1.6255
  111MOL0     H14978   8.695   3.248  11.496 -0.2879  1.5045 -0.9315
  111MOL0     H14979   8.661   3.398  11.301 -1.6071 -3.5203 -0.0799
  111MOL0     H14980   8.835   3.426  11.295 -1.0176  0.5926 -1.3258
  111MOL0     H14981   8.784   3.597  11.460  2.1082  0.7737  1.6406
  111MOL0     H14982   8.814   3.458  11.567 -2.2694 -4.2498 -0.0359
  111MOL0     H14983   8.390   3.499  11.597  0.9455 -0.3661  2.3228
  111MOL0     H14984   9.138   3.108  11.155  1.5609 -0.9174 -0.7701
  111MOL0     H14985   9.200   2.962  10.987 -1.5580  1.4394 -0.8674
  112MOL0     O14986  10.691   0.994   3.236 -0.5453 -0.6327 -0.4603
  112MOL0     C14987  10.791   0.972   3.175 -0.4578 -0.7692  1.0429
  112MOL0     O14988  10.919   1.027   3.191 -0.0841 -0.0733  0.0320
  112MOL0     C14989  10.953   1.130   3.276 -0.2637 -0.1618  0.2110
  112MOL0     C14990  10.888   1.147   3.408 -0.2577  0.1376 -0.4033
  112MOL0     C14991  10.925   1.237   3.498  0.2350 -0.8118  0.2096
  112MOL0     C14992  11.022   1.334   3.467  0.3537  0.3651  0.5135
  112MOL0     O14993  11.043   1.445   3.552 -0.1308  0.2541  0.3283
  112MOL0     C14994  10.999   1.419   3.692  0.3406 -0.2007 -0.0271
  112MOL0     C14995  11.071   1.509   3.790 -0.1254 -0.9426  0.1618
  112MOL0     C14996  11.206   1.448   3.839 -1.2914  1.2372  0.2496
  112MOL0     C14997  11.274   1.543   3.932  0.2082 -0.4440 -0.9310
  112MOL0     C14998  11.383   1.477   4.031  0.3989 -0.2689  0.5385
  112MOL0     C14999  11.441   1.583   4.125 -0.6327  0.4489  0.2299
  112MOL0     C15000  11.560   1.533   4.207  0.9079 -0.5144 -0.0727
  112MOL0     C15001  11.681   1.501   4.119 -0.3927 -0.5039  0.5906
  112MOL0     N15002  11.708   1.616   4.026 -0.0042  0.1010 -0.3285
  112MOL0     C15003  11.812   1.703   4.048 -0.0635 -0.4387  0.5956
  112MOL0     C15004  11.831   1.766   3.927  0.4974  1.3531 -0.4030
  112MOL0     C15005  11.923   1.869   3.875  0.4396 -0.2654  0.2014
  112MOL0     C15006  12.034   1.791   3.793  0.1640 -0.5970  0.6529
  112MOL0     C15007  12.104   1.881   3.689  0.1138  0.9187 -0.1879
  112MOL0     C15008  12.013   1.949   3.589  0.5448  0.0461 -0.2877
  112MOL0     O15009  12.087   2.054   3.522 -0.4742  0.2583  0.4751
  112MOL0     C15010  12.065   2.062   3.392  0.3746 -0.6599 -0.5714
  112MOL0     C15011  12.173   2.104   3.321  0.2756  0.1065 -0.3957
  112MOL0     C15012  12.165   2.132   3.184 -0.8613  0.2417 -0.4693
  112MOL0     C15013  12.291   2.192   3.111 -0.5047 -0.2143  0.0085
  112MOL0     C15014  12.037   2.112   3.107 -0.3381  0.2839 -0.4290
  112MOL0     C15015  12.017   2.129   2.963  0.3009 -0.0682 -0.5743
  112MOL0     O15016  12.121   2.114   2.883  0.9565 -0.2310  0.8021
  112MOL0     C15017  12.110   2.159   2.748 -0.0145  0.4917  0.2844
  112MOL0     C15018  12.020   2.101   2.659  0.3488 -0.3438 -0.4019
  112MOL0     C15019  12.005   2.152   2.530 -0.2607  0.1150 -0.1015
  112MOL0     C15020  12.081   2.255   2.475  0.3694 -0.1017  0.1895
  112MOL0     O15021  12.056   2.314   2.355  0.4827  0.7235 -0.0635
  112MOL0     C15022  12.155   2.332   2.261 -0.5968 -0.9851  0.9294
  112MOL0     C15023  12.164   2.490   2.245  0.3088  0.7502 -0.0041
  112MOL0     C15024  12.264   2.532   2.133  0.9641 -0.3508 -0.1879
  112MOL0     C15025  12.243   2.460   1.991 -1.3271  0.0811  0.9005
  112MOL0     C15026  12.326   2.523   1.879 -0.6213 -0.0542  0.2664
  112MOL0     C15027  12.466   2.482   1.875 -0.2780 -0.4957  0.6105
  112MOL0     C15028  12.542   2.535   1.746  0.6825 -0.3345  0.5138
  112MOL0     C15029  12.498   2.676   1.702 -0.4155 -0.6377  0.4474
  112MOL0    Cl15030  12.587   2.739   1.570 -0.0560 -0.3843 -0.0585
  112MOL0     C15031  12.185   2.305   2.557 -0.1724 -0.0521 -0.3988
  112MOL0     C15032  12.206   2.247   2.686  0.9646  0.1826  0.0324
  112MOL0     O15033  11.910   2.171   2.927  0.6724 -0.6531 -0.2964
  112MOL0     C15034  11.930   2.075   3.182  0.9344 -0.1461 -0.3114
  112MOL0     C15035  11.942   2.053   3.327  0.1144  0.3978  0.1179
  112MOL0     N15036  11.735   1.714   3.843 -0.3601  0.1447  0.0378
  112MOL0     N15037  11.663   1.626   3.896  0.4804  0.6624 -0.3568
  112MOL0     C15038  11.082   1.325   3.341  0.2368 -0.3956  0.0096
  112MOL0     C15039  11.053   1.223   3.251 -0.2649  0.0290 -0.8974
  112MOL0     C15040  10.797   0.882   3.065  0.3868  0.6596  0.2573
  112MOL0     C15041  10.676   0.828   3.006  0.5186 -0.1636  0.4047
  112MOL0     C15042  10.685   0.728   2.910  0.2725  1.1568  0.2706
  112MOL0     C15043  10.811   0.691   2.859  1.4363  0.4566  0.1614
  112MOL0     O15044  10.803   0.594   2.762  0.4199  0.3052  0.7541
  112MOL0     C15045  10.917   0.557   2.689 -1.2824  0.2235  0.4399
  112MOL0     C15046  10.874   0.439   2.602  0.5038  0.1768  1.0756
  112MOL0     C15047  10.760   0.466   2.501  0.2244 -0.1285 -0.4555
  112MOL0     C15048  10.716   0.335   2.433 -0.5143 -0.0557  0.5328
  112MOL0     C15049  10.596   0.359   2.344  0.3375 -0.5279 -0.7160
  112MOL0     C15050  10.502   0.403   2.279  0.5126 -0.5846 -0.4244
  112MOL0     C15051  10.929   0.745   2.903  0.0111 -1.2735 -0.2547
  112MOL0     C15052  10.919   0.838   3.010  0.0646 -0.4991 -0.0676
  112MOL0     H15053  10.814   1.075   3.441 -0.5308  0.3009 -0.6566
  112MOL0     H15054  10.862   1.238   3.586  2.1517  2.2149  1.7062
  112MOL0     H15055  10.890   1.430   3.696  0.5462  1.9015  0.7020
  112MOL0     H15056  11.037   1.319   3.718  3.4372  1.7726  4.1618
  112MOL0     H15057  11.090   1.613   3.763 -0.5745 -0.4503  1.6741
  112MOL0     H15058  10.998   1.516   3.871 -1.4724  0.0767 -1.0744
  112MOL0     H15059  11.184   1.353   3.889 -2.6936  1.3268 -0.1514
  112MOL0     H15060  11.268   1.429   3.751 -2.6511 -1.3102 -0.2352
  112MOL0     H15061  11.328   1.616   3.871  1.0087 -0.5744 -0.3878
  112MOL0     H15062  11.202   1.610   3.981  0.4112  1.2721 -2.8224
  112MOL0     H15063  11.323   1.407   4.091 -1.6394 -0.0346 -1.1046
  112MOL0     H15064  11.459   1.426   3.972  0.4680 -0.1067  0.4868
  112MOL0     H15065  11.471   1.677   4.078 -0.1088  0.0828 -0.1871
  112MOL0     H15066  11.360   1.612   4.192 -1.1038 -2.1209  0.9071
  112MOL0     H15067  11.584   1.606   4.285 -2.0054 -0.8971  1.3441
  112MOL0     H15068  11.531   1.443   4.263  1.3163 -0.4534  0.2446
  112MOL0     H15069  11.660   1.417   4.052  1.7796  1.0401 -2.2627
  112MOL0     H15070  11.769   1.483   4.181  0.1496 -2.5259 -0.6899
  112MOL0     H15071  11.875   1.700   4.136  2.8667 -3.5382 -1.3464
  112MOL0     H15072  11.869   1.938   3.809 -1.2827 -1.4496  0.3087
  112MOL0     H15073  11.974   1.922   3.956  2.0811  0.6266 -1.3516
  112MOL0     H15074  11.986   1.710   3.737  3.0762 -1.2259 -1.1911
  112MOL0     H15075  12.111   1.751   3.859 -0.1273 -0.8420  0.8460
  112MOL0     H15076  12.183   1.836   3.627 -0.2098  0.1369 -0.0413
  112MOL0     H15077  12.152   1.959   3.749 -0.5815  1.0509  0.2027
  112MOL0     H15078  11.916   1.991   3.618  1.0545  1.4667 -0.5697
  112MOL0     H15079  11.988   1.867   3.520  0.3454 -0.7607  0.7205
  112MOL0     H15080  12.272   2.119   3.365  1.4188  1.2616 -3.1112
  112MOL0     H15081  12.333   2.129   3.031  1.8806 -0.2085  1.1697
  112MOL0     H15082  12.279   2.293   3.073  0.1177  0.0897  0.6107
  112MOL0     H15083  12.375   2.199   3.180  0.8140  1.1965 -1.6483
  112MOL0     H15084  11.964   2.019   2.703  2.1058 -0.8706  1.0004
  112MOL0     H15085  11.925   2.117   2.465 -1.6657  0.7424  1.2327
  112MOL0     H15086  12.254   2.290   2.278  0.7263  0.9536 -1.3012
  112MOL0     H15087  12.117   2.292   2.166 -2.0858  0.8950  0.6619
  112MOL0     H15088  12.062   2.530   2.238  1.8644  5.4159  0.6276
  112MOL0     H15089  12.207   2.527   2.339  1.3554  1.4156 -0.7315
  112MOL0     H15090  12.368   2.509   2.160  0.3322 -2.7936  0.4015
  112MOL0     H15091  12.258   2.641   2.124 -1.4255 -0.4723 -0.7616
  112MOL0     H15092  12.262   2.353   1.980 -2.1083  0.1224 -1.2814
  112MOL0     H15093  12.138   2.471   1.961 -1.0213 -1.8853 -1.1119
  112MOL0     H15094  12.336   2.631   1.893  1.4986  0.0142 -1.2423
  112MOL0     H15095  12.286   2.492   1.782  0.6878 -1.0513  0.0275
  112MOL0     H15096  12.510   2.542   1.955  0.8271 -0.3064 -0.1272
  112MOL0     H15097  12.487   2.374   1.881  2.3279 -0.0307  0.9083
  112MOL0     H15098  12.517   2.483   1.653  0.3433  3.6823 -1.8715
  112MOL0     H15099  12.651   2.534   1.754  0.5985  0.0670  2.0328
  112MOL0     H15100  12.517   2.743   1.787 -0.8264 -0.5834  0.4970
  112MOL0     H15101  12.393   2.691   1.675  0.0570  1.4150 -0.4153
  112MOL0     H15102  12.269   2.365   2.523 -0.3929  0.7848  0.4675
  112MOL0     H15103  12.291   2.268   2.751 -0.2440 -1.2119  2.1665
  112MOL0     H15104  11.832   2.077   3.134  0.9832  0.8087 -0.3850
  112MOL0     H15105  11.849   2.042   3.383  1.0223 -1.4468  1.3978
  112MOL0     H15106  11.162   1.395   3.318  0.9800 -1.6163 -1.2468
  112MOL0     H15107  11.103   1.210   3.155  0.2834 -0.8429 -0.5097
  112MOL0     H15108  10.587   0.869   3.053  3.7303  2.6612  4.8990
  112MOL0     H15109  10.597   0.681   2.867  2.5807 -1.6597 -1.6749
  112MOL0     H15110  10.969   0.635   2.633 -1.0802  0.3268  0.7718
  112MOL0     H15111  10.971   0.518   2.775 -1.1128  3.9844  2.1978
  112MOL0     H15112  10.834   0.363   2.670 -1.3201 -0.5594 -0.7165
  112MOL0     H15113  10.958   0.385   2.555  0.4423  2.5975 -2.1605
  112MOL0     H15114  10.799   0.534   2.425  3.2616 -2.3296 -1.0944
  112MOL0     H15115  10.672   0.507   2.551 -0.3401  1.4601 -2.6038
  112MOL0     H15116  10.704   0.250   2.501  4.1586 -1.8782 -0.5078
  112MOL0     H15117  10.798   0.300   2.370  0.5384  3.2906 -0.1419
  112MOL0     H15118  10.407   0.418   2.231  1.0981  2.8300 -0.8036
  112MOL0     H15119  11.028   0.715   2.871  1.7490  1.7985  1.6983
  112MOL0     H15120  11.018   0.873   3.035  1.4445 -2.5238 -2.2337
  113MOL0     O15121   9.698   3.565   5.611  0.4367  0.0082  0.1419
  113MOL0     C15122   9.818   3.592   5.605  0.0434  1.0343 -0.4914
  113MOL0     O15123   9.895   3.568   5.495  0.8286 -0.3194  0.3104
  113MOL0     C15124   9.842   3.481   5.401  0.4250 -0.1790 -0.1296
  113MOL0     C15125   9.745   3.509   5.305 -0.3777  0.2433  0.5539
  113MOL0     C15126   9.690   3.416   5.221 -0.2970  1.3695 -0.0519
  113MOL0     C15127   9.747   3.290   5.229  0.8047  0.2625 -1.2348
  113MOL0     O15128   9.685   3.201   5.141  0.0951 -0.1680  0.2807
  113MOL0     C15129   9.673   3.062   5.193  0.2258  0.5516 -0.3979
  113MOL0     C15130   9.616   2.983   5.081 -0.3607  0.7351  0.4883
  113MOL0     C15131   9.712   2.994   4.966 -0.8037  0.3967  0.0441
  113MOL0     C15132   9.695   2.890   4.855  0.3916 -0.4255 -0.1620
  113MOL0     C15133   9.555   2.885   4.789  0.4453 -0.3357 -0.6987
  113MOL0     C15134   9.436   2.832   4.877 -0.1021  0.3721  0.0658
  113MOL0     C15135   9.317   2.759   4.791  0.7947  0.3011  0.3463
  113MOL0     C15136   9.228   2.661   4.882 -0.7950  0.2901  0.5946
  113MOL0     N15137   9.139   2.745   4.973 -0.7883  0.3020  1.1124
  113MOL0     C15138   9.179   2.803   5.088 -1.1196 -0.2394  0.3666
  113MOL0     C15139   9.069   2.866   5.134  0.3890  0.7644  0.6286
  113MOL0     C15140   9.044   2.943   5.255 -0.4246 -0.1925 -0.4562
  113MOL0     C15141   9.164   2.927   5.362  0.1052 -0.6454 -0.2754
  113MOL0     C15142   9.282   3.010   5.334  0.1821 -0.7870  0.0773
  113MOL0     C15143   9.292   3.148   5.398 -0.5942  0.9168 -0.5330
  113MOL0     O15144   9.300   3.150   5.537  0.8363  0.4454  0.2229
  113MOL0     C15145   9.402   3.079   5.602  0.5473 -0.7267 -0.0892
  113MOL0     C15146   9.537   3.068   5.562  0.1465 -0.5871 -0.0904
  113MOL0     C15147   9.633   3.001   5.646  0.1654 -0.2769  0.4701
  113MOL0     C15148   9.772   3.014   5.598 -0.4206 -0.0695  0.5516
  113MOL0     C15149   9.595   2.947   5.768 -0.6291  0.9401 -0.5650
  113MOL0     C15150   9.692   2.887   5.859  0.3244 -0.5134  0.0902
  113MOL0     O15151   9.647   2.788   5.946 -0.1918  0.0108  0.3496
  113MOL0     C15152   9.741   2.715   6.023  0.6790 -0.0245  0.0225
  113MOL0     C15153   9.855   2.663   5.962  0.2577  0.5503  0.2095
  113MOL0     C15154   9.934   2.572   6.033 -0.4889 -0.0777  0.3279
  113MOL0     C15155   9.899   2.534   6.166 -0.1881 -0.2435  0.8637
  113MOL0     O15156   9.985   2.474   6.253  0.3090 -0.2873 -0.4835
  113MOL0     C15157  10.107   2.419   6.215 -0.2456 -0.2427 -0.6952
  113MOL0     C15158  10.177   2.356   6.336 -0.0021  0.2968  0.2125
  113MOL0     C15159  10.132   2.202   6.347 -0.0919  0.9590 -0.8315
  113MOL0     C15160  10.198   2.117   6.448  0.0103 -0.2920  0.1962
  113MOL0     C15161  10.157   1.969   6.463 -0.2683  0.0696  0.2359
  113MOL0     C15162   9.998   1.963   6.483  0.3180 -0.1922  0.2600
  113MOL0     C15163   9.941   1.839   6.542  0.4118 -1.1589  0.6463
  113MOL0     C15164   9.797   1.820   6.534  0.9213  0.2347 -0.4981
  113MOL0    Cl15165   9.763   1.650   6.562  0.1364 -0.0879 -0.1111
  113MOL0     C15166   9.790   2.597   6.227 -0.1434  0.5515 -0.2274
  113MOL0     C15167   9.707   2.677   6.146  0.3202 -0.9917  0.5974
  113MOL0     O15168   9.803   2.937   5.859  0.1468 -0.1536 -0.2683
  113MOL0     C15169   9.463   2.948   5.801  1.0266 -0.2120  0.2152
  113MOL0     C15170   9.369   3.017   5.719 -0.7052  0.4781  0.0081
  113MOL0     N15171   8.963   2.837   5.047  0.1371 -0.3860 -0.4189
  113MOL0     N15172   9.006   2.771   4.948 -1.2571  0.1838 -1.0286
  113MOL0     C15173   9.844   3.259   5.321 -0.5105  0.2072  0.2223
  113MOL0     C15174   9.889   3.351   5.409 -0.7137  0.5616 -0.4335
  113MOL0     C15175   9.899   3.649   5.713 -0.1664  0.8086 -0.5675
  113MOL0     C15176  10.039   3.674   5.698 -0.3487  0.0002 -0.6055
  113MOL0     C15177  10.107   3.744   5.791  0.6645 -0.6486  0.8335
  113MOL0     C15178  10.043   3.802   5.905 -0.8229 -0.1798 -0.4290
  113MOL0     O15179  10.099   3.888   6.001 -0.5968  0.2986 -0.4339
  113MOL0     C15180  10.237   3.879   6.027 -0.8764 -0.2018 -0.6239
  113MOL0     C15181  10.296   4.018   6.014  0.2583  0.2860 -0.6491
  113MOL0     C15182  10.349   4.057   5.867  0.6373 -0.7692 -0.7556
  113MOL0     C15183  10.479   4.131   5.880 -0.5494  0.1159 -0.6717
  113MOL0     C15184  10.527   4.157   5.746  0.5598 -0.0035  0.7707
  113MOL0     C15185  10.560   4.203   5.633 -0.2317  0.4308 -1.0323
  113MOL0     C15186   9.906   3.774   5.929  0.3305 -0.0107  0.2248
  113MOL0     C15187   9.838   3.701   5.833 -0.1092 -0.3177 -0.5120
  113MOL0     H15188   9.689   3.602   5.315 -0.6282  0.1294  0.2328
  113MOL0     H15189   9.611   3.440   5.151 -2.7811 -1.9991  1.3486
  113MOL0     H15190   9.764   3.012   5.227 -0.8861 -1.1261  0.2379
  113MOL0     H15191   9.602   3.050   5.275  1.4773 -0.3934  0.5934
  113MOL0     H15192   9.585   2.883   5.113  0.0869  0.8724  1.3966
  113MOL0     H15193   9.527   3.034   5.043 -0.1277 -0.2762 -1.5443
  113MOL0     H15194   9.730   3.094   4.925  3.1135 -1.1927 -2.7257
  113MOL0     H15195   9.809   2.962   5.003 -1.5696 -2.4977 -0.1689
  113MOL0     H15196   9.755   2.931   4.774 -2.4503  0.7745 -1.7946
  113MOL0     H15197   9.732   2.794   4.894  2.1108  0.8511  1.4926
  113MOL0     H15198   9.526   2.986   4.760  2.3287 -0.3468 -2.8911
  113MOL0     H15199   9.558   2.816   4.705 -2.3563 -3.3765  1.4304
  113MOL0     H15200   9.491   2.765   4.944  0.0975 -0.0589 -0.5253
  113MOL0     H15201   9.394   2.911   4.941 -1.4695 -4.3071  5.8210
  113MOL0     H15202   9.254   2.820   4.727  1.7927 -2.6147 -3.8132
  113MOL0     H15203   9.366   2.693   4.719  2.5751  2.2483 -0.2992
  113MOL0     H15204   9.293   2.599   4.945  0.1255  1.3958  0.7543
  113MOL0     H15205   9.179   2.589   4.815  0.7495 -0.9834  0.7779
  113MOL0     H15206   9.274   2.787   5.137 -1.6620  1.3899  2.0595
  113MOL0     H15207   9.021   3.048   5.236 -2.4388  0.4148  3.9376
  113MOL0     H15208   8.944   2.908   5.283 -1.2558  1.1447 -1.6056
  113MOL0     H15209   9.197   2.823   5.359  0.2876 -0.5819 -0.4947
  113MOL0     H15210   9.127   2.957   5.460  1.8446  2.5089 -0.4596
  113MOL0     H15211   9.295   3.025   5.226  1.4184  1.5701  0.4885
  113MOL0     H15212   9.368   2.955   5.371  0.4829 -0.3529  0.0326
  113MOL0     H15213   9.206   3.212   5.377 -1.3657  1.2235  2.9323
  113MOL0     H15214   9.380   3.203   5.364  0.2743  0.1633  0.4312
  113MOL0     H15215   9.576   3.115   5.473  2.6675 -0.4863  0.9826
  113MOL0     H15216   9.772   3.002   5.489  0.9587  0.8858  0.4200
  113MOL0     H15217   9.801   3.118   5.613 -3.6475  0.8606  1.0191
  113MOL0     H15218   9.856   2.953   5.634 -0.8128 -0.3199  1.0563
  113MOL0     H15219   9.878   2.685   5.859  5.0033 -1.4835  0.5678
  113MOL0     H15220  10.035   2.559   5.995 -0.9142 -0.2275 -0.8103
  113MOL0     H15221  10.105   2.363   6.121 -0.2577 -0.2100 -0.7143
  113MOL0     H15222  10.177   2.500   6.193  1.6934 -1.4178  0.8133
  113MOL0     H15223  10.282   2.355   6.307 -0.5324 -0.5224 -1.9458
  113MOL0     H15224  10.170   2.411   6.430 -0.3471  0.8247 -0.1129
  113MOL0     H15225  10.130   2.150   6.251  0.6348 -1.7858  0.5313
  113MOL0     H15226  10.031   2.207   6.390  0.1068 -0.1098 -0.2147
  113MOL0     H15227  10.305   2.131   6.433  0.5796 -0.1270  3.5494
  113MOL0     H15228  10.172   2.168   6.541  0.8655  1.5777 -0.5313
  113MOL0     H15229  10.205   1.937   6.556  0.0004 -0.1450  0.0220
  113MOL0     H15230  10.192   1.912   6.377  3.3069 -0.3576  1.8264
  113MOL0     H15231   9.973   2.049   6.547 -1.1889 -2.6814  3.2987
  113MOL0     H15232   9.958   1.984   6.384  0.3876 -0.2134  0.2276
  113MOL0     H15233   9.979   1.832   6.645 -0.2032  2.7939  1.2824
  113MOL0     H15234   9.988   1.757   6.488  0.4166 -1.7808  1.5658
  113MOL0     H15235   9.758   1.835   6.433  1.1340 -0.7945 -0.7408
  113MOL0     H15236   9.741   1.888   6.599 -2.6812 -3.3764  0.6012
  113MOL0     H15237   9.758   2.579   6.330 -1.2161 -0.1231 -0.6589
  113MOL0     H15238   9.615   2.714   6.190 -0.6391 -1.4200 -0.9805
  113MOL0     H15239   9.423   2.909   5.894 -2.5163  2.4237  0.0049
  113MOL0     H15240   9.270   3.022   5.762 -0.5490 -2.1799  0.8679
  113MOL0     H15241   9.887   3.160   5.333  1.3260  1.2223  2.8017
  113MOL0     H15242   9.960   3.312   5.482 -0.9498 -0.8732 -0.9425
  113MOL0     H15243  10.093   3.656   5.606  0.5315  2.9844 -0.7746
  113MOL0     H15244  10.212   3.759   5.767 -0.0583  3.4596 -0.6529
  113MOL0     H15245  10.266   3.831   6.121  2.5016 -2.4643 -2.5823
  113MOL0     H15246  10.286   3.817   5.951  0.4853  1.0866 -0.8454
  113MOL0     H15247  10.372   4.033   6.092 -3.1865 -1.3702  3.4602
  113MOL0     H15248  10.213   4.088   6.029 -2.2888 -1.7545 -3.9043
  113MOL0     H15249  10.275   4.122   5.821 -1.2913 -1.7888  0.7815
  113MOL0     H15250  10.360   3.966   5.808 -1.2031 -1.3650 -0.2243
  113MOL0     H15251  10.544   4.057   5.926 -1.9479 -0.7318 -0.0148
  113MOL0     H15252  10.475   4.222   5.940 -0.4673 -0.3805  0.0963
  113MOL0     H15253  10.595   4.239   5.538 -1.5200  0.7395 -1.4138
  113MOL0     H15254   9.840   3.819   6.003 -1.7702 -0.5164 -1.2673
  113MOL0     H15255   9.730   3.691   5.842 -0.1799  1.2612  0.8968
  114MOL0     O15256   1.625  11.022   1.941 -0.4145 -0.2564  0.4906
  114MOL0     C15257   1.590  11.121   2.001 -0.4382 -0.5346  0.6104
  114MOL0     O15258   1.637  11.161   2.117 -0.4749 -0.2116  0.0544
  114MOL0     C15259   1.746  11.105   2.180 -0.3574  0.4124 -0.4306
  114MOL0     C15260   1.746  11.113   2.318  0.0128  0.3849 -0.5043
  114MOL0     C15261   1.839  11.054   2.395 -0.5956  0.5032  0.0621
  114MOL0     C15262   1.953  10.985   2.346 -0.2531 -0.4946  0.5875
  114MOL0     O15263   2.056  10.930   2.423 -0.0553 -0.4587 -0.6525
  114MOL0     C15264   2.008  10.841   2.524 -0.0581  0.6102  0.9729
  114MOL0     C15265   2.066  10.874   2.659  0.1543 -0.9519 -0.5016
  114MOL0     C15266   2.093  10.755   2.749  1.6492  0.1434  1.6248
  114MOL0     C15267   2.055  10.789   2.896 -0.2651 -0.2289 -0.8363
  114MOL0     C15268   2.150  10.707   2.989  0.8602  0.5725 -0.2829
  114MOL0     C15269   2.287  10.766   3.017 -0.4285 -0.0136  0.2855
  114MOL0     C15270   2.280  10.903   3.086 -0.2129  0.3267 -0.9816
  114MOL0     C15271   2.171  10.931   3.197 -0.1386  0.3398  0.3874
  114MOL0     N15272   2.193  10.846   3.313 -0.1666  0.8099 -0.8205
  114MOL0     C15273   2.298  10.858   3.404 -0.1137  0.1529  0.4467
  114MOL0     C15274   2.285  10.752   3.489  0.8407 -0.7696 -0.3747
  114MOL0     C15275   2.365  10.726   3.614  0.3794  0.1179 -0.7129
  114MOL0     C15276   2.412  10.873   3.654  0.3372  1.1210  0.2968
  114MOL0     C15277   2.473  10.878   3.798 -0.0591  0.1939  0.1702
  114MOL0     C15278   2.370  10.835   3.907 -0.0443  0.3147  0.8424
  114MOL0     O15279   2.404  10.898   4.031  0.0191 -0.2638 -0.0189
  114MOL0     C15280   2.305  10.873   4.134 -0.5731  0.3750  0.0362
  114MOL0     C15281   2.278  10.743   4.166  0.2175  0.1891 -0.4691
  114MOL0     C15282   2.185  10.712   4.264  0.4715 -1.0137 -0.4076
  114MOL0     C15283   2.136  10.568   4.272 -0.3775 -0.4705  0.1701
  114MOL0     C15284   2.151  10.811   4.359 -0.4695  0.1319  1.2592
  114MOL0     C15285   2.075  10.790   4.485 -0.6745 -0.1691 -0.1775
  114MOL0     O15286   2.037  10.905   4.548 -0.2108  0.1818  0.4422
  114MOL0     C15287   1.937  10.910   4.641  0.0489  0.5112 -0.1688
  114MOL0     C15288   1.928  10.814   4.747 -0.0870  1.4517 -0.2237
  114MOL0     C15289   1.813  10.818   4.823 -0.0075 -0.3825  1.0511
  114MOL0     C15290   1.701  10.903   4.794 -0.8804 -0.4568  0.7891
  114MOL0     O15291   1.588  10.887   4.868 -0.0781 -0.2680 -0.3190
  114MOL0     C15292   1.486  10.991   4.877  0.4927 -0.0587  0.3182
  114MOL0     C15293   1.544  11.093   4.969  0.5829 -0.2042 -0.3112
  114MOL0     C15294   1.438  11.208   4.979  0.7598  0.5123  0.2024
  114MOL0     C15295   1.496  11.352   5.031  0.6560 -0.2180  0.4429
  114MOL0     C15296   1.374  11.412   5.109  0.7071  0.0846  1.1911
  114MOL0     C15297   1.378  11.561   5.133  0.2624  0.4524  0.8735
  114MOL0     C15298   1.498  11.616   5.219 -0.7844  0.7921  0.4534
  114MOL0     C15299   1.456  11.736   5.274 -0.2534 -0.4495 -0.1965
  114MOL0    Cl15300   1.578  11.779   5.395  0.4317  0.5381 -0.3013
  114MOL0     C15301   1.707  10.987   4.683 -0.2353 -0.3272 -0.3757
  114MOL0     C15302   1.832  11.001   4.615 -0.9785  0.3063 -0.0237
  114MOL0     O15303   2.016  10.685   4.511 -0.8814  0.7019  0.5767
  114MOL0     C15304   2.184  10.944   4.329 -0.1881  0.1298  0.8025
  114MOL0     C15305   2.267  10.976   4.213 -0.4980 -0.0124 -1.1027
  114MOL0     N15306   2.177  10.664   3.434 -0.1502 -0.0017  0.0682
  114MOL0     N15307   2.121  10.726   3.334 -0.4888  0.1937  0.9025
  114MOL0     C15308   1.954  10.984   2.200  0.3005  0.0943 -0.8030
  114MOL0     C15309   1.858  11.045   2.122  0.2539  0.4968 -0.0988
  114MOL0     C15310   1.483  11.211   1.950 -0.0126 -0.4166 -0.6084
  114MOL0     C15311   1.444  11.329   2.017 -0.0787 -0.0488  0.4907
  114MOL0     C15312   1.342  11.421   1.969 -0.3807 -0.2755 -0.8524
  114MOL0     C15313   1.276  11.393   1.845 -0.7246  0.3050 -0.1844
  114MOL0     O15314   1.181  11.481   1.787 -0.2297 -1.4236 -0.2584
  114MOL0     C15315   1.203  11.621   1.773  0.1322  0.4431 -0.6237
  114MOL0     C15316   1.334  11.656   1.699 -0.1910 -1.1111 -0.9365
  114MOL0     C15317   1.309  11.621   1.544 -0.3009 -0.2384 -0.6332
  114MOL0     C15318   1.433  11.671   1.480 -0.1312 -0.7232  0.2870
  114MOL0     C15319   1.436  11.821   1.475 -0.2661 -0.9293  0.0604
  114MOL0     C15320   1.441  11.947   1.481 -0.3647 -0.0369 -0.4723
  114MOL0     C15321   1.310  11.270   1.786 -0.1051  0.5655  0.4283
  114MOL0     C15322   1.404  11.184   1.838 -0.6060 -0.0141  0.7642
  114MOL0     H15323   1.658  11.166   2.355  0.1526  0.0226  0.3585
  114MOL0     H15324   1.816  11.072   2.500 -0.2407  1.1565  0.0336
  114MOL0     H15325   1.900  10.825   2.535 -0.0876  1.3861  1.9556
  114MOL0     H15326   2.040  10.742   2.492  1.4116  1.7541 -1.3347
  114MOL0     H15327   2.166  10.916   2.647 -0.9178  1.6123 -1.2611
  114MOL0     H15328   2.007  10.948   2.715 -3.7142 -2.5992 -2.0137
  114MOL0     H15329   2.041  10.663   2.721  0.5213  1.5317 -1.1944
  114MOL0     H15330   2.198  10.725   2.742  1.1586 -1.2369 -0.7210
  114MOL0     H15331   2.065  10.896   2.912 -2.7137 -0.3715  3.1036
  114MOL0     H15332   1.952  10.757   2.914 -0.2851  0.3553  0.1666
  114MOL0     H15333   2.093  10.692   3.081 -1.1874  3.1529 -1.0082
  114MOL0     H15334   2.168  10.607   2.949  0.8698  0.2653  0.4660
  114MOL0     H15335   2.333  10.689   3.080 -1.6470 -0.8022  0.2407
  114MOL0     H15336   2.348  10.766   2.927  0.2538 -2.9120  0.6611
  114MOL0     H15337   2.382  10.914   3.123 -0.2902 -2.4809  0.3073
  114MOL0     H15338   2.268  10.979   3.008  3.1628  0.7473 -1.2235
  114MOL0     H15339   2.069  10.918   3.159  0.3839  0.3917 -1.0631
  114MOL0     H15340   2.203  11.033   3.220 -3.0775  1.4152  0.1655
  114MOL0     H15341   2.356  10.950   3.405 -1.2097  0.8826  2.1608
  114MOL0     H15342   2.292  10.684   3.684  1.3555  0.3896  0.4961
  114MOL0     H15343   2.447  10.655   3.600  0.6723  0.9322 -3.7871
  114MOL0     H15344   2.331  10.945   3.642 -2.5725 -1.8492  0.6761
  114MOL0     H15345   2.488  10.905   3.581 -0.3890  0.4160 -0.8087
  114MOL0     H15346   2.505  10.980   3.820  0.9971 -0.5330  2.3072
  114MOL0     H15347   2.561  10.813   3.790 -2.1397 -3.2361  2.3833
  114MOL0     H15348   2.363  10.726   3.904 -0.1818  0.3097 -2.2789
  114MOL0     H15349   2.272  10.869   3.871 -1.3586 -1.6542  2.3540
  114MOL0     H15350   2.320  10.661   4.109 -0.3644 -0.4787  0.0487
  114MOL0     H15351   2.193  10.505   4.202  0.9867  1.1518 -0.2464
  114MOL0     H15352   2.133  10.540   4.377 -1.6285  1.3291  0.6523
  114MOL0     H15353   2.029  10.569   4.250 -0.5974 -0.5588  1.1828
  114MOL0     H15354   1.998  10.735   4.773 -1.0083  0.8255  0.4087
  114MOL0     H15355   1.791  10.748   4.903 -0.2778 -2.3618 -0.6661
  114MOL0     H15356   1.454  11.033   4.782  1.8621  0.4475  0.0495
  114MOL0     H15357   1.400  10.949   4.929  1.7596  0.0746  2.6864
  114MOL0     H15358   1.559  11.041   5.064  3.3404  0.2760 -0.4003
  114MOL0     H15359   1.643  11.126   4.934  0.2036  0.0069 -1.1933
  114MOL0     H15360   1.357  11.176   5.045  0.4752 -1.3271 -0.9462
  114MOL0     H15361   1.386  11.227   4.885 -0.0145  1.3267  0.7798
  114MOL0     H15362   1.580  11.344   5.100  0.4042 -1.5096  0.6252
  114MOL0     H15363   1.522  11.414   4.945  0.5334  2.3664  2.1589
  114MOL0     H15364   1.350  11.361   5.202  0.6871 -1.0265  0.5889
  114MOL0     H15365   1.297  11.391   5.035  2.9780 -0.0217 -1.2834
  114MOL0     H15366   1.395  11.615   5.039  1.5091  1.8359  1.8448
  114MOL0     H15367   1.280  11.589   5.175 -0.3432  2.1271 -1.4468
  114MOL0     H15368   1.581  11.632   5.150  2.2820  0.0701  3.6595
  114MOL0     H15369   1.511  11.555   5.309 -1.4325 -0.5846 -0.3554
  114MOL0     H15370   1.364  11.710   5.327 -0.2184 -1.7308 -0.7574
  114MOL0     H15371   1.434  11.825   5.215 -0.0396  0.8749  1.6152
  114MOL0     H15372   1.632  11.056   4.644  0.3183  1.8419  2.0811
  114MOL0     H15373   1.855  11.072   4.536  0.1094 -0.5568 -0.4965
  114MOL0     H15374   2.164  11.031   4.391  1.6232  3.0035 -2.3332
  114MOL0     H15375   2.308  11.073   4.190 -0.6687 -0.1562 -2.0189
  114MOL0     H15376   2.034  10.926   2.156  1.6367  2.3458 -1.5064
  114MOL0     H15377   1.859  11.027   2.015 -4.0290 -0.6054 -0.1533
  114MOL0     H15378   1.491  11.355   2.111  2.6992 -1.2818 -0.4285
  114MOL0     H15379   1.329  11.516   2.020 -2.1248  0.2739 -2.2285
  114MOL0     H15380   1.121  11.666   1.716  1.6767  2.2429 -1.5118
  114MOL0     H15381   1.198  11.669   1.872  1.3960  0.8429 -0.7390
  114MOL0     H15382   1.418  11.604   1.746 -0.4965  0.7164  1.8236
  114MOL0     H15383   1.350  11.761   1.722 -1.8452 -1.6665  3.7490
  114MOL0     H15384   1.226  11.674   1.497  1.3243  1.0085 -2.2749
  114MOL0     H15385   1.309  11.513   1.528  0.3198 -0.2519 -0.5668
  114MOL0     H15386   1.428  11.637   1.376  0.8867 -3.2129  0.9882
  114MOL0     H15387   1.522  11.642   1.536 -1.9473  1.3031  4.6824
  114MOL0     H15388   1.444  12.054   1.487  1.9212 -0.1337  1.8909
  114MOL0     H15389   1.277  11.240   1.687  0.3002  1.2996  0.0639
  114MOL0     H15390   1.434  11.093   1.786  2.5176 -0.1314  2.5353
  115MOL0     O15391   5.614   8.685   2.454 -0.0315 -0.4669 -0.3247
  115MOL0     C15392   5.646   8.571   2.415 -0.2827 -0.5794  0.2354
  115MOL0     O15393   5.590   8.510   2.306  0.3175  0.0028  0.8468
  115MOL0     C15394   5.472   8.549   2.254  0.7247  0.3297  0.6763
  115MOL0     C15395   5.436   8.523   2.126 -0.9423  0.5981  0.3498
  115MOL0     C15396   5.313   8.559   2.066 -0.0630 -0.5218  0.6445
  115MOL0     C15397   5.215   8.620   2.152 -0.2067 -0.7825  1.2498
  115MOL0     O15398   5.091   8.644   2.097  0.3511 -0.1012  0.0899
  115MOL0     C15399   4.980   8.705   2.162 -0.3693  0.0580 -0.1784
  115MOL0     C15400   4.900   8.610   2.249 -0.1795 -0.1793  0.4138
  115MOL0     C15401   4.782   8.684   2.317 -0.8993  0.1080  0.5456
  115MOL0     C15402   4.700   8.582   2.384  1.1981  0.4399  1.0333
  115MOL0     C15403   4.587   8.537   2.285  0.1113  0.0118 -0.2660
  115MOL0     C15404   4.521   8.415   2.349  1.7252  0.0786  0.9150
  115MOL0     C15405   4.427   8.340   2.263  0.3941 -0.4998 -0.2910
  115MOL0     C15406   4.489   8.265   2.149  0.2782 -0.5101 -0.0539
  115MOL0     N15407   4.476   8.347   2.024  0.1800  0.0728  0.2477
  115MOL0     C15408   4.362   8.382   1.967  0.3323 -0.4347  0.2060
  115MOL0     C15409   4.392   8.452   1.856 -0.6996  0.0006 -0.7611
  115MOL0     C15410   4.294   8.509   1.759  0.3455 -0.4505 -0.0064
  115MOL0     C15411   4.291   8.402   1.653  0.8407  0.1478 -0.1083
  115MOL0     C15412   4.426   8.380   1.569 -0.0374 -0.1711  0.4004
  115MOL0     C15413   4.449   8.508   1.493 -0.4441 -0.8477  0.8191
  115MOL0     O15414   4.421   8.497   1.352 -0.3010  0.0851  0.2217
  115MOL0     C15415   4.528   8.435   1.292  0.2567  0.5796  0.9330
  115MOL0     C15416   4.520   8.306   1.246  0.7362  0.2260 -0.4200
  115MOL0     C15417   4.623   8.241   1.174  0.4157 -0.1617 -0.3733
  115MOL0     C15418   4.586   8.120   1.101 -0.2715  0.4795  0.5953
  115MOL0     C15419   4.746   8.307   1.159  0.3886  0.5776  0.1507
  115MOL0     C15420   4.865   8.254   1.104 -0.6523 -0.8821  0.4504
  115MOL0     O15421   4.941   8.341   1.021  0.7308 -0.5419  0.0334
  115MOL0     C15422   5.052   8.279   0.970  0.4565  0.2746  0.2739
  115MOL0     C15423   5.165   8.253   1.041  0.4167  0.0282 -0.1731
  115MOL0     C15424   5.274   8.189   0.978 -0.5347 -0.5927  0.6514
  115MOL0     C15425   5.257   8.144   0.845  0.3270  0.4237  0.4056
  115MOL0     O15426   5.364   8.072   0.787 -0.4241 -0.1883 -0.4359
  115MOL0     C15427   5.390   8.087   0.642  0.2128  0.7402 -0.1545
  115MOL0     C15428   5.397   7.950   0.572  0.9695  0.9426  0.4914
  115MOL0     C15429   5.494   7.843   0.629 -0.3543  0.2702  1.4542
  115MOL0     C15430   5.455   7.709   0.557  0.3655 -0.1474  0.2544
  115MOL0     C15431   5.493   7.578   0.624 -0.3015  1.0830 -0.4573
  115MOL0     C15432   5.403   7.536   0.736 -0.3539 -0.4278  0.4625
  115MOL0     C15433   5.256   7.572   0.726  0.9267  0.1988 -0.4015
  115MOL0     C15434   5.179   7.506   0.837 -0.1221  0.0804 -0.1353
  115MOL0    Cl15435   5.188   7.328   0.826  0.2190  0.2655  0.5817
  115MOL0     C15436   5.139   8.175   0.781  0.0664  0.0935 -0.3071
  115MOL0     C15437   5.038   8.223   0.845  0.3366  0.5222 -0.4987
  115MOL0     O15438   4.898   8.145   1.135  0.2002  0.5223 -0.5163
  115MOL0     C15439   4.748   8.447   1.198 -0.1981 -0.2252  0.1282
  115MOL0     C15440   4.644   8.513   1.264 -0.8311  0.5667 -0.3660
  115MOL0     N15441   4.534   8.456   1.849 -0.1140 -0.2186  0.3441
  115MOL0     N15442   4.577   8.391   1.952  0.2960 -0.8174  0.1510
  115MOL0     C15443   5.245   8.639   2.279 -0.0827  0.3449 -0.5369
  115MOL0     C15444   5.367   8.596   2.341  1.2296 -0.9410 -0.4630
  115MOL0     C15445   5.760   8.509   2.486  1.1120  0.6172 -0.1235
  115MOL0     C15446   5.816   8.395   2.427 -0.2155  0.2125  0.2480
  115MOL0     C15447   5.914   8.322   2.490  0.6909 -0.1532  0.2780
  115MOL0     C15448   5.967   8.364   2.612  0.0631  1.1795 -0.0941
  115MOL0     O15449   6.084   8.306   2.662  0.2026 -0.0403  0.0765
  115MOL0     C15450   6.073   8.167   2.715 -0.6355 -0.2857  0.3219
  115MOL0     C15451   6.118   8.152   2.864 -0.1300 -0.0628 -0.0036
  115MOL0     C15452   6.022   8.234   2.949  0.2513  0.0293  0.1447
  115MOL0     C15453   6.017   8.182   3.096 -0.6531  0.1466 -0.7796
  115MOL0     C15454   5.928   8.257   3.189 -0.5243 -0.2913 -0.3286
  115MOL0     C15455   5.864   8.324   3.269 -0.3485  0.7413  0.2066
  115MOL0     C15456   5.907   8.477   2.665  1.3225  0.3435 -0.2063
  115MOL0     C15457   5.814   8.553   2.602  1.0392  0.6368  0.1142
  115MOL0     H15458   5.497   8.463   2.060 -3.8468 -0.5544 -1.4825
  115MOL0     H15459   5.294   8.541   1.961  1.4629  3.0289 -0.4028
  115MOL0     H15460   5.014   8.788   2.225  1.3060 -0.3711 -0.4722
  115MOL0     H15461   4.919   8.762   2.091 -0.4592  2.9799  2.0300
  115MOL0     H15462   4.862   8.533   2.182 -0.2346  1.7874 -1.9582
  115MOL0     H15463   4.973   8.576   2.323  0.2439  0.9538  0.5488
  115MOL0     H15464   4.825   8.761   2.383  1.7947 -1.0529  0.2550
  115MOL0     H15465   4.729   8.748   2.245 -1.7287 -0.1270  0.9365
  115MOL0     H15466   4.762   8.496   2.409 -0.2623 -2.4153 -3.8450
  115MOL0     H15467   4.665   8.623   2.479 -1.7115 -0.3967  0.4208
  115MOL0     H15468   4.515   8.615   2.259 -0.6451 -1.5346 -3.2410
  115MOL0     H15469   4.632   8.508   2.189 -0.2590  0.6244 -0.6282
  115MOL0     H15470   4.596   8.344   2.384 -0.5080 -1.1866  3.5525
  115MOL0     H15471   4.466   8.443   2.439  0.3199 -2.0151  0.7990
  115MOL0     H15472   4.368   8.264   2.315  0.5871 -0.3968  0.0781
  115MOL0     H15473   4.362   8.422   2.229 -0.2605 -0.9401 -0.1326
  115MOL0     H15474   4.421   8.181   2.132 -0.9158  0.1302  1.3468
  115MOL0     H15475   4.589   8.228   2.175 -1.0592 -2.4685  2.8353
  115MOL0     H15476   4.259   8.359   1.993 -0.4531  2.2002 -0.2789
  115MOL0     H15477   4.195   8.506   1.806 -0.6147  1.5047 -1.7724
  115MOL0     H15478   4.317   8.606   1.715  0.1425 -1.0187 -1.4112
  115MOL0     H15479   4.201   8.419   1.593  0.7501 -1.7317 -0.5768
  115MOL0     H15480   4.278   8.306   1.704  1.8505  0.0237 -0.0792
  115MOL0     H15481   4.406   8.298   1.500 -0.9275 -0.2960  0.7878
  115MOL0     H15482   4.522   8.366   1.620  0.2217  0.2940  0.0508
  115MOL0     H15483   4.552   8.538   1.516 -0.7027  2.1471 -1.3268
  115MOL0     H15484   4.383   8.594   1.510 -0.2226  0.6437 -4.1527
  115MOL0     H15485   4.431   8.247   1.267  0.5448  1.1901  1.7252
  115MOL0     H15486   4.504   8.141   1.033 -0.2769 -2.1632 -0.3117
  115MOL0     H15487   4.665   8.085   1.033  0.0919  0.5712  0.9654
  115MOL0     H15488   4.558   8.045   1.175 -2.0566  2.7322  2.3553
  115MOL0     H15489   5.182   8.284   1.144 -1.8324 -2.0426  0.9328
  115MOL0     H15490   5.362   8.169   1.039 -0.1858  1.6861  0.9779
  115MOL0     H15491   5.323   8.159   0.594  0.2714  0.0313 -1.3362
  115MOL0     H15492   5.489   8.130   0.626  1.3383 -1.1337  1.2222
  115MOL0     H15493   5.294   7.911   0.574  1.3341 -0.3757 -2.0845
  115MOL0     H15494   5.420   7.967   0.467  0.1607  0.6406  0.2537
  115MOL0     H15495   5.469   7.836   0.736 -0.2027 -4.4838  1.3982
  115MOL0     H15496   5.597   7.873   0.611 -1.1297  3.2329  1.5558
  115MOL0     H15497   5.350   7.698   0.526  0.3239 -2.3999  1.0743
  115MOL0     H15498   5.513   7.702   0.465 -2.3567 -3.7204 -1.4676
  115MOL0     H15499   5.594   7.587   0.666 -0.2680  1.6171 -0.6443
  115MOL0     H15500   5.498   7.517   0.533 -0.7092  1.9666 -1.0803
  115MOL0     H15501   5.417   7.430   0.758  0.4517 -0.5256 -0.4357
  115MOL0     H15502   5.451   7.590   0.818 -1.6147  1.3658  0.0980
  115MOL0     H15503   5.210   7.541   0.632 -3.8005  1.7298  1.1099
  115MOL0     H15504   5.240   7.680   0.738 -3.0209 -0.5474  5.2423
  115MOL0     H15505   5.074   7.538   0.829  0.0809  0.6295 -0.6570
  115MOL0     H15506   5.217   7.548   0.930  1.2620 -0.6172 -0.3682
  115MOL0     H15507   5.110   8.148   0.680 -3.9491  1.4663  0.2866
  115MOL0     H15508   4.939   8.240   0.802 -0.0398  2.5223  1.0325
  115MOL0     H15509   4.831   8.503   1.157 -1.5414 -1.3496 -4.8270
  115MOL0     H15510   4.642   8.617   1.297 -3.2914  0.9035 -1.3240
  115MOL0     H15511   5.169   8.672   2.350  1.8861 -1.5445  2.6399
  115MOL0     H15512   5.367   8.602   2.449 -0.3640 -0.9694 -0.4360
  115MOL0     H15513   5.788   8.353   2.331 -3.2524 -1.4612  1.7525
  115MOL0     H15514   5.951   8.232   2.441  0.9053 -0.4485  0.9705
  115MOL0     H15515   5.973   8.126   2.696 -0.5731  0.4998 -2.0470
  115MOL0     H15516   6.140   8.105   2.655 -2.2943  0.2049 -2.2133
  115MOL0     H15517   6.226   8.167   2.880 -0.0660 -2.2361  2.2705
  115MOL0     H15518   6.091   8.049   2.889 -1.1239  0.3373  0.6386
  115MOL0     H15519   5.921   8.232   2.906  0.6463  0.3059 -0.8307
  115MOL0     H15520   6.062   8.336   2.952 -0.6713  0.3665  1.8637
  115MOL0     H15521   6.116   8.178   3.142 -0.8438  2.2510 -0.1233
  115MOL0     H15522   5.970   8.083   3.091 -2.0344  0.2799  4.5240
  115MOL0     H15523   5.789   8.360   3.336 -0.5244  0.9343 -0.0966
  115MOL0     H15524   5.934   8.526   2.758 -0.6799  1.9261 -0.3900
  115MOL0     H15525   5.777   8.646   2.643 -1.3168 -0.6062  0.9660
  116MOL0     O15526   1.784   9.073   3.955  0.4951 -0.4788  0.6203
  116MOL0     C15527   1.760   9.062   4.077 -0.6122  0.1465  0.0629
  116MOL0     O15528   1.675   9.131   4.150  0.9458 -0.6084  0.4997
  116MOL0     C15529   1.606   9.237   4.090 -0.3674  0.6635  0.0575
  116MOL0     C15530   1.530   9.215   3.970 -0.1122 -0.3584  0.1998
  116MOL0     C15531   1.462   9.329   3.914 -0.4151  1.1174  0.3136
  116MOL0     C15532   1.450   9.456   3.984 -0.7772  0.2319 -0.8339
  116MOL0     O15533   1.384   9.576   3.946 -0.2767 -0.3957  0.7560
  116MOL0     C15534   1.321   9.568   3.816 -0.0221  0.1381  0.1036
  116MOL0     C15535   1.262   9.705   3.773  0.2738 -0.8670 -0.4170
  116MOL0     C15536   1.138   9.739   3.857  0.2925  1.3123  0.3618
  116MOL0     C15537   1.135   9.888   3.868 -0.0533  0.4230 -0.3673
  116MOL0     C15538   1.009   9.933   3.945 -0.5087  0.6344  0.0708
  116MOL0     C15539   1.034  10.079   3.994 -0.9923 -0.1554 -0.4624
  116MOL0     C15540   1.046  10.171   3.884 -0.1387  0.5851 -0.2589
  116MOL0     C15541   0.914  10.214   3.810 -0.7332  0.1384  0.1977
  116MOL0     N15542   0.880  10.343   3.864  0.1712 -0.4234 -0.6723
  116MOL0     C15543   0.937  10.459   3.844 -1.1253  0.0524  0.3988
  116MOL0     C15544   0.887  10.544   3.935  0.8253 -0.6265 -0.3487
  116MOL0     C15545   0.909  10.694   3.940  0.4389  0.0596  0.1163
  116MOL0     C15546   1.052  10.730   3.978 -0.7824  1.6183  0.4719
  116MOL0     C15547   1.087  10.686   4.125 -0.2700 -0.2777  0.1502
  116MOL0     C15548   1.165  10.549   4.135 -0.0167 -0.6522 -0.2007
  116MOL0     O15549   1.302  10.566   4.107  0.3427  0.3463  0.3665
  116MOL0     C15550   1.359  10.453   4.059  0.0151 -0.3507  0.2029
  116MOL0     C15551   1.372  10.437   3.925 -0.8852  0.2436  0.5594
  116MOL0     C15552   1.427  10.316   3.869  0.0957  0.3921 -0.0921
  116MOL0     C15553   1.445  10.309   3.720  0.5458 -0.2703 -0.4879
  116MOL0     C15554   1.454  10.208   3.956 -0.5172 -1.1231 -0.1973
  116MOL0     C15555   1.501  10.081   3.906 -0.2361  0.7836  0.0596
  116MOL0     O15556   1.597  10.015   3.986  0.5652  0.0698 -0.5575
  116MOL0     C15557   1.661   9.912   3.918 -1.5507  0.1438  0.5679
  116MOL0     C15558   1.634   9.769   3.949 -0.1666 -0.6176 -0.0713
  116MOL0     C15559   1.694   9.669   3.884  0.1921 -0.5159  0.7128
  116MOL0     C15560   1.796   9.700   3.792 -0.2286  0.0108 -0.2806
  116MOL0     O15561   1.859   9.603   3.720  0.2478  0.1328 -0.4398
  116MOL0     C15562   1.804   9.467   3.702  0.1222  0.2723  0.1788
  116MOL0     C15563   1.866   9.391   3.592  0.3323  0.5497  1.2505
  116MOL0     C15564   1.780   9.272   3.551 -0.0569  0.5064  0.3882
  116MOL0     C15565   1.781   9.158   3.651  0.4519  0.1223 -0.3544
  116MOL0     C15566   1.735   9.036   3.573  0.1813 -0.4086  0.5886
  116MOL0     C15567   1.729   8.911   3.655 -0.0035 -0.9792  0.5395
  116MOL0     C15568   1.722   8.782   3.575 -0.1567  0.2117  0.0723
  116MOL0     C15569   1.871   8.748   3.516  0.1989  0.0783 -0.4559
  116MOL0    Cl15570   1.914   8.581   3.566 -0.2668  0.3956 -0.3922
  116MOL0     C15571   1.835   9.835   3.769 -0.3434 -0.5228 -0.5691
  116MOL0     C15572   1.769   9.938   3.838 -0.0968  0.6859 -1.2756
  116MOL0     O15573   1.448  10.025   3.807  1.4447 -0.3695 -0.1543
  116MOL0     C15574   1.435  10.221   4.093 -0.2933 -0.4875 -0.4843
  116MOL0     C15575   1.392  10.343   4.140 -0.5751  0.0432 -0.0290
  116MOL0     N15576   0.787  10.474   4.002  1.0185  0.0314 -0.0753
  116MOL0     N15577   0.795  10.351   3.971 -0.5887  0.3027  0.1947
  116MOL0     C15578   1.513   9.458   4.109 -0.5820 -0.7226 -0.5015
  116MOL0     C15579   1.593   9.357   4.162  0.5514 -0.5402  0.2439
  116MOL0     C15580   1.828   8.955   4.155  0.8348  0.5144  0.2150
  116MOL0     C15581   1.899   8.851   4.092  0.5619 -1.0267  0.0883
  116MOL0     C15582   1.964   8.753   4.167 -0.0413 -0.1874  1.4731
  116MOL0     C15583   1.972   8.769   4.308 -0.3714 -0.0135  0.1549
  116MOL0     O15584   2.034   8.698   4.402 -0.8419  0.3523 -0.1614
  116MOL0     C15585   2.139   8.601   4.366 -0.6612 -0.8544  0.4677
  116MOL0     C15586   2.271   8.667   4.320  0.0564 -0.7074  0.4613
  116MOL0     C15587   2.346   8.748   4.424  0.3429 -0.1563  0.2018
  116MOL0     C15588   2.476   8.801   4.355 -0.0391 -0.7047 -0.8094
  116MOL0     C15589   2.557   8.884   4.455  0.1943 -0.1966  0.2751
  116MOL0     C15590   2.601   8.943   4.554  0.5028 -0.0705  0.1143
  116MOL0     C15591   1.903   8.868   4.369  0.9460 -0.1421  0.5775
  116MOL0     C15592   1.827   8.957   4.296  0.2287  0.6397  0.7858
  116MOL0     H15593   1.543   9.119   3.919  4.6401  0.2558 -0.1429
  116MOL0     H15594   1.421   9.313   3.815 -3.3085  1.0792  1.4089
  116MOL0     H15595   1.401   9.544   3.745  2.4740  3.5209  1.5064
  116MOL0     H15596   1.242   9.492   3.820 -0.4992  0.6010 -0.2774
  116MOL0     H15597   1.344   9.775   3.796  1.0125 -1.6144 -0.7136
  116MOL0     H15598   1.254   9.702   3.664  0.9576 -0.8759 -0.4717
  116MOL0     H15599   1.048   9.697   3.812 -1.6745  3.2921  2.2122
  116MOL0     H15600   1.145   9.688   3.953 -1.3851 -0.0503 -0.1863
  116MOL0     H15601   1.226   9.922   3.918  0.4544  1.8226 -2.1096
  116MOL0     H15602   1.150   9.928   3.767  1.7502 -0.7058 -0.5810
  116MOL0     H15603   0.927   9.924   3.873  0.8823  3.6001 -2.0969
  116MOL0     H15604   0.994   9.869   4.032 -1.7625  2.0104  0.9112
  116MOL0     H15605   0.947  10.102   4.056 -0.3751  1.7493 -0.2416
  116MOL0     H15606   1.124  10.083   4.057 -1.7195  1.6110  0.5446
  116MOL0     H15607   1.093  10.264   3.919 -0.4167  0.9233 -0.7675
  116MOL0     H15608   1.108  10.131   3.803 -1.6359 -0.5392 -0.8895
  116MOL0     H15609   0.834  10.141   3.819 -0.9703  0.1042 -1.8451
  116MOL0     H15610   0.944  10.239   3.708 -1.0889  0.7949  0.2468
  116MOL0     H15611   1.014  10.475   3.769 -2.8982  3.2020 -0.9361
  116MOL0     H15612   0.897  10.732   3.839  1.5516  0.7650  0.2316
  116MOL0     H15613   0.828  10.736   4.001 -0.2072  0.0104 -0.6957
  116MOL0     H15614   1.070  10.838   3.970  0.3084  1.5622  1.7801
  116MOL0     H15615   1.127  10.685   3.913 -0.7376  0.9202  0.9956
  116MOL0     H15616   0.987  10.668   4.167 -0.1550  0.2452  0.6547
  116MOL0     H15617   1.137  10.772   4.169 -0.1597  0.7576 -1.8669
  116MOL0     H15618   1.121  10.476   4.066 -0.9192  0.5903 -0.9976
  116MOL0     H15619   1.163  10.517   4.239  0.7953 -3.0581 -0.8608
  116MOL0     H15620   1.324  10.523   3.879 -1.9322  1.1478  3.1436
  116MOL0     H15621   1.460  10.413   3.691 -1.4468 -0.2826 -1.7429
  116MOL0     H15622   1.538  10.254   3.699  1.4257  0.4017  1.4213
  116MOL0     H15623   1.359  10.254   3.682  1.9260 -2.7811 -0.2318
  116MOL0     H15624   1.552   9.740   4.015 -1.6359  0.3980 -1.3860
  116MOL0     H15625   1.664   9.565   3.896 -0.0711 -0.6533 -0.9299
  116MOL0     H15626   1.816   9.401   3.788  1.3322  1.2552  0.8105
  116MOL0     H15627   1.696   9.468   3.688  0.2019 -1.6364 -0.8612
  116MOL0     H15628   1.865   9.463   3.509  0.6501 -0.7841  0.0618
  116MOL0     H15629   1.966   9.353   3.612  1.4749  1.4840 -2.0355
  116MOL0     H15630   1.822   9.229   3.459  2.1449  0.8691  1.1845
  116MOL0     H15631   1.675   9.290   3.525  0.0520  2.0676  0.9324
  116MOL0     H15632   1.881   9.132   3.687  0.5059 -0.2898 -0.7930
  116MOL0     H15633   1.716   9.184   3.735 -0.8230 -2.6738 -0.3429
  116MOL0     H15634   1.810   9.022   3.494  0.3615  1.0651  0.4712
  116MOL0     H15635   1.636   9.058   3.532 -0.5988 -2.4720  1.2381
  116MOL0     H15636   1.820   8.907   3.715  1.4874  2.5901 -1.1753
  116MOL0     H15637   1.639   8.913   3.717 -0.5198  3.6769  0.0127
  116MOL0     H15638   1.656   8.805   3.490 -2.3940  0.8265  1.8757
  116MOL0     H15639   1.675   8.698   3.626  0.9618 -0.3578  0.1970
  116MOL0     H15640   1.952   8.814   3.547  0.3354 -0.0239 -0.5952
  116MOL0     H15641   1.869   8.758   3.407 -2.1919  1.3152 -0.3737
  116MOL0     H15642   1.911   9.861   3.696 -0.0836  1.1805  0.2607
  116MOL0     H15643   1.804  10.039   3.818  2.2506  0.0327 -0.8364
  116MOL0     H15644   1.453  10.142   4.164 -0.0997  0.8954  1.0785
  116MOL0     H15645   1.383  10.353   4.248  0.3880  2.8615 -0.1103
  116MOL0     H15646   1.509   9.536   4.184 -1.1008  0.1162 -1.3852
  116MOL0     H15647   1.645   9.351   4.257  2.8335  0.2436 -0.8866
  116MOL0     H15648   1.889   8.845   3.984 -4.7986 -1.0974  0.2744
  116MOL0     H15649   2.013   8.680   4.103  0.1184  0.9248  0.2729
  116MOL0     H15650   2.173   8.532   4.443 -0.4269 -0.4673  0.7146
  116MOL0     H15651   2.103   8.534   4.288  1.0215 -0.6147 -0.5642
  116MOL0     H15652   2.254   8.736   4.236  2.6046  0.3689  0.7205
  116MOL0     H15653   2.336   8.586   4.285  0.1291  0.3624 -2.1256
  116MOL0     H15654   2.358   8.689   4.515  0.7198 -1.5964 -0.7431
  116MOL0     H15655   2.293   8.842   4.444 -0.9065 -0.3722 -1.8772
  116MOL0     H15656   2.444   8.872   4.277 -0.6599  1.9907  1.7251
  116MOL0     H15657   2.539   8.726   4.306  1.6016  0.4067 -0.5105
  116MOL0     H15658   2.621   9.006   4.639  1.2934 -1.3935  0.9460
  116MOL0     H15659   1.924   8.889   4.473 -0.7340  3.8067  0.3145
  116MOL0     H15660   1.780   9.038   4.351 -2.0616  0.8577 -1.3032
  117MOL0     O15661   7.868   0.401   1.699  0.2025  0.2549 -0.2433
  117MOL0     C15662   7.790   0.480   1.748  0.3443 -0.2790  0.8267
  117MOL0     O15663   7.655   0.470   1.746 -0.0798  0.2789  1.1081
  117MOL0     C15664   7.594   0.352   1.708 -0.4893 -0.4635 -0.5264
  117MOL0     C15665   7.457   0.349   1.703 -0.1664 -0.6180 -0.2952
  117MOL0     C15666   7.378   0.232   1.687 -0.2504  0.0884  0.6416
  117MOL0     C15667   7.436   0.109   1.653 -0.3808  0.1445  0.3141
  117MOL0     O15668   7.356  -0.003   1.621  0.0091  0.1858  0.0074
  117MOL0     C15669   7.410  -0.102   1.540 -0.8571 -0.3462  0.2644
  117MOL0     C15670   7.323  -0.225   1.554  0.3563  0.8685  0.1368
  117MOL0     C15671   7.188  -0.216   1.479  0.2144 -0.6750 -0.1817
  117MOL0     C15672   7.141  -0.353   1.461 -0.7722 -0.4214  0.6338
  117MOL0     C15673   7.000  -0.358   1.397  0.4538  0.1796 -0.2018
  117MOL0     C15674   6.941  -0.502   1.393  0.5732 -0.0311  0.0116
  117MOL0     C15675   6.790  -0.510   1.352  0.1157  0.0395  0.5021
  117MOL0     C15676   6.734  -0.652   1.314  0.6075  1.0585 -0.7548
  117MOL0     N15677   6.815  -0.751   1.237  0.3197 -0.1119  0.5441
  117MOL0     C15678   6.866  -0.718   1.117  0.3271  0.2624  0.5305
  117MOL0     C15679   6.934  -0.825   1.076 -0.1814  0.6088  0.1377
  117MOL0     C15680   7.021  -0.836   0.953  0.1819  0.0084  0.9977
  117MOL0     C15681   7.140  -0.927   0.969  0.8059 -0.0994 -0.3960
  117MOL0     C15682   7.252  -0.864   1.046 -0.2025  0.3966  0.1215
  117MOL0     C15683   7.205  -0.829   1.200 -0.6137 -0.1082  0.4878
  117MOL0     O15684   7.330  -0.805   1.277  0.4970 -0.4546 -0.0563
  117MOL0     C15685   7.386  -0.681   1.243  1.5759 -0.0741 -1.6282
  117MOL0     C15686   7.329  -0.572   1.171  0.7369 -0.4806  0.2201
  117MOL0     C15687   7.389  -0.445   1.168 -0.4312 -0.3280 -0.0979
  117MOL0     C15688   7.312  -0.331   1.101 -0.8036 -0.0689 -0.6534
  117MOL0     C15689   7.517  -0.427   1.241  0.9043  0.1338 -0.3528
  117MOL0     C15690   7.601  -0.304   1.245  0.1854  0.0764  0.5423
  117MOL0     O15691   7.686  -0.297   1.350 -0.4666 -0.3461  0.1835
  117MOL0     C15692   7.787  -0.207   1.335 -0.3849 -0.2374 -0.6837
  117MOL0     C15693   7.913  -0.261   1.319 -0.0419  0.0239 -0.2462
  117MOL0     C15694   8.031  -0.187   1.328 -0.3719  0.0058 -0.1975
  117MOL0     C15695   8.019  -0.048   1.327 -0.5598 -0.9731 -0.2532
  117MOL0     O15696   8.125   0.032   1.343 -0.1269  0.0551  0.0895
  117MOL0     C15697   8.231   0.012   1.242 -0.0075 -0.5780 -0.4117
  117MOL0     C15698   8.177   0.066   1.104  0.0725 -0.1508  0.5538
  117MOL0     C15699   8.299   0.074   0.994  0.9705  0.0280 -0.6478
  117MOL0     C15700   8.242   0.124   0.855  0.9911 -0.2275 -0.4856
  117MOL0     C15701   8.354   0.120   0.747 -0.3414 -0.0355 -0.0747
  117MOL0     C15702   8.409  -0.016   0.710 -0.4960 -0.9733  0.1792
  117MOL0     C15703   8.297  -0.129   0.700 -0.2379 -0.2675 -0.1889
  117MOL0     C15704   8.348  -0.252   0.627  0.9357  0.0189 -1.3040
  117MOL0    Cl15705   8.398  -0.203   0.461  0.2834  0.1176  0.0018
  117MOL0     C15706   7.888   0.012   1.327 -1.0101 -0.9100 -0.1640
  117MOL0     C15707   7.777  -0.075   1.342 -0.2933 -0.3878  0.6916
  117MOL0     O15708   7.589  -0.215   1.160 -0.2634  0.2683 -0.0043
  117MOL0     C15709   7.576  -0.544   1.298 -0.2313 -0.3650 -0.6605
  117MOL0     C15710   7.506  -0.667   1.302  0.1397 -0.2687  0.6894
  117MOL0     N15711   6.911  -0.925   1.164 -0.0983  0.1230  0.7871
  117MOL0     N15712   6.840  -0.886   1.262  0.8638 -0.4453  0.4605
  117MOL0     C15713   7.571   0.113   1.632 -1.1980 -0.6266 -0.2004
  117MOL0     C15714   7.654   0.227   1.667  0.4967  0.2053 -0.6170
  117MOL0     C15715   7.835   0.596   1.827 -1.0371  1.0220 -0.5539
  117MOL0     C15716   7.975   0.604   1.854 -0.5404 -0.2053 -0.3696
  117MOL0     C15717   8.023   0.712   1.937  0.1201  0.6930 -0.2927
  117MOL0     C15718   7.936   0.806   1.992 -0.5884 -0.5665 -0.8531
  117MOL0     O15719   7.983   0.886   2.093 -0.3862 -0.2201 -0.6572
  117MOL0     C15720   8.109   0.949   2.072 -0.2991  0.5645 -0.1449
  117MOL0     C15721   8.113   1.050   1.958 -0.0387 -0.0305 -0.2778
  117MOL0     C15722   8.018   1.172   1.978  0.5812  0.3129 -0.7676
  117MOL0     C15723   8.080   1.261   2.086  0.2965  0.1372 -0.7240
  117MOL0     C15724   8.011   1.387   2.090  0.6445 -1.0826 -0.4523
  117MOL0     C15725   7.944   1.488   2.105 -0.2962 -0.3025  0.3883
  117MOL0     C15726   7.802   0.799   1.951  0.4801 -0.1622 -1.4680
  117MOL0     C15727   7.758   0.703   1.863 -0.4456  0.0485  0.5953
  117MOL0     H15728   7.420   0.451   1.703  1.1342 -0.0958 -1.8915
  117MOL0     H15729   7.270   0.245   1.690 -0.1700  1.9964 -1.4207
  117MOL0     H15730   7.439  -0.076   1.438  2.7914 -6.1523 -0.6652
  117MOL0     H15731   7.508  -0.125   1.583 -0.2409 -1.4220 -1.5841
  117MOL0     H15732   7.380  -0.303   1.503 -0.0740 -0.5656  1.7559
  117MOL0     H15733   7.308  -0.262   1.656  0.4641 -1.0664 -0.5050
  117MOL0     H15734   7.118  -0.163   1.544  0.2535 -1.3427  0.4144
  117MOL0     H15735   7.202  -0.174   1.379  1.0179 -3.0739 -1.1511
  117MOL0     H15736   7.212  -0.399   1.392  0.7822  3.9146 -0.9548
  117MOL0     H15737   7.162  -0.411   1.552  1.7784 -0.1913  0.2553
  117MOL0     H15738   6.926  -0.315   1.465 -1.6323 -3.3550 -0.0155
  117MOL0     H15739   7.007  -0.301   1.304  4.4800  1.0859  0.4573
  117MOL0     H15740   6.991  -0.555   1.311 -1.8947  0.5774 -2.0317
  117MOL0     H15741   6.960  -0.550   1.489  2.1789  1.3218  0.4178
  117MOL0     H15742   6.723  -0.460   1.421  0.1075 -0.8429  1.1504
  117MOL0     H15743   6.784  -0.446   1.264 -0.1834 -4.2459 -2.9897
  117MOL0     H15744   6.649  -0.650   1.245  0.7371  1.2044 -0.9088
  117MOL0     H15745   6.701  -0.699   1.408 -0.8859  3.7752  0.1986
  117MOL0     H15746   6.856  -0.622   1.067 -0.9979  0.9685  2.0532
  117MOL0     H15747   6.959  -0.868   0.869  0.9035 -0.8137  0.7681
  117MOL0     H15748   7.065  -0.740   0.922  0.3873 -1.4772 -4.3401
  117MOL0     H15749   7.178  -0.935   0.866 -2.0555 -1.2588 -1.4636
  117MOL0     H15750   7.110  -1.028   0.997 -1.2050  0.1843 -1.3416
  117MOL0     H15751   7.301  -0.781   0.994  1.4859 -0.0653  0.9103
  117MOL0     H15752   7.329  -0.941   1.049  1.4222  1.9501  0.1307
  117MOL0     H15753   7.155  -0.902   1.264 -0.2376  0.8659  1.9521
  117MOL0     H15754   7.139  -0.742   1.191 -1.9367 -1.1936 -0.6665
  117MOL0     H15755   7.230  -0.577   1.125  0.1809 -2.1124  1.4739
  117MOL0     H15756   7.206  -0.352   1.086 -0.5938 -1.2502 -0.6107
  117MOL0     H15757   7.327  -0.241   1.160  1.2176 -0.6177 -0.2345
  117MOL0     H15758   7.362  -0.303   1.007 -0.0282 -1.5879 -0.7405
  117MOL0     H15759   7.908  -0.368   1.305 -0.0522  0.3448 -3.7609
  117MOL0     H15760   8.128  -0.233   1.316  0.4182  1.5657 -0.0884
  117MOL0     H15761   8.314   0.076   1.273  1.3914 -2.9466  1.0733
  117MOL0     H15762   8.279  -0.085   1.227 -1.4832 -0.8518 -5.7472
  117MOL0     H15763   8.098   0.003   1.061  3.5793 -3.0247 -2.2790
  117MOL0     H15764   8.147   0.168   1.128  1.7271  0.0639  1.9012
  117MOL0     H15765   8.356  -0.017   0.976  2.8400  1.1509 -0.7247
  117MOL0     H15766   8.368   0.145   1.042 -0.5558  2.6065 -2.0223
  117MOL0     H15767   8.158   0.057   0.836 -0.1389  0.3171  2.0928
  117MOL0     H15768   8.211   0.228   0.871  0.9259 -0.3342  0.1406
  117MOL0     H15769   8.432   0.186   0.787  0.9659 -0.7469 -1.3843
  117MOL0     H15770   8.293   0.163   0.667 -0.5734  1.3994  0.8204
  117MOL0     H15771   8.450   0.000   0.609  0.0587  1.3619  0.7138
  117MOL0     H15772   8.485  -0.050   0.782 -0.8369 -0.8298  0.6070
  117MOL0     H15773   8.205  -0.091   0.655  0.9228 -0.7903 -3.1807
  117MOL0     H15774   8.271  -0.163   0.801  1.3075  1.7530  0.9888
  117MOL0     H15775   8.283  -0.341   0.622 -0.7578  1.1492 -0.5599
  117MOL0     H15776   8.435  -0.284   0.684  0.4878  2.8203  1.1859
  117MOL0     H15777   7.897   0.118   1.305 -1.8637 -1.0711 -1.4029
  117MOL0     H15778   7.678  -0.029   1.346  0.2938  1.5475 -2.6304
  117MOL0     H15779   7.677  -0.529   1.334 -1.2223  1.5316  1.6206
  117MOL0     H15780   7.551  -0.752   1.352  3.2784  0.0963 -1.2375
  117MOL0     H15781   7.633   0.030   1.599 -0.9807 -1.2771  1.7103
  117MOL0     H15782   7.761   0.210   1.662  0.2403 -1.8922  0.1740
  117MOL0     H15783   8.052   0.540   1.812  0.4139  1.9099 -2.0698
  117MOL0     H15784   8.131   0.712   1.948  0.3772 -2.6486 -1.6957
  117MOL0     H15785   8.150   1.006   2.156  3.5949 -0.4336 -1.1421
  117MOL0     H15786   8.195   0.883   2.057 -1.2634 -0.5025 -1.2402
  117MOL0     H15787   8.097   0.999   1.862 -0.7427 -1.7548  0.6953
  117MOL0     H15788   8.217   1.082   1.947  0.7146 -1.6635  1.4637
  117MOL0     H15789   7.920   1.132   2.002  1.8884 -2.4895  0.2794
  117MOL0     H15790   8.013   1.231   1.886  0.4789  1.1774 -0.2220
  117MOL0     H15791   8.189   1.267   2.077  0.4508  0.5460  1.1652
  117MOL0     H15792   8.044   1.224   2.182  0.8224  0.7570 -0.2779
  117MOL0     H15793   7.889   1.577   2.128  2.1096  1.9036 -1.7144
  117MOL0     H15794   7.728   0.870   1.985  0.1428 -1.2988  0.2764
  117MOL0     H15795   7.656   0.700   1.826  0.1971  1.1386 -1.4229
  118MOL0     O15796   8.153   0.608   4.826  0.3436  0.3528 -0.1873
  118MOL0     C15797   8.125   0.550   4.723 -0.4224 -0.1710  0.7258
  118MOL0     O15798   7.997   0.508   4.687 -0.1614 -0.4287  0.7446
  118MOL0     C15799   7.904   0.514   4.780  1.1021  0.0617 -0.7197
  118MOL0     C15800   7.902   0.419   4.894  0.3324 -0.5330  0.1187
  118MOL0     C15801   7.805   0.440   4.996 -0.2253  0.0952 -0.2707
  118MOL0     C15802   7.713   0.545   4.992  0.0911 -0.6032 -0.6267
  118MOL0     O15803   7.631   0.586   5.098  0.3839  0.8297 -0.6852
  118MOL0     C15804   7.504   0.520   5.093  0.4942  0.3533  0.5966
  118MOL0     C15805   7.405   0.577   5.193 -0.4667 -0.3285  0.4713
  118MOL0     C15806   7.451   0.568   5.339  0.6377  0.5393 -0.2790
  118MOL0     C15807   7.421   0.433   5.401 -0.5537 -0.1915  0.0526
  118MOL0     C15808   7.412   0.442   5.550 -0.2835 -1.0539 -0.8362
  118MOL0     C15809   7.548   0.454   5.622  0.3492  0.4621 -0.1136
  118MOL0     C15810   7.534   0.395   5.758  0.5046  0.0072  0.2201
  118MOL0     C15811   7.660   0.411   5.842 -0.2502  0.1343 -0.6464
  118MOL0     N15812   7.651   0.331   5.964 -0.2030 -0.3659  0.9181
  118MOL0     C15813   7.552   0.331   6.057 -0.2598 -0.1469  0.5814
  118MOL0     C15814   7.584   0.244   6.154  0.7445 -0.7943  0.6382
  118MOL0     C15815   7.498   0.189   6.264  0.9369 -0.5561 -0.8270
  118MOL0     C15816   7.467   0.301   6.363 -0.0445  0.2381 -0.3532
  118MOL0     C15817   7.370   0.266   6.471  0.3338  0.5827  0.0381
  118MOL0     C15818   7.369   0.362   6.583 -0.3012 -1.4111  0.7918
  118MOL0     O15819   7.340   0.496   6.537 -0.2740  0.0948 -0.6093
  118MOL0     C15820   7.298   0.573   6.646 -0.2100 -0.2445 -0.7776
  118MOL0     C15821   7.161   0.587   6.665 -0.7089  0.2098 -0.0802
  118MOL0     C15822   7.109   0.674   6.770 -0.1046 -0.3722 -0.0020
  118MOL0     C15823   6.964   0.718   6.776  0.0146 -0.3955 -0.3113
  118MOL0     C15824   7.200   0.733   6.863 -0.2548 -0.1673 -0.0171
  118MOL0     C15825   7.162   0.832   6.973  0.4377 -1.2622 -0.5367
  118MOL0     O15826   7.272   0.882   7.043 -0.7573  0.7901 -0.0818
  118MOL0     C15827   7.258   0.992   7.129  0.0381  0.6172 -0.1032
  118MOL0     C15828   7.310   1.118   7.110  0.1282 -0.9680 -0.5327
  118MOL0     C15829   7.281   1.221   7.208 -0.3783 -0.7649 -0.6685
  118MOL0     C15830   7.200   1.201   7.318 -0.7298 -0.6012 -0.3622
  118MOL0     O15831   7.172   1.303   7.412  0.3788 -0.0328 -0.5642
  118MOL0     C15832   7.190   1.447   7.388  0.6560  0.6638  0.3057
  118MOL0     C15833   7.156   1.531   7.514 -0.7246 -1.1300 -0.0817
  118MOL0     C15834   7.016   1.529   7.538 -0.0793 -0.3478 -1.0624
  118MOL0     C15835   6.991   1.585   7.679  0.2943 -0.6536 -0.7079
  118MOL0     C15836   6.839   1.594   7.703  0.2447  0.4419  0.7790
  118MOL0     C15837   6.789   1.683   7.819 -0.1111  0.2644  0.3166
  118MOL0     C15838   6.639   1.708   7.787  0.5829 -0.6473  0.6955
  118MOL0     C15839   6.536   1.738   7.893 -0.5815  0.3223  0.1988
  118MOL0    Cl15840   6.376   1.718   7.829 -0.2594 -0.0299  0.0377
  118MOL0     C15841   7.154   1.068   7.340 -0.1435  0.0904 -0.6147
  118MOL0     C15842   7.182   0.970   7.245 -0.5436  1.0439 -0.1650
  118MOL0     O15843   7.045   0.866   7.005  0.1464  1.0099  0.3315
  118MOL0     C15844   7.342   0.700   6.845 -0.2787  0.7181 -0.1002
  118MOL0     C15845   7.389   0.628   6.738 -0.9461 -0.6564 -0.1439
  118MOL0     N15846   7.704   0.193   6.120  0.1030  0.0411 -0.1506
  118MOL0     N15847   7.752   0.246   6.007  0.2794  0.9254  0.6132
  118MOL0     C15848   7.713   0.623   4.881  0.8157  0.7783  0.5729
  118MOL0     C15849   7.805   0.611   4.780 -1.0761  0.1111  0.3060
  118MOL0     C15850   8.230   0.539   4.615  0.7542 -0.9673  1.4056
  118MOL0     C15851   8.367   0.560   4.626  0.4540  1.3220 -1.2524
  118MOL0     C15852   8.455   0.560   4.515  0.6140 -0.7945 -0.0105
  118MOL0     C15853   8.401   0.544   4.383  0.3511 -0.0610  0.1493
  118MOL0     O15854   8.458   0.546   4.264 -0.2271 -0.0595 -0.4972
  118MOL0     C15855   8.599   0.557   4.246  0.0262 -1.1218  0.7750
  118MOL0     C15856   8.640   0.487   4.117  0.3195 -0.2818  0.4155
  118MOL0     C15857   8.589   0.346   4.107  0.5869 -0.2757  0.1780
  118MOL0     C15858   8.643   0.288   3.975 -0.1149 -0.4588  0.5092
  118MOL0     C15859   8.567   0.340   3.859  0.2537  1.1221  0.2463
  118MOL0     C15860   8.514   0.392   3.758 -0.5139 -0.3528  0.4133
  118MOL0     C15861   8.267   0.517   4.368 -0.3374 -0.6726 -0.0212
  118MOL0     C15862   8.188   0.512   4.480 -0.3764 -0.2217  0.5349
  118MOL0     H15863   7.982   0.349   4.912  0.9103  0.7578  3.1026
  118MOL0     H15864   7.807   0.379   5.086 -2.4242 -0.6693 -0.6504
  118MOL0     H15865   7.457   0.526   4.994 -4.7456 -1.6572  2.6126
  118MOL0     H15866   7.512   0.415   5.121 -2.2013 -0.7471 -2.1147
  118MOL0     H15867   7.408   0.684   5.169  0.5218  0.0144  2.0223
  118MOL0     H15868   7.307   0.539   5.163 -0.5453  0.9327 -1.0071
  118MOL0     H15869   7.561   0.575   5.341  0.9885 -1.9155 -3.4095
  118MOL0     H15870   7.402   0.640   5.405 -0.1177 -1.2979  1.2406
  118MOL0     H15871   7.329   0.397   5.353 -1.4110  1.6659  0.2164
  118MOL0     H15872   7.497   0.358   5.376 -1.5072 -1.6242  1.2185
  118MOL0     H15873   7.349   0.526   5.579  0.3156  0.4141 -3.5354
  118MOL0     H15874   7.357   0.355   5.588 -1.2327  0.1430  0.6364
  118MOL0     H15875   7.627   0.400   5.568 -0.5261 -0.2430 -0.7296
  118MOL0     H15876   7.572   0.559   5.639  2.0514 -0.1524  1.5431
  118MOL0     H15877   7.447   0.440   5.807 -1.8694 -2.7879 -1.0332
  118MOL0     H15878   7.510   0.288   5.752 -0.8073  0.2815  0.1394
  118MOL0     H15879   7.667   0.514   5.877  0.1785  0.6418 -2.1794
  118MOL0     H15880   7.754   0.388   5.791  1.3433 -0.3821  2.2597
  118MOL0     H15881   7.456   0.382   6.055  0.5587  1.5958 -3.0551
  118MOL0     H15882   7.405   0.148   6.224 -0.6540 -0.8389  2.7539
  118MOL0     H15883   7.547   0.101   6.308 -1.5768 -2.1750 -1.0706
  118MOL0     H15884   7.436   0.390   6.307  1.6231  1.3689  0.4120
  118MOL0     H15885   7.565   0.328   6.405 -0.1572  1.6120 -0.9058
  118MOL0     H15886   7.400   0.167   6.509  0.7760  0.8041  0.2820
  118MOL0     H15887   7.270   0.270   6.428 -0.3355  0.0090  1.4760
  118MOL0     H15888   7.463   0.370   6.638  0.2703  0.0763 -0.3165
  118MOL0     H15889   7.304   0.320   6.659  0.2874 -3.7661  0.0742
  118MOL0     H15890   7.084   0.543   6.603 -2.7324  1.7373  1.2293
  118MOL0     H15891   6.951   0.823   6.750  2.4249 -0.2292 -1.0659
  118MOL0     H15892   6.898   0.649   6.722  0.3899 -2.1704  1.3765
  118MOL0     H15893   6.936   0.706   6.881 -0.4737  1.7150 -0.1649
  118MOL0     H15894   7.363   1.134   7.017  0.0012  2.5211 -0.1522
  118MOL0     H15895   7.325   1.317   7.182  3.7745 -2.3348 -0.1404
  118MOL0     H15896   7.295   1.475   7.379  0.8371 -0.2524 -0.6188
  118MOL0     H15897   7.131   1.491   7.308  0.2570  1.3078  0.9441
  118MOL0     H15898   7.219   1.483   7.589  2.3676  1.0920 -1.0781
  118MOL0     H15899   7.201   1.627   7.488  2.6979 -3.3742 -3.5697
  118MOL0     H15900   6.977   1.427   7.526  2.3242 -1.1168 -3.1414
  118MOL0     H15901   6.964   1.599   7.473 -0.6112  2.1139  1.7665
  118MOL0     H15902   7.025   1.522   7.762 -2.3108  1.0851  1.8656
  118MOL0     H15903   7.024   1.687   7.701  1.4042 -1.3308  0.9455
  118MOL0     H15904   6.800   1.493   7.715 -0.1359  0.4030 -0.6667
  118MOL0     H15905   6.795   1.633   7.611 -0.1444  4.0152  2.3148
  118MOL0     H15906   6.799   1.630   7.914  1.5192  0.0846  0.0861
  118MOL0     H15907   6.846   1.775   7.833 -1.8759  1.4805 -0.2018
  118MOL0     H15908   6.605   1.622   7.730  0.0022 -0.3380  0.5624
  118MOL0     H15909   6.628   1.790   7.715 -3.0844 -0.9715  0.6743
  118MOL0     H15910   6.549   1.844   7.920 -1.5560  1.1016 -2.0905
  118MOL0     H15911   6.535   1.678   7.984 -1.0024 -2.5937 -1.6035
  118MOL0     H15912   7.095   1.060   7.430 -0.3012  1.0931 -0.6206
  118MOL0     H15913   7.144   0.869   7.259 -0.4875  0.9368 -0.7566
  118MOL0     H15914   7.419   0.739   6.911  1.3502  1.1089 -2.1197
  118MOL0     H15915   7.497   0.632   6.723 -1.0328  0.3964 -0.6075
  118MOL0     H15916   7.633   0.696   4.876 -0.4562 -0.6337 -0.5727
  118MOL0     H15917   7.805   0.674   4.692  2.3025  1.6563  1.2718
  118MOL0     H15918   8.419   0.566   4.721  1.7105 -3.1607 -1.4128
  118MOL0     H15919   8.560   0.587   4.516 -0.1107  2.4737  2.1936
  118MOL0     H15920   8.634   0.659   4.228  1.2088 -1.3497  1.6648
  118MOL0     H15921   8.655   0.528   4.335  0.6334  2.9838  1.9419
  118MOL0     H15922   8.749   0.490   4.116  0.3231  3.1240  0.3944
  118MOL0     H15923   8.607   0.539   4.027  1.8478 -2.0871 -1.2834
  118MOL0     H15924   8.480   0.346   4.112  0.5583 -1.6318 -0.2703
  118MOL0     H15925   8.619   0.291   4.197 -2.1221  1.4503  2.3048
  118MOL0     H15926   8.632   0.179   3.979 -1.5477 -0.3567 -0.1962
  118MOL0     H15927   8.748   0.312   3.955 -0.3368  0.5161  0.4800
  118MOL0     H15928   8.470   0.443   3.674  0.4327  0.7094  0.5290
  118MOL0     H15929   8.226   0.506   4.268 -1.3381  4.4347 -0.4519
  118MOL0     H15930   8.082   0.504   4.457 -0.2442  0.0308 -0.1910
  119MOL0     O15931   8.759   7.136   5.437  0.2018  0.2658 -1.3207
  119MOL0     C15932   8.867   7.195   5.413 -0.2830 -0.5271  0.4966
  119MOL0     O15933   8.894   7.273   5.302  0.4214  0.5129 -0.2191
  119MOL0     C15934   8.799   7.320   5.215  0.4861 -0.4625  0.5224
  119MOL0     C15935   8.664   7.335   5.253 -0.6682  1.2059 -0.4019
  119MOL0     C15936   8.571   7.395   5.172  0.3147  0.5397  0.1575
  119MOL0     C15937   8.617   7.445   5.051 -0.0550 -0.9765  0.9455
  119MOL0     O15938   8.537   7.503   4.952 -0.0265  0.3365  0.3056
  119MOL0     C15939   8.417   7.433   4.923  0.0279  0.2195 -0.0584
  119MOL0     C15940   8.295   7.520   4.955  0.6330  0.2132 -0.1972
  119MOL0     C15941   8.279   7.582   5.100  0.1499 -0.6978  0.2993
  119MOL0     C15942   8.167   7.689   5.105 -0.0767  0.0167 -0.2682
  119MOL0     C15943   8.158   7.739   5.251  0.4505  0.2708  0.0447
  119MOL0     C15944   8.063   7.857   5.272  0.0036 -0.0831  0.8130
  119MOL0     C15945   8.076   7.964   5.164 -0.3176  0.2502  0.0140
  119MOL0     C15946   8.209   8.042   5.170 -0.3785 -0.1946 -0.0313
  119MOL0     N15947   8.219   8.148   5.065  0.5185  0.6015  0.1709
  119MOL0     C15948   8.156   8.271   5.078  0.5967 -0.5100 -0.8451
  119MOL0     C15949   8.173   8.329   4.958 -0.1092  0.7439 -0.0824
  119MOL0     C15950   8.126   8.461   4.914 -0.2831  0.9496 -0.0375
  119MOL0     C15951   8.197   8.509   4.794  0.7190  0.4123  0.0569
  119MOL0     C15952   8.153   8.653   4.754  0.9753 -0.1803  0.3910
  119MOL0     C15953   8.213   8.685   4.619  0.4278  0.4536  0.4041
  119MOL0     O15954   8.228   8.829   4.623  0.2551 -0.6583 -0.9209
  119MOL0     C15955   8.342   8.889   4.676 -0.0414  0.7522 -0.7552
  119MOL0     C15956   8.346   9.027   4.709 -0.3291  0.9500  0.1446
  119MOL0     C15957   8.462   9.081   4.765  0.2896  0.1204  0.7750
  119MOL0     C15958   8.458   9.226   4.788  0.2550 -0.6288  0.3359
  119MOL0     C15959   8.566   8.999   4.807  0.6415  0.2199  1.1389
  119MOL0     C15960   8.687   9.052   4.880  0.0001  0.1188 -0.0026
  119MOL0     O15961   8.752   8.948   4.939  0.4504 -0.5156  0.2508
  119MOL0     C15962   8.839   8.973   5.034 -0.0159  0.6248 -0.2122
  119MOL0     C15963   8.967   9.018   5.007 -0.0480 -0.4418 -0.4789
  119MOL0     C15964   9.048   9.037   5.115  0.0931 -1.1711 -0.7146
  119MOL0     C15965   9.014   9.004   5.243 -0.3091  0.2694 -1.0190
  119MOL0     O15966   9.090   9.013   5.360 -0.3374 -0.2547  0.5966
  119MOL0     C15967   9.235   9.025   5.343  0.6928 -0.1443 -0.1611
  119MOL0     C15968   9.320   9.015   5.471 -0.6033 -0.1348  0.0131
  119MOL0     C15969   9.458   9.045   5.432  0.0367  0.2382  0.9818
  119MOL0     C15970   9.564   9.062   5.543  0.3704  0.3307 -0.6477
  119MOL0     C15971   9.696   9.115   5.497  0.0447  0.3347  0.0264
  119MOL0     C15972   9.786   9.147   5.624 -0.0370  0.4218  1.0748
  119MOL0     C15973   9.783   9.049   5.736  0.0061 -0.8025 -0.1170
  119MOL0     C15974   9.893   9.086   5.828 -0.0663 -0.5708 -0.7475
  119MOL0    Cl15975  10.053   9.049   5.750 -0.4623 -0.1883  0.4940
  119MOL0     C15976   8.894   8.945   5.268 -0.0196 -1.1024  1.0922
  119MOL0     C15977   8.798   8.947   5.164 -0.1146 -0.3352 -0.0775
  119MOL0     O15978   8.720   9.164   4.878 -1.2114 -0.8084  0.2633
  119MOL0     C15979   8.560   8.863   4.777  0.4954 -0.2674  1.3553
  119MOL0     C15980   8.450   8.810   4.717 -0.0367  0.2134  0.8223
  119MOL0     N15981   8.239   8.230   4.879  0.1569 -0.7575  0.0210
  119MOL0     N15982   8.276   8.131   4.948  0.0850 -0.1225  0.4116
  119MOL0     C15983   8.752   7.444   5.017  0.5869 -0.3657 -1.0867
  119MOL0     C15984   8.848   7.379   5.097  0.9128  0.0894  0.3196
  119MOL0     C15985   8.988   7.158   5.493 -0.2985  0.6398 -1.1555
  119MOL0     C15986   8.993   7.054   5.590  0.4636  0.8251  0.1646
  119MOL0     C15987   9.110   7.012   5.647  0.8092  0.0963  0.2263
  119MOL0     C15988   9.228   7.081   5.620 -0.1297 -0.0291 -0.0290
  119MOL0     O15989   9.341   7.030   5.683  0.3140  0.8219 -0.1439
  119MOL0     C15990   9.472   7.077   5.654  0.6451  0.2497 -1.2494
  119MOL0     C15991   9.584   7.014   5.729 -0.0583  0.0283  0.5910
  119MOL0     C15992   9.586   7.035   5.887  0.3846 -0.8613 -0.0349
  119MOL0     C15993   9.503   6.934   5.956  0.0950  0.0917 -0.3006
  119MOL0     C15994   9.502   6.971   6.102 -1.2267  0.3949 -0.2570
  119MOL0     C15995   9.506   7.012   6.212 -0.5008  0.6648 -0.1668
  119MOL0     C15996   9.227   7.185   5.533  0.4330 -0.4535  0.3384
  119MOL0     C15997   9.109   7.219   5.458  0.3813  0.0359 -0.7454
  119MOL0     H15998   8.629   7.308   5.352 -0.1720  4.0759  0.6615
  119MOL0     H15999   8.466   7.416   5.193 -1.2789 -1.1595 -4.7635
  119MOL0     H16000   8.405   7.424   4.815 -2.3853 -0.1139  0.1908
  119MOL0     H16001   8.401   7.333   4.966 -2.7138 -0.3725 -2.1547
  119MOL0     H16002   8.298   7.609   4.892  0.4117  0.9366  0.7864
  119MOL0     H16003   8.200   7.469   4.938  1.6129 -2.0877  0.7802
  119MOL0     H16004   8.254   7.506   5.175  3.7615  1.3696  4.0596
  119MOL0     H16005   8.369   7.628   5.143  0.1969  0.5748 -1.0815
  119MOL0     H16006   8.212   7.761   5.037  2.2644 -1.8317 -0.8165
  119MOL0     H16007   8.066   7.659   5.075 -0.9338 -0.5061  2.7570
  119MOL0     H16008   8.108   7.658   5.305 -2.1779  1.4445 -0.4837
  119MOL0     H16009   8.259   7.753   5.289  0.0875  0.4967  0.9363
  119MOL0     H16010   7.960   7.823   5.255  0.2068 -0.6654  0.7222
  119MOL0     H16011   8.080   7.903   5.369 -1.7534 -0.0220  1.1361
  119MOL0     H16012   8.069   7.917   5.065  0.5570  0.0990  0.0144
  119MOL0     H16013   7.994   8.036   5.169  0.0702  0.7088 -0.1809
  119MOL0     H16014   8.290   7.970   5.177 -2.7389 -2.9960  0.6416
  119MOL0     H16015   8.213   8.102   5.262  0.4729  1.6877 -1.2277
  119MOL0     H16016   8.108   8.316   5.164  0.5658  1.9534 -2.0622
  119MOL0     H16017   8.021   8.438   4.893  0.0273 -1.0313  0.3623
  119MOL0     H16018   8.136   8.541   4.988  2.1503 -1.5174  2.5970
  119MOL0     H16019   8.189   8.442   4.708  0.0138 -1.3275  1.4120
  119MOL0     H16020   8.304   8.530   4.807  1.0988  1.3781 -3.6052
  119MOL0     H16021   8.178   8.715   4.841  1.0982 -1.7853  1.5465
  119MOL0     H16022   8.045   8.638   4.749  0.8573  0.8051 -0.4203
  119MOL0     H16023   8.150   8.662   4.533  0.6192 -2.1121  0.8823
  119MOL0     H16024   8.304   8.632   4.591  0.1140  0.1505 -0.0629
  119MOL0     H16025   8.259   9.080   4.672  0.5590  0.8145 -2.3599
  119MOL0     H16026   8.537   9.277   4.732 -2.0306 -0.0009 -2.5077
  119MOL0     H16027   8.366   9.264   4.744 -0.0766 -1.0139  0.6926
  119MOL0     H16028   8.462   9.263   4.891  1.6879  3.2446 -0.9429
  119MOL0     H16029   8.998   9.039   4.905 -1.2308  0.7963 -0.6111
  119MOL0     H16030   9.144   9.078   5.087 -0.0226  0.5484  1.1682
  119MOL0     H16031   9.268   8.955   5.265 -1.2366 -1.8084  0.4216
  119MOL0     H16032   9.236   9.128   5.307 -5.9919  1.0475  1.7105
  119MOL0     H16033   9.281   9.083   5.547  0.0440 -0.2547  0.4649
  119MOL0     H16034   9.316   8.914   5.513  0.3728  0.9825  3.0118
  119MOL0     H16035   9.455   9.136   5.372 -0.2253 -1.1493 -1.2011
  119MOL0     H16036   9.503   8.969   5.368 -1.1278  0.9625 -0.7571
  119MOL0     H16037   9.531   9.129   5.622  0.9067  0.3062 -0.3944
  119MOL0     H16038   9.581   8.961   5.582 -0.5502 -0.7307 -2.8242
  119MOL0     H16039   9.690   9.208   5.441  1.4502 -0.1912 -1.0606
  119MOL0     H16040   9.747   9.036   5.441  1.0939  0.7046  0.4302
  119MOL0     H16041   9.885   9.147   5.578 -0.3454  0.8093  0.3917
  119MOL0     H16042   9.753   9.248   5.651 -1.0552  0.3466  0.1526
  119MOL0     H16043   9.799   8.945   5.705 -0.4668 -2.3884  4.2598
  119MOL0     H16044   9.690   9.061   5.792  0.9286  1.7849  1.0173
  119MOL0     H16045   9.874   9.016   5.910  4.8196 -0.7342  0.5254
  119MOL0     H16046   9.884   9.188   5.866 -4.8663 -1.3857  1.0931
  119MOL0     H16047   8.861   8.916   5.367 -2.0197  0.3142  0.9086
  119MOL0     H16048   8.693   8.925   5.176 -0.0750 -1.2423 -1.2008
  119MOL0     H16049   8.646   8.799   4.793  3.0821  1.2167 -4.2523
  119MOL0     H16050   8.446   8.703   4.700  2.3836 -0.4232  3.4356
  119MOL0     H16051   8.773   7.508   4.932  0.7139  1.2057  0.0757
  119MOL0     H16052   8.956   7.382   5.084  1.0356 -0.2707  1.1965
  119MOL0     H16053   8.904   6.992   5.601 -1.9134  4.1971  1.9487
  119MOL0     H16054   9.108   6.926   5.713  2.7704  1.2351  1.8900
  119MOL0     H16055   9.499   7.066   5.549 -0.4529  2.8885 -1.8985
  119MOL0     H16056   9.481   7.183   5.676  0.0894 -0.3569  2.5195
  119MOL0     H16057   9.673   7.063   5.690 -0.0978 -1.5942 -1.7355
  119MOL0     H16058   9.598   6.907   5.713  0.8423  0.1135  0.7624
  119MOL0     H16059   9.552   7.136   5.913  0.8100 -0.5267 -0.7327
  119MOL0     H16060   9.686   7.033   5.932  0.6334 -0.4175 -0.5477
  119MOL0     H16061   9.550   6.837   5.943 -2.6170 -1.6984  1.8377
  119MOL0     H16062   9.400   6.922   5.919  0.0047  1.2717 -0.4596
  119MOL0     H16063   9.508   7.036   6.317 -0.7245  0.0467 -0.0129
  119MOL0     H16064   9.320   7.233   5.505  0.7707 -0.0412  2.0517
  119MOL0     H16065   9.107   7.308   5.396 -1.6455  0.1892 -0.5366
  120MOL0     O16066   9.690   7.880   8.881  0.5629 -0.2353 -0.5159
  120MOL0     C16067   9.731   7.902   8.995 -0.6247 -1.0292  0.5909
  120MOL0     O16068   9.730   7.819   9.102 -0.3146 -0.6562 -0.3973
  120MOL0     C16069   9.651   7.708   9.083  0.3506  0.7508 -1.0535
  120MOL0     C16070   9.518   7.694   9.133  0.1434 -0.1841  0.0154
  120MOL0     C16071   9.435   7.579   9.099 -0.0628 -1.1507 -0.0029
  120MOL0     C16072   9.481   7.478   9.019  0.6398 -0.7982 -0.5800
  120MOL0     O16073   9.417   7.356   8.998 -0.3741 -0.0869 -0.4597
  120MOL0     C16074   9.304   7.319   9.078  0.4406  0.2151  0.0692
  120MOL0     C16075   9.327   7.288   9.221  0.2704  0.1137  1.4112
  120MOL0     C16076   9.207   7.225   9.292  0.2979  0.0576  0.1914
  120MOL0     C16077   9.235   7.122   9.411  0.1103 -0.6595 -0.0347
  120MOL0     C16078   9.107   7.062   9.473 -0.0796  0.2651  0.1882
  120MOL0     C16079   9.043   6.960   9.393  0.3583  0.0661 -0.0368
  120MOL0     C16080   8.916   6.898   9.461  0.1700  0.2320 -0.2393
  120MOL0     C16081   8.883   6.759   9.396  0.5250 -0.3437  0.7315
  120MOL0     N16082   8.770   6.699   9.451  0.2583  0.4645 -0.1529
  120MOL0     C16083   8.659   6.695   9.376  0.2460  0.6203 -1.0084
  120MOL0     C16084   8.572   6.628   9.448  0.3948  0.3755 -0.3840
  120MOL0     C16085   8.432   6.609   9.405  0.3094 -0.3426  0.2980
  120MOL0     C16086   8.386   6.464   9.413 -0.0043 -0.2395 -0.3185
  120MOL0     C16087   8.428   6.387   9.289 -0.0708 -0.2254  1.4501
  120MOL0     C16088   8.340   6.398   9.169 -0.0462  0.0130  0.6642
  120MOL0     O16089   8.220   6.326   9.209  0.0649 -0.2339  0.8489
  120MOL0     C16090   8.116   6.369   9.144  0.0176 -0.5128  0.8880
  120MOL0     C16091   8.069   6.495   9.161  0.6510 -0.2337 -0.3556
  120MOL0     C16092   7.968   6.554   9.089  0.6526  0.2957  1.1279
  120MOL0     C16093   7.948   6.699   9.128  0.2763 -0.5687  0.3481
  120MOL0     C16094   7.898   6.477   8.994  0.0590 -0.4843 -0.5471
  120MOL0     C16095   7.800   6.528   8.891 -0.7525  1.0935  0.0610
  120MOL0     O16096   7.762   6.653   8.899 -0.6145  0.3217 -0.4099
  120MOL0     C16097   7.689   6.684   8.790 -0.2061 -0.2902 -0.3302
  120MOL0     C16098   7.565   6.635   8.747  0.3109  0.0429  0.1649
  120MOL0     C16099   7.507   6.683   8.630 -0.0964  0.8240 -0.2792
  120MOL0     C16100   7.580   6.787   8.561 -0.3355  0.3449 -1.1620
  120MOL0     O16101   7.543   6.841   8.438 -0.1058  0.0209  0.4463
  120MOL0     C16102   7.495   6.749   8.346 -1.5257  0.6417  0.5205
  120MOL0     C16103   7.342   6.736   8.336 -0.6940 -0.2177  0.0306
  120MOL0     C16104   7.314   6.619   8.239 -0.1149 -0.1259  0.0009
  120MOL0     C16105   7.160   6.606   8.227 -0.0635 -0.6504  0.1001
  120MOL0     C16106   7.116   6.518   8.125  0.6453 -0.1374  0.2692
  120MOL0     C16107   7.139   6.551   7.970  0.1872 -0.5200  0.3590
  120MOL0     C16108   7.115   6.430   7.880  0.4593  1.2730  0.0183
  120MOL0     C16109   7.064   6.475   7.743  0.0465  0.0926  0.0142
  120MOL0    Cl16110   7.198   6.539   7.643  0.3270 -0.0648  0.0804
  120MOL0     C16111   7.692   6.849   8.614  0.1147 -0.1403  0.4373
  120MOL0     C16112   7.745   6.791   8.722  0.3043 -0.0975 -0.2506
  120MOL0     O16113   7.760   6.440   8.809 -0.1661 -0.6703 -0.6021
  120MOL0     C16114   7.940   6.334   8.988  0.9864 -0.5231 -0.2035
  120MOL0     C16115   8.045   6.284   9.062  0.1930 -0.1845 -0.6209
  120MOL0     N16116   8.635   6.598   9.568 -0.4385 -0.4749 -0.4193
  120MOL0     N16117   8.752   6.632   9.565  0.2863 -0.3184 -0.1064
  120MOL0     C16118   9.621   7.487   8.975  0.5726  0.1489  0.1480
  120MOL0     C16119   9.704   7.602   9.001 -0.2814 -0.2764 -1.2221
  120MOL0     C16120   9.803   8.022   9.013 -0.7165 -0.3661  0.2134
  120MOL0     C16121   9.762   8.139   8.958 -0.5668 -0.4728 -0.5835
  120MOL0     C16122   9.832   8.259   8.977  0.0979 -1.2987  0.2559
  120MOL0     C16123   9.940   8.262   9.075  0.0851  0.1440 -0.4492
  120MOL0     O16124  10.010   8.381   9.084 -0.2875 -1.0475  0.0383
  120MOL0     C16125  10.106   8.406   9.198 -0.0187 -0.5557 -0.2878
  120MOL0     C16126  10.151   8.548   9.168  0.6089 -0.7038  0.3614
  120MOL0     C16127  10.266   8.594   9.262  0.3746  0.1041  0.4871
  120MOL0     C16128  10.341   8.723   9.218 -0.3117 -0.8841 -0.5885
  120MOL0     C16129  10.254   8.843   9.244 -0.5079  0.5696 -0.6474
  120MOL0     C16130  10.181   8.939   9.277 -0.7687  0.8038 -0.7665
  120MOL0     C16131   9.973   8.143   9.137  0.2741 -0.4914 -0.5470
  120MOL0     C16132   9.908   8.025   9.104 -0.3489 -0.1884 -0.6492
  120MOL0     H16133   9.469   7.758   9.207 -1.5869 -0.8019 -0.5558
  120MOL0     H16134   9.334   7.564   9.136  0.9438 -3.0234  2.1693
  120MOL0     H16135   9.238   7.406   9.074 -1.1450 -0.9948 -3.2019
  120MOL0     H16136   9.249   7.244   9.021 -5.4232  2.5875  1.7952
  120MOL0     H16137   9.415   7.224   9.231 -0.2252 -0.9223 -0.3002
  120MOL0     H16138   9.359   7.376   9.276 -0.8118  1.5306 -0.1283
  120MOL0     H16139   9.133   7.299   9.323  0.9148 -0.1144  2.2279
  120MOL0     H16140   9.156   7.164   9.217 -1.4350 -1.3171  2.3501
  120MOL0     H16141   9.304   7.044   9.380 -2.8597 -3.0398 -1.2297
  120MOL0     H16142   9.288   7.188   9.480  0.7975  0.2896 -1.4265
  120MOL0     H16143   9.140   7.016   9.566  0.2524 -1.5609 -0.8039
  120MOL0     H16144   9.036   7.145   9.483 -2.8902 -1.6955 -1.9698
  120MOL0     H16145   9.017   6.992   9.292  1.1658 -0.8584 -0.5643
  120MOL0     H16146   9.117   6.882   9.373  1.3744  1.4389 -1.9640
  120MOL0     H16147   8.933   6.876   9.567 -3.1781 -1.5968  0.0855
  120MOL0     H16148   8.826   6.960   9.454  0.4834  0.7822  0.4170
  120MOL0     H16149   8.954   6.679   9.418 -0.7929 -0.9485  3.1349
  120MOL0     H16150   8.863   6.780   9.290 -1.8218  1.9153  1.4997
  120MOL0     H16151   8.639   6.735   9.277 -0.8547 -2.2938 -2.0779
  120MOL0     H16152   8.377   6.673   9.474 -2.0740 -1.8747 -0.0502
  120MOL0     H16153   8.412   6.641   9.302  2.1260 -3.2282 -1.1058
  120MOL0     H16154   8.278   6.461   9.425 -0.1566  0.1178 -1.4806
  120MOL0     H16155   8.430   6.410   9.498 -0.1350 -1.5146 -1.0497
  120MOL0     H16156   8.443   6.282   9.315 -2.6503 -0.4301  2.4628
  120MOL0     H16157   8.528   6.420   9.263 -0.2911 -0.9373 -0.5255
  120MOL0     H16158   8.388   6.341   9.090 -2.2634  0.9192 -1.4845
  120MOL0     H16159   8.342   6.499   9.126 -0.9818 -0.9213 -1.7543
  120MOL0     H16160   8.113   6.551   9.243  0.5988  3.3127 -2.5384
  120MOL0     H16161   7.843   6.707   9.156  0.7409  2.1992  1.7236
  120MOL0     H16162   8.001   6.744   9.213 -0.8275  1.3392  0.0990
  120MOL0     H16163   7.964   6.765   9.042  0.0203  1.8937  2.0700
  120MOL0     H16164   7.517   6.562   8.812 -0.4443  2.2984  2.2860
  120MOL0     H16165   7.413   6.640   8.597  0.4605  1.1496 -2.4499
  120MOL0     H16166   7.542   6.779   8.252 -0.1746  1.3202  1.3706
  120MOL0     H16167   7.542   6.653   8.370  0.6185  1.5917  0.3746
  120MOL0     H16168   7.307   6.712   8.437  0.0333  0.1162  0.3662
  120MOL0     H16169   7.303   6.828   8.291 -1.8126 -1.8219 -2.5185
  120MOL0     H16170   7.358   6.521   8.261 -0.0521 -0.0666  0.1401
  120MOL0     H16171   7.357   6.653   8.144  2.3113 -1.6376  0.4523
  120MOL0     H16172   7.125   6.558   8.319  2.3525  0.7107  1.8370
  120MOL0     H16173   7.109   6.703   8.226 -0.1407 -0.6319  2.2756
  120MOL0     H16174   7.009   6.495   8.130  0.9322 -1.2591  2.1791
  120MOL0     H16175   7.168   6.425   8.149 -0.1127 -0.3007  1.3625
  120MOL0     H16176   7.063   6.619   7.929 -0.5696 -0.5046  1.7297
  120MOL0     H16177   7.238   6.589   7.945  0.5181 -0.9226  1.0165
  120MOL0     H16178   7.046   6.354   7.919  1.7747  1.5729  3.1856
  120MOL0     H16179   7.213   6.384   7.865 -0.3916  0.1420 -2.7853
  120MOL0     H16180   6.979   6.543   7.753  0.0504  0.2002 -0.6897
  120MOL0     H16181   7.016   6.396   7.685 -1.5159  1.2263 -0.3046
  120MOL0     H16182   7.740   6.935   8.568 -1.6457 -0.4784 -2.2593
  120MOL0     H16183   7.841   6.817   8.765 -1.0442  1.9672  1.6954
  120MOL0     H16184   7.902   6.257   8.922  1.7590 -0.9125 -0.2173
  120MOL0     H16185   8.079   6.182   9.043  2.9107  0.7588 -1.2048
  120MOL0     H16186   9.674   7.406   8.926 -1.3445 -1.8557  1.2124
  120MOL0     H16187   9.808   7.607   8.971  0.2814 -1.4387  0.4107
  120MOL0     H16188   9.680   8.145   8.887 -1.9258  2.1748  1.0290
  120MOL0     H16189   9.806   8.352   8.927  2.5713 -0.8025 -0.2737
  120MOL0     H16190  10.052   8.405   9.293  0.2073  1.0177 -0.1167
  120MOL0     H16191  10.186   8.332   9.190  0.6812  0.3836 -3.3627
  120MOL0     H16192  10.067   8.617   9.181 -0.4750 -1.5444 -1.7731
  120MOL0     H16193  10.182   8.563   9.064  1.2246 -1.1812  0.4682
  120MOL0     H16194  10.339   8.513   9.269  0.4758  0.3252  2.8870
  120MOL0     H16195  10.232   8.611   9.365 -2.6514  2.8233 -0.7446
  120MOL0     H16196  10.351   8.726   9.109  1.7438 -0.4393 -0.4159
  120MOL0     H16197  10.441   8.723   9.262 -0.1838 -2.2025 -0.8145
  120MOL0     H16198  10.116   9.016   9.310  0.2018  0.3271  2.6517
  120MOL0     H16199  10.058   8.137   9.205  0.3205  1.9385 -0.3248
  120MOL0     H16200   9.940   7.940   9.164 -0.4216  2.3481  3.3769
  121MOL0     O16201   0.749   1.103   1.995  0.0526 -0.3538 -0.0711
  121MOL0     C16202   0.872   1.101   2.012 -0.2111  0.5275  0.2336
  121MOL0     O16203   0.929   1.111   2.136 -0.0550 -0.5145 -0.1445
  121MOL0     C16204   0.852   1.147   2.236  0.4989  0.1026  0.0495
  121MOL0     C16205   0.823   1.035   2.319 -0.4018 -1.0250  0.2905
  121MOL0     C16206   0.732   1.044   2.423 -0.4789  0.7336  0.4610
  121MOL0     C16207   0.675   1.170   2.454  0.5247  0.3613 -0.0449
  121MOL0     O16208   0.596   1.174   2.570  0.0410 -0.3573  0.3761
  121MOL0     C16209   0.544   1.298   2.622 -0.7400  0.5625 -0.3130
  121MOL0     C16210   0.401   1.338   2.555  0.0806  0.1444  0.0976
  121MOL0     C16211   0.329   1.442   2.654  0.4346 -0.6387  0.1089
  121MOL0     C16212   0.234   1.531   2.567 -0.6423  0.3225  0.1185
  121MOL0     C16213   0.159   1.631   2.641  0.5715  0.3895  0.0848
  121MOL0     C16214   0.243   1.715   2.742 -0.8177 -0.3033  0.2406
  121MOL0     C16215   0.149   1.809   2.816  0.1588  0.8388 -0.4242
  121MOL0     C16216   0.231   1.882   2.921 -0.2690 -0.7300 -0.6620
  121MOL0     N16217   0.156   1.987   3.009 -0.0704  0.0851 -0.0936
  121MOL0     C16218   0.088   2.102   2.968  0.4807 -0.1761 -0.0189
  121MOL0     C16219   0.047   2.163   3.079 -0.0258 -0.4406 -0.7689
  121MOL0     C16220   0.001   2.310   3.077 -0.2420 -0.5087 -0.4205
  121MOL0     C16221   0.110   2.415   3.062  1.3083 -0.3805  0.6961
  121MOL0     C16222   0.216   2.383   3.172  0.2636 -0.0145  0.1188
  121MOL0     C16223   0.180   2.401   3.320 -0.4337 -0.0156  0.4329
  121MOL0     O16224   0.297   2.376   3.406 -0.1350  0.4431 -0.0905
  121MOL0     C16225   0.271   2.357   3.539 -0.3348  0.7664  1.2212
  121MOL0     C16226   0.152   2.377   3.604 -0.6247  0.6720 -0.7014
  121MOL0     C16227   0.139   2.339   3.736  0.1693 -0.2291 -0.0522
  121MOL0     C16228   0.003   2.354   3.795  0.5990  0.0664 -0.5299
  121MOL0     C16229   0.245   2.293   3.815  0.6829 -0.5928 -1.0352
  121MOL0     C16230   0.236   2.260   3.957  0.2778  0.1996 -0.0515
  121MOL0     O16231   0.111   2.237   4.014 -0.1147 -0.5652 -0.0432
  121MOL0     C16232   0.105   2.164   4.131 -1.3997 -0.0889 -0.2748
  121MOL0     C16233   0.035   2.219   4.234  0.5582  0.8310 -0.3471
  121MOL0     C16234   0.022   2.149   4.356 -0.0947  1.4312  0.7871
  121MOL0     C16235   0.085   2.025   4.367  0.1516 -0.0749  0.4640
  121MOL0     O16236   0.072   1.981   4.495 -0.4208  0.1956  0.7330
  121MOL0     C16237   0.136   1.851   4.521 -0.1943  0.3907 -0.0777
  121MOL0     C16238   0.141   1.845   4.670 -1.0309 -0.0233 -0.3633
  121MOL0     C16239   0.249   1.931   4.733 -0.9548 -0.2016 -0.0353
  121MOL0     C16240   0.251   1.930   4.884 -0.8961  0.5087  0.1042
  121MOL0     C16241   0.327   2.046   4.957  0.3383 -0.4579  0.3609
  121MOL0     C16242   0.226   2.160   4.995 -0.1047  0.1309 -0.4252
  121MOL0     C16243   0.305   2.291   5.022  0.6950  0.1501  0.2236
  121MOL0     C16244   0.213   2.390   5.098 -0.6744 -1.0486  0.5670
  121MOL0    Cl16245   0.099   2.467   4.985 -0.1891  0.4620  0.0223
  121MOL0     C16246   0.158   1.964   4.259  0.4428 -0.2227  0.4011
  121MOL0     C16247   0.167   2.039   4.138 -0.7366  0.3108 -0.5860
  121MOL0     O16248   0.338   2.242   4.013  0.1243 -0.2832 -0.1663
  121MOL0     C16249   0.365   2.290   3.748  0.2775  0.0802  0.3506
  121MOL0     C16250   0.381   2.314   3.614  0.4004 -0.5584 -0.2509
  121MOL0     N16251   0.078   2.076   3.187  0.9974  0.1989 -0.0989
  121MOL0     N16252   0.143   1.972   3.143 -1.0095 -0.2117  0.1163
  121MOL0     C16253   0.711   1.283   2.379  0.8091 -0.3295  0.1283
  121MOL0     C16254   0.798   1.274   2.261 -0.4950 -0.9400 -0.8734
  121MOL0     C16255   0.962   1.077   1.903 -0.3466 -1.1659  0.1839
  121MOL0     C16256   0.916   1.089   1.771 -0.4796 -0.0095  0.2877
  121MOL0     C16257   1.003   1.068   1.660 -0.4310 -0.1656  0.1695
  121MOL0     C16258   1.144   1.041   1.685 -0.7678 -0.3426 -0.9154
  121MOL0     O16259   1.242   1.040   1.587  0.0946 -0.9827  0.6261
  121MOL0     C16260   1.383   1.069   1.620  0.6029 -0.3123 -0.9407
  121MOL0     C16261   1.462   1.078   1.490 -0.5267  0.9758  0.5542
  121MOL0     C16262   1.448   0.946   1.399  0.8977  0.3112 -0.0510
  121MOL0     C16263   1.479   0.969   1.256  0.4464  0.7613 -0.2661
  121MOL0     C16264   1.629   0.973   1.235  0.2067 -0.3044 -0.4195
  121MOL0     C16265   1.741   0.991   1.220 -1.0262  0.2762  0.4694
  121MOL0     C16266   1.182   1.003   1.817  1.0379 -0.5464 -0.3680
  121MOL0     C16267   1.090   1.031   1.918 -0.5071  0.0296 -0.5953
  121MOL0     H16268   0.874   0.943   2.292  1.3601 -0.6423  2.1047
  121MOL0     H16269   0.703   0.956   2.479 -1.0540  0.8814  0.4013
  121MOL0     H16270   0.530   1.282   2.730 -0.5577  0.5072 -0.2962
  121MOL0     H16271   0.621   1.376   2.623 -0.0750 -0.0559  1.7169
  121MOL0     H16272   0.418   1.371   2.452  2.2090 -1.8029 -0.2694
  121MOL0     H16273   0.338   1.249   2.545 -1.9656  1.6543 -1.1673
  121MOL0     H16274   0.275   1.390   2.733 -1.4058  1.7795  0.5521
  121MOL0     H16275   0.408   1.506   2.692  1.3946  0.8621 -3.9188
  121MOL0     H16276   0.307   1.579   2.501  0.6700 -1.1568  0.4211
  121MOL0     H16277   0.172   1.473   2.497  0.3726 -2.0694  1.0747
  121MOL0     H16278   0.110   1.701   2.572 -0.1287  1.2628  1.4203
  121MOL0     H16279   0.076   1.584   2.695 -1.9315  1.2029 -2.7954
  121MOL0     H16280   0.297   1.648   2.811  0.8339  1.9262  1.2409
  121MOL0     H16281   0.333   1.758   2.698  2.1255 -3.7126  2.3338
  121MOL0     H16282   0.097   1.868   2.740  0.5893 -1.4367 -2.6132
  121MOL0     H16283   0.071   1.758   2.875 -1.0728  1.3331 -1.5737
  121MOL0     H16284   0.308   1.942   2.873 -1.0446  2.4995  1.6965
  121MOL0     H16285   0.289   1.810   2.980  2.8473  1.0976 -1.3007
  121MOL0     H16286   0.071   2.136   2.867 -1.2934 -0.0204  0.2915
  121MOL0     H16287  -0.061   2.316   2.986  0.1465 -3.2707 -0.9830
  121MOL0     H16288  -0.057   2.327   3.168  0.0886 -0.9506 -0.1232
  121MOL0     H16289   0.053   2.507   3.075  0.0397 -0.9690 -0.5159
  121MOL0     H16290   0.157   2.419   2.963  3.0315  2.3591  1.5161
  121MOL0     H16291   0.299   2.450   3.148  0.2767 -0.2346 -0.4571
  121MOL0     H16292   0.268   2.290   3.146 -0.6949  0.1354 -2.6870
  121MOL0     H16293   0.096   2.338   3.351  0.5002 -1.8665 -0.5648
  121MOL0     H16294   0.148   2.503   3.341  0.3626  0.5081 -0.7881
  121MOL0     H16295   0.062   2.416   3.558 -0.1803  3.0499  0.2903
  121MOL0     H16296  -0.053   2.261   3.803  0.4112  0.2292  0.0696
  121MOL0     H16297   0.003   2.406   3.891 -0.3491 -1.8488  0.5480
  121MOL0     H16298  -0.047   2.429   3.732 -1.1344  0.0828  0.7899
  121MOL0     H16299  -0.010   2.317   4.227 -0.2141  0.4937 -0.2612
  121MOL0     H16300  -0.016   2.197   4.445 -2.8209  0.1784  0.4056
  121MOL0     H16301   0.092   1.761   4.476  1.8066 -1.4878  1.5100
  121MOL0     H16302   0.237   1.848   4.478 -0.7073  1.7219 -1.4840
  121MOL0     H16303   0.042   1.856   4.716 -0.0223  1.6704  1.5823
  121MOL0     H16304   0.176   1.744   4.691 -0.1999  0.2326 -0.4549
  121MOL0     H16305   0.229   2.036   4.710 -1.0512 -0.1111  0.4473
  121MOL0     H16306   0.345   1.916   4.684 -1.3591  0.7187 -1.1375
  121MOL0     H16307   0.148   1.921   4.919 -2.2012  3.8758 -2.3107
  121MOL0     H16308   0.319   1.850   4.916  0.0328  1.8467  1.6662
  121MOL0     H16309   0.408   2.082   4.893  0.4432 -0.5724  0.4305
  121MOL0     H16310   0.385   2.012   5.043  3.0143  2.7898  0.0748
  121MOL0     H16311   0.151   2.176   4.917  1.4153  0.6459 -1.8295
  121MOL0     H16312   0.177   2.130   5.088  1.4005 -1.5670 -0.1364
  121MOL0     H16313   0.325   2.347   4.930 -2.4911 -0.5088 -1.0100
  121MOL0     H16314   0.397   2.256   5.070  0.7579 -0.5542 -0.4002
  121MOL0     H16315   0.267   2.475   5.141 -1.9607 -0.4572  1.0796
  121MOL0     H16316   0.163   2.344   5.184 -0.4742 -0.8678  0.7828
  121MOL0     H16317   0.206   1.866   4.264  1.7354  0.1229 -2.8720
  121MOL0     H16318   0.231   2.004   4.058  1.4602  2.0067  0.3260
  121MOL0     H16319   0.450   2.255   3.806 -0.1990 -1.2160  0.2979
  121MOL0     H16320   0.480   2.315   3.569  0.4488  1.7998 -0.2339
  121MOL0     H16321   0.682   1.383   2.410  2.2388  0.4352 -0.8754
  121MOL0     H16322   0.803   1.355   2.189  0.1433 -1.2593 -1.2004
  121MOL0     H16323   0.810   1.099   1.750  0.0120  2.6900 -1.3537
  121MOL0     H16324   0.960   1.078   1.561 -2.3089  1.7943  1.1052
  121MOL0     H16325   1.395   1.160   1.680 -0.9408 -0.6649 -0.0552
  121MOL0     H16326   1.424   0.986   1.678 -1.0411 -0.9339 -0.6030
  121MOL0     H16327   1.569   1.089   1.508 -0.7610  0.7005  2.2137
  121MOL0     H16328   1.419   1.163   1.436 -1.3486  1.5733  2.0808
  121MOL0     H16329   1.345   0.910   1.403  1.2051 -0.4904  1.9472
  121MOL0     H16330   1.512   0.863   1.431  1.1545  0.0245 -1.2709
  121MOL0     H16331   1.452   1.069   1.224  1.5455  0.5192 -2.0772
  121MOL0     H16332   1.437   0.887   1.197  1.3252  0.3644 -0.3610
  121MOL0     H16333   1.846   0.997   1.201 -0.9519  1.9696  1.2555
  121MOL0     H16334   1.285   0.975   1.837  1.2443 -0.0611 -0.7088
  121MOL0     H16335   1.129   1.018   2.019  3.1657 -1.4189 -2.0227
  122MOL0     O16336   1.263   8.407  10.448  0.5752  0.0592  0.6717
  122MOL0     C16337   1.348   8.499  10.465  0.2077 -0.9560 -1.0625
  122MOL0     O16338   1.454   8.515  10.388 -0.3948 -1.0032  0.5344
  122MOL0     C16339   1.478   8.443  10.278  1.1118 -0.4949  0.5894
  122MOL0     C16340   1.461   8.488  10.143  0.5288 -0.4895  0.2197
  122MOL0     C16341   1.469   8.400  10.035  0.1523  0.7279  0.5697
  122MOL0     C16342   1.516   8.279  10.052  0.5111  0.2227  0.8430
  122MOL0     O16343   1.534   8.189   9.951  0.2864  0.5577  0.8042
  122MOL0     C16344   1.415   8.155   9.876 -0.0959  0.5715  0.1208
  122MOL0     C16345   1.359   8.008   9.870 -0.8751 -0.2116 -0.0912
  122MOL0     C16346   1.237   7.993   9.952 -0.1444  0.3572  0.2220
  122MOL0     C16347   1.267   8.038  10.093 -0.2420 -0.4271 -0.2912
  122MOL0     C16348   1.178   7.970  10.195  0.3480  0.2449  0.3794
  122MOL0     C16349   1.173   8.042  10.330  0.0975  0.3655  0.1470
  122MOL0     C16350   1.039   8.110  10.356 -0.0809 -0.5083  0.0607
  122MOL0     C16351   1.043   8.162  10.501  0.7896 -0.7470 -0.6019
  122MOL0     N16352   0.930   8.257  10.535  0.5312 -0.2356  0.4082
  122MOL0     C16353   0.931   8.395  10.535 -0.7769  0.1497 -0.1676
  122MOL0     C16354   0.809   8.438  10.582 -0.4135  0.1753  0.0456
  122MOL0     C16355   0.752   8.577  10.582  0.1039 -0.1960 -0.9037
  122MOL0     C16356   0.841   8.700  10.588  0.3578 -0.9576  0.2365
  122MOL0     C16357   0.759   8.830  10.595 -0.3476 -0.2826 -0.4567
  122MOL0     C16358   0.840   8.960  10.592  0.0196 -0.1594  0.7739
  122MOL0     O16359   0.906   8.981  10.721  0.6596 -0.0560 -0.1761
  122MOL0     C16360   0.859   9.078  10.811  1.1030  0.5006  0.7439
  122MOL0     C16361   0.725   9.077  10.859 -0.6709  0.3638 -0.3014
  122MOL0     C16362   0.663   9.189  10.926  0.3384  0.7553  0.5997
  122MOL0     C16363   0.517   9.182  10.965 -0.1865 -0.0952  0.0831
  122MOL0     C16364   0.744   9.301  10.953 -0.1484  0.2324  0.1671
  122MOL0     C16365   0.694   9.436  11.015  0.2256 -0.0274  0.5458
  122MOL0     O16366   0.558   9.458  11.023 -1.4544 -0.4903  1.0674
  122MOL0     C16367   0.508   9.569  11.080  0.0504  1.0748  1.3282
  122MOL0     C16368   0.503   9.685  11.005 -0.1251  0.7061 -0.3813
  122MOL0     C16369   0.438   9.797  11.055  0.4835 -0.0315  0.0614
  122MOL0     C16370   0.375   9.798  11.178 -0.6256  1.0330 -0.1032
  122MOL0     O16371   0.324   9.912  11.231  0.2150 -0.4970  0.8024
  122MOL0     C16372   0.241   9.911  11.352 -0.6379  0.4626  0.2999
  122MOL0     C16373   0.170  10.048  11.365  0.0674 -0.5078 -0.6621
  122MOL0     C16374   0.105  10.076  11.499  0.1163  0.3516 -0.6517
  122MOL0     C16375  -0.028  10.004  11.525 -0.6034  1.0286  0.4165
  122MOL0     C16376  -0.106  10.074  11.642 -0.1690  0.3595  0.2667
  122MOL0     C16377  -0.173  10.210  11.596 -0.2724  1.6053 -0.4701
  122MOL0     C16378  -0.272  10.256  11.702  0.0123  0.2876 -0.9742
  122MOL0     C16379  -0.385  10.335  11.637  0.2998 -0.6082  0.5452
  122MOL0    Cl16380  -0.494  10.394  11.770 -0.0099  0.0283  0.1066
  122MOL0     C16381   0.382   9.678  11.250  0.2165  0.1137  0.4364
  122MOL0     C16382   0.439   9.566  11.204 -0.2095  0.2471  0.1820
  122MOL0     O16383   0.782   9.506  11.073  0.6108  0.0145 -0.3416
  122MOL0     C16384   0.881   9.288  10.923  0.2239 -0.6700 -0.3568
  122MOL0     C16385   0.934   9.185  10.841 -0.4802  0.0763 -0.4179
  122MOL0     N16386   0.734   8.326  10.602 -0.3181  0.6200 -0.3356
  122MOL0     N16387   0.803   8.224  10.565  0.3383 -0.1606  0.4009
  122MOL0     C16388   1.550   8.229  10.177  0.3523 -0.0335 -0.1802
  122MOL0     C16389   1.511   8.311  10.295  0.0760 -0.0993  1.0022
  122MOL0     C16390   1.334   8.585  10.590 -0.6970 -0.0478 -0.8528
  122MOL0     C16391   1.416   8.696  10.612 -0.4120  0.6711  0.8497
  122MOL0     C16392   1.398   8.789  10.714 -0.6663  1.2058  0.3707
  122MOL0     C16393   1.299   8.761  10.801  0.0480  0.0813 -0.2732
  122MOL0     O16394   1.293   8.856  10.889  0.2546 -0.2740 -0.9656
  122MOL0     C16395   1.168   8.916  10.931  0.5526  1.6202 -0.0475
  122MOL0     C16396   1.184   9.037  11.026  0.7430  0.2335 -0.8739
  122MOL0     C16397   1.279   9.143  10.960  0.5611  0.0684 -0.1474
  122MOL0     C16398   1.436   9.120  10.962 -0.5311  0.4148  0.0220
  122MOL0     C16399   1.499   9.223  10.872  1.0729  1.1156 -0.1876
  122MOL0     C16400   1.557   9.313  10.821  0.1509 -0.7666 -0.0889
  122MOL0     C16401   1.219   8.648  10.792  0.6753 -0.3558 -0.3915
  122MOL0     C16402   1.238   8.558  10.689 -0.1346  0.3627  1.1893
  122MOL0     H16403   1.421   8.586  10.119  2.4568 -0.4670 -3.6060
  122MOL0     H16404   1.459   8.440   9.934  2.0584 -1.0954 -0.4175
  122MOL0     H16405   1.328   8.220   9.885 -1.5736 -1.5357  2.7337
  122MOL0     H16406   1.446   8.178   9.774  1.1492  1.4254  0.6685
  122MOL0     H16407   1.336   7.988   9.765  1.0950  1.3249 -0.8617
  122MOL0     H16408   1.438   7.938   9.897 -0.2687  0.6376  0.3947
  122MOL0     H16409   1.157   8.052   9.907 -0.3631 -1.0944 -1.4001
  122MOL0     H16410   1.213   7.886   9.952  1.9136 -0.1561  0.2290
  122MOL0     H16411   1.372   8.014  10.112  0.0241  0.3534 -0.7458
  122MOL0     H16412   1.269   8.147  10.103 -0.8565 -0.4529  0.1511
  122MOL0     H16413   1.079   7.968  10.148  0.6040  3.8141 -0.6654
  122MOL0     H16414   1.215   7.868  10.203  1.0496  0.3595 -1.1158
  122MOL0     H16415   1.192   7.970  10.410  0.7056 -0.8590 -1.0576
  122MOL0     H16416   1.258   8.111  10.337 -0.5884  1.0660  3.6577
  122MOL0     H16417   1.009   8.195  10.293 -2.3045 -0.3383  1.2429
  122MOL0     H16418   0.956   8.040  10.346 -0.4966  0.1946 -1.9171
  122MOL0     H16419   1.136   8.213  10.528 -1.4012  2.9609  0.5351
  122MOL0     H16420   1.043   8.079  10.573 -0.9486  0.6609  1.1129
  122MOL0     H16421   1.013   8.462  10.511  0.3670 -1.3096 -0.4744
  122MOL0     H16422   0.695   8.576  10.488 -0.4215 -4.1238 -0.7499
  122MOL0     H16423   0.682   8.570  10.665  0.8189  0.7598 -0.2066
  122MOL0     H16424   0.907   8.708  10.502 -1.0372  1.9443 -0.6801
  122MOL0     H16425   0.905   8.687  10.676 -0.3654  1.5596  1.2211
  122MOL0     H16426   0.705   8.832  10.691  0.0777  1.7366 -0.2284
  122MOL0     H16427   0.697   8.826  10.505 -1.1607 -0.5043  0.1018
  122MOL0     H16428   0.786   9.051  10.564  2.0705  0.3673 -1.8433
  122MOL0     H16429   0.914   8.954  10.513  0.0149  0.7676  0.6837
  122MOL0     H16430   0.653   9.001  10.831 -1.4257  0.6371  0.8153
  122MOL0     H16431   0.469   9.267  10.916 -0.6129 -0.3067  0.1278
  122MOL0     H16432   0.464   9.088  10.943 -0.6712  0.3672 -0.7696
  122MOL0     H16433   0.515   9.196  11.073  1.3996 -1.1265  0.2761
  122MOL0     H16434   0.529   9.679  10.900 -0.7775  0.7729 -0.5513
  122MOL0     H16435   0.442   9.890  11.000 -3.3098  0.4570  0.3800
  122MOL0     H16436   0.165   9.833  11.360 -1.1953  1.0124  0.3603
  122MOL0     H16437   0.309   9.890  11.435 -0.3521 -2.1469 -0.5055
  122MOL0     H16438   0.249  10.122  11.352  0.2470 -0.6230 -0.2443
  122MOL0     H16439   0.098  10.069  11.285 -1.6541  1.1053  1.1842
  122MOL0     H16440   0.089  10.182  11.519  1.6851  0.6716 -0.9021
  122MOL0     H16441   0.178  10.038  11.571 -1.8887 -1.4384  0.5525
  122MOL0     H16442  -0.082  10.015  11.430 -1.0270  1.2833  0.6855
  122MOL0     H16443  -0.014   9.899  11.551  0.5369  1.2670  0.8140
  122MOL0     H16444  -0.030  10.102  11.716  1.4680  0.1464 -1.2829
  122MOL0     H16445  -0.176  10.003  11.688  0.1634 -0.5772 -0.6482
  122MOL0     H16446  -0.095  10.286  11.593 -0.2452  1.5677 -0.8154
  122MOL0     H16447  -0.208  10.194  11.493  0.1241 -0.7557 -0.3003
  122MOL0     H16448  -0.217  10.305  11.783  0.0374 -4.2920  2.2142
  122MOL0     H16449  -0.313  10.167  11.751  2.5951  0.5535  1.9677
  122MOL0     H16450  -0.436  10.272  11.563 -1.5125 -0.7250  1.8161
  122MOL0     H16451  -0.340  10.413  11.576 -0.4571  0.6324  1.5101
  122MOL0     H16452   0.330   9.679  11.345  0.5297  1.0502  0.6093
  122MOL0     H16453   0.455   9.481  11.269  0.5855  0.5711  0.4149
  122MOL0     H16454   0.948   9.364  10.961  0.8235 -1.3911  0.0382
  122MOL0     H16455   1.039   9.198  10.818  0.0212 -0.0398  1.6315
  122MOL0     H16456   1.582   8.126  10.186 -2.9398 -1.1605  0.2148
  122MOL0     H16457   1.528   8.269  10.394 -0.2897  1.6340  1.8308
  122MOL0     H16458   1.496   8.720  10.543 -1.0009 -0.9128 -0.4517
  122MOL0     H16459   1.455   8.881  10.717  0.9881  0.2257  0.4158
  122MOL0     H16460   1.124   8.947  10.835  1.5115  1.1210 -0.6728
  122MOL0     H16461   1.112   8.836  10.979  1.7054  0.4375 -0.6134
  122MOL0     H16462   1.208   9.003  11.128 -1.6387  0.2786 -0.2389
  122MOL0     H16463   1.081   9.072  11.041 -0.7748 -4.0076  0.1562
  122MOL0     H16464   1.266   9.237  11.013 -1.6771  1.6069 -3.1341
  122MOL0     H16465   1.236   9.158  10.860 -2.1588 -0.9351  0.7710
  122MOL0     H16466   1.485   9.029  10.925 -1.0865 -0.2601  0.9213
  122MOL0     H16467   1.469   9.127  11.066 -1.4845 -0.6630  0.4148
  122MOL0     H16468   1.605   9.407  10.800 -0.5669 -0.4911 -0.5491
  122MOL0     H16469   1.146   8.626  10.869  1.4432  3.0776  1.5570
  122MOL0     H16470   1.179   8.467  10.695  2.9851 -1.8017  0.8424
  123MOL0     O16471   3.323   0.779   9.495  0.2257 -0.0943 -0.2868
  123MOL0     C16472   3.322   0.801   9.620  0.0807  0.6459 -0.5268
  123MOL0     O16473   3.302   0.918   9.680 -0.2854 -0.1182 -0.2242
  123MOL0     C16474   3.288   1.038   9.608  0.2440 -0.0565  0.4031
  123MOL0     C16475   3.383   1.067   9.510 -0.7625  0.7085 -0.1928
  123MOL0     C16476   3.372   1.191   9.440  1.1340 -0.4136  0.2831
  123MOL0     C16477   3.269   1.284   9.482  0.3078 -0.0633 -0.0634
  123MOL0     O16478   3.260   1.410   9.440 -1.0504  0.5491 -0.1087
  123MOL0     C16479   3.262   1.435   9.296 -0.3769  0.0783 -0.1053
  123MOL0     C16480   3.181   1.571   9.270 -0.5133  0.4381 -0.1885
  123MOL0     C16481   3.045   1.552   9.346 -0.4747 -0.5656 -0.5747
  123MOL0     C16482   2.951   1.667   9.322  0.9797 -0.5891 -0.1020
  123MOL0     C16483   3.004   1.794   9.391 -0.0259  0.0517 -0.9341
  123MOL0     C16484   2.906   1.916   9.366  0.2388 -1.0255 -0.1643
  123MOL0     C16485   2.950   2.028   9.466  0.2082  0.0597 -0.4301
  123MOL0     C16486   2.899   2.161   9.413 -0.1758  0.1541  0.4694
  123MOL0     N16487   2.912   2.259   9.515 -0.5537 -0.6016  0.0928
  123MOL0     C16488   3.032   2.275   9.586  0.1288 -0.1414  0.6904
  123MOL0     C16489   3.000   2.367   9.681 -1.0876  0.2618 -0.2279
  123MOL0     C16490   3.079   2.414   9.802  0.2658  0.6420  0.1940
  123MOL0     C16491   3.175   2.309   9.867 -0.0538 -0.6820 -0.4362
  123MOL0     C16492   3.083   2.194   9.921  0.1808 -0.2729  0.1307
  123MOL0     C16493   3.156   2.092  10.005  0.0241  0.1597 -0.1217
  123MOL0     O16494   3.292   2.064   9.966 -0.5520  0.3686 -0.0576
  123MOL0     C16495   3.352   1.970  10.046 -0.4008  0.0493  0.2577
  123MOL0     C16496   3.325   1.935  10.177 -0.3359  0.7482  0.7936
  123MOL0     C16497   3.396   1.825  10.238  0.2090  0.0561 -0.3539
  123MOL0     C16498   3.336   1.797  10.374 -0.6093  0.1359  0.4270
  123MOL0     C16499   3.506   1.759  10.174  0.7819  0.4850 -0.0472
  123MOL0     C16500   3.574   1.636  10.222 -0.3775  1.5080 -1.2101
  123MOL0     O16501   3.647   1.567  10.133  0.0780 -0.3128 -0.5441
  123MOL0     C16502   3.718   1.460  10.177  0.7844  0.1230  0.9386
  123MOL0     C16503   3.665   1.329  10.181 -0.4276  0.3495  0.2202
  123MOL0     C16504   3.748   1.219  10.212  0.4099  0.6126 -0.6716
  123MOL0     C16505   3.879   1.242  10.240  0.1186  0.0001  0.3335
  123MOL0     O16506   3.955   1.129  10.259  0.1286  0.5038 -0.1890
  123MOL0     C16507   4.097   1.129  10.221  0.0238 -0.4506  1.1639
  123MOL0     C16508   4.120   1.117  10.068 -0.1387  0.0019  0.5555
  123MOL0     C16509   4.231   1.016  10.039 -0.2409 -0.4269  0.7928
  123MOL0     C16510   4.276   0.996   9.890  0.9711  0.3831 -0.5414
  123MOL0     C16511   4.395   0.900   9.880  0.9046  0.0415  0.1961
  123MOL0     C16512   4.411   0.838   9.736  0.3070 -1.0102  0.4293
  123MOL0     C16513   4.498   0.716   9.745 -0.6259  0.6358  0.0212
  123MOL0     C16514   4.519   0.647   9.608  0.3301 -0.0120  0.0272
  123MOL0    Cl16515   4.617   0.738   9.501  0.5183 -0.0765 -0.0277
  123MOL0     C16516   3.930   1.374  10.247  0.1445  1.0229  0.3405
  123MOL0     C16517   3.849   1.480  10.217 -0.3659 -0.6897 -0.1954
  123MOL0     O16518   3.567   1.605  10.340  0.1143 -0.3614 -0.4452
  123MOL0     C16519   3.530   1.799  10.037  0.0902 -0.4242 -0.3587
  123MOL0     C16520   3.463   1.910   9.975  0.6906  0.1104 -0.1046
  123MOL0     N16521   2.871   2.403   9.659 -0.0083  0.2118  0.1560
  123MOL0     N16522   2.819   2.339   9.560 -0.2126 -0.2177 -0.2362
  123MOL0     C16523   3.175   1.240   9.574  0.3649 -0.3990  0.6094
  123MOL0     C16524   3.180   1.119   9.639  0.0558  0.4823 -0.0662
  123MOL0     C16525   3.353   0.686   9.706 -0.2923  0.4148 -0.3064
  123MOL0     C16526   3.407   0.716   9.829  1.0822 -0.0783  0.0770
  123MOL0     C16527   3.448   0.625   9.925 -0.3310 -0.3814 -0.1149
  123MOL0     C16528   3.426   0.489   9.894  0.8700  0.7377 -0.7735
  123MOL0     O16529   3.443   0.392   9.996  0.0058  0.1712 -0.0190
  123MOL0     C16530   3.321   0.371  10.072 -0.7339 -0.9841  0.0928
  123MOL0     C16531   3.323   0.218  10.107  0.0223  0.6066 -0.3513
  123MOL0     C16532   3.372   0.196  10.251 -0.4062  0.1330  0.7612
  123MOL0     C16533   3.366   0.053  10.291  0.1734  0.0828 -0.6101
  123MOL0     C16534   3.465  -0.036  10.233 -0.5160 -0.9567 -0.0813
  123MOL0     C16535   3.550  -0.116  10.192  0.1865 -0.1672 -0.5845
  123MOL0     C16536   3.366   0.449   9.770  0.0759 -0.7817 -0.5088
  123MOL0     C16537   3.344   0.547   9.676  0.6670  0.3055  0.5261
  123MOL0     H16538   3.460   1.001   9.471 -0.6079  1.7826 -1.8031
  123MOL0     H16539   3.452   1.234   9.380  0.3706  1.0394  0.2767
  123MOL0     H16540   3.365   1.445   9.261 -1.2274 -2.4044 -4.0810
  123MOL0     H16541   3.217   1.347   9.248  3.8380 -2.1717 -0.3760
  123MOL0     H16542   3.243   1.657   9.295  1.8557 -0.9845 -0.7699
  123MOL0     H16543   3.170   1.584   9.162  0.2300 -1.2895 -0.5184
  123MOL0     H16544   3.005   1.457   9.308 -1.4670 -0.5486  0.3839
  123MOL0     H16545   3.066   1.539   9.453  0.0757 -2.1653 -0.8493
  123MOL0     H16546   2.938   1.699   9.218 -2.1343 -2.3636 -0.3879
  123MOL0     H16547   2.846   1.649   9.346  1.5527 -1.5172  1.9465
  123MOL0     H16548   3.011   1.776   9.499  1.4303  3.9734 -0.2417
  123MOL0     H16549   3.104   1.826   9.362 -0.2823  1.4434 -0.3467
  123MOL0     H16550   2.906   1.953   9.263  2.7423  2.3217  0.8683
  123MOL0     H16551   2.803   1.887   9.387  0.3765 -0.4346  1.4350
  123MOL0     H16552   2.911   2.007   9.566  0.0239  1.4429 -0.1856
  123MOL0     H16553   3.059   2.032   9.471  0.1998  2.3214 -0.8813
  123MOL0     H16554   2.790   2.153   9.409 -0.1753 -1.6702  2.3189
  123MOL0     H16555   2.948   2.189   9.319  0.7091 -2.6325  0.0341
  123MOL0     H16556   3.121   2.214   9.584 -1.4851 -2.6688  1.4916
  123MOL0     H16557   3.124   2.512   9.782  0.5674  0.6198  0.7314
  123MOL0     H16558   3.006   2.449   9.875 -1.1761  0.2656 -1.0363
  123MOL0     H16559   3.219   2.353   9.957 -1.7347 -1.6687  0.9421
  123MOL0     H16560   3.253   2.267   9.803 -2.3360 -0.9315 -3.2833
  123MOL0     H16561   3.053   2.137   9.832 -0.8971 -2.4814  1.8000
  123MOL0     H16562   2.993   2.228   9.973  0.7023 -0.0300  0.8865
  123MOL0     H16563   3.101   2.001  10.030 -0.6334  0.0020 -1.9388
  123MOL0     H16564   3.175   2.149  10.096  1.7006 -3.0097  1.6577
  123MOL0     H16565   3.253   1.992  10.235 -1.6398 -2.5063  2.6275
  123MOL0     H16566   3.242   1.745  10.355  1.0722 -3.7032  1.6977
  123MOL0     H16567   3.407   1.745  10.440  1.0284  3.2967  1.3565
  123MOL0     H16568   3.318   1.896  10.417 -0.8501  1.0760 -1.7366
  123MOL0     H16569   3.562   1.318  10.149  0.1198  1.9545 -2.4111
  123MOL0     H16570   3.710   1.117  10.208 -0.4735  0.4830  4.5056
  123MOL0     H16571   4.151   1.216  10.258  2.0485 -1.1496  0.0249
  123MOL0     H16572   4.157   1.053  10.273  1.0835 -0.3066  0.1982
  123MOL0     H16573   4.033   1.081  10.012  1.5239  2.2629 -4.0122
  123MOL0     H16574   4.153   1.210  10.020 -1.2902 -0.3819 -1.0637
  123MOL0     H16575   4.207   0.913  10.068  0.8263 -1.0040 -0.2879
  123MOL0     H16576   4.323   1.043  10.092  0.5816 -1.8823  0.1655
  123MOL0     H16577   4.205   0.950   9.820  2.8637  1.5611 -3.4297
  123MOL0     H16578   4.296   1.095   9.846  1.3497  0.7122  0.3594
  123MOL0     H16579   4.387   0.832   9.965 -0.0710  1.9209  1.7000
  123MOL0     H16580   4.487   0.957   9.895  0.9707 -0.0541  0.1537
  123MOL0     H16581   4.308   0.807   9.713  0.2047  0.4418 -1.3293
  123MOL0     H16582   4.440   0.906   9.656 -0.4552 -1.2933 -0.1063
  123MOL0     H16583   4.457   0.642   9.814  2.0584 -0.2510  0.8009
  123MOL0     H16584   4.595   0.750   9.784 -0.9526 -1.0524  2.5099
  123MOL0     H16585   4.422   0.626   9.561 -0.7352  0.7526  1.7765
  123MOL0     H16586   4.568   0.550   9.617 -2.5429 -1.8135 -1.8445
  123MOL0     H16587   4.022   1.409  10.292  0.1358 -0.4981  1.6462
  123MOL0     H16588   3.889   1.580  10.228  1.5387 -1.4717  0.4076
  123MOL0     H16589   3.602   1.747   9.974 -1.7685 -1.5162 -1.6497
  123MOL0     H16590   3.491   1.951   9.878  0.2815 -1.1256 -0.7661
  123MOL0     H16591   3.107   1.312   9.620 -1.6150 -0.9759 -1.2048
  123MOL0     H16592   3.111   1.089   9.718  0.4303  0.0354  0.0942
  123MOL0     H16593   3.423   0.823   9.834  2.1997 -0.2220 -0.2072
  123MOL0     H16594   3.485   0.659  10.021 -1.9400 -1.5794  0.9792
  123MOL0     H16595   3.321   0.436  10.160  1.4107 -0.6607 -0.0864
  123MOL0     H16596   3.230   0.387  10.013 -4.0227 -2.6656  4.2128
  123MOL0     H16597   3.383   0.159  10.038  1.2425 -1.7234  2.4847
  123MOL0     H16598   3.217   0.193  10.102  0.3075 -0.4071 -2.0009
  123MOL0     H16599   3.312   0.271  10.303 -0.1767  1.1498 -0.3903
  123MOL0     H16600   3.474   0.231  10.272 -0.1630 -1.4700  2.4422
  123MOL0     H16601   3.266   0.011  10.273  0.9530 -1.2152 -2.1843
  123MOL0     H16602   3.362   0.060  10.400 -3.4817 -0.1239 -0.6107
  123MOL0     H16603   3.613  -0.191  10.149  0.2694  0.4035 -1.4914
  123MOL0     H16604   3.352   0.342   9.759  3.1324 -1.2858 -0.3533
  123MOL0     H16605   3.297   0.518   9.582 -0.4539 -1.1234  1.4872
  124MOL0     O16606   9.038   8.086   1.277  0.3458  0.1685 -0.3971
  124MOL0     C16607   9.064   8.203   1.259  0.1450 -0.2137  0.2539
  124MOL0     O16608   9.142   8.252   1.157  0.3252  0.6523 -0.4390
  124MOL0     C16609   9.206   8.165   1.072 -0.3092 -0.8240  0.4744
  124MOL0     C16610   9.341   8.154   1.097 -0.2286  0.3266  0.4515
  124MOL0     C16611   9.418   8.057   1.038  0.4153  0.3946 -0.5114
  124MOL0     C16612   9.355   7.974   0.941  0.8245  0.4320 -0.1496
  124MOL0     O16613   9.427   7.880   0.877 -0.3502  0.0437 -0.0002
  124MOL0     C16614   9.485   7.905   0.747 -0.3805 -0.5220  1.0935
  124MOL0     C16615   9.526   8.052   0.730  0.2093 -0.4281 -0.5516
  124MOL0     C16616   9.561   8.078   0.588  0.6279  0.6883  0.9049
  124MOL0     C16617   9.632   8.206   0.545  0.2454  0.4168  1.1340
  124MOL0     C16618   9.594   8.246   0.396 -0.8709 -0.2426  0.2351
  124MOL0     C16619   9.636   8.144   0.294 -0.3479  0.3012  0.1830
  124MOL0     C16620   9.792   8.118   0.297 -0.6461 -0.2145 -0.2437
  124MOL0     C16621   9.828   8.033   0.172  0.3992  0.1003  0.5223
  124MOL0     N16622   9.962   7.978   0.179 -0.0877 -0.0721  0.5292
  124MOL0     C16623   9.994   7.862   0.243  0.2410  0.2860 -0.5069
  124MOL0     C16624  10.096   7.807   0.182  0.1129  0.0404 -0.6015
  124MOL0     C16625  10.147   7.675   0.224  0.1945  0.8031  0.4656
  124MOL0     C16626  10.054   7.567   0.169  0.6729  0.7939  0.3837
  124MOL0     C16627  10.105   7.421   0.182 -0.0611  0.6540 -0.2252
  124MOL0     C16628  10.012   7.310   0.114  0.4067 -0.2935  0.9498
  124MOL0     O16629  10.069   7.176   0.114 -0.5115 -0.2418 -0.2926
  124MOL0     C16630  10.015   7.089   0.025  0.1857  1.3152  0.6350
  124MOL0     C16631   9.903   7.018   0.069  0.2138  0.3405  0.0412
  124MOL0     C16632   9.819   6.948  -0.029  0.3961 -0.3956 -0.1476
  124MOL0     C16633   9.694   6.880   0.024 -0.6339  0.4633  0.0805
  124MOL0     C16634   9.861   6.946  -0.167  0.1891 -0.0820  0.1887
  124MOL0     C16635   9.784   6.893  -0.275  0.3977  0.5532  0.5818
  124MOL0     O16636   9.808   6.956  -0.397  0.1297 -0.8122 -0.6659
  124MOL0     C16637   9.713   6.941  -0.499 -0.2914 -0.5095  1.2506
  124MOL0     C16638   9.586   6.989  -0.494 -0.6611 -1.3439  0.4560
  124MOL0     C16639   9.514   6.972  -0.600 -0.0813 -0.5366  0.5147
  124MOL0     C16640   9.549   6.886  -0.711  1.0344 -0.6726 -0.2109
  124MOL0     O16641   9.452   6.882  -0.812  0.9865  0.5140  0.3340
  124MOL0     C16642   9.454   6.759  -0.889 -0.2652  0.5347 -0.1317
  124MOL0     C16643   9.328   6.746  -0.966  0.4966 -0.5687 -0.1081
  124MOL0     C16644   9.338   6.614  -1.042  0.5419 -0.6007 -0.5928
  124MOL0     C16645   9.216   6.585  -1.130 -0.4884  0.7564 -0.4275
  124MOL0     C16646   9.217   6.454  -1.204 -0.1425  1.3110  0.2095
  124MOL0     C16647   9.088   6.380  -1.249  0.2671  0.8134  0.5933
  124MOL0     C16648   9.113   6.252  -1.317 -1.0579 -0.3133  0.6849
  124MOL0     C16649   8.998   6.187  -1.381  0.1333 -0.1505  0.1639
  124MOL0    Cl16650   8.880   6.123  -1.257  0.2762  0.4651 -0.0402
  124MOL0     C16651   9.682   6.837  -0.714  0.7049  0.2041 -0.0625
  124MOL0     C16652   9.763   6.873  -0.608  0.8208 -0.6412  0.9478
  124MOL0     O16653   9.719   6.794  -0.261  0.1945 -0.1833 -0.0235
  124MOL0     C16654   9.990   7.004  -0.203 -0.0218  0.3774  0.1597
  124MOL0     C16655  10.059   7.089  -0.107  0.6335  0.2323  0.1624
  124MOL0     N16656  10.142   7.892   0.088 -0.5789  0.3093 -0.4898
  124MOL0     N16657  10.059   7.999   0.080  0.4095 -0.1241  0.4398
  124MOL0     C16658   9.213   7.996   0.914 -1.0479 -0.2586 -0.0510
  124MOL0     C16659   9.138   8.080   0.989 -0.4997 -0.7454 -0.4753
  124MOL0     C16660   8.976   8.301   1.338 -0.6424  0.4049 -0.1600
  124MOL0     C16661   8.983   8.437   1.299  0.0348  0.1410  0.2731
  124MOL0     C16662   8.916   8.536   1.366 -0.5405 -1.1021  0.2958
  124MOL0     C16663   8.836   8.502   1.472 -0.8823  0.2182  0.1472
  124MOL0     O16664   8.759   8.603   1.530 -0.4398  0.3798  1.0356
  124MOL0     C16665   8.666   8.588   1.634  0.0860  0.6032  0.8900
  124MOL0     C16666   8.574   8.708   1.646  0.6477 -0.4691  0.2532
  124MOL0     C16667   8.482   8.725   1.523  0.5898  0.2530 -0.0510
  124MOL0     C16668   8.351   8.654   1.502  0.4678 -0.5387  0.0587
  124MOL0     C16669   8.261   8.679   1.616  0.3312 -0.4898 -0.2349
  124MOL0     C16670   8.195   8.719   1.706 -0.0761 -0.1353 -1.0622
  124MOL0     C16671   8.843   8.373   1.521  0.4303 -0.3340  0.0321
  124MOL0     C16672   8.897   8.270   1.454  0.0901  1.0346  0.8203
  124MOL0     H16673   9.394   8.210   1.173  1.1394  0.8848 -0.8531
  124MOL0     H16674   9.522   8.047   1.068  0.0392 -2.9178  0.0161
  124MOL0     H16675   9.566   7.832   0.737 -2.4042 -2.6717 -0.6886
  124MOL0     H16676   9.410   7.882   0.671  0.0077 -1.2193  0.9141
  124MOL0     H16677   9.454   8.126   0.766  0.1617 -0.0656 -1.3785
  124MOL0     H16678   9.617   8.066   0.789 -2.4644 -0.3908  4.0482
  124MOL0     H16679   9.616   7.990   0.551  1.3702  2.7762 -3.6549
  124MOL0     H16680   9.469   8.063   0.532  1.1050 -3.2080  0.8191
  124MOL0     H16681   9.597   8.287   0.610 -2.7450 -2.7093  3.8053
  124MOL0     H16682   9.740   8.205   0.531 -0.0334 -1.2419 -1.5050
  124MOL0     H16683   9.487   8.260   0.383 -1.2210 -2.3109  0.4075
  124MOL0     H16684   9.657   8.333   0.379  2.3922 -3.0196 -3.7578
  124MOL0     H16685   9.586   8.047   0.288  0.4256 -0.0266 -1.7498
  124MOL0     H16686   9.610   8.187   0.196  1.2549  2.3006  0.5580
  124MOL0     H16687   9.852   8.209   0.294  0.5820 -1.0356 -2.2096
  124MOL0     H16688   9.817   8.059   0.386 -0.0414  1.8980  1.0578
  124MOL0     H16689   9.823   8.088   0.077  2.2692 -1.4700 -0.5452
  124MOL0     H16690   9.766   7.943   0.168 -1.2620  0.9437  3.7981
  124MOL0     H16691   9.940   7.816   0.325 -0.1304  1.1443 -0.2692
  124MOL0     H16692  10.247   7.662   0.183 -0.0252 -2.7691  0.7136
  124MOL0     H16693  10.152   7.665   0.333 -2.0718  4.8244  1.1466
  124MOL0     H16694  10.036   7.593   0.064 -0.0097  0.9482  0.5380
  124MOL0     H16695   9.954   7.567   0.212  0.6039 -0.8427  0.2970
  124MOL0     H16696  10.124   7.394   0.286  0.2163  0.7725 -0.2431
  124MOL0     H16697  10.198   7.407   0.125  0.6895  0.4425  1.0116
  124MOL0     H16698   9.981   7.344   0.015  0.1259  1.5097  1.6241
  124MOL0     H16699   9.920   7.321   0.172 -2.6042 -1.0322 -3.1903
  124MOL0     H16700   9.883   7.008   0.175  0.0394 -1.8121 -0.1535
  124MOL0     H16701   9.662   6.931   0.115  1.1276  2.8220 -0.5278
  124MOL0     H16702   9.606   6.893  -0.040  0.4102  1.6533 -1.1565
  124MOL0     H16703   9.713   6.776   0.054  0.9801  0.8850  0.5796
  124MOL0     H16704   9.570   7.051  -0.407  0.4450  0.0321 -0.2702
  124MOL0     H16705   9.417   7.020  -0.601  1.6060  3.4678 -3.5180
  124MOL0     H16706   9.541   6.750  -0.955  0.2839  0.7531  0.5543
  124MOL0     H16707   9.449   6.679  -0.815 -2.7747  1.9246  1.3317
  124MOL0     H16708   9.247   6.745  -0.893  2.0360 -2.3583  1.6789
  124MOL0     H16709   9.326   6.832  -1.034 -0.9539 -0.8898 -0.5033
  124MOL0     H16710   9.344   6.536  -0.965  0.8009  1.1752  1.2528
  124MOL0     H16711   9.430   6.600  -1.099  0.1073 -4.2823 -0.6338
  124MOL0     H16712   9.134   6.580  -1.058  0.7172 -1.9106  0.9080
  124MOL0     H16713   9.199   6.667  -1.200 -2.9136  0.3693 -0.3981
  124MOL0     H16714   9.272   6.390  -1.134 -2.5147  1.6189  2.4973
  124MOL0     H16715   9.278   6.476  -1.292 -3.1075  0.0998 -2.3150
  124MOL0     H16716   9.026   6.362  -1.161  0.7366 -0.6274  0.6546
  124MOL0     H16717   9.025   6.445  -1.311 -0.8636  0.9439  1.8226
  124MOL0     H16718   9.157   6.183  -1.244  1.6780  1.9306  1.3528
  124MOL0     H16719   9.191   6.276  -1.390 -2.4103  2.7281  0.0725
  124MOL0     H16720   9.029   6.103  -1.444 -2.7144 -1.2448  0.1071
  124MOL0     H16721   8.938   6.250  -1.447 -0.1939 -2.4212 -1.8626
  124MOL0     H16722   9.718   6.779  -0.799 -0.0264 -1.7326  0.8858
  124MOL0     H16723   9.867   6.844  -0.600  1.1331 -0.3404 -1.3867
  124MOL0     H16724  10.026   7.004  -0.305 -4.2290 -1.0184 -1.5318
  124MOL0     H16725  10.139   7.149  -0.149  1.1689 -2.0016 -2.3281
  124MOL0     H16726   9.161   7.924   0.851  1.9640 -2.1609 -0.5488
  124MOL0     H16727   9.031   8.085   0.973 -0.2518  0.1807 -2.0167
  124MOL0     H16728   9.041   8.463   1.211 -2.3313  0.3600 -1.3100
  124MOL0     H16729   8.920   8.636   1.324 -3.0004 -1.6767 -1.5596
  124MOL0     H16730   8.605   8.498   1.624 -3.2162  2.7102  0.5566
  124MOL0     H16731   8.727   8.569   1.723 -1.0856 -2.3596  1.1761
  124MOL0     H16732   8.641   8.795   1.644 -1.4941  1.2358 -0.7568
  124MOL0     H16733   8.520   8.711   1.741 -0.6361  0.1055 -0.4789
  124MOL0     H16734   8.547   8.710   1.436 -0.5520  0.8364 -1.0359
  124MOL0     H16735   8.454   8.830   1.520 -2.0111 -0.3038  1.3200
  124MOL0     H16736   8.355   8.545   1.493 -2.3925 -0.8543  1.3996
  124MOL0     H16737   8.313   8.675   1.402 -0.5750 -0.0009  0.5513
  124MOL0     H16738   8.140   8.750   1.793 -1.0852  1.6334 -2.2872
  124MOL0     H16739   8.798   8.338   1.614 -1.7537 -1.7612 -1.4769
  124MOL0     H16740   8.893   8.173   1.503  0.8145 -0.6368 -2.1608
  125MOL0     O16741  10.624   8.131  10.399  0.2239 -0.5645  0.2804
  125MOL0     C16742  10.637   8.120  10.521 -1.1263 -0.1459  0.3669
  125MOL0     O16743  10.551   8.054  10.608  0.4972 -0.4165  0.8285
  125MOL0     C16744  10.424   8.025  10.563  0.4120  0.3297 -0.3840
  125MOL0     C16745  10.367   7.901  10.588 -0.3875  0.4904  0.9564
  125MOL0     C16746  10.241   7.858  10.540  0.0177 -1.1695  0.1356
  125MOL0     C16747  10.162   7.957  10.472 -0.3522 -1.0221  0.3447
  125MOL0     O16748  10.032   7.938  10.444  0.0580 -0.6511  0.1267
  125MOL0     C16749   9.979   7.825  10.517  0.0545  0.3717  0.3530
  125MOL0     C16750   9.833   7.831  10.489 -0.9991 -0.1493  0.5970
  125MOL0     C16751   9.803   7.880  10.339 -0.9539  0.2968 -0.6586
  125MOL0     C16752   9.657   7.837  10.300 -0.2945  0.9031  0.8937
  125MOL0     C16753   9.630   7.907  10.168 -0.3591  0.1354 -0.0245
  125MOL0     C16754   9.495   7.884  10.118 -0.1959  0.1453 -0.3870
  125MOL0     C16755   9.473   7.905   9.968  0.3799 -0.2405  0.0179
  125MOL0     C16756   9.330   7.893   9.922 -0.3293 -0.3988 -0.0279
  125MOL0     N16757   9.242   7.968  10.005  0.0883  0.8153 -0.1287
  125MOL0     C16758   9.226   8.104  10.011  0.6134 -0.5273 -0.7654
  125MOL0     C16759   9.129   8.124  10.107  0.2256 -0.3900 -0.4932
  125MOL0     C16760   9.064   8.265  10.135  0.5613 -0.5675  0.2899
  125MOL0     C16761   9.148   8.337  10.241 -0.3091 -0.0157 -0.6875
  125MOL0     C16762   9.288   8.388  10.184 -0.2381 -1.0768 -0.7281
  125MOL0     C16763   9.288   8.546  10.210  0.4035 -0.4349  0.4835
  125MOL0     O16764   9.286   8.589  10.347 -0.1640  0.2485 -0.7899
  125MOL0     C16765   9.405   8.599  10.416  0.3106 -0.7444  1.2572
  125MOL0     C16766   9.526   8.547  10.373 -0.4581  0.1466  0.2375
  125MOL0     C16767   9.650   8.570  10.449  0.8943  0.2325  0.1754
  125MOL0     C16768   9.774   8.513  10.404  0.0571  0.4342 -0.3957
  125MOL0     C16769   9.637   8.647  10.573 -0.2699  0.4114  0.6591
  125MOL0     C16770   9.757   8.684  10.661 -0.3552 -0.2758  0.0433
  125MOL0     O16771   9.731   8.684  10.793  0.1465 -0.1983 -0.6144
  125MOL0     C16772   9.848   8.688  10.872 -1.4303 -0.2031 -0.1160
  125MOL0     C16773   9.934   8.571  10.868 -0.7896 -1.5039  0.4153
  125MOL0     C16774  10.057   8.569  10.944  0.0554  0.1811 -0.1433
  125MOL0     C16775  10.090   8.682  11.023  0.3595 -1.0337  0.1695
  125MOL0     O16776  10.200   8.691  11.103  0.2789  0.3259  0.7669
  125MOL0     C16777  10.259   8.567  11.146 -0.1857 -0.7157  0.9448
  125MOL0     C16778  10.344   8.594  11.265  0.2791  0.4599 -0.3186
  125MOL0     C16779  10.399   8.473  11.340 -0.6861  0.0027 -0.1009
  125MOL0     C16780  10.530   8.428  11.272 -0.7707  0.1736  0.7796
  125MOL0     C16781  10.610   8.316  11.333  0.7711  0.3810 -0.2741
  125MOL0     C16782  10.535   8.182  11.370 -1.0493  0.2902 -0.3550
  125MOL0     C16783  10.448   8.116  11.260 -0.3940  0.6271  0.2320
  125MOL0     C16784  10.347   8.015  11.315  0.1954 -0.8495  0.6956
  125MOL0    Cl16785  10.441   7.861  11.359  0.3570  0.4508 -0.0511
  125MOL0     C16786  10.006   8.798  11.016 -0.7629 -0.8921 -0.1514
  125MOL0     C16787   9.888   8.805  10.935 -0.2024  0.6307  0.5282
  125MOL0     O16788   9.864   8.707  10.607  0.3298  0.1396 -0.5395
  125MOL0     C16789   9.512   8.691  10.606 -0.1247 -0.4636 -0.6859
  125MOL0     C16790   9.396   8.679  10.535 -0.3701 -0.0921  0.6346
  125MOL0     N16791   9.104   8.005  10.167 -0.8604  0.3418 -0.9111
  125MOL0     N16792   9.164   7.904  10.101 -0.6436 -0.5649  0.2560
  125MOL0     C16793  10.215   8.085  10.450 -0.8054 -0.4331  0.0421
  125MOL0     C16794  10.344   8.113  10.493 -0.3512  0.1807 -0.2060
  125MOL0     C16795  10.772   8.137  10.578  0.9423 -0.0411  0.3667
  125MOL0     C16796  10.861   8.234  10.530 -0.9649 -0.9151 -0.5627
  125MOL0     C16797  10.998   8.246  10.560  0.8171 -0.2883  0.2745
  125MOL0     C16798  11.044   8.160  10.658  0.5442  0.2329  0.7288
  125MOL0     O16799  11.177   8.160  10.695 -0.0395 -0.4066 -0.4370
  125MOL0     C16800  11.202   8.137  10.830  0.5182  0.4810 -0.4109
  125MOL0     C16801  11.339   8.197  10.885  0.4593 -0.0638 -0.7488
  125MOL0     C16802  11.338   8.356  10.871  0.2608  0.7496 -0.0177
  125MOL0     C16803  11.488   8.402  10.887  0.4677  0.1212 -0.0092
  125MOL0     C16804  11.483   8.545  10.882  0.6143 -0.9400  0.6568
  125MOL0     C16805  11.468   8.673  10.883  1.1859 -0.4048  0.5590
  125MOL0     C16806  10.953   8.071  10.717 -0.6920 -0.2515  0.4679
  125MOL0     C16807  10.830   8.051  10.670  0.1935  0.5177 -0.2812
  125MOL0     H16808  10.425   7.823  10.636 -3.0519 -2.7045 -0.6158
  125MOL0     H16809  10.211   7.759  10.572  1.1602 -1.3349  0.7274
  125MOL0     H16810  10.027   7.738  10.471  1.1894  1.6527 -1.0077
  125MOL0     H16811   9.998   7.821  10.625  2.1548 -2.5095  0.0198
  125MOL0     H16812   9.792   7.729  10.499  0.2870 -0.6091  1.3753
  125MOL0     H16813   9.785   7.893  10.565 -1.9618 -1.8128  1.4207
  125MOL0     H16814   9.831   7.985  10.326 -0.5200  0.1297 -1.0726
  125MOL0     H16815   9.874   7.827  10.276  0.0484  0.5772  0.2205
  125MOL0     H16816   9.647   7.729  10.283  2.3739  0.6220  0.5970
  125MOL0     H16817   9.588   7.872  10.377 -0.2040 -0.6033  1.6903
  125MOL0     H16818   9.639   8.016  10.164 -3.3907  0.4190 -2.0340
  125MOL0     H16819   9.706   7.875  10.095 -0.2144 -3.2436  1.4432
  125MOL0     H16820   9.470   7.779  10.138  0.5525  0.1824  0.8360
  125MOL0     H16821   9.425   7.946  10.174 -2.2678 -1.3214 -1.1982
  125MOL0     H16822   9.501   8.009   9.946  1.5089 -0.9743 -2.2575
  125MOL0     H16823   9.540   7.840   9.912  1.0524 -3.5904  4.2084
  125MOL0     H16824   9.293   7.791   9.914 -3.0929  0.4489  0.7147
  125MOL0     H16825   9.324   7.938   9.822 -1.9783 -3.3989 -1.3993
  125MOL0     H16826   9.263   8.183   9.947 -0.6332  1.4336  0.7984
  125MOL0     H16827   9.063   8.329  10.046 -0.8674  0.1380  0.7802
  125MOL0     H16828   8.960   8.245  10.160  0.5831 -1.4761 -0.3050
  125MOL0     H16829   9.176   8.262  10.315 -1.6847 -0.3838 -0.5119
  125MOL0     H16830   9.072   8.408  10.277  1.1252  0.2671  2.0059
  125MOL0     H16831   9.307   8.364  10.079 -1.8638  2.7956 -2.1156
  125MOL0     H16832   9.363   8.353  10.255 -0.9818 -2.3686 -0.5561
  125MOL0     H16833   9.194   8.588  10.172 -1.4054 -2.8041  1.9908
  125MOL0     H16834   9.369   8.590  10.152 -0.0397 -1.0750 -0.6650
  125MOL0     H16835   9.536   8.480  10.288 -1.6071 -1.0236  0.9785
  125MOL0     H16836   9.823   8.579  10.331 -0.0598  0.8118 -0.1343
  125MOL0     H16837   9.845   8.505  10.488  1.2333  1.0825 -1.2906
  125MOL0     H16838   9.770   8.410  10.368  1.6007  0.0852  0.3231
  125MOL0     H16839   9.901   8.487  10.808 -2.8843 -2.0808  2.2097
  125MOL0     H16840  10.117   8.479  10.947  0.0216  0.1034 -1.2670
  125MOL0     H16841  10.174   8.502  11.167 -3.4513  2.9782  0.2229
  125MOL0     H16842  10.317   8.541  11.057 -0.2336  0.9693  0.3912
  125MOL0     H16843  10.435   8.647  11.236 -0.6339  1.6284 -1.1444
  125MOL0     H16844  10.287   8.645  11.343 -0.3596  1.3679 -1.3576
  125MOL0     H16845  10.319   8.398  11.335 -0.9721  0.2809  0.2213
  125MOL0     H16846  10.424   8.497  11.444 -1.8804  3.0979 -0.4040
  125MOL0     H16847  10.502   8.393  11.172 -3.0782  2.1900  0.6034
  125MOL0     H16848  10.601   8.509  11.253 -0.7776 -0.6468 -3.8617
  125MOL0     H16849  10.660   8.346  11.425  3.1342 -2.2007 -0.5573
  125MOL0     H16850  10.688   8.289  11.261  1.0202 -0.4352  0.2856
  125MOL0     H16851  10.616   8.118  11.404 -2.1083 -0.0283  1.6885
  125MOL0     H16852  10.478   8.209  11.460  2.4814  4.9517  0.8889
  125MOL0     H16853  10.513   8.058  11.194 -1.1768 -0.2337  0.2046
  125MOL0     H16854  10.405   8.197  11.201  0.0261  0.0439 -0.8956
  125MOL0     H16855  10.279   7.992  11.232  1.2637  1.0013 -0.7872
  125MOL0     H16856  10.292   8.060  11.398 -0.8022 -0.4862 -0.1332
  125MOL0     H16857  10.030   8.893  11.062 -4.2058  0.6999 -1.3030
  125MOL0     H16858   9.842   8.901  10.913 -2.7517  0.1881  3.4334
  125MOL0     H16859   9.502   8.759  10.690 -2.6999 -0.4216 -0.9387
  125MOL0     H16860   9.306   8.733  10.562 -0.5661  0.2032 -0.5485
  125MOL0     H16861  10.158   8.163  10.399 -1.1906 -0.7429 -0.0016
  125MOL0     H16862  10.388   8.210  10.472  2.7714 -0.4849  2.4405
  125MOL0     H16863  10.818   8.313  10.470  1.1254  0.6355 -0.1377
  125MOL0     H16864  11.062   8.332  10.542 -0.2494  0.8897  1.8165
  125MOL0     H16865  11.122   8.190  10.884  0.8310  2.6732 -1.9537
  125MOL0     H16866  11.198   8.033  10.861 -2.2716  1.3246  2.6668
  125MOL0     H16867  11.424   8.152  10.833 -1.0642 -2.5182 -1.2558
  125MOL0     H16868  11.348   8.178  10.993  2.1398  1.2827 -0.6134
  125MOL0     H16869  11.275   8.408  10.944 -0.3139  0.7424 -0.4914
  125MOL0     H16870  11.317   8.384  10.767  0.8950  0.9379 -0.0956
  125MOL0     H16871  11.550   8.365  10.805 -2.0141 -2.7288 -0.7494
  125MOL0     H16872  11.516   8.370  10.988 -3.2067 -0.0932  1.0902
  125MOL0     H16873  11.457   8.777  10.861 -0.6583 -0.6714  0.0492
  125MOL0     H16874  10.983   8.004  10.797 -1.8203  0.7476  1.7896
  125MOL0     H16875  10.783   7.973  10.730  0.3927  1.2412  0.8495
  126MOL0     O16876   6.587   5.316   7.352 -0.0498  0.6915  0.3494
  126MOL0     C16877   6.563   5.195   7.376 -0.1194  0.4405  0.8470
  126MOL0     O16878   6.454   5.146   7.447 -0.0572 -0.4001  0.2923
  126MOL0     C16879   6.371   5.241   7.502 -0.1086 -0.3799 -0.2680
  126MOL0     C16880   6.421   5.322   7.604 -1.3019 -0.3549  0.5220
  126MOL0     C16881   6.332   5.411   7.675  0.4403  0.1612 -0.4139
  126MOL0     C16882   6.194   5.398   7.661  0.2566 -0.1183 -0.3823
  126MOL0     O16883   6.109   5.460   7.749 -0.4360 -0.7642 -0.1622
  126MOL0     C16884   5.966   5.480   7.715  0.3180  0.0059  0.7471
  126MOL0     C16885   5.890   5.378   7.814 -0.0984 -0.1769  0.4332
  126MOL0     C16886   5.908   5.419   7.962  0.1234 -0.3713  0.5397
  126MOL0     C16887   5.797   5.359   8.057 -0.3903 -0.5306  0.6087
  126MOL0     C16888   5.829   5.213   8.087 -0.1781 -0.5975 -0.0724
  126MOL0     C16889   5.707   5.131   8.148 -0.8338 -0.8461  0.6639
  126MOL0     C16890   5.597   5.101   8.042 -0.1402 -0.5156  0.0630
  126MOL0     C16891   5.498   5.012   8.121  1.0852  0.2411 -0.1869
  126MOL0     N16892   5.372   4.979   8.055  0.1671 -0.7218  0.5463
  126MOL0     C16893   5.269   5.062   8.020  0.3268 -0.2929 -0.2092
  126MOL0     C16894   5.199   4.991   7.931  0.4355  0.0484  0.1221
  126MOL0     C16895   5.084   5.046   7.857 -0.2116  0.1510 -0.2615
  126MOL0     C16896   5.124   5.042   7.707 -0.4330 -0.0244 -0.5288
  126MOL0     C16897   5.008   5.095   7.627 -0.0405 -0.0227  0.8914
  126MOL0     C16898   5.029   5.119   7.480  0.2060  0.0028  0.3674
  126MOL0     O16899   5.115   5.231   7.472  0.0936 -0.2409 -0.0217
  126MOL0     C16900   5.174   5.278   7.360  0.5914  0.0335  0.6011
  126MOL0     C16901   5.257   5.391   7.365  0.4615 -0.3566  0.5763
  126MOL0     C16902   5.316   5.455   7.248  0.1800 -0.7231  0.3263
  126MOL0     C16903   5.392   5.581   7.273 -0.1879  0.0557 -0.6759
  126MOL0     C16904   5.295   5.396   7.126 -0.2699  0.5629  0.8153
  126MOL0     C16905   5.346   5.445   6.997  0.5199  0.5385  0.1733
  126MOL0     O16906   5.345   5.358   6.890 -0.3635  0.4370 -0.0585
  126MOL0     C16907   5.386   5.396   6.766 -0.4722 -0.7247  0.0395
  126MOL0     C16908   5.468   5.312   6.695 -0.5409 -0.3985  1.2920
  126MOL0     C16909   5.491   5.340   6.560  1.1913 -0.4539 -0.8299
  126MOL0     C16910   5.437   5.460   6.502  0.3322  0.1562 -0.3006
  126MOL0     O16911   5.430   5.482   6.366  0.2561  0.1144  0.7936
  126MOL0     C16912   5.524   5.405   6.289 -0.4007  0.5322 -0.6430
  126MOL0     C16913   5.521   5.432   6.136  0.1639 -0.4594 -0.5517
  126MOL0     C16914   5.515   5.585   6.096  0.0157  0.7021 -0.0387
  126MOL0     C16915   5.496   5.589   5.951 -0.6959  0.9654 -0.2824
  126MOL0     C16916   5.527   5.728   5.891 -0.1334 -0.2349 -0.1006
  126MOL0     C16917   5.412   5.830   5.921  0.2257  0.0931 -0.0159
  126MOL0     C16918   5.331   5.860   5.792 -0.1369  0.0614 -0.1148
  126MOL0     C16919   5.207   5.783   5.766 -1.1424  0.9118  0.0212
  126MOL0    Cl16920   5.133   5.845   5.620  0.5618 -0.2722 -0.1502
  126MOL0     C16921   5.355   5.547   6.574  1.2599 -0.3672  0.6769
  126MOL0     C16922   5.337   5.513   6.713  0.4270 -1.0977 -0.0525
  126MOL0     O16923   5.381   5.561   6.993 -0.9480 -0.2581  0.3047
  126MOL0     C16924   5.206   5.278   7.122  0.6813  0.4235  0.0806
  126MOL0     C16925   5.148   5.222   7.230  0.4450  0.3513 -0.5241
  126MOL0     N16926   5.264   4.866   7.920  1.5699  0.3766 -0.7518
  126MOL0     N16927   5.362   4.863   7.990  0.6442 -0.5661 -0.9259
  126MOL0     C16928   6.144   5.307   7.570 -0.2330 -0.9816 -0.8592
  126MOL0     C16929   6.235   5.222   7.493 -0.0743 -0.2191 -0.5415
  126MOL0     C16930   6.655   5.099   7.322 -0.0516  0.2495 -0.1323
  126MOL0     C16931   6.634   4.957   7.342 -0.2576  0.0238  0.6064
  126MOL0     C16932   6.727   4.869   7.276 -0.2648 -0.2562  0.4394
  126MOL0     C16933   6.826   4.908   7.187 -0.3269  0.1409 -0.0847
  126MOL0     O16934   6.911   4.822   7.124 -0.2739 -0.5853  0.0729
  126MOL0     C16935   6.972   4.847   6.992  0.3680 -0.5595  0.0583
  126MOL0     C16936   7.028   4.716   6.932  0.6620  0.7016  0.6621
  126MOL0     C16937   7.140   4.659   7.023 -0.1105  0.3450 -0.1148
  126MOL0     C16938   7.259   4.622   6.934 -0.1166  0.3702  1.1134
  126MOL0     C16939   7.368   4.554   7.015 -0.2440 -0.8461 -0.1346
  126MOL0     C16940   7.431   4.482   7.086 -0.8924 -0.2682  0.0486
  126MOL0     C16941   6.842   5.047   7.175 -0.5161  0.1886  1.0194
  126MOL0     C16942   6.761   5.136   7.239 -0.9977 -1.3244  0.4795
  126MOL0     H16943   6.529   5.326   7.615 -1.2287 -3.1854  1.6005
  126MOL0     H16944   6.371   5.471   7.757 -1.3042 -1.0913  1.4137
  126MOL0     H16945   5.928   5.581   7.732  0.3969  0.4754 -1.5795
  126MOL0     H16946   5.941   5.473   7.609 -3.5338  0.3499  1.4957
  126MOL0     H16947   5.783   5.373   7.791 -0.1294 -0.3516  0.6111
  126MOL0     H16948   5.937   5.280   7.800 -0.0514 -0.0123 -0.6500
  126MOL0     H16949   6.006   5.386   7.997 -0.6252 -3.0990  0.3337
  126MOL0     H16950   5.895   5.527   7.971  0.1501 -0.4431  1.5748
  126MOL0     H16951   5.802   5.426   8.143  1.9176 -1.4833  1.2935
  126MOL0     H16952   5.699   5.373   8.012  0.3358 -0.3645 -0.9974
  126MOL0     H16953   5.846   5.152   7.998 -3.1918 -0.2052 -1.0174
  126MOL0     H16954   5.925   5.213   8.139  1.0526  0.9905 -2.1840
  126MOL0     H16955   5.745   5.035   8.185  2.0999 -0.2304 -0.5542
  126MOL0     H16956   5.661   5.186   8.230 -1.1950 -0.5097  0.2430
  126MOL0     H16957   5.543   5.192   8.014  4.0147  1.3595 -2.9619
  126MOL0     H16958   5.640   5.064   7.948  4.4818  0.0363  1.7001
  126MOL0     H16959   5.488   5.058   8.220  1.2629  1.7152 -0.8264
  126MOL0     H16960   5.555   4.919   8.137  1.2718 -0.2062 -2.9054
  126MOL0     H16961   5.260   5.169   8.040  0.6650 -0.4192  0.6729
  126MOL0     H16962   4.995   4.985   7.878 -1.3455  1.7941 -0.0741
  126MOL0     H16963   5.065   5.148   7.891 -0.5974  0.0385 -0.1228
  126MOL0     H16964   5.152   4.939   7.687  2.4250  0.7276 -0.8851
  126MOL0     H16965   5.207   5.110   7.685 -0.1883  0.2054  1.0184
  126MOL0     H16966   4.967   5.187   7.668 -0.0887  0.3673 -0.0015
  126MOL0     H16967   4.929   5.020   7.634  0.1578 -0.1966  1.2971
  126MOL0     H16968   4.930   5.143   7.439  1.3339  2.5334 -1.0874
  126MOL0     H16969   5.065   5.037   7.418  3.0400  1.6317 -0.2985
  126MOL0     H16970   5.269   5.445   7.458  0.4062 -0.4226  0.6223
  126MOL0     H16971   5.348   5.664   7.217 -0.2893  0.4290 -0.0523
  126MOL0     H16972   5.417   5.606   7.377  1.7991  0.9981 -1.3088
  126MOL0     H16973   5.489   5.563   7.224 -0.6090  1.8562 -2.3221
  126MOL0     H16974   5.476   5.211   6.733 -1.9945 -0.5478  1.2797
  126MOL0     H16975   5.547   5.266   6.505  3.5464  0.4172  0.2430
  126MOL0     H16976   5.619   5.436   6.332 -0.8659  1.1228 -0.0264
  126MOL0     H16977   5.505   5.298   6.305  1.5808  0.6348  3.5134
  126MOL0     H16978   5.609   5.393   6.084 -0.7815  0.0988 -2.6895
  126MOL0     H16979   5.439   5.371   6.096  0.7404 -1.5509 -0.1059
  126MOL0     H16980   5.610   5.630   6.127  0.4707 -0.5700  0.4449
  126MOL0     H16981   5.423   5.627   6.137 -0.0325  0.1803  0.3912
  126MOL0     H16982   5.556   5.507   5.911 -4.0887 -0.7885 -2.2715
  126MOL0     H16983   5.396   5.563   5.915 -0.1902  2.3662 -2.9094
  126MOL0     H16984   5.537   5.704   5.784 -1.8691  0.1978 -0.3963
  126MOL0     H16985   5.622   5.771   5.923 -1.6069  2.0704  1.5145
  126MOL0     H16986   5.342   5.798   5.999  0.8278 -0.3802  0.3469
  126MOL0     H16987   5.472   5.915   5.956  4.8042 -1.3508 -3.3831
  126MOL0     H16988   5.408   5.852   5.714  2.3000 -0.2910  2.1467
  126MOL0     H16989   5.295   5.963   5.794  1.7256  0.7485  1.4968
  126MOL0     H16990   5.150   5.776   5.860 -0.4194 -1.5533  0.3386
  126MOL0     H16991   5.240   5.684   5.734 -1.2998  0.6444  0.6602
  126MOL0     H16992   5.299   5.627   6.527 -0.9649 -2.3437 -0.2611
  126MOL0     H16993   5.276   5.589   6.761  2.2756  0.9749 -0.8068
  126MOL0     H16994   5.189   5.233   7.024  3.7703  0.4814 -0.5980
  126MOL0     H16995   5.066   5.151   7.222  1.6881 -0.9809 -1.9737
  126MOL0     H16996   6.037   5.310   7.551 -0.5093  0.2819  0.6384
  126MOL0     H16997   6.187   5.155   7.423 -0.0403 -1.8104  0.8727
  126MOL0     H16998   6.552   4.905   7.391 -0.0668 -0.8343  0.0292
  126MOL0     H16999   6.713   4.761   7.286 -1.4124 -0.2646 -0.9270
  126MOL0     H17000   6.899   4.896   6.928 -0.3540 -0.8189  0.6690
  126MOL0     H17001   7.053   4.921   7.003  0.8125 -0.6041 -2.4504
  126MOL0     H17002   7.059   4.735   6.828  0.2014  2.2996  0.7930
  126MOL0     H17003   6.956   4.635   6.921  1.5364  0.2142 -2.8591
  126MOL0     H17004   7.095   4.573   7.073  1.3306  0.4004  1.3824
  126MOL0     H17005   7.180   4.725   7.101  5.0460 -0.6641 -1.4753
  126MOL0     H17006   7.295   4.719   6.898  1.0358  0.1395  1.5935
  126MOL0     H17007   7.222   4.552   6.858 -3.3018  0.6016  2.2945
  126MOL0     H17008   7.480   4.418   7.156 -1.9710  0.2364  1.3018
  126MOL0     H17009   6.924   5.098   7.126 -1.2762  2.9043  2.3300
  126MOL0     H17010   6.796   5.237   7.223  3.6365 -2.9376 -1.6296
  127MOL0     O17011   7.361   8.022   5.285  1.2231  0.6927 -0.3100
  127MOL0     C17012   7.450   7.941   5.284 -0.8755 -0.0960  0.2687
  127MOL0     O17013   7.459   7.842   5.370  0.3978  0.4299 -0.4611
  127MOL0     C17014   7.347   7.794   5.445 -0.8691 -0.7845  0.5791
  127MOL0     C17015   7.215   7.812   5.412  0.4515  0.2133  0.1824
  127MOL0     C17016   7.100   7.766   5.489 -0.8228  0.4513  0.1986
  127MOL0     C17017   7.124   7.683   5.598  0.4798 -0.0348 -0.8348
  127MOL0     O17018   7.030   7.627   5.679  0.3816 -0.2561  0.5149
  127MOL0     C17019   6.890   7.670   5.659 -0.3447  0.1162 -0.1167
  127MOL0     C17020   6.853   7.812   5.723  0.3366 -0.5598  1.0875
  127MOL0     C17021   6.901   7.823   5.868  0.7050 -0.5169  0.2235
  127MOL0     C17022   6.839   7.939   5.939 -0.1073 -1.0504  0.2568
  127MOL0     C17023   6.890   7.949   6.084  0.3833 -0.7006  0.1628
  127MOL0     C17024   7.039   7.967   6.100  0.1769  0.6177 -0.1841
  127MOL0     C17025   7.070   8.010   6.249 -0.0844 -0.5282 -0.2088
  127MOL0     C17026   7.216   7.992   6.293 -0.4803 -0.7281  0.0401
  127MOL0     N17027   7.239   8.045   6.436 -0.0474 -0.6504  0.3746
  127MOL0     C17028   7.354   8.119   6.469  0.8453 -0.3652  0.5436
  127MOL0     C17029   7.335   8.151   6.602 -1.0029  0.4109  0.3755
  127MOL0     C17030   7.433   8.227   6.687  0.7089 -0.1297  0.4620
  127MOL0     C17031   7.401   8.382   6.672  0.3379 -0.0121 -0.0549
  127MOL0     C17032   7.462   8.462   6.788  0.4690  0.0314  0.3207
  127MOL0     C17033   7.463   8.607   6.767  0.2569 -0.9950 -0.7417
  127MOL0     O17034   7.535   8.638   6.650  0.3487 -0.9071 -0.0871
  127MOL0     C17035   7.568   8.776   6.634  0.5853 -0.4931 -0.0577
  127MOL0     C17036   7.493   8.888   6.690  0.1637  0.8866 -1.1039
  127MOL0     C17037   7.538   9.023   6.675  0.3954 -0.0505  0.2348
  127MOL0     C17038   7.459   9.128   6.726  0.1818  0.1955  0.7242
  127MOL0     C17039   7.655   9.044   6.594 -1.0201 -0.0124  0.5246
  127MOL0     C17040   7.712   9.182   6.591  0.8852 -1.0444  0.4724
  127MOL0     O17041   7.821   9.202   6.663 -0.1303 -0.6656  0.2798
  127MOL0     C17042   7.855   9.331   6.692 -0.0326 -0.2425  0.4195
  127MOL0     C17043   7.758   9.433   6.728 -0.6828 -0.2456 -0.0135
  127MOL0     C17044   7.796   9.561   6.766 -0.3576  0.2947 -0.4570
  127MOL0     C17045   7.935   9.582   6.774 -0.1353 -0.2618  0.6881
  127MOL0     O17046   7.976   9.710   6.804  0.3089 -0.0998 -0.2639
  127MOL0     C17047   7.891   9.813   6.847  0.7613  0.3726 -0.9585
  127MOL0     C17048   7.958   9.944   6.845 -0.4028  0.5350  0.0940
  127MOL0     C17049   7.984   9.995   6.701  0.3067 -0.8027 -0.5125
  127MOL0     C17050   8.067  10.124   6.711  0.1620 -0.6737  1.0903
  127MOL0     C17051   8.068  10.189   6.569  0.2748  0.8187  0.5232
  127MOL0     C17052   8.142  10.317   6.565 -0.4772  0.2661 -0.1724
  127MOL0     C17053   8.145  10.383   6.426 -0.4316  0.3030  0.0934
  127MOL0     C17054   8.252  10.329   6.333 -0.4400  0.0274 -0.8169
  127MOL0    Cl17055   8.417  10.355   6.395  0.4853 -0.1791  0.0243
  127MOL0     C17056   8.033   9.483   6.743  0.0038 -0.0213 -0.6264
  127MOL0     C17057   7.990   9.358   6.698 -0.5264 -0.5568 -0.8832
  127MOL0     O17058   7.653   9.261   6.517  0.2143 -0.7358 -0.2380
  127MOL0     C17059   7.737   8.939   6.558  0.7638  0.3163 -0.4224
  127MOL0     C17060   7.680   8.810   6.568  0.2731 -0.5018 -0.0643
  127MOL0     N17061   7.212   8.095   6.647  0.2236 -0.0831  0.2621
  127MOL0     N17062   7.154   8.040   6.543 -1.2538 -0.0694 -0.1672
  127MOL0     C17063   7.261   7.670   5.644  0.2602 -1.0612 -0.1722
  127MOL0     C17064   7.374   7.717   5.564  0.7282 -1.1452 -0.2359
  127MOL0     C17065   7.557   7.952   5.181  0.7346  0.1350  0.4116
  127MOL0     C17066   7.677   7.875   5.187  0.2053 -0.7840  0.7595
  127MOL0     C17067   7.763   7.882   5.079 -0.3005  0.2110  0.2341
  127MOL0     C17068   7.754   7.971   4.976 -1.3855 -0.1272 -0.2202
  127MOL0     O17069   7.866   7.966   4.889 -0.0008 -0.5010  0.3071
  127MOL0     C17070   7.874   8.070   4.783  0.9991  0.5032 -0.4169
  127MOL0     C17071   7.965   8.036   4.664  0.3817  0.9496  0.0949
  127MOL0     C17072   7.914   7.913   4.584  0.2432  0.4403  0.0523
  127MOL0     C17073   8.031   7.851   4.515  0.1129 -0.1008 -0.2128
  127MOL0     C17074   8.036   7.895   4.379 -0.2779  0.2684  0.0800
  127MOL0     C17075   8.034   7.944   4.270  0.0484 -0.1346 -0.6783
  127MOL0     C17076   7.643   8.053   4.981  0.5687 -0.5067  0.0631
  127MOL0     C17077   7.544   8.044   5.075 -0.1067  0.1556  0.5312
  127MOL0     H17078   7.188   7.861   5.319 -3.7310  0.2844  1.2548
  127MOL0     H17079   7.004   7.792   5.447 -0.5785  2.1668  0.6068
  127MOL0     H17080   6.854   7.671   5.556  0.7911 -2.0311 -0.5773
  127MOL0     H17081   6.827   7.602   5.716 -0.4784  0.4694  0.1654
  127MOL0     H17082   6.907   7.886   5.662  1.8126 -3.3466 -1.2914
  127MOL0     H17083   6.745   7.826   5.714  0.5727  0.5041 -0.5033
  127MOL0     H17084   6.859   7.730   5.909 -0.6792  0.1186  0.2977
  127MOL0     H17085   7.010   7.828   5.860  0.5515  1.7171 -1.3957
  127MOL0     H17086   6.865   8.035   5.894  0.5699 -1.1194  0.4946
  127MOL0     H17087   6.729   7.940   5.937 -0.0977 -0.6138 -0.2274
  127MOL0     H17088   6.835   8.029   6.134 -0.6585 -2.2482  1.6210
  127MOL0     H17089   6.854   7.859   6.134 -1.3184  1.1558  2.5509
  127MOL0     H17090   7.077   7.868   6.071 -1.3801 -0.1947  0.4313
  127MOL0     H17091   7.065   8.047   6.031 -2.7348  0.6143 -1.4108
  127MOL0     H17092   7.039   8.111   6.279  1.2335 -0.7282  2.0639
  127MOL0     H17093   7.007   7.942   6.308 -1.1190  0.2923 -0.3365
  127MOL0     H17094   7.283   8.048   6.227 -0.6436  1.7642  1.8132
  127MOL0     H17095   7.246   7.889   6.275  0.2878 -0.4411 -0.3875
  127MOL0     H17096   7.438   8.157   6.412  0.2973  1.4423  0.8870
  127MOL0     H17097   7.426   8.198   6.792 -1.4772  0.2024  0.4671
  127MOL0     H17098   7.533   8.200   6.653  1.6997  2.3037  1.1898
  127MOL0     H17099   7.293   8.389   6.691  0.5231  0.6509  0.8286
  127MOL0     H17100   7.426   8.417   6.572 -1.3916  1.3131 -0.0819
  127MOL0     H17101   7.560   8.415   6.799 -1.2566 -4.5227 -1.2505
  127MOL0     H17102   7.400   8.447   6.877  0.2434 -0.7392  0.0456
  127MOL0     H17103   7.508   8.659   6.851 -2.1739 -1.8099  1.2039
  127MOL0     H17104   7.359   8.640   6.758  1.4044  3.9376  1.1565
  127MOL0     H17105   7.403   8.876   6.749 -0.0559  2.1314 -1.1537
  127MOL0     H17106   7.443   9.202   6.647  1.4431  1.4312  1.5618
  127MOL0     H17107   7.367   9.090   6.772  0.5530  0.6294  1.8779
  127MOL0     H17108   7.521   9.172   6.805  2.7603  0.0981 -1.1172
  127MOL0     H17109   7.652   9.409   6.719 -1.0213  1.2498 -0.2697
  127MOL0     H17110   7.719   9.633   6.791 -0.3773 -0.0459  0.4850
  127MOL0     H17111   7.804   9.836   6.785  0.8696 -1.3656 -1.8287
  127MOL0     H17112   7.855   9.792   6.949  1.1387  0.2397 -0.8508
  127MOL0     H17113   7.898  10.021   6.896  1.2155  1.1641  1.1130
  127MOL0     H17114   8.058   9.927   6.885 -0.3711 -0.1321 -0.2623
  127MOL0     H17115   7.885  10.013   6.660 -0.7534 -1.9715  1.3848
  127MOL0     H17116   8.039   9.919   6.645  0.8619 -1.3205  0.6954
  127MOL0     H17117   8.016  10.205   6.764  0.8736 -0.7803  1.9590
  127MOL0     H17118   8.166  10.090   6.742  0.8730  1.1545  0.9258
  127MOL0     H17119   7.964  10.207   6.541  1.0427 -0.1128 -3.5158
  127MOL0     H17120   8.109  10.116   6.499 -1.8333  0.5374 -0.4918
  127MOL0     H17121   8.099  10.389   6.634  0.1356  1.3130 -0.8500
  127MOL0     H17122   8.242  10.284   6.594 -1.4360 -0.4435  2.6275
  127MOL0     H17123   8.166  10.489   6.442 -0.3439  0.3290 -0.1812
  127MOL0     H17124   8.044  10.384   6.386 -0.6416  1.6020  0.6124
  127MOL0     H17125   8.240  10.375   6.235 -0.9552  0.8662 -0.3731
  127MOL0     H17126   8.235  10.221   6.335 -0.0342 -0.0449  1.2332
  127MOL0     H17127   8.139   9.508   6.742  0.3620 -0.9740  2.5048
  127MOL0     H17128   8.066   9.283   6.678 -0.2136  0.3573 -3.4447
  127MOL0     H17129   7.826   8.957   6.499 -0.2000  2.1564 -1.3837
  127MOL0     H17130   7.733   8.729   6.519 -0.8013 -2.3245  1.6409
  127MOL0     H17131   7.301   7.612   5.727 -1.3814 -0.2870  1.2204
  127MOL0     H17132   7.477   7.697   5.592  0.0830  0.3352  3.8830
  127MOL0     H17133   7.696   7.798   5.262  2.4323 -2.0459 -0.9876
  127MOL0     H17134   7.843   7.809   5.078 -1.4241 -1.0981  1.5933
  127MOL0     H17135   7.782   8.095   4.731  0.9933  1.1632 -0.0987
  127MOL0     H17136   7.914   8.161   4.828 -0.2434 -0.7580  3.7801
  127MOL0     H17137   8.062   8.019   4.711  0.1717  0.1354  0.2505
  127MOL0     H17138   7.977   8.122   4.597 -3.7077  0.0245 -2.1894
  127MOL0     H17139   7.840   7.943   4.509  0.3382  1.8111  0.4691
  127MOL0     H17140   7.874   7.830   4.642  0.0122  0.4554 -0.0825
  127MOL0     H17141   8.028   7.742   4.517 -2.4685 -0.0840  0.9396
  127MOL0     H17142   8.128   7.871   4.561  1.4728 -1.1380 -2.4790
  127MOL0     H17143   8.040   7.978   4.169  0.0026 -0.1772 -0.6961
  127MOL0     H17144   7.639   8.143   4.919 -2.1420  0.6233  1.6793
  127MOL0     H17145   7.458   8.111   5.071 -0.0294  0.2977  1.2413
  128MOL0     O17146   4.160   8.326   0.163 -0.2832  0.0830 -0.3744
  128MOL0     C17147   4.071   8.276   0.227 -1.0813 -0.6810  0.4742
  128MOL0     O17148   3.970   8.347   0.294 -0.1007  0.5209 -0.1589
  128MOL0     C17149   3.980   8.484   0.287  0.0032  0.7535 -0.4586
  128MOL0     C17150   3.889   8.570   0.220 -0.4352  0.1300 -0.7879
  128MOL0     C17151   3.888   8.709   0.256  0.0396 -0.5445  0.9162
  128MOL0     C17152   3.974   8.764   0.344 -0.4185 -0.2468 -0.4872
  128MOL0     O17153   3.970   8.895   0.382 -0.0885 -0.2211 -0.1827
  128MOL0     C17154   4.024   8.970   0.274  0.1581 -0.1828 -0.0764
  128MOL0     C17155   4.067   9.112   0.306 -0.0244 -0.9369  0.2614
  128MOL0     C17156   4.035   9.212   0.193 -0.6332  0.3723  0.3988
  128MOL0     C17157   4.088   9.171   0.051  0.9104  0.1424  0.1058
  128MOL0     C17158   4.051   9.275  -0.058  0.5905 -0.6970  0.3931
  128MOL0     C17159   4.089   9.432  -0.038  0.4977  0.3127  0.7509
  128MOL0     C17160   4.241   9.451  -0.013 -0.1549 -0.1989  0.3584
  128MOL0     C17161   4.266   9.571   0.083  0.3797 -0.3864  0.9527
  128MOL0     N17162   4.196   9.692   0.025  0.0605  0.1772 -0.5192
  128MOL0     C17163   4.206   9.748  -0.105 -0.3087 -0.0564 -0.2237
  128MOL0     C17164   4.129   9.863  -0.101  0.9162  0.2675  0.0337
  128MOL0     C17165   4.093   9.961  -0.201 -0.1986  0.2547 -0.0213
  128MOL0     C17166   3.957   9.939  -0.271 -0.4473  0.2022  0.5387
  128MOL0     C17167   3.958   9.829  -0.371  1.1239 -0.1274  0.4574
  128MOL0     C17168   4.071   9.822  -0.481  0.3931  0.5275  0.8551
  128MOL0     O17169   4.040   9.751  -0.601  0.8632 -0.6525 -0.2045
  128MOL0     C17170   4.038   9.613  -0.578  0.2867  0.5680 -0.3660
  128MOL0     C17171   4.138   9.521  -0.538 -0.0545  0.9010 -0.9647
  128MOL0     C17172   4.126   9.382  -0.525 -0.2151 -0.7837  0.7552
  128MOL0     C17173   4.242   9.303  -0.481  0.1193  1.0712 -0.3022
  128MOL0     C17174   4.000   9.330  -0.549 -0.4292  0.4578  0.0641
  128MOL0     C17175   3.959   9.188  -0.532 -0.4245 -0.1442 -0.0972
  128MOL0     O17176   3.842   9.150  -0.602 -0.0894  0.4369 -0.0197
  128MOL0     C17177   3.819   9.013  -0.602 -1.2632  0.5054  0.2409
  128MOL0     C17178   3.835   8.944  -0.720 -0.6849  0.9063 -0.7108
  128MOL0     C17179   3.784   8.814  -0.734 -0.0909  0.3029  0.5634
  128MOL0     C17180   3.712   8.742  -0.632 -0.7352  0.4091  0.0777
  128MOL0     O17181   3.662   8.613  -0.658 -0.6053 -0.0727 -0.3459
  128MOL0     C17182   3.614   8.542  -0.548 -0.6083  0.8753  0.0293
  128MOL0     C17183   3.572   8.407  -0.602  0.0456  0.1677 -0.0404
  128MOL0     C17184   3.551   8.315  -0.477  0.3034 -0.0038 -0.5468
  128MOL0     C17185   3.488   8.178  -0.527 -0.6424  0.3657 -0.6424
  128MOL0     C17186   3.591   8.087  -0.606 -0.5579  0.6440 -0.8513
  128MOL0     C17187   3.521   7.949  -0.639 -0.3706  0.1647  0.7582
  128MOL0     C17188   3.513   7.854  -0.518  0.2801  0.0328 -0.7336
  128MOL0     C17189   3.378   7.773  -0.508  0.7692 -0.7683 -0.3733
  128MOL0    Cl17190   3.222   7.874  -0.520 -0.1550 -0.4543  0.2839
  128MOL0     C17191   3.690   8.817  -0.515  0.8151  0.0175 -0.2549
  128MOL0     C17192   3.739   8.949  -0.506  0.3528 -0.0988  0.2530
  128MOL0     O17193   4.029   9.109  -0.459 -0.9216 -0.2883  0.8230
  128MOL0     C17194   3.905   9.411  -0.600  1.5104 -0.3657  0.4879
  128MOL0     C17195   3.919   9.549  -0.609  0.4450  0.4461 -0.1033
  128MOL0     N17196   4.084   9.869   0.028 -0.4234  1.0212  0.0470
  128MOL0     N17197   4.126   9.776   0.100 -0.1280 -0.2863 -0.7160
  128MOL0     C17198   4.074   8.677   0.392  0.1372 -0.4370 -0.2727
  128MOL0     C17199   4.080   8.537   0.376 -0.0995  0.6672  0.2626
  128MOL0     C17200   4.071   8.126   0.241  0.2987  0.4128  0.1661
  128MOL0     C17201   4.179   8.046   0.202  1.2521 -0.3737  0.2078
  128MOL0     C17202   4.168   7.906   0.213 -0.7844 -0.4660  0.6097
  128MOL0     C17203   4.056   7.845   0.267  0.2740 -0.7474  0.7430
  128MOL0     O17204   4.042   7.715   0.279 -0.7620 -0.0794  0.1577
  128MOL0     C17205   4.108   7.625   0.182  0.1780 -0.5383  0.4803
  128MOL0     C17206   4.042   7.488   0.179 -0.2872 -0.0361 -0.0707
  128MOL0     C17207   4.111   7.394   0.084  1.2271  0.2512  0.0584
  128MOL0     C17208   4.026   7.267   0.065 -0.3425 -0.6101 -0.2601
  128MOL0     C17209   4.034   7.183   0.181  0.6364 -0.2292 -0.0369
  128MOL0     C17210   4.044   7.107   0.275  0.3567 -0.0609 -0.0776
  128MOL0     C17211   3.950   7.924   0.302  0.2462 -0.2479 -0.0737
  128MOL0     C17212   3.953   8.067   0.300 -0.2817  0.4256  0.5541
  128MOL0     H17213   3.818   8.523   0.153  0.4900  0.2703 -1.9011
  128MOL0     H17214   3.811   8.772   0.212 -1.5546 -2.9936 -0.0145
  128MOL0     H17215   4.110   8.917   0.233  1.6415 -0.7425  3.3921
  128MOL0     H17216   3.946   8.971   0.197  0.5932 -2.0452 -0.5856
  128MOL0     H17217   4.027   9.146   0.402 -1.4055 -1.0972 -0.2263
  128MOL0     H17218   4.176   9.114   0.315 -0.0943  3.4509  2.8443
  128MOL0     H17219   3.927   9.224   0.178 -0.5884 -0.2991 -0.4904
  128MOL0     H17220   4.068   9.310   0.230 -1.0731  0.8242 -0.3916
  128MOL0     H17221   4.197   9.166   0.048  1.0111  1.9438 -0.2695
  128MOL0     H17222   4.047   9.074   0.021 -2.2060  1.2425  0.4224
  128MOL0     H17223   4.102   9.227  -0.142 -0.7336 -1.8185  0.1919
  128MOL0     H17224   3.944   9.272  -0.081  0.4664 -1.4233  1.0212
  128MOL0     H17225   4.058   9.485  -0.128 -0.5613  0.5288  1.2237
  128MOL0     H17226   4.036   9.482   0.043  1.5084  2.3379  0.2415
  128MOL0     H17227   4.285   9.361   0.029  0.5607  0.3184  0.7517
  128MOL0     H17228   4.308   9.460  -0.099  1.2028 -1.8436  1.1896
  128MOL0     H17229   4.368   9.606   0.101  0.0036  0.6004  1.2240
  128MOL0     H17230   4.210   9.542   0.172 -0.4036 -0.6681  0.3764
  128MOL0     H17231   4.258   9.707  -0.191 -3.5997 -0.9200 -1.9710
  128MOL0     H17232   4.085  10.053  -0.143 -0.3820 -1.1727  2.3390
  128MOL0     H17233   4.174   9.972  -0.274  1.4513 -0.3533  1.6457
  128MOL0     H17234   3.938  10.029  -0.329 -0.1306 -0.6390 -0.9034
  128MOL0     H17235   3.879   9.912  -0.199 -0.1784 -0.1152  0.7139
  128MOL0     H17236   3.860   9.846  -0.418 -0.0416 -2.3854  1.8786
  128MOL0     H17237   3.946   9.736  -0.315 -2.2637  0.6427  1.2856
  128MOL0     H17238   4.160   9.778  -0.435 -0.5033 -0.1528  1.9770
  128MOL0     H17239   4.094   9.926  -0.506 -0.0960  0.6588  0.9423
  128MOL0     H17240   4.234   9.563  -0.511 -0.6000  2.3538 -1.2209
  128MOL0     H17241   4.264   9.217  -0.544 -0.1851  0.5901  0.2384
  128MOL0     H17242   4.332   9.362  -0.463  0.4192  0.8544 -1.0544
  128MOL0     H17243   4.219   9.257  -0.384  1.4210 -0.9517 -0.8881
  128MOL0     H17244   3.892   8.990  -0.800 -1.5937  0.7603 -1.4599
  128MOL0     H17245   3.810   8.760  -0.824  0.8448 -2.2114  2.2089
  128MOL0     H17246   3.687   8.533  -0.467 -0.2322 -1.6885 -0.5128
  128MOL0     H17247   3.523   8.587  -0.506 -0.2252  1.8201 -0.1243
  128MOL0     H17248   3.481   8.423  -0.660 -0.6843 -0.1036  0.9944
  128MOL0     H17249   3.643   8.355  -0.667 -1.3907 -5.3777  2.2340
  128MOL0     H17250   3.490   8.367  -0.403  3.9474  0.6291  2.2995
  128MOL0     H17251   3.649   8.295  -0.432  0.0982  0.3281  0.0613
  128MOL0     H17252   3.443   8.128  -0.441 -0.3218  1.4238  0.1614
  128MOL0     H17253   3.412   8.209  -0.600 -0.4583 -0.3123 -1.1381
  128MOL0     H17254   3.681   8.069  -0.547 -1.8220 -0.2726  0.8985
  128MOL0     H17255   3.621   8.141  -0.697  1.8089  1.6647  0.4450
  128MOL0     H17256   3.418   7.975  -0.665 -1.3320 -3.9793 -0.3833
  128MOL0     H17257   3.563   7.907  -0.731 -1.4206 -2.4919  1.3956
  128MOL0     H17258   3.537   7.909  -0.426  1.5967 -4.2473  1.7507
  128MOL0     H17259   3.590   7.777  -0.524 -1.3848 -2.2575  3.4446
  128MOL0     H17260   3.373   7.731  -0.407 -2.9975  0.5860  0.1870
  128MOL0     H17261   3.389   7.697  -0.586 -0.7232 -3.6634  2.0312
  128MOL0     H17262   3.658   8.764  -0.426  2.3203  2.0840  1.6500
  128MOL0     H17263   3.714   9.001  -0.414 -0.3701  0.9260 -0.5103
  128MOL0     H17264   3.800   9.387  -0.609  1.9147 -2.3077  0.5465
  128MOL0     H17265   3.839   9.613  -0.646 -0.7498 -0.5945  0.6180
  128MOL0     H17266   4.148   8.721   0.459 -0.0425  2.5679 -1.8797
  128MOL0     H17267   4.153   8.476   0.427  1.5528  1.4971 -1.0083
  128MOL0     H17268   4.273   8.091   0.171 -0.5325  2.2937 -1.7015
  128MOL0     H17269   4.256   7.844   0.201  1.0832  1.9677  0.9147
  128MOL0     H17270   4.091   7.665   0.082 -1.6629  1.4914  1.4860
  128MOL0     H17271   4.215   7.624   0.204 -0.1138  2.3764  2.7151
  128MOL0     H17272   3.935   7.491   0.155 -0.4889 -1.0533  0.6323
  128MOL0     H17273   4.036   7.444   0.279  0.6852  3.2795  1.6227
  128MOL0     H17274   4.204   7.368   0.134  1.4608  1.1697  0.1108
  128MOL0     H17275   4.120   7.441  -0.014 -2.1827  2.0003  0.4185
  128MOL0     H17276   4.051   7.218  -0.029 -0.7907  1.0615 -1.2775
  128MOL0     H17277   3.922   7.300   0.057  0.5033  1.8024 -2.6237
  128MOL0     H17278   4.048   7.037   0.355 -2.5091 -1.8393 -1.3431
  128MOL0     H17279   3.863   7.868   0.335  0.3460  0.5568  1.7088
  128MOL0     H17280   3.859   8.121   0.314 -0.0507  2.4900 -3.9074
  129MOL0     O17281   9.575   0.470   9.462 -0.4057  0.2200  0.0325
  129MOL0     C17282   9.485   0.531   9.505 -0.1041 -0.4667  0.7638
  129MOL0     O17283   9.367   0.466   9.543  0.2926 -0.2914 -0.6240
  129MOL0     C17284   9.369   0.333   9.577 -0.2342  0.4919  0.4020
  129MOL0     C17285   9.476   0.248   9.608 -0.2585  0.1961  0.1681
  129MOL0     C17286   9.463   0.115   9.638  0.0861 -0.1757  0.2032
  129MOL0     C17287   9.329   0.054   9.647  0.0243  0.0068  0.5800
  129MOL0     O17288   9.313  -0.071   9.694  0.2671  0.4642 -0.2146
  129MOL0     C17289   9.352  -0.178   9.600  0.2054  1.3936  0.4041
  129MOL0     C17290   9.343  -0.321   9.674  1.6904  0.3923  0.6741
  129MOL0     C17291   9.456  -0.338   9.775  0.5213 -0.4024 -0.3709
  129MOL0     C17292   9.461  -0.475   9.831 -0.4755  0.4252 -0.0626
  129MOL0     C17293   9.598  -0.496   9.907  0.0771  0.0601  0.3312
  129MOL0     C17294   9.613  -0.620   9.992  0.2640 -0.6243 -0.6159
  129MOL0     C17295   9.610  -0.754   9.911 -0.8186  0.1138  0.0612
  129MOL0     C17296   9.736  -0.789   9.827  0.4128 -0.8828 -0.4318
  129MOL0     N17297   9.735  -0.919   9.762 -0.0968 -0.6050 -0.0298
  129MOL0     C17298   9.630  -0.981   9.701 -0.7103  0.1762  0.2892
  129MOL0     C17299   9.684  -1.106   9.677  0.2294  0.3515  0.6818
  129MOL0     C17300   9.618  -1.224   9.608 -0.6643 -0.3182  0.4030
  129MOL0     C17301   9.525  -1.185   9.492 -0.1384  0.3092 -0.2689
  129MOL0     C17302   9.586  -1.079   9.396  0.5942  0.2497  1.4473
  129MOL0     C17303   9.661  -1.149   9.274 -0.5622 -0.0094 -0.5915
  129MOL0     O17304   9.582  -1.138   9.157 -0.4380 -0.5236  1.2712
  129MOL0     C17305   9.567  -1.019   9.096  0.3217 -0.0353 -0.7329
  129MOL0     C17306   9.467  -0.999   9.002 -0.1645  0.0844  0.5345
  129MOL0     C17307   9.463  -0.877   8.921  0.1776 -0.0902 -0.0796
  129MOL0     C17308   9.340  -0.861   8.838 -0.9491 -0.3188  0.0140
  129MOL0     C17309   9.560  -0.781   8.944  0.1615 -0.2010 -0.0269
  129MOL0     C17310   9.541  -0.640   8.888 -0.3909 -0.5334 -0.4136
  129MOL0     O17311   9.644  -0.581   8.823 -0.5330 -0.4772 -1.5397
  129MOL0     C17312   9.652  -0.447   8.815 -0.3842 -0.2401 -0.0214
  129MOL0     C17313   9.628  -0.365   8.929  0.4911 -0.1320  0.1381
  129MOL0     C17314   9.626  -0.220   8.916  0.4359  0.0000  0.0271
  129MOL0     C17315   9.629  -0.160   8.787  0.2600  0.8615 -1.2484
  129MOL0     O17316   9.614  -0.028   8.769 -0.1573 -0.6018 -0.3803
  129MOL0     C17317   9.659   0.059   8.875 -0.5774 -1.0317  0.3628
  129MOL0     C17318   9.665   0.205   8.814 -0.1941  0.0697 -1.1483
  129MOL0     C17319   9.741   0.301   8.904 -0.0297  0.0611  0.5219
  129MOL0     C17320   9.741   0.441   8.836 -0.5875 -0.1586  0.4970
  129MOL0     C17321   9.827   0.541   8.924 -0.8810  0.6620 -0.6848
  129MOL0     C17322   9.866   0.678   8.854 -0.0255  0.9057 -0.0052
  129MOL0     C17323   9.964   0.668   8.737 -0.2195  0.0068 -0.5711
  129MOL0     C17324  10.003   0.813   8.698  0.1800  0.5420  0.4278
  129MOL0    Cl17325  10.099   0.806   8.545  0.5415  0.0715 -0.0758
  129MOL0     C17326   9.634  -0.246   8.681 -0.2657  0.9566  0.4414
  129MOL0     C17327   9.651  -0.388   8.691  0.3785  0.0662  0.1344
  129MOL0     O17328   9.439  -0.582   8.920 -0.0321 -0.4893  0.1922
  129MOL0     C17329   9.663  -0.805   9.027  0.3603 -0.4877 -0.1879
  129MOL0     C17330   9.662  -0.921   9.102  0.8562  0.0632  0.7514
  129MOL0     N17331   9.813  -1.109   9.731 -0.1814 -0.1107  0.0860
  129MOL0     N17332   9.834  -0.996   9.791  0.2432 -0.2289 -1.1688
  129MOL0     C17333   9.227   0.136   9.627  0.3886 -0.4543  0.1092
  129MOL0     C17334   9.244   0.270   9.584  1.5207  0.2659 -0.0941
  129MOL0     C17335   9.491   0.676   9.509 -0.2658  0.2548 -0.2932
  129MOL0     C17336   9.598   0.744   9.455  0.5637  0.0366 -0.0266
  129MOL0     C17337   9.602   0.885   9.479 -0.9847  0.3811 -0.4212
  129MOL0     C17338   9.494   0.954   9.547  0.2039 -0.2011  0.4391
  129MOL0     O17339   9.515   1.089   9.566  0.3020 -0.1313 -0.1911
  129MOL0     C17340   9.427   1.158   9.656  0.0316 -0.4971  0.2779
  129MOL0     C17341   9.448   1.126   9.800 -0.1063  0.3012 -0.5355
  129MOL0     C17342   9.597   1.095   9.837  0.3067 -0.2459  0.6115
  129MOL0     C17343   9.596   1.048   9.983 -0.0497 -0.0239 -0.2574
  129MOL0     C17344   9.719   1.058  10.055 -0.3799  0.0059 -0.2216
  129MOL0     C17345   9.833   1.063  10.110  0.7741  0.8668 -0.2365
  129MOL0     C17346   9.383   0.880   9.592  0.0760  0.0725 -0.0823
  129MOL0     C17347   9.383   0.742   9.579 -0.5658 -0.5036  0.2334
  129MOL0     H17348   9.577   0.286   9.607  0.1005 -0.6918  1.1643
  129MOL0     H17349   9.556   0.062   9.654 -0.5965 -0.9536  1.8260
  129MOL0     H17350   9.282  -0.183   9.516 -0.0432  1.2894  0.6166
  129MOL0     H17351   9.456  -0.153   9.579  0.3656  1.0048  0.7103
  129MOL0     H17352   9.241  -0.323   9.712  1.9312  0.3205  1.3234
  129MOL0     H17353   9.348  -0.402   9.601  0.9501  0.6816  0.2928
  129MOL0     H17354   9.552  -0.309   9.729  1.5436 -1.7296  0.8320
  129MOL0     H17355   9.435  -0.272   9.859  1.1074 -0.2907 -0.3055
  129MOL0     H17356   9.377  -0.487   9.900 -1.9509  0.4984 -1.7795
  129MOL0     H17357   9.457  -0.548   9.750 -1.3639  0.9793 -0.5329
  129MOL0     H17358   9.675  -0.484   9.830 -0.3218  1.9309  0.1902
  129MOL0     H17359   9.610  -0.404   9.964 -0.5700  0.3204  0.0477
  129MOL0     H17360   9.691  -0.633  10.067 -2.7079 -0.7331  2.7578
  129MOL0     H17361   9.522  -0.610  10.052  1.8792 -3.4196  2.6404
  129MOL0     H17362   9.615  -0.835   9.984  0.3141  0.7535  0.7149
  129MOL0     H17363   9.521  -0.759   9.847 -0.1311  0.9452 -0.9779
  129MOL0     H17364   9.821  -0.775   9.895  2.1399 -1.4999 -2.3551
  129MOL0     H17365   9.753  -0.708   9.755  1.7977  1.5089  2.3771
  129MOL0     H17366   9.531  -0.938   9.689 -0.8696  0.3420  1.9649
  129MOL0     H17367   9.695  -1.295   9.577 -0.1359  0.0230  0.9159
  129MOL0     H17368   9.556  -1.287   9.673 -1.9064  0.3262 -0.1262
  129MOL0     H17369   9.437  -1.142   9.540 -0.0253 -0.9219  1.1180
  129MOL0     H17370   9.493  -1.276   9.441 -1.3777  0.9178 -0.5981
  129MOL0     H17371   9.661  -1.016   9.443  1.8834  0.0164 -0.2153
  129MOL0     H17372   9.501  -1.020   9.360  0.6512 -1.0562 -1.0684
  129MOL0     H17373   9.680  -1.254   9.296 -0.2259 -0.5027 -2.9577
  129MOL0     H17374   9.762  -1.109   9.277 -0.0269 -1.2920  3.0829
  129MOL0     H17375   9.391  -1.074   8.984 -1.2514  0.8189  1.8365
  129MOL0     H17376   9.277  -0.792   8.896  0.4952  2.0223 -1.0634
  129MOL0     H17377   9.365  -0.822   8.739 -0.2460 -1.5856 -0.3248
  129MOL0     H17378   9.278  -0.950   8.825 -1.2404 -0.0225 -0.6841
  129MOL0     H17379   9.620  -0.417   9.024  1.0770 -0.0113  0.2567
  129MOL0     H17380   9.627  -0.151   8.999 -0.8640  1.1598 -0.8767
  129MOL0     H17381   9.590   0.061   8.959 -0.8292 -0.5919  0.1493
  129MOL0     H17382   9.760   0.030   8.904  0.1696  1.5150  0.5252
  129MOL0     H17383   9.707   0.192   8.714 -2.8927 -0.5577 -2.2910
  129MOL0     H17384   9.564   0.247   8.802  0.3680  1.4246 -1.2821
  129MOL0     H17385   9.840   0.266   8.934 -1.1925 -2.3322  1.9166
  129MOL0     H17386   9.688   0.301   9.000 -0.0381  0.3903  0.5182
  129MOL0     H17387   9.790   0.431   8.738 -1.8633  1.6680 -0.4015
  129MOL0     H17388   9.637   0.475   8.828  0.1462  2.3185  0.6852
  129MOL0     H17389   9.914   0.484   8.956 -1.0501  1.1585  0.7392
  129MOL0     H17390   9.767   0.557   9.014  0.2393 -0.3086  0.2658
  129MOL0     H17391   9.773   0.729   8.826 -0.8271  1.5593  3.4502
  129MOL0     H17392   9.928   0.738   8.921  0.9485 -0.5494  0.4257
  129MOL0     H17393   9.917   0.611   8.657 -0.6358 -2.5083  1.3174
  129MOL0     H17394  10.049   0.612   8.779 -0.4488  0.2577  0.2349
  129MOL0     H17395  10.074   0.855   8.770  2.7806 -1.6215 -0.6683
  129MOL0     H17396   9.918   0.882   8.692  1.4335  2.1034 -0.5260
  129MOL0     H17397   9.641  -0.213   8.578 -3.3038  2.5020  0.6413
  129MOL0     H17398   9.670  -0.448   8.603 -5.7720 -1.4121 -0.6276
  129MOL0     H17399   9.748  -0.739   9.042  1.6284 -2.5366  2.6798
  129MOL0     H17400   9.750  -0.940   9.163  1.2621 -4.1214 -0.8033
  129MOL0     H17401   9.129   0.099   9.657  0.2054  0.7380  1.0434
  129MOL0     H17402   9.158   0.333   9.565  1.3104  0.7039  2.0936
  129MOL0     H17403   9.678   0.691   9.404  1.0602  0.9393 -0.2013
  129MOL0     H17404   9.682   0.936   9.426 -2.0549  0.0112 -2.5230
  129MOL0     H17405   9.454   1.264   9.651 -0.2147 -0.3053  2.1682
  129MOL0     H17406   9.324   1.153   9.620  0.2409  0.7352 -0.5655
  129MOL0     H17407   9.382   1.042   9.823  1.3891 -0.9778 -0.7102
  129MOL0     H17408   9.401   1.207   9.856 -1.2899 -1.5522  1.3288
  129MOL0     H17409   9.668   1.173   9.808  1.0116 -1.8971 -2.6302
  129MOL0     H17410   9.623   1.013   9.769 -1.6448 -0.0499 -0.4263
  129MOL0     H17411   9.566   0.943   9.978 -0.3584  0.1050 -3.7125
  129MOL0     H17412   9.523   1.097  10.048 -0.1702 -2.3018  1.4526
  129MOL0     H17413   9.929   1.065  10.159  0.5865  1.7049  0.1156
  129MOL0     H17414   9.302   0.915   9.655 -2.3650 -4.3988 -0.3384
  129MOL0     H17415   9.301   0.690   9.627  0.9700 -3.6071 -0.2792
  130MOL0     O17416   0.884   0.345   8.359 -0.0772  0.2278 -0.6934
  130MOL0     C17417   0.886   0.223   8.368 -0.2788 -0.6851 -0.7517
  130MOL0     O17418   0.983   0.135   8.332 -0.3039 -0.3342  0.5443
  130MOL0     C17419   1.098   0.175   8.265  0.1588 -0.0590 -0.1207
  130MOL0     C17420   1.138   0.306   8.235 -0.7055  0.3630  0.0397
  130MOL0     C17421   1.271   0.338   8.185  1.2380 -0.6048 -0.3068
  130MOL0     C17422   1.355   0.234   8.152 -0.4579  0.6704  0.7193
  130MOL0     O17423   1.478   0.253   8.092  0.0138 -0.1163  0.0080
  130MOL0     C17424   1.528   0.390   8.070  0.4814  0.5423 -0.7823
  130MOL0     C17425   1.668   0.385   8.013  0.0114  0.3657  0.0987
  130MOL0     C17426   1.748   0.257   8.065  0.7053 -0.9190 -0.1095
  130MOL0     C17427   1.895   0.298   8.078 -0.2484  0.0681  0.4335
  130MOL0     C17428   1.981   0.196   8.145 -0.8002 -0.1728 -0.9778
  130MOL0     C17429   1.987   0.063   8.065  0.2358 -0.2873 -0.3665
  130MOL0     C17430   2.106  -0.023   8.106 -0.4841  0.7065  0.3831
  130MOL0     C17431   2.242   0.043   8.088 -0.4380  0.0876  0.1425
  130MOL0     N17432   2.351  -0.047   8.123  0.6359 -0.3897  0.0719
  130MOL0     C17433   2.418  -0.072   8.239  0.1119  0.6160 -0.5960
  130MOL0     C17434   2.519  -0.161   8.213  1.0808 -0.1114  1.5558
  130MOL0     C17435   2.617  -0.228   8.314  0.5039 -0.0405 -0.3287
  130MOL0     C17436   2.641  -0.156   8.443 -0.2780  0.8174  0.5796
  130MOL0     C17437   2.730  -0.251   8.517  0.1819  0.0237  0.1397
  130MOL0     C17438   2.788  -0.188   8.645  0.0263 -0.2858  0.6837
  130MOL0     O17439   2.776  -0.282   8.749  0.4185  0.1317 -0.2295
  130MOL0     C17440   2.726  -0.227   8.868  0.8018 -0.1436 -0.1582
  130MOL0     C17441   2.761  -0.105   8.914  0.5465  0.8622 -0.4961
  130MOL0     C17442   2.700  -0.051   9.031 -0.0660  0.3501 -0.0549
  130MOL0     C17443   2.723   0.100   9.058 -0.7019 -0.8421  0.2122
  130MOL0     C17444   2.623  -0.137   9.121  0.2441  0.2958  0.0508
  130MOL0     C17445   2.544  -0.082   9.241  0.5359 -0.2573 -0.8033
  130MOL0     O17446   2.494   0.040   9.235 -0.7686  0.1590 -0.2441
  130MOL0     C17447   2.419   0.101   9.333 -0.1999  0.5511  0.5065
  130MOL0     C17448   2.348   0.048   9.438 -0.1130  0.6921  0.2855
  130MOL0     C17449   2.274   0.121   9.529 -0.1685 -0.6427 -0.6366
  130MOL0     C17450   2.274   0.254   9.520  1.1817 -0.4653  0.1258
  130MOL0     O17451   2.200   0.314   9.621  0.1359 -0.6186  0.0431
  130MOL0     C17452   2.151   0.442   9.584  0.0187  0.8128 -0.5406
  130MOL0     C17453   2.041   0.507   9.672 -0.1985 -0.5953  0.3552
  130MOL0     C17454   1.916   0.436   9.658  0.6575 -0.1683  0.0915
  130MOL0     C17455   1.819   0.494   9.763  0.2773  0.0589 -0.4003
  130MOL0     C17456   1.703   0.407   9.793  0.3153  1.0345 -0.1610
  130MOL0     C17457   1.642   0.359   9.657  0.6401  0.1413  0.5374
  130MOL0     C17458   1.538   0.250   9.691 -0.3828 -0.3219 -0.3364
  130MOL0     C17459   1.473   0.202   9.553 -0.3654  0.2511 -1.0774
  130MOL0    Cl17460   1.325   0.279   9.508 -0.1038  0.0566 -0.2001
  130MOL0     C17461   2.346   0.323   9.414  0.2211  0.2750  0.0806
  130MOL0     C17462   2.414   0.241   9.322  0.0332 -0.4467 -0.6494
  130MOL0     O17463   2.535  -0.160   9.331 -0.2331 -0.3592 -0.2209
  130MOL0     C17464   2.608  -0.269   9.078 -0.1988  0.6027  0.3953
  130MOL0     C17465   2.641  -0.307   8.945 -0.9324  0.6843 -0.3957
  130MOL0     N17466   2.510  -0.182   8.076 -0.1321  0.3698 -0.1213
  130MOL0     N17467   2.413  -0.120   8.024  0.9091  0.0721  0.1226
  130MOL0     C17468   1.314   0.100   8.164  0.2199  0.3498 -0.1827
  130MOL0     C17469   1.182   0.070   8.221  0.4295 -0.5095  0.3848
  130MOL0     C17470   0.755   0.164   8.418 -1.0014 -0.0323 -0.0505
  130MOL0     C17471   0.661   0.234   8.497 -0.4282 -0.7896  0.5979
  130MOL0     C17472   0.536   0.183   8.540 -0.0792  0.2971  0.1585
  130MOL0     C17473   0.506   0.049   8.521  0.4354 -0.3945 -0.2825
  130MOL0     O17474   0.395  -0.014   8.572  0.8845  0.4844  0.3349
  130MOL0     C17475   0.338   0.062   8.677 -0.4128 -0.3868  0.5412
  130MOL0     C17476   0.204   0.002   8.714 -1.3888  1.0471 -0.4472
  130MOL0     C17477   0.208  -0.153   8.756 -0.2443  0.4114  0.3014
  130MOL0     C17478   0.060  -0.197   8.800  0.2361 -1.1761  0.0010
  130MOL0     C17479  -0.046  -0.186   8.695 -0.3423 -1.8262 -0.9612
  130MOL0     C17480  -0.149  -0.179   8.627 -0.6354  0.8104  0.5457
  130MOL0     C17481   0.613  -0.028   8.457  1.1995 -0.1019 -0.0521
  130MOL0     C17482   0.724   0.028   8.396 -0.1612  0.4047 -0.4404
  130MOL0     H17483   1.083   0.400   8.241  0.4457  1.0165  0.7079
  130MOL0     H17484   1.280   0.443   8.162  0.4674 -0.6420 -0.8073
  130MOL0     H17485   1.460   0.445   8.005  1.1285  2.3195 -0.0184
  130MOL0     H17486   1.538   0.452   8.159 -0.1063  2.8826 -2.2698
  130MOL0     H17487   1.663   0.382   7.903  2.8656 -0.1015 -0.1000
  130MOL0     H17488   1.715   0.481   8.034  0.0713 -0.1757  2.6989
  130MOL0     H17489   1.719   0.232   8.168  1.0925  2.5654  0.9508
  130MOL0     H17490   1.723   0.170   8.002 -1.6133 -1.6730  1.7072
  130MOL0     H17491   1.926   0.313   7.975 -0.1384  0.4204  0.5150
  130MOL0     H17492   1.892   0.393   8.134  1.6346  1.6521 -1.9393
  130MOL0     H17493   2.079   0.245   8.148 -0.3728 -1.0620  0.2444
  130MOL0     H17494   1.949   0.188   8.249 -1.5691 -0.3958 -1.2196
  130MOL0     H17495   1.896   0.005   8.080 -1.9401  2.7688 -0.7128
  130MOL0     H17496   1.996   0.078   7.957 -2.4756 -2.3777 -0.9737
  130MOL0     H17497   2.075  -0.058   8.205 -3.9511 -2.7017 -1.6317
  130MOL0     H17498   2.095  -0.110   8.040 -2.3195  0.4830  0.9091
  130MOL0     H17499   2.243   0.131   8.153 -3.9278 -1.2604  2.2964
  130MOL0     H17500   2.251   0.080   7.986 -2.8944  2.4397  0.6362
  130MOL0     H17501   2.384  -0.039   8.336 -3.5421 -0.1474 -1.4767
  130MOL0     H17502   2.575  -0.326   8.340  1.3550  0.4978  3.7925
  130MOL0     H17503   2.713  -0.241   8.263  0.4031  1.2902 -0.8800
  130MOL0     H17504   2.552  -0.135   8.503  0.2071 -2.0985  2.5132
  130MOL0     H17505   2.690  -0.062   8.412 -1.9378  0.9378 -1.9692
  130MOL0     H17506   2.812  -0.292   8.457  1.3608  1.9332  0.3707
  130MOL0     H17507   2.658  -0.324   8.553 -1.7507  1.9272  0.3437
  130MOL0     H17508   2.735  -0.096   8.671  0.6431 -0.3134  2.1228
  130MOL0     H17509   2.892  -0.160   8.626 -1.2099  4.2667 -0.9242
  130MOL0     H17510   2.835  -0.045   8.861 -0.2915  1.3989 -1.0843
  130MOL0     H17511   2.809   0.135   9.000 -0.5687  0.6170  1.2238
  130MOL0     H17512   2.637   0.162   9.033  0.5111  1.1863  0.8458
  130MOL0     H17513   2.744   0.126   9.163  1.0582 -0.5002 -0.1973
  130MOL0     H17514   2.341  -0.060   9.442  0.4351  0.6553  0.3145
  130MOL0     H17515   2.203   0.067   9.592 -0.8189 -1.7534 -2.2392
  130MOL0     H17516   2.235   0.512   9.596 -0.6371  1.2610  2.1569
  130MOL0     H17517   2.123   0.430   9.479  3.0376 -0.0020 -1.3522
  130MOL0     H17518   2.069   0.490   9.776 -0.5226  0.5742  0.6458
  130MOL0     H17519   2.019   0.613   9.658 -0.1322 -0.6657 -0.3002
  130MOL0     H17520   1.931   0.328   9.669 -0.9364 -0.4851 -0.5717
  130MOL0     H17521   1.878   0.440   9.555  2.5414  2.1980 -0.6297
  130MOL0     H17522   1.870   0.509   9.859  0.5897 -0.6254 -0.4496
  130MOL0     H17523   1.791   0.591   9.722 -0.3563 -0.6147 -1.6005
  130MOL0     H17524   1.628   0.446   9.863  0.7360  0.1713  0.7934
  130MOL0     H17525   1.740   0.324   9.853  1.7148  2.4090  0.9557
  130MOL0     H17526   1.591   0.447   9.616 -0.1387  0.1370  1.4662
  130MOL0     H17527   1.714   0.317   9.586  0.8016 -0.6246  1.1443
  130MOL0     H17528   1.457   0.290   9.753  2.4250  1.0739  2.7277
  130MOL0     H17529   1.581   0.157   9.729 -1.3149 -1.0602 -1.0138
  130MOL0     H17530   1.435   0.104   9.583 -0.4650  0.8931  1.0883
  130MOL0     H17531   1.548   0.187   9.475  0.9656 -1.4238  0.4383
  130MOL0     H17532   2.367   0.430   9.412 -0.0118  0.3480  0.9245
  130MOL0     H17533   2.468   0.283   9.238 -2.5426  0.3182 -2.0472
  130MOL0     H17534   2.540  -0.330   9.138  0.7477  1.1944  2.1177
  130MOL0     H17535   2.617  -0.410   8.919  4.4862 -0.6722 -1.0758
  130MOL0     H17536   1.368   0.011   8.135 -2.5379 -1.3697 -0.4317
  130MOL0     H17537   1.155  -0.033   8.241 -0.3869 -0.5469 -0.8250
  130MOL0     H17538   0.681   0.338   8.523 -1.8414 -1.0438  3.0599
  130MOL0     H17539   0.475   0.259   8.587 -1.1769 -1.1789  1.2170
  130MOL0     H17540   0.410   0.068   8.759 -0.1404  3.1553  0.1760
  130MOL0     H17541   0.319   0.168   8.659 -1.6743 -0.4384  1.4500
  130MOL0     H17542   0.135   0.007   8.630 -2.5028  0.2967  0.3953
  130MOL0     H17543   0.175   0.060   8.802  1.4424  1.0451  0.6055
  130MOL0     H17544   0.276  -0.166   8.841  1.1760  0.2418 -0.8253
  130MOL0     H17545   0.246  -0.219   8.677 -0.6935  2.8520 -2.1029
  130MOL0     H17546   0.022  -0.152   8.892  0.8177  3.3850 -1.7079
  130MOL0     H17547   0.065  -0.300   8.836  3.4199 -1.0953  0.0783
  130MOL0     H17548  -0.231  -0.181   8.558 -2.2849 -2.8720  2.3090
  130MOL0     H17549   0.601  -0.135   8.447 -1.7459  0.1325  0.1501
  130MOL0     H17550   0.790  -0.034   8.335  0.6504  1.5496 -0.7607
  131MOL0     O17551   0.087   8.552   3.430  0.5291 -0.9417  0.7949
  131MOL0     C17552   0.184   8.622   3.412 -0.4115  0.1375 -0.0425
  131MOL0     O17553   0.182   8.725   3.316 -0.2798  0.9704 -0.1711
  131MOL0     C17554   0.090   8.732   3.213  0.3403  0.7924  0.4694
  131MOL0     C17555   0.036   8.854   3.175  0.1172 -0.5658  0.0462
  131MOL0     C17556  -0.055   8.861   3.073  0.1145  0.0716 -0.6478
  131MOL0     C17557  -0.088   8.743   3.001 -0.1401 -0.1229 -0.6670
  131MOL0     O17558  -0.180   8.738   2.897 -0.6772  0.3209 -0.4956
  131MOL0     C17559  -0.317   8.775   2.930  0.1283 -0.6126  0.5753
  131MOL0     C17560  -0.395   8.656   2.976 -0.5743 -1.7853 -0.6349
  131MOL0     C17561  -0.430   8.565   2.870  1.3884 -0.0632 -0.8196
  131MOL0     C17562  -0.558   8.487   2.907  0.3952 -0.2104  0.2720
  131MOL0     C17563  -0.567   8.376   2.805 -0.3687 -0.7579 -0.9298
  131MOL0     C17564  -0.675   8.277   2.826 -0.6003 -1.1253  0.4760
  131MOL0     C17565  -0.647   8.201   2.958  0.7464 -0.4843 -1.0364
  131MOL0     C17566  -0.716   8.060   2.955 -0.6271  0.1257  0.1470
  131MOL0     N17567  -0.630   7.978   2.873  0.0724 -0.2991 -0.0474
  131MOL0     C17568  -0.657   7.941   2.745  0.5907  0.1366 -0.1050
  131MOL0     C17569  -0.543   7.891   2.693 -0.7298  0.1640  0.4135
  131MOL0     C17570  -0.518   7.825   2.561  0.0254  1.6306  0.1616
  131MOL0     C17571  -0.557   7.923   2.451  0.7029  0.8534 -0.4643
  131MOL0     C17572  -0.522   7.872   2.315  0.2609 -0.8228  0.5714
  131MOL0     C17573  -0.594   7.954   2.204  0.1876  0.2799 -1.0140
  131MOL0     O17574  -0.519   8.070   2.192  0.0623 -0.0989  0.2177
  131MOL0     C17575  -0.522   8.141   2.081 -0.9757 -1.0546  0.1451
  131MOL0     C17576  -0.434   8.254   2.080 -0.2794  0.6404 -0.9658
  131MOL0     C17577  -0.429   8.347   1.979  1.1730  0.3133 -0.9205
  131MOL0     C17578  -0.336   8.456   1.999  0.0370  0.1435  0.1408
  131MOL0     C17579  -0.518   8.325   1.866 -1.4311  0.5909 -0.8335
  131MOL0     C17580  -0.530   8.415   1.756 -0.1484  0.1614 -0.4533
  131MOL0     O17581  -0.413   8.440   1.686  0.0424  0.0621  0.1758
  131MOL0     C17582  -0.407   8.535   1.588 -0.0458  0.1436 -0.2299
  131MOL0     C17583  -0.337   8.660   1.613 -0.1946  0.2149  0.4747
  131MOL0     C17584  -0.323   8.752   1.515  0.0326 -0.2072 -0.6671
  131MOL0     C17585  -0.389   8.735   1.397 -0.3008  0.2120 -0.3240
  131MOL0     O17586  -0.392   8.832   1.288  0.3420 -0.4205 -0.4190
  131MOL0     C17587  -0.402   8.970   1.321 -0.2500  0.2599  0.3691
  131MOL0     C17588  -0.473   9.044   1.204 -0.7622  0.1910  0.0793
  131MOL0     C17589  -0.569   8.967   1.111 -0.1984 -0.4012 -0.9718
  131MOL0     C17590  -0.703   8.939   1.180  0.6466 -0.3632 -0.2777
  131MOL0     C17591  -0.827   8.974   1.096 -0.2165 -0.3797 -0.5274
  131MOL0     C17592  -0.956   8.997   1.170 -0.3907 -0.4143 -0.8572
  131MOL0     C17593  -1.012   8.864   1.239  0.0617  0.3520 -0.2438
  131MOL0     C17594  -1.171   8.864   1.259  1.1186  0.1901  0.2622
  131MOL0    Cl17595  -1.190   8.998   1.392 -0.0069  0.6423 -0.2707
  131MOL0     C17596  -0.444   8.613   1.372  0.2150 -0.2846  0.2392
  131MOL0     C17597  -0.469   8.515   1.461 -0.3436 -0.1239 -0.1931
  131MOL0     O17598  -0.639   8.461   1.730  0.3172 -0.3410 -0.8719
  131MOL0     C17599  -0.600   8.213   1.868 -0.3237  0.1494  0.4712
  131MOL0     C17600  -0.601   8.118   1.969  0.8150 -0.2167 -0.2815
  131MOL0     N17601  -0.454   7.896   2.794 -0.5177 -0.0425 -1.2704
  131MOL0     N17602  -0.503   7.942   2.904  0.0325 -0.3793  0.2116
  131MOL0     C17603  -0.026   8.625   3.029  0.4968 -0.6456  0.3840
  131MOL0     C17604   0.054   8.619   3.134  0.7203  0.6369 -0.6267
  131MOL0     C17605   0.308   8.605   3.491  0.1120 -0.3762  0.7507
  131MOL0     C17606   0.407   8.710   3.477 -0.6870  0.6613  0.1940
  131MOL0     C17607   0.522   8.708   3.562  0.4566  0.8766  0.2711
  131MOL0     C17608   0.538   8.606   3.660 -0.4887  0.5083 -0.2475
  131MOL0     O17609   0.661   8.593   3.715  0.0069  0.4680 -0.1696
  131MOL0     C17610   0.682   8.496   3.825  0.9293  0.5828 -0.0198
  131MOL0     C17611   0.794   8.548   3.922  0.4240  0.1822  0.2195
  131MOL0     C17612   0.763   8.691   3.981 -0.1280  0.6296  0.5770
  131MOL0     C17613   0.872   8.789   3.987 -0.9180  0.0934 -0.0046
  131MOL0     C17614   0.940   8.798   3.856 -0.1340 -0.1670  0.1277
  131MOL0     C17615   1.004   8.791   3.749 -0.0509 -0.1622 -0.2691
  131MOL0     C17616   0.438   8.514   3.672  0.4163  0.3278  0.4231
  131MOL0     C17617   0.332   8.510   3.590 -0.0499  0.6256  0.4951
  131MOL0     H17618   0.066   8.934   3.242  2.4850 -2.6584  1.6820
  131MOL0     H17619  -0.102   8.954   3.042 -2.0998 -0.2421  1.4778
  131MOL0     H17620  -0.335   8.856   3.001 -0.6729 -0.0230 -0.2779
  131MOL0     H17621  -0.368   8.798   2.837 -1.8453 -2.6623  1.0610
  131MOL0     H17622  -0.330   8.605   3.048  2.8546  2.7716 -0.0297
  131MOL0     H17623  -0.482   8.694   3.032  0.3803  3.2081 -2.0678
  131MOL0     H17624  -0.461   8.620   2.780  0.6266  0.2091 -0.4051
  131MOL0     H17625  -0.342   8.505   2.846  0.2908 -2.6879  1.2573
  131MOL0     H17626  -0.552   8.438   3.005 -1.4113  0.5953  0.8329
  131MOL0     H17627  -0.649   8.547   2.910 -0.4914 -1.5189  3.4818
  131MOL0     H17628  -0.586   8.431   2.712 -0.5252 -1.3127 -1.2271
  131MOL0     H17629  -0.468   8.330   2.803  0.1192  0.0826  0.9963
  131MOL0     H17630  -0.772   8.329   2.831 -0.8073 -1.0523 -2.4729
  131MOL0     H17631  -0.674   8.203   2.745  0.3277 -0.6694  0.0562
  131MOL0     H17632  -0.542   8.193   2.986  0.1121  0.3972  1.9372
  131MOL0     H17633  -0.694   8.259   3.038  3.0416 -1.6428  1.2951
  131MOL0     H17634  -0.810   8.080   2.903 -0.2589 -2.0329 -1.4877
  131MOL0     H17635  -0.740   8.010   3.050 -3.3919  0.3958 -0.3299
  131MOL0     H17636  -0.744   7.958   2.682 -0.0265  1.8948  1.1620
  131MOL0     H17637  -0.419   7.780   2.561 -1.2331 -1.4735 -1.1585
  131MOL0     H17638  -0.585   7.738   2.562 -0.0766  1.7054 -0.3135
  131MOL0     H17639  -0.513   8.021   2.472 -0.1369  0.6895  2.6267
  131MOL0     H17640  -0.666   7.920   2.461  0.8315  1.4253  1.5327
  131MOL0     H17641  -0.557   7.770   2.300 -2.4990  0.1451 -0.0475
  131MOL0     H17642  -0.412   7.865   2.310  0.5413  2.3613  0.2259
  131MOL0     H17643  -0.698   7.971   2.234  0.4775 -0.5536  0.5562
  131MOL0     H17644  -0.594   7.893   2.113  3.8973 -0.7320 -0.4765
  131MOL0     H17645  -0.366   8.262   2.164  2.0587 -6.4768 -1.5276
  131MOL0     H17646  -0.240   8.418   2.034 -0.4266 -0.6001  0.6388
  131MOL0     H17647  -0.336   8.508   1.903 -2.2283  0.2974  0.1574
  131MOL0     H17648  -0.366   8.522   2.081  0.1314  2.4279 -1.5474
  131MOL0     H17649  -0.298   8.670   1.714 -1.4580 -0.4829  1.0383
  131MOL0     H17650  -0.273   8.846   1.531  1.9537 -1.2492 -0.3206
  131MOL0     H17651  -0.467   8.976   1.409  0.7144  1.5400  1.0330
  131MOL0     H17652  -0.300   9.006   1.335 -1.0292  2.3464  1.0432
  131MOL0     H17653  -0.510   9.136   1.250 -4.2264 -1.2996  0.5669
  131MOL0     H17654  -0.386   9.075   1.146 -1.6569 -2.1431 -2.7828
  131MOL0     H17655  -0.519   8.881   1.066 -1.1295 -0.3076 -2.2320
  131MOL0     H17656  -0.591   9.040   1.033  0.7339 -0.0316 -0.9015
  131MOL0     H17657  -0.701   8.833   1.208  0.3125 -1.1517 -2.9847
  131MOL0     H17658  -0.696   9.007   1.266  2.3705 -0.0800 -0.6114
  131MOL0     H17659  -0.840   8.888   1.030  0.1958 -0.5792 -0.3471
  131MOL0     H17660  -0.808   9.060   1.032 -1.6326  1.0408  0.8694
  131MOL0     H17661  -0.944   9.061   1.257 -1.2146 -1.1552 -0.1802
  131MOL0     H17662  -1.032   9.032   1.100  1.5256  2.3273 -1.7217
  131MOL0     H17663  -0.978   8.854   1.342 -2.5327 -0.1061  0.6368
  131MOL0     H17664  -0.985   8.775   1.180  1.0236  0.6109 -0.2122
  131MOL0     H17665  -1.214   8.764   1.273  0.8519 -0.0780 -2.1134
  131MOL0     H17666  -1.214   8.903   1.167  4.9675  1.5333 -1.1687
  131MOL0     H17667  -0.493   8.598   1.276  1.0358 -0.4306 -0.1617
  131MOL0     H17668  -0.535   8.437   1.425 -1.4185  1.4912 -1.8474
  131MOL0     H17669  -0.677   8.207   1.791 -0.4507 -1.9983  0.7152
  131MOL0     H17670  -0.672   8.035   1.971  1.3984 -0.7192  0.5176
  131MOL0     H17671  -0.045   8.540   2.963 -0.0671 -0.3434  0.1544
  131MOL0     H17672   0.094   8.521   3.157 -1.5699 -0.0675  0.6515
  131MOL0     H17673   0.400   8.789   3.403  3.3566  2.6252  1.6057
  131MOL0     H17674   0.600   8.778   3.535  1.6886  0.9333  3.5337
  131MOL0     H17675   0.595   8.489   3.890  1.6678  0.5969  0.9852
  131MOL0     H17676   0.703   8.398   3.780 -0.7430 -0.4574  1.3216
  131MOL0     H17677   0.882   8.539   3.857 -1.3606  0.7127 -2.4195
  131MOL0     H17678   0.798   8.475   4.003 -3.7062  1.6648  1.9891
  131MOL0     H17679   0.724   8.688   4.083 -1.1763 -0.1953  0.1672
  131MOL0     H17680   0.690   8.735   3.913  1.3158 -2.2705 -3.1653
  131MOL0     H17681   0.943   8.757   4.064  1.4784  1.7549 -1.3660
  131MOL0     H17682   0.824   8.886   4.001 -2.0733 -0.5402  0.5107
  131MOL0     H17683   1.072   8.794   3.665 -2.2155  3.6744 -2.1741
  131MOL0     H17684   0.438   8.435   3.746 -1.6161  0.4091  0.5717
  131MOL0     H17685   0.254   8.437   3.607 -1.0483  0.4215 -3.8328
  132MOL0     O17686  11.280   3.643  10.919 -0.2429 -0.4757 -0.0613
  132MOL0     C17687  11.298   3.525  10.940  0.1000  0.1435 -0.1187
  132MOL0     O17688  11.338   3.436  10.852 -0.5610  0.3687  1.0962
  132MOL0     C17689  11.330   3.471  10.716 -0.4420  0.3259  0.7309
  132MOL0     C17690  11.398   3.579  10.665 -0.0385 -0.1925  0.6471
  132MOL0     C17691  11.381   3.608  10.529  0.7833  0.2496  0.8401
  132MOL0     C17692  11.312   3.528  10.434  0.2217 -0.1196 -0.2646
  132MOL0     O17693  11.300   3.555  10.301 -0.1209  0.0423  0.7032
  132MOL0     C17694  11.305   3.689  10.256  0.3981  1.3639 -0.2318
  132MOL0     C17695  11.336   3.669  10.104  0.3101 -0.2804 -1.3467
  132MOL0     C17696  11.325   3.793  10.022  0.0120  0.4314  0.6144
  132MOL0     C17697  11.373   3.769   9.873  0.0074  0.0842  0.2434
  132MOL0     C17698  11.263   3.712   9.782  0.6550 -0.2542  0.0336
  132MOL0     C17699  11.314   3.662   9.642  1.1512  0.6478 -0.7481
  132MOL0     C17700  11.195   3.591   9.578  0.4836  0.7574 -1.0364
  132MOL0     C17701  11.116   3.673   9.475 -0.2685 -0.0543  0.1486
  132MOL0     N17702  11.185   3.663   9.342  0.7122  0.2700 -0.5217
  132MOL0     C17703  11.122   3.623   9.222 -0.3261  0.8545  0.2500
  132MOL0     C17704  11.225   3.615   9.132 -0.1922 -0.1616  0.3554
  132MOL0     C17705  11.223   3.592   8.984 -0.1109 -0.3129  0.0112
  132MOL0     C17706  11.267   3.460   8.920 -0.1801  0.1467 -0.6377
  132MOL0     C17707  11.167   3.344   8.974 -0.3399  0.1949  0.4707
  132MOL0     C17708  11.033   3.348   8.907  0.2769  0.4832 -0.4548
  132MOL0     O17709  10.957   3.234   8.940  0.5459 -0.0491  0.4259
  132MOL0     C17710  10.991   3.123   8.866  0.2129 -0.8200 -1.0154
  132MOL0     C17711  10.976   3.119   8.723 -0.7578 -0.2857 -0.6839
  132MOL0     C17712  11.015   3.005   8.644 -0.1274  0.4581  0.8896
  132MOL0     C17713  11.009   3.012   8.492  0.4963  0.2662 -0.6264
  132MOL0     C17714  11.053   2.884   8.722 -0.7143 -0.1587 -0.1198
  132MOL0     C17715  11.100   2.753   8.678 -0.4246  0.5836 -0.2812
  132MOL0     O17716  11.189   2.684   8.758  0.2729  0.6687 -0.2917
  132MOL0     C17717  11.222   2.555   8.727 -0.5835 -0.4012  0.7266
  132MOL0     C17718  11.271   2.480   8.836  0.0049 -0.7251  0.1904
  132MOL0     C17719  11.305   2.345   8.815  0.4244 -0.3102  0.3337
  132MOL0     C17720  11.311   2.289   8.685  0.4479 -0.3164  0.4397
  132MOL0     O17721  11.333   2.149   8.674 -0.6052 -0.1877 -0.0924
  132MOL0     C17722  11.404   2.102   8.556  0.5375  0.3974 -0.5736
  132MOL0     C17723  11.458   1.962   8.578  0.1002 -0.2981 -0.0496
  132MOL0     C17724  11.589   1.924   8.502 -0.0701  0.0716  0.0831
  132MOL0     C17725  11.557   1.909   8.352  0.4269  0.6673  0.2001
  132MOL0     C17726  11.678   1.870   8.262 -0.2959 -0.2032 -0.0480
  132MOL0     C17727  11.759   1.740   8.315 -0.0019 -1.3007  0.6337
  132MOL0     C17728  11.905   1.729   8.239 -0.0475 -0.2905  0.2589
  132MOL0     C17729  11.986   1.600   8.259  0.3623  0.1615 -1.2053
  132MOL0    Cl17730  11.897   1.447   8.208 -0.0390 -0.5802  0.1533
  132MOL0     C17731  11.293   2.367   8.579 -0.0544  0.3402  0.0710
  132MOL0     C17732  11.247   2.496   8.589  0.2289  0.0124 -0.1500
  132MOL0     O17733  11.043   2.706   8.577 -0.3254  0.1679  0.1714
  132MOL0     C17734  11.057   2.889   8.863 -0.1526 -0.5111 -0.5556
  132MOL0     C17735  11.039   3.013   8.934  0.4954  0.1729  0.2284
  132MOL0     N17736  11.335   3.642   9.203  0.0705  0.5940 -0.3229
  132MOL0     N17737  11.317   3.657   9.327  0.2710 -0.4363 -0.7344
  132MOL0     C17738  11.245   3.418  10.491 -0.3862 -0.4494  0.6344
  132MOL0     C17739  11.262   3.380  10.625  0.4504  0.8406  0.2558
  132MOL0     C17740  11.269   3.483  11.081 -0.1241  0.3331 -0.6924
  132MOL0     C17741  11.203   3.569  11.169  0.3691  0.6183 -0.1937
  132MOL0     C17742  11.165   3.529  11.292 -0.6348  0.0255 -0.1309
  132MOL0     C17743  11.191   3.394  11.334  0.5785  0.4298  0.0634
  132MOL0     O17744  11.145   3.354  11.462  0.0638 -0.0938 -0.6758
  132MOL0     C17745  11.086   3.224  11.482  0.3690  0.1077  0.5894
  132MOL0     C17746  10.990   3.231  11.606 -0.3244  0.1170  1.4105
  132MOL0     C17747  11.074   3.282  11.723  0.4812  0.4465 -0.8583
  132MOL0     C17748  11.019   3.233  11.858 -1.0000  0.5346 -0.0364
  132MOL0     C17749  11.064   3.092  11.880 -0.3885  0.2240 -0.1920
  132MOL0     C17750  11.101   2.982  11.913  0.8865 -0.1918 -1.4753
  132MOL0     C17751  11.272   3.310  11.249 -0.2512 -0.2418 -0.1669
  132MOL0     C17752  11.318   3.358  11.126 -0.3937  0.0193  0.3136
  132MOL0     H17753  11.442   3.648  10.736  1.1333  1.2837 -1.4027
  132MOL0     H17754  11.393   3.710  10.496 -0.8140  0.9070  2.1360
  132MOL0     H17755  11.208   3.737  10.273  0.3194  1.5141 -1.0768
  132MOL0     H17756  11.388   3.741  10.304  0.8387  0.1668  0.3666
  132MOL0     H17757  11.433   3.621  10.095  0.8332  0.7364 -1.2724
  132MOL0     H17758  11.262   3.602  10.060 -0.3653  0.5775 -1.5489
  132MOL0     H17759  11.219   3.821  10.023 -0.4624 -1.1589 -0.5768
  132MOL0     H17760  11.384   3.867  10.077  0.4572 -0.2573  1.0713
  132MOL0     H17761  11.423   3.858   9.832 -0.3479  0.8886  1.4877
  132MOL0     H17762  11.450   3.692   9.876 -0.4948 -0.3970  0.9153
  132MOL0     H17763  11.215   3.635   9.842  1.4029 -0.2457  0.6613
  132MOL0     H17764  11.193   3.795   9.767  0.7108 -0.7564 -3.8905
  132MOL0     H17765  11.347   3.750   9.587  0.3170  0.9888 -0.7031
  132MOL0     H17766  11.397   3.591   9.657 -2.5904 -4.5611 -1.8758
  132MOL0     H17767  11.234   3.502   9.528 -0.7807  1.6789 -3.9398
  132MOL0     H17768  11.129   3.560   9.659 -0.8738  2.0031 -1.6197
  132MOL0     H17769  11.098   3.777   9.505 -0.9135  0.8882 -3.0770
  132MOL0     H17770  11.017   3.625   9.468  0.1459 -1.2529  1.9620
  132MOL0     H17771  11.022   3.589   9.200  0.1477 -1.7103  1.6299
  132MOL0     H17772  11.125   3.613   8.939  0.1878  1.5438  0.1231
  132MOL0     H17773  11.276   3.674   8.934  0.9948 -2.5621 -2.7800
  132MOL0     H17774  11.367   3.430   8.953 -0.4385 -0.0604 -0.0231
  132MOL0     H17775  11.270   3.462   8.811 -0.2306  0.4921 -0.6328
  132MOL0     H17776  11.156   3.342   9.082  4.2938 -2.3648  1.1875
  132MOL0     H17777  11.227   3.258   8.941 -0.7692 -0.2309  0.7969
  132MOL0     H17778  11.035   3.364   8.799 -0.3722 -2.0775 -0.9172
  132MOL0     H17779  10.975   3.428   8.954  0.1077  1.0983 -1.6728
  132MOL0     H17780  10.931   3.201   8.669  3.3786  2.0370 -1.0211
  132MOL0     H17781  10.932   2.941   8.460  0.7737 -0.5775  0.4997
  132MOL0     H17782  10.989   3.109   8.446  0.2053 -0.5789 -2.3521
  132MOL0     H17783  11.101   2.975   8.445 -0.4421 -1.3294 -1.3021
  132MOL0     H17784  11.264   2.522   8.936  2.0502 -1.6951  0.8005
  132MOL0     H17785  11.329   2.282   8.900  0.2030  0.5340  1.0369
  132MOL0     H17786  11.340   2.098   8.467  0.8284 -1.1743 -0.7409
  132MOL0     H17787  11.482   2.176   8.533  0.1268  0.3902 -2.1436
  132MOL0     H17788  11.471   1.947   8.686  0.8240 -1.6158 -0.2878
  132MOL0     H17789  11.370   1.899   8.562 -1.1507  0.5780  2.7251
  132MOL0     H17790  11.635   1.831   8.536 -1.6874 -0.6563  0.3459
  132MOL0     H17791  11.673   1.994   8.498  0.7944 -1.0178 -2.2750
  132MOL0     H17792  11.487   1.826   8.343 -1.0642  1.8692  0.2137
  132MOL0     H17793  11.517   2.000   8.306  0.0390 -0.2041 -1.2492
  132MOL0     H17794  11.751   1.951   8.253 -1.0417  0.1872 -4.6080
  132MOL0     H17795  11.634   1.855   8.164 -1.7524  2.2015  0.1855
  132MOL0     H17796  11.781   1.749   8.422  0.4879 -1.6803  0.5688
  132MOL0     H17797  11.701   1.649   8.298 -0.6228 -0.3452 -3.2622
  132MOL0     H17798  11.958   1.821   8.263  0.8194 -0.5277 -0.6919
  132MOL0     H17799  11.890   1.715   8.131 -1.2498  0.1802  0.3441
  132MOL0     H17800  12.006   1.605   8.367  1.3771 -0.2934 -1.3646
  132MOL0     H17801  12.089   1.601   8.222  1.6125  4.1616  1.6930
  132MOL0     H17802  11.319   2.322   8.484 -0.1825 -2.9098  1.4631
  132MOL0     H17803  11.234   2.561   8.503 -0.2903 -2.4532 -2.0557
  132MOL0     H17804  11.090   2.807   8.926  3.9604  2.2609  1.3442
  132MOL0     H17805  11.059   3.009   9.040 -0.2668 -1.6337  0.3339
  132MOL0     H17806  11.187   3.356  10.424 -1.8727  1.7936 -0.2761
  132MOL0     H17807  11.196   3.300  10.656  2.4434 -1.6972 -1.6634
  132MOL0     H17808  11.180   3.674  11.151 -0.4821  0.5907  0.5891
  132MOL0     H17809  11.113   3.598  11.358 -1.5454  0.6701 -1.4776
  132MOL0     H17810  11.030   3.206  11.390  1.3052  1.2064 -0.2308
  132MOL0     H17811  11.165   3.148  11.489  0.3541  0.1263  0.9727
  132MOL0     H17812  10.947   3.131  11.623  2.3526 -0.9788  2.2077
  132MOL0     H17813  10.917   3.311  11.590  3.0117  3.1397  0.1254
  132MOL0     H17814  11.055   3.389  11.733 -2.8386 -0.1128  0.1122
  132MOL0     H17815  11.179   3.253  11.713  0.6793  0.1787  1.4684
  132MOL0     H17816  10.910   3.231  11.863 -1.1962 -1.2028 -2.9137
  132MOL0     H17817  11.071   3.299  11.927  0.8727 -1.1047  0.2218
  132MOL0     H17818  11.151   2.889  11.926 -0.3632 -0.8801 -1.4048
  132MOL0     H17819  11.292   3.207  11.279  3.0004 -0.0033 -1.1796
  132MOL0     H17820  11.379   3.290  11.067 -0.7108  0.0323 -0.0278
  133MOL0     O17821   1.420   4.766   9.292 -0.2532  0.2784 -1.1632
  133MOL0     C17822   1.505   4.697   9.235 -1.1124  0.1534 -0.1205
  133MOL0     O17823   1.580   4.738   9.128 -0.4377 -0.2240 -0.2814
  133MOL0     C17824   1.586   4.872   9.097 -0.2222 -0.1181 -0.7724
  133MOL0     C17825   1.621   4.966   9.191 -1.5064  0.2884 -0.0266
  133MOL0     C17826   1.629   5.105   9.156  0.7502  0.8396 -0.1091
  133MOL0     C17827   1.598   5.149   9.025 -0.2535 -0.3815  0.0155
  133MOL0     O17828   1.614   5.289   8.998  0.2332  0.1150 -0.4857
  133MOL0     C17829   1.577   5.353   8.870  0.3561 -0.0774  0.8269
  133MOL0     C17830   1.523   5.490   8.896 -0.7829 -0.0227  0.2995
  133MOL0     C17831   1.606   5.579   8.980 -0.6802  0.1720  0.2887
  133MOL0     C17832   1.735   5.638   8.911  0.0201  0.3090  0.3852
  133MOL0     C17833   1.798   5.733   9.007 -1.2818  0.6143  0.3411
  133MOL0     C17834   1.950   5.756   8.978  0.4042  0.3693 -1.0625
  133MOL0     C17835   1.998   5.867   9.074  0.3501 -0.2180 -0.2905
  133MOL0     C17836   2.130   5.944   9.032  0.4227  0.4537  0.3364
  133MOL0     N17837   2.102   6.059   8.935  0.7398  0.1275 -0.1440
  133MOL0     C17838   2.111   6.053   8.802 -0.5563 -0.4258 -0.2614
  133MOL0     C17839   2.083   6.180   8.759 -0.6234 -0.1850  0.1471
  133MOL0     C17840   2.086   6.239   8.616  0.3478  0.1078  0.4760
  133MOL0     C17841   2.215   6.215   8.552 -1.2198 -1.2675 -0.4161
  133MOL0     C17842   2.220   6.279   8.411 -0.4313 -0.2701  0.4570
  133MOL0     C17843   2.347   6.228   8.346 -0.3682 -0.9308  0.4977
  133MOL0     O17844   2.386   6.318   8.241  0.1396  0.8858 -0.0648
  133MOL0     C17845   2.330   6.326   8.122  0.1711  0.4949  0.1726
  133MOL0     C17846   2.403   6.398   8.033  0.3668  0.1729  1.0021
  133MOL0     C17847   2.361   6.418   7.902 -0.8457 -0.7313  0.5387
  133MOL0     C17848   2.436   6.512   7.804  0.1943 -0.1952  0.1783
  133MOL0     C17849   2.248   6.355   7.856  0.2410  0.8386  0.3278
  133MOL0     C17850   2.188   6.372   7.717  0.1386 -0.2888 -0.8798
  133MOL0     O17851   2.171   6.492   7.666 -0.5331 -0.7780 -0.3882
  133MOL0     C17852   2.112   6.505   7.542  0.1700  0.7756 -0.6467
  133MOL0     C17853   2.162   6.440   7.428 -1.0737 -0.9012 -0.1729
  133MOL0     C17854   2.106   6.461   7.301  0.4446 -0.4113  0.6494
  133MOL0     C17855   1.996   6.549   7.290 -0.2057  0.3198  0.7987
  133MOL0     O17856   1.944   6.585   7.167 -0.1690  0.0903 -0.5354
  133MOL0     C17857   1.913   6.723   7.153 -0.1919 -0.1880 -0.0262
  133MOL0     C17858   1.935   6.779   7.017 -0.1238 -0.0723  1.1974
  133MOL0     C17859   1.876   6.705   6.899 -0.2477 -1.0311  0.6983
  133MOL0     C17860   1.909   6.768   6.762  0.9187  0.7252 -0.1212
  133MOL0     C17861   1.842   6.713   6.636 -0.5803  0.5910  0.3464
  133MOL0     C17862   1.851   6.807   6.510  0.1931 -0.4921 -0.1410
  133MOL0     C17863   1.992   6.815   6.456 -0.7719 -0.0984 -1.0309
  133MOL0     C17864   1.993   6.877   6.323 -0.7570  0.5671  0.1320
  133MOL0    Cl17865   2.157   6.870   6.247  0.3158  0.3231 -0.5910
  133MOL0     C17866   1.949   6.616   7.409 -0.0351 -0.0200  0.1978
  133MOL0     C17867   1.999   6.588   7.533 -0.5092  0.3685  0.0928
  133MOL0     O17868   2.132   6.271   7.669 -0.0403 -0.1055 -1.2042
  133MOL0     C17869   2.178   6.271   7.947 -0.9040 -0.1241 -0.2185
  133MOL0     C17870   2.217   6.258   8.080  0.0730  0.7690 -0.0600
  133MOL0     N17871   2.057   6.257   8.870  0.3983  0.6380 -1.0452
  133MOL0     N17872   2.083   6.187   8.970  0.9416 -0.5040 -0.2432
  133MOL0     C17873   1.567   5.053   8.935 -0.3172 -0.7958  0.9830
  133MOL0     C17874   1.555   4.916   8.966  0.0003 -1.0436 -0.8653
  133MOL0     C17875   1.530   4.560   9.301 -0.8137  0.1066  0.7240
  133MOL0     C17876   1.461   4.524   9.417  0.5791 -0.0096  0.9497
  133MOL0     C17877   1.482   4.394   9.471  0.8098  0.3556  0.8106
  133MOL0     C17878   1.573   4.305   9.416  0.4884 -0.8613  0.6516
  133MOL0     O17879   1.611   4.182   9.471  0.1804 -0.3110 -0.3682
  133MOL0     C17880   1.580   4.149   9.612 -0.5003 -0.1951  1.2702
  133MOL0     C17881   1.649   4.246   9.699 -0.0791  0.0409  0.1137
  133MOL0     C17882   1.635   4.206   9.843  0.0514 -0.3128  0.0513
  133MOL0     C17883   1.712   4.305   9.918 -0.2429  0.3702  0.8183
  133MOL0     C17884   1.639   4.393  10.001  0.8446 -0.2235 -0.2453
  133MOL0     C17885   1.564   4.472  10.062 -0.8964 -0.8562 -0.5055
  133MOL0     C17886   1.636   4.348   9.302 -0.2864 -1.5535  0.4154
  133MOL0     C17887   1.610   4.466   9.244  0.2342 -0.5629 -0.2382
  133MOL0     H17888   1.644   4.938   9.294 -1.1276 -1.3094 -0.5233
  133MOL0     H17889   1.648   5.178   9.234 -1.0111 -0.5822  1.7283
  133MOL0     H17890   1.662   5.365   8.803 -0.6068  2.9805 -0.0094
  133MOL0     H17891   1.500   5.296   8.817 -1.2746  1.3651  1.5222
  133MOL0     H17892   1.500   5.549   8.806  1.5111  0.1039 -0.2768
  133MOL0     H17893   1.425   5.472   8.941 -1.1158  0.0046 -0.3964
  133MOL0     H17894   1.549   5.666   9.014 -0.3176 -0.4982  2.9003
  133MOL0     H17895   1.640   5.521   9.067  2.2014 -2.6455 -2.4376
  133MOL0     H17896   1.800   5.559   8.872  0.6744  1.2788 -0.5454
  133MOL0     H17897   1.695   5.692   8.825 -1.7584  2.1770  2.2894
  133MOL0     H17898   1.752   5.832   8.998  2.0243  2.2619  0.1176
  133MOL0     H17899   1.807   5.704   9.112 -0.7639  2.2391  0.7805
  133MOL0     H17900   2.012   5.669   9.001  0.9380  0.8639 -0.5849
  133MOL0     H17901   1.972   5.782   8.874 -1.2509  3.2484 -0.8162
  133MOL0     H17902   1.917   5.938   9.088 -0.2575 -1.1536  1.1231
  133MOL0     H17903   2.029   5.815   9.165 -2.9271  0.1460  1.1709
  133MOL0     H17904   2.208   5.875   9.001 -0.1448 -0.7116  1.3969
  133MOL0     H17905   2.159   5.997   9.123 -2.4871  1.3091  0.9031
  133MOL0     H17906   2.146   5.968   8.743  0.7457 -0.2255  0.1874
  133MOL0     H17907   2.008   6.180   8.568  0.8707 -0.6321  0.5275
  133MOL0     H17908   2.053   6.344   8.617 -2.9953 -0.8263  0.7858
  133MOL0     H17909   2.236   6.109   8.535 -0.4368 -1.0409 -0.9398
  133MOL0     H17910   2.299   6.259   8.608  1.5308 -0.9379 -4.3724
  133MOL0     H17911   2.223   6.387   8.425 -0.7747 -0.0229 -1.1131
  133MOL0     H17912   2.135   6.273   8.341  2.1138 -1.9204 -2.7765
  133MOL0     H17913   2.323   6.129   8.307 -0.9884  0.5672 -3.3354
  133MOL0     H17914   2.423   6.222   8.425 -0.5679  2.6931  1.1424
  133MOL0     H17915   2.495   6.442   8.070  0.7373 -0.7495  1.1996
  133MOL0     H17916   2.391   6.612   7.814  2.1309  0.4788  4.6700
  133MOL0     H17917   2.540   6.511   7.838  0.0765  1.7974  0.7433
  133MOL0     H17918   2.450   6.477   7.701  2.8745 -3.7426  1.5474
  133MOL0     H17919   2.258   6.390   7.437  0.9495  2.8967  2.6050
  133MOL0     H17920   2.137   6.414   7.208  0.6529  0.9452  0.0017
  133MOL0     H17921   1.810   6.732   7.189 -0.8198 -0.9823 -1.5600
  133MOL0     H17922   1.972   6.786   7.221 -0.1727 -0.3360  0.0955
  133MOL0     H17923   1.887   6.877   7.016 -1.7262 -0.8277  0.8637
  133MOL0     H17924   2.044   6.785   7.005 -0.0226 -3.7340 -1.3373
  133MOL0     H17925   1.768   6.689   6.905 -0.2153 -1.2454  0.7120
  133MOL0     H17926   1.914   6.603   6.900 -2.2810 -1.8221  1.7325
  133MOL0     H17927   1.881   6.872   6.777  1.6790  0.8195  0.7199
  133MOL0     H17928   2.018   6.777   6.758  0.9490  1.2407  1.2457
  133MOL0     H17929   1.736   6.700   6.661 -0.8792 -3.5516 -2.1429
  133MOL0     H17930   1.881   6.613   6.612  0.7056  1.0765  0.3246
  133MOL0     H17931   1.789   6.760   6.432 -2.0154 -0.5590  1.5601
  133MOL0     H17932   1.796   6.898   6.534 -1.5119 -0.4501 -3.5289
  133MOL0     H17933   2.038   6.716   6.457  0.2224  0.3638  0.3874
  133MOL0     H17934   2.052   6.880   6.519  0.0884 -1.1898 -0.7039
  133MOL0     H17935   1.969   6.983   6.333  0.9593  1.3069 -2.5142
  133MOL0     H17936   1.916   6.829   6.261  1.0304 -3.9339  0.9562
  133MOL0     H17937   1.870   6.688   7.388 -0.1095 -0.0594  0.3397
  133MOL0     H17938   1.965   6.634   7.625  0.6899 -2.1258  1.8939
  133MOL0     H17939   2.089   6.222   7.908 -0.1522 -2.5602  0.9425
  133MOL0     H17940   2.172   6.181   8.142  1.9297 -1.1852 -1.0048
  133MOL0     H17941   1.524   5.086   8.841 -1.0694 -1.6189  1.0185
  133MOL0     H17942   1.538   4.837   8.893 -1.5051 -1.1469 -0.4558
  133MOL0     H17943   1.390   4.591   9.466 -1.3165  0.0249 -1.6389
  133MOL0     H17944   1.430   4.374   9.564  2.0836 -5.1394  0.6706
  133MOL0     H17945   1.475   4.135   9.641 -1.3078 -1.3452 -1.8358
  133MOL0     H17946   1.643   4.063   9.635  2.4913  0.6340 -2.8215
  133MOL0     H17947   1.601   4.344   9.687  0.9607  0.7953  1.8053
  133MOL0     H17948   1.757   4.247   9.684  0.1704 -2.0072  1.4047
  133MOL0     H17949   1.677   4.106   9.850 -1.6521 -1.0224  0.6509
  133MOL0     H17950   1.527   4.207   9.864  0.5562 -0.8402  3.0321
  133MOL0     H17951   1.779   4.364   9.855 -2.2714  0.3792 -1.4878
  133MOL0     H17952   1.775   4.251   9.990  3.3248  5.3538  1.9815
  133MOL0     H17953   1.512   4.545  10.120  1.6101  0.5919  0.0628
  133MOL0     H17954   1.705   4.279   9.256 -0.2974 -1.5596  0.4081
  133MOL0     H17955   1.650   4.502   9.150 -0.9503  0.0141 -0.5269
  134MOL0     O17956   2.070  10.117   8.833 -0.3220 -0.2040 -0.5635
  134MOL0     C17957   1.989  10.090   8.926  0.9009  0.1774 -0.3790
  134MOL0     O17958   2.006  10.115   9.059 -0.4096 -0.2342 -0.8920
  134MOL0     C17959   2.133  10.156   9.093 -0.7276 -0.2215 -0.1465
  134MOL0     C17960   2.255  10.099   9.048 -0.4777  0.4982 -0.2159
  134MOL0     C17961   2.380  10.157   9.083 -0.1173  0.1694 -0.3261
  134MOL0     C17962   2.386  10.272   9.179  0.4047  0.4402  0.0773
  134MOL0     O17963   2.498  10.329   9.225 -0.3793  0.8628  0.1942
  134MOL0     C17964   2.625  10.307   9.161 -0.4214 -0.1016  0.4130
  134MOL0     C17965   2.738  10.356   9.252 -0.0462 -0.1269  0.2062
  134MOL0     C17966   2.715  10.497   9.331 -0.2813 -0.8460 -1.0620
  134MOL0     C17967   2.791  10.532   9.457 -0.6879 -0.5392 -0.1718
  134MOL0     C17968   2.709  10.631   9.539 -0.1677 -0.3088 -0.7576
  134MOL0     C17969   2.721  10.774   9.485  0.6505 -0.4463  0.8781
  134MOL0     C17970   2.633  10.875   9.560  0.5923  0.6638  0.3089
  134MOL0     C17971   2.642  11.027   9.520 -0.0404  0.4104  0.2507
  134MOL0     N17972   2.784  11.071   9.511 -0.1095 -1.0166  0.5597
  134MOL0     C17973   2.825  11.166   9.423 -0.5023 -0.7672 -0.6685
  134MOL0     C17974   2.945  11.209   9.465 -0.1966 -0.7159 -0.3164
  134MOL0     C17975   3.018  11.327   9.417 -1.0459 -0.2698 -0.4451
  134MOL0     C17976   2.967  11.460   9.460  0.5551 -0.1543 -0.6382
  134MOL0     C17977   2.819  11.480   9.429 -0.3762 -0.2695 -0.6133
  134MOL0     C17978   2.770  11.625   9.474 -0.8665 -0.5453 -0.0066
  134MOL0     O17979   2.800  11.717   9.368 -0.4153 -0.2205  0.3229
  134MOL0     C17980   2.734  11.835   9.389 -0.9480 -0.2122 -0.2654
  134MOL0     C17981   2.683  11.876   9.517 -0.8999 -0.3022  0.2690
  134MOL0     C17982   2.601  11.989   9.535  0.0928 -0.6036  0.4650
  134MOL0     C17983   2.541  12.017   9.673  0.5242  0.5264 -0.0492
  134MOL0     C17984   2.580  12.079   9.423  0.9303  0.2187  0.2451
  134MOL0     C17985   2.510  12.208   9.453 -0.4734  0.5096 -0.6056
  134MOL0     O17986   2.387  12.217   9.396 -0.0904 -0.2822 -0.0344
  134MOL0     C17987   2.291  12.291   9.472  1.0847 -0.4727 -0.6131
  134MOL0     C17988   2.197  12.373   9.406 -0.2815  0.2738  0.8990
  134MOL0     C17989   2.090  12.426   9.478 -0.4435 -0.0439 -0.1241
  134MOL0     C17990   2.081  12.403   9.615  0.1269 -0.3404 -0.1648
  134MOL0     O17991   1.980  12.458   9.692  0.0848 -0.6974  0.6010
  134MOL0     C17992   2.028  12.525   9.809 -0.8231  0.0553  0.3482
  134MOL0     C17993   1.943  12.638   9.859 -0.3569 -1.1494  0.2112
  134MOL0     C17994   1.991  12.713   9.984 -0.3558 -1.0324  0.1355
  134MOL0     C17995   1.909  12.840  10.011  0.5363  0.3360  0.2092
  134MOL0     C17996   1.905  12.865  10.159 -0.3767 -0.4960  0.5304
  134MOL0     C17997   2.042  12.878  10.234 -0.0136  0.3276  1.0735
  134MOL0     C17998   2.025  12.876  10.393 -0.1857  0.9022  0.4425
  134MOL0     C17999   1.927  12.768  10.440  0.0370 -0.2314  1.2231
  134MOL0    Cl18000   1.909  12.760  10.626  0.0656  0.5510  0.1064
  134MOL0     C18001   2.178  12.324   9.683  0.6365  0.3567 -0.5792
  134MOL0     C18002   2.275  12.263   9.605  1.1940 -1.4631 -0.2124
  134MOL0     O18003   2.562  12.291   9.528  0.6060  0.2755 -0.0174
  134MOL0     C18004   2.634  12.041   9.294  0.8859 -0.7975 -0.4747
  134MOL0     C18005   2.704  11.921   9.282 -0.0232  0.2392 -1.0357
  134MOL0     N18006   2.982  11.122   9.571  0.0096 -0.1814 -0.9148
  134MOL0     N18007   2.879  11.050   9.600 -0.3505  0.8192  0.6369
  134MOL0     C18008   2.260  10.315   9.226 -0.7305  0.4248 -0.4183
  134MOL0     C18009   2.138  10.256   9.190 -0.4507  0.2510 -0.5185
  134MOL0     C18010   1.846  10.061   8.895 -0.0253 -0.1254 -0.2969
  134MOL0     C18011   1.773   9.983   8.982  0.3703 -0.4540 -0.3059
  134MOL0     C18012   1.637   9.961   8.962  0.0092 -0.0969 -0.4564
  134MOL0     C18013   1.577   9.996   8.836  0.6098  0.4923 -0.5463
  134MOL0     O18014   1.446   9.961   8.811  0.0097 -0.0077  0.1587
  134MOL0     C18015   1.357   9.965   8.919 -1.2065 -0.3068 -0.4733
  134MOL0     C18016   1.229   9.999   8.848 -0.1460 -0.2626  0.0168
  134MOL0     C18017   1.192   9.884   8.756 -0.7158  0.0516 -0.3450
  134MOL0     C18018   1.080   9.930   8.660 -0.1960 -0.3849  0.3921
  134MOL0     C18019   1.116  10.039   8.562 -0.4678  0.5819 -0.1270
  134MOL0     C18020   1.134  10.129   8.477 -0.7748  1.1295  0.4419
  134MOL0     C18021   1.654  10.062   8.741  0.2160 -0.9678 -1.1227
  134MOL0     C18022   1.787  10.098   8.768  0.3929 -0.0666  0.2459
  134MOL0     H18023   2.244  10.023   8.971 -1.4620  2.6551 -2.3138
  134MOL0     H18024   2.474  10.122   9.041  0.0735  0.1574  0.1067
  134MOL0     H18025   2.643  10.202   9.136 -0.2227 -0.0285  0.2380
  134MOL0     H18026   2.623  10.357   9.064  1.3145 -1.6457 -0.4802
  134MOL0     H18027   2.756  10.280   9.330 -4.5794  1.9541  3.7065
  134MOL0     H18028   2.832  10.365   9.196  0.5948 -0.3408  1.2102
  134MOL0     H18029   2.739  10.577   9.260  0.9158  0.0485  0.3088
  134MOL0     H18030   2.612  10.488   9.368  1.3506 -1.9358  4.1078
  134MOL0     H18031   2.801  10.439   9.513  0.5567 -1.0641 -1.2111
  134MOL0     H18032   2.894  10.569   9.456 -0.3169 -1.5182  0.7118
  134MOL0     H18033   2.606  10.597   9.550  1.4933 -6.7343 -1.0449
  134MOL0     H18034   2.749  10.634   9.641  0.1538  2.1129 -0.9020
  134MOL0     H18035   2.824  10.810   9.482  0.9963 -1.4466 -0.6217
  134MOL0     H18036   2.686  10.778   9.381 -2.3090  0.6193  1.8076
  134MOL0     H18037   2.528  10.846   9.553  0.2993  0.1053  4.5007
  134MOL0     H18038   2.666  10.873   9.664 -0.0528 -0.1185  0.5047
  134MOL0     H18039   2.592  11.090   9.594 -0.7582  0.3531 -0.1717
  134MOL0     H18040   2.602  11.042   9.419 -1.6982 -1.7422  0.5066
  134MOL0     H18041   2.773  11.207   9.338  1.0306  0.3533 -1.1104
  134MOL0     H18042   3.117  11.320   9.462  0.2538  0.6680 -2.9399
  134MOL0     H18043   3.020  11.326   9.307 -2.7966 -0.8545 -0.5058
  134MOL0     H18044   3.020  11.540   9.406 -4.1144  1.4838 -3.3938
  134MOL0     H18045   2.983  11.466   9.568  2.5469 -4.4607 -0.4885
  134MOL0     H18046   2.766  11.407   9.489 -0.0704  0.2009  0.2398
  134MOL0     H18047   2.793  11.452   9.326  0.4184 -2.1139 -0.3522
  134MOL0     H18048   2.821  11.657   9.565 -0.5643 -0.9017 -0.0516
  134MOL0     H18049   2.664  11.620   9.501 -0.6671 -0.2962  0.8714
  134MOL0     H18050   2.694  11.811   9.603 -0.6796 -0.3625  0.1946
  134MOL0     H18051   2.586  11.947   9.744 -0.5318  0.4548  0.5747
  134MOL0     H18052   2.576  12.115   9.708 -0.0272 -0.4508  3.6095
  134MOL0     H18053   2.432  12.011   9.677  0.5834 -0.1999  0.6693
  134MOL0     H18054   2.210  12.395   9.301 -1.6720  0.2484  0.7002
  134MOL0     H18055   2.002  12.475   9.437 -3.0031 -2.4921  2.0561
  134MOL0     H18056   2.034  12.447   9.885 -3.1767 -0.8610 -0.3192
  134MOL0     H18057   2.121  12.574   9.780 -1.7859  2.2129  0.6867
  134MOL0     H18058   1.918  12.706   9.777  1.7573  0.8694  1.1513
  134MOL0     H18059   1.844  12.594   9.877  0.3176 -2.0596  1.9202
  134MOL0     H18060   2.096  12.736   9.965 -0.2854 -2.4342 -1.3210
  134MOL0     H18061   1.982  12.639  10.064  1.5768 -0.3681  1.0345
  134MOL0     H18062   1.941  12.932   9.960 -1.4339  1.1659  0.3719
  134MOL0     H18063   1.803  12.841   9.984 -0.2816  0.0355  3.0523
  134MOL0     H18064   1.849  12.786  10.209  1.2366 -0.5728  2.3216
  134MOL0     H18065   1.858  12.960  10.189  1.1510  0.1173  1.0738
  134MOL0     H18066   2.120  12.803  10.217 -0.3056  0.5225 -1.4473
  134MOL0     H18067   2.092  12.969  10.200  1.2271 -0.8023 -0.2355
  134MOL0     H18068   1.982  12.970  10.429 -0.9838  1.5313 -1.9099
  134MOL0     H18069   2.122  12.847  10.432 -0.6704 -0.0089  0.9871
  134MOL0     H18070   1.955  12.667  10.407 -3.5110  0.0911 -4.0734
  134MOL0     H18071   1.824  12.774  10.405 -0.4762  1.3968  2.8688
  134MOL0     H18072   2.179  12.293   9.788 -2.4662 -0.1777 -0.6226
  134MOL0     H18073   2.343  12.202   9.665  1.0099 -1.4276  0.0356
  134MOL0     H18074   2.619  12.108   9.210 -3.3106 -1.6300 -0.6249
  134MOL0     H18075   2.743  11.883   9.187  0.6106 -0.5527 -0.4735
  134MOL0     H18076   2.256  10.400   9.294 -4.0097 -0.5203  0.7540
  134MOL0     H18077   2.051  10.315   9.218  0.6513  0.8400  1.9695
  134MOL0     H18078   1.826   9.949   9.071  0.1234 -2.4641 -0.8621
  134MOL0     H18079   1.578   9.932   9.048  1.1156  1.9739  1.0821
  134MOL0     H18080   1.345   9.869   8.970 -1.7304  0.2512  0.4688
  134MOL0     H18081   1.387  10.041   8.991 -3.5416  1.7066 -1.4832
  134MOL0     H18082   1.244  10.091   8.791  2.9454 -1.1172 -0.7503
  134MOL0     H18083   1.149  10.020   8.919  1.3312 -1.2928  2.0884
  134MOL0     H18084   1.161   9.809   8.830  3.7996 -0.7435  1.0797
  134MOL0     H18085   1.270   9.840   8.693 -0.3957 -2.0007  1.3842
  134MOL0     H18086   0.994   9.963   8.719  0.5652 -0.4267  1.5717
  134MOL0     H18087   1.047   9.840   8.607 -2.6143  0.5542  0.2068
  134MOL0     H18088   1.136  10.206   8.403 -2.2363  0.3622 -0.4540
  134MOL0     H18089   1.606  10.076   8.645 -1.7373 -2.1195 -0.3820
  134MOL0     H18090   1.836  10.160   8.693 -2.1799  0.0462 -1.4558
  135MOL0     O18091   2.219   3.665   2.839  0.1108 -0.4314 -0.3147
  135MOL0     C18092   2.234   3.621   2.725  0.3763  0.3886 -0.4057
  135MOL0     O18093   2.156   3.651   2.622 -0.0072 -0.1643 -0.5689
  135MOL0     C18094   2.051   3.726   2.634  0.1966 -0.4334  0.6073
  135MOL0     C18095   2.066   3.867   2.636  0.5760 -0.5448 -0.6716
  135MOL0     C18096   1.953   3.945   2.669  0.0865  0.3970  0.8736
  135MOL0     C18097   1.826   3.886   2.688 -0.0312 -0.2963  0.0215
  135MOL0     O18098   1.715   3.971   2.683 -0.1195  0.5546 -0.3037
  135MOL0     C18099   1.697   4.032   2.808 -0.6097  0.2251 -0.1161
  135MOL0     C18100   1.575   4.125   2.786 -1.3114  0.2838 -0.6968
  135MOL0     C18101   1.447   4.050   2.780 -0.3012  0.1368  0.2134
  135MOL0     C18102   1.325   4.137   2.786 -0.3336  1.1616  0.1838
  135MOL0     C18103   1.201   4.049   2.759  0.3729  0.6978  0.5936
  135MOL0     C18104   1.107   4.146   2.694  0.1828 -0.4219  0.7948
  135MOL0     C18105   1.127   4.150   2.539  0.1923 -0.1721 -0.0176
  135MOL0     C18106   1.023   4.259   2.485  0.2972  0.7888 -0.2677
  135MOL0     N18107   1.056   4.283   2.346 -0.0403  0.7820 -0.3809
  135MOL0     C18108   0.986   4.244   2.232 -0.2292 -0.3400 -0.5408
  135MOL0     C18109   1.063   4.276   2.127  0.8765 -0.4371 -0.0401
  135MOL0     C18110   1.033   4.267   1.984  1.9013  0.3672  0.5208
  135MOL0     C18111   0.916   4.172   1.954  0.5958 -0.5493  0.0762
  135MOL0     C18112   0.957   4.029   1.935 -0.3451 -0.6893  0.1678
  135MOL0     C18113   1.001   3.950   2.061  0.3726  0.0272  0.1971
  135MOL0     O18114   0.889   3.948   2.156 -0.3836 -0.1276 -0.2450
  135MOL0     C18115   0.929   3.893   2.283  0.3352 -0.0309 -0.4861
  135MOL0     C18116   1.033   3.799   2.313 -0.6477 -0.4013 -0.2891
  135MOL0     C18117   1.048   3.730   2.431  0.5797 -1.1741 -0.1831
  135MOL0     C18118   1.161   3.630   2.437 -0.0362  0.4985 -0.1978
  135MOL0     C18119   0.961   3.768   2.537 -0.1942  0.1946 -0.1536
  135MOL0     C18120   0.970   3.710   2.673 -0.1164 -0.5081 -0.2264
  135MOL0     O18121   0.863   3.704   2.750 -0.2780 -0.8285  0.3952
  135MOL0     C18122   0.870   3.713   2.887  0.7461 -0.0523 -0.7125
  135MOL0     C18123   0.957   3.809   2.952  0.4071 -0.0438  0.4107
  135MOL0     C18124   0.963   3.824   3.085 -0.4122 -1.0471 -0.2143
  135MOL0     C18125   0.869   3.757   3.164 -0.2928 -0.1169 -0.1512
  135MOL0     O18126   0.875   3.791   3.298  0.2633 -0.1944 -0.2011
  135MOL0     C18127   0.793   3.709   3.385 -0.3614 -0.2956 -0.3807
  135MOL0     C18128   0.814   3.755   3.532  0.2069  0.8125 -0.7446
  135MOL0     C18129   0.688   3.734   3.618 -1.0090 -0.1041  0.9092
  135MOL0     C18130   0.633   3.876   3.655  0.5614  0.8269  0.8495
  135MOL0     C18131   0.511   3.871   3.755 -0.8133 -0.2400 -0.9587
  135MOL0     C18132   0.460   4.007   3.813 -0.3087 -0.0018  1.4907
  135MOL0     C18133   0.346   3.990   3.927 -0.5734  1.0287  0.6195
  135MOL0     C18134   0.207   3.985   3.866  0.1095  0.6894 -0.5409
  135MOL0    Cl18135   0.171   3.823   3.803  0.3850  0.3824  0.2054
  135MOL0     C18136   0.776   3.670   3.097  0.2917  0.0010 -0.1504
  135MOL0     C18137   0.781   3.649   2.964  0.1016  0.6471  0.1788
  135MOL0     O18138   1.083   3.690   2.720  0.5154  0.8528 -0.3095
  135MOL0     C18139   0.858   3.868   2.511  0.3042  0.6907 -0.9314
  135MOL0     C18140   0.844   3.915   2.390  0.1306  0.1930 -0.9548
  135MOL0     N18141   1.173   4.341   2.180  0.5521 -0.4486  0.4547
  135MOL0     N18142   1.181   4.335   2.304 -0.2565 -0.9220 -0.3467
  135MOL0     C18143   1.818   3.748   2.682  1.0469 -0.2602  0.1507
  135MOL0     C18144   1.922   3.670   2.655 -0.4203  0.5032 -0.1576
  135MOL0     C18145   2.353   3.538   2.708  0.2545  0.3747  0.2768
  135MOL0     C18146   2.413   3.475   2.818 -0.6504 -0.0486  0.1517
  135MOL0     C18147   2.530   3.397   2.801  1.2393 -0.1764  0.1935
  135MOL0     C18148   2.597   3.379   2.678 -0.3058  0.1959 -0.2541
  135MOL0     O18149   2.708   3.300   2.681  0.7369  0.5799 -0.8645
  135MOL0     C18150   2.763   3.243   2.553 -0.7729 -0.5160 -0.0436
  135MOL0     C18151   2.857   3.123   2.565  0.5356 -0.1732 -0.6963
  135MOL0     C18152   2.962   3.120   2.457  0.0270 -0.5814 -0.1713
  135MOL0     C18153   2.891   3.091   2.323 -0.8337 -0.7842 -0.0903
  135MOL0     C18154   2.985   3.036   2.233  0.4497  0.8160  0.0518
  135MOL0     C18155   3.079   2.991   2.169  0.5860 -0.7905 -0.1409
  135MOL0     C18156   2.549   3.460   2.572 -0.2736 -0.1518 -0.1300
  135MOL0     C18157   2.430   3.530   2.584 -0.5644  0.1392  0.3772
  135MOL0     H18158   2.156   3.925   2.619  0.8692 -1.3500 -2.0566
  135MOL0     H18159   1.968   4.052   2.670 -0.8579  0.5326  1.8034
  135MOL0     H18160   1.672   3.961   2.886 -2.8173  1.6580  0.5824
  135MOL0     H18161   1.776   4.104   2.831 -0.2073  0.4440 -1.9546
  135MOL0     H18162   1.581   4.193   2.872  0.3614 -0.7030  0.0269
  135MOL0     H18163   1.593   4.187   2.698 -1.9741 -1.4594 -2.0876
  135MOL0     H18164   1.454   3.998   2.684 -3.5450 -2.6457  1.2776
  135MOL0     H18165   1.449   3.979   2.863  0.3043  0.9317  0.9026
  135MOL0     H18166   1.319   4.164   2.891 -2.2570 -1.5857  0.8992
  135MOL0     H18167   1.329   4.221   2.715 -0.5572 -1.0083 -2.5716
  135MOL0     H18168   1.223   3.960   2.699  0.2304  1.9813 -1.4462
  135MOL0     H18169   1.156   4.017   2.854  0.8544  1.9772  1.2734
  135MOL0     H18170   1.005   4.116   2.717  0.1181  1.5626  3.5323
  135MOL0     H18171   1.117   4.250   2.729  4.2584  0.0047 -1.0238
  135MOL0     H18172   1.227   4.182   2.508  0.4523 -1.3843 -0.4732
  135MOL0     H18173   1.095   4.058   2.489 -0.6282  0.4044 -0.5911
  135MOL0     H18174   1.034   4.359   2.530  1.0499  0.5320  0.1270
  135MOL0     H18175   0.916   4.243   2.503  1.0524 -0.5979  4.3360
  135MOL0     H18176   0.884   4.208   2.223 -0.5167  0.4587 -0.5980
  135MOL0     H18177   1.012   4.369   1.952  1.7776  0.3975  0.6960
  135MOL0     H18178   1.116   4.240   1.918  0.5219  2.3774 -2.2398
  135MOL0     H18179   0.866   4.201   1.862 -0.9547  2.7582  1.7734
  135MOL0     H18180   0.840   4.184   2.032  0.7406 -0.3999  0.1957
  135MOL0     H18181   1.025   4.016   1.850 -0.4183  1.0997 -0.2051
  135MOL0     H18182   0.857   3.986   1.926 -0.3923 -0.7549  0.9619
  135MOL0     H18183   1.086   3.989   2.117 -0.2613  1.2279  0.3404
  135MOL0     H18184   1.014   3.846   2.027 -1.2014  0.3424 -1.5549
  135MOL0     H18185   1.094   3.774   2.227  0.8515  0.8651  0.3541
  135MOL0     H18186   1.169   3.564   2.349 -0.1790 -0.6164  0.6007
  135MOL0     H18187   1.256   3.677   2.463 -0.0476  0.3566  0.0938
  135MOL0     H18188   1.143   3.556   2.516 -0.2143  1.4193  0.6356
  135MOL0     H18189   1.021   3.867   2.886  0.2938  0.8765  1.1032
  135MOL0     H18190   1.039   3.892   3.123 -1.2089  1.0976 -2.2279
  135MOL0     H18191   0.687   3.723   3.363  0.0771  1.1329 -1.8158
  135MOL0     H18192   0.823   3.605   3.370  3.1140  0.9780 -4.1415
  135MOL0     H18193   0.897   3.692   3.565 -2.0538 -0.9372  2.0095
  135MOL0     H18194   0.843   3.860   3.543  1.0393  0.8742 -3.0012
  135MOL0     H18195   0.714   3.677   3.707  2.1770 -0.0117  0.1679
  135MOL0     H18196   0.608   3.682   3.565 -1.8641  1.9115  0.1256
  135MOL0     H18197   0.715   3.936   3.697  0.0418  4.1320 -2.3378
  135MOL0     H18198   0.593   3.940   3.577 -1.9691  0.5319  1.8226
  135MOL0     H18199   0.538   3.808   3.839 -1.1359  3.1983  1.9632
  135MOL0     H18200   0.421   3.831   3.706 -2.6808 -0.8370  2.5920
  135MOL0     H18201   0.553   4.053   3.846  2.2464 -4.0269  0.5078
  135MOL0     H18202   0.421   4.070   3.732  0.8321 -1.4971 -0.2903
  135MOL0     H18203   0.347   4.075   3.996 -1.1027 -1.3283  3.8152
  135MOL0     H18204   0.376   3.896   3.976  0.4089  1.5252  0.9941
  135MOL0     H18205   0.196   4.052   3.780  1.7765 -1.1676 -2.2894
  135MOL0     H18206   0.140   4.011   3.949  4.0720 -2.0355  4.0588
  135MOL0     H18207   0.703   3.621   3.161 -0.4882  1.0177 -0.2330
  135MOL0     H18208   0.714   3.573   2.925 -0.3930  0.4282  1.4377
  135MOL0     H18209   0.792   3.898   2.591 -1.7527  0.3156 -2.4228
  135MOL0     H18210   0.762   3.986   2.378 -1.7781 -2.1312 -2.8896
  135MOL0     H18211   1.721   3.701   2.689  1.0781 -0.8503 -2.4290
  135MOL0     H18212   1.920   3.562   2.668  2.0487  0.5313  1.0451
  135MOL0     H18213   2.375   3.488   2.918 -2.1842  1.1381 -0.5588
  135MOL0     H18214   2.562   3.344   2.890 -0.6665 -0.7264  0.6072
  135MOL0     H18215   2.682   3.206   2.490 -0.3116 -1.1190 -0.2867
  135MOL0     H18216   2.820   3.327   2.511  2.9967 -2.8629 -0.1415
  135MOL0     H18217   2.797   3.031   2.561 -1.1015  0.7810  0.6452
  135MOL0     H18218   2.898   3.121   2.667 -2.0797  2.9788  0.5879
  135MOL0     H18219   3.033   3.045   2.491 -0.8217 -0.4547  2.0304
  135MOL0     H18220   3.021   3.212   2.447 -1.4689  0.2859 -1.6741
  135MOL0     H18221   2.842   3.182   2.288 -3.5330 -1.6847  1.0403
  135MOL0     H18222   2.817   3.011   2.334 -0.3631 -1.6341 -2.4495
  135MOL0     H18223   3.164   2.946   2.120 -0.3105 -1.1161 -1.4651
  135MOL0     H18224   2.588   3.471   2.471  2.0812 -2.6503  0.3915
  135MOL0     H18225   2.394   3.577   2.494 -0.9314  0.7014  0.8107
  136MOL0     O18226   3.812   0.185   0.914  0.2584 -0.4168 -0.0492
  136MOL0     C18227   3.821   0.178   0.789  0.0769 -0.2726 -0.0030
  136MOL0     O18228   3.773   0.081   0.704  0.0674 -1.0223 -0.1286
  136MOL0     C18229   3.728  -0.045   0.745 -0.5077 -0.7377 -0.6245
  136MOL0     C18230   3.694  -0.093   0.877 -0.3370 -0.5977 -0.8408
  136MOL0     C18231   3.666  -0.230   0.895  0.1328  0.2706 -0.0194
  136MOL0     C18232   3.664  -0.319   0.783  0.7956  0.1914 -0.1719
  136MOL0     O18233   3.612  -0.447   0.806  0.1464 -0.2003  0.4722
  136MOL0     C18234   3.610  -0.544   0.695 -0.1600 -0.0702 -0.5078
  136MOL0     C18235   3.559  -0.687   0.740  0.4763  0.0137  0.3710
  136MOL0     C18236   3.646  -0.756   0.847  0.5068  1.4515  0.0470
  136MOL0     C18237   3.589  -0.891   0.891  1.1732 -0.7711 -0.0242
  136MOL0     C18238   3.669  -0.980   0.990  0.2601 -0.2569  0.4935
  136MOL0     C18239   3.772  -1.076   0.914 -0.0271 -0.1590  0.3835
  136MOL0     C18240   3.837  -1.190   0.984 -0.2113  0.5872  0.2670
  136MOL0     C18241   3.750  -1.276   1.082 -0.4391 -0.0800  0.3031
  136MOL0     N18242   3.638  -1.344   1.015 -0.7889 -0.1746  0.2852
  136MOL0     C18243   3.507  -1.312   1.007 -0.2506 -0.5445  0.3478
  136MOL0     C18244   3.449  -1.408   0.928 -0.6141 -1.0922  0.1033
  136MOL0     C18245   3.313  -1.420   0.859 -0.4001 -0.0411  0.2651
  136MOL0     C18246   3.248  -1.287   0.815  0.3739 -0.1948  0.6349
  136MOL0     C18247   3.117  -1.319   0.740 -0.5685 -0.1763 -0.4362
  136MOL0     C18248   3.039  -1.199   0.695  0.6861 -0.4637  0.9185
  136MOL0     O18249   3.014  -1.108   0.802 -0.2759 -0.1140  0.4166
  136MOL0     C18250   2.946  -0.993   0.778 -0.3895  0.1027 -0.1336
  136MOL0     C18251   2.930  -0.918   0.893  0.3827 -0.6925 -1.2117
  136MOL0     C18252   2.863  -0.790   0.894 -0.5107 -0.0172 -0.6895
  136MOL0     C18253   2.834  -0.731   1.027 -0.0425 -0.0446 -0.3007
  136MOL0     C18254   2.820  -0.733   0.766  0.1085 -0.0263 -0.2299
  136MOL0     C18255   2.747  -0.608   0.747  0.7457  0.2728  0.0951
  136MOL0     O18256   2.722  -0.576   0.611  0.7895 -0.0240 -0.3780
  136MOL0     C18257   2.663  -0.454   0.584 -0.4093 -0.7474  0.6244
  136MOL0     C18258   2.566  -0.432   0.474 -0.2289  0.5390  0.0509
  136MOL0     C18259   2.517  -0.313   0.438  1.1211 -0.6464  0.1181
  136MOL0     C18260   2.577  -0.196   0.491  0.2601 -0.6734  0.0809
  136MOL0     O18261   2.524  -0.081   0.445 -0.2711  0.1533 -0.8265
  136MOL0     C18262   2.613   0.032   0.447  0.3740  0.0361 -0.5188
  136MOL0     C18263   2.738   0.010   0.361 -1.3281 -0.6152  0.4958
  136MOL0     C18264   2.805   0.149   0.351  0.2620 -0.3168 -0.6863
  136MOL0     C18265   2.940   0.143   0.284 -0.1258 -0.2673 -0.2262
  136MOL0     C18266   3.004   0.281   0.275  0.7247 -0.0557 -0.2280
  136MOL0     C18267   3.100   0.303   0.160 -0.1281 -0.0494  0.2588
  136MOL0     C18268   3.162   0.447   0.170 -0.2687 -0.0993  0.3282
  136MOL0     C18269   3.241   0.487   0.043  1.3235 -0.7210 -0.0938
  136MOL0    Cl18270   3.292   0.654   0.066  0.0763 -0.0119 -0.4709
  136MOL0     C18271   2.688  -0.203   0.582  0.0583  0.4386  0.4081
  136MOL0     C18272   2.721  -0.330   0.635 -0.1866  0.1094 -0.2614
  136MOL0     O18273   2.720  -0.538   0.838 -0.1633  0.1277 -0.6221
  136MOL0     C18274   2.840  -0.817   0.650  0.5716 -0.0090 -0.3279
  136MOL0     C18275   2.892  -0.951   0.663  0.1263 -0.6371 -0.6583
  136MOL0     N18276   3.542  -1.499   0.903  0.5441  0.2982 -0.1950
  136MOL0     N18277   3.646  -1.467   0.960 -0.4313 -0.5286  0.5123
  136MOL0     C18278   3.668  -0.273   0.655  0.7404 -0.8340 -0.1757
  136MOL0     C18279   3.715  -0.138   0.638  0.5695  0.2123  0.6545
  136MOL0     C18280   3.892   0.282   0.722 -0.0877  0.5213  0.5296
  136MOL0     C18281   3.937   0.396   0.790  0.0810  0.3053  0.2452
  136MOL0     C18282   4.014   0.494   0.734  0.1260 -0.5285  0.5919
  136MOL0     C18283   4.070   0.486   0.601 -0.6200  0.3999  0.2804
  136MOL0     O18284   4.157   0.579   0.557 -0.3405 -0.6098 -0.1648
  136MOL0     C18285   4.116   0.715   0.553  0.1455  0.7117 -0.1038
  136MOL0     C18286   4.230   0.788   0.483  0.3449  0.7521 -0.0521
  136MOL0     C18287   4.360   0.793   0.551  0.0633  0.4598  0.9776
  136MOL0     C18288   4.450   0.896   0.479  0.2075  1.0430 -0.6184
  136MOL0     C18289   4.548   0.954   0.563 -0.3817 -1.1203 -0.7548
  136MOL0     C18290   4.638   0.979   0.644 -0.3537 -0.4747  0.6298
  136MOL0     C18291   4.019   0.383   0.526 -0.1696  0.0448  0.0635
  136MOL0     C18292   3.931   0.278   0.586 -0.6696  0.6290 -0.0922
  136MOL0     H18293   3.698  -0.032   0.967 -0.1001 -1.0482 -0.5411
  136MOL0     H18294   3.645  -0.271   0.993  2.1197  1.4480  0.9662
  136MOL0     H18295   3.540  -0.503   0.622 -0.1995 -0.4251 -0.6695
  136MOL0     H18296   3.714  -0.549   0.661 -0.7727 -0.2818 -2.4360
  136MOL0     H18297   3.454  -0.671   0.768  0.1604  2.0120 -1.6710
  136MOL0     H18298   3.564  -0.750   0.651  2.1749  0.6459 -0.0185
  136MOL0     H18299   3.745  -0.777   0.807  0.4622  1.8617 -0.2818
  136MOL0     H18300   3.652  -0.693   0.936 -0.9729  0.3577  0.9650
  136MOL0     H18301   3.487  -0.880   0.928 -0.3735 -2.5809 -3.2198
  136MOL0     H18302   3.585  -0.956   0.803  1.7979  1.6877 -1.9982
  136MOL0     H18303   3.717  -0.921   1.069 -1.3558  3.0927 -0.8121
  136MOL0     H18304   3.603  -1.052   1.038  1.8710 -1.8397  0.4640
  136MOL0     H18305   3.716  -1.133   0.839 -0.5306 -0.0753  0.7009
  136MOL0     H18306   3.853  -1.014   0.873  0.3260 -1.1533 -0.4694
  136MOL0     H18307   3.883  -1.266   0.919 -0.1241  1.0950 -0.2764
  136MOL0     H18308   3.920  -1.146   1.040  0.2477  1.3300 -0.9462
  136MOL0     H18309   3.724  -1.195   1.152  2.7309  1.4139 -0.0486
  136MOL0     H18310   3.813  -1.350   1.132 -1.2272 -1.5267 -0.7701
  136MOL0     H18311   3.465  -1.219   1.044  0.3286  0.0139 -0.3798
  136MOL0     H18312   3.317  -1.487   0.773 -3.5002  0.4493 -0.3663
  136MOL0     H18313   3.253  -1.477   0.930 -2.9250  0.9368 -0.9608
  136MOL0     H18314   3.315  -1.234   0.746  0.3563  2.1822  2.3513
  136MOL0     H18315   3.230  -1.231   0.906 -0.8398  0.5704 -0.0541
  136MOL0     H18316   3.053  -1.369   0.813  0.4009  1.7260  1.8166
  136MOL0     H18317   3.151  -1.386   0.661  1.7695 -1.3786  1.4670
  136MOL0     H18318   2.947  -1.239   0.651  0.7220 -0.5493  0.9201
  136MOL0     H18319   3.098  -1.141   0.623  0.1355  1.6356  2.0733
  136MOL0     H18320   2.954  -0.967   0.986 -1.0649 -1.3598 -1.1540
  136MOL0     H18321   2.866  -0.800   1.106 -1.5488  0.1184  0.4868
  136MOL0     H18322   2.880  -0.633   1.042 -1.6724  0.9511 -1.4777
  136MOL0     H18323   2.725  -0.719   1.020 -0.1117 -1.4323 -4.2132
  136MOL0     H18324   2.526  -0.521   0.427 -1.8853  1.9037 -1.2411
  136MOL0     H18325   2.425  -0.304   0.381 -0.0286  0.9676  2.0943
  136MOL0     H18326   2.563   0.115   0.397  2.7838  0.8570 -1.7163
  136MOL0     H18327   2.626   0.068   0.549 -2.1627  2.2131 -0.8431
  136MOL0     H18328   2.803  -0.063   0.410 -0.3130  0.1315  0.2945
  136MOL0     H18329   2.704  -0.014   0.260  0.7336  0.2753 -0.4555
  136MOL0     H18330   2.811   0.196   0.449  1.0363  0.1175 -0.9346
  136MOL0     H18331   2.738   0.218   0.298 -2.3095 -0.5192  2.0508
  136MOL0     H18332   3.010   0.070   0.326 -0.5151 -1.1099 -1.0011
  136MOL0     H18333   2.918   0.112   0.181  1.0492  2.0195 -1.2344
  136MOL0     H18334   3.059   0.318   0.363 -0.0792  3.7759 -1.1686
  136MOL0     H18335   2.926   0.355   0.257  0.3353 -0.3539  0.2039
  136MOL0     H18336   3.177   0.225   0.149 -3.0543 -3.0141 -0.7428
  136MOL0     H18337   3.041   0.314   0.068 -0.7655  0.5992  0.7390
  136MOL0     H18338   3.234   0.449   0.253 -0.0064 -0.7658  0.1267
  136MOL0     H18339   3.086   0.524   0.187  0.4442  1.2467 -2.0832
  136MOL0     H18340   3.182   0.486  -0.049  0.5210  0.6249  0.3805
  136MOL0     H18341   3.324   0.417   0.029 -1.0513 -3.6488 -0.8114
  136MOL0     H18342   2.739  -0.113   0.614  2.4852 -0.1591 -1.4933
  136MOL0     H18343   2.807  -0.337   0.701 -0.9587 -0.7251  0.6963
  136MOL0     H18344   2.812  -0.781   0.552  0.2438  0.9867  0.1122
  136MOL0     H18345   2.905  -0.996   0.564 -0.5626  1.3749 -1.7075
  136MOL0     H18346   3.645  -0.335   0.568 -1.8764  0.7665 -0.7226
  136MOL0     H18347   3.733  -0.101   0.538 -1.5572  1.7685  0.7825
  136MOL0     H18348   3.899   0.402   0.892  1.0881 -1.2428  0.7670
  136MOL0     H18349   4.050   0.574   0.798 -0.7946  1.1098 -0.8399
  136MOL0     H18350   4.024   0.710   0.495  1.0887 -2.4477 -1.5511
  136MOL0     H18351   4.107   0.763   0.651 -0.3440  0.3556  0.0259
  136MOL0     H18352   4.182   0.885   0.467 -0.8448  0.3121  0.6840
  136MOL0     H18353   4.242   0.735   0.388 -1.9502  2.5748 -1.4832
  136MOL0     H18354   4.400   0.692   0.539 -0.3071  0.4376 -0.2083
  136MOL0     H18355   4.347   0.825   0.655 -0.7861 -1.0022  1.3455
  136MOL0     H18356   4.391   0.972   0.426 -0.2387  0.8813 -0.3563
  136MOL0     H18357   4.504   0.859   0.391 -1.6841  0.8808 -1.7817
  136MOL0     H18358   4.716   1.001   0.714 -2.9263  2.1897  2.9443
  136MOL0     H18359   4.052   0.382   0.423  1.0918 -0.8273  0.4576
  136MOL0     H18360   3.906   0.201   0.514  4.9158  2.5216 -4.9375
  137MOL0     O18361   9.262  11.173   4.208 -0.7485  0.3335  0.6451
  137MOL0     C18362   9.364  11.105   4.171  0.2403  0.4278  0.0439
  137MOL0     O18363   9.369  11.019   4.060 -0.2393  0.1146 -0.4944
  137MOL0     C18364   9.266  11.049   3.973 -0.2769  0.1968  0.1796
  137MOL0     C18365   9.295  11.146   3.872  0.3974 -0.2448  0.3609
  137MOL0     C18366   9.196  11.168   3.784  0.7701 -0.2501  0.8870
  137MOL0     C18367   9.073  11.093   3.785  0.5829  0.1580 -0.6407
  137MOL0     O18368   8.984  11.110   3.682 -0.4527 -0.2386  0.4447
  137MOL0     C18369   9.053  11.108   3.555 -1.0602 -0.2039 -0.0668
  137MOL0     C18370   8.980  11.017   3.461  0.3114 -0.2345  0.4357
  137MOL0     C18371   8.834  11.056   3.423  0.3063 -0.1073  0.1486
  137MOL0     C18372   8.774  10.957   3.306  0.4907  0.1864 -0.9996
  137MOL0     C18373   8.844  10.951   3.168 -0.7064 -0.7995  0.0756
  137MOL0     C18374   8.866  11.083   3.098  0.1742 -0.6903  0.6321
  137MOL0     C18375   8.945  11.087   2.973 -0.3073  1.0916 -0.2286
  137MOL0     C18376   8.952  11.226   2.911  0.4294  0.2290  0.2125
  137MOL0     N18377   9.012  11.336   2.991  0.1869  0.5041  0.3857
  137MOL0     C18378   9.145  11.333   3.008  0.0745 -0.3983  0.0348
  137MOL0     C18379   9.174  11.412   3.113 -0.1918  0.4795  0.5479
  137MOL0     C18380   9.309  11.419   3.170 -0.5487  0.1548 -1.0592
  137MOL0     C18381   9.319  11.321   3.290 -0.4459 -0.4464 -0.1205
  137MOL0     C18382   9.393  11.381   3.406 -0.2839  0.4302 -0.0477
  137MOL0     C18383   9.460  11.264   3.488  0.0739 -0.7176 -0.4963
  137MOL0     O18384   9.600  11.256   3.452  0.2617  0.2582 -0.1977
  137MOL0     C18385   9.688  11.180   3.527  0.4714  0.1237 -0.4546
  137MOL0     C18386   9.663  11.079   3.622  0.0562  0.0677 -0.7941
  137MOL0     C18387   9.761  11.009   3.693  0.9164 -0.0481  0.5430
  137MOL0     C18388   9.708  10.928   3.797  0.0802  0.7053  0.0477
  137MOL0     C18389   9.894  11.023   3.654 -0.2143  0.4392 -0.6901
  137MOL0     C18390  10.007  10.936   3.723  1.0067  0.2068 -0.0164
  137MOL0     O18391  10.140  10.947   3.671  0.4341  0.5741 -0.0552
  137MOL0     C18392  10.222  10.840   3.687  0.4761  0.2232  0.3747
  137MOL0     C18393  10.186  10.712   3.642 -0.1520  0.6830 -0.0348
  137MOL0     C18394  10.282  10.613   3.639  1.2442 -0.0217  0.5462
  137MOL0     C18395  10.418  10.632   3.670 -0.3621 -0.3313  0.2232
  137MOL0     O18396  10.529  10.548   3.656  0.2748  0.1167 -0.0703
  137MOL0     C18397  10.496  10.409   3.635  0.0701  0.2098 -0.4372
  137MOL0     C18398  10.627  10.336   3.608 -0.0322 -0.1332 -0.5862
  137MOL0     C18399  10.583  10.190   3.598  0.3291  0.4881 -0.3210
  137MOL0     C18400  10.707  10.095   3.639  0.1861  0.4366 -0.3807
  137MOL0     C18401  10.682   9.950   3.650  0.1772  0.9062  0.4630
  137MOL0     C18402  10.811   9.867   3.679  0.1735 -0.4190  0.2221
  137MOL0     C18403  10.767   9.746   3.761 -0.2562 -0.3220 -0.3623
  137MOL0     C18404  10.679   9.650   3.687  0.0246  1.0380 -0.0295
  137MOL0    Cl18405  10.649   9.487   3.766 -0.1731 -0.2907  0.0149
  137MOL0     C18406  10.451  10.762   3.710 -0.8089 -0.3169  0.0255
  137MOL0     C18407  10.356  10.867   3.717 -0.0532  0.4685  0.5950
  137MOL0     O18408   9.973  10.848   3.801 -0.3008  0.7755  0.0457
  137MOL0     C18409   9.926  11.118   3.554 -0.6425  0.5902  0.4927
  137MOL0     C18410   9.828  11.190   3.501 -0.0927 -0.5601 -0.2252
  137MOL0     N18411   9.056  11.478   3.147  0.7523 -0.0720  0.9262
  137MOL0     N18412   8.957  11.429   3.071 -0.2835 -1.6582  0.0105
  137MOL0     C18413   9.045  11.004   3.885 -0.0190  0.1348  0.3732
  137MOL0     C18414   9.143  10.980   3.976  0.4475 -0.0262 -0.6590
  137MOL0     C18415   9.493  11.123   4.243  0.6006 -0.3931  0.0329
  137MOL0     C18416   9.608  11.047   4.198  0.1523  0.3906  1.0290
  137MOL0     C18417   9.734  11.064   4.256 -0.7917 -0.9751  0.2504
  137MOL0     C18418   9.748  11.157   4.361 -0.4668 -0.1170  0.2836
  137MOL0     O18419   9.873  11.153   4.420 -0.4717 -0.3757 -0.5958
  137MOL0     C18420   9.900  11.235   4.530 -0.2734  0.0360 -0.1116
  137MOL0     C18421  10.053  11.220   4.569 -0.6800 -0.6003  0.8288
  137MOL0     C18422  10.152  11.265   4.454  0.4329 -0.3893  0.0792
  137MOL0     C18423  10.193  11.409   4.466 -0.5344  0.2575 -0.5294
  137MOL0     C18424  10.095  11.484   4.392 -0.1668 -0.4011 -0.2492
  137MOL0     C18425  10.008  11.542   4.328 -0.8505 -0.0854 -0.1317
  137MOL0     C18426   9.630  11.225   4.405  0.1759  0.2386 -1.3384
  137MOL0     C18427   9.505  11.215   4.350  0.2929 -0.1168  1.3244
  137MOL0     H18428   9.380  11.213   3.862 -1.6774  2.4913 -0.1335
  137MOL0     H18429   9.202  11.245   3.708  0.4373  0.8317  1.9357
  137MOL0     H18430   9.056  11.209   3.514 -0.1784 -0.5943 -0.9905
  137MOL0     H18431   9.157  11.076   3.566 -1.8652 -3.0649 -0.0688
  137MOL0     H18432   9.041  11.028   3.371  0.6133  0.6604  0.7308
  137MOL0     H18433   8.974  10.911   3.486  1.4736 -0.2263  0.8425
  137MOL0     H18434   8.784  11.061   3.520  3.6567  2.2373  1.9656
  137MOL0     H18435   8.823  11.160   3.390 -1.0400 -0.8433 -1.9098
  137MOL0     H18436   8.769  10.855   3.347 -1.0721  0.4550 -0.4591
  137MOL0     H18437   8.674  10.980   3.270  0.2442 -1.8628 -1.7789
  137MOL0     H18438   8.936  10.892   3.172  1.8440  2.8107 -0.4579
  137MOL0     H18439   8.776  10.896   3.102 -3.7999  1.1198  1.4350
  137MOL0     H18440   8.766  11.122   3.077  0.6256 -1.5550 -4.1389
  137MOL0     H18441   8.916  11.149   3.170 -2.4448 -1.6321  3.5673
  137MOL0     H18442   9.044  11.045   2.991 -1.9174 -3.2670 -0.3937
  137MOL0     H18443   8.893  11.016   2.908 -0.8649  0.9411  0.3756
  137MOL0     H18444   8.851  11.254   2.879  1.1459  2.6081 -0.1736
  137MOL0     H18445   9.016  11.231   2.823  2.6606  0.5971  1.7706
  137MOL0     H18446   9.217  11.266   2.961  5.2417  4.0400  0.6628
  137MOL0     H18447   9.383  11.402   3.092 -1.1076  2.3868 -2.1417
  137MOL0     H18448   9.322  11.515   3.220 -1.3437 -0.8172  1.1764
  137MOL0     H18449   9.375  11.236   3.248  1.8908 -1.2421  4.0825
  137MOL0     H18450   9.229  11.277   3.333  0.9865 -1.8208  1.6800
  137MOL0     H18451   9.321  11.440   3.464  0.9762  2.5863 -0.5893
  137MOL0     H18452   9.475  11.445   3.374  3.8572 -5.6945 -3.6654
  137MOL0     H18453   9.399  11.174   3.484 -3.4973  1.5510 -1.2709
  137MOL0     H18454   9.466  11.295   3.593  1.0947  0.2555 -0.8264
  137MOL0     H18455   9.559  11.066   3.649 -0.2611  1.4249 -1.2575
  137MOL0     H18456   9.598  10.930   3.802  0.1204  0.6229  0.9963
  137MOL0     H18457   9.727  10.821   3.788 -1.9165  0.2344  0.8057
  137MOL0     H18458   9.738  10.959   3.897 -2.4868 -1.3695  1.5952
  137MOL0     H18459  10.079  10.700   3.626 -0.1030  0.3129 -0.0986
  137MOL0     H18460  10.265  10.516   3.592 -0.3874 -0.2153  1.4750
  137MOL0     H18461  10.445  10.361   3.719  4.1010 -3.4726  0.2861
  137MOL0     H18462  10.432  10.398   3.546 -0.1608  0.4492 -0.3018
  137MOL0     H18463  10.669  10.381   3.517  0.2375  0.7957 -0.0220
  137MOL0     H18464  10.701  10.344   3.688 -0.4327 -0.5689 -0.1679
  137MOL0     H18465  10.550  10.179   3.494 -1.0212 -0.3277  0.1702
  137MOL0     H18466  10.504  10.172   3.672  1.7686  2.9167  1.9708
  137MOL0     H18467  10.782  10.100   3.560  0.8229  1.0085  0.2422
  137MOL0     H18468  10.747  10.117   3.739  0.7827 -1.0537 -0.2669
  137MOL0     H18469  10.644   9.906   3.557 -2.8486  0.2769  1.8868
  137MOL0     H18470  10.604   9.931   3.724 -1.4259  2.7572 -0.6793
  137MOL0     H18471  10.861   9.832   3.589  0.8053  3.1725 -1.0104
  137MOL0     H18472  10.884   9.931   3.729  1.7253  0.4934 -2.9633
  137MOL0     H18473  10.706   9.768   3.850 -0.6702 -2.0852 -0.1724
  137MOL0     H18474  10.858   9.697   3.795 -0.6580 -0.4243  0.6110
  137MOL0     H18475  10.715   9.632   3.585 -0.7134 -3.5384  0.2887
  137MOL0     H18476  10.577   9.688   3.684 -0.4491 -0.0054  1.3561
  137MOL0     H18477  10.552  10.801   3.718 -1.4567  1.0813  2.8507
  137MOL0     H18478  10.390  10.962   3.756  0.0400  0.8678 -0.4265
  137MOL0     H18479  10.031  11.136   3.532 -0.7509  2.7329  1.4460
  137MOL0     H18480   9.848  11.275   3.437 -0.3495 -0.3920 -0.0847
  137MOL0     H18481   8.947  10.958   3.881  0.4028 -0.8826  1.0815
  137MOL0     H18482   9.114  10.919   4.062 -0.6705 -0.3830 -1.2717
  137MOL0     H18483   9.599  10.970   4.122 -0.5924  1.4364  0.0324
  137MOL0     H18484   9.822  11.014   4.218 -2.1456 -0.7976 -3.6154
  137MOL0     H18485   9.872  11.338   4.506 -1.0115 -0.3070 -0.7722
  137MOL0     H18486   9.845  11.205   4.620 -1.9645  0.3862 -0.9844
  137MOL0     H18487  10.071  11.113   4.588 -0.3264 -1.0880 -1.8992
  137MOL0     H18488  10.066  11.288   4.654 -2.3326  3.6461 -2.0178
  137MOL0     H18489  10.119  11.246   4.351  1.9635 -1.5180 -0.2428
  137MOL0     H18490  10.238  11.200   4.473  2.1457  1.7190 -0.1563
  137MOL0     H18491  10.288  11.425   4.414  1.1633 -2.9820  1.3305
  137MOL0     H18492  10.192  11.446   4.568 -1.3905  1.4543 -0.9457
  137MOL0     H18493   9.935  11.595   4.271  1.7037  3.9815 -0.1026
  137MOL0     H18494   9.635  11.298   4.484 -0.1081 -1.8486  0.7234
  137MOL0     H18495   9.415  11.266   4.382 -1.2708 -1.1205 -1.2230
  138MOL0     O18496   0.425  10.952   5.124  0.2667  0.6106 -0.4120
  138MOL0     C18497   0.379  11.048   5.062  0.6824 -0.7774 -0.2400
  138MOL0     O18498   0.264  11.121   5.093  0.0973  0.4565 -0.1514
  138MOL0     C18499   0.189  11.076   5.198  0.5001  0.8797  0.6010
  138MOL0     C18500   0.047  11.085   5.181  0.1314 -0.7504  0.5750
  138MOL0     C18501  -0.032  11.062   5.295  0.1930 -0.0312  0.4090
  138MOL0     C18502   0.032  11.042   5.418  0.6246  1.0885 -0.2263
  138MOL0     O18503  -0.051  11.025   5.520 -0.2482 -0.6192 -1.0614
  138MOL0     C18504  -0.002  10.999   5.655  0.0966 -0.0477 -0.9023
  138MOL0     C18505  -0.116  10.939   5.748 -0.1064 -0.5702 -0.5722
  138MOL0     C18506  -0.130  10.784   5.719  1.2300 -0.2430  0.1163
  138MOL0     C18507  -0.031  10.715   5.816 -0.5319  0.6164  1.0752
  138MOL0     C18508  -0.038  10.563   5.806 -0.7467 -0.7732  0.2693
  138MOL0     C18509  -0.090  10.510   5.947  0.5176  0.8514  0.6009
  138MOL0     C18510   0.013  10.522   6.059  0.6470 -0.5755  0.4323
  138MOL0     C18511  -0.047  10.459   6.185  0.1248 -0.8967  0.6257
  138MOL0     N18512  -0.030  10.314   6.199  0.2075  0.5087  0.4993
  138MOL0     C18513   0.093  10.259   6.228  0.0188 -0.3865 -0.2132
  138MOL0     C18514   0.079  10.130   6.247  0.4902  0.3228  0.2248
  138MOL0     C18515   0.186  10.040   6.309 -0.3303  0.5340  0.1482
  138MOL0     C18516   0.204  10.094   6.446  0.1185  0.0810  0.1859
  138MOL0     C18517   0.323  10.027   6.525  0.7696  0.0224 -0.4232
  138MOL0     C18518   0.288   9.879   6.555  0.0873 -0.1178  0.2485
  138MOL0     O18519   0.387   9.831   6.639 -0.0242 -0.1846  0.2669
  138MOL0     C18520   0.370   9.703   6.690 -0.2773  0.2456  1.0594
  138MOL0     C18521   0.470   9.663   6.783  0.1674  1.0199 -0.2936
  138MOL0     C18522   0.463   9.534   6.846 -0.2728 -0.3466  0.0117
  138MOL0     C18523   0.576   9.494   6.943  0.3174  0.2586 -0.1929
  138MOL0     C18524   0.349   9.459   6.829  0.1511  0.0041  0.2626
  138MOL0     C18525   0.310   9.322   6.873 -0.4576 -0.6532 -0.2255
  138MOL0     O18526   0.411   9.240   6.910 -0.0838  0.3839  0.2127
  138MOL0     C18527   0.371   9.113   6.955  0.1673 -0.0471  0.1917
  138MOL0     C18528   0.296   9.039   6.867 -0.5015  0.0864  0.6145
  138MOL0     C18529   0.251   8.917   6.901 -0.3264  0.1655 -0.6845
  138MOL0     C18530   0.276   8.864   7.029  0.8139  0.0043  0.1904
  138MOL0     O18531   0.224   8.744   7.074  0.3303  0.7029  0.1694
  138MOL0     C18532   0.088   8.720   7.038  0.2718 -0.0721 -0.0297
  138MOL0     C18533  -0.007   8.800   7.127  0.7924 -0.7320  1.0590
  138MOL0     C18534   0.027   8.773   7.279  0.0872 -0.3052 -0.1430
  138MOL0     C18535   0.057   8.628   7.322 -0.0112 -0.8746  0.1375
  138MOL0     C18536   0.065   8.614   7.478  0.7165  0.6392  0.6605
  138MOL0     C18537  -0.063   8.621   7.551  0.3168 -0.0466 -0.5220
  138MOL0     C18538  -0.052   8.603   7.703 -0.5715 -0.1028  0.2355
  138MOL0     C18539  -0.181   8.561   7.776  0.3385 -0.7182 -0.4982
  138MOL0    Cl18540  -0.221   8.397   7.740  0.2491 -0.1431  0.8457
  138MOL0     C18541   0.372   8.928   7.107 -0.9855  0.0250 -0.0678
  138MOL0     C18542   0.412   9.054   7.078 -0.5656 -1.1206  0.0611
  138MOL0     O18543   0.191   9.306   6.907 -0.4228  0.0190 -0.3950
  138MOL0     C18544   0.249   9.504   6.732  0.4724  0.5766 -0.9291
  138MOL0     C18545   0.266   9.629   6.664 -0.4619  0.7001 -0.3856
  138MOL0     N18546  -0.054  10.098   6.224 -0.6186  1.3914 -0.3194
  138MOL0     N18547  -0.118  10.209   6.200 -0.4283  0.3304  1.2541
  138MOL0     C18548   0.163  11.023   5.431 -0.8572 -0.4282  0.1728
  138MOL0     C18549   0.242  11.050   5.320 -0.2421  0.2242  0.3079
  138MOL0     C18550   0.470  11.111   4.966 -0.2030 -0.9536  0.4100
  138MOL0     C18551   0.467  11.253   4.950  0.6110  0.0558  0.9075
  138MOL0     C18552   0.548  11.325   4.869  1.7643 -0.0373  1.0452
  138MOL0     C18553   0.636  11.255   4.784 -0.1478  0.7771 -0.2540
  138MOL0     O18554   0.692  11.330   4.687  0.5540  0.9547 -0.4859
  138MOL0     C18555   0.734  11.280   4.560  0.6828  0.6566 -0.3955
  138MOL0     C18556   0.642  11.322   4.463  0.8111 -0.1130  0.5925
  138MOL0     C18557   0.615  11.476   4.469  0.4937  0.3291  0.9021
  138MOL0     C18558   0.482  11.521   4.526 -0.6627  0.7931  0.0095
  138MOL0     C18559   0.371  11.477   4.438  0.0796  0.8724  0.1291
  138MOL0     C18560   0.286  11.451   4.364  0.5015  0.2782  1.3176
  138MOL0     C18561   0.654  11.113   4.800 -0.2069  0.4323  0.3906
  138MOL0     C18562   0.569  11.043   4.892  0.4124  0.2336  0.3849
  138MOL0     H18563   0.010  11.118   5.085 -1.8280  0.8551  1.7933
  138MOL0     H18564  -0.140  11.049   5.288 -0.5612  4.4932  0.5561
  138MOL0     H18565   0.073  10.920   5.651 -1.5042 -1.6212 -1.0301
  138MOL0     H18566   0.025  11.093   5.704  1.3127 -0.7409 -0.2004
  138MOL0     H18567  -0.100  10.951   5.856 -0.2404 -3.8289 -0.0849
  138MOL0     H18568  -0.212  10.985   5.721 -0.0170 -1.3250 -2.2704
  138MOL0     H18569  -0.227  10.745   5.751 -0.0743  1.3089 -1.7180
  138MOL0     H18570  -0.109  10.779   5.612 -1.4165 -0.4226 -0.4504
  138MOL0     H18571   0.072  10.736   5.786 -0.9830  1.0987 -0.2072
  138MOL0     H18572  -0.041  10.761   5.915 -0.4244  2.4395  0.2766
  138MOL0     H18573  -0.108  10.535   5.727 -0.2154 -0.1716 -0.4263
  138MOL0     H18574   0.061  10.522   5.785 -0.7663  0.2409 -2.0413
  138MOL0     H18575  -0.189  10.543   5.978  0.5314  1.0699  0.4171
  138MOL0     H18576  -0.101  10.402   5.935 -1.1936  0.6570  3.2233
  138MOL0     H18577   0.106  10.471   6.031  0.1915 -1.5732  0.6632
  138MOL0     H18578   0.042  10.627   6.066  1.2647 -0.7199  0.1692
  138MOL0     H18579  -0.152  10.487   6.197 -0.9249 -3.1005 -2.2992
  138MOL0     H18580   0.009  10.513   6.262 -1.3858  1.8973 -0.1129
  138MOL0     H18581   0.183  10.317   6.242  0.3080 -1.1050  1.0666
  138MOL0     H18582   0.149   9.937   6.305 -2.0492  1.0993  0.6788
  138MOL0     H18583   0.278  10.043   6.250 -1.5975  2.0996 -1.8832
  138MOL0     H18584   0.107  10.088   6.497 -0.1452  1.1263 -0.1672
  138MOL0     H18585   0.236  10.196   6.426 -0.2446  0.3663  0.9939
  138MOL0     H18586   0.340  10.092   6.611 -1.8095  0.2520 -0.0153
  138MOL0     H18587   0.413  10.039   6.465  1.0512 -2.1817 -0.5087
  138MOL0     H18588   0.288   9.824   6.461  0.8963 -0.6865  0.5665
  138MOL0     H18589   0.191   9.882   6.607  0.2235  1.5120  0.4435
  138MOL0     H18590   0.546   9.732   6.817 -0.4603  0.9572  1.3199
  138MOL0     H18591   0.646   9.576   6.958  0.0374  0.2249  1.6441
  138MOL0     H18592   0.523   9.482   7.038 -1.8669 -0.8885 -1.4827
  138MOL0     H18593   0.631   9.408   6.903 -0.0923  0.1309 -0.4884
  138MOL0     H18594   0.276   9.077   6.767  0.9740 -1.6722 -0.4107
  138MOL0     H18595   0.192   8.850   6.839  0.0429  0.5906 -1.5092
  138MOL0     H18596   0.060   8.739   6.934  1.3971 -2.5694 -0.8583
  138MOL0     H18597   0.070   8.613   7.047  0.0855  0.0905  2.0114
  138MOL0     H18598  -0.005   8.907   7.102  0.7551 -1.2103 -1.2287
  138MOL0     H18599  -0.108   8.774   7.093  1.9210 -0.6318 -2.8628
  138MOL0     H18600  -0.057   8.826   7.325  0.1449  0.8686 -1.3382
  138MOL0     H18601   0.110   8.843   7.292 -1.3251  0.9628  3.2017
  138MOL0     H18602  -0.027   8.564   7.292  0.1889 -0.8933 -0.3821
  138MOL0     H18603   0.147   8.588   7.276 -0.0219 -0.4847 -0.2287
  138MOL0     H18604   0.140   8.686   7.511 -0.2378  1.8581  0.2592
  138MOL0     H18605   0.083   8.506   7.487  3.8730  1.1128  0.9812
  138MOL0     H18606  -0.106   8.721   7.537  0.7157 -0.0840 -2.3140
  138MOL0     H18607  -0.133   8.547   7.511  2.3266 -3.0249  1.1059
  138MOL0     H18608  -0.028   8.706   7.732  1.8751 -0.4730 -0.2718
  138MOL0     H18609   0.025   8.531   7.733  0.2202  0.4134 -0.5281
  138MOL0     H18610  -0.264   8.630   7.759  1.5242  1.4270  1.7384
  138MOL0     H18611  -0.160   8.563   7.884 -3.0347 -1.7858  0.2784
  138MOL0     H18612   0.396   8.875   7.199 -1.3111  0.3574  0.2158
  138MOL0     H18613   0.469   9.108   7.153 -2.9877  0.3325  0.9752
  138MOL0     H18614   0.164   9.442   6.704  0.3381  0.7733 -0.9605
  138MOL0     H18615   0.186   9.660   6.597 -2.7086 -0.4377  1.6208
  138MOL0     H18616   0.215  11.007   5.525 -2.9369  0.6770  1.5989
  138MOL0     H18617   0.350  11.053   5.325 -0.1686  4.6116  0.0233
  138MOL0     H18618   0.384  11.308   4.993  0.6915 -0.2574  1.4806
  138MOL0     H18619   0.532  11.432   4.863 -4.6160 -0.6015  0.5005
  138MOL0     H18620   0.831  11.326   4.539  1.2579 -0.6384 -0.6468
  138MOL0     H18621   0.747  11.171   4.556  2.1658  0.8352 -0.9426
  138MOL0     H18622   0.552  11.264   4.485  1.5264 -1.6818 -0.4120
  138MOL0     H18623   0.694  11.301   4.369  2.1578  6.6990 -0.7502
  138MOL0     H18624   0.621  11.516   4.367 -3.1603  0.1791  0.4937
  138MOL0     H18625   0.689  11.526   4.532  1.0616  2.6035 -1.4227
  138MOL0     H18626   0.488  11.630   4.531  1.8968  0.6741  0.7304
  138MOL0     H18627   0.458  11.480   4.625  0.8047 -1.8402 -0.6437
  138MOL0     H18628   0.212  11.424   4.291  2.7332  0.3642 -1.1530
  138MOL0     H18629   0.734  11.074   4.739 -0.3897  1.5957 -0.6331
  138MOL0     H18630   0.579  10.935   4.900  0.4292 -0.0290 -2.2097
  139MOL0     O18631   8.549   1.077   7.416 -0.3276  0.1521 -0.0457
  139MOL0     C18632   8.478   1.030   7.506  0.7681  0.6854  0.2609
  139MOL0     O18633   8.394   1.099   7.582 -0.0580 -0.0084 -1.0356
  139MOL0     C18634   8.365   1.239   7.567 -0.4975  0.7672 -0.2753
  139MOL0     C18635   8.296   1.287   7.674  0.3834  0.3457 -0.0976
  139MOL0     C18636   8.246   1.418   7.679 -0.5817 -0.3244 -0.0185
  139MOL0     C18637   8.258   1.495   7.569  0.6110 -0.0838 -0.0668
  139MOL0     O18638   8.202   1.613   7.547  0.9397 -0.1835  0.5990
  139MOL0     C18639   8.167   1.701   7.656 -0.3893  0.8226  0.3138
  139MOL0     C18640   8.018   1.721   7.644  1.4480  0.3692  0.0481
  139MOL0     C18641   7.948   1.760   7.766 -0.0243  0.8872  1.1464
  139MOL0     C18642   7.921   1.636   7.851  0.6880  0.4683 -0.2835
  139MOL0     C18643   7.941   1.670   7.999  0.1533 -0.0512 -0.3409
  139MOL0     C18644   7.834   1.765   8.041  0.3574  0.7516 -1.3421
  139MOL0     C18645   7.836   1.796   8.195 -0.4707 -0.6624  0.6860
  139MOL0     C18646   7.960   1.876   8.243 -0.0876 -0.4548 -0.7357
  139MOL0     N18647   8.073   1.799   8.282  0.5030 -0.5171  0.2477
  139MOL0     C18648   8.082   1.697   8.368 -0.0069 -0.3377 -0.8849
  139MOL0     C18649   8.215   1.661   8.357  0.9022  0.0552 -0.0225
  139MOL0     C18650   8.274   1.536   8.415 -0.2641  1.0125 -0.0715
  139MOL0     C18651   8.235   1.412   8.331  0.1814 -0.8304 -0.1958
  139MOL0     C18652   8.293   1.417   8.188 -0.0131 -0.2686  0.6983
  139MOL0     C18653   8.238   1.299   8.106  0.2237  0.2144 -1.0340
  139MOL0     O18654   8.131   1.340   8.036  0.0268  0.2786  0.5288
  139MOL0     C18655   8.053   1.237   7.981  0.0586  0.4157 -0.0701
  139MOL0     C18656   8.097   1.103   7.957 -0.4710 -0.0879 -0.4478
  139MOL0     C18657   8.009   1.014   7.886 -0.1112 -0.1737 -1.0351
  139MOL0     C18658   8.059   0.875   7.881 -0.5045  0.6421  0.1140
  139MOL0     C18659   7.873   1.051   7.850  0.2639 -0.1410 -0.3380
  139MOL0     C18660   7.783   0.958   7.782  0.9008 -0.7254  0.0218
  139MOL0     O18661   7.671   1.015   7.721  0.3018 -0.2587 -0.8197
  139MOL0     C18662   7.589   0.926   7.658  0.0789 -0.1710  0.1892
  139MOL0     C18663   7.531   0.809   7.722 -0.0809  0.3323 -0.8295
  139MOL0     C18664   7.472   0.712   7.645  0.9934 -0.3309 -0.2049
  139MOL0     C18665   7.437   0.731   7.508 -0.3835 -0.8953  0.7827
  139MOL0     O18666   7.352   0.641   7.441  0.2364 -0.1017  0.3944
  139MOL0     C18667   7.348   0.646   7.301  0.6771 -0.1947  0.5514
  139MOL0     C18668   7.267   0.530   7.241 -0.5136 -0.4967 -0.1646
  139MOL0     C18669   7.136   0.505   7.316 -0.4605  0.2165 -0.0394
  139MOL0     C18670   7.046   0.417   7.231 -0.2040 -1.0513 -0.0422
  139MOL0     C18671   6.934   0.348   7.308 -0.3839  0.0266  1.5222
  139MOL0     C18672   6.844   0.269   7.223  0.0672 -0.0180  0.6578
  139MOL0     C18673   6.737   0.200   7.319  0.1422  0.7452 -0.9345
  139MOL0     C18674   6.620   0.293   7.356  0.1253 -0.1968  0.0844
  139MOL0    Cl18675   6.537   0.236   7.510  0.0691 -0.2657 -0.2387
  139MOL0     C18676   7.494   0.844   7.450  0.0746 -1.0445  0.1984
  139MOL0     C18677   7.565   0.941   7.522 -0.4149  0.2583  0.3219
  139MOL0     O18678   7.808   0.838   7.775  0.5185 -0.7912  0.6044
  139MOL0     C18679   7.844   1.189   7.864 -0.0121  0.8873  0.4857
  139MOL0     C18680   7.931   1.271   7.936  0.0171  0.1147  0.1651
  139MOL0     N18681   8.276   1.742   8.259  0.2545 -0.0256 -0.3563
  139MOL0     N18682   8.192   1.834   8.228 -0.4100  0.0867 -1.1501
  139MOL0     C18683   8.332   1.458   7.458  1.4784  1.5445 -0.3708
  139MOL0     C18684   8.385   1.327   7.457  0.5458  0.0739  0.4090
  139MOL0     C18685   8.440   0.882   7.500  0.1106 -0.2013  0.4728
  139MOL0     C18686   8.310   0.830   7.519 -0.0559  1.0524 -0.4271
  139MOL0     C18687   8.294   0.688   7.528  0.4842 -0.1676  0.2369
  139MOL0     C18688   8.398   0.593   7.522 -0.0824 -1.7678 -0.0770
  139MOL0     O18689   8.382   0.455   7.532 -0.8829  0.1139  0.2346
  139MOL0     C18690   8.300   0.392   7.430 -0.4121 -0.6173  0.1252
  139MOL0     C18691   8.168   0.350   7.489  0.0525 -0.0522  1.2166
  139MOL0     C18692   8.187   0.227   7.572  0.2067  0.6241 -0.1063
  139MOL0     C18693   8.051   0.164   7.617 -0.4651  0.0501  0.5647
  139MOL0     C18694   7.974   0.116   7.505 -0.3176 -0.6502  0.2982
  139MOL0     C18695   7.901   0.071   7.420  0.1103  0.0463 -0.7582
  139MOL0     C18696   8.528   0.643   7.490 -0.1723  0.0032  0.1552
  139MOL0     C18697   8.551   0.787   7.480  0.9074 -0.1733  0.5086
  139MOL0     H18698   8.285   1.228   7.764  1.2918 -1.0453 -0.8659
  139MOL0     H18699   8.202   1.450   7.773 -1.5299 -1.7647  0.0650
  139MOL0     H18700   8.196   1.661   7.754  0.3454  0.2576 -0.1278
  139MOL0     H18701   8.214   1.800   7.653 -1.0538  1.1337  0.1117
  139MOL0     H18702   7.992   1.792   7.565 -0.6399  0.2104  0.5430
  139MOL0     H18703   7.972   1.632   7.600  2.1754  0.9041 -1.9175
  139MOL0     H18704   8.015   1.836   7.808  0.8898  1.4287 -1.1153
  139MOL0     H18705   7.848   1.799   7.745  0.3192  0.7794 -0.8975
  139MOL0     H18706   7.818   1.602   7.836  0.7888 -0.4865  1.0178
  139MOL0     H18707   7.980   1.546   7.835 -0.9599 -0.6747 -0.1916
  139MOL0     H18708   7.936   1.575   8.053  0.6767  0.0342 -0.1401
  139MOL0     H18709   8.039   1.715   8.014  0.3599 -0.7537  0.4619
  139MOL0     H18710   7.846   1.857   7.982  0.1340 -0.5550 -3.5059
  139MOL0     H18711   7.733   1.729   8.021  0.6500 -0.1472 -1.2491
  139MOL0     H18712   7.737   1.837   8.219 -0.7142  1.4359 -3.0300
  139MOL0     H18713   7.844   1.698   8.241 -1.2336 -0.6126  0.9344
  139MOL0     H18714   7.924   1.924   8.335  1.4292  1.1625 -0.9244
  139MOL0     H18715   7.977   1.960   8.175  0.5316  1.5996  1.7983
  139MOL0     H18716   7.992   1.653   8.411 -0.3106  2.7257  2.0903
  139MOL0     H18717   8.383   1.537   8.424 -0.2219 -0.6118  0.0280
  139MOL0     H18718   8.227   1.515   8.512  2.1510  1.8451  1.3395
  139MOL0     H18719   8.127   1.420   8.315  0.0186  0.1462  1.2162
  139MOL0     H18720   8.264   1.322   8.385 -0.7941  0.7956  3.3123
  139MOL0     H18721   8.400   1.398   8.191  0.1903  0.6985  0.0920
  139MOL0     H18722   8.282   1.516   8.143  0.0124 -1.2066 -1.4752
  139MOL0     H18723   8.209   1.214   8.168 -0.8846  1.6757  0.5480
  139MOL0     H18724   8.318   1.258   8.045  0.8980 -0.6551  0.3887
  139MOL0     H18725   8.199   1.078   7.986  0.6213  2.6655 -1.4942
  139MOL0     H18726   8.167   0.866   7.867 -0.5620  0.4744 -0.2273
  139MOL0     H18727   8.029   0.820   7.971  1.1643  3.0203  2.2860
  139MOL0     H18728   8.024   0.826   7.790  1.1565 -1.0572  0.3317
  139MOL0     H18729   7.543   0.784   7.827 -1.2975  2.0497 -0.2373
  139MOL0     H18730   7.430   0.629   7.701 -2.2135  1.7273  0.7056
  139MOL0     H18731   7.313   0.746   7.272  0.9077 -0.0227  0.8566
  139MOL0     H18732   7.453   0.632   7.276  1.6224 -3.0595  5.0432
  139MOL0     H18733   7.241   0.542   7.135 -0.1457  3.1826 -0.0013
  139MOL0     H18734   7.331   0.441   7.241 -4.6811 -3.7813 -0.0631
  139MOL0     H18735   7.095   0.602   7.346  0.2204  0.2412  0.8632
  139MOL0     H18736   7.160   0.438   7.399 -0.2712  0.8839  0.4518
  139MOL0     H18737   7.004   0.472   7.146  1.2821 -2.9167 -2.0953
  139MOL0     H18738   7.118   0.345   7.191  0.4502  0.1424 -1.0585
  139MOL0     H18739   6.890   0.432   7.362  2.6988  3.2738 -0.4737
  139MOL0     H18740   6.971   0.285   7.390 -0.7564  1.0335  2.4825
  139MOL0     H18741   6.786   0.330   7.152 -0.7063 -3.4387 -1.8898
  139MOL0     H18742   6.899   0.199   7.160  2.0687  1.6681  0.4310
  139MOL0     H18743   6.788   0.162   7.407  1.5035 -0.3019 -2.1279
  139MOL0     H18744   6.686   0.112   7.280 -0.4333  0.1905  0.9561
  139MOL0     H18745   6.547   0.293   7.274 -3.4397 -2.2583  2.9891
  139MOL0     H18746   6.658   0.394   7.372 -1.0119  0.4022 -0.8159
  139MOL0     H18747   7.480   0.874   7.347 -0.3690 -0.8370  0.3169
  139MOL0     H18748   7.609   1.026   7.470  0.5845  0.0053  0.7271
  139MOL0     H18749   7.753   1.236   7.829 -0.7800  1.0225  2.4877
  139MOL0     H18750   7.910   1.377   7.950  1.8995  0.4302  0.9289
  139MOL0     H18751   8.343   1.524   7.373 -1.7622  0.1643 -2.0273
  139MOL0     H18752   8.437   1.295   7.367 -0.8998  1.4037 -0.9624
  139MOL0     H18753   8.223   0.893   7.533  0.6688  1.6958  1.5643
  139MOL0     H18754   8.191   0.652   7.522  1.6374 -4.1257  1.2663
  139MOL0     H18755   8.287   0.466   7.350  2.3761 -0.4314 -0.2655
  139MOL0     H18756   8.343   0.303   7.384  1.6487  0.6697 -0.6027
  139MOL0     H18757   8.101   0.324   7.406  2.7394 -0.4826 -0.9402
  139MOL0     H18758   8.110   0.427   7.541  0.4230 -0.4161  2.1905
  139MOL0     H18759   8.247   0.257   7.659 -0.2521 -0.2955  0.5539
  139MOL0     H18760   8.255   0.153   7.529  1.4486  2.7401 -1.9930
  139MOL0     H18761   8.001   0.249   7.665  1.2784  0.9699  0.8365
  139MOL0     H18762   8.054   0.081   7.688  0.0280  0.2626  0.7955
  139MOL0     H18763   7.833   0.043   7.342 -0.4353  1.5051 -0.8495
  139MOL0     H18764   8.613   0.579   7.472  0.8887  0.6491  2.4424
  139MOL0     H18765   8.648   0.826   7.449 -0.1608  2.0298 -0.2328
  140MOL0     O18766   3.922   4.865   2.591 -0.2719  0.5415  0.1161
  140MOL0     C18767   3.802   4.865   2.591 -0.6330  0.3144  1.4478
  140MOL0     O18768   3.720   4.973   2.571 -0.0189 -0.3400  0.3072
  140MOL0     C18769   3.742   5.104   2.550  1.3082 -0.4009  0.9780
  140MOL0     C18770   3.859   5.164   2.520 -0.1069  0.3685  0.0655
  140MOL0     C18771   3.871   5.301   2.523  0.0225  0.3998 -0.6823
  140MOL0     C18772   3.764   5.388   2.536  0.3696  1.4635  0.0378
  140MOL0     O18773   3.768   5.528   2.546 -0.3127  0.6553 -0.1756
  140MOL0     C18774   3.888   5.596   2.507  0.9372  0.9036  0.5838
  140MOL0     C18775   3.859   5.741   2.473 -0.0018  0.5502 -0.7464
  140MOL0     C18776   3.758   5.810   2.577  0.4885 -0.8540  0.3476
  140MOL0     C18777   3.708   5.952   2.504  0.2319 -1.6126 -0.0539
  140MOL0     C18778   3.832   6.035   2.472 -0.4178  0.4056  0.0285
  140MOL0     C18779   3.791   6.171   2.426 -0.2570  0.2253 -0.2885
  140MOL0     C18780   3.744   6.257   2.541 -0.5961  0.0125  0.7510
  140MOL0     C18781   3.748   6.416   2.506  0.0195  0.0987 -0.5312
  140MOL0     N18782   3.847   6.450   2.392 -0.2987  0.2455 -0.3818
  140MOL0     C18783   3.835   6.415   2.256 -0.1565  0.2966 -0.3707
  140MOL0     C18784   3.945   6.472   2.195 -0.6605  0.2330 -0.2604
  140MOL0     C18785   3.979   6.456   2.054  0.0041 -0.1410 -0.0979
  140MOL0     C18786   4.123   6.382   2.039 -0.1823  0.3255  0.6925
  140MOL0     C18787   4.156   6.387   1.892  0.1800 -0.3432 -0.3050
  140MOL0     C18788   4.300   6.343   1.863 -0.2626 -0.6178  0.6331
  140MOL0     O18789   4.297   6.198   1.868 -0.1105  0.5101  0.3183
  140MOL0     C18790   4.397   6.122   1.811  0.1465  0.0262 -0.1697
  140MOL0     C18791   4.362   5.988   1.788 -0.8134  0.5609 -0.3887
  140MOL0     C18792   4.456   5.899   1.723  1.5329  0.8058 -0.7244
  140MOL0     C18793   4.416   5.762   1.674  1.0875 -1.6547  0.0633
  140MOL0     C18794   4.588   5.945   1.692 -1.6301  0.1063  0.8836
  140MOL0     C18795   4.704   5.865   1.645  0.5356  0.7047  0.6638
  140MOL0     O18796   4.821   5.927   1.616  0.3252  0.2120  0.1431
  140MOL0     C18797   4.913   5.872   1.534  0.2478 -1.3986 -0.5029
  140MOL0     C18798   4.948   5.945   1.422  0.0672  0.2023  0.5867
  140MOL0     C18799   5.042   5.890   1.330  0.7931  0.2866 -0.0687
  140MOL0     C18800   5.092   5.763   1.351 -0.7236 -0.6461  0.0802
  140MOL0     O18801   5.172   5.722   1.246 -0.5172  1.2361  0.1185
  140MOL0     C18802   5.234   5.603   1.251 -0.1041 -0.1748 -0.9185
  140MOL0     C18803   5.302   5.561   1.113 -0.4451  0.6995  0.2438
  140MOL0     C18804   5.457   5.584   1.103  0.2816  0.0204  0.0055
  140MOL0     C18805   5.503   5.739   1.082 -0.9574 -0.0351  0.5240
  140MOL0     C18806   5.648   5.761   1.117  0.4473 -0.1968  0.2970
  140MOL0     C18807   5.758   5.703   1.021 -0.1646  0.1941 -0.6485
  140MOL0     C18808   5.705   5.697   0.876  1.0395  0.3232 -0.3793
  140MOL0     C18809   5.814   5.657   0.780 -0.8297  0.0308 -0.0957
  140MOL0    Cl18810   5.975   5.752   0.802 -0.0961  0.0233  0.3840
  140MOL0     C18811   5.049   5.687   1.460 -0.1761 -0.1389  0.2652
  140MOL0     C18812   4.966   5.748   1.564 -1.3580 -0.1921  1.3879
  140MOL0     O18813   4.682   5.744   1.633  0.0154  0.1900 -0.2550
  140MOL0     C18814   4.615   6.080   1.728  0.8774 -0.6239 -0.0256
  140MOL0     C18815   4.519   6.167   1.778  0.8246 -0.2583 -0.1209
  140MOL0     N18816   4.020   6.534   2.295 -0.4314 -0.2730 -0.2003
  140MOL0     N18817   3.956   6.519   2.407  0.3311 -0.2210 -0.5832
  140MOL0     C18818   3.643   5.330   2.572 -0.0576 -0.1724 -0.3043
  140MOL0     C18819   3.632   5.187   2.581  0.0890  0.4590  0.2260
  140MOL0     C18820   3.738   4.728   2.630  0.1722 -0.0511 -0.2052
  140MOL0     C18821   3.796   4.600   2.602 -0.0887  0.4567 -0.6077
  140MOL0     C18822   3.726   4.483   2.630 -0.8605  0.6771 -0.2609
  140MOL0     C18823   3.607   4.478   2.679  0.3636 -0.0914  0.3949
  140MOL0     O18824   3.551   4.353   2.713 -0.0833  0.3966  0.1535
  140MOL0     C18825   3.440   4.307   2.651 -0.0926 -0.0501 -0.0402
  140MOL0     C18826   3.348   4.235   2.756 -0.2785 -0.1456 -0.4626
  140MOL0     C18827   3.195   4.199   2.723 -0.8872 -0.5629 -0.4916
  140MOL0     C18828   3.140   4.116   2.836 -0.3991 -0.1370 -0.9390
  140MOL0     C18829   3.143   4.175   2.968 -1.1304 -0.5900  0.2981
  140MOL0     C18830   3.157   4.221   3.079  0.4835  0.0582  0.4956
  140MOL0     C18831   3.544   4.595   2.701  0.9964 -0.3691  0.0407
  140MOL0     C18832   3.607   4.720   2.680 -0.4988 -0.1328 -0.6908
  140MOL0     H18833   3.945   5.107   2.487 -1.2755 -0.6603 -1.3468
  140MOL0     H18834   3.971   5.341   2.511  0.0607  0.7197  0.5249
  140MOL0     H18835   3.963   5.577   2.584  1.3525 -1.7431 -0.3718
  140MOL0     H18836   3.937   5.546   2.422  0.9339 -1.6537  1.9988
  140MOL0     H18837   3.957   5.788   2.460 -0.1325  0.3015 -3.0141
  140MOL0     H18838   3.817   5.737   2.372 -0.3444 -3.1126 -0.5958
  140MOL0     H18839   3.677   5.738   2.593  1.0914 -1.8326 -0.8763
  140MOL0     H18840   3.818   5.840   2.664 -0.6916  0.4068  0.7656
  140MOL0     H18841   3.657   5.933   2.409 -0.4155  1.1271 -0.3441
  140MOL0     H18842   3.638   6.001   2.573  0.4339 -1.3765 -0.0174
  140MOL0     H18843   3.893   6.050   2.561 -1.3875 -0.7806  0.9256
  140MOL0     H18844   3.894   5.985   2.397 -1.1395 -0.4420 -0.0203
  140MOL0     H18845   3.885   6.210   2.385 -1.2382  0.1626 -2.8039
  140MOL0     H18846   3.718   6.157   2.345  0.2480 -1.7160 -0.4811
  140MOL0     H18847   3.639   6.246   2.571  0.1812  2.3576  5.1740
  140MOL0     H18848   3.810   6.250   2.628 -0.4627  1.4217  0.7962
  140MOL0     H18849   3.773   6.465   2.600  1.4278 -0.6474 -0.4911
  140MOL0     H18850   3.652   6.451   2.464 -0.6110 -1.1245 -0.1519
  140MOL0     H18851   3.760   6.353   2.210  0.9903 -0.6080 -1.0899
  140MOL0     H18852   3.903   6.408   1.991  1.5317  0.5001 -2.5640
  140MOL0     H18853   3.996   6.556   2.013 -0.1559  0.0132  0.2170
  140MOL0     H18854   4.131   6.279   2.074  5.6201 -0.7113 -2.5040
  140MOL0     H18855   4.197   6.438   2.097  2.7472 -0.4705 -1.9904
  140MOL0     H18856   4.149   6.491   1.859 -0.1257 -0.4585 -0.6124
  140MOL0     H18857   4.084   6.340   1.824 -0.8808  1.3431 -0.4105
  140MOL0     H18858   4.380   6.388   1.923  1.4690  0.6406 -2.3776
  140MOL0     H18859   4.327   6.369   1.760 -0.7213  3.0323  1.2937
  140MOL0     H18860   4.264   5.943   1.798 -0.4599  0.0484  0.9793
  140MOL0     H18861   4.307   5.755   1.674  1.0135 -3.3066 -4.3936
  140MOL0     H18862   4.443   5.732   1.573 -0.1846  1.1842 -1.2154
  140MOL0     H18863   4.466   5.693   1.743  1.4194 -1.5389 -0.0602
  140MOL0     H18864   4.890   6.034   1.401 -1.9403 -1.7256 -2.8550
  140MOL0     H18865   5.075   5.950   1.247  3.1530  0.7487  1.1192
  140MOL0     H18866   5.305   5.591   1.333 -0.9444 -0.2777 -0.1873
  140MOL0     H18867   5.161   5.523   1.266  1.1177 -1.6729 -2.5211
  140MOL0     H18868   5.281   5.458   1.083 -0.0763  1.5101 -3.1315
  140MOL0     H18869   5.250   5.626   1.042 -1.7998  1.0387  1.4824
  140MOL0     H18870   5.490   5.538   1.009 -1.4274  0.3491 -0.7980
  140MOL0     H18871   5.508   5.527   1.182  0.8004 -0.5001 -0.6879
  140MOL0     H18872   5.481   5.772   0.981  1.0029 -0.9831 -0.2684
  140MOL0     H18873   5.446   5.808   1.144 -1.6120  0.5401 -0.6878
  140MOL0     H18874   5.669   5.724   1.218  3.9408  1.6492  0.4036
  140MOL0     H18875   5.651   5.870   1.122  0.3281 -0.0800 -1.4739
  140MOL0     H18876   5.841   5.769   1.045  1.2248 -1.9503  0.8281
  140MOL0     H18877   5.782   5.602   1.057 -1.5612 -0.3575 -1.1561
  140MOL0     H18878   5.663   5.796   0.856 -0.6787 -0.0187  1.2642
  140MOL0     H18879   5.625   5.623   0.868  0.9147  0.4808 -0.5808
  140MOL0     H18880   5.786   5.661   0.674 -3.0301  2.4158  0.4929
  140MOL0     H18881   5.835   5.556   0.817 -0.3041 -0.7144 -2.2375
  140MOL0     H18882   5.085   5.586   1.480  0.8057  0.7503  3.4610
  140MOL0     H18883   4.948   5.683   1.649  3.1434 -0.4807  2.3621
  140MOL0     H18884   4.714   6.125   1.720  0.8503 -0.7718 -1.7247
  140MOL0     H18885   4.546   6.257   1.833  0.4083 -1.0768  1.4589
  140MOL0     H18886   3.557   5.395   2.584  0.9805  1.2160 -0.1790
  140MOL0     H18887   3.537   5.147   2.613  0.1117  1.5171  1.6927
  140MOL0     H18888   3.899   4.597   2.567  0.4856  1.2267  0.9514
  140MOL0     H18889   3.778   4.389   2.616 -0.6430  0.3856  2.1511
  140MOL0     H18890   3.378   4.395   2.630  1.3337  1.0730  0.2720
  140MOL0     H18891   3.456   4.236   2.569 -0.4670  1.5026 -1.5197
  140MOL0     H18892   3.345   4.301   2.843 -3.1911 -0.1122 -0.4778
  140MOL0     H18893   3.412   4.150   2.782  1.0884  0.3908 -1.9882
  140MOL0     H18894   3.189   4.151   2.625 -3.2482 -2.3228  0.4301
  140MOL0     H18895   3.140   4.293   2.714 -2.0741 -1.1762  0.1487
  140MOL0     H18896   3.205   4.028   2.838 -0.2257  0.0068  0.2978
  140MOL0     H18897   3.037   4.088   2.810 -1.2376 -0.0064  1.9130
  140MOL0     H18898   3.164   4.253   3.182 -1.6246  0.0367  0.6945
  140MOL0     H18899   3.445   4.596   2.745  1.5021 -4.3261  1.7530
  140MOL0     H18900   3.549   4.811   2.689 -1.6373 -0.7215 -1.7172
  141MOL0     O18901  10.203   3.121  11.107 -0.3362  0.4315 -0.7607
  141MOL0     C18902  10.092   3.123  11.062  1.6106  0.6295 -0.3275
  141MOL0     O18903   9.985   3.064  11.111 -0.1850 -0.8791 -0.8563
  141MOL0     C18904   9.974   2.980  11.218  0.3308  0.4169 -0.7877
  141MOL0     C18905  10.043   2.860  11.228 -0.0546  0.2487 -0.3738
  141MOL0     C18906  10.045   2.775  11.340  1.0687  0.3868  1.0555
  141MOL0     C18907   9.965   2.817  11.449  0.5675  0.6189  1.3442
  141MOL0     O18908   9.944   2.752  11.560  0.0572  0.3105  0.0133
  141MOL0     C18909  10.052   2.655  11.596  0.3488 -0.0537 -0.2839
  141MOL0     C18910  10.056   2.615  11.750  0.4486  1.0856 -0.8978
  141MOL0     C18911  10.053   2.731  11.847 -0.2660  0.9161  0.3989
  141MOL0     C18912  10.075   2.666  11.991 -0.1561  0.1067  1.2045
  141MOL0     C18913  10.058   2.781  12.094 -0.5829 -0.1491  0.0229
  141MOL0     C18914  10.096   2.738  12.235 -0.9578 -0.8604 -0.2977
  141MOL0     C18915  10.253   2.753  12.244 -0.6839 -0.5467 -0.0042
  141MOL0     C18916  10.295   2.892  12.283 -0.2100 -0.6129 -0.2762
  141MOL0     N18917  10.440   2.908  12.274  0.4015 -0.0436  1.2774
  141MOL0     C18918  10.534   2.853  12.355 -0.2412 -0.3487 -0.2054
  141MOL0     C18919  10.642   2.928  12.337  0.7152 -0.1721 -0.1374
  141MOL0     C18920  10.775   2.886  12.405  0.4387 -0.2434  0.1054
  141MOL0     C18921  10.883   2.992  12.427 -0.1579 -1.0122 -0.6887
  141MOL0     C18922  10.957   3.040  12.298  0.4447 -0.5917  0.4501
  141MOL0     C18923  10.993   3.191  12.321  0.2861  0.4248  0.3166
  141MOL0     O18924  11.119   3.189  12.392 -0.3416  0.0371  0.3907
  141MOL0     C18925  11.242   3.195  12.328  0.7112  0.5879  0.4131
  141MOL0     C18926  11.256   3.199  12.196 -0.2085  0.6867 -0.7173
  141MOL0     C18927  11.385   3.206  12.134  0.2942 -0.0318  0.2254
  141MOL0     C18928  11.389   3.217  11.976  0.0835  0.3231  0.3764
  141MOL0     C18929  11.503   3.212  12.220 -0.1554  0.2558 -0.0385
  141MOL0     C18930  11.636   3.260  12.168  0.7090  0.1411 -0.2556
  141MOL0     O18931  11.744   3.250  12.252  0.0109  0.1833  0.5918
  141MOL0     C18932  11.861   3.302  12.216 -0.8122  0.1315  0.8304
  141MOL0     C18933  11.962   3.212  12.154  0.2861  0.5570 -0.2436
  141MOL0     C18934  12.087   3.252  12.114 -0.3728  0.6661  0.0533
  141MOL0     C18935  12.124   3.391  12.131  0.0598 -0.7030 -0.3190
  141MOL0     O18936  12.229   3.460  12.077 -0.5558 -0.0402 -0.6832
  141MOL0     C18937  12.265   3.419  11.947 -0.0141 -0.8029 -0.3081
  141MOL0     C18938  12.366   3.519  11.884 -0.0685  0.4731 -0.5374
  141MOL0     C18939  12.399   3.501  11.737  0.8419  0.3989  0.5998
  141MOL0     C18940  12.518   3.416  11.698  0.1649 -1.1816 -0.2398
  141MOL0     C18941  12.522   3.362  11.548  0.4122  0.6945  0.4071
  141MOL0     C18942  12.525   3.482  11.454  0.5808 -0.3485 -0.1762
  141MOL0     C18943  12.536   3.437  11.310 -0.4208 -0.3015 -0.7951
  141MOL0     C18944  12.406   3.442  11.237  0.1893  0.2549 -0.2139
  141MOL0    Cl18945  12.400   3.588  11.146  0.6933 -0.2253  0.2045
  141MOL0     C18946  12.028   3.475  12.184  0.7850 -0.2374 -0.7630
  141MOL0     C18947  11.899   3.435  12.226 -0.1532  0.2821 -0.4594
  141MOL0     O18948  11.645   3.296  12.047 -0.0990 -0.2164  0.2805
  141MOL0     C18949  11.491   3.208  12.361  0.9765  0.7970 -1.2718
  141MOL0     C18950  11.364   3.191  12.411  0.9484  0.0414  0.1956
  141MOL0     N18951  10.613   3.028  12.249  0.1557 -0.5006 -0.6035
  141MOL0     N18952  10.491   3.022  12.225  0.2947 -0.9041 -0.0248
  141MOL0     C18953   9.893   2.938  11.443  0.7731 -0.0773 -0.1329
  141MOL0     C18954   9.893   3.006  11.328  0.1484  0.4522 -0.2194
  141MOL0     C18955  10.083   3.201  10.935  0.6660  0.8739  0.4544
  141MOL0     C18956  10.181   3.293  10.886  0.9498  0.9957 -0.3169
  141MOL0     C18957  10.174   3.359  10.766 -0.8371 -0.6234 -0.1669
  141MOL0     C18958  10.060   3.346  10.683 -0.3492  0.1837 -0.9136
  141MOL0     O18959  10.058   3.411  10.568  0.0549  0.0267  0.5404
  141MOL0     C18960   9.963   3.365  10.459 -0.5675  0.6889 -0.7617
  141MOL0     C18961  10.031   3.365  10.327  0.5498 -1.0844 -1.0701
  141MOL0     C18962   9.962   3.295  10.213 -0.1189  0.3830  0.0527
  141MOL0     C18963  10.053   3.245  10.096  0.1269 -0.7667 -1.0144
  141MOL0     C18964  10.040   3.342   9.987 -1.3374  0.0648 -0.2142
  141MOL0     C18965  10.033   3.410   9.891 -0.0783 -0.0849  0.3955
  141MOL0     C18966   9.972   3.250  10.735  0.3066 -0.4463  0.4877
  141MOL0     C18967   9.982   3.174  10.847  0.3928  0.2582  0.1765
  141MOL0     H18968  10.097   2.836  11.136 -1.8782  0.6447 -1.6042
  141MOL0     H18969  10.112   2.691  11.339  1.5564  0.7538  2.0577
  141MOL0     H18970  10.038   2.565  11.535  2.0817  1.4011 -3.0194
  141MOL0     H18971  10.151   2.688  11.564 -0.0742  1.3449 -0.2052
  141MOL0     H18972   9.969   2.557  11.782  0.3084  2.6929  1.9430
  141MOL0     H18973  10.139   2.545  11.763 -2.1183 -2.4817 -2.0170
  141MOL0     H18974  10.125   2.810  11.823 -0.6735  1.9874  2.4609
  141MOL0     H18975   9.956   2.782  11.837 -2.6964 -3.2794  0.4171
  141MOL0     H18976   9.998   2.592  12.016 -3.0482  2.9927  1.5995
  141MOL0     H18977  10.175   2.625  12.004 -0.3402 -0.6773  0.2443
  141MOL0     H18978  10.117   2.868  12.062 -1.6153  0.0508 -1.4805
  141MOL0     H18979   9.955   2.817  12.089 -0.3657  0.9484  2.3089
  141MOL0     H18980  10.049   2.804  12.308 -0.2771 -1.8897  1.1169
  141MOL0     H18981  10.070   2.634  12.257  0.8824 -0.8826  2.2459
  141MOL0     H18982  10.290   2.684  12.320 -1.5538 -2.0498 -0.8947
  141MOL0     H18983  10.301   2.738  12.147  2.8435  1.6456  1.2243
  141MOL0     H18984  10.264   2.911  12.386 -2.1186 -0.3095 -0.8579
  141MOL0     H18985  10.252   2.965  12.213 -0.1267 -0.0718  0.2316
  141MOL0     H18986  10.519   2.765  12.417  0.7798  0.1927  0.8542
  141MOL0     H18987  10.754   2.847  12.505 -0.4653  0.1847  0.0947
  141MOL0     H18988  10.811   2.799  12.349  0.2331  0.7266 -1.6044
  141MOL0     H18989  10.956   2.950  12.497 -0.7702  1.0072  1.2549
  141MOL0     H18990  10.842   3.078  12.481  3.2357 -0.0214  0.5854
  141MOL0     H18991  10.889   3.028  12.213  0.7348 -0.5031  0.2073
  141MOL0     H18992  11.038   2.976  12.262  1.1456  0.5071  0.0154
  141MOL0     H18993  10.921   3.257  12.370  0.0890  0.2333  0.2895
  141MOL0     H18994  11.005   3.232  12.220 -1.9617 -2.2620 -1.2054
  141MOL0     H18995  11.180   3.189  12.119  0.7507  2.4249 -1.9459
  141MOL0     H18996  11.297   3.176  11.932  1.6524 -4.8608  1.1984
  141MOL0     H18997  11.401   3.325  11.967  1.1132  0.0951 -1.2920
  141MOL0     H18998  11.479   3.170  11.938  0.1896  2.1659 -1.8705
  141MOL0     H18999  11.939   3.108  12.135  2.3077  0.1637 -0.8524
  141MOL0     H19000  12.151   3.171  12.080 -1.2416 -0.1579  0.3323
  141MOL0     H19001  12.302   3.318  11.926  0.5131 -0.0035 -3.6477
  141MOL0     H19002  12.177   3.422  11.882 -0.1819 -1.9894 -0.1719
  141MOL0     H19003  12.337   3.623  11.900 -1.7503 -0.3427  2.5768
  141MOL0     H19004  12.457   3.515  11.945  0.5375 -0.9574 -1.4721
  141MOL0     H19005  12.416   3.602  11.700  2.5654 -0.0532  0.0803
  141MOL0     H19006  12.308   3.466  11.686  0.9604 -1.1940  1.4166
  141MOL0     H19007  12.605   3.479  11.720 -0.0256 -1.8924  3.0704
  141MOL0     H19008  12.529   3.329  11.764  0.2423  1.2417  3.2197
  141MOL0     H19009  12.435   3.298  11.537  1.5695 -0.8546 -0.1312
  141MOL0     H19010  12.606   3.294  11.532 -0.0478  0.4639 -1.2451
  141MOL0     H19011  12.438   3.548  11.454  0.7906 -0.0039  1.9992
  141MOL0     H19012  12.606   3.549  11.482 -0.0593  0.3922 -0.0900
  141MOL0     H19013  12.568   3.332  11.313  1.7691  0.3176  1.9691
  141MOL0     H19014  12.623   3.484  11.265 -0.1638 -0.7179 -0.7362
  141MOL0     H19015  12.328   3.427  11.312  2.4234  2.6634  2.8259
  141MOL0     H19016  12.398   3.362  11.162  3.4837 -0.3147 -0.1320
  141MOL0     H19017  12.050   3.581  12.196 -0.5684 -0.1621  1.7087
  141MOL0     H19018  11.830   3.502  12.276 -1.5586 -0.9759 -0.6477
  141MOL0     H19019  11.571   3.230  12.431 -0.3072  3.1998 -0.4559
  141MOL0     H19020  11.338   3.168  12.514 -1.6089 -2.2815 -0.8181
  141MOL0     H19021   9.816   2.961  11.517  1.2958  1.4587 -0.0326
  141MOL0     H19022   9.821   3.087  11.321 -2.2034 -1.5452 -0.4094
  141MOL0     H19023  10.264   3.302  10.956  0.9500 -0.7586 -0.0509
  141MOL0     H19024  10.256   3.421  10.729 -1.0732  0.1295  0.5443
  141MOL0     H19025   9.930   3.262  10.475 -1.4160  0.2825 -4.4000
  141MOL0     H19026   9.864   3.414  10.459 -1.3881 -0.9042 -0.1523
  141MOL0     H19027  10.134   3.332  10.340  0.5950  0.1713  3.0823
  141MOL0     H19028  10.035   3.474  10.313  1.5429 -0.1630  4.3947
  141MOL0     H19029   9.880   3.347  10.164 -1.7137 -0.8877  1.2323
  141MOL0     H19030   9.911   3.210  10.260 -1.5892  1.9216  1.3614
  141MOL0     H19031   9.999   3.162  10.050 -1.3826  2.0017 -4.7004
  141MOL0     H19032  10.153   3.228  10.138  0.7982  1.6938 -1.4690
  141MOL0     H19033  10.014   3.476   9.808 -2.8150  0.4770  1.3583
  141MOL0     H19034   9.876   3.247  10.683  0.8232 -1.3133 -0.4730
  141MOL0     H19035   9.891   3.121  10.876 -3.1614  4.3574 -2.3584
  142MOL0     O19036  10.396   8.534   2.229  0.0207 -1.1422  0.6339
  142MOL0     C19037  10.278   8.554   2.201 -0.3758  0.3853 -0.4576
  142MOL0     O19038  10.214   8.462   2.116  0.4269  0.7371 -0.0594
  142MOL0     C19039  10.284   8.365   2.043 -0.0279 -0.0280  0.1410
  142MOL0     C19040  10.392   8.382   1.963 -0.3580  0.3258  0.1723
  142MOL0     C19041  10.469   8.272   1.905  0.2175 -0.2638 -0.9934
  142MOL0     C19042  10.439   8.147   1.942 -0.4286 -0.2617 -1.0103
  142MOL0     O19043  10.522   8.050   1.895  0.8727  0.7781  0.5662
  142MOL0     C19044  10.477   7.914   1.885  0.0141 -0.5689 -0.1836
  142MOL0     C19045  10.579   7.827   1.807 -0.0625  0.8596  0.3251
  142MOL0     C19046  10.608   7.894   1.676  0.4092  0.2855  0.7451
  142MOL0     C19047  10.486   7.928   1.589 -0.2514 -0.3467 -1.1231
  142MOL0     C19048  10.390   7.815   1.540  0.3538 -0.7103 -0.7253
  142MOL0     C19049  10.466   7.690   1.480  0.2200 -0.3635 -0.6649
  142MOL0     C19050  10.396   7.585   1.408  0.0023 -0.4565 -0.7333
  142MOL0     C19051  10.281   7.632   1.308 -1.1056 -0.1603  0.3485
  142MOL0     N19052  10.328   7.708   1.193  0.2532  0.3832  0.5013
  142MOL0     C19053  10.262   7.721   1.073  0.2771  0.0790  0.2587
  142MOL0     C19054  10.321   7.818   1.000 -0.3455  0.6571  0.0262
  142MOL0     C19055  10.302   7.831   0.854 -1.6358  0.1518  0.6253
  142MOL0     C19056  10.388   7.714   0.794  0.1305 -0.1303  0.5994
  142MOL0     C19057  10.372   7.705   0.645  0.7536 -0.2461  0.2850
  142MOL0     C19058  10.487   7.616   0.584  0.4096  1.3571 -0.3771
  142MOL0     O19059  10.608   7.679   0.581 -0.3646 -0.2760 -0.8374
  142MOL0     C19060  10.630   7.797   0.514  0.2014  0.6085 -0.1664
  142MOL0     C19061  10.545   7.836   0.403 -0.5598 -0.0774  0.4180
  142MOL0     C19062  10.569   7.964   0.341  0.1649  0.5578 -0.6369
  142MOL0     C19063  10.472   7.991   0.235 -1.0143 -0.5585 -0.2602
  142MOL0     C19064  10.685   8.042   0.371 -0.3448 -0.0412 -0.0577
  142MOL0     C19065  10.731   8.162   0.293  0.0509 -1.5478 -0.7581
  142MOL0     O19066  10.852   8.207   0.313 -1.1762 -0.3810 -0.0549
  142MOL0     C19067  10.901   8.298   0.222 -0.6203  0.1375  0.1747
  142MOL0     C19068  10.869   8.429   0.237  0.3159 -0.0944  0.0469
  142MOL0     C19069  10.902   8.521   0.140  0.4528 -0.5566  0.2225
  142MOL0     C19070  10.975   8.475   0.020  0.3966  0.2494  0.1900
  142MOL0     O19071  11.001   8.554  -0.092 -0.4197  0.3082  0.7097
  142MOL0     C19072  10.925   8.665  -0.124  0.5513 -0.1090 -0.3376
  142MOL0     C19073  10.939   8.706  -0.267 -0.1000 -0.7212  0.0979
  142MOL0     C19074  10.821   8.796  -0.298 -0.0175  0.8932 -0.4164
  142MOL0     C19075  10.835   8.858  -0.445  0.5428 -0.1553  0.2191
  142MOL0     C19076  10.716   8.956  -0.468  0.2085 -0.1541  0.2452
  142MOL0     C19077  10.725   9.008  -0.612  0.3036  0.6244  0.2517
  142MOL0     C19078  10.635   9.127  -0.636 -0.7934  0.4615  0.8744
  142MOL0     C19079  10.643   9.168  -0.778  0.7471  0.4304 -0.1402
  142MOL0    Cl19080  10.769   9.287  -0.793 -0.1581  0.3244 -0.1243
  142MOL0     C19081  11.006   8.340   0.012  0.6986  0.5964  0.0374
  142MOL0     C19082  10.978   8.250   0.109  0.5350  0.0779 -0.3999
  142MOL0     O19083  10.653   8.212   0.213 -0.1476  0.3091  0.1957
  142MOL0     C19084  10.772   7.986   0.464 -1.2076  0.3155  0.0896
  142MOL0     C19085  10.744   7.873   0.540  0.6448  0.1863 -0.3799
  142MOL0     N19086  10.426   7.865   1.082  0.0151  0.5140 -0.4572
  142MOL0     N19087  10.433   7.800   1.192 -0.2229 -0.0212 -0.0365
  142MOL0     C19088  10.324   8.124   2.029  0.6268 -0.9824 -0.3482
  142MOL0     C19089  10.244   8.230   2.072  0.2401 -0.3840  0.2614
  142MOL0     C19090  10.195   8.656   2.269 -0.0293 -0.3618 -0.2270
  142MOL0     C19091  10.058   8.660   2.236 -0.5882 -0.2467 -0.7853
  142MOL0     C19092   9.969   8.747   2.294 -0.1063 -0.0210 -0.7996
  142MOL0     C19093  10.018   8.832   2.390  0.1964 -0.0432 -0.8966
  142MOL0     O19094   9.939   8.940   2.441 -0.7504  0.4928 -0.2699
  142MOL0     C19095   9.964   8.982   2.578  0.2997  0.4634 -1.1939
  142MOL0     C19096   9.827   9.025   2.641 -1.0647 -0.2642  0.3223
  142MOL0     C19097   9.747   8.909   2.715 -0.3147  0.3717 -0.0636
  142MOL0     C19098   9.629   8.966   2.786  0.0249  0.1851 -0.0100
  142MOL0     C19099   9.538   8.854   2.825 -0.1791  0.3880 -0.1056
  142MOL0     C19100   9.460   8.765   2.843 -0.0008  0.0797 -0.5197
  142MOL0     C19101  10.150   8.820   2.433 -0.4652 -0.6316 -0.1000
  142MOL0     C19102  10.239   8.737   2.380  0.9246  0.2520  1.0495
  142MOL0     H19103  10.416   8.486   1.945  1.5730  0.2676  1.9936
  142MOL0     H19104  10.559   8.303   1.853  1.4156 -1.9756 -0.0452
  142MOL0     H19105  10.475   7.881   1.990 -2.1107 -0.1585 -0.0426
  142MOL0     H19106  10.379   7.902   1.837 -1.7087  0.6741  2.7042
  142MOL0     H19107  10.660   7.828   1.880  1.5012 -0.8327 -1.2941
  142MOL0     H19108  10.556   7.720   1.801  2.8047  0.2448 -0.9253
  142MOL0     H19109  10.667   7.980   1.710 -2.4897  1.0201  4.6439
  142MOL0     H19110  10.673   7.833   1.613 -0.8820  0.7937 -1.1324
  142MOL0     H19111  10.430   8.008   1.640 -1.4547 -2.0725  0.3770
  142MOL0     H19112  10.534   7.963   1.497  2.5811 -0.1372  0.3198
  142MOL0     H19113  10.311   7.783   1.609  1.0060  2.8046  1.9001
  142MOL0     H19114  10.340   7.869   1.459 -1.0298  0.8665  1.0965
  142MOL0     H19115  10.545   7.727   1.414  1.1934  0.5654  0.9696
  142MOL0     H19116  10.512   7.645   1.568 -3.2446 -2.2413  0.3641
  142MOL0     H19117  10.476   7.522   1.366 -1.0212  0.0708 -3.7209
  142MOL0     H19118  10.348   7.515   1.477 -2.1174  0.8131 -0.8401
  142MOL0     H19119  10.217   7.701   1.364  1.1973  2.3019  0.1669
  142MOL0     H19120  10.213   7.551   1.280 -2.4555  0.5889  1.2989
  142MOL0     H19121  10.185   7.654   1.035  1.8318 -1.0755 -0.9977
  142MOL0     H19122  10.199   7.814   0.820 -0.9567  0.3484 -1.7140
  142MOL0     H19123  10.342   7.928   0.824 -0.9419  0.2186  1.6989
  142MOL0     H19124  10.376   7.616   0.840  1.9877  0.2418  1.9638
  142MOL0     H19125  10.492   7.743   0.810  0.4584 -0.7511 -0.2821
  142MOL0     H19126  10.357   7.803   0.598  3.0320  1.2166  2.3378
  142MOL0     H19127  10.274   7.656   0.638 -0.7112  2.1280  2.2587
  142MOL0     H19128  10.468   7.580   0.482  2.3164 -1.4984  0.1522
  142MOL0     H19129  10.494   7.521   0.638 -1.1653 -0.1428 -2.6240
  142MOL0     H19130  10.457   7.780   0.375 -1.3527  0.9206  0.8610
  142MOL0     H19131  10.512   7.964   0.137 -0.1963 -1.1254  0.2210
  142MOL0     H19132  10.372   7.949   0.253 -3.1706  4.0739  0.0519
  142MOL0     H19133  10.458   8.099   0.238  0.8872 -0.1783 -2.4685
  142MOL0     H19134  10.798   8.461   0.313 -0.3775 -2.9366  0.7339
  142MOL0     H19135  10.877   8.627   0.143 -0.8671 -0.5529 -3.8580
  142MOL0     H19136  10.824   8.623  -0.112  1.2912 -2.6776 -2.1512
  142MOL0     H19137  10.961   8.745  -0.059  4.9018 -1.1136 -1.2250
  142MOL0     H19138  11.026   8.772  -0.265 -1.8538  1.7297 -0.0805
  142MOL0     H19139  10.940   8.619  -0.333 -2.8571 -1.6253  1.0772
  142MOL0     H19140  10.813   8.875  -0.223 -1.8682  1.2217 -0.9041
  142MOL0     H19141  10.730   8.735  -0.306  0.1634  0.5868 -0.1298
  142MOL0     H19142  10.930   8.911  -0.447 -0.4971  1.8757  1.2665
  142MOL0     H19143  10.822   8.784  -0.524  0.1751  1.1698 -1.0045
  142MOL0     H19144  10.724   9.045  -0.405  1.1388  0.3654 -0.5817
  142MOL0     H19145  10.620   8.906  -0.459 -0.9644  1.8043 -0.7935
  142MOL0     H19146  10.830   9.036  -0.627  1.2956 -0.7713  3.6080
  142MOL0     H19147  10.708   8.923  -0.679  0.1107  1.3014 -0.5607
  142MOL0     H19148  10.664   9.210  -0.571 -1.9557 -0.0598  2.0912
  142MOL0     H19149  10.530   9.102  -0.618 -1.0475 -0.2175 -1.2574
  142MOL0     H19150  10.557   9.225  -0.814  0.1387  2.1785  3.6116
  142MOL0     H19151  10.665   9.081  -0.841 -1.6502 -0.5595  0.2872
  142MOL0     H19152  11.048   8.303  -0.081  0.9703 -0.2916  0.5114
  142MOL0     H19153  11.007   8.146   0.104 -1.0719 -0.5463  1.7182
  142MOL0     H19154  10.864   8.035   0.493  0.1658 -1.5757 -0.8798
  142MOL0     H19155  10.798   7.851   0.631  1.3265  1.2054 -0.5232
  142MOL0     H19156  10.301   8.024   2.064  1.5702 -1.2256 -0.4026
  142MOL0     H19157  10.164   8.201   2.139 -1.6034 -1.7866 -2.3941
  142MOL0     H19158  10.015   8.600   2.158 -1.1597 -1.7822  0.6441
  142MOL0     H19159   9.869   8.756   2.255 -0.6925 -0.6950  0.4841
  142MOL0     H19160  10.011   8.905   2.640  1.4982 -0.6870 -3.4221
  142MOL0     H19161  10.029   9.070   2.578 -0.4630  1.0435 -1.0721
  142MOL0     H19162   9.766   9.071   2.564  0.8180  3.2552  0.7398
  142MOL0     H19163   9.845   9.107   2.712 -3.9753 -1.5675  2.8086
  142MOL0     H19164   9.804   8.845   2.783 -0.9660 -1.7315 -1.3875
  142MOL0     H19165   9.715   8.841   2.635 -1.8607  1.3119 -0.2766
  142MOL0     H19166   9.565   9.024   2.719 -0.1108 -0.0954 -0.1287
  142MOL0     H19167   9.668   9.028   2.867  1.4539  0.2479 -0.7096
  142MOL0     H19168   9.389   8.687   2.864  0.1937  0.0537  0.0377
  142MOL0     H19169  10.198   8.885   2.505  0.1019  0.2228 -1.2152
  142MOL0     H19170  10.344   8.728   2.407  1.3550  2.2109  0.1834
  143MOL0     O19171   2.049   4.856   4.539  0.2561 -0.1640  0.1027
  143MOL0     C19172   2.114   4.817   4.448  0.2727  0.5457  0.0561
  143MOL0     O19173   2.196   4.711   4.448  0.2163 -0.7731 -0.2495
  143MOL0     C19174   2.167   4.616   4.538 -0.7966 -0.4365  0.7837
  143MOL0     C19175   2.282   4.555   4.599 -1.2176  0.3620 -1.4308
  143MOL0     C19176   2.261   4.435   4.679 -1.0157  0.4937 -0.1556
  143MOL0     C19177   2.134   4.390   4.708  0.6885 -0.7886 -0.4507
  143MOL0     O19178   2.133   4.268   4.783 -0.8924 -0.2239  0.4061
  143MOL0     C19179   2.038   4.170   4.747 -0.3310  0.3851 -1.0583
  143MOL0     C19180   2.110   4.035   4.790  0.0691 -0.3552  0.1987
  143MOL0     C19181   2.010   3.925   4.768 -0.3715 -0.0436  0.6456
  143MOL0     C19182   2.080   3.786   4.761  0.3197  0.7222  0.0855
  143MOL0     C19183   2.102   3.714   4.897 -0.7293 -0.3980 -0.0336
  143MOL0     C19184   2.139   3.569   4.858  0.5903 -0.6221  0.2989
  143MOL0     C19185   2.222   3.506   4.969 -0.3143  0.1753 -0.4515
  143MOL0     C19186   2.220   3.355   4.954  0.2899  1.1074 -1.1283
  143MOL0     N19187   2.352   3.299   5.010 -0.5309 -0.3586 -0.1486
  143MOL0     C19188   2.480   3.321   4.950 -1.2238 -0.1637  0.0673
  143MOL0     C19189   2.572   3.251   5.031  0.2997  0.4111 -0.0034
  143MOL0     C19190   2.719   3.251   5.016 -0.5500  0.1259  0.0315
  143MOL0     C19191   2.757   3.129   4.940 -0.4194  0.6082  1.1305
  143MOL0     C19192   2.906   3.137   4.911 -0.1941 -0.4797 -0.1729
  143MOL0     C19193   2.961   3.246   4.826 -0.1264 -0.2493  0.3441
  143MOL0     O19194   2.889   3.273   4.701 -0.7506 -0.3640 -0.3905
  143MOL0     C19195   2.954   3.360   4.614  0.7261 -0.4748  0.0439
  143MOL0     C19196   2.917   3.356   4.483  0.5717 -1.0147 -0.2826
  143MOL0     C19197   2.971   3.439   4.381 -0.0876  0.2728  1.3305
  143MOL0     C19198   2.910   3.444   4.243  0.0727  0.8838  0.1052
  143MOL0     C19199   3.067   3.532   4.425  0.3921  0.7109  0.5878
  143MOL0     C19200   3.134   3.625   4.322  0.7996  0.5660 -0.5142
  143MOL0     O19201   3.148   3.750   4.374 -0.0966 -0.0913 -0.4076
  143MOL0     C19202   3.193   3.860   4.297 -0.4769  0.2319 -0.8961
  143MOL0     C19203   3.244   3.854   4.164  0.0492 -1.4559 -0.3803
  143MOL0     C19204   3.281   3.976   4.099  0.2076 -0.5025  0.0921
  143MOL0     C19205   3.281   4.100   4.165 -0.3745  0.6185  0.2270
  143MOL0     O19206   3.324   4.212   4.107  0.1839  0.7949  0.0089
  143MOL0     C19207   3.457   4.204   4.051 -0.0942  0.1186  0.3826
  143MOL0     C19208   3.482   4.281   3.915  0.4096 -0.6420  0.6735
  143MOL0     C19209   3.431   4.213   3.796 -0.1975 -0.0555 -0.4329
  143MOL0     C19210   3.286   4.236   3.760 -0.0855 -0.3248  0.2188
  143MOL0     C19211   3.273   4.191   3.614  0.3599 -0.3857  1.1684
  143MOL0     C19212   3.325   4.047   3.570  0.3780 -0.6912 -0.2636
  143MOL0     C19213   3.317   4.047   3.408  0.0721 -0.3930 -0.0870
  143MOL0     C19214   3.376   3.916   3.350 -0.0570 -0.2169 -0.4066
  143MOL0    Cl19215   3.359   3.888   3.180  0.1149  0.2234 -0.0795
  143MOL0     C19216   3.241   4.103   4.300 -0.5774 -0.6199  0.4937
  143MOL0     C19217   3.188   3.994   4.358  0.0125  0.1430 -1.0047
  143MOL0     O19218   3.181   3.582   4.212 -0.3669 -0.2242 -0.5283
  143MOL0     C19219   3.116   3.524   4.549  0.2244  0.2592  0.3320
  143MOL0     C19220   3.061   3.442   4.650  0.0711  0.2534  1.0233
  143MOL0     N19221   2.490   3.206   5.138 -0.5176  0.0307  0.2083
  143MOL0     N19222   2.366   3.219   5.122  0.2442  0.1910  1.2351
  143MOL0     C19223   2.020   4.456   4.648  0.3428  0.5041 -0.9145
  143MOL0     C19224   2.037   4.566   4.571  0.1947  0.6204 -0.8700
  143MOL0     C19225   2.125   4.911   4.335 -0.8434  0.4276  0.1136
  143MOL0     C19226   2.066   5.037   4.336  0.7375 -0.3746  0.5790
  143MOL0     C19227   2.078   5.120   4.216  0.4316  0.1573 -0.4156
  143MOL0     C19228   2.152   5.084   4.107  0.0011  0.6620 -0.0512
  143MOL0     O19229   2.187   5.163   4.003  1.0176  0.7531 -0.5009
  143MOL0     C19230   2.207   5.299   4.029  0.1833 -0.5099 -0.2275
  143MOL0     C19231   2.344   5.351   3.996  0.0539 -0.7786  0.0546
  143MOL0     C19232   2.445   5.280   4.091  1.2605  0.6862 -0.8241
  143MOL0     C19233   2.592   5.325   4.062 -0.2716 -0.0551 -0.6722
  143MOL0     C19234   2.616   5.471   4.046  0.2871  0.2834  0.1597
  143MOL0     C19235   2.634   5.589   4.027 -0.0841 -1.0114 -0.0369
  143MOL0     C19236   2.199   4.953   4.108  0.8187  0.2386  0.0613
  143MOL0     C19237   2.198   4.867   4.221 -0.6103 -0.6708  0.6824
  143MOL0     H19238   2.382   4.593   4.588 -0.4931 -0.8312  0.5506
  143MOL0     H19239   2.341   4.382   4.731 -1.0881  0.8715  0.3437
  143MOL0     H19240   1.949   4.193   4.805  0.2788 -1.6875  0.8304
  143MOL0     H19241   2.020   4.172   4.639 -1.0057 -1.3095 -1.0056
  143MOL0     H19242   2.191   4.024   4.717  0.5689  0.6132  0.5888
  143MOL0     H19243   2.149   4.035   4.892  2.6546 -2.4149 -0.6661
  143MOL0     H19244   1.928   3.938   4.840  1.4593  2.1417  2.4834
  143MOL0     H19245   1.971   3.944   4.667 -2.4910  1.1969  1.6132
  143MOL0     H19246   2.017   3.714   4.708  1.3641 -1.2094  1.3309
  143MOL0     H19247   2.173   3.798   4.704 -0.1085  3.1843 -0.2067
  143MOL0     H19248   2.184   3.755   4.957  0.6272 -1.3741 -1.1807
  143MOL0     H19249   2.007   3.715   4.952  0.2445 -0.4664  1.7175
  143MOL0     H19250   2.055   3.505   4.830 -1.2137  2.2582 -1.3434
  143MOL0     H19251   2.205   3.567   4.772 -1.6143  1.3724 -1.5622
  143MOL0     H19252   2.325   3.541   4.958  0.0692 -0.8924 -0.3491
  143MOL0     H19253   2.189   3.535   5.070 -3.7923 -0.8594 -1.1634
  143MOL0     H19254   2.210   3.312   4.855 -1.7855 -0.4080 -0.3158
  143MOL0     H19255   2.145   3.313   5.021 -0.1918  1.8397 -1.1878
  143MOL0     H19256   2.509   3.386   4.868  1.4678 -0.3353  0.8008
  143MOL0     H19257   2.746   3.339   4.957 -2.7776  0.7110 -0.1964
  143MOL0     H19258   2.776   3.237   5.109  1.0012  2.8233 -0.3916
  143MOL0     H19259   2.703   3.123   4.845  2.0568  2.9128 -0.5513
  143MOL0     H19260   2.737   3.036   4.995 -0.7149  0.5136  0.8670
  143MOL0     H19261   2.932   3.044   4.859  2.0416  1.1532 -2.1702
  143MOL0     H19262   2.963   3.143   5.004 -0.4433  0.3389 -0.0699
  143MOL0     H19263   3.065   3.222   4.801  0.3578  1.6668  0.3950
  143MOL0     H19264   2.959   3.338   4.886 -1.5456  1.0390 -1.5604
  143MOL0     H19265   2.835   3.289   4.457 -0.5028  0.4998 -0.9377
  143MOL0     H19266   2.829   3.372   4.227 -0.4158  2.0852 -3.9093
  143MOL0     H19267   2.872   3.540   4.207 -1.9263  0.1853  0.2248
  143MOL0     H19268   2.984   3.411   4.170  1.4977  2.4191  0.7874
  143MOL0     H19269   3.265   3.763   4.108  1.3456 -0.0986 -2.2091
  143MOL0     H19270   3.324   3.977   3.999  1.7677  0.6575  0.7285
  143MOL0     H19271   3.529   4.247   4.122  1.8533  4.9018 -3.8780
  143MOL0     H19272   3.476   4.099   4.030 -2.2064 -0.2310 -0.0175
  143MOL0     H19273   3.434   4.379   3.925  1.8215  0.0320  1.1157
  143MOL0     H19274   3.587   4.310   3.909  0.8174 -1.8354  1.6557
  143MOL0     H19275   3.440   4.106   3.817  0.7828 -0.2422 -1.6797
  143MOL0     H19276   3.489   4.234   3.706 -1.3476  0.6785 -1.0389
  143MOL0     H19277   3.231   4.179   3.835  1.3151 -1.8034  0.1854
  143MOL0     H19278   3.253   4.337   3.783  1.4788 -0.0493  1.3688
  143MOL0     H19279   3.334   4.260   3.555  0.2564  0.5934  2.1751
  143MOL0     H19280   3.169   4.200   3.584  0.0661 -1.4900  1.8219
  143MOL0     H19281   3.426   4.030   3.609  0.6150  3.3849  1.5057
  143MOL0     H19282   3.251   3.979   3.613 -0.2975  0.2490  0.1074
  143MOL0     H19283   3.377   4.133   3.378 -0.2427 -0.0130  0.3565
  143MOL0     H19284   3.217   4.069   3.369  0.4788 -1.4007 -1.7681
  143MOL0     H19285   3.330   3.835   3.408 -1.6168  0.5466 -0.5320
  143MOL0     H19286   3.484   3.923   3.370  0.2827 -0.1594 -2.1510
  143MOL0     H19287   3.246   4.202   4.344  0.9399 -0.2064 -0.5450
  143MOL0     H19288   3.146   3.989   4.458  1.5817  0.6482 -0.2880
  143MOL0     H19289   3.209   3.575   4.575 -0.6888  0.5479  3.3956
  143MOL0     H19290   3.094   3.457   4.752  0.3613  1.0909  0.8091
  143MOL0     H19291   1.924   4.411   4.668 -0.0158  0.5748 -2.4141
  143MOL0     H19292   1.951   4.622   4.535 -0.8645  0.8288  1.7582
  143MOL0     H19293   1.994   5.069   4.411 -3.6970 -0.1144 -3.3213
  143MOL0     H19294   2.036   5.220   4.220  0.6402  0.2227  0.5587
  143MOL0     H19295   2.129   5.357   3.978  0.2505  0.1545  0.4062
  143MOL0     H19296   2.191   5.336   4.131 -2.4695 -1.2077 -0.3086
  143MOL0     H19297   2.356   5.458   4.012 -1.2096 -0.8029  1.3511
  143MOL0     H19298   2.375   5.327   3.894 -2.5298  3.9234 -2.1155
  143MOL0     H19299   2.435   5.171   4.095 -5.0102  0.8555 -1.4804
  143MOL0     H19300   2.415   5.316   4.190  0.2204  0.5090 -1.0607
  143MOL0     H19301   2.615   5.277   3.967 -2.2233  0.2800 -1.3347
  143MOL0     H19302   2.658   5.281   4.138 -1.2010  0.5895  0.5515
  143MOL0     H19303   2.661   5.692   4.012  2.5913 -1.6945 -0.5763
  143MOL0     H19304   2.243   4.913   4.017 -1.5518 -1.3385 -0.4905
  143MOL0     H19305   2.259   4.778   4.227 -0.4646 -0.5087  1.8301
  144MOL0     O19306   2.709   4.936   9.374 -0.0081  0.7194 -0.4191
  144MOL0     C19307   2.738   4.859   9.465  0.6576 -0.3256 -0.5788
  144MOL0     O19308   2.671   4.842   9.577 -0.5425  0.8066  0.3590
  144MOL0     C19309   2.570   4.929   9.610 -0.4821  0.6149 -0.2004
  144MOL0     C19310   2.462   4.868   9.670 -0.3239  0.4233  0.1520
  144MOL0     C19311   2.352   4.944   9.715 -0.1092 -0.4409  0.3727
  144MOL0     C19312   2.350   5.085   9.686 -1.0552 -0.2498 -0.5768
  144MOL0     O19313   2.227   5.145   9.710 -0.4453  0.2476  0.6220
  144MOL0     C19314   2.165   5.197   9.586 -0.5976 -0.3651 -0.1207
  144MOL0     C19315   2.018   5.231   9.630  0.4517  0.0599 -0.7869
  144MOL0     C19316   1.934   5.293   9.515 -0.3169  0.8796 -0.0503
  144MOL0     C19317   1.820   5.396   9.560 -0.3142 -0.2510 -0.2173
  144MOL0     C19318   1.755   5.452   9.434  0.5815  0.3670  0.7340
  144MOL0     C19319   1.647   5.546   9.458  0.4818  0.1510 -0.3413
  144MOL0     C19320   1.699   5.683   9.509 -0.0666 -1.3458 -0.4098
  144MOL0     C19321   1.606   5.786   9.460  0.0311  0.0455 -0.3322
  144MOL0     N19322   1.635   5.923   9.509 -0.5395  0.4561  0.8000
  144MOL0     C19323   1.752   5.984   9.467 -0.0341 -0.7221 -0.3846
  144MOL0     C19324   1.730   6.123   9.481  0.1714  0.2074 -0.8103
  144MOL0     C19325   1.825   6.236   9.433  0.0690 -0.1470 -0.1377
  144MOL0     C19326   1.861   6.209   9.283 -0.4108 -0.1491 -1.1826
  144MOL0     C19327   1.736   6.213   9.202 -0.0716 -0.1082 -0.8554
  144MOL0     C19328   1.766   6.201   9.053 -1.0689 -0.4557 -0.2421
  144MOL0     O19329   1.650   6.234   8.980  0.2767  0.2604  0.2764
  144MOL0     C19330   1.664   6.218   8.845  0.4470  0.7266 -0.8413
  144MOL0     C19331   1.687   6.089   8.792  0.1884  0.7625  0.3511
  144MOL0     C19332   1.707   6.069   8.653 -1.0214 -0.5919  0.0220
  144MOL0     C19333   1.732   5.928   8.614  0.0176 -0.2608 -0.7844
  144MOL0     C19334   1.698   6.188   8.569 -0.5153  0.1078 -1.4611
  144MOL0     C19335   1.718   6.176   8.424 -0.3995  0.5002  0.1590
  144MOL0     O19336   1.657   6.070   8.357 -0.1540  0.2741  0.3926
  144MOL0     C19337   1.625   6.055   8.228  0.8520  0.4958 -0.0940
  144MOL0     C19338   1.626   5.923   8.173 -0.6831  0.1994 -0.7377
  144MOL0     C19339   1.606   5.905   8.037  0.3819 -1.2676  0.7559
  144MOL0     C19340   1.587   6.012   7.950  0.0613  0.1249 -0.5450
  144MOL0     O19341   1.561   6.000   7.818  0.5349  0.5510  1.2907
  144MOL0     C19342   1.562   5.857   7.766 -0.2493  0.0615 -0.0665
  144MOL0     C19343   1.533   5.860   7.615  0.0988  0.5120  0.5506
  144MOL0     C19344   1.652   5.799   7.540 -0.8252  0.0186 -0.5070
  144MOL0     C19345   1.627   5.802   7.389 -0.3481  0.3875  0.4190
  144MOL0     C19346   1.762   5.765   7.320  0.1091 -0.1045  0.3489
  144MOL0     C19347   1.749   5.748   7.167 -0.1564 -0.0490 -0.1473
  144MOL0     C19348   1.895   5.742   7.106 -0.0915 -0.7705 -0.2321
  144MOL0     C19349   1.952   5.890   7.103 -0.3931 -0.8990  0.2245
  144MOL0    Cl19350   2.115   5.898   7.027 -0.3491 -0.0824 -0.0234
  144MOL0     C19351   1.583   6.141   8.007  0.2548  0.1886  0.2378
  144MOL0     C19352   1.604   6.168   8.138  1.0729 -0.0978  0.5456
  144MOL0     O19353   1.783   6.267   8.368  0.4700  0.2527 -0.0939
  144MOL0     C19354   1.667   6.310   8.624  0.2542 -0.4341 -0.3626
  144MOL0     C19355   1.652   6.327   8.760 -0.3559  1.0782 -1.3088
  144MOL0     N19356   1.596   6.136   9.523 -0.0013 -0.2003 -0.5745
  144MOL0     N19357   1.545   6.018   9.537 -0.0044  0.0245 -0.4850
  144MOL0     C19358   2.460   5.145   9.623 -0.3971 -0.5092  0.4880
  144MOL0     C19359   2.578   5.068   9.593  0.2427  0.8989  0.2990
  144MOL0     C19360   2.860   4.780   9.451  0.3102 -0.1697 -0.1900
  144MOL0     C19361   2.972   4.839   9.379 -0.1754  0.9062  1.0008
  144MOL0     C19362   3.083   4.753   9.357 -0.2900  0.3296  0.5663
  144MOL0     C19363   3.096   4.618   9.416 -0.0242  0.0565  0.6662
  144MOL0     O19364   3.196   4.531   9.382 -0.3107  0.1842 -0.1368
  144MOL0     C19365   3.316   4.585   9.324  0.1529 -1.0162 -0.4654
  144MOL0     C19366   3.446   4.518   9.348  0.0066 -0.1302  0.2082
  144MOL0     C19367   3.489   4.541   9.490  0.3712  0.4325 -1.3689
  144MOL0     C19368   3.604   4.444   9.541  0.6396 -0.0044  0.3830
  144MOL0     C19369   3.647   4.467   9.677 -0.4262 -0.5974  0.5421
  144MOL0     C19370   3.690   4.500   9.781 -0.1472  0.9662 -0.2547
  144MOL0     C19371   2.980   4.569   9.481  0.1971  0.0242 -0.6349
  144MOL0     C19372   2.864   4.651   9.487  0.0827 -0.3426  0.0427
  144MOL0     H19373   2.458   4.763   9.698 -1.2919  0.5776  0.6207
  144MOL0     H19374   2.269   4.910   9.775 -3.6168  4.6408 -0.9965
  144MOL0     H19375   2.212   5.285   9.541  0.3418 -1.6997 -1.8949
  144MOL0     H19376   2.172   5.119   9.510  3.6518 -1.5446  1.1796
  144MOL0     H19377   1.967   5.138   9.657  2.3897 -0.2606  2.3057
  144MOL0     H19378   2.028   5.300   9.715  1.2945 -0.5983 -0.3311
  144MOL0     H19379   1.997   5.348   9.444  0.1108 -1.8863 -2.0037
  144MOL0     H19380   1.899   5.210   9.454  1.6783  0.8408 -1.2370
  144MOL0     H19381   1.738   5.364   9.625 -1.5094  3.5592  0.4425
  144MOL0     H19382   1.871   5.472   9.620  3.3566 -1.7288 -1.2631
  144MOL0     H19383   1.831   5.489   9.366  1.7573 -3.7536 -0.4674
  144MOL0     H19384   1.708   5.367   9.384  4.0646 -0.6986 -1.0664
  144MOL0     H19385   1.589   5.564   9.367 -1.5721  0.7555  1.0175
  144MOL0     H19386   1.588   5.500   9.537  0.7975  1.2819  0.5792
  144MOL0     H19387   1.686   5.690   9.618  3.1367  3.6391 -0.0293
  144MOL0     H19388   1.804   5.711   9.494 -0.6745  0.6836 -1.2598
  144MOL0     H19389   1.508   5.756   9.500 -1.3078  1.4485 -2.3324
  144MOL0     H19390   1.594   5.800   9.352 -1.2475  1.9339 -0.0046
  144MOL0     H19391   1.841   5.928   9.439 -0.7472 -0.8732 -2.5224
  144MOL0     H19392   1.771   6.331   9.439 -3.7821 -2.1526  0.0780
  144MOL0     H19393   1.913   6.234   9.497  0.6727 -1.5710 -0.9603
  144MOL0     H19394   1.902   6.108   9.270  1.6187  0.8742 -3.4692
  144MOL0     H19395   1.929   6.288   9.251 -0.5508  1.4744  2.0251
  144MOL0     H19396   1.669   6.297   9.220 -1.0973 -1.3476  1.5981
  144MOL0     H19397   1.674   6.124   9.219 -1.3159  0.5157 -1.9787
  144MOL0     H19398   1.819   6.109   9.027  1.5572  1.4916 -2.4106
  144MOL0     H19399   1.841   6.280   9.041 -0.9806 -0.6349 -0.9256
  144MOL0     H19400   1.686   5.996   8.848  1.4177  0.3370 -0.3102
  144MOL0     H19401   1.805   5.888   8.685  1.9622  0.7868 -2.0919
  144MOL0     H19402   1.632   5.884   8.613  0.1784 -0.7013  0.4229
  144MOL0     H19403   1.785   5.924   8.518 -1.3999  0.1616 -1.6108
  144MOL0     H19404   1.643   5.840   8.241  0.7381  1.1017  0.0600
  144MOL0     H19405   1.625   5.800   8.018 -2.6569 -1.6471 -0.7208
  144MOL0     H19406   1.655   5.800   7.782 -0.7346 -0.6569  0.2247
  144MOL0     H19407   1.482   5.801   7.814 -0.7341 -0.5037 -1.4858
  144MOL0     H19408   1.438   5.808   7.598  0.3266  0.9635 -2.7470
  144MOL0     H19409   1.515   5.964   7.585  2.4187  0.4577 -1.3417
  144MOL0     H19410   1.665   5.696   7.573  0.3055  0.2317 -0.2215
  144MOL0     H19411   1.744   5.854   7.562  0.7467 -2.8877  0.6069
  144MOL0     H19412   1.552   5.727   7.359  1.9968 -1.4515 -1.2929
  144MOL0     H19413   1.585   5.902   7.373 -1.4930 -0.1828 -0.2790
  144MOL0     H19414   1.810   5.674   7.356  1.8514 -0.4920 -2.6307
  144MOL0     H19415   1.827   5.852   7.330  0.7949  0.1707 -4.3137
  144MOL0     H19416   1.695   5.654   7.153  2.9251 -2.0327  0.4123
  144MOL0     H19417   1.690   5.832   7.128  4.2662  2.9336 -1.1638
  144MOL0     H19418   1.889   5.712   7.001  2.4260 -2.3684 -0.0062
  144MOL0     H19419   1.967   5.673   7.151  0.7925 -0.6649 -1.4042
  144MOL0     H19420   1.966   5.932   7.203 -2.0577 -1.6160  0.7829
  144MOL0     H19421   1.878   5.950   7.049  0.6685 -1.2555 -1.7244
  144MOL0     H19422   1.560   6.228   7.946  1.5647  0.5228  0.1917
  144MOL0     H19423   1.594   6.267   8.183 -3.7693  0.0860 -0.4766
  144MOL0     H19424   1.646   6.402   8.572 -0.6484  0.7974  2.0440
  144MOL0     H19425   1.614   6.418   8.807  0.5407  0.1379  1.4116
  144MOL0     H19426   2.478   5.252   9.613 -0.4389 -0.5548 -0.1400
  144MOL0     H19427   2.671   5.110   9.558  2.8634 -4.4515 -0.2874
  144MOL0     H19428   2.976   4.944   9.354  2.3947  0.8805  1.0588
  144MOL0     H19429   3.163   4.800   9.301  0.4515 -1.2501  0.2549
  144MOL0     H19430   3.297   4.589   9.216  1.4451 -1.1880 -0.7219
  144MOL0     H19431   3.331   4.688   9.360 -0.5679 -1.1254  0.1693
  144MOL0     H19432   3.518   4.570   9.285 -0.9905  1.6431  0.4719
  144MOL0     H19433   3.441   4.412   9.322  2.9808 -0.0271 -1.2423
  144MOL0     H19434   3.399   4.533   9.552  0.2964 -0.0684 -1.5436
  144MOL0     H19435   3.536   4.640   9.501  4.0372 -1.0398 -2.4301
  144MOL0     H19436   3.701   4.454   9.492  1.1179  2.4230  1.6619
  144MOL0     H19437   3.562   4.343   9.543 -3.7133  1.5169  3.9212
  144MOL0     H19438   3.721   4.527   9.881  0.8424  2.3669 -0.8932
  144MOL0     H19439   2.969   4.467   9.517 -0.9851  0.2067 -0.4222
  144MOL0     H19440   2.784   4.595   9.534  2.3459 -1.7241  2.6094
  145MOL0     O19441   5.665   6.129   3.165  0.2789  0.3409 -0.4058
  145MOL0     C19442   5.580   6.152   3.082 -0.0121 -0.0070  0.0509
  145MOL0     O19443   5.446   6.166   3.110 -0.1843 -0.0733 -0.4630
  145MOL0     C19444   5.425   6.150   3.242 -0.8879  0.2508 -0.5709
  145MOL0     C19445   5.373   6.023   3.284 -0.1641 -0.2078 -0.6276
  145MOL0     C19446   5.345   6.008   3.415  0.0411 -0.1726  0.0118
  145MOL0     C19447   5.365   6.106   3.512  0.0442  0.1148  0.0914
  145MOL0     O19448   5.337   6.092   3.645 -0.9825 -0.5338  0.7012
  145MOL0     C19449   5.312   5.965   3.704 -0.1080 -0.5454 -0.1574
  145MOL0     C19450   5.436   5.875   3.731  0.2933  0.4905  0.1321
  145MOL0     C19451   5.551   5.950   3.791  0.4263  0.3800 -0.3668
  145MOL0     C19452   5.670   5.854   3.819  0.7382 -0.3326 -0.5469
  145MOL0     C19453   5.779   5.923   3.886 -0.9050 -0.6997  0.2226
  145MOL0     C19454   5.909   5.837   3.897 -0.0573 -0.2810  0.3595
  145MOL0     C19455   5.903   5.712   3.987  0.2555 -0.8051 -1.0235
  145MOL0     C19456   5.828   5.738   4.108 -0.4393  1.7876  0.0189
  145MOL0     N19457   5.850   5.626   4.205  0.3637 -0.1924  0.2454
  145MOL0     C19458   5.818   5.500   4.193  0.4212  0.4497  0.1134
  145MOL0     C19459   5.878   5.435   4.301 -0.1515  0.2847  0.7902
  145MOL0     C19460   5.867   5.296   4.339 -0.5338 -0.7842 -1.4708
  145MOL0     C19461   5.898   5.200   4.221 -0.1461 -0.3908  0.2125
  145MOL0     C19462   5.792   5.102   4.209  0.3377  0.6009  0.2983
  145MOL0     C19463   5.799   4.983   4.120  1.0347 -0.5435 -0.5338
  145MOL0     O19464   5.906   4.898   4.159  0.3239  0.1706 -0.9007
  145MOL0     C19465   5.903   4.770   4.119 -0.3848 -0.5262  0.1119
  145MOL0     C19466   5.844   4.715   4.005 -0.0784  0.3365  0.3450
  145MOL0     C19467   5.869   4.583   3.967  0.0576  0.0207  0.0346
  145MOL0     C19468   5.813   4.542   3.836 -0.5602 -0.1885 -0.3489
  145MOL0     C19469   5.935   4.493   4.048 -0.4247  0.2382  0.7893
  145MOL0     C19470   5.977   4.349   4.020 -0.3383 -0.1842 -0.2141
  145MOL0     O19471   6.045   4.295   4.124 -0.1998 -0.3235  0.3432
  145MOL0     C19472   6.104   4.173   4.101 -0.0275 -0.2185  0.4416
  145MOL0     C19473   6.222   4.161   4.022  0.1264 -0.0828 -0.0068
  145MOL0     C19474   6.270   4.034   3.992 -0.1463 -0.2052 -0.8055
  145MOL0     C19475   6.200   3.919   4.047 -0.6546 -0.5224  1.0092
  145MOL0     O19476   6.255   3.796   4.021  0.2035  0.2427 -0.2316
  145MOL0     C19477   6.396   3.778   4.035  0.9641  0.6455 -0.5436
  145MOL0     C19478   6.419   3.619   4.024  1.0639 -0.1163 -0.0696
  145MOL0     C19479   6.369   3.559   3.898  0.9705  0.0268 -0.7644
  145MOL0     C19480   6.430   3.412   3.880  0.0370  0.6266  0.3070
  145MOL0     C19481   6.358   3.286   3.940  0.6388  0.1630 -0.6092
  145MOL0     C19482   6.376   3.266   4.087  0.5874 -0.3191  0.1643
  145MOL0     C19483   6.518   3.224   4.123 -0.3647 -0.4811 -0.3088
  145MOL0     C19484   6.547   3.253   4.272  0.1075 -0.5750 -0.3645
  145MOL0    Cl19485   6.705   3.178   4.318 -0.0402  0.0689 -0.0032
  145MOL0     C19486   6.086   3.931   4.124  0.0052  0.4854  0.2807
  145MOL0     C19487   6.038   4.064   4.151 -0.1749  0.2134 -0.1961
  145MOL0     O19488   5.970   4.292   3.905  0.4281 -0.7378 -0.2758
  145MOL0     C19489   6.000   4.547   4.160 -1.0708  0.4093 -1.0264
  145MOL0     C19490   5.989   4.680   4.192 -0.0812 -0.5172  0.6476
  145MOL0     N19491   5.941   5.534   4.377  0.2143 -0.3464 -0.2166
  145MOL0     N19492   5.928   5.642   4.320  0.7359 -1.3683  0.5980
  145MOL0     C19493   5.423   6.224   3.471 -0.4973 -0.7713  0.0465
  145MOL0     C19494   5.459   6.250   3.329  0.1980  0.3632 -0.1129
  145MOL0     C19495   5.612   6.196   2.948  0.2024 -0.6493  0.3347
  145MOL0     C19496   5.509   6.262   2.873 -0.1277 -0.0531  0.0902
  145MOL0     C19497   5.547   6.316   2.751  0.8114  0.2519 -0.5894
  145MOL0     C19498   5.670   6.308   2.697 -1.0455 -0.1587 -0.5192
  145MOL0     O19499   5.705   6.366   2.576  0.0079 -0.1878  0.4392
  145MOL0     C19500   5.845   6.384   2.538  0.8083  0.0950 -0.5498
  145MOL0     C19501   5.844   6.525   2.468  0.8806 -0.0317 -0.5408
  145MOL0     C19502   5.986   6.562   2.421 -0.0789  0.2395  0.3840
  145MOL0     C19503   5.975   6.691   2.343  1.0309  0.5800 -0.4895
  145MOL0     C19504   5.903   6.673   2.210  0.6840  0.2647 -0.0007
  145MOL0     C19505   5.845   6.644   2.111  0.0362  0.4012  0.2206
  145MOL0     C19506   5.775   6.237   2.768  0.7794  0.3041  0.7003
  145MOL0     C19507   5.742   6.181   2.887  1.0212 -0.1721 -0.2640
  145MOL0     H19508   5.349   5.963   3.197  3.9580  1.5080 -3.2984
  145MOL0     H19509   5.301   5.912   3.444 -1.8580  0.8908  0.8512
  145MOL0     H19510   5.270   5.982   3.804  0.2398  1.5220 -0.3342
  145MOL0     H19511   5.232   5.922   3.643  1.8019 -1.2915 -2.2957
  145MOL0     H19512   5.405   5.794   3.798  3.1029 -3.1993 -2.6260
  145MOL0     H19513   5.474   5.826   3.641 -2.3489  1.2932 -1.5200
  145MOL0     H19514   5.587   6.019   3.714  0.0785  2.5368  1.3124
  145MOL0     H19515   5.528   6.013   3.877 -3.1425  1.6382 -2.0279
  145MOL0     H19516   5.634   5.759   3.861 -0.7259 -1.2927 -3.6071
  145MOL0     H19517   5.703   5.815   3.722 -3.5990  1.5543 -3.1005
  145MOL0     H19518   5.804   6.014   3.831 -0.8953  1.3672  3.3725
  145MOL0     H19519   5.740   5.947   3.985 -1.7990  0.7802 -0.4410
  145MOL0     H19520   5.911   5.800   3.794 -0.7482 -1.5734  0.7890
  145MOL0     H19521   6.000   5.894   3.917 -1.0825  1.4262  0.3168
  145MOL0     H19522   5.849   5.630   3.938 -2.3054  0.6311 -0.8194
  145MOL0     H19523   6.008   5.688   4.005  0.3579  1.5304  2.4265
  145MOL0     H19524   5.721   5.748   4.087 -0.6117 -1.9699 -1.6967
  145MOL0     H19525   5.857   5.831   4.158 -2.8387  2.4986  0.2174
  145MOL0     H19526   5.750   5.449   4.126 -0.5984  1.5091  0.2973
  145MOL0     H19527   5.945   5.281   4.414  0.8793  0.1454 -2.6941
  145MOL0     H19528   5.766   5.277   4.375 -0.7546  2.0880 -0.3948
  145MOL0     H19529   5.998   5.161   4.240  0.6781  1.3479 -0.3727
  145MOL0     H19530   5.899   5.251   4.124  0.8205 -1.6764 -0.4911
  145MOL0     H19531   5.696   5.154   4.199  1.8940  3.5396 -0.3958
  145MOL0     H19532   5.794   5.053   4.307  5.0446 -1.6066 -0.6150
  145MOL0     H19533   5.808   5.020   4.017 -2.0267 -0.2248 -0.7816
  145MOL0     H19534   5.697   4.946   4.129  0.9171 -0.9394 -2.8659
  145MOL0     H19535   5.784   4.778   3.941 -0.5198 -0.2989  0.1216
  145MOL0     H19536   5.747   4.622   3.800 -2.2918 -1.7730 -0.8423
  145MOL0     H19537   5.894   4.527   3.764 -0.2130 -1.6678  0.3191
  145MOL0     H19538   5.745   4.457   3.843 -0.7638 -0.1645 -1.6650
  145MOL0     H19539   6.277   4.241   3.973  0.9624 -1.3754 -1.2475
  145MOL0     H19540   6.359   4.041   3.931  0.5386 -0.4142  0.1532
  145MOL0     H19541   6.439   3.823   3.945 -4.1135  0.7132 -3.2698
  145MOL0     H19542   6.438   3.818   4.128 -2.0609  0.8619  0.8398
  145MOL0     H19543   6.528   3.616   4.031  1.2996  3.3549 -0.5157
  145MOL0     H19544   6.360   3.570   4.102  0.4621  0.2563 -0.2803
  145MOL0     H19545   6.391   3.627   3.815 -1.5463  0.7285 -0.9375
  145MOL0     H19546   6.261   3.555   3.910  0.8885 -0.7216 -1.6610
  145MOL0     H19547   6.421   3.399   3.772  1.2975 -1.8230  0.4287
  145MOL0     H19548   6.537   3.405   3.899 -0.2511  1.5814  2.7094
  145MOL0     H19549   6.372   3.198   3.876  0.1045  3.1840 -5.3804
  145MOL0     H19550   6.251   3.307   3.934  0.4282 -1.3074 -3.4795
  145MOL0     H19551   6.351   3.365   4.126  1.4581  0.7286 -1.7932
  145MOL0     H19552   6.308   3.188   4.121  1.8298 -0.9128  1.3904
  145MOL0     H19553   6.592   3.268   4.055  0.3311  0.3965  0.9768
  145MOL0     H19554   6.526   3.116   4.109  1.3245 -0.2213 -1.5822
  145MOL0     H19555   6.460   3.208   4.320 -0.7224  1.2261 -0.1063
  145MOL0     H19556   6.548   3.361   4.293  0.4777  0.1747 -3.7369
  145MOL0     H19557   6.043   3.842   4.168  0.1378  1.2273  2.0247
  145MOL0     H19558   5.944   4.075   4.204  0.2077 -3.2471  1.4437
  145MOL0     H19559   6.063   4.486   4.224  0.2356 -1.0290 -3.5209
  145MOL0     H19560   6.054   4.729   4.265  0.8074  3.9173 -2.6792
  145MOL0     H19561   5.455   6.304   3.537 -0.0475  0.9868 -2.1737
  145MOL0     H19562   5.505   6.342   3.297  2.0334 -0.1537  0.8683
  145MOL0     H19563   5.410   6.292   2.904  0.6428  1.6412  1.0415
  145MOL0     H19564   5.461   6.365   2.706  1.2193  1.1803 -0.3798
  145MOL0     H19565   5.910   6.390   2.627 -1.4758 -4.3515  1.7916
  145MOL0     H19566   5.878   6.308   2.466 -2.0040  0.4584 -2.3608
  145MOL0     H19567   5.802   6.591   2.544  0.1509 -1.6051  0.4799
  145MOL0     H19568   5.773   6.521   2.384  1.3672  3.5238 -1.2788
  145MOL0     H19569   6.019   6.482   2.355  0.6875 -1.6898  2.9501
  145MOL0     H19570   6.066   6.572   2.494  2.5594 -0.4390 -2.2275
  145MOL0     H19571   6.076   6.728   2.320  0.6198  0.9093 -1.8714
  145MOL0     H19572   5.919   6.760   2.407 -0.0605  0.7096 -1.5462
  145MOL0     H19573   5.791   6.607   2.026  2.4643  1.0628 -1.6950
  145MOL0     H19574   5.873   6.215   2.729  0.8057  1.2054  0.2285
  145MOL0     H19575   5.817   6.125   2.941  2.3571  0.5414 -1.3400
  146MOL0     O19576   5.319   8.853   9.320  0.0828  0.3548  0.2616
  146MOL0     C19577   5.380   8.957   9.291 -0.1126 -0.4009  0.7177
  146MOL0     O19578   5.313   9.062   9.243 -0.4088 -0.4117  0.6225
  146MOL0     C19579   5.174   9.055   9.230 -0.4419  0.0166 -0.9418
  146MOL0     C19580   5.101   8.953   9.160 -1.1464 -0.1775  0.0005
  146MOL0     C19581   4.965   8.952   9.143 -0.4856  0.2899  0.0348
  146MOL0     C19582   4.895   9.060   9.185  1.3350  0.1501 -0.6137
  146MOL0     O19583   4.761   9.063   9.148 -0.0207 -0.4506 -0.1887
  146MOL0     C19584   4.655   9.122   9.235  0.1346  0.4127  0.1751
  146MOL0     C19585   4.518   9.079   9.193 -0.4068  0.4287 -0.5604
  146MOL0     C19586   4.474   9.132   9.050 -0.2533 -0.8632 -0.1985
  146MOL0     C19587   4.342   9.052   9.016  1.0434 -0.2246 -0.1178
  146MOL0     C19588   4.286   9.093   8.876  0.2763  0.0712 -1.1988
  146MOL0     C19589   4.168   8.999   8.847 -0.5235  0.6216 -0.1013
  146MOL0     C19590   4.207   8.847   8.835  1.2120 -0.1797  0.0307
  146MOL0     C19591   4.082   8.751   8.821  0.4643 -0.0570  1.0920
  146MOL0     N19592   4.125   8.620   8.871 -0.3860 -0.2529 -0.0909
  146MOL0     C19593   4.091   8.579   8.989  0.4381 -0.0672  0.0887
  146MOL0     C19594   4.165   8.475   9.018  0.6377 -0.7020 -0.5779
  146MOL0     C19595   4.145   8.414   9.151 -0.2610  0.0326 -0.4489
  146MOL0     C19596   4.071   8.281   9.140 -0.0510  0.3245  0.1853
  146MOL0     C19597   4.066   8.189   9.271  0.0927 -0.3635  1.0648
  146MOL0     C19598   3.952   8.235   9.372 -0.5109 -0.2430  0.7920
  146MOL0     O19599   3.981   8.370   9.411  0.2004  0.2361  0.1417
  146MOL0     C19600   3.885   8.458   9.454  0.6378  1.1097  0.3022
  146MOL0     C19601   3.795   8.515   9.363  0.4351 -1.2485 -0.1230
  146MOL0     C19602   3.690   8.596   9.407 -1.0264  0.8587 -0.2678
  146MOL0     C19603   3.621   8.674   9.297  0.0597 -0.5564 -0.0345
  146MOL0     C19604   3.681   8.629   9.544 -0.6861  0.0871 -0.3776
  146MOL0     C19605   3.586   8.726   9.609 -0.1424  0.8082 -0.3015
  146MOL0     O19606   3.630   8.799   9.720  0.6615  0.3405  0.3052
  146MOL0     C19607   3.524   8.829   9.802 -0.2914  0.1616  0.8732
  146MOL0     C19608   3.540   8.943   9.879  0.3754 -0.3682 -0.4722
  146MOL0     C19609   3.453   8.985   9.975  0.5259  0.2825  0.1264
  146MOL0     C19610   3.342   8.904   9.995  0.1947  0.3390 -0.3164
  146MOL0     O19611   3.243   8.923  10.092  0.8469  0.4340  0.6395
  146MOL0     C19612   3.209   9.063  10.119  0.5435  0.0505 -0.0643
  146MOL0     C19613   3.084   9.065  10.209 -1.2768 -0.4722  0.0043
  146MOL0     C19614   2.950   9.036  10.146 -0.3797  0.1231 -0.5203
  146MOL0     C19615   2.915   8.898  10.092  0.5097 -0.9766 -0.2740
  146MOL0     C19616   2.769   8.905  10.040  0.4994  0.2955  0.3331
  146MOL0     C19617   2.735   8.766   9.978  0.5667  0.0604 -0.5405
  146MOL0     C19618   2.596   8.746   9.910 -0.1635  0.4686  0.0836
  146MOL0     C19619   2.486   8.789  10.007 -0.4888  0.0364  0.8215
  146MOL0    Cl19620   2.450   8.960   9.976  0.2447  0.3908 -0.0496
  146MOL0     C19621   3.329   8.783   9.921  0.6835  0.1551  0.2762
  146MOL0     C19622   3.415   8.745   9.834 -0.0851  0.4483  0.8291
  146MOL0     O19623   3.483   8.739   9.551 -0.1741  0.0889  0.1831
  146MOL0     C19624   3.778   8.581   9.632 -0.2580  0.2296  0.6571
  146MOL0     C19625   3.873   8.491   9.584 -1.0025  0.1670 -0.7455
  146MOL0     N19626   4.236   8.436   8.908  0.0727 -0.1097 -0.2633
  146MOL0     N19627   4.208   8.530   8.821  0.9407 -0.0379 -0.2053
  146MOL0     C19628   4.958   9.157   9.267 -0.0850 -0.8109 -0.5991
  146MOL0     C19629   5.100   9.151   9.293 -0.1916 -0.7266  0.4719
  146MOL0     C19630   5.525   8.963   9.309 -0.1638 -0.0841  0.9349
  146MOL0     C19631   5.602   8.861   9.378 -0.8848 -0.4243 -0.0816
  146MOL0     C19632   5.737   8.896   9.417  0.2781 -0.3439 -0.5564
  146MOL0     C19633   5.794   9.025   9.380  0.1168  0.6291 -0.1663
  146MOL0     O19634   5.925   9.047   9.405 -0.8439  0.0690  0.5405
  146MOL0     C19635   5.970   9.149   9.491 -0.2159  0.7478 -1.0808
  146MOL0     C19636   5.897   9.155   9.625  0.7498  0.4915 -0.8668
  146MOL0     C19637   5.991   9.247   9.714  0.5324  0.4123 -0.3312
  146MOL0     C19638   5.900   9.327   9.815 -0.0761  0.9840 -0.6249
  146MOL0     C19639   5.935   9.464   9.833  1.0081 -0.4362 -0.0182
  146MOL0     C19640   5.962   9.585   9.856 -0.1386 -0.0403 -0.0447
  146MOL0     C19641   5.720   9.111   9.310 -1.4878  0.5149 -0.4301
  146MOL0     C19642   5.589   9.085   9.278  0.3220  0.1688 -0.1922
  146MOL0     H19643   5.159   8.872   9.117 -1.1409  0.1543 -0.6253
  146MOL0     H19644   4.917   8.876   9.084  0.4222  1.3020 -2.1199
  146MOL0     H19645   4.661   9.104   9.343 -4.3651 -2.6608  0.1882
  146MOL0     H19646   4.651   9.231   9.226  0.3580  0.3616 -0.5973
  146MOL0     H19647   4.513   8.970   9.196  1.3004  0.2946 -1.2276
  146MOL0     H19648   4.450   9.118   9.269 -0.3580  0.0906 -0.3401
  146MOL0     H19649   4.453   9.240   9.048  1.6679 -0.3773  1.9402
  146MOL0     H19650   4.531   9.104   8.961 -3.0565  1.8972 -3.1517
  146MOL0     H19651   4.367   8.946   9.011 -0.6885 -0.8022  1.9559
  146MOL0     H19652   4.273   9.057   9.100  1.0205  1.4256 -0.2016
  146MOL0     H19653   4.263   9.200   8.881  0.7273  0.1189  0.6361
  146MOL0     H19654   4.370   9.093   8.805  0.7483  2.4599 -0.7310
  146MOL0     H19655   4.092   9.011   8.925 -1.2788 -0.3400 -0.6560
  146MOL0     H19656   4.130   9.011   8.745  0.6967 -2.9065 -1.1139
  146MOL0     H19657   4.269   8.827   8.747 -1.0689 -1.7705 -1.3277
  146MOL0     H19658   4.262   8.805   8.920 -0.0447 -0.4887  0.7128
  146MOL0     H19659   4.052   8.753   8.715  0.1785 -1.7934  1.1005
  146MOL0     H19660   4.002   8.783   8.888 -0.3156  1.0809 -0.3193
  146MOL0     H19661   4.019   8.630   9.052  1.8369  1.4280  0.5551
  146MOL0     H19662   4.245   8.392   9.190 -0.9220  0.0495  1.3207
  146MOL0     H19663   4.096   8.484   9.219  1.8985  1.5205 -0.3188
  146MOL0     H19664   4.110   8.226   9.055 -4.0357  0.2935 -1.8708
  146MOL0     H19665   3.973   8.300   9.095  0.0858  3.1580  0.8636
  146MOL0     H19666   4.164   8.203   9.317  0.2020  0.1557  0.6921
  146MOL0     H19667   4.059   8.088   9.229  0.8955 -0.2090  0.5263
  146MOL0     H19668   3.954   8.171   9.460  1.0850 -1.8296 -0.3243
  146MOL0     H19669   3.856   8.220   9.321 -0.3120  2.1176 -0.4383
  146MOL0     H19670   3.823   8.490   9.262  1.1523 -0.4901 -0.1196
  146MOL0     H19671   3.514   8.650   9.292  0.2820 -1.5029 -0.4790
  146MOL0     H19672   3.622   8.779   9.329  6.5445  0.9063 -3.3384
  146MOL0     H19673   3.673   8.658   9.202 -0.1379 -4.3921  0.3369
  146MOL0     H19674   3.621   9.009   9.852 -2.6266  3.1769 -1.6853
  146MOL0     H19675   3.461   9.078  10.031 -1.4413 -1.1245  2.9672
  146MOL0     H19676   3.297   9.106  10.167 -0.3734  0.4112  1.3336
  146MOL0     H19677   3.188   9.125  10.031 -1.3549  0.4363  0.6147
  146MOL0     H19678   3.094   8.987  10.286 -0.2193 -0.1026  0.2635
  146MOL0     H19679   3.089   9.159  10.266  1.1750 -0.6389  0.2106
  146MOL0     H19680   2.939   9.108  10.064  2.0279  4.9132  2.8369
  146MOL0     H19681   2.875   9.053  10.224 -0.3447 -1.5156 -0.0978
  146MOL0     H19682   2.977   8.876  10.005 -2.4467  0.5924 -2.9639
  146MOL0     H19683   2.928   8.832  10.179  2.1339  0.0852  0.3279
  146MOL0     H19684   2.755   8.978   9.960 -1.1674 -0.7379 -0.3584
  146MOL0     H19685   2.708   8.928  10.128  1.1074  1.9467  0.3587
  146MOL0     H19686   2.814   8.735   9.909 -1.5346 -4.0280 -1.4282
  146MOL0     H19687   2.741   8.699  10.064  1.9350  0.8452  0.0027
  146MOL0     H19688   2.583   8.640   9.885 -2.6822  0.4329  1.3122
  146MOL0     H19689   2.603   8.807   9.820 -1.1713  0.4035 -0.0451
  146MOL0     H19690   2.523   8.770  10.109  2.6038  0.2335 -0.1459
  146MOL0     H19691   2.400   8.722  10.005 -1.3177  1.0723  1.0017
  146MOL0     H19692   3.251   8.715   9.954 -0.0515 -0.8997 -3.2450
  146MOL0     H19693   3.407   8.651   9.779  0.6225  1.7406 -1.6563
  146MOL0     H19694   3.774   8.598   9.739  1.5841  3.9682  0.3030
  146MOL0     H19695   3.932   8.439   9.659 -0.9301  0.8627 -0.3063
  146MOL0     H19696   4.902   9.231   9.324 -0.7845 -0.4890 -1.6790
  146MOL0     H19697   5.158   9.220   9.353  0.0940  0.9798 -1.6302
  146MOL0     H19698   5.553   8.770   9.411  0.6391 -0.9127  0.9496
  146MOL0     H19699   5.797   8.839   9.488  1.4630  0.1841 -1.1171
  146MOL0     H19700   6.072   9.112   9.508 -0.6644  0.0403  0.1912
  146MOL0     H19701   5.982   9.245   9.441  0.6839 -0.0091 -2.4122
  146MOL0     H19702   5.888   9.058   9.675  2.5694  0.3875 -0.6928
  146MOL0     H19703   5.795   9.194   9.624 -0.4812 -1.7000  4.1051
  146MOL0     H19704   6.040   9.310   9.640  0.7449 -1.5240 -1.9413
  146MOL0     H19705   6.066   9.194   9.774 -0.1514  0.3273  0.4803
  146MOL0     H19706   5.899   9.261   9.902  0.2952  1.3311 -0.3523
  146MOL0     H19707   5.795   9.329   9.783 -0.2721 -2.0360 -0.4696
  146MOL0     H19708   6.006   9.682   9.865  0.2764 -0.1910 -0.4292
  146MOL0     H19709   5.779   9.193   9.270 -2.2317  1.6688  0.7489
  146MOL0     H19710   5.542   9.160   9.215  1.3700  0.8658 -0.1734
  147MOL0     O19711   9.848   9.331   1.298  0.0896  0.1866 -0.1378
  147MOL0     C19712   9.973   9.313   1.303  0.5659 -0.4242 -0.6004
  147MOL0     O19713  10.040   9.211   1.237 -0.6053 -0.7423 -0.2095
  147MOL0     C19714   9.977   9.141   1.142  0.0296  0.3759 -0.8307
  147MOL0     C19715   9.952   9.005   1.150  0.5245 -0.0680 -0.2275
  147MOL0     C19716   9.901   8.931   1.042  0.2573 -1.0491  0.0255
  147MOL0     C19717   9.864   8.994   0.923  0.3391 -0.0698  0.1148
  147MOL0     O19718   9.810   8.918   0.822 -0.5255  0.2791  0.3231
  147MOL0     C19719   9.722   8.973   0.732 -0.5326 -0.1173 -0.1510
  147MOL0     C19720   9.608   8.882   0.688 -0.1742  0.8348  1.3216
  147MOL0     C19721   9.659   8.777   0.583  0.9761 -0.1793 -0.0161
  147MOL0     C19722   9.552   8.744   0.478 -0.1693 -0.4956 -1.5583
  147MOL0     C19723   9.609   8.673   0.358  0.3068  0.0849  0.5875
  147MOL0     C19724   9.508   8.628   0.256 -0.4161 -0.7045 -0.6877
  147MOL0     C19725   9.562   8.609   0.114  0.4567 -0.3063 -0.6392
  147MOL0     C19726   9.455   8.550   0.013 -0.0127  0.7342  0.0858
  147MOL0     N19727   9.437   8.408   0.012  0.7955 -0.1679  0.4947
  147MOL0     C19728   9.489   8.325  -0.085  0.0450 -0.6279 -0.0233
  147MOL0     C19729   9.415   8.215  -0.066  0.0790  0.8385  0.0080
  147MOL0     C19730   9.410   8.097  -0.159  0.2104 -0.1336 -0.2120
  147MOL0     C19731   9.461   7.971  -0.092 -0.1108 -0.2011  0.8170
  147MOL0     C19732   9.463   7.857  -0.192  0.0878  0.0061 -0.0023
  147MOL0     C19733   9.537   7.733  -0.134  0.8517  0.6232  0.3312
  147MOL0     O19734   9.673   7.741  -0.095  0.2318 -0.1257  0.4343
  147MOL0     C19735   9.767   7.762  -0.194 -0.0860 -0.2278  0.8912
  147MOL0     C19736   9.762   7.750  -0.331 -0.3581 -0.4594  0.1485
  147MOL0     C19737   9.877   7.757  -0.417  0.9709  0.6998 -0.6473
  147MOL0     C19738   9.840   7.753  -0.567  0.4276  1.1401 -1.3185
  147MOL0     C19739  10.002   7.762  -0.360  0.0680 -0.5056  0.5380
  147MOL0     C19740  10.118   7.751  -0.444  0.1881  0.4243 -0.1550
  147MOL0     O19741  10.230   7.791  -0.398 -1.4172 -0.1933  0.1572
  147MOL0     C19742  10.342   7.769  -0.467  0.3917  0.2250  0.1001
  147MOL0     C19743  10.438   7.867  -0.476 -0.3073 -0.6781  0.0833
  147MOL0     C19744  10.567   7.840  -0.536  0.0037  0.1996 -0.2831
  147MOL0     C19745  10.601   7.717  -0.598  1.3107  0.7112  0.1513
  147MOL0     O19746  10.723   7.700  -0.656 -0.0255  0.2433 -0.7591
  147MOL0     C19747  10.723   7.630  -0.785  0.0367 -0.1697  0.3622
  147MOL0     C19748  10.863   7.613  -0.843 -0.0032 -0.0972  0.4945
  147MOL0     C19749  10.936   7.739  -0.885  0.5071  0.1534 -0.1212
  147MOL0     C19750  11.044   7.712  -0.992  0.4693 -0.2018  0.7001
  147MOL0     C19751  11.127   7.840  -1.031  0.0705 -0.1172  0.2705
  147MOL0     C19752  11.038   7.951  -1.100  0.3130  0.3335  0.0040
  147MOL0     C19753  11.103   8.068  -1.174 -0.4637  0.4022  0.3930
  147MOL0     C19754  10.995   8.148  -1.246 -0.1404  0.3623 -0.4254
  147MOL0    Cl19755  11.041   8.285  -1.332  0.0382 -0.0900 -0.1230
  147MOL0     C19756  10.501   7.614  -0.581  0.1783  0.5780  0.1584
  147MOL0     C19757  10.383   7.636  -0.513  0.6837 -0.1117 -0.2585
  147MOL0     O19758  10.105   7.693  -0.552 -0.3934  0.1162  0.3880
  147MOL0     C19759  10.013   7.787  -0.225  0.6768  0.6793 -0.3021
  147MOL0     C19760   9.900   7.783  -0.141 -0.2064 -0.4662  0.8119
  147MOL0     N19761   9.330   8.233   0.042  0.3235 -0.0009 -0.0459
  147MOL0     N19762   9.355   8.350   0.099 -0.8499  0.3635  0.5034
  147MOL0     C19763   9.876   9.136   0.916 -0.2880  0.1764  0.5076
  147MOL0     C19764   9.926   9.209   1.029 -0.5581  0.0756 -0.0175
  147MOL0     C19765  10.051   9.383   1.415  0.5938  0.6491  0.1714
  147MOL0     C19766   9.999   9.500   1.480 -0.3071  0.2955  0.0533
  147MOL0     C19767  10.064   9.545   1.590  0.1656  0.9595 -0.4725
  147MOL0     C19768  10.192   9.487   1.635 -0.0169 -0.4992  0.3678
  147MOL0     O19769  10.249   9.547   1.748  0.1240 -0.2462  0.0543
  147MOL0     C19770  10.371   9.496   1.796  0.2202  0.6448 -0.1270
  147MOL0     C19771  10.435   9.603   1.876 -0.6810 -0.6636  0.5545
  147MOL0     C19772  10.474   9.737   1.801 -0.7763 -0.0586 -0.0336
  147MOL0     C19773  10.539   9.844   1.892  0.3569  0.1061  0.2324
  147MOL0     C19774  10.428   9.910   1.967  0.0089  0.4005 -0.2669
  147MOL0     C19775  10.330   9.968   2.028  0.2159  0.1863  0.4589
  147MOL0     C19776  10.249   9.381   1.561 -0.8252 -0.3365  1.0057
  147MOL0     C19777  10.183   9.337   1.450  0.0201 -0.2202  0.3660
  147MOL0     H19778   9.987   8.966   1.244  0.8998  2.6918  0.8719
  147MOL0     H19779   9.876   8.825   1.042  0.2521 -1.0532  0.5212
  147MOL0     H19780   9.670   9.045   0.797  4.5416  1.7630  2.3350
  147MOL0     H19781   9.771   9.020   0.646 -1.3542 -2.8583 -2.2449
  147MOL0     H19782   9.562   8.835   0.776 -1.4553  0.1715  0.3327
  147MOL0     H19783   9.528   8.943   0.645 -0.0880  0.5134  0.7014
  147MOL0     H19784   9.754   8.807   0.537 -0.2828  1.4016 -1.7617
  147MOL0     H19785   9.674   8.680   0.631 -1.9616 -1.7568 -2.0020
  147MOL0     H19786   9.485   8.671   0.524 -0.5720  0.0304 -1.3004
  147MOL0     H19787   9.485   8.827   0.451  1.6581  2.7376  2.5792
  147MOL0     H19788   9.686   8.727   0.303 -0.2867  1.4895  1.0813
  147MOL0     H19789   9.656   8.581   0.396  2.3855  0.3482 -1.1729
  147MOL0     H19790   9.468   8.528   0.277 -3.7782  0.5881 -0.3208
  147MOL0     H19791   9.422   8.696   0.258  0.9955  1.1833 -1.4857
  147MOL0     H19792   9.601   8.702   0.071 -2.6159 -0.0617 -3.2191
  147MOL0     H19793   9.648   8.541   0.104  1.5991  0.9560  0.2222
  147MOL0     H19794   9.473   8.575  -0.092  0.5672  1.6872  0.3940
  147MOL0     H19795   9.357   8.592   0.038  1.0386  2.8085  0.9266
  147MOL0     H19796   9.553   8.349  -0.169 -0.2099 -0.9983 -0.3294
  147MOL0     H19797   9.304   8.079  -0.182 -0.8183  2.3343  1.9682
  147MOL0     H19798   9.469   8.120  -0.248  0.9533 -3.3587 -0.6955
  147MOL0     H19799   9.397   7.954  -0.006 -2.2213  0.0277 -0.6410
  147MOL0     H19800   9.561   7.986  -0.049  0.4774  0.0548 -0.5913
  147MOL0     H19801   9.519   7.883  -0.282 -1.3687 -1.7023 -1.4902
  147MOL0     H19802   9.360   7.831  -0.218 -0.4979  1.4041  0.8133
  147MOL0     H19803   9.514   7.642  -0.190  0.9884 -0.7586  2.4428
  147MOL0     H19804   9.484   7.715  -0.041  0.0824  0.0276 -0.2152
  147MOL0     H19805   9.672   7.742  -0.391  2.2347 -1.3151 -3.9969
  147MOL0     H19806   9.886   7.666  -0.614  1.1755  1.4299 -1.1413
  147MOL0     H19807   9.732   7.742  -0.579  0.5151 -1.6598 -0.1676
  147MOL0     H19808   9.884   7.844  -0.608  1.2888  1.4477  0.2119
  147MOL0     H19809  10.414   7.966  -0.438  1.9721 -0.0678  0.1057
  147MOL0     H19810  10.653   7.907  -0.530  1.6757 -1.8771  0.3548
  147MOL0     H19811  10.675   7.532  -0.773 -2.1234  1.0178  2.0969
  147MOL0     H19812  10.668   7.684  -0.863  3.2323  0.5439 -1.5730
  147MOL0     H19813  10.916   7.544  -0.778 -1.3833  2.1249  4.2709
  147MOL0     H19814  10.850   7.562  -0.939  2.1502  1.2766 -0.6267
  147MOL0     H19815  10.980   7.797  -0.803  2.0508  0.8114 -1.3572
  147MOL0     H19816  10.862   7.806  -0.929 -2.8331 -1.6055  2.3557
  147MOL0     H19817  11.117   7.637  -0.961 -0.0934 -1.0504  0.0099
  147MOL0     H19818  11.006   7.661  -1.081  3.1241 -3.3946  1.2003
  147MOL0     H19819  11.199   7.804  -1.105 -1.1468 -2.9036  0.3329
  147MOL0     H19820  11.181   7.871  -0.941  1.6324  0.5018 -0.8306
  147MOL0     H19821  10.982   7.898  -1.177  1.5937  0.8185 -1.2908
  147MOL0     H19822  10.970   7.987  -1.021  2.0300 -1.5032  2.4703
  147MOL0     H19823  11.159   8.023  -1.256 -0.2643  1.1177  0.1289
  147MOL0     H19824  11.161   8.131  -1.106  1.7172  1.6103 -2.4124
  147MOL0     H19825  10.923   8.193  -1.177  1.7901  3.0228  0.0320
  147MOL0     H19826  10.941   8.084  -1.315 -1.5125 -0.1902  1.0954
  147MOL0     H19827  10.507   7.511  -0.613  1.5783  0.3538  1.0695
  147MOL0     H19828  10.308   7.557  -0.510  1.1036 -0.4859  1.1026
  147MOL0     H19829  10.109   7.802  -0.176  0.3771 -0.8804  0.8398
  147MOL0     H19830   9.914   7.794  -0.034 -0.1320 -3.8385  1.2627
  147MOL0     H19831   9.854   9.190   0.824  3.2580 -1.6069 -1.6093
  147MOL0     H19832   9.946   9.315   1.019  0.0473  0.0201  0.5196
  147MOL0     H19833   9.908   9.548   1.444 -0.5072  2.0856  2.6541
  147MOL0     H19834  10.014   9.630   1.637 -4.3673 -0.2057 -2.6605
  147MOL0     H19835  10.338   9.408   1.851  1.6796  0.2348  0.1223
  147MOL0     H19836  10.455   9.471   1.730  1.2578 -1.6745  1.9118
  147MOL0     H19837  10.526   9.553   1.909 -0.8744 -1.6485 -0.3601
  147MOL0     H19838  10.375   9.642   1.959 -1.1514  2.0740 -0.9383
  147MOL0     H19839  10.379   9.771   1.762  0.8892  2.2787 -2.3762
  147MOL0     H19840  10.545   9.708   1.722  0.7801 -0.0939  1.3175
  147MOL0     H19841  10.590   9.920   1.833  0.2518 -0.6309 -0.8489
  147MOL0     H19842  10.603   9.787   1.960 -0.4203  0.4156  1.2359
  147MOL0     H19843  10.258  10.027   2.081 -0.9778  0.3741 -1.2570
  147MOL0     H19844  10.350   9.345   1.573 -1.1939 -1.8389 -0.1218
  147MOL0     H19845  10.232   9.258   1.396 -0.3584 -1.4892  1.8021
  148MOL0     O19846   6.369   9.054   5.069  0.1555 -0.4169  0.5346
  148MOL0     C19847   6.437   9.132   5.002  0.4374 -1.2318  0.2252
  148MOL0     O19848   6.497   9.099   4.886  0.6323 -0.4155  0.2700
  148MOL0     C19849   6.455   8.987   4.819 -1.0719 -0.0102  0.1311
  148MOL0     C19850   6.553   8.902   4.768  0.4037 -0.4580  0.2952
  148MOL0     C19851   6.515   8.794   4.689 -0.5585  0.2884  0.9618
  148MOL0     C19852   6.385   8.775   4.655 -0.1520  0.2341 -1.4263
  148MOL0     O19853   6.348   8.674   4.575  0.7825  0.2644  0.6429
  148MOL0     C19854   6.438   8.566   4.540  1.3446  1.0340 -0.8324
  148MOL0     C19855   6.492   8.591   4.398 -0.1978 -0.8235 -0.1932
  148MOL0     C19856   6.564   8.469   4.353 -0.9857 -0.6856  0.2294
  148MOL0     C19857   6.458   8.365   4.315  0.9652 -0.6794 -0.7622
  148MOL0     C19858   6.511   8.228   4.264  1.0646 -0.1938 -1.2781
  148MOL0     C19859   6.401   8.117   4.276  0.2992  0.2468  0.2377
  148MOL0     C19860   6.450   7.993   4.212 -0.6064 -0.2186  0.1135
  148MOL0     C19861   6.414   7.982   4.066 -0.0774  0.7579 -0.3697
  148MOL0     N19862   6.491   7.883   3.991 -0.1807  0.1948  0.4079
  148MOL0     C19863   6.625   7.881   3.964  0.1391  0.3041 -0.7275
  148MOL0     C19864   6.645   7.772   3.891 -0.4081  0.5253  0.2446
  148MOL0     C19865   6.773   7.753   3.810  0.1224 -0.2583 -0.3739
  148MOL0     C19866   6.818   7.608   3.806 -0.8228  0.3691 -0.3995
  148MOL0     C19867   6.940   7.585   3.714 -0.4114  0.0464 -0.0329
  148MOL0     C19868   6.966   7.440   3.691  0.1155 -0.3638 -0.7987
  148MOL0     O19869   7.053   7.433   3.575  0.1966  0.5655  0.4835
  148MOL0     C19870   7.158   7.353   3.556  0.8260  0.0383 -0.0447
  148MOL0     C19871   7.181   7.247   3.640 -0.3002  0.2445  0.4177
  148MOL0     C19872   7.297   7.167   3.638 -0.4176  0.0465  0.3496
  148MOL0     C19873   7.323   7.065   3.740 -0.5439 -0.9280 -0.1751
  148MOL0     C19874   7.398   7.208   3.546  0.6360  0.1884 -0.0971
  148MOL0     C19875   7.527   7.138   3.533  0.6068  0.6434 -0.3266
  148MOL0     O19876   7.624   7.207   3.478 -0.4888  0.6281 -0.7497
  148MOL0     C19877   7.745   7.145   3.480  0.1678  0.9620 -0.5248
  148MOL0     C19878   7.775   7.065   3.363  0.1818 -0.4110 -0.0157
  148MOL0     C19879   7.908   7.010   3.348  0.1176 -0.6961 -0.5191
  148MOL0     C19880   7.999   7.024   3.456 -0.5417  0.3813  0.2764
  148MOL0     O19881   8.113   6.951   3.442 -0.1615 -0.1483  0.4778
  148MOL0     C19882   8.176   6.897   3.560  0.8358  0.4574 -0.0116
  148MOL0     C19883   8.095   6.787   3.622 -0.2496  0.6253  0.5814
  148MOL0     C19884   8.145   6.643   3.581  0.2281 -0.0224  0.1826
  148MOL0     C19885   8.244   6.580   3.690  0.2724  0.0796 -0.9836
  148MOL0     C19886   8.245   6.432   3.673 -1.2383  0.5014 -0.0501
  148MOL0     C19887   8.331   6.373   3.786 -0.3213 -0.3312 -0.2193
  148MOL0     C19888   8.348   6.220   3.762  0.7366 -0.2459 -1.0857
  148MOL0     C19889   8.485   6.172   3.795  0.0090  0.6551 -1.4301
  148MOL0    Cl19890   8.472   5.991   3.806 -0.3847 -0.0533  0.2777
  148MOL0     C19891   7.967   7.113   3.570  0.2595  1.1598 -0.1464
  148MOL0     C19892   7.842   7.176   3.572 -0.0770 -0.3265 -0.2180
  148MOL0     O19893   7.536   7.016   3.569  0.0746 -0.1701  0.0316
  148MOL0     C19894   7.370   7.316   3.466  0.5411  0.2572 -0.5762
  148MOL0     C19895   7.255   7.395   3.476 -0.0720 -0.0328  1.1422
  148MOL0     N19896   6.530   7.705   3.871 -0.2314  0.3990 -0.6590
  148MOL0     N19897   6.436   7.782   3.920 -0.8358 -0.1562 -0.6202
  148MOL0     C19898   6.282   8.860   4.705 -0.8686  0.3785 -0.6339
  148MOL0     C19899   6.319   8.969   4.782 -0.5323  0.1350 -0.1950
  148MOL0     C19900   6.454   9.276   5.046 -0.0895 -0.4288 -0.5311
  148MOL0     C19901   6.546   9.353   4.967  0.1404  0.8367 -0.6300
  148MOL0     C19902   6.594   9.470   5.025 -0.1446  0.3983 -0.1503
  148MOL0     C19903   6.550   9.521   5.147  1.1441 -0.1174  0.1144
  148MOL0     O19904   6.614   9.632   5.199 -0.0680  0.1767 -0.9989
  148MOL0     C19905   6.531   9.710   5.291 -0.3359 -0.8367  0.2048
  148MOL0     C19906   6.586   9.851   5.314 -1.2300  0.6870 -0.8252
  148MOL0     C19907   6.473   9.949   5.359 -0.5950 -0.4234  0.2075
  148MOL0     C19908   6.518  10.098   5.350  0.4488  0.8251  0.3585
  148MOL0     C19909   6.536  10.140   5.213 -0.3153  0.8580  0.1658
  148MOL0     C19910   6.547  10.191   5.103 -0.2503 -0.2535 -0.0914
  148MOL0     C19911   6.456   9.449   5.225 -0.3132 -0.1895 -0.6006
  148MOL0     C19912   6.407   9.328   5.175 -0.4849  0.1779  0.2948
  148MOL0     H19913   6.657   8.924   4.787 -0.0063  2.1007 -0.0482
  148MOL0     H19914   6.593   8.721   4.667  1.1100  2.2998 -0.1428
  148MOL0     H19915   6.515   8.538   4.613 -0.8917 -4.4538 -0.0949
  148MOL0     H19916   6.373   8.478   4.539 -0.0627  1.9111  2.2410
  148MOL0     H19917   6.411   8.624   4.332  1.0403  0.2183 -1.2304
  148MOL0     H19918   6.573   8.665   4.403  0.5556 -1.3847 -2.8397
  148MOL0     H19919   6.624   8.489   4.264 -0.9548  0.6133  0.5295
  148MOL0     H19920   6.632   8.423   4.426  1.0510 -1.2764 -1.8986
  148MOL0     H19921   6.395   8.343   4.402  0.7789 -0.0853 -0.7425
  148MOL0     H19922   6.390   8.399   4.237 -0.5875  3.0347  1.9453
  148MOL0     H19923   6.540   8.258   4.162  1.7780  0.5160 -0.8761
  148MOL0     H19924   6.591   8.196   4.331 -1.6403 -0.3960  2.1056
  148MOL0     H19925   6.371   8.100   4.380  0.5140 -3.7329 -0.1928
  148MOL0     H19926   6.308   8.140   4.223  0.1678 -0.2609  0.2400
  148MOL0     H19927   6.559   7.993   4.222 -0.5492  0.0139 -0.5093
  148MOL0     H19928   6.419   7.901   4.264 -0.3109  0.8451  2.2743
  148MOL0     H19929   6.423   8.081   4.019  3.4186  1.0084  0.5013
  148MOL0     H19930   6.308   7.955   4.062 -0.1746  1.2801 -3.0292
  148MOL0     H19931   6.694   7.958   3.997  1.1661 -1.0823  0.5166
  148MOL0     H19932   6.754   7.770   3.703 -1.0114 -2.2583 -0.5321
  148MOL0     H19933   6.849   7.823   3.847  0.5835 -1.4688  1.0342
  148MOL0     H19934   6.737   7.544   3.770 -0.1525 -1.1199  0.6748
  148MOL0     H19935   6.834   7.562   3.904 -0.8265  0.8371 -0.1763
  148MOL0     H19936   7.026   7.638   3.756 -0.5961  2.1889 -2.1179
  148MOL0     H19937   6.923   7.633   3.617  0.0061 -0.7124 -0.4900
  148MOL0     H19938   6.876   7.382   3.669  1.4024 -2.2592 -1.3479
  148MOL0     H19939   7.004   7.386   3.779  0.1806  0.6023 -0.2269
  148MOL0     H19940   7.106   7.207   3.707 -1.1180  0.1340 -0.5481
  148MOL0     H19941   7.411   7.095   3.799 -1.8729 -0.9971  1.9356
  148MOL0     H19942   7.229   7.065   3.795 -0.5445 -0.4198 -0.1651
  148MOL0     H19943   7.330   6.966   3.694 -2.2742 -0.5713 -1.2779
  148MOL0     H19944   7.695   7.041   3.294  0.4537 -1.8731  0.1519
  148MOL0     H19945   7.921   6.949   3.259 -2.8481 -0.8445 -0.9363
  148MOL0     H19946   8.275   6.859   3.536  0.5132 -0.4212  0.0087
  148MOL0     H19947   8.194   6.973   3.637  1.2603  1.6691 -1.2747
  148MOL0     H19948   8.087   6.792   3.731 -2.3566  3.7019  0.4275
  148MOL0     H19949   7.992   6.803   3.588 -0.7784  0.2703  1.9652
  148MOL0     H19950   8.197   6.646   3.484 -0.1055 -0.2961 -0.0075
  148MOL0     H19951   8.051   6.588   3.570  1.6724 -3.3191  2.6884
  148MOL0     H19952   8.342   6.625   3.671  1.9441 -2.2772  1.3564
  148MOL0     H19953   8.211   6.603   3.791  4.0619  1.4128  0.1246
  148MOL0     H19954   8.300   6.398   3.585 -1.4233 -0.6039  0.2425
  148MOL0     H19955   8.142   6.396   3.666 -1.1174  0.2043 -0.3046
  148MOL0     H19956   8.428   6.423   3.780 -1.9347  2.8647 -3.4726
  148MOL0     H19957   8.303   6.389   3.891  1.2008 -3.7018  0.8569
  148MOL0     H19958   8.337   6.200   3.655 -0.0166 -1.0811 -0.8639
  148MOL0     H19959   8.276   6.164   3.822  0.1854  2.5392  1.0236
  148MOL0     H19960   8.514   6.206   3.895 -0.3341 -0.2785 -0.9929
  148MOL0     H19961   8.564   6.201   3.726 -0.1712  0.5038 -1.7012
  148MOL0     H19962   8.041   7.112   3.649 -0.6466  2.1219  0.7447
  148MOL0     H19963   7.834   7.250   3.650  0.0151  0.4162 -0.8954
  148MOL0     H19964   7.445   7.354   3.398 -0.1535  0.5819 -1.1681
  148MOL0     H19965   7.229   7.483   3.418 -0.7454 -2.2175 -2.1523
  148MOL0     H19966   6.177   8.835   4.695 -0.5467 -2.6366  2.0889
  148MOL0     H19967   6.233   9.027   4.814 -3.4169 -2.1201 -3.1246
  148MOL0     H19968   6.601   9.308   4.885  0.2465  0.5578 -0.4079
  148MOL0     H19969   6.665   9.524   4.962 -0.0655  0.2590 -0.1795
  148MOL0     H19970   6.431   9.722   5.248 -0.7858  0.3721  1.5148
  148MOL0     H19971   6.518   9.653   5.383 -1.3828  0.9588  1.2078
  148MOL0     H19972   6.635   9.885   5.222  0.2298  1.5899  0.2457
  148MOL0     H19973   6.672   9.858   5.382 -0.6697 -1.5145 -1.2406
  148MOL0     H19974   6.439   9.937   5.462  1.0809  0.9507  0.9810
  148MOL0     H19975   6.382   9.935   5.299  0.8605  0.4587 -2.3786
  148MOL0     H19976   6.620  10.099   5.390  1.5343  1.7868 -2.1605
  148MOL0     H19977   6.448  10.171   5.391  0.7571  0.4593  1.5534
  148MOL0     H19978   6.559  10.231   5.004 -0.2263  2.9240  1.0788
  148MOL0     H19979   6.405   9.486   5.313 -1.9277  1.7511 -2.2575
  148MOL0     H19980   6.336   9.265   5.228  0.4734 -0.9310  0.2995
  149MOL0     O19981   9.734   0.750   3.761 -1.0829  0.9886 -0.1513
  149MOL0     C19982   9.733   0.815   3.869  0.2819  0.0637  1.6854
  149MOL0     O19983   9.737   0.947   3.877  0.3692 -0.1216  0.6497
  149MOL0     C19984   9.715   1.024   3.770  0.5865  0.7581  0.2160
  149MOL0     C19985   9.606   1.008   3.688  0.1229  1.0354  0.1122
  149MOL0     C19986   9.583   1.097   3.580 -0.1099 -0.3126 -0.6925
  149MOL0     C19987   9.658   1.210   3.562 -0.6918  0.0310  1.2519
  149MOL0     O19988   9.629   1.277   3.451  0.0116  0.1540 -0.2190
  149MOL0     C19989   9.706   1.395   3.418  0.2553  0.3380 -0.0527
  149MOL0     C19990   9.629   1.520   3.445 -0.0323  0.0467  0.4850
  149MOL0     C19991   9.519   1.523   3.558 -1.5947 -0.5426  0.6982
  149MOL0     C19992   9.589   1.539   3.694  0.3739  0.1202  0.4114
  149MOL0     C19993   9.485   1.561   3.811 -0.9348 -0.7023  0.2095
  149MOL0     C19994   9.373   1.454   3.816  0.4203  0.2996 -0.0934
  149MOL0     C19995   9.414   1.306   3.841 -0.1747 -0.2492 -0.0889
  149MOL0     C19996   9.465   1.298   3.985 -0.3829 -0.2753  0.1879
  149MOL0     N19997   9.372   1.330   4.089  0.5564  0.4059  0.4204
  149MOL0     C19998   9.257   1.265   4.104 -0.2643  0.7581 -0.8993
  149MOL0     C19999   9.186   1.343   4.186 -0.2402  0.3715  0.3044
  149MOL0     C20000   9.044   1.317   4.234  0.7837 -0.9251 -0.0469
  149MOL0     C20001   8.973   1.457   4.255  0.1682 -0.9795  0.4876
  149MOL0     C20002   8.831   1.445   4.316 -0.1375 -0.0637 -0.2201
  149MOL0     C20003   8.821   1.395   4.463 -0.6050 -0.0999  0.4455
  149MOL0     O20004   8.872   1.491   4.565 -0.1418  0.6907 -0.2266
  149MOL0     C20005   8.798   1.596   4.618 -0.4331 -1.0727 -0.9916
  149MOL0     C20006   8.665   1.623   4.590  0.7073  0.1890  0.8525
  149MOL0     C20007   8.593   1.732   4.642  0.2851 -0.2283 -0.0153
  149MOL0     C20008   8.449   1.759   4.599  0.2983 -0.4039  0.5125
  149MOL0     C20009   8.657   1.807   4.741  0.2618 -0.8447  0.5126
  149MOL0     C20010   8.602   1.914   4.823 -0.0997  0.7354 -0.7147
  149MOL0     O20011   8.660   1.939   4.945  0.9330 -0.8456  0.1278
  149MOL0     C20012   8.581   2.000   5.046 -0.0964 -0.4622  1.0746
  149MOL0     C20013   8.469   1.935   5.092 -0.4612 -1.1067  0.9603
  149MOL0     C20014   8.386   1.992   5.186 -0.3044 -0.1495 -0.0422
  149MOL0     C20015   8.417   2.120   5.236  0.1299 -0.2619  1.1716
  149MOL0     O20016   8.338   2.188   5.318  0.2001  0.0023  0.4006
  149MOL0     C20017   8.295   2.120   5.434  0.4922 -0.2164 -0.5325
  149MOL0     C20018   8.287   2.207   5.553 -0.2992  0.8519 -0.3941
  149MOL0     C20019   8.170   2.290   5.563 -0.9496  0.1202 -0.5736
  149MOL0     C20020   8.191   2.430   5.502  1.0307 -0.0824 -0.6379
  149MOL0     C20021   8.108   2.448   5.378 -0.4639  0.1715  0.0920
  149MOL0     C20022   8.156   2.561   5.280 -0.0708 -0.4646 -0.6698
  149MOL0     C20023   8.026   2.595   5.196  0.5397  1.6656 -0.4179
  149MOL0     C20024   8.034   2.736   5.133 -0.5867 -0.0613  0.7413
  149MOL0    Cl20025   7.893   2.775   5.029 -0.2125 -0.1300  0.4454
  149MOL0     C20026   8.524   2.190   5.179  0.3074  0.0124  0.0294
  149MOL0     C20027   8.611   2.128   5.086 -0.1507  0.5688  0.5213
  149MOL0     O20028   8.502   1.970   4.782 -0.3513  0.1169 -0.0997
  149MOL0     C20029   8.787   1.776   4.778 -0.9792  0.7985 -0.1685
  149MOL0     C20030   8.860   1.671   4.715 -0.0414  0.0106 -1.0716
  149MOL0     N20031   9.263   1.453   4.226  0.2964 -0.5903  0.3654
  149MOL0     N20032   9.370   1.446   4.160  0.0624  0.2877 -0.7309
  149MOL0     C20033   9.764   1.233   3.659  0.6448  0.1065  0.7434
  149MOL0     C20034   9.785   1.144   3.763 -0.3979 -0.4568 -0.3659
  149MOL0     C20035   9.748   0.736   3.991  0.5645 -0.2871  0.2426
  149MOL0     C20036   9.797   0.604   3.994 -0.8133 -0.1256 -0.7126
  149MOL0     C20037   9.841   0.539   4.113 -0.6852 -0.0493 -0.7822
  149MOL0     C20038   9.836   0.617   4.234  1.0176  0.5308  0.5440
  149MOL0     O20039   9.883   0.572   4.351 -1.0641  0.4254  0.8392
  149MOL0     C20040   9.951   0.444   4.362 -0.6135 -0.1959 -0.6611
  149MOL0     C20041  10.096   0.453   4.317  0.7117 -0.1122  0.4516
  149MOL0     C20042  10.181   0.541   4.403  0.0106  0.1037  0.4950
  149MOL0     C20043  10.333   0.515   4.405  0.3470  0.2780 -0.5231
  149MOL0     C20044  10.372   0.394   4.481 -0.7487  0.1781  0.8591
  149MOL0     C20045  10.381   0.283   4.529 -0.3960  0.1699  0.8114
  149MOL0     C20046   9.789   0.749   4.232  0.4140 -0.3905  0.1409
  149MOL0     C20047   9.744   0.812   4.113  0.5804 -0.3468 -0.7472
  149MOL0     H20048   9.532   0.930   3.701 -1.3372  2.5597  1.4985
  149MOL0     H20049   9.505   1.062   3.512 -2.0622  0.2111  1.1463
  149MOL0     H20050   9.806   1.399   3.463  0.1107  1.2778  0.2067
  149MOL0     H20051   9.724   1.400   3.310  1.1147  1.0050  0.1100
  149MOL0     H20052   9.705   1.596   3.465  0.2363  0.2899 -1.3150
  149MOL0     H20053   9.576   1.559   3.357  2.2483 -1.0787 -1.4850
  149MOL0     H20054   9.458   1.613   3.546 -1.9201 -0.8593 -0.0855
  149MOL0     H20055   9.455   1.434   3.557  0.5225 -2.1333 -0.0019
  149MOL0     H20056   9.630   1.440   3.717 -3.4513 -1.4365  1.3558
  149MOL0     H20057   9.667   1.615   3.695  1.0491 -0.5165 -0.8522
  149MOL0     H20058   9.539   1.567   3.905 -0.2929  4.7122 -0.2027
  149MOL0     H20059   9.438   1.657   3.788 -0.7892 -1.1091 -2.0559
  149MOL0     H20060   9.308   1.468   3.903 -1.1477 -2.3625 -0.7254
  149MOL0     H20061   9.318   1.458   3.721 -0.2572  2.3806  0.3329
  149MOL0     H20062   9.331   1.237   3.824  0.4304 -1.5606  1.8988
  149MOL0     H20063   9.491   1.265   3.776  1.0959  2.2597 -0.2901
  149MOL0     H20064   9.545   1.371   3.997  0.5841 -0.9961 -1.5051
  149MOL0     H20065   9.507   1.197   3.998 -1.4473 -0.7381  0.1522
  149MOL0     H20066   9.233   1.166   4.066  0.4652 -0.1546  0.9303
  149MOL0     H20067   8.993   1.260   4.156 -0.0528  0.5940 -0.6504
  149MOL0     H20068   9.036   1.265   4.329 -3.5240 -2.3271 -0.9736
  149MOL0     H20069   8.960   1.517   4.164 -0.7183 -0.6499  0.8228
  149MOL0     H20070   9.025   1.516   4.332 -2.8692  1.7473  0.6672
  149MOL0     H20071   8.785   1.371   4.250  0.6691 -0.0990 -0.7549
  149MOL0     H20072   8.785   1.543   4.305  1.7480  0.8059 -0.6851
  149MOL0     H20073   8.879   1.304   4.478 -0.1383 -0.1076 -1.2046
  149MOL0     H20074   8.718   1.367   4.486  1.2890 -4.1631  6.0235
  149MOL0     H20075   8.623   1.565   4.509 -1.3507  1.5113  0.9148
  149MOL0     H20076   8.373   1.760   4.677  1.9849  0.7276  2.2270
  149MOL0     H20077   8.436   1.846   4.534 -0.2603  0.7046  2.0576
  149MOL0     H20078   8.417   1.672   4.540 -0.0767  0.1578 -0.1209
  149MOL0     H20079   8.453   1.839   5.045  1.0955 -0.6661 -0.6114
  149MOL0     H20080   8.304   1.925   5.210  1.6251 -2.1773  1.1983
  149MOL0     H20081   8.195   2.078   5.416  0.4585 -0.1247 -0.5594
  149MOL0     H20082   8.367   2.040   5.452  1.4685  0.2870 -2.0090
  149MOL0     H20083   8.274   2.125   5.624 -1.4399 -0.5101 -2.1069
  149MOL0     H20084   8.371   2.271   5.584  1.0662 -1.2220  0.4624
  149MOL0     H20085   8.151   2.290   5.670 -1.1251  0.7809 -0.5999
  149MOL0     H20086   8.080   2.252   5.514 -0.3868 -0.2729 -1.3359
  149MOL0     H20087   8.157   2.515   5.562 -2.8627  0.0043 -2.6210
  149MOL0     H20088   8.295   2.439   5.470  0.4092 -0.2379 -2.8614
  149MOL0     H20089   8.001   2.460   5.396 -0.2745  0.7964  0.9226
  149MOL0     H20090   8.103   2.361   5.313 -2.7003  1.2954 -1.3801
  149MOL0     H20091   8.175   2.650   5.340  0.6695 -0.1491 -1.3557
  149MOL0     H20092   8.248   2.546   5.224  0.7549  4.1657 -0.9114
  149MOL0     H20093   7.933   2.578   5.251 -0.3979 -1.3921 -2.6994
  149MOL0     H20094   8.010   2.532   5.109 -1.7933 -0.0155  1.1068
  149MOL0     H20095   8.116   2.737   5.061 -3.5779 -1.0369 -3.0301
  149MOL0     H20096   8.049   2.818   5.204  0.3383  2.0375 -1.7121
  149MOL0     H20097   8.537   2.295   5.203  1.8439 -0.1073 -0.1807
  149MOL0     H20098   8.702   2.166   5.041 -0.5117  2.0310  0.9369
  149MOL0     H20099   8.850   1.837   4.842 -1.8231  1.1702  0.3191
  149MOL0     H20100   8.956   1.651   4.760 -1.4302 -0.2741  2.0195
  149MOL0     H20101   9.841   1.309   3.659  0.2505  0.5175  0.0280
  149MOL0     H20102   9.864   1.163   3.834 -1.0921  1.3396 -0.0295
  149MOL0     H20103   9.810   0.555   3.898  2.3279 -1.7496  0.4202
  149MOL0     H20104   9.889   0.442   4.108  1.0259  0.5924  1.3553
  149MOL0     H20105   9.951   0.423   4.469  0.0493 -1.9180 -0.9608
  149MOL0     H20106   9.897   0.359   4.318  0.3006 -3.9185  4.5086
  149MOL0     H20107  10.104   0.487   4.213 -0.9193  0.0310  0.3409
  149MOL0     H20108  10.147   0.356   4.318 -0.4737 -0.8324 -1.4539
  149MOL0     H20109  10.147   0.529   4.506 -0.6212 -0.2597  0.2535
  149MOL0     H20110  10.156   0.646   4.390  0.8189  0.0910 -1.4767
  149MOL0     H20111  10.390   0.596   4.450  1.6750 -0.7430 -0.2964
  149MOL0     H20112  10.368   0.506   4.301  0.0891 -1.6526 -0.4954
  149MOL0     H20113  10.388   0.183   4.568  1.7987 -0.5445 -1.2354
  149MOL0     H20114   9.795   0.805   4.325 -0.3531  1.0097 -0.6203
  149MOL0     H20115   9.727   0.919   4.116 -1.3414 -0.6394 -0.0364
  150MOL0     O20116  10.878   1.200   4.139  0.4176 -0.4882 -0.4367
  150MOL0     C20117  10.877   1.261   4.252  1.2264  0.6883 -1.5318
  150MOL0     O20118  10.836   1.205   4.370 -0.0567 -0.9026  0.0216
  150MOL0     C20119  10.720   1.131   4.347  0.5012 -0.4821  0.8811
  150MOL0     C20120  10.701   0.993   4.363 -1.1971 -0.2240 -0.4957
  150MOL0     C20121  10.575   0.930   4.356 -0.0808  0.2465  0.0473
  150MOL0     C20122  10.460   0.998   4.330  0.0730 -0.7422  0.0333
  150MOL0     O20123  10.338   0.930   4.319 -0.3639 -0.1951 -0.8885
  150MOL0     C20124  10.299   0.938   4.188  0.5942 -0.3290 -0.3016
  150MOL0     C20125  10.185   0.841   4.167 -0.0929  0.2219  0.1948
  150MOL0     C20126  10.128   0.842   4.030  0.3275  0.5576  0.4967
  150MOL0     C20127  10.218   0.759   3.942 -0.6763  0.4734  0.2138
  150MOL0     C20128  10.169   0.725   3.799  0.1173 -0.2678 -0.2330
  150MOL0     C20129  10.131   0.854   3.726 -0.9313  0.0002  0.1682
  150MOL0     C20130  10.071   0.825   3.592  0.0804 -0.1873 -0.5264
  150MOL0     C20131  10.015   0.955   3.522  0.0042 -0.2726 -0.2052
  150MOL0     N20132  10.105   1.072   3.483 -0.0705  1.3329  0.0617
  150MOL0     C20133  10.241   1.057   3.442 -0.6671 -0.1781 -0.1476
  150MOL0     C20134  10.271   1.193   3.408 -0.3430 -0.9459 -1.0374
  150MOL0     C20135  10.400   1.238   3.357  0.6804  0.6242  0.0584
  150MOL0     C20136  10.434   1.386   3.391 -0.2194  0.5160 -1.1920
  150MOL0     C20137  10.579   1.414   3.374  0.8079  0.3552  0.1313
  150MOL0     C20138  10.589   1.554   3.404  0.0328 -0.6176 -0.4981
  150MOL0     O20139  10.514   1.631   3.312  0.5138  1.1015 -0.6221
  150MOL0     C20140  10.584   1.699   3.220  0.0179  0.2419  0.0810
  150MOL0     C20141  10.554   1.671   3.085  0.4236 -0.9427  0.9142
  150MOL0     C20142  10.610   1.725   2.972 -1.7175 -0.9780 -0.1779
  150MOL0     C20143  10.565   1.680   2.831  0.6100 -0.4735  0.0800
  150MOL0     C20144  10.719   1.817   2.993 -0.8005  0.8721  0.0440
  150MOL0     C20145  10.804   1.891   2.894  0.3767  0.1505 -0.5305
  150MOL0     O20146  10.902   1.981   2.949 -0.1332  0.3285  0.4560
  150MOL0     C20147  10.982   2.049   2.860 -0.7869 -1.1504  0.2128
  150MOL0     C20148  10.953   2.182   2.833 -0.4219 -0.2964  0.2574
  150MOL0     C20149  11.022   2.251   2.732 -0.1502 -0.3392 -0.8833
  150MOL0     C20150  11.131   2.192   2.665  0.1764  0.7029  0.3829
  150MOL0     O20151  11.212   2.245   2.571  0.0881 -0.3446  0.3323
  150MOL0     C20152  11.159   2.365   2.516 -0.7489 -0.0453  0.4055
  150MOL0     C20153  11.218   2.387   2.378  0.3352  0.5525  0.3256
  150MOL0     C20154  11.367   2.434   2.388  0.7883  0.6982 -0.6521
  150MOL0     C20155  11.422   2.442   2.245 -0.7099 -0.8159 -0.0890
  150MOL0     C20156  11.546   2.535   2.224 -0.2775 -0.4105  0.0227
  150MOL0     C20157  11.661   2.496   2.317  0.0986  0.4696  0.1931
  150MOL0     C20158  11.773   2.601   2.293  0.1800  0.1303 -0.1654
  150MOL0     C20159  11.732   2.747   2.299 -0.0128  0.2453 -0.4524
  150MOL0    Cl20160  11.861   2.856   2.362  0.0489  0.4263 -0.7653
  150MOL0     C20161  11.169   2.071   2.712  0.4471 -0.4960  0.5052
  150MOL0     C20162  11.099   1.994   2.810 -0.0602 -0.2302  0.5558
  150MOL0     O20163  10.772   1.886   2.779 -0.5149 -0.2281  0.2119
  150MOL0     C20164  10.760   1.841   3.132  0.6280  0.0280 -0.7783
  150MOL0     C20165  10.695   1.774   3.246 -0.4161 -1.0775  0.5924
  150MOL0     N20166  10.162   1.268   3.432  0.1859 -0.6124 -0.1675
  150MOL0     N20167  10.066   1.198   3.479  0.7026  0.0733 -0.1933
  150MOL0     C20168  10.470   1.133   4.316  0.6135 -0.3776  1.2307
  150MOL0     C20169  10.597   1.196   4.324  0.4721 -0.2913 -0.6361
  150MOL0     C20170  10.933   1.394   4.257 -0.1889  0.3477  0.4132
  150MOL0     C20171  10.901   1.478   4.152 -0.0194 -1.0512  0.1198
  150MOL0     C20172  10.931   1.618   4.149 -0.2443  0.3898 -0.3795
  150MOL0     C20173  11.010   1.665   4.258  0.6446  0.1052 -0.1573
  150MOL0     O20174  11.049   1.792   4.250 -0.2334 -0.6469  0.2639
  150MOL0     C20175  11.101   1.849   4.374  0.4027  0.2260 -0.2232
  150MOL0     C20176  11.117   1.996   4.357  0.3995  0.8488  0.0020
  150MOL0     C20177  10.980   2.068   4.344  0.2627 -0.4273 -0.4725
  150MOL0     C20178  11.009   2.204   4.294  0.4237 -0.3120  0.0067
  150MOL0     C20179  10.890   2.289   4.297 -0.0694  0.3258 -0.4214
  150MOL0     C20180  10.816   2.379   4.327 -0.3949 -0.1129  0.8733
  150MOL0     C20181  11.041   1.577   4.364 -0.2023  0.3512 -0.2790
  150MOL0     C20182  11.000   1.446   4.370 -0.2364  0.4716 -0.2956
  150MOL0     H20183  10.787   0.933   4.389 -0.7064  1.7640  3.1347
  150MOL0     H20184  10.579   0.821   4.356 -0.8866  0.1973  1.2259
  150MOL0     H20185  10.273   1.041   4.162 -0.2953 -0.1486  1.2121
  150MOL0     H20186  10.374   0.896   4.120  1.0252  0.1522 -0.1233
  150MOL0     H20187  10.226   0.743   4.190 -0.5658  0.6094  3.0841
  150MOL0     H20188  10.107   0.869   4.238 -0.7355  1.6442 -1.0159
  150MOL0     H20189  10.038   0.779   4.039  1.9981 -2.0348  0.1024
  150MOL0     H20190  10.106   0.944   3.998 -3.7764 -0.5285 -0.7744
  150MOL0     H20191  10.312   0.812   3.927  0.1406 -1.0827 -0.4692
  150MOL0     H20192  10.240   0.663   3.989 -2.0229 -0.4166 -0.8769
  150MOL0     H20193  10.247   0.676   3.741  1.2724  3.4232 -2.1165
  150MOL0     H20194  10.091   0.648   3.796  1.3365 -1.5295 -2.4516
  150MOL0     H20195  10.049   0.906   3.776  0.0994 -0.8587  2.9297
  150MOL0     H20196  10.218   0.921   3.736 -0.6203 -0.5396  1.1615
  150MOL0     H20197  10.153   0.797   3.525 -0.5664 -1.8864 -0.6755
  150MOL0     H20198  10.006   0.737   3.585  1.0373 -0.7830 -2.9750
  150MOL0     H20199   9.936   0.999   3.582  0.6277  0.2697  0.2406
  150MOL0     H20200   9.958   0.919   3.436  1.4475 -3.7522  0.1306
  150MOL0     H20201  10.303   0.970   3.423  1.8304  2.0634 -3.6643
  150MOL0     H20202  10.470   1.173   3.410 -2.7137 -1.2319  2.6587
  150MOL0     H20203  10.398   1.208   3.252 -2.5718  1.1014 -0.1232
  150MOL0     H20204  10.409   1.407   3.495  2.4946 -1.6579  0.0386
  150MOL0     H20205  10.375   1.446   3.321 -1.8833  0.8688  0.4278
  150MOL0     H20206  10.601   1.389   3.270  0.2900 -2.4002  0.6249
  150MOL0     H20207  10.640   1.362   3.449 -3.0445  1.1169  4.2221
  150MOL0     H20208  10.695   1.581   3.404  0.2443 -1.3972  0.4875
  150MOL0     H20209  10.551   1.567   3.505 -1.0939 -1.2560 -0.8226
  150MOL0     H20210  10.462   1.616   3.071  1.1232 -2.2358  1.1744
  150MOL0     H20211  10.497   1.753   2.784  0.3214 -0.1675  0.9606
  150MOL0     H20212  10.649   1.660   2.764  0.4199  0.3678 -0.4313
  150MOL0     H20213  10.503   1.591   2.833 -2.4311  1.4917  0.2680
  150MOL0     H20214  10.869   2.232   2.880  0.2787 -1.4155  2.8486
  150MOL0     H20215  10.997   2.354   2.707  0.0699 -0.5236 -1.9007
  150MOL0     H20216  11.051   2.367   2.497 -0.2203  0.8667 -3.5656
  150MOL0     H20217  11.192   2.442   2.586  0.7587 -0.2889 -0.0049
  150MOL0     H20218  11.214   2.295   2.319 -0.4967  0.0843  1.0981
  150MOL0     H20219  11.164   2.464   2.322 -1.2555 -0.6005  0.2177
  150MOL0     H20220  11.417   2.367   2.458 -0.5075  0.6597  0.2697
  150MOL0     H20221  11.381   2.535   2.428  1.6075  0.2881  0.1402
  150MOL0     H20222  11.451   2.341   2.215  0.1085 -0.5895 -0.1065
  150MOL0     H20223  11.352   2.479   2.170  0.4947  2.6106  0.2784
  150MOL0     H20224  11.517   2.640   2.235 -1.0283 -0.8218  2.4172
  150MOL0     H20225  11.577   2.515   2.121 -1.9978 -3.3519 -0.0234
  150MOL0     H20226  11.647   2.482   2.425 -2.0018 -1.5673 -0.2537
  150MOL0     H20227  11.698   2.402   2.275 -1.4221  1.9406 -5.1645
  150MOL0     H20228  11.829   2.563   2.206  0.7334 -1.8239  0.9845
  150MOL0     H20229  11.846   2.571   2.369 -1.6729 -3.6745  0.3254
  150MOL0     H20230  11.639   2.751   2.356 -0.2302  0.1641 -0.7978
  150MOL0     H20231  11.722   2.777   2.194  0.1323 -2.6376 -1.3889
  150MOL0     H20232  11.251   2.016   2.667  2.4009  0.5316  2.5880
  150MOL0     H20233  11.138   1.896   2.838  0.2238 -0.5849 -0.9929
  150MOL0     H20234  10.844   1.904   3.159  1.1782 -1.1845  0.5006
  150MOL0     H20235  10.735   1.787   3.347 -1.5441 -2.2383  1.2105
  150MOL0     H20236  10.381   1.189   4.291  2.1805  1.1253 -1.4589
  150MOL0     H20237  10.619   1.298   4.294  4.7039 -0.7834  0.2116
  150MOL0     H20238  10.852   1.424   4.071  1.7761  0.5042 -2.1655
  150MOL0     H20239  10.903   1.678   4.063 -2.2389  0.5649  0.3329
  150MOL0     H20240  11.028   1.824   4.452 -0.5671 -0.8789 -1.4264
  150MOL0     H20241  11.197   1.805   4.400  0.7374  0.9485 -0.2119
  150MOL0     H20242  11.178   2.009   4.267  0.2518 -0.3470 -0.2862
  150MOL0     H20243  11.172   2.037   4.443 -1.1272 -0.0971  1.4962
  150MOL0     H20244  10.929   2.078   4.440  0.2014  1.4001 -0.6540
  150MOL0     H20245  10.924   2.009   4.271  0.6623  0.2334 -1.3320
  150MOL0     H20246  11.023   2.197   4.186 -2.4067  0.2156 -0.4764
  150MOL0     H20247  11.096   2.252   4.340  0.6391  0.2658 -0.9645
  150MOL0     H20248  10.747   2.461   4.323 -1.8785 -1.3593 -2.2709
  150MOL0     H20249  11.102   1.614   4.445  0.3385  0.9691 -0.9604
  150MOL0     H20250  11.014   1.388   4.461 -0.5995 -0.7352 -0.9919
  151MOL0     O20251   6.407  11.351   3.653  0.4087  0.3155  0.1995
  151MOL0     C20252   6.492  11.380   3.735 -0.3534 -0.8284 -0.1421
  151MOL0     O20253   6.510  11.505   3.791  0.3309 -0.7875 -0.0444
  151MOL0     C20254   6.392  11.584   3.785 -0.5002 -0.2877 -0.0206
  151MOL0     C20255   6.314  11.617   3.672 -0.7794  0.1541 -0.5233
  151MOL0     C20256   6.203  11.689   3.680  0.7049 -0.0833  0.9012
  151MOL0     C20257   6.161  11.754   3.792 -2.2197  0.3310 -0.2239
  151MOL0     O20258   6.059  11.847   3.770  0.2499  0.2847 -0.5495
  151MOL0     C20259   5.996  11.912   3.887  0.1030  1.1345  0.2469
  151MOL0     C20260   5.980  12.063   3.864 -0.1691  0.2495 -0.2374
  151MOL0     C20261   5.910  12.090   3.726 -0.5804  0.9067  0.2049
  151MOL0     C20262   5.768  12.043   3.712 -0.0619 -0.2249 -0.7143
  151MOL0     C20263   5.737  12.055   3.560  0.5720  0.3462  0.8892
  151MOL0     C20264   5.762  12.198   3.489 -0.4354  0.8177 -0.5712
  151MOL0     C20265   5.726  12.178   3.342 -0.1061  0.0716 -0.6068
  151MOL0     C20266   5.577  12.182   3.307  0.6778 -0.1316 -0.6621
  151MOL0     N20267   5.555  12.121   3.175  0.3126 -0.3955 -0.2055
  151MOL0     C20268   5.555  11.987   3.144  0.3220  0.1034  0.7282
  151MOL0     C20269   5.559  11.992   3.004  0.6787  0.4319 -0.6636
  151MOL0     C20270   5.550  11.857   2.926 -0.4925 -1.1665  0.8884
  151MOL0     C20271   5.692  11.808   2.893  0.7920  1.0017 -0.1152
  151MOL0     C20272   5.756  11.879   2.771  0.3644  0.0623 -0.5842
  151MOL0     C20273   5.703  11.824   2.636 -0.8197  0.8439 -1.0662
  151MOL0     O20274   5.759  11.689   2.609 -0.2663  0.2922 -0.2831
  151MOL0     C20275   5.749  11.630   2.484 -0.6026 -0.9165  0.5258
  151MOL0     C20276   5.816  11.512   2.470 -0.3711  1.2000  0.5529
  151MOL0     C20277   5.833  11.460   2.340  0.2806 -1.1387 -0.5115
  151MOL0     C20278   5.910  11.334   2.307  0.3569 -0.2106  0.3322
  151MOL0     C20279   5.760  11.516   2.231  1.0741 -0.2814 -0.1216
  151MOL0     C20280   5.760  11.480   2.090  0.2559  0.3595  0.0453
  151MOL0     O20281   5.882  11.477   2.029  0.1671 -0.1186 -0.0333
  151MOL0     C20282   5.906  11.477   1.891  0.1750 -0.0674  1.1793
  151MOL0     C20283   6.037  11.450   1.839  0.2042  0.2107 -0.0384
  151MOL0     C20284   6.057  11.453   1.703  0.9187  1.0197 -0.7170
  151MOL0     C20285   5.975  11.519   1.618 -0.3792 -0.0050 -0.7057
  151MOL0     O20286   6.001  11.560   1.491 -0.5413  0.0006 -0.4842
  151MOL0     C20287   6.132  11.621   1.465 -0.2510 -0.3443 -0.3799
  151MOL0     C20288   6.223  11.539   1.380  0.5425  0.2699  0.7738
  151MOL0     C20289   6.355  11.604   1.326 -0.1792  0.9114  0.5140
  151MOL0     C20290   6.469  11.500   1.293  0.3096 -0.0392 -0.2811
  151MOL0     C20291   6.606  11.561   1.313 -0.1443 -0.2353  0.4427
  151MOL0     C20292   6.713  11.456   1.296 -0.4751  0.4034  0.6529
  151MOL0     C20293   6.855  11.522   1.288 -0.6275  0.2750  0.2524
  151MOL0     C20294   6.976  11.430   1.242  0.9689 -0.0858 -0.7878
  151MOL0    Cl20295   6.936  11.313   1.113  0.4302 -0.0631 -0.0242
  151MOL0     C20296   5.852  11.544   1.662  0.3326 -0.1687  0.1326
  151MOL0     C20297   5.810  11.518   1.790  0.3211 -1.1818  0.5157
  151MOL0     O20298   5.650  11.461   2.034  0.1902 -0.5139  0.6099
  151MOL0     C20299   5.678  11.626   2.252  0.6048 -0.0743 -0.9018
  151MOL0     C20300   5.671  11.681   2.382  0.3178 -0.1981  0.6157
  151MOL0     N20301   5.550  12.120   2.953  0.4336  0.0602 -0.5165
  151MOL0     N20302   5.542  12.194   3.059 -0.0808 -0.2287 -0.4775
  151MOL0     C20303   6.235  11.732   3.914 -0.2380  0.4449 -0.2838
  151MOL0     C20304   6.353  11.655   3.906  0.6930 -0.3576  0.4599
  151MOL0     C20305   6.589  11.279   3.773 -0.4920  0.0249  0.2691
  151MOL0     C20306   6.677  11.305   3.883 -0.8714  0.1948  0.0286
  151MOL0     C20307   6.773  11.209   3.925  0.7995 -0.6976 -0.5429
  151MOL0     C20308   6.786  11.090   3.848  0.1104 -0.0878 -0.6405
  151MOL0     O20309   6.890  11.011   3.890 -0.9151  0.4053 -0.1484
  151MOL0     C20310   6.901  10.876   3.838  1.2410 -0.3346  0.2423
  151MOL0     C20311   7.023  10.813   3.889 -0.9018  0.2098 -0.2809
  151MOL0     C20312   7.142  10.896   3.923  0.2646 -0.5338  0.3897
  151MOL0     C20313   7.235  10.941   3.807 -0.8350 -0.2101 -0.0704
  151MOL0     C20314   7.175  11.030   3.712  0.0187  0.4737 -1.3600
  151MOL0     C20315   7.105  11.096   3.643 -0.3040  0.1645  0.8700
  151MOL0     C20316   6.708  11.068   3.733 -0.2626  0.6081 -0.4457
  151MOL0     C20317   6.603  11.160   3.701  0.2390  0.3595  0.2422
  151MOL0     H20318   6.342  11.573   3.577 -1.9571  1.6312 -1.5984
  151MOL0     H20319   6.157  11.711   3.584 -1.2508 -1.1759  1.5475
  151MOL0     H20320   5.898  11.868   3.909 -0.4979  1.7240 -1.1085
  151MOL0     H20321   6.050  11.894   3.980  0.3518 -0.7646 -0.2105
  151MOL0     H20322   5.918  12.105   3.944 -1.3992 -1.3109 -0.3445
  151MOL0     H20323   6.075  12.118   3.863  0.4378 -0.7879 -0.5980
  151MOL0     H20324   5.912  12.199   3.713  2.1631  1.3058  2.6778
  151MOL0     H20325   5.967  12.041   3.647  1.7088 -0.9795  2.8377
  151MOL0     H20326   5.757  11.939   3.744  2.8549 -0.5340 -0.4572
  151MOL0     H20327   5.690  12.098   3.765 -2.2336 -0.0704 -3.8053
  151MOL0     H20328   5.795  11.978   3.509 -2.1610 -0.5539 -1.1340
  151MOL0     H20329   5.638  12.027   3.523  1.9026 -1.0279 -1.9502
  151MOL0     H20330   5.696  12.280   3.519  1.8299  1.6193  2.7314
  151MOL0     H20331   5.863  12.237   3.506 -0.7206  1.3139 -0.0031
  151MOL0     H20332   5.772  12.263   3.289  1.7841 -0.9874 -0.7616
  151MOL0     H20333   5.781  12.094   3.298  1.4484 -0.0757  1.4946
  151MOL0     H20334   5.540  12.284   3.292  3.5738  1.1137 -0.0040
  151MOL0     H20335   5.526  12.118   3.379  1.2060 -0.8373 -0.9121
  151MOL0     H20336   5.564  11.899   3.208 -1.0397 -0.3348  0.3540
  151MOL0     H20337   5.499  11.775   2.976 -0.6446 -2.0635 -0.6766
  151MOL0     H20338   5.503  11.878   2.829  0.8037 -1.7085  0.1014
  151MOL0     H20339   5.690  11.702   2.868 -3.8478  0.7003  0.6655
  151MOL0     H20340   5.749  11.815   2.986 -1.4158  1.2234  1.2919
  151MOL0     H20341   5.863  11.858   2.776  0.6294  1.4308 -0.0096
  151MOL0     H20342   5.751  11.987   2.788  2.1929  0.6490 -3.1729
  151MOL0     H20343   5.727  11.901   2.562  0.6160  1.3591 -0.1083
  151MOL0     H20344   5.594  11.817   2.643 -0.8277  1.6104 -0.2552
  151MOL0     H20345   5.871  11.463   2.550 -1.3091 -2.3995 -0.8283
  151MOL0     H20346   5.853  11.262   2.247  0.2282 -0.7569  1.1065
  151MOL0     H20347   5.997  11.353   2.242  1.0043 -0.1897  1.1867
  151MOL0     H20348   5.960  11.294   2.395 -0.1973 -4.3017 -1.0285
  151MOL0     H20349   6.115  11.403   1.898 -1.1154  0.0963  1.7376
  151MOL0     H20350   6.149  11.408   1.666  0.6762  2.1537 -2.8049
  151MOL0     H20351   6.121  11.717   1.415  3.7847  0.3695 -0.2760
  151MOL0     H20352   6.184  11.643   1.559  0.3187  0.6405 -0.9030
  151MOL0     H20353   6.246  11.452   1.443  4.1999  3.2788  4.1131
  151MOL0     H20354   6.159  11.519   1.294  0.4596 -0.4123  0.9832
  151MOL0     H20355   6.373  11.661   1.418  1.1358 -0.6278  1.2699
  151MOL0     H20356   6.346  11.676   1.244 -1.6818 -1.6160 -1.7064
  151MOL0     H20357   6.458  11.416   1.361 -1.0399  0.0085 -0.4167
  151MOL0     H20358   6.456  11.470   1.188  0.5905  0.7501 -0.5488
  151MOL0     H20359   6.621  11.607   1.411  1.5114  1.2141 -0.4221
  151MOL0     H20360   6.618  11.652   1.253 -0.4996  0.5857  1.5922
  151MOL0     H20361   6.717  11.387   1.381 -3.1433 -1.3300 -0.4867
  151MOL0     H20362   6.711  11.405   1.199  2.0626  0.3509  0.5454
  151MOL0     H20363   6.881  11.584   1.375 -0.1303  0.5039 -0.0527
  151MOL0     H20364   6.862  11.591   1.203  2.4402  3.2914  2.6761
  151MOL0     H20365   7.006  11.366   1.326  0.1320 -0.4190 -0.7390
  151MOL0     H20366   7.070  11.484   1.227  2.7075 -3.1974 -1.9894
  151MOL0     H20367   5.780  11.576   1.587 -2.0053 -1.5606  1.6162
  151MOL0     H20368   5.708  11.547   1.816  0.3456 -0.7063  0.0990
  151MOL0     H20369   5.637  11.669   2.161 -1.1826 -0.4910 -0.3367
  151MOL0     H20370   5.632  11.782   2.391  1.4582  0.2728  0.4712
  151MOL0     H20371   6.208  11.762   4.014 -0.2696  1.2268 -0.5217
  151MOL0     H20372   6.404  11.625   3.997  0.8348  1.8452  1.1497
  151MOL0     H20373   6.680  11.402   3.933  1.9673  0.4068 -0.3613
  151MOL0     H20374   6.839  11.217   4.011 -0.7552 -0.6413  0.6882
  151MOL0     H20375   6.811  10.824   3.871 -1.5777  4.8568  1.8474
  151MOL0     H20376   6.901  10.875   3.728 -2.8653 -1.5810  0.0870
  151MOL0     H20377   7.052  10.726   3.831  0.7182  1.1153 -0.9122
  151MOL0     H20378   6.992  10.778   3.988 -2.2682  2.0844  0.0178
  151MOL0     H20379   7.205  10.840   3.993  1.1025  1.0256  0.9295
  151MOL0     H20380   7.108  10.991   3.966  1.8259  2.0872 -3.5794
  151MOL0     H20381   7.270  10.850   3.758 -0.9822  1.0528 -2.6976
  151MOL0     H20382   7.316  10.999   3.853  0.2449  0.4478 -2.6428
  151MOL0     H20383   7.059  11.158   3.568  0.5191  1.3631  1.3266
  151MOL0     H20384   6.714  10.974   3.678  1.4471 -0.2669  1.0991
  151MOL0     H20385   6.556  11.149   3.604  1.6948 -0.4699 -0.4020
  152MOL0     O20386   6.654   5.279   9.012 -1.0850  0.3921  0.2169
  152MOL0     C20387   6.772   5.290   9.049  0.1202 -0.7056 -0.6902
  152MOL0     O20388   6.838   5.416   9.059  1.0057 -0.6442 -0.3200
  152MOL0     C20389   6.759   5.526   9.041  0.3301 -0.0838 -0.3880
  152MOL0     C20390   6.723   5.577   9.160  0.4895 -0.3462  0.0283
  152MOL0     C20391   6.625   5.680   9.161 -0.6668  0.1174  0.1992
  152MOL0     C20392   6.596   5.743   9.046  0.3444 -0.0280 -0.2341
  152MOL0     O20393   6.523   5.856   9.032  0.1046  0.1950  0.3755
  152MOL0     C20394   6.402   5.827   8.968 -0.0959  0.5594 -0.7453
  152MOL0     C20395   6.297   5.931   9.012  0.3259  0.3908 -0.0881
  152MOL0     C20396   6.337   6.077   8.983  0.3245  0.7340 -0.2818
  152MOL0     C20397   6.250   6.194   9.058 -0.4333 -0.0745 -1.1857
  152MOL0     C20398   6.275   6.341   9.017  0.4836  1.4167  0.7140
  152MOL0     C20399   6.237   6.435   9.130  0.4221  1.1192 -0.0193
  152MOL0     C20400   6.334   6.466   9.243 -0.0763 -0.3059  0.6551
  152MOL0     C20401   6.456   6.557   9.197  0.8639 -0.0213 -0.7193
  152MOL0     N20402   6.545   6.577   9.308 -0.1184 -0.4431 -0.0406
  152MOL0     C20403   6.625   6.474   9.366  0.6280 -0.1019  0.0206
  152MOL0     C20404   6.684   6.537   9.473  0.1295 -1.2898  0.7724
  152MOL0     C20405   6.794   6.483   9.561  0.1727  0.7928  0.5339
  152MOL0     C20406   6.920   6.490   9.483 -0.6664  0.8850  0.8176
  152MOL0     C20407   6.959   6.644   9.476 -0.0796  0.2942  0.6365
  152MOL0     C20408   6.967   6.734   9.600 -0.6417  0.7938 -0.1054
  152MOL0     O20409   7.061   6.680   9.690 -0.1264 -0.3791  0.1234
  152MOL0     C20410   7.087   6.751   9.807 -0.6207  0.0418 -0.1653
  152MOL0     C20411   7.071   6.680   9.927  0.3217 -0.9581  0.3227
  152MOL0     C20412   7.069   6.758  10.047  0.8691  0.7691  0.7681
  152MOL0     C20413   7.035   6.690  10.174 -0.0180 -0.3517 -0.7000
  152MOL0     C20414   7.098   6.898  10.046  0.2460  0.9571 -0.7217
  152MOL0     C20415   7.121   6.991  10.156 -0.2566  0.0419  1.0949
  152MOL0     O20416   7.160   7.122  10.122  0.6973  0.1120  0.3588
  152MOL0     C20417   7.244   7.202  10.199  0.2208  0.4206 -0.2787
  152MOL0     C20418   7.326   7.146  10.303 -0.7062  0.0516 -0.7660
  152MOL0     C20419   7.406   7.233  10.375 -0.5023 -0.7281 -0.4400
  152MOL0     C20420   7.432   7.368  10.345 -0.2634 -0.0614  0.1747
  152MOL0     O20421   7.516   7.451  10.418 -0.2064  0.2529 -0.3797
  152MOL0     C20422   7.554   7.402  10.544  0.8189  0.4210  0.3551
  152MOL0     C20423   7.637   7.510  10.604 -0.0570  0.5774  0.7479
  152MOL0     C20424   7.688   7.453  10.735  0.8581  0.6415  0.9218
  152MOL0     C20425   7.742   7.565  10.815 -0.0688 -0.1207 -1.0201
  152MOL0     C20426   7.794   7.521  10.964 -0.4491 -0.5007  0.0899
  152MOL0     C20427   7.823   7.641  11.053 -0.2021 -0.8738 -0.9414
  152MOL0     C20428   7.903   7.612  11.188 -0.3126 -0.0502  0.4079
  152MOL0     C20429   7.821   7.526  11.283 -1.3084  0.5191 -0.2479
  152MOL0    Cl20430   7.698   7.617  11.347 -0.1923  0.2997 -0.3344
  152MOL0     C20431   7.345   7.420  10.252  0.1012  0.0061  0.2225
  152MOL0     C20432   7.254   7.340  10.179  1.1571 -0.1168  0.3371
  152MOL0     O20433   7.096   6.958  10.265  0.1686  0.3211 -1.0182
  152MOL0     C20434   7.113   6.959   9.922 -0.3686 -0.0634 -0.0362
  152MOL0     C20435   7.106   6.891   9.806  1.1145  0.6129 -0.2363
  152MOL0     N20436   6.646   6.668   9.485  0.2123 -0.0203  0.0076
  152MOL0     N20437   6.558   6.689   9.389 -0.3416 -1.1041 -0.1937
  152MOL0     C20438   6.645   5.688   8.916  0.2462  0.5632  0.0203
  152MOL0     C20439   6.719   5.576   8.918 -0.1475  0.1977  0.2639
  152MOL0     C20440   6.852   5.165   9.094 -0.2478 -0.8171  0.0511
  152MOL0     C20441   6.971   5.164   9.171  0.2303 -0.1858  0.0268
  152MOL0     C20442   7.020   5.056   9.234 -0.4308  0.7079 -0.1169
  152MOL0     C20443   6.960   4.934   9.221 -0.1071  0.5285  0.6024
  152MOL0     O20444   7.029   4.832   9.271 -0.1031  0.9327  0.6871
  152MOL0     C20445   7.018   4.700   9.207 -0.6184  0.8989 -1.6600
  152MOL0     C20446   7.122   4.607   9.282 -0.1348  0.3597  0.5118
  152MOL0     C20447   7.264   4.641   9.250 -0.1665 -0.2669 -0.3649
  152MOL0     C20448   7.345   4.527   9.287  0.4578  1.0345  0.6814
  152MOL0     C20449   7.481   4.539   9.241  0.1915 -1.2294 -0.3573
  152MOL0     C20450   7.597   4.525   9.215  0.3183 -0.4519  0.5396
  152MOL0     C20451   6.834   4.923   9.163 -0.0318 -0.3476  0.0532
  152MOL0     C20452   6.777   5.045   9.106 -0.1175  0.0535 -0.5447
  152MOL0     H20453   6.757   5.540   9.257  0.8487  1.6995  0.7184
  152MOL0     H20454   6.584   5.717   9.254 -3.5880 -1.5448 -0.3075
  152MOL0     H20455   6.421   5.816   8.861 -2.6552 -3.3345 -1.0318
  152MOL0     H20456   6.363   5.732   9.006 -1.2799  1.6222  0.8538
  152MOL0     H20457   6.203   5.907   8.962  1.9601 -2.8855 -1.9990
  152MOL0     H20458   6.274   5.922   9.118 -2.8716 -0.5381 -0.7514
  152MOL0     H20459   6.437   6.105   9.017  1.0581 -2.0679  0.1263
  152MOL0     H20460   6.343   6.102   8.877  1.9860  1.7192  0.0160
  152MOL0     H20461   6.145   6.163   9.054 -0.3474 -0.2784 -2.1903
  152MOL0     H20462   6.287   6.184   9.160 -0.4907  0.4072 -1.1140
  152MOL0     H20463   6.382   6.355   8.998  0.1975  1.8831 -0.5969
  152MOL0     H20464   6.224   6.362   8.923  0.6726 -2.6928 -0.5280
  152MOL0     H20465   6.193   6.524   9.084  1.1992  1.6039  0.1709
  152MOL0     H20466   6.155   6.387   9.185  0.8808  0.1673 -0.1448
  152MOL0     H20467   6.286   6.527   9.321  1.9901 -0.6365  2.2667
  152MOL0     H20468   6.365   6.373   9.292 -1.1462 -1.7631 -1.3137
  152MOL0     H20469   6.425   6.651   9.150 -1.0258 -2.1385 -4.1632
  152MOL0     H20470   6.507   6.496   9.122 -0.9779 -4.7578  1.4016
  152MOL0     H20471   6.637   6.372   9.329 -0.2431  0.4283 -1.8104
  152MOL0     H20472   6.804   6.527   9.661  0.3205  0.2597  0.7558
  152MOL0     H20473   6.773   6.378   9.583  0.3886  0.9267  1.4444
  152MOL0     H20474   6.906   6.442   9.386 -2.6003  0.8791  1.0696
  152MOL0     H20475   6.999   6.431   9.530 -1.7215  0.2783  1.8706
  152MOL0     H20476   6.902   6.688   9.394  1.7992  0.2199 -0.7814
  152MOL0     H20477   7.055   6.648   9.422 -0.5418  0.1849 -0.2084
  152MOL0     H20478   6.868   6.739   9.646 -1.5795 -0.8288 -1.8231
  152MOL0     H20479   6.983   6.837   9.568 -5.2620  1.1287 -2.0951
  152MOL0     H20480   7.037   6.577   9.918  2.1490 -1.6829  1.1288
  152MOL0     H20481   7.120   6.682  10.242 -1.6341 -4.2498  1.1990
  152MOL0     H20482   6.960   6.743  10.235 -0.6739 -2.7645  0.7566
  152MOL0     H20483   6.989   6.595  10.144 -3.6302  1.1576 -0.4392
  152MOL0     H20484   7.332   7.042  10.333  2.3393  0.5117  0.5559
  152MOL0     H20485   7.456   7.180  10.455 -0.1687 -0.4830 -0.4832
  152MOL0     H20486   7.465   7.373  10.600  0.4912 -2.5349 -1.4876
  152MOL0     H20487   7.623   7.318  10.532  2.0852  1.3236  1.0038
  152MOL0     H20488   7.715   7.545  10.536  2.7837 -4.5176  0.9136
  152MOL0     H20489   7.582   7.602  10.624  1.2003  1.3051  0.9555
  152MOL0     H20490   7.765   7.378  10.713  0.7518  0.1878  2.0467
  152MOL0     H20491   7.615   7.397  10.794  0.5619 -0.3592 -0.3296
  152MOL0     H20492   7.825   7.615  10.762 -0.0525  2.2610  1.0659
  152MOL0     H20493   7.670   7.646  10.823  0.5024  0.8020 -4.0341
  152MOL0     H20494   7.885   7.460  10.959  0.8294  1.4010 -1.6637
  152MOL0     H20495   7.712   7.459  11.000  0.7360 -2.4737 -0.4191
  152MOL0     H20496   7.876   7.713  10.990  0.4874 -0.4399  0.1168
  152MOL0     H20497   7.729   7.689  11.084  0.3432  0.0922 -0.7537
  152MOL0     H20498   7.930   7.700  11.246  2.3174 -1.1836  1.0558
  152MOL0     H20499   7.985   7.547  11.155 -1.8149 -1.4964 -0.6312
  152MOL0     H20500   7.882   7.465  11.350 -0.5918 -3.1214 -3.8281
  152MOL0     H20501   7.767   7.452  11.223  1.3237 -0.3310 -1.7430
  152MOL0     H20502   7.342   7.528  10.248 -0.9734  0.0318  1.2497
  152MOL0     H20503   7.192   7.386  10.102 -0.0541  0.6708  1.7433
  152MOL0     H20504   7.118   7.068   9.921 -0.7978  0.1178  3.6295
  152MOL0     H20505   7.095   6.950   9.716  0.3511  0.6181 -0.1427
  152MOL0     H20506   6.630   5.736   8.820  3.8281 -4.0269 -3.2610
  152MOL0     H20507   6.743   5.532   8.822  1.2711 -1.9795  1.5281
  152MOL0     H20508   7.023   5.258   9.186 -0.3517  0.1170  0.1897
  152MOL0     H20509   7.112   5.056   9.292 -0.7330 -0.9226  0.4274
  152MOL0     H20510   6.919   4.657   9.223  0.2702 -0.4014  0.7654
  152MOL0     H20511   7.035   4.703   9.099 -2.2083  0.0713 -1.9582
  152MOL0     H20512   7.098   4.513   9.233 -2.8565  0.1340  2.0336
  152MOL0     H20513   7.105   4.597   9.390  0.3696 -1.3562  0.4611
  152MOL0     H20514   7.291   4.724   9.316 -2.7366  1.4393 -1.2936
  152MOL0     H20515   7.272   4.677   9.147 -0.0641  1.0625  0.0833
  152MOL0     H20516   7.299   4.437   9.247  1.8985  0.3298  0.5362
  152MOL0     H20517   7.344   4.515   9.395  1.8142 -0.8924  0.5326
  152MOL0     H20518   7.691   4.512   9.166 -0.0228 -0.8653 -0.0153
  152MOL0     H20519   6.775   4.833   9.178 -0.8411 -0.0018 -0.8754
  152MOL0     H20520   6.674   5.029   9.073  0.4531  0.4723 -2.6864
  153MOL0     O20521   5.724   7.194   3.891  0.2556  0.2396 -0.0046
  153MOL0     C20522   5.830   7.143   3.920 -0.0994  0.8822  0.3098
  153MOL0     O20523   5.914   7.066   3.835 -0.3382 -0.3462  0.2495
  153MOL0     C20524   5.872   7.012   3.713  0.0932  0.2612 -0.2412
  153MOL0     C20525   5.973   6.958   3.638  0.0729 -0.0688  0.2634
  153MOL0     C20526   5.959   6.911   3.507 -0.2084 -1.4180 -0.0775
  153MOL0     C20527   5.837   6.937   3.443  0.1244  0.4058 -0.2911
  153MOL0     O20528   5.827   6.906   3.313 -0.1618  0.1644 -0.1953
  153MOL0     C20529   5.800   7.008   3.216  0.2097  0.3826 -1.1148
  153MOL0     C20530   5.881   7.001   3.094  0.1471 -0.0975  0.0379
  153MOL0     C20531   6.025   6.975   3.129 -0.3242 -0.2011  0.9610
  153MOL0     C20532   6.100   6.946   2.997 -0.6248  0.3415  0.3616
  153MOL0     C20533   6.251   6.945   3.030 -0.3021 -1.0370  0.2750
  153MOL0     C20534   6.333   6.994   2.908  0.9000  0.4122  0.3686
  153MOL0     C20535   6.475   6.943   2.908  0.3165 -0.1523 -0.2516
  153MOL0     C20536   6.487   6.819   2.811  0.3469 -0.9739 -0.1279
  153MOL0     N20537   6.388   6.716   2.816 -0.8600  0.0333  0.0054
  153MOL0     C20538   6.393   6.587   2.872  0.3012  0.3723 -0.1490
  153MOL0     C20539   6.258   6.533   2.860 -0.1101  0.1883 -0.1155
  153MOL0     C20540   6.199   6.398   2.881 -0.1495 -0.5440 -0.3336
  153MOL0     C20541   6.045   6.412   2.919  0.1802  0.7162 -0.8435
  153MOL0     C20542   6.021   6.457   3.065 -0.6212 -0.5878 -0.2493
  153MOL0     C20543   5.880   6.457   3.101  0.6067 -0.3599 -0.3353
  153MOL0     O20544   5.855   6.535   3.222 -0.7270 -0.2165 -0.4648
  153MOL0     C20545   5.900   6.490   3.342  0.4571 -0.2162  0.3661
  153MOL0     C20546   5.842   6.380   3.410 -0.1793  0.4595 -0.6579
  153MOL0     C20547   5.888   6.334   3.535 -0.5323 -0.7790 -0.3079
  153MOL0     C20548   5.806   6.228   3.611 -0.3571 -0.4116 -0.2506
  153MOL0     C20549   6.014   6.380   3.579  0.3977  0.0893  0.5787
  153MOL0     C20550   6.082   6.325   3.697  0.5067 -0.7797 -0.8658
  153MOL0     O20551   6.061   6.200   3.715 -0.1670  0.1726 -0.2377
  153MOL0     C20552   6.145   6.124   3.794  1.6384  0.1760  0.0805
  153MOL0     C20553   6.183   6.007   3.737  0.8850  0.1930  0.2753
  153MOL0     C20554   6.266   5.924   3.809 -0.3400  0.4432  0.1872
  153MOL0     C20555   6.292   5.947   3.944  0.1107 -0.2072 -1.1394
  153MOL0     O20556   6.383   5.864   4.013  0.1357  0.3227  0.4598
  153MOL0     C20557   6.517   5.914   3.995 -0.3658  0.7327 -0.7603
  153MOL0     C20558   6.602   5.820   3.917 -0.1431  0.1795 -0.8186
  153MOL0     C20559   6.744   5.865   3.886  0.3828  1.4650 -0.5012
  153MOL0     C20560   6.752   5.967   3.775  0.4373 -0.7576  1.0903
  153MOL0     C20561   6.891   6.049   3.766 -0.2722 -0.0633 -0.1282
  153MOL0     C20562   6.907   6.124   3.635 -0.2436 -0.4331  0.4407
  153MOL0     C20563   7.058   6.149   3.591  0.9618 -0.8015 -0.1049
  153MOL0     C20564   7.060   6.252   3.472 -0.0378  0.7005  0.2582
  153MOL0    Cl20565   7.039   6.164   3.316 -0.0082  0.0470  0.0888
  153MOL0     C20566   6.246   6.067   4.007 -0.4404 -0.2381 -0.5980
  153MOL0     C20567   6.168   6.150   3.928 -1.2070 -0.2595  0.1351
  153MOL0     O20568   6.162   6.397   3.764  0.1190 -0.1918  0.8771
  153MOL0     C20569   6.088   6.466   3.488  0.0730 -0.2049 -0.7892
  153MOL0     C20570   6.019   6.532   3.379 -0.7684 -1.1063 -1.0795
  153MOL0     N20571   6.190   6.630   2.790  1.0654  0.9624  0.8493
  153MOL0     N20572   6.261   6.734   2.771  0.3071  0.0501 -0.6623
  153MOL0     C20573   5.727   7.000   3.510  0.1082  0.4503 -0.8807
  153MOL0     C20574   5.748   7.024   3.647 -0.0932  0.0567 -0.8638
  153MOL0     C20575   5.891   7.180   4.045  0.1097 -0.3449 -0.2860
  153MOL0     C20576   6.021   7.137   4.071 -0.4370  0.9533 -0.1504
  153MOL0     C20577   6.080   7.163   4.196  0.8679  0.0583  0.3134
  153MOL0     C20578   6.003   7.244   4.286  1.1788  0.4465 -0.2405
  153MOL0     O20579   6.045   7.245   4.419  0.1679  0.0205  0.8393
  153MOL0     C20580   6.134   7.357   4.451 -0.0038 -0.7924 -0.6015
  153MOL0     C20581   6.057   7.461   4.538 -0.3317 -0.5485 -0.1984
  153MOL0     C20582   6.026   7.404   4.675 -0.0603 -0.2752  0.6951
  153MOL0     C20583   5.938   7.510   4.744  0.4876  0.6091 -1.0798
  153MOL0     C20584   6.003   7.640   4.778 -0.0613 -0.4286  0.4104
  153MOL0     C20585   6.053   7.752   4.800 -0.3609 -0.1611 -0.0130
  153MOL0     C20586   5.879   7.293   4.258  0.0592 -0.0734  0.9931
  153MOL0     C20587   5.825   7.267   4.130 -0.6719 -0.0494 -0.4009
  153MOL0     H20588   6.073   6.960   3.679 -0.6647  1.3706  2.2027
  153MOL0     H20589   6.032   6.856   3.450  0.3275 -0.3240 -0.4655
  153MOL0     H20590   5.692   7.001   3.201 -0.1344  0.8835  0.8317
  153MOL0     H20591   5.830   7.102   3.264  0.7223 -0.7544  0.8814
  153MOL0     H20592   5.832   6.933   3.023  0.4203  1.2048 -1.4533
  153MOL0     H20593   5.875   7.101   3.050  4.1037  1.2090  2.0081
  153MOL0     H20594   6.074   7.060   3.177 -3.1759  3.0002 -1.3106
  153MOL0     H20595   6.038   6.876   3.173  1.7589 -1.2173 -1.6903
  153MOL0     H20596   6.081   6.846   2.956 -2.1714 -0.1474  2.1334
  153MOL0     H20597   6.072   7.026   2.927 -0.9166  2.9575  3.2752
  153MOL0     H20598   6.271   7.014   3.113 -1.3208 -0.3420 -0.0287
  153MOL0     H20599   6.284   6.846   3.060  1.6708  0.0935  2.1190
  153MOL0     H20600   6.287   6.966   2.813  2.3380 -0.4978 -0.0839
  153MOL0     H20601   6.333   7.103   2.897 -3.3950  0.4284 -1.3023
  153MOL0     H20602   6.526   7.031   2.867 -0.8467  0.1459 -1.1042
  153MOL0     H20603   6.512   6.925   3.010 -0.5016 -0.6741 -0.0357
  153MOL0     H20604   6.580   6.771   2.842 -0.9725 -0.9135  4.6600
  153MOL0     H20605   6.490   6.866   2.712 -1.5212 -0.2395  0.1229
  153MOL0     H20606   6.475   6.534   2.918 -1.0733 -1.6405  0.1348
  153MOL0     H20607   6.217   6.340   2.791  0.9926  0.8457 -1.0228
  153MOL0     H20608   6.257   6.348   2.959 -1.2869  1.1948  1.7458
  153MOL0     H20609   5.993   6.316   2.908  2.4935 -0.8622  1.0254
  153MOL0     H20610   5.999   6.489   2.855  1.3779  0.0416 -2.5877
  153MOL0     H20611   6.059   6.558   3.075  0.3781 -0.6793 -2.5119
  153MOL0     H20612   6.061   6.380   3.132 -0.5309  0.2860  0.7229
  153MOL0     H20613   5.854   6.355   3.127  0.4782  0.4720  3.2652
  153MOL0     H20614   5.814   6.499   3.024 -1.3973  0.1628  1.5542
  153MOL0     H20615   5.750   6.332   3.378 -0.5182 -0.4082  1.4675
  153MOL0     H20616   5.797   6.265   3.714  0.5769  1.8702 -0.9150
  153MOL0     H20617   5.702   6.236   3.578 -0.5175  2.0173  0.6020
  153MOL0     H20618   5.838   6.124   3.605  2.1850  0.2306  0.7266
  153MOL0     H20619   6.143   5.978   3.641  0.1808 -1.7443  1.0883
  153MOL0     H20620   6.310   5.838   3.760  1.6293  1.7803 -0.5271
  153MOL0     H20621   6.506   6.006   3.937 -3.8681 -0.1314 -1.7287
  153MOL0     H20622   6.567   5.933   4.090 -0.5987 -4.6952  0.7913
  153MOL0     H20623   6.609   5.724   3.971 -1.5260  0.1253 -0.6974
  153MOL0     H20624   6.549   5.790   3.827 -1.2156 -1.3270  0.2666
  153MOL0     H20625   6.801   5.787   3.836  1.3640  1.1398  1.0871
  153MOL0     H20626   6.787   5.902   3.979  0.0274 -0.6019  0.5382
  153MOL0     H20627   6.741   5.920   3.676 -2.3801 -1.7695  1.7837
  153MOL0     H20628   6.664   6.032   3.781 -0.3603 -1.2329 -2.7042
  153MOL0     H20629   6.966   5.969   3.760  1.3511  1.4031 -0.2583
  153MOL0     H20630   6.909   6.105   3.858  1.7056 -1.3784  0.3705
  153MOL0     H20631   6.865   6.064   3.554 -1.8895  0.4506  0.5903
  153MOL0     H20632   6.862   6.224   3.633 -0.7408 -0.6551  0.2596
  153MOL0     H20633   7.106   6.057   3.555  1.2576  0.2666 -2.6827
  153MOL0     H20634   7.118   6.184   3.675  0.3352  0.9041 -0.3207
  153MOL0     H20635   7.160   6.296   3.471  1.4983 -2.4362 -2.3066
  153MOL0     H20636   6.983   6.330   3.473  0.1489  0.9394 -1.2027
  153MOL0     H20637   6.267   6.083   4.112  1.2986 -0.4316 -0.8899
  153MOL0     H20638   6.122   6.236   3.974 -1.6690  0.8345 -2.2146
  153MOL0     H20639   6.192   6.484   3.514  0.0839  0.0716 -1.0155
  153MOL0     H20640   6.067   6.619   3.335 -1.0478 -1.5875 -2.3660
  153MOL0     H20641   5.632   7.027   3.464 -0.2832  2.6457  0.9919
  153MOL0     H20642   5.667   7.074   3.698  0.2735  2.2706 -2.2866
  153MOL0     H20643   6.068   7.061   4.009 -1.7137  1.3879 -1.7140
  153MOL0     H20644   6.169   7.105   4.216  1.2158  0.7888  0.9218
  153MOL0     H20645   6.225   7.322   4.502  0.6413 -1.6379 -2.2501
  153MOL0     H20646   6.172   7.402   4.359  0.8777 -0.3632 -0.0439
  153MOL0     H20647   5.962   7.496   4.497 -0.3311  0.4336  0.6048
  153MOL0     H20648   6.122   7.549   4.547 -0.0124 -0.8415  0.4570
  153MOL0     H20649   6.118   7.380   4.730 -1.0749  0.2448  2.7232
  153MOL0     H20650   5.975   7.308   4.665  2.2522 -1.6948  1.7374
  153MOL0     H20651   5.908   7.467   4.840  2.4878 -1.4082 -1.2861
  153MOL0     H20652   5.849   7.524   4.682 -1.7462  0.2485  1.7972
  153MOL0     H20653   6.082   7.850   4.832  0.9549 -0.1602 -1.1154
  153MOL0     H20654   5.827   7.349   4.334  0.8934 -0.1244  1.6111
  153MOL0     H20655   5.724   7.304   4.114 -0.6900  0.2162  0.3023
  154MOL0     O20656   7.645   7.875   1.605  0.0172 -0.4084 -0.3567
  154MOL0     C20657   7.567   7.824   1.687 -0.4375  0.7821  0.4469
  154MOL0     O20658   7.583   7.841   1.822 -0.8457 -0.2347 -0.1426
  154MOL0     C20659   7.689   7.922   1.865  0.1251 -0.4059 -0.1555
  154MOL0     C20660   7.658   8.052   1.899 -0.0940 -0.1174  0.1844
  154MOL0     C20661   7.742   8.138   1.980  0.2580 -0.3199  0.4474
  154MOL0     C20662   7.876   8.100   1.994 -0.3359  0.5810 -0.5999
  154MOL0     O20663   7.968   8.182   2.051 -0.1393  0.7887  0.4053
  154MOL0     C20664   8.021   8.274   1.966 -0.1767 -0.3267 -0.1186
  154MOL0     C20665   8.144   8.344   2.026  0.7959  0.1759 -0.1146
  154MOL0     C20666   8.177   8.461   1.950  0.0138  0.1909  0.0709
  154MOL0     C20667   8.321   8.518   2.011 -0.6505 -0.3195  0.2222
  154MOL0     C20668   8.434   8.435   1.949  0.1358  0.3711  0.0949
  154MOL0     C20669   8.568   8.500   1.992 -0.0026  0.3518  0.1999
  154MOL0     C20670   8.689   8.415   1.954  0.3367  0.3962 -0.8680
  154MOL0     C20671   8.715   8.291   2.051 -0.0773  0.0093  0.4121
  154MOL0     N20672   8.812   8.323   2.155 -0.0433 -0.8690 -0.5102
  154MOL0     C20673   8.946   8.304   2.157  0.1443  0.2968  0.6081
  154MOL0     C20674   8.990   8.347   2.278  0.2008 -0.6218  0.3852
  154MOL0     C20675   9.131   8.335   2.335  0.1733  0.9280 -0.7055
  154MOL0     C20676   9.151   8.210   2.431 -0.5283 -0.4353  0.1559
  154MOL0     C20677   9.277   8.228   2.510  2.0557 -1.1509 -0.7219
  154MOL0     C20678   9.403   8.177   2.445 -0.0569 -0.0736  1.0319
  154MOL0     O20679   9.395   8.036   2.412 -0.1797  0.5536 -0.1149
  154MOL0     C20680   9.501   7.952   2.423 -1.4913 -0.1337  0.1713
  154MOL0     C20681   9.630   7.992   2.439  0.3455  0.0725  0.0929
  154MOL0     C20682   9.738   7.904   2.426  0.3890 -0.7952 -0.4999
  154MOL0     C20683   9.876   7.968   2.463  1.3598  0.3965 -0.0805
  154MOL0     C20684   9.713   7.766   2.408  0.7078  0.7144 -0.0608
  154MOL0     C20685   9.818   7.659   2.404 -0.2368  0.3419 -0.5094
  154MOL0     O20686   9.789   7.531   2.425  0.5454  0.2276  0.5056
  154MOL0     C20687   9.898   7.432   2.401  0.8537  0.0979 -0.0790
  154MOL0     C20688   9.997   7.451   2.304 -0.3688  0.7883 -0.1091
  154MOL0     C20689  10.091   7.343   2.291  0.0021 -0.2294  0.9373
  154MOL0     C20690  10.089   7.225   2.360  0.3088  0.3804  0.3662
  154MOL0     O20691  10.180   7.130   2.331  0.6686  0.3748  0.4745
  154MOL0     C20692  10.179   7.015   2.412  0.1303  0.3408 -1.0017
  154MOL0     C20693  10.281   6.911   2.354  0.9969  0.4680 -0.4688
  154MOL0     C20694  10.282   6.784   2.441  1.1684 -0.0314 -0.1004
  154MOL0     C20695  10.355   6.674   2.383 -0.1080  0.4567 -0.6294
  154MOL0     C20696  10.402   6.575   2.495  1.2456 -0.2986  0.2300
  154MOL0     C20697  10.456   6.450   2.420 -0.4673  0.8617 -0.0373
  154MOL0     C20698  10.503   6.339   2.512  0.8700 -0.4126 -0.6623
  154MOL0     C20699  10.529   6.208   2.434 -0.6408 -0.1591 -0.6891
  154MOL0    Cl20700  10.599   6.095   2.548  0.3627  0.7307  0.0123
  154MOL0     C20701   9.983   7.203   2.453 -0.2866 -0.1131  0.5930
  154MOL0     C20702   9.891   7.307   2.466  0.2081 -0.1248 -0.4082
  154MOL0     O20703   9.933   7.696   2.403 -1.0597 -0.5505  0.1250
  154MOL0     C20704   9.572   7.725   2.409 -0.1643  0.7328  0.1352
  154MOL0     C20705   9.470   7.819   2.415 -0.3530 -0.1692 -0.9066
  154MOL0     N20706   8.887   8.392   2.348 -0.4770  0.0919  1.2477
  154MOL0     N20707   8.785   8.368   2.280  0.8549 -0.3353  0.9256
  154MOL0     C20708   7.916   7.971   1.956  0.4832 -0.2271  0.2033
  154MOL0     C20709   7.825   7.886   1.895  1.0583 -0.4521 -0.6065
  154MOL0     C20710   7.455   7.749   1.625  0.4072 -0.1477 -0.3771
  154MOL0     C20711   7.349   7.706   1.696 -1.3265 -0.9156  0.1390
  154MOL0     C20712   7.248   7.640   1.633 -0.0745 -0.4876 -0.6140
  154MOL0     C20713   7.248   7.617   1.489 -0.6236 -0.8774  0.5378
  154MOL0     O20714   7.161   7.545   1.405 -0.0183  0.0045 -0.2392
  154MOL0     C20715   7.050   7.629   1.367 -0.3573 -0.3020  0.4528
  154MOL0     C20716   6.949   7.643   1.483 -0.1962  0.0606 -0.2521
  154MOL0     C20717   6.901   7.503   1.537  0.2702  0.5379  0.3473
  154MOL0     C20718   6.817   7.434   1.430 -0.3540  0.5864  0.3263
  154MOL0     C20719   6.686   7.495   1.394  0.2033  0.5409  0.3239
  154MOL0     C20720   6.574   7.538   1.358  0.4539  0.3919 -0.1116
  154MOL0     C20721   7.363   7.651   1.422  0.5066 -0.2557 -0.0394
  154MOL0     C20722   7.463   7.719   1.485 -0.9032 -0.2463 -0.1518
  154MOL0     H20723   7.561   8.099   1.890 -0.5140  0.3896  4.9203
  154MOL0     H20724   7.714   8.240   2.004  0.5729 -0.6024  2.1613
  154MOL0     H20725   8.062   8.224   1.877  1.1357 -0.1331  0.3666
  154MOL0     H20726   7.944   8.346   1.937 -1.8981 -0.9257  2.6159
  154MOL0     H20727   8.140   8.379   2.130  0.8481 -1.1513  0.3540
  154MOL0     H20728   8.218   8.265   2.036 -1.2710 -1.7722  0.7630
  154MOL0     H20729   8.189   8.434   1.844  1.3249 -1.5938  0.6374
  154MOL0     H20730   8.100   8.538   1.957 -1.9327 -1.5241 -1.2074
  154MOL0     H20731   8.326   8.622   1.978 -1.6539  0.0367  1.1224
  154MOL0     H20732   8.333   8.510   2.120  4.3656 -2.0985 -0.1841
  154MOL0     H20733   8.421   8.337   1.996  2.6633 -0.0602 -0.0040
  154MOL0     H20734   8.421   8.437   1.841 -3.2438 -0.3344  0.3686
  154MOL0     H20735   8.580   8.595   1.939  0.3615  0.4103  0.3910
  154MOL0     H20736   8.571   8.535   2.096  1.7805 -0.4939  0.4660
  154MOL0     H20737   8.677   8.378   1.852 -1.6043  0.2489 -0.6221
  154MOL0     H20738   8.784   8.469   1.959  1.1035 -0.9692  0.1592
  154MOL0     H20739   8.745   8.204   1.992  1.4393  1.2698 -0.7911
  154MOL0     H20740   8.619   8.265   2.095 -0.5505 -1.2447 -1.3069
  154MOL0     H20741   9.005   8.255   2.080  0.1103  0.7000  0.3203
  154MOL0     H20742   9.210   8.322   2.260 -1.3943  0.7839 -2.4367
  154MOL0     H20743   9.146   8.429   2.388 -1.7750  1.3777 -0.8629
  154MOL0     H20744   9.140   8.114   2.378 -1.6799 -0.6185  0.6843
  154MOL0     H20745   9.069   8.199   2.503 -1.8494 -0.0937 -1.2411
  154MOL0     H20746   9.273   8.174   2.604 -0.9966  0.8535  0.4403
  154MOL0     H20747   9.289   8.333   2.541 -2.0063 -0.3079 -1.3916
  154MOL0     H20748   9.482   8.204   2.515 -0.4060  2.6984  0.4566
  154MOL0     H20749   9.420   8.233   2.353  0.6821 -1.1196  0.5061
  154MOL0     H20750   9.655   8.095   2.461  3.5127 -0.5271 -0.2673
  154MOL0     H20751   9.951   7.921   2.398 -2.1693 -3.6317 -1.7903
  154MOL0     H20752   9.865   8.076   2.456 -1.1067  0.2848  0.9962
  154MOL0     H20753   9.890   7.944   2.568 -2.6226  1.9292  0.9891
  154MOL0     H20754  10.007   7.541   2.244 -1.6467 -0.2895 -2.0760
  154MOL0     H20755  10.171   7.369   2.222 -1.6217 -0.9112 -1.2665
  154MOL0     H20756  10.211   7.044   2.512  1.9930 -0.9836 -1.1546
  154MOL0     H20757  10.079   6.969   2.417  0.6928 -0.8856 -0.5548
  154MOL0     H20758  10.258   6.895   2.248 -2.2795  1.7263 -0.0808
  154MOL0     H20759  10.376   6.965   2.360  0.7561  1.0963 -1.8536
  154MOL0     H20760  10.187   6.736   2.465 -0.2588  1.7155 -1.9539
  154MOL0     H20761  10.338   6.813   2.530  0.6060  3.0454 -0.6435
  154MOL0     H20762  10.291   6.617   2.316 -0.5302  0.1836  0.0080
  154MOL0     H20763  10.442   6.706   2.325 -0.4350  1.5376 -0.5514
  154MOL0     H20764  10.314   6.551   2.556  0.6960  3.3909  1.1193
  154MOL0     H20765  10.472   6.623   2.563  2.8708 -2.6084  0.2980
  154MOL0     H20766  10.384   6.397   2.356  1.8961 -2.0557 -0.4658
  154MOL0     H20767  10.540   6.482   2.357 -0.9582  1.2278 -0.5250
  154MOL0     H20768  10.421   6.307   2.578 -0.2653  1.4191 -1.1038
  154MOL0     H20769  10.589   6.367   2.573  2.0778 -2.9190 -1.0600
  154MOL0     H20770  10.587   6.233   2.345  0.9001  0.5029  0.4550
  154MOL0     H20771  10.436   6.165   2.396 -0.6809  1.0661 -2.0874
  154MOL0     H20772   9.955   7.107   2.496  0.4726 -0.6342 -0.0662
  154MOL0     H20773   9.814   7.287   2.539 -0.9752 -0.3126 -1.6761
  154MOL0     H20774   9.552   7.618   2.414 -0.2249  0.8034  2.0170
  154MOL0     H20775   9.364   7.797   2.424 -0.4817  0.5609 -0.5280
  154MOL0     H20776   8.021   7.949   1.973  0.8562 -0.1646 -1.7678
  154MOL0     H20777   7.859   7.784   1.883  0.5420 -0.8366  0.9064
  154MOL0     H20778   7.340   7.723   1.803  1.2061  1.6628  0.0586
  154MOL0     H20779   7.172   7.598   1.698 -1.0327  0.7382 -0.9076
  154MOL0     H20780   7.086   7.728   1.339  2.7050 -1.7334 -1.2558
  154MOL0     H20781   6.998   7.581   1.283 -0.5726  0.5593  0.0866
  154MOL0     H20782   6.865   7.707   1.454 -0.6441  2.2428  4.7801
  154MOL0     H20783   6.994   7.686   1.572  1.6275 -0.4463 -0.8970
  154MOL0     H20784   6.838   7.502   1.627 -2.6399 -1.0592 -1.5473
  154MOL0     H20785   6.989   7.439   1.543  0.4904  0.6733 -1.1445
  154MOL0     H20786   6.788   7.341   1.480  1.1690  0.7982  1.7039
  154MOL0     H20787   6.876   7.425   1.339  1.6439  0.3742  1.5794
  154MOL0     H20788   6.483   7.580   1.320  0.9487 -0.3033 -2.2575
  154MOL0     H20789   7.372   7.615   1.320 -0.3607 -0.7515  0.0425
  154MOL0     H20790   7.538   7.755   1.417  0.6357 -0.8557  1.1579
  155MOL0     O20791   5.184   4.713   1.739 -0.3336  0.1586  0.1487
  155MOL0     C20792   5.082   4.774   1.712  0.6320 -0.8082 -0.3815
  155MOL0     O20793   5.082   4.895   1.656  0.3080  0.4204  0.0287
  155MOL0     C20794   5.196   4.932   1.585 -0.1769  1.4665 -0.2444
  155MOL0     C20795   5.305   5.009   1.640 -0.2219  0.0906 -0.8265
  155MOL0     C20796   5.413   5.043   1.555 -0.5403 -0.4408 -0.2462
  155MOL0     C20797   5.413   4.998   1.428  1.4942  0.6759  0.9406
  155MOL0     O20798   5.514   5.020   1.336  0.5678  0.0724 -0.2544
  155MOL0     C20799   5.581   5.140   1.346 -0.4395 -0.6849 -0.2800
  155MOL0     C20800   5.655   5.163   1.210 -0.3680 -0.4557  1.0641
  155MOL0     C20801   5.803   5.151   1.228  0.2117 -0.1823 -0.2772
  155MOL0     C20802   5.883   5.181   1.103 -0.5711 -0.5025  0.7842
  155MOL0     C20803   6.016   5.109   1.115 -0.1676 -0.1703  0.0169
  155MOL0     C20804   6.119   5.155   1.013  0.4084  0.5625  0.4934
  155MOL0     C20805   6.074   5.161   0.865 -0.2263  1.4000  0.1147
  155MOL0     C20806   6.045   5.027   0.814 -0.0145  0.1825 -0.5063
  155MOL0     N20807   5.959   5.052   0.698  0.0391 -0.3911  0.6536
  155MOL0     C20808   5.991   5.080   0.564 -0.3380 -0.1629 -0.0424
  155MOL0     C20809   5.880   5.076   0.496 -0.5361 -0.4553 -0.1780
  155MOL0     C20810   5.864   5.119   0.351 -0.6016  0.1991  0.1480
  155MOL0     C20811   5.720   5.146   0.314  0.2990 -0.3477 -0.0560
  155MOL0     C20812   5.666   5.271   0.391 -0.1276  0.5284 -0.2974
  155MOL0     C20813   5.601   5.355   0.282  0.7456  0.1834  0.4329
  155MOL0     O20814   5.572   5.482   0.342 -0.0291  1.4492 -0.2867
  155MOL0     C20815   5.476   5.476   0.439  0.2610  0.6034  0.9746
  155MOL0     C20816   5.344   5.454   0.410 -0.0339 -0.3198  0.2413
  155MOL0     C20817   5.248   5.454   0.501 -0.4843  0.2559 -0.3263
  155MOL0     C20818   5.111   5.438   0.450 -0.3620  0.3073 -0.2041
  155MOL0     C20819   5.281   5.471   0.641  0.2165  0.9472 -0.4440
  155MOL0     C20820   5.183   5.468   0.749  0.3623 -0.8118 -0.2906
  155MOL0     O20821   5.071   5.557   0.736 -0.6533  0.4457 -0.2287
  155MOL0     C20822   4.977   5.563   0.835 -0.2244  0.8961 -0.4095
  155MOL0     C20823   4.998   5.652   0.948 -0.8103  0.6652  0.1897
  155MOL0     C20824   4.907   5.632   1.057 -0.8459  0.7261 -0.9396
  155MOL0     C20825   4.793   5.541   1.047 -0.1234  0.2480 -0.1452
  155MOL0     O20826   4.697   5.533   1.143  0.3766  0.2888 -0.8832
  155MOL0     C20827   4.738   5.541   1.283  0.2187  0.4854 -0.1671
  155MOL0     C20828   4.763   5.405   1.355 -0.3221 -0.6227  0.3297
  155MOL0     C20829   4.768   5.398   1.497 -0.7167  0.1254 -0.4264
  155MOL0     C20830   4.629   5.429   1.574 -0.5122  0.2833  0.0961
  155MOL0     C20831   4.525   5.308   1.583  0.1203  0.2687  0.0151
  155MOL0     C20832   4.384   5.345   1.637 -0.0158  0.6765  0.0662
  155MOL0     C20833   4.384   5.378   1.784 -0.9967 -0.6951  0.5945
  155MOL0     C20834   4.247   5.429   1.825  0.1513 -0.0436 -1.4590
  155MOL0    Cl20835   4.250   5.490   2.000  0.4258 -0.1597  0.2742
  155MOL0     C20836   4.768   5.490   0.925  0.4271 -0.0441  0.6870
  155MOL0     C20837   4.864   5.491   0.817  0.2839 -0.1913  0.2916
  155MOL0     O20838   5.180   5.387   0.841 -0.6175  0.4755  0.2952
  155MOL0     C20839   5.417   5.493   0.667 -0.5312  0.4661  0.1931
  155MOL0     C20840   5.511   5.498   0.570 -0.4320 -0.3435  0.4651
  155MOL0     N20841   5.777   5.070   0.584 -0.5821  0.5849  0.0310
  155MOL0     N20842   5.821   5.056   0.705  0.1073 -0.3696  0.8622
  155MOL0     C20843   5.296   4.932   1.377 -0.9032 -0.3243 -0.5846
  155MOL0     C20844   5.187   4.902   1.453  0.2767 -0.6711  0.2378
  155MOL0     C20845   4.945   4.716   1.748  0.4633  0.0644 -1.3342
  155MOL0     C20846   4.826   4.779   1.716 -0.2036  0.2364 -0.1040
  155MOL0     C20847   4.701   4.718   1.723  0.2524  0.4063 -0.9993
  155MOL0     C20848   4.684   4.597   1.787  0.2108 -0.1863 -0.2423
  155MOL0     O20849   4.564   4.537   1.803  0.3349  0.2949  0.0363
  155MOL0     C20850   4.544   4.411   1.734  0.4270  0.1819  0.2344
  155MOL0     C20851   4.485   4.418   1.583 -0.6779 -0.0434  0.0422
  155MOL0     C20852   4.498   4.282   1.505  0.8878 -0.1488 -0.8131
  155MOL0     C20853   4.439   4.162   1.587  0.0042 -0.1819  0.3158
  155MOL0     C20854   4.348   4.079   1.503 -0.4927  0.3251  0.0044
  155MOL0     C20855   4.278   4.000   1.439 -0.0101  1.6000 -0.8697
  155MOL0     C20856   4.811   4.541   1.832 -0.0186  0.2383 -0.2313
  155MOL0     C20857   4.935   4.603   1.823  0.2616 -0.3200  0.3698
  155MOL0     H20858   5.312   5.052   1.739 -2.6237  1.5719 -1.2153
  155MOL0     H20859   5.502   5.081   1.603  0.2473  0.8236 -2.5793
  155MOL0     H20860   5.503   5.216   1.354  0.4819  0.5077 -1.8601
  155MOL0     H20861   5.647   5.144   1.433 -2.2444 -0.4436  1.1158
  155MOL0     H20862   5.617   5.091   1.137  1.1688  0.3785 -0.6129
  155MOL0     H20863   5.634   5.264   1.174 -0.9652 -0.8786  0.2067
  155MOL0     H20864   5.845   5.206   1.312 -0.7041 -1.9879  1.4704
  155MOL0     H20865   5.826   5.048   1.258 -0.4990 -0.6147 -1.1904
  155MOL0     H20866   5.832   5.148   1.011  2.1256  0.4832 -1.1992
  155MOL0     H20867   5.902   5.289   1.096  1.0650 -0.6883  1.9170
  155MOL0     H20868   6.071   5.116   1.209  2.1282 -1.0433 -1.1906
  155MOL0     H20869   5.987   5.005   1.096  1.6488 -0.3384 -2.2653
  155MOL0     H20870   6.154   5.256   1.035  1.2937  0.5479 -0.7223
  155MOL0     H20871   6.203   5.084   1.017 -0.7890 -0.8704  0.9717
  155MOL0     H20872   5.994   5.236   0.860  1.5746  3.7080  2.5830
  155MOL0     H20873   6.156   5.206   0.808 -0.0716  2.8122  1.3674
  155MOL0     H20874   5.995   4.966   0.890 -2.1549  2.0329 -0.3273
  155MOL0     H20875   6.137   4.980   0.780  1.8328  2.3579  1.1275
  155MOL0     H20876   6.093   5.104   0.537 -0.1288 -0.0778  0.8002
  155MOL0     H20877   5.915   5.210   0.317 -0.2164 -0.3253 -0.7052
  155MOL0     H20878   5.893   5.040   0.281  0.1233  1.7828 -1.4339
  155MOL0     H20879   5.663   5.062   0.356  0.4487  0.3893  1.7012
  155MOL0     H20880   5.712   5.164   0.207  1.6039  1.3385  0.0893
  155MOL0     H20881   5.746   5.325   0.443 -2.0063  3.7626 -0.5541
  155MOL0     H20882   5.596   5.239   0.469 -1.4370  0.1101 -1.6063
  155MOL0     H20883   5.507   5.314   0.244  1.3603 -0.3583 -0.5436
  155MOL0     H20884   5.660   5.383   0.194 -0.9482  2.7965  0.0089
  155MOL0     H20885   5.323   5.428   0.307 -0.4536  2.2459 -0.4067
  155MOL0     H20886   5.034   5.468   0.521  1.1346  2.4453  0.6431
  155MOL0     H20887   5.101   5.500   0.361 -0.2114  1.2190  0.4013
  155MOL0     H20888   5.098   5.336   0.412  2.6941 -0.9002  1.6195
  155MOL0     H20889   5.087   5.712   0.932  1.3239 -2.4194 -0.4918
  155MOL0     H20890   4.923   5.687   1.149 -1.1219 -2.1169  0.9207
  155MOL0     H20891   4.825   5.604   1.302  0.6163 -0.9233  3.4166
  155MOL0     H20892   4.657   5.585   1.342 -0.3657 -2.0954  1.1010
  155MOL0     H20893   4.688   5.332   1.323 -1.3905  0.4545  0.3002
  155MOL0     H20894   4.857   5.367   1.314 -0.4515 -1.6782  0.9772
  155MOL0     H20895   4.849   5.458   1.539  0.3744 -1.1882 -0.5662
  155MOL0     H20896   4.800   5.300   1.534  2.8438  2.2587  2.8227
  155MOL0     H20897   4.655   5.464   1.673 -0.6195 -0.4029  0.3762
  155MOL0     H20898   4.567   5.511   1.537 -0.4662  0.9702  1.5143
  155MOL0     H20899   4.571   5.235   1.650 -1.1242  1.1343  1.9173
  155MOL0     H20900   4.514   5.268   1.482  0.7144 -2.2477  0.8738
  155MOL0     H20901   4.349   5.418   1.563 -4.9640 -0.3045  1.1236
  155MOL0     H20902   4.313   5.262   1.632 -0.7756  0.8915  4.0358
  155MOL0     H20903   4.454   5.459   1.806 -1.8007  0.5227 -1.0970
  155MOL0     H20904   4.408   5.288   1.842 -0.7244 -1.5150 -0.7492
  155MOL0     H20905   4.176   5.346   1.825 -0.8650  0.7271  1.2676
  155MOL0     H20906   4.213   5.507   1.757  1.6880  1.7143 -0.3363
  155MOL0     H20907   4.679   5.429   0.916  0.3234  0.1663  0.2514
  155MOL0     H20908   4.848   5.444   0.720  0.8372  0.9986 -0.3977
  155MOL0     H20909   5.440   5.482   0.773  2.1758 -0.9193 -0.4449
  155MOL0     H20910   5.614   5.520   0.598 -0.4824 -0.9043  1.1232
  155MOL0     H20911   5.286   4.889   1.278  0.4501  1.6927 -1.6733
  155MOL0     H20912   5.100   4.851   1.412  0.6667 -1.0592 -0.1205
  155MOL0     H20913   4.826   4.876   1.667 -0.0972 -0.1799 -0.9493
  155MOL0     H20914   4.607   4.765   1.696 -1.3035 -2.3636 -0.7106
  155MOL0     H20915   4.636   4.353   1.728  0.0771 -0.3252 -0.4632
  155MOL0     H20916   4.486   4.363   1.813 -0.3511  3.2182  1.6658
  155MOL0     H20917   4.530   4.501   1.527 -1.8571 -1.2245 -2.8389
  155MOL0     H20918   4.378   4.439   1.576 -0.9487 -0.9350  1.1550
  155MOL0     H20919   4.602   4.263   1.477  1.0299 -0.7806  0.0952
  155MOL0     H20920   4.451   4.281   1.406  0.2406  1.5323 -0.5547
  155MOL0     H20921   4.380   4.188   1.675  1.6328 -2.1214  2.0734
  155MOL0     H20922   4.513   4.087   1.617 -0.4135 -2.4889 -3.5600
  155MOL0     H20923   4.220   3.928   1.384  2.0795  0.1284 -1.2586
  155MOL0     H20924   4.808   4.449   1.889 -1.7901  1.7636  2.3537
  155MOL0     H20925   5.019   4.554   1.870  0.1942  0.2218  1.0729
  156MOL0     O20926   4.542   6.029   1.087 -0.2330 -0.2975  0.7841
  156MOL0     C20927   4.610   6.114   1.019 -0.2245  0.8219  0.1884
  156MOL0     O20928   4.652   6.240   1.057  0.5521 -0.1226 -0.0661
  156MOL0     C20929   4.599   6.299   1.168  0.1441  0.2282  0.2144
  156MOL0     C20930   4.516   6.411   1.153 -0.2191  0.7018  0.1041
  156MOL0     C20931   4.472   6.488   1.265  0.3407  0.2006  0.3483
  156MOL0     C20932   4.504   6.432   1.393 -0.6019 -0.0085  1.4851
  156MOL0     O20933   4.450   6.495   1.498 -0.2094 -0.3542  0.0783
  156MOL0     C20934   4.515   6.616   1.530  0.2044  0.0002 -0.8006
  156MOL0     C20935   4.504   6.636   1.679  0.7339  0.4544  0.5625
  156MOL0     C20936   4.367   6.677   1.724 -0.3197  0.5744  0.7480
  156MOL0     C20937   4.375   6.757   1.854  0.2115 -0.1355  0.4741
  156MOL0     C20938   4.255   6.842   1.880  0.2822 -1.4411 -0.0513
  156MOL0     C20939   4.270   6.909   2.018  0.2842  0.1766 -0.0623
  156MOL0     C20940   4.133   6.963   2.053  0.5388 -0.0241 -0.0136
  156MOL0     C20941   4.028   6.863   2.106  0.5917 -0.3979 -0.4047
  156MOL0     N20942   3.906   6.920   2.170  0.0257  0.6175  0.3828
  156MOL0     C20943   3.845   6.868   2.281  0.5594  0.3473 -0.1393
  156MOL0     C20944   3.739   6.940   2.300  0.3825 -0.3991  0.0016
  156MOL0     C20945   3.640   6.915   2.413 -0.2297 -0.1586  0.4326
  156MOL0     C20946   3.575   6.774   2.401  1.1008  0.1797 -0.9692
  156MOL0     C20947   3.452   6.763   2.499  0.1813  0.0994 -0.5792
  156MOL0     C20948   3.380   6.633   2.494  0.3304  0.8254  0.3776
  156MOL0     O20949   3.350   6.607   2.356 -0.1112  0.3544  0.6103
  156MOL0     C20950   3.239   6.666   2.301 -0.5709  0.7760 -0.0426
  156MOL0     C20951   3.229   6.652   2.162 -0.6897  0.7545  0.7025
  156MOL0     C20952   3.102   6.689   2.103 -0.5603  0.1780 -0.1845
  156MOL0     C20953   3.084   6.647   1.958 -0.5072  0.8644 -0.3761
  156MOL0     C20954   3.001   6.760   2.184  0.2832  0.2000  0.7337
  156MOL0     C20955   2.865   6.802   2.128 -1.4055 -0.2938 -0.6198
  156MOL0     O20956   2.774   6.860   2.222 -0.0928 -0.2156  0.3049
  156MOL0     C20957   2.645   6.888   2.211  0.1034  0.1409  0.7135
  156MOL0     C20958   2.589   6.985   2.297  0.2796 -1.0730  0.8618
  156MOL0     C20959   2.450   7.000   2.293  0.8295  0.2415 -0.1491
  156MOL0     C20960   2.372   6.927   2.199  0.3117 -0.2522  0.9229
  156MOL0     O20961   2.240   6.959   2.197  0.3374 -0.7141 -0.2677
  156MOL0     C20962   2.168   6.948   2.069 -0.0744  0.1414 -0.0952
  156MOL0     C20963   2.083   7.077   2.047 -0.2356  0.5206 -0.2419
  156MOL0     C20964   1.968   7.080   2.151 -0.4806  0.2018 -0.4454
  156MOL0     C20965   1.840   7.138   2.099  0.7734  0.2601 -0.5872
  156MOL0     C20966   1.840   7.293   2.053 -0.2031 -0.4375  0.6755
  156MOL0     C20967   1.695   7.338   2.019 -0.0038  0.5788  0.2600
  156MOL0     C20968   1.702   7.479   1.957  1.0004  0.7518  0.2422
  156MOL0     C20969   1.573   7.522   1.904  0.0016  0.8138  0.2077
  156MOL0    Cl20970   1.596   7.688   1.831  0.3877  0.1664  0.1773
  156MOL0     C20971   2.421   6.812   2.136  0.0314  0.0240 -0.0035
  156MOL0     C20972   2.559   6.791   2.150 -0.3037  0.2714  0.5157
  156MOL0     O20973   2.840   6.788   2.014  0.6380 -0.6679  0.4684
  156MOL0     C20974   3.033   6.791   2.316  0.6785  0.0174  0.6821
  156MOL0     C20975   3.146   6.745   2.371 -0.8781 -0.5841 -0.7475
  156MOL0     N20976   3.725   7.039   2.204  0.2552 -1.0838 -0.2813
  156MOL0     N20977   3.834   7.021   2.125  0.5963 -0.2147  0.4481
  156MOL0     C20978   4.584   6.325   1.409 -1.0784  0.6379  0.5839
  156MOL0     C20979   4.633   6.257   1.299  0.4435  0.2128  0.3860
  156MOL0     C20980   4.684   6.068   0.900 -0.2515  0.0152 -0.4866
  156MOL0     C20981   4.683   5.931   0.869  0.8787 -0.1134  0.1021
  156MOL0     C20982   4.736   5.882   0.747 -0.4750  0.2889  0.1440
  156MOL0     C20983   4.806   5.962   0.664  0.1757  0.6741  0.2721
  156MOL0     O20984   4.870   5.920   0.551  0.1638  0.6369  0.0639
  156MOL0     C20985   4.952   5.799   0.556 -0.0572 -0.6840 -0.3797
  156MOL0     C20986   5.075   5.808   0.459  0.4012  0.7755 -0.9283
  156MOL0     C20987   5.020   5.789   0.320  0.5895  0.3288  0.0221
  156MOL0     C20988   5.121   5.794   0.204 -0.2137  0.4483  0.1817
  156MOL0     C20989   5.116   5.666   0.125 -0.3307  0.3266  0.2148
  156MOL0     C20990   5.134   5.575   0.042 -0.8906 -0.1711  0.3548
  156MOL0     C20991   4.815   6.095   0.695  0.2857 -0.0790 -0.7372
  156MOL0     C20992   4.770   6.148   0.813 -0.7460 -0.0610  0.1384
  156MOL0     H20993   4.483   6.438   1.053 -0.1656  1.1579  0.2078
  156MOL0     H20994   4.423   6.584   1.255 -0.1089  0.2871  2.6811
  156MOL0     H20995   4.622   6.601   1.511  0.6799 -0.7916  2.0180
  156MOL0     H20996   4.477   6.705   1.479  2.0822  2.1832  1.3598
  156MOL0     H20997   4.546   6.546   1.724  1.3634 -0.3988 -1.6025
  156MOL0     H20998   4.576   6.718   1.689  1.2193  0.2102 -0.7464
  156MOL0     H20999   4.335   6.743   1.643  0.0843  1.0103  0.9373
  156MOL0     H21000   4.304   6.588   1.734  1.0965 -0.4508  0.9958
  156MOL0     H21001   4.376   6.685   1.937  1.6602  1.7599  2.2109
  156MOL0     H21002   4.466   6.817   1.847  1.2427 -1.7487 -0.3486
  156MOL0     H21003   4.252   6.911   1.795 -2.8663 -0.8251  0.4473
  156MOL0     H21004   4.167   6.777   1.872 -1.1658  0.4488 -0.3278
  156MOL0     H21005   4.297   6.828   2.087  2.4307 -0.0890 -1.1562
  156MOL0     H21006   4.345   6.987   2.024  2.7582 -2.0364 -0.2798
  156MOL0     H21007   4.145   7.043   2.126  1.2187 -1.0609  1.0336
  156MOL0     H21008   4.087   7.020   1.971 -1.0145  0.8817  1.4313
  156MOL0     H21009   4.077   6.805   2.185 -0.9098  0.5995  1.3549
  156MOL0     H21010   3.992   6.798   2.025  2.7712 -4.6432  1.7097
  156MOL0     H21011   3.875   6.790   2.349  2.0910  0.5561 -0.5423
  156MOL0     H21012   3.689   6.933   2.509  1.0367  1.6723 -0.4990
  156MOL0     H21013   3.558   6.987   2.399  1.2460  1.3637 -0.8012
  156MOL0     H21014   3.651   6.701   2.431 -2.0776 -2.5919  1.0138
  156MOL0     H21015   3.537   6.752   2.301  3.1181 -1.3227 -1.4747
  156MOL0     H21016   3.376   6.840   2.480  0.3047  1.1956  2.8158
  156MOL0     H21017   3.489   6.781   2.600  4.7952 -2.8512 -1.4915
  156MOL0     H21018   3.294   6.623   2.561 -0.2667  1.1164 -0.3289
  156MOL0     H21019   3.449   6.558   2.536 -0.3751 -1.9127 -2.8575
  156MOL0     H21020   3.295   6.578   2.117 -0.4774  0.0865  2.0428
  156MOL0     H21021   3.066   6.741   1.905  1.4294  1.4285 -0.1031
  156MOL0     H21022   3.179   6.607   1.920 -0.1325 -0.0875  1.4520
  156MOL0     H21023   2.999   6.579   1.950 -1.4326  1.9313  0.0935
  156MOL0     H21024   2.645   7.057   2.356 -2.4329  0.6754  1.4996
  156MOL0     H21025   2.401   7.058   2.370  2.5886 -1.7927  2.7016
  156MOL0     H21026   2.241   6.933   1.989  4.6826 -2.4443  4.1180
  156MOL0     H21027   2.106   6.858   2.064  1.7753 -1.1273 -4.0438
  156MOL0     H21028   2.146   7.164   2.071  2.7276 -0.5413 -3.3549
  156MOL0     H21029   2.057   7.087   1.941 -2.1993  3.5726  0.4091
  156MOL0     H21030   2.003   7.126   2.244  0.5129 -1.3697  0.0110
  156MOL0     H21031   1.939   6.979   2.183 -2.6906  1.1708  0.8467
  156MOL0     H21032   1.802   7.089   2.009 -0.0973  0.3107 -0.2617
  156MOL0     H21033   1.765   7.124   2.178 -0.1976  0.3488 -1.4722
  156MOL0     H21034   1.916   7.301   1.975  0.1717 -3.7810  0.5792
  156MOL0     H21035   1.872   7.360   2.134 -1.0865 -1.7770  2.1860
  156MOL0     H21036   1.667   7.274   1.935  1.1162 -0.7441  0.8501
  156MOL0     H21037   1.621   7.330   2.099 -1.0176 -4.3100 -0.8469
  156MOL0     H21038   1.768   7.487   1.869 -1.8217  0.8397 -2.0165
  156MOL0     H21039   1.741   7.548   2.032  4.4756 -1.6147  0.8692
  156MOL0     H21040   1.499   7.517   1.984 -0.7079 -2.1729 -0.4909
  156MOL0     H21041   1.533   7.452   1.830 -0.4248  0.5243  0.7067
  156MOL0     H21042   2.360   6.737   2.085  0.0731 -1.7492  2.3574
  156MOL0     H21043   2.594   6.696   2.112 -1.4634 -1.3241  3.1894
  156MOL0     H21044   2.954   6.836   2.374 -0.2101 -1.8739  1.0119
  156MOL0     H21045   3.154   6.769   2.477  0.6768 -1.9422 -0.5238
  156MOL0     H21046   4.598   6.286   1.510 -3.1522  0.4124  0.8368
  156MOL0     H21047   4.707   6.178   1.315 -1.8166 -1.6699  2.1889
  156MOL0     H21048   4.636   5.856   0.932  0.2698  0.6756  0.6048
  156MOL0     H21049   4.738   5.778   0.718  1.4328 -0.2591  1.9692
  156MOL0     H21050   4.975   5.784   0.662 -1.4445 -3.0379 -0.3393
  156MOL0     H21051   4.888   5.713   0.535  0.6538 -0.8384 -2.1103
  156MOL0     H21052   5.148   5.730   0.484 -2.5191 -1.3638  1.7109
  156MOL0     H21053   5.132   5.901   0.462  1.8342 -0.1130  1.1863
  156MOL0     H21054   4.944   5.866   0.308 -1.8232 -1.8808  0.2322
  156MOL0     H21055   4.964   5.696   0.310  1.2100  0.0657 -1.2709
  156MOL0     H21056   5.223   5.820   0.234 -0.9809  2.6411  1.1429
  156MOL0     H21057   5.104   5.870   0.127  1.5442  1.6513  0.9038
  156MOL0     H21058   5.139   5.501  -0.035  4.4573  1.2179 -1.0236
  156MOL0     H21059   4.862   6.154   0.617  0.7340 -2.7687 -2.6554
  156MOL0     H21060   4.790   6.250   0.846 -1.7819 -0.2296  1.3883
  157MOL0     O21061   9.496  11.099   5.801 -0.2798 -0.1814  0.1305
  157MOL0     C21062   9.557  11.159   5.885 -0.2633 -0.2273  0.3911
  157MOL0     O21063   9.497  11.253   5.978  0.6362  0.0345  0.4164
  157MOL0     C21064   9.363  11.276   5.959 -0.1383 -0.3523  1.3924
  157MOL0     C21065   9.276  11.176   5.990  0.1479 -0.5882 -0.9850
  157MOL0     C21066   9.134  11.203   5.964  1.2888  0.2804  0.0253
  157MOL0     C21067   9.084  11.334   5.928 -0.5710 -0.0667  0.3109
  157MOL0     O21068   8.948  11.352   5.932 -0.1440  0.1550  0.2287
  157MOL0     C21069   8.896  11.459   5.842  0.5532 -0.5801  0.4024
  157MOL0     C21070   8.750  11.431   5.818 -0.1957 -0.0741  0.8351
  157MOL0     C21071   8.680  11.522   5.713 -0.3102 -0.0523 -0.5650
  157MOL0     C21072   8.540  11.470   5.708  0.4171  0.2149  0.2523
  157MOL0     C21073   8.462  11.523   5.590  0.3474 -0.5063  0.0584
  157MOL0     C21074   8.318  11.477   5.603  0.5667 -0.5764  0.2954
  157MOL0     C21075   8.244  11.510   5.466  0.3631  0.1137 -0.3109
  157MOL0     C21076   8.290  11.420   5.349 -0.5187 -0.2436  1.0076
  157MOL0     N21077   8.190  11.449   5.250  1.0388  0.4707  0.4084
  157MOL0     C21078   8.058  11.412   5.250  0.2585  0.4562  0.9322
  157MOL0     C21079   7.999  11.479   5.154  0.7212 -0.0865 -0.5523
  157MOL0     C21080   7.853  11.500   5.138  0.7629 -0.5282  1.0141
  157MOL0     C21081   7.804  11.474   4.989  0.6536  0.0791 -0.2167
  157MOL0     C21082   7.803  11.323   4.934  0.2659 -0.5261  0.4831
  157MOL0     C21083   7.702  11.224   4.988  0.7076 -0.1895 -0.8650
  157MOL0     O21084   7.681  11.217   5.129 -1.3221 -0.4504  0.6202
  157MOL0     C21085   7.606  11.113   5.159 -0.3536 -0.6352  0.3281
  157MOL0     C21086   7.469  11.135   5.183  0.0920 -0.7858 -0.3172
  157MOL0     C21087   7.379  11.039   5.210  0.5653 -0.7894  0.1459
  157MOL0     C21088   7.241  11.082   5.227  0.0412 -0.2095  0.6372
  157MOL0     C21089   7.428  10.906   5.222  0.7057 -0.3521  0.3610
  157MOL0     C21090   7.348  10.784   5.253 -0.5570  0.0293 -0.1114
  157MOL0     O21091   7.411  10.671   5.302  0.5254  0.3185  1.0045
  157MOL0     C21092   7.328  10.572   5.353 -0.5429  0.0454 -0.0801
  157MOL0     C21093   7.385  10.445   5.357  0.0730  0.5383 -0.5129
  157MOL0     C21094   7.328  10.329   5.410  0.1422  0.1576 -0.0254
  157MOL0     C21095   7.209  10.339   5.473 -0.7498 -0.4689  0.5371
  157MOL0     O21096   7.146  10.219   5.505 -0.3451 -0.1644 -0.1608
  157MOL0     C21097   7.019  10.215   5.568 -0.6505 -0.3035  0.0629
  157MOL0     C21098   6.986  10.080   5.629 -0.7248 -0.4775 -0.1206
  157MOL0     C21099   6.951   9.970   5.523 -0.1353 -1.2066  0.5694
  157MOL0     C21100   7.062   9.865   5.488 -0.0260 -0.1585  0.1093
  157MOL0     C21101   7.008   9.740   5.415  0.2609 -1.1565  0.8548
  157MOL0     C21102   7.120   9.663   5.337  0.5203 -0.0520 -0.2791
  157MOL0     C21103   7.214   9.588   5.424 -0.7141  0.2236 -0.8106
  157MOL0     C21104   7.335   9.525   5.349 -1.1844  0.0853  0.1562
  157MOL0    Cl21105   7.278   9.370   5.272 -0.8535  0.2014 -0.2845
  157MOL0     C21106   7.145  10.463   5.483  0.2399  0.5701 -0.3952
  157MOL0     C21107   7.205  10.577   5.424  0.4612  0.6048  0.6368
  157MOL0     O21108   7.224  10.791   5.229  0.4433 -0.1572 -1.1641
  157MOL0     C21109   7.565  10.886   5.201 -0.0613 -0.5388  0.8406
  157MOL0     C21110   7.656  10.987   5.163  0.4011  0.1384  0.4055
  157MOL0     N21111   8.090  11.564   5.101  0.2389 -0.1652 -0.0911
  157MOL0     N21112   8.201  11.543   5.153 -0.0077  0.1477 -0.1526
  157MOL0     C21113   9.191  11.431   5.890  0.6693 -0.1218 -0.1711
  157MOL0     C21114   9.320  11.405   5.910 -0.1740  0.5521 -0.5634
  157MOL0     C21115   9.698  11.116   5.919 -0.6511  0.0340 -1.0434
  157MOL0     C21116   9.757  11.130   6.046  0.0725  0.5500  0.5869
  157MOL0     C21117   9.890  11.101   6.068  0.1638  0.9213  0.2020
  157MOL0     C21118   9.966  11.036   5.964 -0.1547  0.1223 -1.0194
  157MOL0     O21119  10.097  11.003   6.012 -0.6188 -0.7546  0.1407
  157MOL0     C21120  10.180  10.919   5.924  0.2199 -0.1810 -0.5820
  157MOL0     C21121  10.323  10.947   5.974  0.4900  0.1747 -0.2175
  157MOL0     C21122  10.422  10.871   5.894 -0.0827 -0.2153 -0.4590
  157MOL0     C21123  10.561  10.922   5.937  0.1732 -0.1725  0.2869
  157MOL0     C21124  10.661  10.898   5.834  0.7077 -0.5744  0.0206
  157MOL0     C21125  10.739  10.863   5.750 -0.0863  0.1663 -0.4825
  157MOL0     C21126   9.905  10.998   5.843  0.0582  0.2028 -0.8156
  157MOL0     C21127   9.772  11.049   5.819 -0.0902 -0.6760  0.0047
  157MOL0     H21128   9.311  11.084   6.035 -2.1665 -0.7278  0.7452
  157MOL0     H21129   9.071  11.117   5.987  2.3600 -0.5504 -0.0766
  157MOL0     H21130   8.900  11.553   5.896  0.8194 -0.2280 -0.2243
  157MOL0     H21131   8.953  11.456   5.748  1.4335 -0.7871  0.9318
  157MOL0     H21132   8.759  11.331   5.776 -1.4293  0.3475 -0.5295
  157MOL0     H21133   8.689  11.441   5.908 -0.5128  1.5641  0.4707
  157MOL0     H21134   8.685  11.624   5.752  3.0285 -0.6285  0.8814
  157MOL0     H21135   8.719  11.516   5.612 -0.2008 -1.0095 -0.4707
  157MOL0     H21136   8.542  11.361   5.705  0.7649  0.2097  0.5090
  157MOL0     H21137   8.488  11.499   5.800  2.5255 -1.2995  2.0580
  157MOL0     H21138   8.458  11.632   5.580 -1.8482 -0.6548 -1.2295
  157MOL0     H21139   8.508  11.480   5.500 -2.2133 -1.5284 -0.8757
  157MOL0     H21140   8.321  11.369   5.620 -3.5835 -0.7092  1.3550
  157MOL0     H21141   8.276  11.530   5.689  2.0816 -1.3119  1.5408
  157MOL0     H21142   8.137  11.507   5.485  0.8857 -0.6666  3.4795
  157MOL0     H21143   8.265  11.617   5.454  1.3314  0.1036  0.9827
  157MOL0     H21144   8.295  11.315   5.379 -1.8239 -0.9911 -1.1423
  157MOL0     H21145   8.389  11.445   5.311 -0.1336 -1.5612  1.1222
  157MOL0     H21146   8.016  11.334   5.312  2.2316 -2.1688 -0.8151
  157MOL0     H21147   7.806  11.423   5.200  0.3163 -0.5308  0.6751
  157MOL0     H21148   7.815  11.602   5.154  1.8754  0.1641 -0.4729
  157MOL0     H21149   7.857  11.542   4.921  2.1868 -2.2500 -1.4717
  157MOL0     H21150   7.697  11.495   4.990 -0.2381 -3.7647  0.0846
  157MOL0     H21151   7.908  11.292   4.939  1.4094  2.4758 -1.9581
  157MOL0     H21152   7.778  11.339   4.829  2.7534  0.9671  0.0278
  157MOL0     H21153   7.717  11.125   4.943  1.9541 -0.1547 -0.5518
  157MOL0     H21154   7.606  11.264   4.953 -2.7104 -3.5566  3.4416
  157MOL0     H21155   7.434  11.235   5.158  2.1685  0.1504  0.3045
  157MOL0     H21156   7.234  11.168   5.160  0.3476  1.0095  2.1169
  157MOL0     H21157   7.162  11.014   5.192 -0.4902  1.1527 -0.9380
  157MOL0     H21158   7.224  11.098   5.334  2.8612  0.1629  1.0931
  157MOL0     H21159   7.484  10.437   5.314 -0.3727 -0.9735 -1.3234
  157MOL0     H21160   7.368  10.228   5.401 -2.3136 -0.6565 -4.0028
  157MOL0     H21161   7.015  10.293   5.645 -0.6199  0.8468 -1.0528
  157MOL0     H21162   6.945  10.239   5.491 -0.7458  0.6298  0.4249
  157MOL0     H21163   7.070  10.048   5.690  0.5948  0.6259 -1.3097
  157MOL0     H21164   6.892  10.089   5.685 -1.5448  1.5582 -1.7196
  157MOL0     H21165   6.926  10.022   5.430  1.1360 -0.4617  0.6283
  157MOL0     H21166   6.859   9.923   5.560  0.8701 -1.9096  2.2646
  157MOL0     H21167   7.119   9.928   5.418 -2.4816  1.2143 -0.8025
  157MOL0     H21168   7.116   9.824   5.573 -1.6164 -1.3964  0.5560
  157MOL0     H21169   6.953   9.781   5.331  0.3920  2.6689  2.4398
  157MOL0     H21170   6.944   9.674   5.474  0.8128 -3.1320 -0.6383
  157MOL0     H21171   7.074   9.596   5.263  1.6956 -0.6201 -0.5229
  157MOL0     H21172   7.187   9.736   5.291  1.0885  0.0739  0.7294
  157MOL0     H21173   7.163   9.512   5.484  2.1313 -0.8739  0.4080
  157MOL0     H21174   7.260   9.651   5.500 -1.4933 -1.9704  1.5923
  157MOL0     H21175   7.410   9.501   5.425 -1.4461  1.1876  0.7751
  157MOL0     H21176   7.385   9.598   5.285  0.3822  0.5996  1.8815
  157MOL0     H21177   7.051  10.478   5.536  0.9395  1.1139  0.7131
  157MOL0     H21178   7.155  10.672   5.416  0.5629  0.5146 -2.5083
  157MOL0     H21179   7.604  10.784   5.203 -1.4069 -1.0637  1.0386
  157MOL0     H21180   7.757  10.967   5.129  1.5421  3.0814  1.7359
  157MOL0     H21181   9.166  11.536   5.875 -0.5832  0.1535  2.9956
  157MOL0     H21182   9.387  11.488   5.892 -1.1281  0.7537 -3.7600
  157MOL0     H21183   9.693  11.174   6.122  1.0812  2.1910  0.5349
  157MOL0     H21184   9.927  11.108   6.170  2.5994  3.4202 -0.7283
  157MOL0     H21185  10.165  10.813   5.949 -0.3939  0.5597  2.7357
  157MOL0     H21186  10.168  10.946   5.819  1.0554 -0.8635 -0.8717
  157MOL0     H21187  10.337  10.905   6.074 -0.4209  1.2929  0.4077
  157MOL0     H21188  10.347  11.054   5.972  2.5546 -0.0955  3.0330
  157MOL0     H21189  10.405  10.908   5.792  0.9022  0.6082 -0.3430
  157MOL0     H21190  10.411  10.763   5.904 -0.3002 -0.2361 -0.9113
  157MOL0     H21191  10.589  10.869   6.029 -0.1861  2.1796  1.8444
  157MOL0     H21192  10.557  11.030   5.951 -0.0321 -0.1427  0.0134
  157MOL0     H21193  10.812  10.826   5.681  0.7028  2.1963 -0.8190
  157MOL0     H21194   9.958  10.956   5.759  1.1850 -1.8411  0.8329
  157MOL0     H21195   9.726  11.035   5.722 -2.3756 -3.2211  1.3349
  158MOL0     O21196   0.837   3.810   1.581 -0.4574 -0.2778 -0.4467
  158MOL0     C21197   0.865   3.733   1.675  0.0294  0.0161 -0.0143
  158MOL0     O21198   0.982   3.665   1.693  0.3619  0.8083  0.1639
  158MOL0     C21199   1.082   3.673   1.597 -0.4862 -0.0155 -0.0427
  158MOL0     C21200   1.141   3.790   1.553  0.4262 -0.7711  0.7802
  158MOL0     C21201   1.263   3.789   1.477 -0.7752  0.5184  0.2870
  158MOL0     C21202   1.318   3.668   1.443  0.5597  0.0188  0.2873
  158MOL0     O21203   1.425   3.670   1.358  0.1238 -0.6416 -0.5715
  158MOL0     C21204   1.518   3.559   1.363 -0.9433 -0.3726 -1.4859
  158MOL0     C21205   1.576   3.548   1.505  0.2925 -0.1751  0.9774
  158MOL0     C21206   1.646   3.673   1.559 -0.4957  0.2477 -0.9954
  158MOL0     C21207   1.711   3.644   1.698 -0.1108 -0.8769  0.0303
  158MOL0     C21208   1.612   3.608   1.806  0.2028 -0.4648 -0.0940
  158MOL0     C21209   1.518   3.725   1.843  0.1868  0.7743  0.3439
  158MOL0     C21210   1.415   3.674   1.945  0.1267 -0.5255 -0.2073
  158MOL0     C21211   1.280   3.655   1.874  0.0152  0.3915 -0.7135
  158MOL0     N21212   1.195   3.566   1.955  0.0760 -0.4451  0.1510
  158MOL0     C21213   1.166   3.434   1.927 -0.1899  0.0563  0.7529
  158MOL0     C21214   1.070   3.391   2.012  0.0745 -0.0642 -0.1093
  158MOL0     C21215   1.010   3.265   2.040 -0.4392 -0.5415 -0.2603
  158MOL0     C21216   1.072   3.210   2.173  0.0775 -0.5155 -0.5592
  158MOL0     C21217   1.217   3.170   2.152 -0.8079  0.2377 -0.3293
  158MOL0     C21218   1.242   3.049   2.053  0.1981  0.5246 -1.0708
  158MOL0     O21219   1.184   2.928   2.111  0.2038 -0.3821 -0.2526
  158MOL0     C21220   1.238   2.812   2.067  0.3048 -0.5457 -0.3791
  158MOL0     C21221   1.321   2.811   1.951 -0.4493 -0.4947  0.7394
  158MOL0     C21222   1.382   2.690   1.905 -0.7616  0.0186  0.5278
  158MOL0     C21223   1.465   2.702   1.783 -0.3884  0.3126 -0.3676
  158MOL0     C21224   1.357   2.577   1.980 -0.2199 -0.9269  0.1179
  158MOL0     C21225   1.424   2.452   1.956 -0.7147 -0.1199  0.9752
  158MOL0     O21226   1.349   2.349   1.926  0.7522  0.5991 -0.3018
  158MOL0     C21227   1.412   2.233   1.928 -0.8428  0.6579  2.1231
  158MOL0     C21228   1.391   2.151   2.035 -0.1457 -0.2283 -0.0515
  158MOL0     C21229   1.443   2.022   2.040  0.3579 -0.1555  0.2549
  158MOL0     C21230   1.528   1.969   1.942  0.1582 -0.3229 -0.3689
  158MOL0     O21231   1.574   1.838   1.945  0.1093 -0.5412  0.3543
  158MOL0     C21232   1.530   1.757   1.837 -0.8288  0.7959  0.4359
  158MOL0     C21233   1.383   1.784   1.784 -0.9143 -0.2265 -0.0808
  158MOL0     C21234   1.345   1.693   1.678  0.6706  0.4080  0.3447
  158MOL0     C21235   1.430   1.700   1.548 -0.0832  0.2397  0.1230
  158MOL0     C21236   1.380   1.589   1.451 -0.1379  0.2474  0.5668
  158MOL0     C21237   1.472   1.574   1.327 -0.3137  0.6395  0.4581
  158MOL0     C21238   1.430   1.471   1.221  0.7390 -0.7054  0.3216
  158MOL0     C21239   1.532   1.371   1.197 -0.4537 -0.0445 -0.7792
  158MOL0    Cl21240   1.671   1.452   1.102  0.5972  0.0071  0.2785
  158MOL0     C21241   1.546   2.056   1.830 -0.7435  0.6781  0.6073
  158MOL0     C21242   1.499   2.189   1.824 -0.1398 -0.2296  0.3275
  158MOL0     O21243   1.551   2.449   1.939  0.4666  0.1311  0.2998
  158MOL0     C21244   1.264   2.579   2.087  0.1200  0.5313 -0.3725
  158MOL0     C21245   1.210   2.695   2.132 -0.1056 -0.0932  0.1055
  158MOL0     N21246   1.041   3.503   2.088 -0.3902 -0.1650 -0.6579
  158MOL0     N21247   1.126   3.600   2.063  0.7363  0.3748 -0.1791
  158MOL0     C21248   1.251   3.543   1.476  0.7555  0.1383  0.1990
  158MOL0     C21249   1.141   3.546   1.559 -0.2621 -0.4197 -1.3608
  158MOL0     C21250   0.763   3.719   1.782  1.0983  0.2846  0.5620
  158MOL0     C21251   0.787   3.641   1.896  0.4071  0.0898  0.0647
  158MOL0     C21252   0.694   3.640   1.996 -0.9884 -0.4722 -0.0274
  158MOL0     C21253   0.572   3.699   1.994  0.2177 -0.8541  0.0666
  158MOL0     O21254   0.482   3.707   2.093 -0.3370 -0.5874 -0.8119
  158MOL0     C21255   0.515   3.671   2.227  0.2716  0.5135 -0.2359
  158MOL0     C21256   0.390   3.685   2.311  0.1268  0.0407 -0.5917
  158MOL0     C21257   0.415   3.630   2.452 -1.0518 -0.2625  0.4114
  158MOL0     C21258   0.311   3.653   2.556 -0.0835  0.4915  0.2769
  158MOL0     C21259   0.362   3.579   2.672  0.0414 -0.6673 -0.1167
  158MOL0     C21260   0.388   3.499   2.765  0.1759  0.7253 -0.0827
  158MOL0     C21261   0.533   3.767   1.874  0.0786 -0.5852  0.6725
  158MOL0     C21262   0.630   3.776   1.770 -0.1188  0.1083 -0.6984
  158MOL0     H21263   1.100   3.884   1.590 -0.5876 -0.5949 -0.7081
  158MOL0     H21264   1.314   3.877   1.439 -0.1150  0.6248  1.3943
  158MOL0     H21265   1.464   3.466   1.341  0.2234 -1.7143  0.9380
  158MOL0     H21266   1.590   3.574   1.281 -0.8706  0.1124 -1.3328
  158MOL0     H21267   1.493   3.526   1.572 -1.5881 -0.0751 -1.2199
  158MOL0     H21268   1.638   3.457   1.504  0.2433 -0.2112  1.1430
  158MOL0     H21269   1.728   3.682   1.488  0.5318 -1.2396 -0.0675
  158MOL0     H21270   1.588   3.765   1.557  2.3990  2.6162  4.0540
  158MOL0     H21271   1.790   3.574   1.670  0.9775  1.7189 -4.2883
  158MOL0     H21272   1.758   3.738   1.730 -1.7036  0.4735 -1.3706
  158MOL0     H21273   1.551   3.522   1.775  0.6321 -0.5976 -0.6006
  158MOL0     H21274   1.668   3.576   1.894  0.6413  1.1736  0.2398
  158MOL0     H21275   1.590   3.798   1.882  2.1413  0.5413 -2.5211
  158MOL0     H21276   1.467   3.772   1.758 -3.2391 -1.1792  1.1441
  158MOL0     H21277   1.459   3.585   1.992  2.8438  0.9180  0.2209
  158MOL0     H21278   1.415   3.767   2.003  1.6671  0.5907 -1.8797
  158MOL0     H21279   1.301   3.600   1.782 -1.1092 -1.5889  0.1476
  158MOL0     H21280   1.226   3.749   1.858 -0.0220  0.4753 -0.1218
  158MOL0     H21281   1.212   3.367   1.854  1.2701  0.6612  1.0761
  158MOL0     H21282   0.904   3.280   2.061 -0.2627 -1.0069  1.0604
  158MOL0     H21283   1.037   3.198   1.957  3.5723  0.0667  0.3494
  158MOL0     H21284   1.011   3.129   2.214 -0.8351 -0.6077 -2.0162
  158MOL0     H21285   1.070   3.293   2.244  2.7195 -1.0908  0.3087
  158MOL0     H21286   1.258   3.143   2.249  0.9223  1.9515 -0.5047
  158MOL0     H21287   1.280   3.254   2.120  0.9399 -1.2252 -0.9019
  158MOL0     H21288   1.351   3.036   2.055  0.0336 -2.1861  3.1000
  158MOL0     H21289   1.203   3.068   1.953  2.7418 -1.2846 -2.5033
  158MOL0     H21290   1.347   2.897   1.890  0.1949 -1.1760  0.0317
  158MOL0     H21291   1.487   2.608   1.732  0.6097  0.8189 -0.8836
  158MOL0     H21292   1.422   2.766   1.706 -0.1982  1.2921  0.3071
  158MOL0     H21293   1.559   2.736   1.827 -0.4672  0.0099  0.0449
  158MOL0     H21294   1.328   2.186   2.116  0.2299 -2.0807  1.0999
  158MOL0     H21295   1.429   1.959   2.127  3.4747 -0.0797  0.9412
  158MOL0     H21296   1.601   1.772   1.756 -0.6112  2.3786  0.8844
  158MOL0     H21297   1.540   1.650   1.861 -1.3993  0.3410 -1.2392
  158MOL0     H21298   1.309   1.761   1.862  1.2232  1.9858  2.8564
  158MOL0     H21299   1.364   1.881   1.739 -3.7472 -0.5009  0.3459
  158MOL0     H21300   1.243   1.722   1.652  0.7501 -0.3730 -0.9339
  158MOL0     H21301   1.343   1.592   1.719  0.0351 -0.1577 -1.0407
  158MOL0     H21302   1.428   1.805   1.516  2.2860  1.0826  2.3649
  158MOL0     H21303   1.533   1.679   1.579  0.2116 -0.6646 -1.3730
  158MOL0     H21304   1.277   1.601   1.417  0.6588  1.8664 -1.4861
  158MOL0     H21305   1.380   1.496   1.510 -0.9563 -1.6802 -2.2810
  158MOL0     H21306   1.479   1.671   1.276 -0.7157 -0.3365 -1.5871
  158MOL0     H21307   1.576   1.554   1.354  0.7579  1.1064 -2.8424
  158MOL0     H21308   1.397   1.523   1.131  0.2530 -0.1411  0.8216
  158MOL0     H21309   1.344   1.414   1.259  0.9373 -1.3824 -0.2343
  158MOL0     H21310   1.496   1.281   1.145  1.9873 -0.2695 -2.2186
  158MOL0     H21311   1.578   1.357   1.295 -0.5242 -0.4366 -0.8013
  158MOL0     H21312   1.607   2.027   1.744 -1.1232  1.6587 -0.0009
  158MOL0     H21313   1.531   2.261   1.749 -1.9231  2.6939  2.1642
  158MOL0     H21314   1.234   2.489   2.140  0.6506 -0.3556 -1.5094
  158MOL0     H21315   1.140   2.694   2.216 -0.7764 -0.7298 -0.4469
  158MOL0     H21316   1.281   3.444   1.445  0.8700 -0.1051  1.0643
  158MOL0     H21317   1.096   3.453   1.590 -1.4794  0.2674 -0.9911
  158MOL0     H21318   0.879   3.583   1.907 -1.0205 -2.5917 -1.1991
  158MOL0     H21319   0.733   3.583   2.080 -0.4660  1.6939  1.2655
  158MOL0     H21320   0.543   3.565   2.236 -1.6114 -0.4118 -3.6461
  158MOL0     H21321   0.597   3.728   2.273  0.3377  1.6968 -1.7684
  158MOL0     H21322   0.301   3.643   2.265 -1.0751  2.2770 -0.4741
  158MOL0     H21323   0.378   3.794   2.319  1.5792  0.2086 -0.4105
  158MOL0     H21324   0.511   3.665   2.491  0.5729 -1.2725 -2.4406
  158MOL0     H21325   0.428   3.523   2.435  0.5206  0.0616 -0.5396
  158MOL0     H21326   0.221   3.602   2.521  2.0924 -1.6876 -2.5986
  158MOL0     H21327   0.281   3.758   2.561 -0.7140  0.5834 -3.2181
  158MOL0     H21328   0.439   3.442   2.840  2.4719 -1.0931 -2.8015
  158MOL0     H21329   0.436   3.815   1.863  2.5437  4.9065 -0.2232
  158MOL0     H21330   0.606   3.825   1.675  0.2962  2.0388  0.1371
  159MOL0     O21331   7.338   9.252   7.728 -0.2346 -1.2775  0.4276
  159MOL0     C21332   7.448   9.298   7.708 -0.2426 -0.1047  0.3219
  159MOL0     O21333   7.552   9.237   7.653  0.8475  0.1892  0.3337
  159MOL0     C21334   7.545   9.095   7.646 -0.3688 -0.1615  0.4900
  159MOL0     C21335   7.448   9.013   7.587 -0.1314 -0.3654 -0.4914
  159MOL0     C21336   7.468   8.877   7.559 -0.1074  0.1866 -1.0038
  159MOL0     C21337   7.590   8.821   7.595 -0.3809 -0.1930  0.0347
  159MOL0     O21338   7.625   8.697   7.551  0.4448  0.5102 -0.1733
  159MOL0     C21339   7.581   8.589   7.630  0.7252 -0.3954 -0.6261
  159MOL0     C21340   7.539   8.474   7.547  0.2820  0.2701 -0.3731
  159MOL0     C21341   7.393   8.496   7.489  0.8026 -0.2591 -0.3880
  159MOL0     C21342   7.330   8.379   7.415 -0.0129  0.3565  0.5177
  159MOL0     C21343   7.396   8.363   7.275  0.5620 -0.2445  0.6545
  159MOL0     C21344   7.398   8.220   7.231 -0.4351  0.4088  0.1856
  159MOL0     C21345   7.471   8.193   7.098  0.7739 -0.6036 -0.7733
  159MOL0     C21346   7.481   8.048   7.047  0.5837 -0.3067 -0.8948
  159MOL0     N21347   7.350   7.976   7.045  0.0084  0.8474 -0.6132
  159MOL0     C21348   7.243   8.001   6.961 -0.2887  0.6990 -0.3996
  159MOL0     C21349   7.134   7.934   7.008 -0.1385  0.1324 -0.0683
  159MOL0     C21350   6.993   7.941   6.952  0.2589 -1.2877 -0.1584
  159MOL0     C21351   6.890   7.961   7.062  0.0806  0.0804 -0.2526
  159MOL0     C21352   6.922   8.083   7.147  0.0959 -1.0131 -0.6516
  159MOL0     C21353   6.975   8.216   7.070  1.2025  1.1000 -0.7511
  159MOL0     O21354   6.963   8.315   7.169  0.6237 -0.0577  0.0895
  159MOL0     C21355   7.032   8.427   7.135  0.4222 -0.1211  0.1149
  159MOL0     C21356   7.033   8.532   7.230 -0.2748  0.4768 -0.0825
  159MOL0     C21357   7.094   8.656   7.201  0.0887 -0.2874 -0.7719
  159MOL0     C21358   7.096   8.783   7.301 -0.1958  0.4681 -0.3672
  159MOL0     C21359   7.150   8.672   7.070 -0.6941 -0.8185 -0.0020
  159MOL0     C21360   7.222   8.792   7.026  0.6827 -1.1121 -0.8045
  159MOL0     O21361   7.325   8.837   7.104  0.0687  0.6028  0.1219
  159MOL0     C21362   7.350   8.968   7.140 -0.4442  0.8183 -1.2575
  159MOL0     C21363   7.447   8.995   7.242 -0.3882 -0.1362 -0.7233
  159MOL0     C21364   7.481   9.120   7.274 -0.1233  0.7760  0.4161
  159MOL0     C21365   7.421   9.228   7.205  0.3334 -0.6816 -0.4486
  159MOL0     O21366   7.446   9.365   7.229  0.1949 -0.0707  0.6812
  159MOL0     C21367   7.587   9.395   7.266 -0.3477 -0.2181  0.2816
  159MOL0     C21368   7.615   9.546   7.245  0.4231 -0.1839 -0.7540
  159MOL0     C21369   7.500   9.633   7.310  0.1361 -1.1255 -0.7709
  159MOL0     C21370   7.539   9.779   7.359  0.2809  0.2605  0.8661
  159MOL0     C21371   7.590   9.863   7.237 -0.5815  1.0049 -0.4683
  159MOL0     C21372   7.746   9.871   7.240  0.5664 -0.4079  1.0146
  159MOL0     C21373   7.820   9.922   7.362  0.2532 -0.0776 -0.2468
  159MOL0     C21374   7.794  10.059   7.374  0.1715  0.2902  0.7308
  159MOL0    Cl21375   7.653  10.117   7.460  0.1898 -0.4945 -0.1521
  159MOL0     C21376   7.322   9.209   7.110 -0.0612  0.4431  0.3718
  159MOL0     C21377   7.287   9.076   7.084  0.7644  0.4281  0.8189
  159MOL0     O21378   7.195   8.844   6.917  0.7343 -0.6466 -0.4349
  159MOL0     C21379   7.141   8.581   6.979 -0.4092  0.7818  0.3188
  159MOL0     C21380   7.090   8.452   7.007  0.8387  0.1694 -0.4245
  159MOL0     N21381   7.183   7.855   7.113 -0.4139  0.1242 -0.0023
  159MOL0     N21382   7.303   7.886   7.132 -0.0434 -0.4706  0.4151
  159MOL0     C21383   7.686   8.897   7.679  0.2729  0.2769 -0.2275
  159MOL0     C21384   7.659   9.032   7.701 -0.3142 -0.3351 -0.9929
  159MOL0     C21385   7.473   9.441   7.731  0.3421  0.4381 -0.1793
  159MOL0     C21386   7.590   9.494   7.764 -0.6639 -0.1236  0.2311
  159MOL0     C21387   7.606   9.624   7.816 -0.1893  0.5257 -0.0329
  159MOL0     C21388   7.503   9.711   7.813  0.5461 -0.1386  0.2787
  159MOL0     O21389   7.518   9.836   7.862  0.1439 -0.6384 -0.4584
  159MOL0     C21390   7.518   9.936   7.757  0.1262  0.3081 -0.2686
  159MOL0     C21391   7.382  10.000   7.729  0.8009 -0.0556  0.3946
  159MOL0     C21392   7.336  10.080   7.849 -0.0403 -0.1148 -0.9810
  159MOL0     C21393   7.202  10.157   7.824 -0.6837  0.8426 -0.1550
  159MOL0     C21394   7.211  10.249   7.706  0.5396  0.9629 -0.4985
  159MOL0     C21395   7.205  10.318   7.613  0.6552 -0.3287 -0.7008
  159MOL0     C21396   7.383   9.666   7.773 -0.6642  0.4026 -0.3468
  159MOL0     C21397   7.370   9.531   7.741 -0.7325 -0.1703  0.1757
  159MOL0     H21398   7.356   9.052   7.546 -0.9695 -0.5407  1.1127
  159MOL0     H21399   7.402   8.812   7.503  1.0668 -1.3991 -0.6095
  159MOL0     H21400   7.651   8.576   7.713  0.1116 -2.5507 -0.3889
  159MOL0     H21401   7.489   8.618   7.681  1.8618  0.3382  1.0947
  159MOL0     H21402   7.615   8.449   7.472  2.6675  0.9147  1.7045
  159MOL0     H21403   7.539   8.379   7.602 -0.7399 -0.1449 -1.0539
  159MOL0     H21404   7.337   8.526   7.578  1.1288  2.4662 -0.9921
  159MOL0     H21405   7.385   8.589   7.431 -3.2011  0.0034  0.3468
  159MOL0     H21406   7.333   8.287   7.474  0.0320 -1.2979 -1.9304
  159MOL0     H21407   7.224   8.400   7.400  0.1731 -0.0462 -1.6902
  159MOL0     H21408   7.342   8.414   7.195  1.4955 -3.4327 -2.2357
  159MOL0     H21409   7.495   8.409   7.271  0.1009  0.8144  1.0600
  159MOL0     H21410   7.434   8.145   7.302  0.4641 -1.3456 -2.0337
  159MOL0     H21411   7.293   8.193   7.221 -0.3911  0.4438 -0.3661
  159MOL0     H21412   7.410   8.240   7.021  0.6864 -3.9062 -2.9391
  159MOL0     H21413   7.573   8.230   7.107  1.0852 -1.8906  3.6169
  159MOL0     H21414   7.551   7.988   7.106 -0.8524 -0.2416  0.9798
  159MOL0     H21415   7.523   8.063   6.947  1.4176  3.0887 -0.1742
  159MOL0     H21416   7.219   8.081   6.893 -0.4652  1.2791  0.3285
  159MOL0     H21417   6.980   8.017   6.875  0.6550 -1.8084 -0.7421
  159MOL0     H21418   6.961   7.852   6.898 -0.4208 -1.2792  0.2120
  159MOL0     H21419   6.898   7.874   7.128  2.1520  0.5021  0.1329
  159MOL0     H21420   6.791   7.975   7.018 -0.0033 -0.8146 -0.3655
  159MOL0     H21421   6.985   8.048   7.229 -3.2329 -2.8942  1.2991
  159MOL0     H21422   6.838   8.116   7.208  0.7785 -0.6934  0.1294
  159MOL0     H21423   6.915   8.228   6.980 -1.4953  0.4167  0.8495
  159MOL0     H21424   7.078   8.183   7.052  1.3010 -0.3078  1.9133
  159MOL0     H21425   6.992   8.516   7.329 -0.3434 -0.0866 -0.1990
  159MOL0     H21426   7.163   8.749   7.380  0.6173  0.3969 -1.0774
  159MOL0     H21427   7.140   8.872   7.255 -1.0050  0.7675 -0.5863
  159MOL0     H21428   6.999   8.802   7.348  0.2811  2.8328 -0.2075
  159MOL0     H21429   7.518   8.928   7.291  0.4075  0.8012 -0.5565
  159MOL0     H21430   7.550   9.142   7.356 -0.0015  1.3752  0.1603
  159MOL0     H21431   7.609   9.367   7.369  1.6949 -1.9309 -0.5363
  159MOL0     H21432   7.651   9.334   7.201  0.2754 -0.3158  0.9725
  159MOL0     H21433   7.712   9.565   7.290  1.0495 -2.0200 -1.2400
  159MOL0     H21434   7.624   9.576   7.140  1.9907  0.8699 -0.3425
  159MOL0     H21435   7.450   9.577   7.389  0.0809 -1.2408 -0.8866
  159MOL0     H21436   7.417   9.649   7.239 -0.1023  2.5593  0.1084
  159MOL0     H21437   7.451   9.833   7.395  3.0440  4.3029  2.1758
  159MOL0     H21438   7.608   9.768   7.443  1.8240 -3.5089 -0.6523
  159MOL0     H21439   7.543   9.962   7.238 -3.8474 -0.3892 -0.8918
  159MOL0     H21440   7.554   9.815   7.146  1.4953 -1.2628 -0.1730
  159MOL0     H21441   7.781   9.769   7.224 -2.0840 -0.9713 -2.6351
  159MOL0     H21442   7.779   9.932   7.155 -0.8476 -1.1571 -0.1311
  159MOL0     H21443   7.928   9.910   7.349  0.1441 -0.1393 -1.1731
  159MOL0     H21444   7.791   9.867   7.452  1.8764 -1.1580 -0.3507
  159MOL0     H21445   7.794  10.103   7.274  0.3302 -1.4335 -0.0469
  159MOL0     H21446   7.884  10.095   7.426  1.0563 -1.9363  0.8535
  159MOL0     H21447   7.274   9.296   7.066 -0.7908  0.7962  1.7812
  159MOL0     H21448   7.222   9.063   6.998  0.4033 -1.4110  1.3200
  159MOL0     H21449   7.153   8.610   6.875 -0.3245  0.7331  0.3150
  159MOL0     H21450   7.089   8.374   6.931  1.2823 -0.1101 -0.1453
  159MOL0     H21451   7.773   8.848   7.719 -1.3217 -2.7369 -0.1730
  159MOL0     H21452   7.734   9.085   7.759  0.5503  1.2830 -3.4635
  159MOL0     H21453   7.674   9.425   7.765  1.1332  1.8691 -1.8860
  159MOL0     H21454   7.700   9.672   7.841  0.0419 -1.5891  3.9521
  159MOL0     H21455   7.581  10.020   7.788  0.3119  0.4871 -1.1044
  159MOL0     H21456   7.559   9.898   7.663  2.1622 -2.2480  1.5165
  159MOL0     H21457   7.307   9.927   7.696  1.1450  0.6065 -2.0656
  159MOL0     H21458   7.379  10.077   7.651  0.8797  0.8201  1.2267
  159MOL0     H21459   7.408  10.155   7.886 -2.2174  1.8111 -0.4179
  159MOL0     H21460   7.307  10.013   7.930  3.9214 -0.7318  0.1483
  159MOL0     H21461   7.173  10.207   7.917 -0.5978 -0.2340  0.4772
  159MOL0     H21462   7.117  10.089   7.813  0.4650 -0.9171  1.2238
  159MOL0     H21463   7.207  10.379   7.525  1.8132  2.7987  1.3213
  159MOL0     H21464   7.290   9.721   7.783  0.5760  2.3943  0.8296
  159MOL0     H21465   7.269   9.495   7.720 -1.6881  1.2320  2.1127
  160MOL0     O21466   2.539   6.556   5.841  0.3915 -0.1561  0.8281
  160MOL0     C21467   2.646   6.597   5.888  0.1871  0.3031  0.1560
  160MOL0     O21468   2.743   6.667   5.824 -0.1981  0.0762 -0.5407
  160MOL0     C21469   2.734   6.693   5.688  0.5113  0.4949 -0.7631
  160MOL0     C21470   2.822   6.799   5.656  0.5103  0.4046  0.6915
  160MOL0     C21471   2.833   6.834   5.518 -0.3238 -0.4527 -0.8035
  160MOL0     C21472   2.769   6.771   5.416  0.5024 -0.0303  0.3547
  160MOL0     O21473   2.805   6.814   5.294  0.0025 -1.3092  0.5911
  160MOL0     C21474   2.776   6.725   5.190 -0.2567 -1.3366  0.5981
  160MOL0     C21475   2.889   6.756   5.087 -0.8314 -0.0485  0.1845
  160MOL0     C21476   2.886   6.876   5.001  0.9924 -0.0922 -0.0920
  160MOL0     C21477   3.014   6.884   4.913  0.3561 -0.5185  0.7826
  160MOL0     C21478   2.976   6.965   4.795 -0.2239  0.6472 -0.0064
  160MOL0     C21479   3.087   6.936   4.689 -0.3918 -0.1781 -0.3611
  160MOL0     C21480   3.079   7.018   4.565  0.0794  0.3101 -0.2310
  160MOL0     C21481   3.007   6.939   4.453  1.7036 -0.5858 -0.7990
  160MOL0     N21482   2.864   6.918   4.486  0.5622  0.4049  0.8460
  160MOL0     C21483   2.778   7.023   4.472  1.0767  0.0980 -0.0503
  160MOL0     C21484   2.654   6.980   4.509 -0.1951 -0.7970  0.5561
  160MOL0     C21485   2.529   7.073   4.512  0.7823 -1.5215 -0.3153
  160MOL0     C21486   2.517   7.170   4.633 -0.6993  0.0451  0.4500
  160MOL0     C21487   2.395   7.272   4.621 -1.4369  0.2679  0.2687
  160MOL0     C21488   2.363   7.336   4.757 -0.4823 -0.0990  0.1740
  160MOL0     O21489   2.236   7.404   4.740 -0.3287 -0.4283  0.0333
  160MOL0     C21490   2.214   7.499   4.636  0.7953  0.0115 -0.4920
  160MOL0     C21491   2.299   7.608   4.613  0.9530 -0.2239  0.1427
  160MOL0     C21492   2.281   7.694   4.498 -0.4155 -0.6492 -0.4632
  160MOL0     C21493   2.397   7.795   4.473 -0.7331 -0.2389 -0.1869
  160MOL0     C21494   2.167   7.683   4.417 -0.5403  0.1626  0.6844
  160MOL0     C21495   2.133   7.760   4.295 -0.3950 -0.1246 -0.5885
  160MOL0     O21496   2.007   7.733   4.239  0.3728 -0.3349  0.5790
  160MOL0     C21497   1.981   7.776   4.105  0.0920  0.6648 -0.3724
  160MOL0     C21498   2.044   7.718   3.993  0.5067 -0.0039  0.2893
  160MOL0     C21499   2.017   7.766   3.864 -0.6818 -0.3744 -0.4172
  160MOL0     C21500   1.945   7.883   3.852  1.0133  0.6834  0.0017
  160MOL0     O21501   1.923   7.919   3.719  0.0828 -0.5927 -0.2341
  160MOL0     C21502   1.876   8.052   3.679 -0.5092  0.1033 -0.5933
  160MOL0     C21503   1.995   8.138   3.628  0.3884 -0.0292  0.5261
  160MOL0     C21504   2.060   8.066   3.503 -0.1705 -0.6955 -0.2038
  160MOL0     C21505   2.162   8.158   3.428 -0.3341 -0.3291  0.7075
  160MOL0     C21506   2.224   8.094   3.301 -0.6280  0.3981  1.0537
  160MOL0     C21507   2.147   8.106   3.163  0.1512 -0.1307  0.5871
  160MOL0     C21508   2.235   8.031   3.058  0.0606  0.6577  0.2299
  160MOL0     C21509   2.214   8.082   2.917  0.9485  0.0919  0.0733
  160MOL0    Cl21510   2.296   7.983   2.796  0.2888  0.1691 -0.2707
  160MOL0     C21511   1.877   7.938   3.966 -0.0334 -0.7683 -0.0116
  160MOL0     C21512   1.891   7.880   4.089 -0.0143  0.9176 -0.7019
  160MOL0     O21513   2.214   7.839   4.248  0.6172  0.7054 -0.2720
  160MOL0     C21514   2.078   7.574   4.446  0.0886 -0.1837 -0.4176
  160MOL0     C21515   2.113   7.486   4.550  0.0076  0.1774  0.4111
  160MOL0     N21516   2.666   6.840   4.526 -0.4037  0.8828 -0.0607
  160MOL0     N21517   2.795   6.805   4.511  0.4416  0.5954 -0.5338
  160MOL0     C21518   2.694   6.657   5.451  0.0376  0.0957  0.7909
  160MOL0     C21519   2.677   6.621   5.588  0.6318 -0.6269 -0.1874
  160MOL0     C21520   2.665   6.576   6.033  0.8552 -1.4206  0.4907
  160MOL0     C21521   2.790   6.568   6.089 -0.5935  0.6409 -0.5907
  160MOL0     C21522   2.809   6.532   6.225 -0.5710  0.2309  0.3128
  160MOL0     C21523   2.702   6.516   6.311 -0.6872  0.5824 -1.1408
  160MOL0     O21524   2.718   6.482   6.448  0.5020  0.0676  0.3047
  160MOL0     C21525   2.825   6.405   6.495 -1.0912 -0.3429 -0.2174
  160MOL0     C21526   2.811   6.375   6.645 -0.0918  0.6303  0.4133
  160MOL0     C21527   2.834   6.503   6.716 -0.0607 -0.3754 -0.1685
  160MOL0     C21528   2.819   6.496   6.868  0.6441 -0.4599  0.1364
  160MOL0     C21529   2.922   6.400   6.932  0.4601 -0.1394  0.4759
  160MOL0     C21530   3.007   6.326   6.970 -0.1466  0.9772 -1.0465
  160MOL0     C21531   2.574   6.536   6.256 -1.5736 -0.3080 -0.9360
  160MOL0     C21532   2.556   6.565   6.123 -0.7522  0.4947  0.7089
  160MOL0     H21533   2.879   6.846   5.736  0.2690  2.3952 -0.2686
  160MOL0     H21534   2.894   6.917   5.485 -1.0257  0.2143 -0.4368
  160MOL0     H21535   2.791   6.620   5.218  0.0464 -1.6369 -0.6425
  160MOL0     H21536   2.675   6.747   5.154  0.4264  1.4824  0.1060
  160MOL0     H21537   2.987   6.749   5.135 -0.7947 -3.0782 -0.1497
  160MOL0     H21538   2.889   6.684   5.006  0.2572  0.8101 -0.6104
  160MOL0     H21539   2.793   6.859   4.948  0.9767 -2.7527  0.6398
  160MOL0     H21540   2.881   6.957   5.074  2.3591  0.9672 -1.1349
  160MOL0     H21541   3.090   6.931   4.976 -2.3404  1.6312  2.6949
  160MOL0     H21542   3.045   6.789   4.868  1.6242  0.6246 -0.8820
  160MOL0     H21543   2.879   6.930   4.758  0.1825  0.7730 -1.2458
  160MOL0     H21544   2.951   7.071   4.809 -4.7030 -0.3799  1.2770
  160MOL0     H21545   3.186   6.949   4.732  0.4944 -2.3837 -1.6002
  160MOL0     H21546   3.088   6.832   4.656  3.0501 -0.1987 -0.4650
  160MOL0     H21547   3.018   7.108   4.580 -3.2980 -1.0689 -3.7685
  160MOL0     H21548   3.180   7.037   4.528 -0.1933 -1.8526 -2.3815
  160MOL0     H21549   3.065   6.849   4.429 -0.3019 -1.6052 -2.0815
  160MOL0     H21550   2.996   7.003   4.366  1.2512  1.4056  0.6486
  160MOL0     H21551   2.810   7.121   4.439 -3.3272  0.7548 -3.3248
  160MOL0     H21552   2.530   7.132   4.420 -0.2827  3.2823  2.3824
  160MOL0     H21553   2.442   7.006   4.516 -1.3899  1.1291  0.1455
  160MOL0     H21554   2.608   7.231   4.629  1.5499 -3.1078  0.1834
  160MOL0     H21555   2.505   7.114   4.726 -2.2627 -0.1090  0.1797
  160MOL0     H21556   2.309   7.220   4.577 -0.6303  1.4767 -3.0418
  160MOL0     H21557   2.422   7.335   4.536 -3.6263 -1.2426 -1.6854
  160MOL0     H21558   2.448   7.401   4.779  0.4824 -1.1955 -0.2137
  160MOL0     H21559   2.367   7.266   4.841 -1.7843  1.4512  1.5943
  160MOL0     H21560   2.396   7.631   4.656  0.4681  0.7535  0.7584
  160MOL0     H21561   2.353   7.895   4.467 -0.1815  0.2297  2.3067
  160MOL0     H21562   2.455   7.794   4.566  0.4416 -1.3502 -0.9046
  160MOL0     H21563   2.449   7.762   4.383 -1.7589 -1.8727 -0.2226
  160MOL0     H21564   2.111   7.632   3.993 -2.0320 -2.1068  0.0251
  160MOL0     H21565   2.068   7.728   3.776  0.1460 -1.8298  0.6426
  160MOL0     H21566   1.801   8.047   3.600 -1.4725  1.5809  0.1563
  160MOL0     H21567   1.818   8.105   3.757 -2.0917 -1.9848 -0.2708
  160MOL0     H21568   1.952   8.235   3.600 -1.3239 -1.0703 -0.6287
  160MOL0     H21569   2.067   8.159   3.707 -0.1827 -2.0151  1.6353
  160MOL0     H21570   1.979   8.064   3.430 -2.1692  1.0835  1.8055
  160MOL0     H21571   2.110   7.971   3.521  3.3271  1.1523  0.7875
  160MOL0     H21572   2.119   8.256   3.403  3.0154  1.0494 -0.1689
  160MOL0     H21573   2.250   8.193   3.483 -0.8496  2.4251 -0.0441
  160MOL0     H21574   2.242   7.987   3.316 -2.9678 -0.4458 -1.2489
  160MOL0     H21575   2.318   8.145   3.282  0.1983 -1.1684  0.7682
  160MOL0     H21576   2.051   8.055   3.178  0.5543 -0.7398  1.1640
  160MOL0     H21577   2.122   8.209   3.138  0.4737  0.4730  2.5641
  160MOL0     H21578   2.217   7.923   3.064 -0.8874  0.7440 -0.7735
  160MOL0     H21579   2.340   8.052   3.080  0.0457 -1.0142  2.2012
  160MOL0     H21580   2.270   8.176   2.910  1.9705 -0.6266 -3.0777
  160MOL0     H21581   2.111   8.102   2.887  0.7895 -1.9411 -0.8388
  160MOL0     H21582   1.806   8.020   3.955  0.7905  0.1649  1.3014
  160MOL0     H21583   1.848   7.931   4.174  0.5697  1.4693 -0.7314
  160MOL0     H21584   1.990   7.547   4.388 -1.0270 -0.3987  1.3163
  160MOL0     H21585   2.045   7.404   4.572 -4.6452  2.5876 -3.1878
  160MOL0     H21586   2.634   6.602   5.380 -0.6299  1.5551  0.1744
  160MOL0     H21587   2.618   6.534   5.613 -0.4821 -0.4185 -1.9239
  160MOL0     H21588   2.876   6.571   6.022  0.0683 -0.2242  0.1953
  160MOL0     H21589   2.907   6.530   6.271 -1.5700  1.6507  2.6764
  160MOL0     H21590   2.823   6.311   6.439 -0.3914  0.2987 -1.3656
  160MOL0     H21591   2.920   6.455   6.473 -1.6856  2.0863  2.2406
  160MOL0     H21592   2.895   6.307   6.659 -0.6864 -0.0356  0.8005
  160MOL0     H21593   2.716   6.328   6.674 -0.3153  0.4702 -0.5424
  160MOL0     H21594   2.772   6.586   6.680  1.4670  1.3099  0.8990
  160MOL0     H21595   2.937   6.538   6.707 -0.4714  0.9248 -0.0259
  160MOL0     H21596   2.715   6.485   6.903 -0.1069  1.4164 -1.3589
  160MOL0     H21597   2.858   6.592   6.903  0.9975  0.5427 -2.7774
  160MOL0     H21598   3.081   6.265   7.017 -1.9709 -1.9404 -1.6724
  160MOL0     H21599   2.501   6.538   6.336  1.4926  2.0113  2.1207
  160MOL0     H21600   2.458   6.587   6.082 -0.6473 -0.7216 -0.2762
  161MOL0     O21601   0.442   8.344   9.404  0.6167  0.3640  0.2439
  161MOL0     C21602   0.476   8.427   9.326 -1.0144  0.6991  0.7457
  161MOL0     O21603   0.435   8.562   9.328 -0.2933  0.1492  0.2712
  161MOL0     C21604   0.345   8.597   9.418 -0.0933  0.6497  0.1750
  161MOL0     C21605   0.233   8.663   9.374  0.4036  0.3165  0.2378
  161MOL0     C21606   0.133   8.694   9.464 -0.4264 -0.1124  0.5830
  161MOL0     C21607   0.128   8.655   9.597 -1.2115  0.4270  0.0543
  161MOL0     O21608   0.026   8.721   9.669 -0.6550  0.3922  0.3277
  161MOL0     C21609   0.015   8.722   9.814  1.1275  0.3812  0.1378
  161MOL0     C21610  -0.142   8.745   9.825  0.2401 -0.6434  0.4526
  161MOL0     C21611  -0.215   8.610   9.805  0.5976 -0.3864  0.6051
  161MOL0     C21612  -0.369   8.649   9.790  0.0501  1.5714 -0.2637
  161MOL0     C21613  -0.453   8.523   9.748 -0.1664 -0.0507 -0.2816
  161MOL0     C21614  -0.604   8.546   9.760 -0.0989  0.5722 -0.1971
  161MOL0     C21615  -0.676   8.633   9.649  0.5780  0.7511  0.1237
  161MOL0     C21616  -0.648   8.593   9.501  0.5508 -1.2335 -0.2321
  161MOL0     N21617  -0.659   8.450   9.496  0.9950  0.6529 -0.2445
  161MOL0     C21618  -0.561   8.373   9.451  0.2054  0.2526 -0.2010
  161MOL0     C21619  -0.601   8.248   9.487 -0.2411 -0.0040  0.0153
  161MOL0     C21620  -0.506   8.134   9.473 -0.6939  0.3972 -0.6439
  161MOL0     C21621  -0.411   8.123   9.589  0.1429 -0.4088 -0.6531
  161MOL0     C21622  -0.484   8.057   9.712  0.3741 -0.2020 -0.1264
  161MOL0     C21623  -0.383   7.997   9.805 -0.3249 -0.8822  0.1491
  161MOL0     O21624  -0.441   7.880   9.865 -0.3259  0.5589  0.3887
  161MOL0     C21625  -0.357   7.796   9.939  0.6194  0.2394  1.2976
  161MOL0     C21626  -0.422   7.684  10.000 -0.5680  0.2295 -0.2060
  161MOL0     C21627  -0.362   7.599  10.084  1.2582  0.0544 -0.5160
  161MOL0     C21628  -0.444   7.491  10.146  0.0967 -0.0878  0.2835
  161MOL0     C21629  -0.224   7.616  10.110 -0.0004 -0.2871 -0.2802
  161MOL0     C21630  -0.144   7.515  10.190  0.1405 -0.7817 -0.4962
  161MOL0     O21631  -0.044   7.576  10.266  0.3708 -0.0503 -0.1244
  161MOL0     C21632   0.050   7.503  10.338  0.9711 -0.5923  0.3081
  161MOL0     C21633   0.034   7.475  10.474 -0.7694 -0.5360  0.4068
  161MOL0     C21634   0.129   7.384  10.536  0.4503 -0.5132  0.8906
  161MOL0     C21635   0.240   7.339  10.465  0.3027 -0.4728 -1.5128
  161MOL0     O21636   0.329   7.256  10.532  0.2137 -0.0453 -0.5286
  161MOL0     C21637   0.456   7.224  10.470 -0.0960  0.8662  0.1224
  161MOL0     C21638   0.545   7.146  10.567  0.6284  0.8027 -0.7544
  161MOL0     C21639   0.483   7.023  10.630  0.0847  0.0815  0.0705
  161MOL0     C21640   0.489   6.898  10.539 -1.1011  0.3094  0.4505
  161MOL0     C21641   0.403   6.790  10.602 -0.4809  0.0634  0.8220
  161MOL0     C21642   0.402   6.669  10.511  0.5648 -0.2877 -0.5531
  161MOL0     C21643   0.328   6.561  10.589 -0.5426  0.3304 -0.0964
  161MOL0     C21644   0.281   6.449  10.499  0.2012  0.6661 -0.3265
  161MOL0    Cl21645   0.420   6.382  10.401  0.3584 -0.1132  0.1017
  161MOL0     C21646   0.244   7.360  10.326 -0.8786  0.7321 -0.3234
  161MOL0     C21647   0.151   7.437  10.263  0.4468  0.0068  0.7161
  161MOL0     O21648  -0.172   7.397  10.192 -0.2026 -0.4872 -0.2158
  161MOL0     C21649  -0.161   7.732  10.070  0.0936  0.3874 -0.4922
  161MOL0     C21650  -0.233   7.825   9.983 -0.8016  0.5216 -1.0602
  161MOL0     N21651  -0.728   8.251   9.526  0.2368  0.1133  0.2452
  161MOL0     N21652  -0.767   8.370   9.525 -0.2291 -0.5171  0.7105
  161MOL0     C21653   0.250   8.598   9.650 -0.5005 -0.4382  0.0987
  161MOL0     C21654   0.357   8.561   9.557 -0.2055 -0.9897  0.3743
  161MOL0     C21655   0.574   8.382   9.218 -0.2532  0.7810  0.3917
  161MOL0     C21656   0.620   8.473   9.119  0.5038 -0.7056 -0.2437
  161MOL0     C21657   0.711   8.436   9.028 -1.2684  1.1005  0.5359
  161MOL0     C21658   0.765   8.302   9.028  0.1394 -0.1995 -0.0623
  161MOL0     O21659   0.856   8.274   8.932  0.1125 -0.4343 -0.6498
  161MOL0     C21660   0.817   8.176   8.830 -0.8600 -0.2707  0.0395
  161MOL0     C21661   0.757   8.237   8.700  0.1262  0.5132  0.2238
  161MOL0     C21662   0.597   8.219   8.702  0.0226  0.0117 -0.6131
  161MOL0     C21663   0.533   8.268   8.570  0.3002 -0.5309  0.2939
  161MOL0     C21664   0.565   8.412   8.548 -0.5411 -0.1306 -0.8157
  161MOL0     C21665   0.581   8.532   8.538  0.0202 -0.5160  0.6011
  161MOL0     C21666   0.716   8.211   9.122 -0.7516 -0.1145 -0.6511
  161MOL0     C21667   0.629   8.250   9.221 -0.4746 -0.5374 -0.4575
  161MOL0     H21668   0.226   8.689   9.269 -1.1670  0.4241  0.3452
  161MOL0     H21669   0.051   8.756   9.430 -0.2399  0.5148  1.2296
  161MOL0     H21670   0.039   8.626   9.861  1.5806  1.6247  2.6060
  161MOL0     H21671   0.084   8.796   9.857  1.4949 -0.6837  1.4367
  161MOL0     H21672  -0.158   8.778   9.929  1.4834 -0.4994  0.6118
  161MOL0     H21673  -0.184   8.822   9.760  2.3204 -1.2298 -1.7038
  161MOL0     H21674  -0.172   8.560   9.718  0.8373  3.9303 -1.9907
  161MOL0     H21675  -0.202   8.543   9.891 -0.3910 -2.3119 -0.6790
  161MOL0     H21676  -0.395   8.699   9.883 -1.0498  0.8413 -0.1599
  161MOL0     H21677  -0.386   8.721   9.709 -0.5559  4.1390  2.0172
  161MOL0     H21678  -0.418   8.485   9.652  0.2742 -3.0812  0.9678
  161MOL0     H21679  -0.437   8.443   9.821  0.7563  0.0512 -0.3643
  161MOL0     H21680  -0.648   8.446   9.756  2.5640 -0.6974  0.1075
  161MOL0     H21681  -0.628   8.572   9.863 -1.7370 -1.2143 -0.0664
  161MOL0     H21682  -0.782   8.606   9.659  0.5478  1.8021  4.4579
  161MOL0     H21683  -0.659   8.740   9.663  2.0775  0.9320 -2.4649
  161MOL0     H21684  -0.551   8.619   9.456 -0.3238 -4.3503 -4.6105
  161MOL0     H21685  -0.720   8.646   9.438  0.8098 -2.2222 -1.4208
  161MOL0     H21686  -0.462   8.402   9.418  0.2014  1.5306  0.8166
  161MOL0     H21687  -0.556   8.041   9.447  0.5382  0.3946 -3.2972
  161MOL0     H21688  -0.441   8.147   9.386 -3.9999 -2.3592 -3.8497
  161MOL0     H21689  -0.370   8.222   9.606  2.4867 -0.8812 -2.9716
  161MOL0     H21690  -0.325   8.064   9.556 -0.6516 -1.6096 -0.6796
  161MOL0     H21691  -0.559   7.987   9.675  0.4008 -0.1857 -0.2120
  161MOL0     H21692  -0.530   8.140   9.767  0.7993 -0.2982  0.3817
  161MOL0     H21693  -0.364   8.078   9.876 -1.8187 -0.8037  0.4948
  161MOL0     H21694  -0.293   7.975   9.745 -0.3120  0.7376 -0.4910
  161MOL0     H21695  -0.525   7.662   9.974  0.1775 -2.1837 -1.4205
  161MOL0     H21696  -0.547   7.529  10.139 -0.0493  0.4508  3.6194
  161MOL0     H21697  -0.428   7.397  10.092 -0.0671 -1.4208  2.4499
  161MOL0     H21698  -0.412   7.466  10.248  0.3735 -1.1560 -0.0536
  161MOL0     H21699  -0.039   7.525  10.537  0.6874 -1.7783  3.3043
  161MOL0     H21700   0.119   7.373  10.644  1.4639  0.9866  1.1686
  161MOL0     H21701   0.436   7.154  10.388 -1.9469  1.0907  0.3420
  161MOL0     H21702   0.502   7.312  10.424 -2.5224  1.4702 -1.3139
  161MOL0     H21703   0.643   7.128  10.522 -0.2636 -1.9939 -1.7754
  161MOL0     H21704   0.566   7.214  10.650 -0.5270 -1.6191  1.6785
  161MOL0     H21705   0.380   7.047  10.659  0.6225 -1.3796  3.7342
  161MOL0     H21706   0.527   6.996  10.726  0.2519 -0.7258 -0.2265
  161MOL0     H21707   0.464   6.910  10.433  1.8174 -0.6066 -0.4593
  161MOL0     H21708   0.592   6.860  10.536 -0.4885  1.9493 -0.9694
  161MOL0     H21709   0.303   6.831  10.618 -0.6014  1.6068 -2.9466
  161MOL0     H21710   0.442   6.767  10.702  1.2724  2.9890  0.9337
  161MOL0     H21711   0.359   6.692  10.413  2.8458 -0.5528 -1.6932
  161MOL0     H21712   0.503   6.630  10.494  0.7482 -0.4905  0.8944
  161MOL0     H21713   0.241   6.595  10.646 -1.2651 -0.3863 -0.7453
  161MOL0     H21714   0.403   6.522  10.658 -2.1062 -1.7471  0.5304
  161MOL0     H21715   0.196   6.481  10.438  1.3036  3.9600 -0.3164
  161MOL0     H21716   0.246   6.365  10.561 -1.9393  1.5173 -0.3006
  161MOL0     H21717   0.333   7.336  10.269  0.7068 -0.6238  2.4585
  161MOL0     H21718   0.150   7.484  10.165  2.3862  1.7902  1.4917
  161MOL0     H21719  -0.059   7.745  10.106 -0.3869 -1.3599  1.7560
  161MOL0     H21720  -0.202   7.925   9.954  1.4422  0.5713  1.2200
  161MOL0     H21721   0.259   8.591   9.758  0.5838 -0.6178  0.0130
  161MOL0     H21722   0.447   8.514   9.597  0.6883  0.1880 -0.1939
  161MOL0     H21723   0.583   8.575   9.121  2.9636  0.2430 -0.4520
  161MOL0     H21724   0.751   8.513   8.963 -1.8521 -1.1792 -2.7538
  161MOL0     H21725   0.905   8.117   8.800 -1.0122 -0.6206  0.2804
  161MOL0     H21726   0.752   8.106   8.883 -3.0146  0.2426 -1.7926
  161MOL0     H21727   0.802   8.199   8.608 -0.7238  1.0994 -0.4474
  161MOL0     H21728   0.774   8.345   8.704  0.3767  0.4735  0.2218
  161MOL0     H21729   0.557   8.279   8.784  0.7603  0.8213 -0.8314
  161MOL0     H21730   0.566   8.115   8.717  2.3485 -0.6912 -0.3459
  161MOL0     H21731   0.425   8.258   8.569  0.0763  1.3300 -1.8094
  161MOL0     H21732   0.585   8.215   8.490  1.0180  1.2145 -0.4488
  161MOL0     H21733   0.581   8.637   8.516  0.2022 -0.6409 -0.0022
  161MOL0     H21734   0.770   8.117   9.131  0.0222  0.4494  1.1165
  161MOL0     H21735   0.595   8.175   9.292  0.2275 -0.9860 -0.5816
  162MOL0     O21736  11.043  11.432   7.159  0.1384 -0.3618 -0.1582
  162MOL0     C21737  11.070  11.321   7.201 -0.5845  1.3190 -0.5794
  162MOL0     O21738  10.971  11.225   7.234  0.3609 -0.0830 -0.0800
  162MOL0     C21739  10.841  11.241   7.182  0.4161  0.2559  0.4368
  162MOL0     C21740  10.795  11.150   7.091 -0.6521  0.4179  0.3366
  162MOL0     C21741  10.667  11.160   7.038 -0.6502 -1.0764 -0.2519
  162MOL0     C21742  10.584  11.275   7.071  0.5842  0.5545 -0.0320
  162MOL0     O21743  10.451  11.269   7.031 -0.9536  0.1630 -0.1923
  162MOL0     C21744  10.387  11.395   7.001 -0.2616 -0.3261 -0.0070
  162MOL0     C21745  10.249  11.363   6.958 -0.9685 -0.0225  0.2184
  162MOL0     C21746  10.154  11.484   6.938  0.3330  0.0032 -0.0329
  162MOL0     C21747  10.015  11.412   6.950 -0.3668 -0.6061 -0.3782
  162MOL0     C21748   9.911  11.508   6.904 -0.4629  0.5296  0.0776
  162MOL0     C21749   9.774  11.450   6.926 -0.0227  0.5303  0.4111
  162MOL0     C21750   9.665  11.509   6.830  0.1734  0.1106 -0.6572
  162MOL0     C21751   9.533  11.473   6.881 -0.1300  0.3605  0.0472
  162MOL0     N21752   9.503  11.543   7.007  0.1728 -0.2030 -0.2045
  162MOL0     C21753   9.476  11.676   7.007  0.1909  0.6905  0.3557
  162MOL0     C21754   9.429  11.701   7.134 -0.4701 -0.4528 -0.1964
  162MOL0     C21755   9.380  11.833   7.196 -0.9388  0.4455 -0.3568
  162MOL0     C21756   9.301  11.817   7.329 -0.4467  0.3421  0.4665
  162MOL0     C21757   9.388  11.815   7.463  0.9153  0.8939 -0.6785
  162MOL0     C21758   9.290  11.800   7.588  0.2011 -0.1198  1.0344
  162MOL0     O21759   9.156  11.850   7.572 -0.2690  0.3210  0.2653
  162MOL0     C21760   9.118  11.977   7.608  0.8572  0.1042  0.6515
  162MOL0     C21761   8.997  11.986   7.674  0.3124 -0.3716  0.5206
  162MOL0     C21762   8.927  12.103   7.690  0.1834 -0.5665 -0.3017
  162MOL0     C21763   8.787  12.103   7.758  0.0198 -0.8214  0.2610
  162MOL0     C21764   8.990  12.225   7.651 -0.1016  0.3073 -0.7063
  162MOL0     C21765   8.921  12.357   7.648  0.5264 -0.0992 -0.7693
  162MOL0     O21766   9.011  12.466   7.649 -0.0347  0.5091  0.1945
  162MOL0     C21767   8.949  12.583   7.630  0.1220  0.2323  0.7219
  162MOL0     C21768   8.952  12.676   7.729 -0.4605  0.2906 -0.7846
  162MOL0     C21769   8.881  12.798   7.709  0.6851  0.4486 -0.1343
  162MOL0     C21770   8.813  12.835   7.591  0.3371  0.2611  0.6951
  162MOL0     O21771   8.752  12.953   7.553 -1.2713  0.1504 -0.0315
  162MOL0     C21772   8.720  13.047   7.653  0.4650 -1.0929  0.5800
  162MOL0     C21773   8.574  13.073   7.668 -0.1004  0.5463 -0.1196
  162MOL0     C21774   8.536  13.092   7.816  0.0185 -0.1780 -0.2505
  162MOL0     C21775   8.557  13.233   7.857  0.7514 -0.6478 -1.4828
  162MOL0     C21776   8.597  13.239   8.007 -0.5324  0.1550 -0.3533
  162MOL0     C21777   8.593  13.386   8.038  0.0118  0.1508  0.1374
  162MOL0     C21778   8.676  13.402   8.165  0.3617 -1.1255 -0.0438
  162MOL0     C21779   8.587  13.368   8.289  0.8434 -0.5096  0.8866
  162MOL0    Cl21780   8.683  13.404   8.440  0.1117 -0.2037  0.1972
  162MOL0     C21781   8.816  12.734   7.488 -0.0621  0.0802 -0.4938
  162MOL0     C21782   8.893  12.614   7.506  0.1842  0.2248  0.3093
  162MOL0     O21783   8.796  12.360   7.648  0.1862  0.4665  0.1992
  162MOL0     C21784   9.121  12.220   7.591 -0.3046  0.0469 -0.4097
  162MOL0     C21785   9.175  12.097   7.569  0.4754 -0.5388 -0.3390
  162MOL0     N21786   9.435  11.582   7.208  1.0333 -0.1423 -0.6749
  162MOL0     N21787   9.462  11.492   7.120 -0.1997 -0.6721  0.5781
  162MOL0     C21788  10.638  11.372   7.156  0.6700  0.1951  1.6485
  162MOL0     C21789  10.755  11.344   7.219 -0.8652 -0.7248  0.6969
  162MOL0     C21790  11.212  11.289   7.243 -0.1765  0.0425 -0.4686
  162MOL0     C21791  11.313  11.390   7.216 -0.0900 -0.1308 -0.6331
  162MOL0     C21792  11.441  11.354   7.244  0.9814  0.1389  0.1986
  162MOL0     C21793  11.488  11.237   7.307  0.5203 -0.1197  0.2067
  162MOL0     O21794  11.619  11.224   7.323 -0.5771  0.7578  0.5064
  162MOL0     C21795  11.678  11.088   7.344 -0.1036  0.6902  0.7494
  162MOL0     C21796  11.826  11.090   7.298  0.4427 -0.8333  0.0325
  162MOL0     C21797  11.849  11.078   7.146  0.3420  0.0913 -0.5024
  162MOL0     C21798  11.787  10.943   7.104 -0.3879  0.0678  0.2609
  162MOL0     C21799  11.863  10.905   6.983  0.1873 -0.8547 -0.3642
  162MOL0     C21800  11.927  10.876   6.880  0.2338  0.1199  0.0750
  162MOL0     C21801  11.391  11.152   7.347  0.9272 -0.1872  0.0046
  162MOL0     C21802  11.251  11.172   7.309 -0.2849  0.0760  0.5754
  162MOL0     H21803  10.856  11.071   7.048 -1.2372  1.2519 -2.2068
  162MOL0     H21804  10.625  11.077   6.982 -0.5728 -1.1488 -0.2044
  162MOL0     H21805  10.382  11.444   7.098  5.1020 -2.2642  1.6304
  162MOL0     H21806  10.445  11.462   6.937 -1.1173  2.9864  2.4311
  162MOL0     H21807  10.252  11.313   6.861 -0.1141 -0.4108  0.4416
  162MOL0     H21808  10.213  11.288   7.029  1.7709 -0.2345  1.5103
  162MOL0     H21809  10.168  11.556   7.019  0.7883 -2.1490  1.9214
  162MOL0     H21810  10.177  11.529   6.841 -1.3906  0.4230 -0.2675
  162MOL0     H21811  10.015  11.322   6.889  0.1198  1.3150 -3.4452
  162MOL0     H21812   9.988  11.384   7.052 -1.8547 -3.4619 -1.4654
  162MOL0     H21813   9.908  11.602   6.961 -0.7724  0.3166  0.4227
  162MOL0     H21814   9.936  11.539   6.803 -1.0368  0.6293 -0.0386
  162MOL0     H21815   9.776  11.342   6.914 -1.6319  0.3800  1.1936
  162MOL0     H21816   9.746  11.470   7.030 -2.4529 -0.7811  0.0653
  162MOL0     H21817   9.678  11.618   6.823 -3.4599  0.6396 -1.4154
  162MOL0     H21818   9.689  11.475   6.729 -2.8737 -0.8274 -1.1601
  162MOL0     H21819   9.527  11.367   6.907 -4.6105  0.1850 -0.9676
  162MOL0     H21820   9.461  11.497   6.803 -1.0116 -2.5373 -0.1346
  162MOL0     H21821   9.482  11.743   6.921 -2.1802  1.9189  1.0820
  162MOL0     H21822   9.468  11.895   7.218 -2.4481  1.6453  3.0779
  162MOL0     H21823   9.323  11.881   7.115  1.1654 -2.4135 -3.8071
  162MOL0     H21824   9.243  11.727   7.305  2.3592 -0.4434 -4.8310
  162MOL0     H21825   9.234  11.903   7.331  2.4710  2.7731  1.8390
  162MOL0     H21826   9.445  11.907   7.475  1.4128  0.3410  1.6780
  162MOL0     H21827   9.456  11.730   7.459  1.0778  0.8580  1.5269
  162MOL0     H21828   9.324  11.860   7.674 -4.6159  1.9224  1.8609
  162MOL0     H21829   9.273  11.694   7.607 -1.7472  0.3464  2.2695
  162MOL0     H21830   8.949  11.895   7.710 -0.3868 -0.2844 -0.1645
  162MOL0     H21831   8.768  11.997   7.779  1.8902 -1.3572 -0.5561
  162MOL0     H21832   8.786  12.166   7.847 -0.3257 -3.0980  1.9722
  162MOL0     H21833   8.707  12.139   7.692 -0.7930 -2.7318  0.1560
  162MOL0     H21834   9.000  12.655   7.824 -0.4214  0.9538 -0.6586
  162MOL0     H21835   8.877  12.865   7.794 -3.1857 -3.0077  2.7770
  162MOL0     H21836   8.768  13.019   7.747  1.3776 -0.5817  0.2791
  162MOL0     H21837   8.757  13.147   7.627  3.1173 -2.3336 -0.7923
  162MOL0     H21838   8.536  13.152   7.602  1.2671  0.4884 -1.0017
  162MOL0     H21839   8.522  12.982   7.639  1.8009 -0.7797  0.4828
  162MOL0     H21840   8.603  13.034   7.879 -0.1217 -1.2649 -1.0829
  162MOL0     H21841   8.439  13.059   7.854 -0.2418  1.5171  0.6743
  162MOL0     H21842   8.639  13.273   7.797  1.6846 -2.7089 -1.6400
  162MOL0     H21843   8.461  13.284   7.841 -1.1711 -2.9233  1.6273
  162MOL0     H21844   8.692  13.188   8.023  0.2415  1.4689 -0.6404
  162MOL0     H21845   8.519  13.188   8.065 -0.8750 -0.9715 -1.7385
  162MOL0     H21846   8.649  13.446   7.966  5.0695 -0.5715  3.0019
  162MOL0     H21847   8.491  13.426   8.046  1.5049  4.4415  0.0009
  162MOL0     H21848   8.698  13.507   8.184 -0.6898 -0.8869 -0.0625
  162MOL0     H21849   8.772  13.355   8.187  0.4932  0.4454  3.3021
  162MOL0     H21850   8.561  13.262   8.297  0.2481 -0.5036 -0.6485
  162MOL0     H21851   8.494  13.426   8.278  1.5953  0.3744 -1.4159
  162MOL0     H21852   8.764  12.746   7.393 -2.3267 -2.1557  0.3664
  162MOL0     H21853   8.895  12.541   7.426 -2.6743 -1.4928  1.6424
  162MOL0     H21854   9.175  12.308   7.558 -0.3663 -0.3977 -1.7454
  162MOL0     H21855   9.272  12.098   7.519 -0.3082 -1.2490 -1.9587
  162MOL0     H21856  10.592  11.465   7.186  2.2728  1.2259  0.9943
  162MOL0     H21857  10.797  11.405   7.297  1.9922 -0.5679 -0.8239
  162MOL0     H21858  11.300  11.485   7.165 -2.7856  1.3239  2.4269
  162MOL0     H21859  11.511  11.428   7.207  1.0876 -1.4532 -3.1599
  162MOL0     H21860  11.669  11.064   7.450 -1.5135  0.0669  0.5052
  162MOL0     H21861  11.622  11.012   7.289  0.7462  0.7856 -0.2704
  162MOL0     H21862  11.893  11.034   7.364  0.0814  0.8881  1.9661
  162MOL0     H21863  11.860  11.187   7.335  3.3582 -1.7906  0.1262
  162MOL0     H21864  11.957  11.072   7.133  0.3885 -0.2291 -0.0059
  162MOL0     H21865  11.806  11.150   7.076 -2.8226 -0.1459  1.0091
  162MOL0     H21866  11.684  10.960   7.072  0.4332  5.2188 -0.5840
  162MOL0     H21867  11.803  10.868   7.182 -0.8068  0.3178  0.5914
  162MOL0     H21868  11.957  10.850   6.781 -0.4721 -1.4070  0.2278
  162MOL0     H21869  11.416  11.061   7.401 -0.1535 -0.7093 -0.3445
  162MOL0     H21870  11.187  11.086   7.324  2.1350 -1.8794  0.3198
  163MOL0     O21871   6.663   2.109  10.745  0.5470 -0.1890  0.0124
  163MOL0     C21872   6.562   2.060  10.697 -0.8440  0.4106  0.1967
  163MOL0     O21873   6.473   2.122  10.624 -0.1380 -0.0166  0.0031
  163MOL0     C21874   6.465   2.256  10.605  0.3395 -0.0304 -0.7021
  163MOL0     C21875   6.573   2.347  10.614 -0.6779 -0.3920 -0.5472
  163MOL0     C21876   6.550   2.490  10.590 -0.2923  0.3507  0.0032
  163MOL0     C21877   6.421   2.539  10.570  0.1452 -0.5403 -0.1370
  163MOL0     O21878   6.396   2.668  10.534 -0.3971  0.2970  0.3827
  163MOL0     C21879   6.327   2.745  10.633 -0.3444  0.1298  0.3925
  163MOL0     C21880   6.358   2.897  10.615  0.1337  0.6188 -0.6576
  163MOL0     C21881   6.236   2.980  10.674  0.3798 -0.3681  0.3426
  163MOL0     C21882   6.126   2.991  10.565 -0.6550 -0.5594 -0.0646
  163MOL0     C21883   6.016   3.088  10.614  0.5871 -0.7615 -1.4351
  163MOL0     C21884   5.894   3.077  10.520 -0.8975 -0.3927  0.2118
  163MOL0     C21885   5.803   2.948  10.538  0.0534 -0.2713 -0.6151
  163MOL0     C21886   5.797   2.874  10.397  0.4444 -0.1151  0.2488
  163MOL0     N21887   5.915   2.796  10.372  0.0776  0.9955  0.7046
  163MOL0     C21888   6.001   2.802  10.268 -0.1859  0.0392  0.7847
  163MOL0     C21889   6.098   2.706  10.290  0.2716 -0.7970 -0.0186
  163MOL0     C21890   6.225   2.676  10.209  0.5797 -0.0402  0.4959
  163MOL0     C21891   6.211   2.691  10.058  0.2200  1.1196  0.7413
  163MOL0     C21892   6.136   2.575  10.002 -0.8467  0.6452 -0.4669
  163MOL0     C21893   6.231   2.482   9.928 -0.9745 -0.7243  0.2895
  163MOL0     O21894   6.291   2.552   9.809  0.3827 -0.3220 -0.6188
  163MOL0     C21895   6.365   2.476   9.714  0.0590  0.6142  0.6872
  163MOL0     C21896   6.438   2.538   9.616  0.6165  0.0122  0.1226
  163MOL0     C21897   6.497   2.473   9.505  0.6744  0.6418  0.7899
  163MOL0     C21898   6.549   2.567   9.398  0.9775 -0.0557 -0.3104
  163MOL0     C21899   6.507   2.327   9.512 -0.2137 -0.6749 -0.8622
  163MOL0     C21900   6.589   2.253   9.422 -0.4806  0.2047 -0.2872
  163MOL0     O21901   6.524   2.148   9.377 -0.1419 -0.1322 -0.5841
  163MOL0     C21902   6.601   2.058   9.304  0.2623 -0.6127 -0.5417
  163MOL0     C21903   6.677   1.954   9.361 -0.8244 -0.3982  0.3797
  163MOL0     C21904   6.728   1.851   9.278  0.2187 -0.3462  0.1971
  163MOL0     C21905   6.709   1.858   9.138  0.2402 -0.3099 -1.1252
  163MOL0     O21906   6.752   1.758   9.059 -0.6337 -0.3917 -0.4348
  163MOL0     C21907   6.703   1.734   8.927 -0.4722 -0.2465 -0.6430
  163MOL0     C21908   6.738   1.596   8.878 -0.0680 -0.0504  0.1506
  163MOL0     C21909   6.665   1.555   8.745 -0.0823 -1.5653 -0.0021
  163MOL0     C21910   6.685   1.406   8.720  0.2995  0.0619  0.1110
  163MOL0     C21911   6.560   1.347   8.649 -1.0822  0.5083 -0.3249
  163MOL0     C21912   6.550   1.182   8.643 -0.8240  0.1243  0.4718
  163MOL0     C21913   6.660   1.132   8.538 -0.4838  0.1595  0.4094
  163MOL0     C21914   6.676   0.976   8.545 -0.1281 -0.4646  0.3875
  163MOL0    Cl21915   6.805   0.922   8.434 -0.4417  0.2925 -0.2188
  163MOL0     C21916   6.647   1.969   9.083  0.2364  0.3649 -0.3371
  163MOL0     C21917   6.585   2.069   9.168 -0.5341 -0.2630  0.5920
  163MOL0     O21918   6.702   2.281   9.389  0.4097  0.4461  0.0948
  163MOL0     C21919   6.435   2.268   9.619  1.2528  0.5108 -0.3677
  163MOL0     C21920   6.360   2.338   9.714  0.1543  0.0287  0.4370
  163MOL0     N21921   6.046   2.628  10.398 -1.0342 -0.1566  0.5180
  163MOL0     N21922   5.954   2.690  10.451  0.0317  0.8574  0.2417
  163MOL0     C21923   6.310   2.449  10.563 -0.2949 -0.0479 -0.6308
  163MOL0     C21924   6.331   2.307  10.578 -0.5583  0.5180 -0.6548
  163MOL0     C21925   6.526   1.915  10.694  0.0506  1.4935  0.1775
  163MOL0     C21926   6.627   1.828  10.738  1.3420  1.0379  0.2482
  163MOL0     C21927   6.603   1.691  10.717  0.6336  0.2092  0.1798
  163MOL0     C21928   6.478   1.640  10.675 -0.3327 -0.1818  0.1119
  163MOL0     O21929   6.477   1.500  10.665 -0.4103  0.0903  0.1235
  163MOL0     C21930   6.355   1.438  10.611 -0.0489 -0.8258  0.3643
  163MOL0     C21931   6.363   1.287  10.598  0.0758  0.2479 -0.6681
  163MOL0     C21932   6.419   1.212  10.722 -0.6703  0.7214  0.4183
  163MOL0     C21933   6.391   1.055  10.694 -1.4515 -0.1055 -0.9909
  163MOL0     C21934   6.433   0.970  10.808  0.2489 -0.4079  0.0840
  163MOL0     C21935   6.461   0.924  10.917 -0.3065  0.0827 -0.6760
  163MOL0     C21936   6.383   1.730  10.647  0.3385 -0.4264  0.2175
  163MOL0     C21937   6.397   1.868  10.651 -0.0905  0.4020 -0.6198
  163MOL0     H21938   6.678   2.324  10.629 -1.0284 -1.6985  0.0977
  163MOL0     H21939   6.627   2.566  10.590 -0.1517  0.2245  1.1565
  163MOL0     H21940   6.221   2.723  10.614 -1.4276  4.8250 -0.1459
  163MOL0     H21941   6.340   2.715  10.738 -2.9679 -0.7377  0.5557
  163MOL0     H21942   6.445   2.924  10.675 -2.4002 -0.3034  3.8887
  163MOL0     H21943   6.374   2.913  10.508  0.0702 -0.1730 -0.7912
  163MOL0     H21944   6.197   2.930  10.763 -2.6832  0.1504 -0.5831
  163MOL0     H21945   6.258   3.083  10.703  0.7386 -0.3916  0.1662
  163MOL0     H21946   6.166   3.011  10.465 -0.1107 -0.5175  0.1608
  163MOL0     H21947   6.073   2.897  10.547 -0.5774 -0.2101 -2.5688
  163MOL0     H21948   5.993   3.067  10.718  4.2727  1.4173  0.0185
  163MOL0     H21949   6.055   3.190  10.623 -0.9997 -0.0869 -1.9423
  163MOL0     H21950   5.828   3.164  10.517 -3.5306 -2.2418  1.2029
  163MOL0     H21951   5.943   3.079  10.422  4.1332  0.7570  2.4204
  163MOL0     H21952   5.825   2.876  10.617 -2.4314 -2.5934 -1.8606
  163MOL0     H21953   5.705   2.992  10.559  1.2106  1.6757  1.1257
  163MOL0     H21954   5.791   2.948  10.317  3.8633 -0.3622 -0.3787
  163MOL0     H21955   5.707   2.815  10.378  0.3967  0.5495 -1.8463
  163MOL0     H21956   5.995   2.870  10.184 -0.3989 -1.0905 -0.1387
  163MOL0     H21957   6.309   2.742  10.232  1.2780 -1.2782  1.6397
  163MOL0     H21958   6.267   2.581  10.246 -1.1056 -0.4108  1.5264
  163MOL0     H21959   6.313   2.704  10.019 -0.3677  0.2818 -1.2018
  163MOL0     H21960   6.156   2.781  10.030 -3.9066 -1.5077 -0.5566
  163MOL0     H21961   6.073   2.609   9.919 -0.1778 -0.5344 -1.4844
  163MOL0     H21962   6.080   2.525  10.083  0.4256  0.6264  0.4263
  163MOL0     H21963   6.172   2.394   9.900 -1.5564 -0.0257 -0.7343
  163MOL0     H21964   6.316   2.450   9.989 -1.7525  1.1134  2.4415
  163MOL0     H21965   6.429   2.646   9.623 -0.6673 -0.0806 -0.0179
  163MOL0     H21966   6.628   2.631   9.438 -0.8299  0.9107  1.9655
  163MOL0     H21967   6.585   2.511   9.311 -3.1941  0.1223 -2.4205
  163MOL0     H21968   6.476   2.644   9.372  2.3444  1.3340 -0.1771
  163MOL0     H21969   6.699   1.961   9.467 -2.1684  0.9892  0.6034
  163MOL0     H21970   6.779   1.769   9.329 -0.2673  0.7881  2.6795
  163MOL0     H21971   6.594   1.738   8.932 -0.4472 -0.5469  0.1597
  163MOL0     H21972   6.742   1.809   8.858 -0.2539  1.3226  1.1279
  163MOL0     H21973   6.841   1.602   8.840 -0.1906 -1.0144 -0.3534
  163MOL0     H21974   6.732   1.515   8.951  2.6060 -0.8651 -0.4054
  163MOL0     H21975   6.704   1.605   8.656  2.0232  0.3144  1.8382
  163MOL0     H21976   6.560   1.579   8.762  0.7993  1.5661  1.9838
  163MOL0     H21977   6.775   1.398   8.659  0.8196  4.2502  0.0401
  163MOL0     H21978   6.706   1.347   8.810  0.3455  2.6232  1.8696
  163MOL0     H21979   6.545   1.383   8.547 -3.7039 -0.5798 -0.4006
  163MOL0     H21980   6.475   1.375   8.711 -0.9244  1.4125 -0.5033
  163MOL0     H21981   6.565   1.148   8.746  0.8990  4.3448  1.8483
  163MOL0     H21982   6.452   1.154   8.602  0.2665 -0.9842 -1.4994
  163MOL0     H21983   6.751   1.191   8.551 -0.1905 -0.1232 -0.3166
  163MOL0     H21984   6.628   1.165   8.438 -0.8780 -2.1468 -0.2783
  163MOL0     H21985   6.583   0.927   8.514 -1.5042  1.2760  1.5464
  163MOL0     H21986   6.708   0.954   8.648 -0.3795  0.5225  0.6924
  163MOL0     H21987   6.625   1.983   8.977 -0.4913  1.2625 -0.0786
  163MOL0     H21988   6.524   2.149   9.127 -1.0443 -1.0429 -0.1861
  163MOL0     H21989   6.418   2.161   9.625 -3.0817  0.9611 -1.1612
  163MOL0     H21990   6.305   2.282   9.789  3.6375  1.8413  4.8411
  163MOL0     H21991   6.214   2.498  10.566  0.6897  1.9729 -0.5547
  163MOL0     H21992   6.253   2.231  10.579 -0.2785  0.1301  2.6047
  163MOL0     H21993   6.727   1.859  10.765  1.9673 -1.2463  0.7282
  163MOL0     H21994   6.673   1.619  10.757 -1.0514 -1.5619  0.1063
  163MOL0     H21995   6.270   1.451  10.679 -2.3594 -2.9560 -1.9289
  163MOL0     H21996   6.336   1.476  10.511  1.3580 -3.5935 -1.0632
  163MOL0     H21997   6.425   1.265  10.511  0.8920 -1.0092  0.1905
  163MOL0     H21998   6.268   1.238  10.577  0.2379 -0.7504  0.7687
  163MOL0     H21999   6.363   1.244  10.811  1.3041  1.0696  1.5937
  163MOL0     H22000   6.522   1.241  10.746  0.1732 -0.7949 -1.1250
  163MOL0     H22001   6.464   1.031  10.616 -1.6178  2.2181 -1.9537
  163MOL0     H22002   6.287   1.038  10.665 -0.9651 -1.4487 -2.0715
  163MOL0     H22003   6.491   0.874  11.007  1.8507  1.4088 -0.5929
  163MOL0     H22004   6.293   1.690  10.601  2.1501 -1.4545 -2.7707
  163MOL0     H22005   6.321   1.942  10.626 -0.9948  0.9002  3.0408
  164MOL0     O22006   0.152   5.320  10.757 -0.0203  0.1946  0.2380
  164MOL0     C22007   0.245   5.399  10.784 -0.4584 -0.2429 -0.2143
  164MOL0     O22008   0.236   5.503  10.877  0.0645 -0.3672  0.0344
  164MOL0     C22009   0.121   5.516  10.958  0.4093 -0.5517  0.5008
  164MOL0     C22010  -0.016   5.509  10.909 -0.8185  0.8377 -0.5411
  164MOL0     C22011  -0.124   5.500  10.998  0.4729 -0.1505 -0.1173
  164MOL0     C22012  -0.113   5.521  11.130 -0.5336 -0.6149  0.6953
  164MOL0     O22013  -0.231   5.525  11.201  0.3652  0.9231 -0.2346
  164MOL0     C22014  -0.210   5.509  11.341 -0.3770  0.6026 -0.1492
  164MOL0     C22015  -0.351   5.494  11.404  0.1761 -0.6614 -0.3100
  164MOL0     C22016  -0.344   5.472  11.557  0.8623  0.5680  1.6957
  164MOL0     C22017  -0.474   5.414  11.601  0.5004  0.3120 -0.0467
  164MOL0     C22018  -0.472   5.385  11.745  0.0347 -0.4553 -0.0765
  164MOL0     C22019  -0.367   5.307  11.806  0.7007  0.1589 -0.4334
  164MOL0     C22020  -0.428   5.262  11.937  0.2786 -0.8112  0.1136
  164MOL0     C22021  -0.345   5.155  11.988  0.0157  0.7134  0.7075
  164MOL0     N22022  -0.210   5.184  12.027  0.2021  0.2378 -0.2938
  164MOL0     C22023  -0.096   5.153  11.950  0.2146 -0.0869 -0.4534
  164MOL0     C22024   0.013   5.193  12.022  0.5443  0.1259 -0.3591
  164MOL0     C22025   0.166   5.182  11.998 -0.5839 -0.0957  0.3668
  164MOL0     C22026   0.257   5.077  12.060 -0.5466  0.3787  0.2936
  164MOL0     C22027   0.250   5.108  12.211 -0.5647 -0.0635  0.3587
  164MOL0     C22028   0.338   5.032  12.312  0.6854 -0.2934  0.8009
  164MOL0     O22029   0.267   5.002  12.430 -0.3393 -1.2086 -0.3201
  164MOL0     C22030   0.299   4.897  12.509  0.6558 -0.3082 -0.4926
  164MOL0     C22031   0.201   4.868  12.604 -0.3914 -0.7523 -0.1357
  164MOL0     C22032   0.212   4.759  12.687 -1.1086  0.3088  0.1874
  164MOL0     C22033   0.100   4.733  12.782 -0.6564  0.1374  0.1895
  164MOL0     C22034   0.329   4.681  12.695  0.4988 -0.4849 -0.0491
  164MOL0     C22035   0.351   4.575  12.803 -0.6190 -1.1668 -0.6625
  164MOL0     O22036   0.245   4.520  12.858  0.1668 -0.4168 -0.1868
  164MOL0     C22037   0.266   4.430  12.959  0.9215  0.2882  0.5330
  164MOL0     C22038   0.338   4.314  12.956 -0.2592 -0.4513 -0.9351
  164MOL0     C22039   0.327   4.220  13.066  0.0178 -0.2698 -0.3373
  164MOL0     C22040   0.232   4.235  13.161  0.2084  0.2686 -0.3970
  164MOL0     O22041   0.222   4.126  13.247  1.2976  0.3271  1.1086
  164MOL0     C22042   0.105   4.121  13.325 -0.3803  0.0872  0.1623
  164MOL0     C22043   0.130   3.997  13.424  0.1473 -0.6089  0.2662
  164MOL0     C22044   0.035   3.993  13.546 -0.1383  0.5442 -0.2892
  164MOL0     C22045   0.081   3.877  13.645 -0.1716 -0.2478  0.0791
  164MOL0     C22046  -0.028   3.846  13.757 -0.0135  0.4318 -0.4085
  164MOL0     C22047  -0.054   3.970  13.845 -0.1149 -0.2040 -0.4347
  164MOL0     C22048  -0.135   3.917  13.959  0.8685  0.9840  0.9450
  164MOL0     C22049  -0.210   4.020  14.029 -0.1154 -0.3047 -0.4357
  164MOL0    Cl22050  -0.287   3.958  14.179 -0.1643 -0.2657 -0.4548
  164MOL0     C22051   0.164   4.358  13.165 -0.6878  0.5040 -0.1551
  164MOL0     C22052   0.175   4.447  13.057 -0.0080  0.2570  0.0635
  164MOL0     O22053   0.466   4.550  12.835  0.3767  0.3167 -0.4032
  164MOL0     C22054   0.431   4.709  12.600  0.1087  0.8606  0.0358
  164MOL0     C22055   0.409   4.803  12.505  0.0007 -0.4175 -0.3361
  164MOL0     N22056  -0.045   5.249  12.142 -0.6108  0.4780 -0.1736
  164MOL0     N22057  -0.169   5.237  12.143 -0.1660 -0.7045  0.2696
  164MOL0     C22058   0.016   5.533  11.175 -0.1517 -0.6391  0.7340
  164MOL0     C22059   0.134   5.535  11.090  0.0671  0.3776 -0.1365
  164MOL0     C22060   0.376   5.370  10.726  0.6319 -0.1326  0.0125
  164MOL0     C22061   0.497   5.435  10.767  0.9281  0.0891  0.2248
  164MOL0     C22062   0.622   5.404  10.709  1.0418 -1.0139 -0.4000
  164MOL0     C22063   0.637   5.306  10.606  0.0524  0.6262  0.6899
  164MOL0     O22064   0.766   5.267  10.566  0.1166 -0.5837  0.2782
  164MOL0     C22065   0.797   5.202  10.440  0.3452 -0.6576  0.2620
  164MOL0     C22066   0.813   5.303  10.318  0.5725 -0.3613 -0.0840
  164MOL0     C22067   0.891   5.440  10.343  0.1395  0.3091 -0.4957
  164MOL0     C22068   0.990   5.476  10.217 -0.3601  0.6593  0.3780
  164MOL0     C22069   1.009   5.618  10.219 -0.2784 -0.1426 -0.1698
  164MOL0     C22070   1.023   5.744  10.219 -0.3762  0.2640  0.9511
  164MOL0     C22071   0.518   5.247  10.558  0.2795  0.3999 -0.4171
  164MOL0     C22072   0.392   5.277  10.620 -0.3126  0.1958  1.0200
  164MOL0     H22073  -0.030   5.500  10.802  0.3750 -1.6743 -0.5701
  164MOL0     H22074  -0.222   5.477  10.958 -0.2690  1.7713  0.5071
  164MOL0     H22075  -0.152   5.420  11.369 -2.4923  0.0491  2.9879
  164MOL0     H22076  -0.163   5.603  11.371 -0.4778  0.7652 -0.5007
  164MOL0     H22077  -0.425   5.571  11.382 -1.1530 -1.5140  0.9634
  164MOL0     H22078  -0.397   5.406  11.357  0.1963 -0.2014 -1.2202
  164MOL0     H22079  -0.257   5.409  11.577  3.4987  2.9890 -1.1920
  164MOL0     H22080  -0.331   5.563  11.617 -3.0536  0.8609  2.3562
  164MOL0     H22081  -0.555   5.483  11.573 -0.9126  0.1083  3.1787
  164MOL0     H22082  -0.483   5.320  11.547 -0.1144  0.4915 -0.2649
  164MOL0     H22083  -0.482   5.482  11.796  0.2544 -0.2835 -0.3552
  164MOL0     H22084  -0.571   5.345  11.770 -0.5560  2.0459  2.0720
  164MOL0     H22085  -0.342   5.222  11.742  2.1253 -0.8287  1.3529
  164MOL0     H22086  -0.276   5.365  11.819  2.2421 -1.4814 -3.0560
  164MOL0     H22087  -0.435   5.344  12.010 -1.2561 -1.9254  1.2986
  164MOL0     H22088  -0.522   5.209  11.919  1.7520 -3.7384  0.5629
  164MOL0     H22089  -0.339   5.089  11.901  0.9678  1.2016  0.3836
  164MOL0     H22090  -0.394   5.101  12.070 -1.4846 -0.6218 -0.9750
  164MOL0     H22091  -0.098   5.098  11.856  2.4230 -3.5767  1.3399
  164MOL0     H22092   0.186   5.175  11.890 -0.3291  3.0948  0.1121
  164MOL0     H22093   0.202   5.285  12.009  2.5002  0.0467 -6.1411
  164MOL0     H22094   0.355   5.106  12.021 -1.7850  1.5383 -2.2008
  164MOL0     H22095   0.224   4.979  12.026  0.6575  1.0557 -3.2080
  164MOL0     H22096   0.146   5.091  12.238 -1.3599  1.2340 -1.6574
  164MOL0     H22097   0.269   5.215  12.227  1.0798  0.1816 -2.5278
  164MOL0     H22098   0.427   5.091  12.330 -0.0814  1.5338 -0.9756
  164MOL0     H22099   0.360   4.940  12.256 -2.8750 -0.5333 -0.4688
  164MOL0     H22100   0.112   4.928  12.589 -0.5927 -1.4851 -2.3666
  164MOL0     H22101   0.024   4.811  12.768 -1.3760 -0.4281  0.8499
  164MOL0     H22102   0.066   4.629  12.784 -2.1036  0.5972  1.5738
  164MOL0     H22103   0.131   4.766  12.881  2.7532  1.0611 -1.0687
  164MOL0     H22104   0.408   4.306  12.873  3.0977  2.7673  1.2693
  164MOL0     H22105   0.372   4.121  13.062 -1.3677 -0.8788 -1.4701
  164MOL0     H22106   0.097   4.208  13.391 -0.9280  0.0244  0.1830
  164MOL0     H22107   0.015   4.099  13.267 -0.0087 -3.0073  0.6065
  164MOL0     H22108   0.133   3.908  13.360  1.8925  1.1555 -2.3178
  164MOL0     H22109   0.233   4.012  13.459 -0.1634  0.6270  0.6668
  164MOL0     H22110  -0.068   3.981  13.510 -0.2485  0.6029  0.0025
  164MOL0     H22111   0.059   4.080  13.608 -3.0303  0.4863  1.1018
  164MOL0     H22112   0.097   3.781  13.593 -1.7575  0.0605 -1.0370
  164MOL0     H22113   0.176   3.921  13.678 -0.8714  2.2577 -1.0080
  164MOL0     H22114   0.035   3.775  13.813  0.9838  1.6116  0.0188
  164MOL0     H22115  -0.119   3.795  13.725  0.9698 -1.4311 -0.3879
  164MOL0     H22116   0.039   4.010  13.888 -0.4268 -1.2903  1.3547
  164MOL0     H22117  -0.104   4.046  13.785  1.3557 -0.0566 -1.5294
  164MOL0     H22118  -0.077   3.857  14.029  1.2345  0.7775  0.4716
  164MOL0     H22119  -0.211   3.848  13.922  1.6297 -0.0782  1.3244
  164MOL0     H22120  -0.289   4.075  13.977 -0.0399  1.1942  0.9429
  164MOL0     H22121  -0.141   4.095  14.069 -1.0344  1.5359 -2.1534
  164MOL0     H22122   0.101   4.389  13.247  0.5474  1.0529  0.6147
  164MOL0     H22123   0.105   4.530  13.046  0.0614  0.8843  3.3828
  164MOL0     H22124   0.524   4.653  12.602 -0.3798  0.0397  0.1179
  164MOL0     H22125   0.469   4.817  12.415  2.0529  0.7602  1.1408
  164MOL0     H22126   0.025   5.556  11.280 -3.7447 -3.5805  1.8942
  164MOL0     H22127   0.237   5.534  11.125  0.9519 -4.2267 -2.1413
  164MOL0     H22128   0.497   5.499  10.854  0.0703  0.0483  0.2569
  164MOL0     H22129   0.714   5.448  10.747  0.5971 -1.7232  1.5935
  164MOL0     H22130   0.892   5.151  10.456 -0.0556 -1.9933 -1.3871
  164MOL0     H22131   0.710   5.137  10.422 -1.3465  1.5654 -0.0125
  164MOL0     H22132   0.714   5.333  10.283 -0.3197 -1.4089  1.4276
  164MOL0     H22133   0.866   5.251  10.238  0.7387  1.4047 -1.1515
  164MOL0     H22134   0.945   5.436  10.438  0.6353  0.6632 -0.7556
  164MOL0     H22135   0.823   5.525  10.349  0.9272  0.8567  1.6818
  164MOL0     H22136   0.947   5.445  10.122  0.5948  2.3400 -0.6559
  164MOL0     H22137   1.092   5.439  10.230 -1.3582 -2.9853 -1.1267
  164MOL0     H22138   1.053   5.846  10.215 -0.6901  0.3381  0.2564
  164MOL0     H22139   0.516   5.172  10.480 -0.2857  3.3508 -3.4691
  164MOL0     H22140   0.305   5.222  10.588 -1.5480  0.7073  3.3228
  165MOL0     O22141  10.150   5.499   0.295 -0.9055 -0.1683  0.4070
  165MOL0     C22142  10.253   5.572   0.312 -0.8915  0.5911 -0.9985
  165MOL0     O22143  10.262   5.697   0.275  0.4070 -0.4201 -0.0121
  165MOL0     C22144  10.177   5.743   0.187 -0.2011 -0.1464  0.5479
  165MOL0     C22145  10.220   5.733   0.058 -0.3372  1.0818  0.3037
  165MOL0     C22146  10.139   5.774  -0.041  0.2695  0.5645 -0.4121
  165MOL0     C22147  10.008   5.828  -0.013 -0.4392 -0.0833  0.4461
  165MOL0     O22148   9.915   5.857  -0.106  0.3226 -0.5631  0.5397
  165MOL0     C22149   9.951   5.848  -0.247 -0.0931 -0.2821 -0.5328
  165MOL0     C22150   9.816   5.839  -0.328  1.0551  0.1259  0.6437
  165MOL0     C22151   9.748   5.982  -0.326  0.2982 -1.0984  0.4687
  165MOL0     C22152   9.608   5.962  -0.397 -1.0506 -0.0100  0.2941
  165MOL0     C22153   9.506   6.064  -0.376 -0.7311  0.3882  0.3674
  165MOL0     C22154   9.359   6.041  -0.415  0.0907 -0.0894  0.8299
  165MOL0     C22155   9.335   6.018  -0.568  0.7724 -0.0647  0.5115
  165MOL0     C22156   9.419   6.109  -0.664  0.9261  0.9034  0.5053
  165MOL0     N22157   9.367   6.107  -0.796 -0.5266  0.2815 -0.6450
  165MOL0     C22158   9.425   6.031  -0.901  0.4799 -0.0056  0.9860
  165MOL0     C22159   9.354   6.059  -1.012  0.2896 -0.5702  0.1255
  165MOL0     C22160   9.397   6.009  -1.153  0.4657 -1.0760 -0.6571
  165MOL0     C22161   9.373   5.857  -1.181  1.2647 -0.0449 -0.9865
  165MOL0     C22162   9.489   5.770  -1.240  0.3043 -0.5216  0.2954
  165MOL0     C22163   9.589   5.724  -1.137  0.2494  0.2490 -0.5920
  165MOL0     O22164   9.678   5.818  -1.082 -0.0091 -0.6948 -0.0587
  165MOL0     C22165   9.781   5.781  -1.001 -0.5635 -0.1849 -0.3540
  165MOL0     C22166   9.818   5.873  -0.906  0.2595 -0.4037 -0.2716
  165MOL0     C22167   9.927   5.848  -0.813  0.0929 -0.0389  0.3191
  165MOL0     C22168   9.945   5.952  -0.714 -0.3541 -1.0084 -0.1059
  165MOL0     C22169   9.988   5.723  -0.818  0.9027  0.0450 -0.0885
  165MOL0     C22170  10.096   5.685  -0.732  0.1764  0.4210 -1.3885
  165MOL0     O22171  10.087   5.733  -0.604 -0.8171 -1.1005  0.1862
  165MOL0     C22172  10.205   5.757  -0.547 -0.5544  0.4762  0.2823
  165MOL0     C22173  10.295   5.658  -0.516  0.5900 -0.0734 -0.6088
  165MOL0     C22174  10.421   5.683  -0.449  0.9993  1.5410 -0.2025
  165MOL0     C22175  10.453   5.805  -0.414  0.6325 -0.0735 -0.1126
  165MOL0     O22176  10.568   5.825  -0.343 -0.3348  0.4796 -0.2059
  165MOL0     C22177  10.622   5.950  -0.290 -0.6994  0.6513  0.3119
  165MOL0     C22178  10.752   5.933  -0.211 -0.2971 -0.0316 -0.1240
  165MOL0     C22179  10.876   5.901  -0.285 -0.5357  0.1012 -0.4175
  165MOL0     C22180  10.998   5.896  -0.194 -0.5036  0.2657  0.5241
  165MOL0     C22181  11.128   5.824  -0.262  1.1969  0.1278  0.2966
  165MOL0     C22182  11.192   5.915  -0.360 -0.7831 -0.7834  0.5535
  165MOL0     C22183  11.321   5.850  -0.423  0.1894  0.2502 -0.3073
  165MOL0     C22184  11.387   5.931  -0.536  0.1906 -0.4977 -0.5679
  165MOL0    Cl22185  11.456   6.086  -0.468  0.0874 -0.2659 -0.2199
  165MOL0     C22186  10.360   5.905  -0.426 -0.1834 -0.4193  0.0779
  165MOL0     C22187  10.239   5.885  -0.501 -0.8202 -0.7766 -0.4356
  165MOL0     O22188  10.185   5.610  -0.783  0.1417  0.6542  0.0410
  165MOL0     C22189   9.924   5.612  -0.892  0.7086  0.2196  0.1676
  165MOL0     C22190   9.825   5.644  -0.984  0.0656 -0.3531 -0.4615
  165MOL0     N22191   9.254   6.151  -0.967  0.2293  0.1354  0.0892
  165MOL0     N22192   9.277   6.193  -0.843  0.5084  0.4248 -0.4017
  165MOL0     C22193   9.966   5.827   0.120 -0.4418 -0.2030 -0.3602
  165MOL0     C22194  10.050   5.783   0.219  0.6611  0.6765 -0.4710
  165MOL0     C22195  10.369   5.505   0.376 -0.1858 -0.0832 -0.6559
  165MOL0     C22196  10.363   5.374   0.428 -0.6489  0.4659  0.3529
  165MOL0     C22197  10.467   5.312   0.497  0.7851 -0.1713 -0.1484
  165MOL0     C22198  10.588   5.383   0.523 -0.0246 -0.3325  0.0886
  165MOL0     O22199  10.685   5.335   0.608 -0.1259  0.0682  0.7751
  165MOL0     C22200  10.637   5.300   0.738 -0.1483  0.8040 -0.4471
  165MOL0     C22201  10.749   5.218   0.809 -0.8791 -0.5051  0.5713
  165MOL0     C22202  10.837   5.319   0.886  0.0042 -0.4733 -0.6641
  165MOL0     C22203  10.949   5.238   0.961  0.8171 -0.1320 -0.2909
  165MOL0     C22204  10.986   5.325   1.077 -0.2211 -0.0484 -1.0564
  165MOL0     C22205  10.991   5.380   1.184  0.5868  0.7382 -0.7336
  165MOL0     C22206  10.600   5.511   0.467  0.2344  0.6796  1.3417
  165MOL0     C22207  10.493   5.567   0.390 -0.3570 -1.1614  0.0944
  165MOL0     H22208  10.316   5.689   0.032 -2.2442 -2.3525 -1.5381
  165MOL0     H22209  10.173   5.764  -0.143  0.3847  2.1649 -0.5592
  165MOL0     H22210   9.996   5.938  -0.290 -2.8185  1.3805 -0.1538
  165MOL0     H22211  10.013   5.760  -0.266  1.0117  0.1288  0.9614
  165MOL0     H22212   9.840   5.821  -0.433 -0.9086 -1.8247  0.4574
  165MOL0     H22213   9.750   5.759  -0.293  2.6059 -1.4620  0.0597
  165MOL0     H22214   9.730   6.019  -0.225  1.0177  1.6629 -0.3437
  165MOL0     H22215   9.822   6.040  -0.382  1.3153 -1.4423  1.4093
  165MOL0     H22216   9.614   5.941  -0.505 -2.2726  0.9470  0.0172
  165MOL0     H22217   9.562   5.872  -0.357  0.9268  0.0621  3.0006
  165MOL0     H22218   9.497   6.071  -0.268 -3.1931 -0.3869  0.2708
  165MOL0     H22219   9.543   6.157  -0.422 -0.6942 -0.0396 -0.4781
  165MOL0     H22220   9.326   5.961  -0.349 -0.6037  0.4616  1.1701
  165MOL0     H22221   9.298   6.127  -0.384 -2.5788 -1.1481 -1.1187
  165MOL0     H22222   9.349   5.910  -0.573 -1.7062 -0.4219 -0.1642
  165MOL0     H22223   9.231   6.043  -0.592  0.5428 -0.4603  1.0623
  165MOL0     H22224   9.522   6.074  -0.667  0.5488 -0.1483 -1.9488
  165MOL0     H22225   9.416   6.211  -0.623 -3.0103  0.8849  0.6789
  165MOL0     H22226   9.512   5.967  -0.908  0.6520  0.4174 -3.3088
  165MOL0     H22227   9.354   6.076  -1.227 -1.8047 -0.7696  0.8330
  165MOL0     H22228   9.506   6.017  -1.157  0.5605 -2.4128 -1.7209
  165MOL0     H22229   9.298   5.848  -1.260  0.8366 -0.7966 -0.5047
  165MOL0     H22230   9.331   5.828  -1.084  2.2506  3.9604  0.8579
  165MOL0     H22231   9.532   5.819  -1.328 -0.0903  0.3875  0.5981
  165MOL0     H22232   9.444   5.680  -1.282  0.1222 -0.8870  1.2599
  165MOL0     H22233   9.649   5.649  -1.188 -0.7086 -2.5052  2.0581
  165MOL0     H22234   9.543   5.675  -1.051 -1.6797 -0.1863 -1.8040
  165MOL0     H22235   9.753   5.957  -0.884 -0.1596 -0.6728 -0.4612
  165MOL0     H22236   9.904   5.921  -0.618  1.9783 -1.1723  0.9174
  165MOL0     H22237  10.049   5.979  -0.694 -1.1020  1.1413  1.1297
  165MOL0     H22238   9.894   6.044  -0.743  2.0991 -0.0707 -1.7381
  165MOL0     H22239  10.277   5.554  -0.539  0.3436 -1.0527  3.2698
  165MOL0     H22240  10.485   5.596  -0.435 -0.7488 -0.1622 -2.1385
  165MOL0     H22241  10.649   6.026  -0.364  1.1446  1.5488  1.8297
  165MOL0     H22242  10.543   5.989  -0.225 -1.1683 -3.1375  2.2929
  165MOL0     H22243  10.779   6.019  -0.149  2.0786 -1.0027  0.3250
  165MOL0     H22244  10.737   5.850  -0.141  0.2165 -0.0864 -0.0673
  165MOL0     H22245  10.884   5.956  -0.379  0.1057  0.4126 -0.1811
  165MOL0     H22246  10.868   5.801  -0.330 -0.0937  0.3025 -0.9400
  165MOL0     H22247  11.015   5.996  -0.154 -0.2465  1.0705 -1.4716
  165MOL0     H22248  10.977   5.831  -0.109  0.6009  1.0563  1.4327
  165MOL0     H22249  11.100   5.726  -0.301 -0.5334  0.1835  1.2696
  165MOL0     H22250  11.198   5.819  -0.178  0.6902  1.8579  0.8660
  165MOL0     H22251  11.127   5.941  -0.444 -0.6266 -0.9856  0.3667
  165MOL0     H22252  11.202   6.011  -0.310 -3.0292  0.5419 -1.3136
  165MOL0     H22253  11.298   5.756  -0.474  2.9977 -0.3029 -0.7050
  165MOL0     H22254  11.385   5.838  -0.335 -2.4363  0.6673  1.7865
  165MOL0     H22255  11.310   5.954  -0.609  0.4905  0.3410 -0.6329
  165MOL0     H22256  11.477   5.880  -0.571  0.7689 -2.0729  2.7824
  165MOL0     H22257  10.386   6.007  -0.399 -0.6907 -0.7016  1.7668
  165MOL0     H22258  10.166   5.966  -0.511 -0.1690 -0.1697 -0.3566
  165MOL0     H22259   9.963   5.510  -0.896  0.6934  0.2459 -1.3268
  165MOL0     H22260   9.783   5.560  -1.038  2.9317 -0.1508 -3.3217
  165MOL0     H22261   9.871   5.875   0.143 -0.6309 -1.3395  1.3773
  165MOL0     H22262  10.013   5.791   0.321  0.0766 -1.2404 -0.4907
  165MOL0     H22263  10.279   5.309   0.412  1.4475 -1.9010 -2.0248
  165MOL0     H22264  10.457   5.211   0.537 -2.0344 -0.0203 -0.2317
  165MOL0     H22265  10.612   5.394   0.789 -0.3766 -0.2910  1.5436
  165MOL0     H22266  10.551   5.235   0.724  1.5963 -1.5568 -0.7884
  165MOL0     H22267  10.816   5.174   0.734  2.2011  5.3373 -0.7140
  165MOL0     H22268  10.706   5.136   0.866 -0.0019 -1.9417 -0.7484
  165MOL0     H22269  10.777   5.365   0.964 -0.3336 -1.1584 -0.5118
  165MOL0     H22270  10.880   5.397   0.822  0.6570 -2.0514 -2.2659
  165MOL0     H22271  11.030   5.225   0.889 -0.3784  1.5609 -2.0107
  165MOL0     H22272  10.921   5.140   1.002 -1.7389  1.0986  1.1397
  165MOL0     H22273  11.001   5.417   1.284  4.1132 -1.6918 -0.0009
  165MOL0     H22274  10.698   5.552   0.488  1.5474 -1.6196  0.1019
  165MOL0     H22275  10.494   5.663   0.340 -0.3862 -2.1224 -1.8228
  166MOL0     O22276  10.793   1.371   2.740  0.4599 -0.6172  0.5283
  166MOL0     C22277  10.815   1.369   2.858 -0.0190 -0.2195  0.5595
  166MOL0     O22278  10.734   1.316   2.958 -0.8846  0.2781  0.7934
  166MOL0     C22279  10.640   1.229   2.913  0.0483 -0.3222 -0.6554
  166MOL0     C22280  10.518   1.271   2.963 -0.6591  0.4720  0.2722
  166MOL0     C22281  10.402   1.201   2.917  0.2128  0.1524 -0.9690
  166MOL0     C22282  10.407   1.102   2.826  0.8055 -0.4264  0.0696
  166MOL0     O22283  10.284   1.046   2.790 -0.9683 -0.0863  0.5202
  166MOL0     C22284  10.245   0.920   2.852  0.4260  0.5448  0.5563
  166MOL0     C22285  10.120   0.852   2.785  0.3910 -0.2843  0.2971
  166MOL0     C22286  10.159   0.759   2.665 -0.3556  0.5919 -0.2134
  166MOL0     C22287  10.278   0.662   2.686  0.1777  0.4365 -0.4050
  166MOL0     C22288  10.274   0.545   2.581  0.1617 -0.2289  0.0456
  166MOL0     C22289  10.157   0.454   2.597  1.0513  0.4755  1.2484
  166MOL0     C22290  10.165   0.343   2.482 -0.5343  0.3442  0.4503
  166MOL0     C22291  10.055   0.234   2.506  1.0509  0.0873  0.1363
  166MOL0     N22292  10.056   0.181   2.648 -0.0847 -0.4028  1.2619
  166MOL0     C22293  10.168   0.130   2.715  0.4591 -0.8350  0.0627
  166MOL0     C22294  10.126   0.108   2.845 -0.0392  0.3306 -0.8483
  166MOL0     C22295  10.206   0.041   2.946  0.3432 -0.1352  0.5651
  166MOL0     C22296  10.204  -0.105   2.924 -0.7664 -0.2948 -0.2129
  166MOL0     C22297  10.306  -0.154   3.027 -0.4454  0.3457 -0.3781
  166MOL0     C22298  10.342  -0.304   3.021  0.0472 -0.4146 -0.4191
  166MOL0     O22299  10.426  -0.339   2.901  0.5230 -0.3146  0.0208
  166MOL0     C22300  10.484  -0.469   2.904 -1.1359 -0.7013 -0.0731
  166MOL0     C22301  10.415  -0.579   2.955  0.0532  0.3151 -0.4779
  166MOL0     C22302  10.478  -0.709   2.962  0.0882 -0.0980  0.6058
  166MOL0     C22303  10.400  -0.824   3.015  0.8937  0.9389  0.2476
  166MOL0     C22304  10.612  -0.727   2.921  0.0260  0.1562  0.1102
  166MOL0     C22305  10.702  -0.849   2.924  0.8182 -1.2033  0.2088
  166MOL0     O22306  10.839  -0.815   2.919  0.0288  0.0067 -0.3520
  166MOL0     C22307  10.930  -0.911   2.916 -0.2665 -0.2665 -0.0914
  166MOL0     C22308  11.015  -0.928   2.805 -0.3122 -0.9845  0.2633
  166MOL0     C22309  11.116  -1.016   2.796 -0.5513  0.5868 -1.0917
  166MOL0     C22310  11.146  -1.100   2.904  0.4147 -0.3512  0.6259
  166MOL0     O22311  11.246  -1.192   2.867  0.5143 -0.8443  0.2619
  166MOL0     C22312  11.292  -1.277   2.967 -0.5794  0.2314  0.3338
  166MOL0     C22313  11.413  -1.353   2.922  0.0464 -0.3273 -0.1984
  166MOL0     C22314  11.533  -1.270   2.949 -0.4513 -0.0763  0.0702
  166MOL0     C22315  11.651  -1.332   2.873  0.5700  0.6850  0.7589
  166MOL0     C22316  11.784  -1.253   2.891 -0.5454  0.5792  0.0292
  166MOL0     C22317  11.854  -1.275   3.032 -0.8196 -0.6018  1.2188
  166MOL0     C22318  11.871  -1.142   3.106  0.3405  1.4229  0.0717
  166MOL0     C22319  11.926  -1.164   3.243 -0.1947  0.4087 -1.0772
  166MOL0    Cl22320  12.080  -1.250   3.238  0.6194  0.2713  0.0121
  166MOL0     C22321  11.073  -1.091   3.020  0.1361  0.2732  0.2471
  166MOL0     C22322  10.959  -1.001   3.020 -0.1244 -0.3050 -0.0331
  166MOL0     O22323  10.656  -0.961   2.928 -0.1217 -0.0490 -0.3337
  166MOL0     C22324  10.680  -0.610   2.866 -0.0022  0.0400 -0.1201
  166MOL0     C22325  10.618  -0.481   2.852  0.5926 -0.1786  0.3734
  166MOL0     N22326  10.001   0.163   2.855 -0.0770 -1.2468 -0.4684
  166MOL0     N22327   9.958   0.196   2.741 -0.5333  0.2222  0.5158
  166MOL0     C22328  10.532   1.052   2.778 -0.3284 -0.0701 -0.4971
  166MOL0     C22329  10.646   1.113   2.830 -0.5455  1.0374  0.2571
  166MOL0     C22330  10.921   1.459   2.894  0.0443 -0.2435 -0.2619
  166MOL0     C22331  10.912   1.521   3.024 -0.2273  0.4544  0.0594
  166MOL0     C22332  11.008   1.617   3.061 -0.4053  0.1100  0.5075
  166MOL0     C22333  11.123   1.632   2.975 -0.8031  0.3696  0.0730
  166MOL0     O22334  11.236   1.714   2.997  0.2631  0.4736  0.3885
  166MOL0     C22335  11.264   1.760   3.122 -0.3321  0.2180 -0.7292
  166MOL0     C22336  11.207   1.898   3.139  0.1075  0.1090 -0.7063
  166MOL0     C22337  11.223   1.945   3.287 -0.4451 -0.6961  0.1068
  166MOL0     C22338  11.084   1.982   3.332  0.5187  0.0464 -0.1257
  166MOL0     C22339  11.023   1.856   3.388  1.2930  1.2517 -0.4541
  166MOL0     C22340  10.975   1.755   3.435  0.4649  0.6191  0.2983
  166MOL0     C22341  11.133   1.563   2.852  0.1064 -0.6774 -0.1511
  166MOL0     C22342  11.029   1.478   2.810 -0.9833 -0.0719 -1.0871
  166MOL0     H22343  10.512   1.356   3.030 -1.8844  0.4365  0.2324
  166MOL0     H22344  10.303   1.223   2.954 -0.1636 -1.2496 -1.0597
  166MOL0     H22345  10.329   0.850   2.860  1.8589  2.3710  2.8161
  166MOL0     H22346  10.225   0.946   2.957 -1.2941  0.3678  0.2960
  166MOL0     H22347  10.051   0.795   2.848 -1.4852  0.7440 -0.7237
  166MOL0     H22348  10.049   0.931   2.758 -1.2959 -1.5072  0.9609
  166MOL0     H22349  10.070   0.707   2.629  1.8113 -1.4280 -3.0900
  166MOL0     H22350  10.186   0.826   2.583 -0.5030 -2.0925 -2.6088
  166MOL0     H22351  10.369   0.720   2.668  0.3395 -0.1900 -1.7421
  166MOL0     H22352  10.279   0.615   2.784  0.1305  1.1886 -0.0354
  166MOL0     H22353  10.263   0.571   2.475  4.1803 -3.7715 -1.5291
  166MOL0     H22354  10.367   0.487   2.575  1.8602  2.4909 -3.6904
  166MOL0     H22355  10.173   0.403   2.692 -0.7304 -0.3787  1.1244
  166MOL0     H22356  10.062   0.507   2.604  0.5555 -0.2448  0.2177
  166MOL0     H22357  10.149   0.384   2.382 -1.3870 -1.2739 -0.1211
  166MOL0     H22358  10.260   0.289   2.493 -1.0838 -0.2990  2.5950
  166MOL0     H22359  10.077   0.153   2.436  3.6030  0.1423  0.7628
  166MOL0     H22360   9.959   0.275   2.473  0.5674 -0.4642  0.8178
  166MOL0     H22361  10.267   0.115   2.673  1.0616  1.5417  0.4860
  166MOL0     H22362  10.307   0.080   2.928  0.6065 -0.9670  0.1882
  166MOL0     H22363  10.174   0.065   3.047 -0.4408  3.6997 -0.4507
  166MOL0     H22364  10.249  -0.126   2.827 -2.7251 -0.3039 -1.1829
  166MOL0     H22365  10.100  -0.140   2.929 -2.3915  4.1046  2.2457
  166MOL0     H22366  10.275  -0.131   3.129 -1.2805 -1.1072 -0.2744
  166MOL0     H22367  10.395  -0.095   3.004  0.9161 -1.1130  0.9044
  166MOL0     H22368  10.250  -0.362   3.007 -0.6237  0.6534 -0.4764
  166MOL0     H22369  10.382  -0.353   3.111 -0.3435 -1.5879 -0.8594
  166MOL0     H22370  10.308  -0.575   2.974  0.0841 -1.7793  0.4384
  166MOL0     H22371  10.427  -0.925   2.985 -0.7138  1.4462 -3.3274
  166MOL0     H22372  10.391  -0.816   3.124 -3.6823 -1.1151  0.2517
  166MOL0     H22373  10.299  -0.813   2.975  0.4880 -2.3988  0.1072
  166MOL0     H22374  11.000  -0.864   2.718 -1.9838  0.4122  1.4815
  166MOL0     H22375  11.176  -1.036   2.708  3.6288 -3.1095  2.0835
  166MOL0     H22376  11.319  -1.236   3.065  1.5163 -1.2669  0.4580
  166MOL0     H22377  11.214  -1.353   2.982 -1.2476  0.2501 -2.4961
  166MOL0     H22378  11.427  -1.444   2.982  0.1663 -1.4591 -1.8733
  166MOL0     H22379  11.407  -1.378   2.816  2.6466 -0.9612 -0.2588
  166MOL0     H22380  11.562  -1.258   3.054  0.4573 -2.8474  0.1922
  166MOL0     H22381  11.519  -1.171   2.903 -1.5561 -0.5374 -0.6220
  166MOL0     H22382  11.652  -1.437   2.901 -2.0116 -0.7685 -3.5176
  166MOL0     H22383  11.617  -1.340   2.769 -0.1123  1.6222  0.8909
  166MOL0     H22384  11.751  -1.149   2.887 -2.7327 -0.0592  0.5675
  166MOL0     H22385  11.854  -1.260   2.807  3.1055  2.5933  2.6165
  166MOL0     H22386  11.799  -1.344   3.096 -0.1311 -0.6398  1.7853
  166MOL0     H22387  11.949  -1.322   3.004 -1.5002  0.6484 -4.2030
  166MOL0     H22388  11.774  -1.096   3.128  0.2634  1.2524  0.0939
  166MOL0     H22389  11.935  -1.078   3.046  2.2621 -0.8022 -0.3939
  166MOL0     H22390  11.847  -1.225   3.290  1.8929 -1.5416  0.1200
  166MOL0     H22391  11.933  -1.068   3.295 -1.0625  0.1391 -0.4323
  166MOL0     H22392  11.076  -1.160   3.103  0.7704  1.4888  1.2712
  166MOL0     H22393  10.894  -0.990   3.106 -0.6894 -2.4212 -0.1497
  166MOL0     H22394  10.780  -0.613   2.824 -0.4769  0.5221 -1.3314
  166MOL0     H22395  10.668  -0.397   2.805  0.5698 -1.2923 -1.7789
  166MOL0     H22396  10.546   0.974   2.704 -1.6570  1.2432 -2.1995
  166MOL0     H22397  10.745   1.073   2.810  0.2836  2.7764  0.5826
  166MOL0     H22398  10.820   1.516   3.080 -0.9507  3.6357 -0.6182
  166MOL0     H22399  10.976   1.686   3.139  1.7791  2.0544 -0.1901
  166MOL0     H22400  11.248   1.691   3.206  0.4364  1.2244  0.2820
  166MOL0     H22401  11.372   1.779   3.119 -0.4931  2.3983  2.5684
  166MOL0     H22402  11.104   1.903   3.102  0.3172  1.0556 -1.1989
  166MOL0     H22403  11.263   1.964   3.072  0.1676 -0.8697 -1.6566
  166MOL0     H22404  11.290   2.031   3.292 -0.8867 -0.3787  0.6602
  166MOL0     H22405  11.266   1.864   3.347 -1.0356 -0.3944  0.9424
  166MOL0     H22406  11.022   2.023   3.251 -0.1736  0.3487  0.5418
  166MOL0     H22407  11.099   2.053   3.413  1.9725 -0.4867  0.0886
  166MOL0     H22408  10.926   1.681   3.494 -1.2354  1.3916 -0.1067
  166MOL0     H22409  11.224   1.568   2.794  0.4037 -0.9029  0.2883
  166MOL0     H22410  11.035   1.420   2.719 -0.4782 -3.2865  0.8341
  167MOL0     O22411  11.149   9.172   0.907  0.3960  0.1868 -0.0472
  167MOL0     C22412  11.092   9.107   0.818 -0.6028 -0.5302  0.8514
  167MOL0     O22413  11.113   8.976   0.776 -0.3755  0.4768  0.5973
  167MOL0     C22414  11.192   8.892   0.852  0.2201  0.1068 -0.6316
  167MOL0     C22415  11.296   8.925   0.942  0.9297 -0.2551 -0.2627
  167MOL0     C22416  11.358   8.826   1.012 -0.7242 -0.5427 -0.7443
  167MOL0     C22417  11.309   8.700   1.016  0.2066 -0.1049 -0.2681
  167MOL0     O22418  11.372   8.616   1.093  0.1299  0.0526 -0.2234
  167MOL0     C22419  11.291   8.553   1.197 -0.2936  0.5817  0.5005
  167MOL0     C22420  11.384   8.452   1.271 -1.1091 -0.4669  0.7357
  167MOL0     C22421  11.325   8.413   1.402  0.1385 -1.0510 -0.5237
  167MOL0     C22422  11.386   8.293   1.466 -0.2888  0.0598 -0.1244
  167MOL0     C22423  11.330   8.273   1.617  0.4295 -0.0937 -0.3046
  167MOL0     C22424  11.389   8.361   1.721 -0.7009  0.5177 -0.1770
  167MOL0     C22425  11.503   8.291   1.781 -0.3103 -0.1177  0.2349
  167MOL0     C22426  11.595   8.378   1.861 -0.1594 -0.0722 -0.1847
  167MOL0     N22427  11.528   8.481   1.942 -0.1603 -0.5855 -0.5284
  167MOL0     C22428  11.503   8.609   1.905 -0.5689 -0.3207 -0.0517
  167MOL0     C22429  11.426   8.660   2.003  0.0862 -0.1477  0.4115
  167MOL0     C22430  11.371   8.797   2.021  0.6978  0.6056  0.7724
  167MOL0     C22431  11.264   8.842   1.918  0.8599 -0.7649 -0.4422
  167MOL0     C22432  11.200   8.973   1.980 -0.1737  0.8142 -0.3771
  167MOL0     C22433  11.146   9.069   1.864  0.3026 -0.1324 -1.0028
  167MOL0     O22434  11.249   9.132   1.795 -1.0473 -0.4098  0.6241
  167MOL0     C22435  11.213   9.222   1.702  0.5865 -0.3112  0.2894
  167MOL0     C22436  11.239   9.359   1.735 -0.6355  0.0299  0.1756
  167MOL0     C22437  11.211   9.460   1.644 -0.4629  0.2184 -0.4045
  167MOL0     C22438  11.266   9.601   1.687 -0.2628  0.0391  1.0090
  167MOL0     C22439  11.135   9.432   1.525 -0.3096  0.1153  0.1001
  167MOL0     C22440  11.083   9.543   1.434  0.3012 -0.6910  0.3942
  167MOL0     O22441  11.080   9.509   1.303 -0.0333 -0.5300  0.1712
  167MOL0     C22442  11.043   9.599   1.196  0.6325  0.4061 -0.7868
  167MOL0     C22443  11.050   9.545   1.068 -0.4841  0.9734 -0.8506
  167MOL0     C22444  11.014   9.613   0.956 -0.8880  0.2586 -0.7639
  167MOL0     C22445  10.978   9.745   0.962  0.1361 -1.1831 -0.5541
  167MOL0     O22446  10.950   9.841   0.868 -0.0347 -0.1262 -0.3887
  167MOL0     C22447  10.962   9.793   0.732 -0.2031 -0.5813  0.4027
  167MOL0     C22448  10.943   9.916   0.636  0.0902  0.2614 -0.4830
  167MOL0     C22449  10.835   9.898   0.536  0.5587 -0.1561 -0.0660
  167MOL0     C22450  10.888   9.811   0.421 -0.3466  0.7543  0.2436
  167MOL0     C22451  10.789   9.811   0.308 -0.5894  0.7812  0.0105
  167MOL0     C22452  10.824   9.727   0.179 -0.0889  0.2985  0.2091
  167MOL0     C22453  10.943   9.771   0.088  0.3606 -0.8548  0.2136
  167MOL0     C22454  10.900   9.899   0.012 -0.3841 -0.3627 -0.7471
  167MOL0    Cl22455  11.015   9.918  -0.114 -0.0725 -0.0484  0.3407
  167MOL0     C22456  10.977   9.806   1.090 -0.1887 -0.8059  0.2001
  167MOL0     C22457  11.004   9.732   1.209  1.1680 -0.4244  0.1618
  167MOL0     O22458  11.058   9.652   1.474  0.4471  0.7933  0.0068
  167MOL0     C22459  11.109   9.295   1.498  0.2661 -0.4630 -0.3634
  167MOL0     C22460  11.146   9.188   1.581  0.0910 -1.0632  0.6164
  167MOL0     N22461  11.402   8.560   2.092  0.3545  0.4925 -0.9470
  167MOL0     N22462  11.471   8.452   2.065  0.7343 -0.0160 -0.1916
  167MOL0     C22463  11.209   8.660   0.927 -0.1625 -0.4751 -0.2995
  167MOL0     C22464  11.157   8.756   0.838 -0.2409 -0.9027  0.4255
  167MOL0     C22465  10.993   9.196   0.753  0.5636  0.2563 -0.0778
  167MOL0     C22466  10.862   9.142   0.705  0.5815 -0.0396  1.3538
  167MOL0     C22467  10.782   9.207   0.621  1.3068 -0.0819  0.1307
  167MOL0     C22468  10.814   9.339   0.589 -0.2390  1.1230 -0.7765
  167MOL0     O22469  10.739   9.414   0.514 -0.3573 -0.2326 -0.1185
  167MOL0     C22470  10.637   9.493   0.572  0.4014  0.4750 -0.5264
  167MOL0     C22471  10.506   9.404   0.578 -0.2282 -0.5464 -1.0797
  167MOL0     C22472  10.446   9.400   0.446  0.7653 -0.0088  0.3758
  167MOL0     C22473  10.338   9.284   0.449  0.1001 -0.0588  0.1461
  167MOL0     C22474  10.230   9.333   0.531  0.3098  1.0130  0.9911
  167MOL0     C22475  10.138   9.393   0.594  0.7607  0.0865  0.2828
  167MOL0     C22476  10.937   9.397   0.629 -0.6693 -1.1238 -0.2353
  167MOL0     C22477  11.030   9.327   0.714  0.3302  1.3859 -0.2745
  167MOL0     H22478  11.325   9.029   0.946 -1.4549  0.7466 -4.0916
  167MOL0     H22479  11.435   8.849   1.085 -2.9324  0.1679  1.4690
  167MOL0     H22480  11.249   8.619   1.274 -1.2729  0.9029 -0.2933
  167MOL0     H22481  11.210   8.495   1.154  0.0509 -0.4434  1.1927
  167MOL0     H22482  11.389   8.368   1.201 -3.4589 -1.0029  1.1366
  167MOL0     H22483  11.479   8.503   1.292 -0.4140 -0.3341 -2.2639
  167MOL0     H22484  11.318   8.499   1.469  1.2166  0.2674 -2.0024
  167MOL0     H22485  11.221   8.383   1.384 -0.0836 -0.7133  0.1952
  167MOL0     H22486  11.372   8.207   1.401 -1.2997  1.2309 -1.5346
  167MOL0     H22487  11.492   8.307   1.490 -0.1855 -4.0626  2.8451
  167MOL0     H22488  11.222   8.287   1.616  0.3168 -0.8793  0.1482
  167MOL0     H22489  11.341   8.169   1.650 -2.0990  0.8925  4.5465
  167MOL0     H22490  11.428   8.456   1.683  0.7673  0.9233  2.1524
  167MOL0     H22491  11.315   8.375   1.801  1.8236 -2.0862  2.9273
  167MOL0     H22492  11.463   8.216   1.851  1.4302 -2.0951 -0.8051
  167MOL0     H22493  11.573   8.236   1.718  0.3833 -0.4634  1.2818
  167MOL0     H22494  11.662   8.430   1.792 -0.0074  0.9739  0.7325
  167MOL0     H22495  11.662   8.316   1.921 -0.8188 -0.3860  0.2305
  167MOL0     H22496  11.523   8.659   1.811 -2.5857  1.6628  0.4969
  167MOL0     H22497  11.335   8.811   2.124 -2.5720 -1.2837  0.0060
  167MOL0     H22498  11.447   8.872   1.997 -1.0845  2.0135 -0.7906
  167MOL0     H22499  11.183   8.769   1.913 -1.6055  1.8214 -0.6898
  167MOL0     H22500  11.315   8.859   1.823  1.6350  0.8490  0.2129
  167MOL0     H22501  11.287   9.026   2.019  2.5420 -0.3865 -4.0980
  167MOL0     H22502  11.128   8.942   2.056 -1.8506 -0.2697 -2.2980
  167MOL0     H22503  11.084   9.149   1.904  1.2319  1.9192 -3.4587
  167MOL0     H22504  11.074   9.015   1.802 -1.4069  2.0522 -1.0064
  167MOL0     H22505  11.289   9.377   1.830  1.9328  0.2869 -1.1354
  167MOL0     H22506  11.330   9.647   1.612  2.0569 -4.3630 -0.0248
  167MOL0     H22507  11.177   9.663   1.705  0.6359  2.0314 -0.9940
  167MOL0     H22508  11.308   9.594   1.788 -0.6835 -1.2705  1.1087
  167MOL0     H22509  11.060   9.437   1.058 -1.5953  0.9687 -2.2852
  167MOL0     H22510  11.035   9.572   0.858 -1.9624  0.3548 -1.0539
  167MOL0     H22511  11.063   9.756   0.714  0.5149  1.5771 -0.3335
  167MOL0     H22512  10.885   9.718   0.712  0.9446 -1.7780  0.3658
  167MOL0     H22513  10.932  10.012   0.689 -0.6342 -0.8138  1.4211
  167MOL0     H22514  11.033   9.933   0.576  0.0671  1.8640 -0.1139
  167MOL0     H22515  10.809   9.995   0.493 -1.0962 -1.0046 -1.0926
  167MOL0     H22516  10.748   9.857   0.588 -1.4967  1.9075 -1.6531
  167MOL0     H22517  10.986   9.839   0.382  0.0755 -3.8967 -2.9096
  167MOL0     H22518  10.894   9.707   0.454 -1.2850 -0.9466 -4.2045
  167MOL0     H22519  10.781   9.917   0.283 -0.9582  0.1003 -3.2375
  167MOL0     H22520  10.691   9.773   0.338 -0.5360 -1.4087 -2.1828
  167MOL0     H22521  10.855   9.623   0.190  1.1510 -0.3690 -6.0449
  167MOL0     H22522  10.738   9.715   0.112  0.5754  2.2639 -1.0817
  167MOL0     H22523  10.953   9.689   0.017 -2.1546 -1.0848  0.0415
  167MOL0     H22524  11.036   9.797   0.139 -1.1511  2.8748  1.4606
  167MOL0     H22525  10.901   9.993   0.069 -2.0707 -0.7125 -0.1053
  167MOL0     H22526  10.803   9.890  -0.038  0.1786 -1.8899 -1.6154
  167MOL0     H22527  10.972   9.914   1.085 -1.1258 -0.7970  1.0024
  167MOL0     H22528  11.002   9.791   1.299  1.2927  1.0011 -0.7399
  167MOL0     H22529  11.038   9.272   1.419 -2.5935  2.0412  1.2466
  167MOL0     H22530  11.098   9.091   1.573 -4.3300  0.9087  0.8185
  167MOL0     H22531  11.168   8.560   0.938  1.7580 -1.0924  2.4636
  167MOL0     H22532  11.082   8.732   0.764 -0.8291  0.8383  0.4155
  167MOL0     H22533  10.840   9.036   0.715  1.3535 -0.3359  0.1087
  167MOL0     H22534  10.691   9.159   0.586  3.5196 -2.0475 -3.4864
  167MOL0     H22535  10.667   9.537   0.668  3.1352  6.1261 -3.4431
  167MOL0     H22536  10.623   9.592   0.529  3.0161  1.6605  1.0776
  167MOL0     H22537  10.439   9.451   0.650  1.3943  1.3176 -0.7084
  167MOL0     H22538  10.527   9.303   0.614  0.1949 -0.0699  0.0381
  167MOL0     H22539  10.517   9.367   0.369 -1.3348 -0.3252 -1.5404
  167MOL0     H22540  10.404   9.497   0.419 -3.0467 -1.7447 -0.5834
  167MOL0     H22541  10.372   9.188   0.488 -0.4170 -0.0603  0.6012
  167MOL0     H22542  10.307   9.266   0.346 -3.0916  0.3799  0.9311
  167MOL0     H22543  10.073   9.453   0.654  3.9773  1.5256  2.6579
  167MOL0     H22544  10.964   9.494   0.588 -1.6465  1.6911  5.0174
  167MOL0     H22545  11.121   9.378   0.745  1.4057 -1.4559  1.6465
  168MOL0     O22546   1.046   2.185   6.469 -0.1440 -0.6642 -0.6091
  168MOL0     C22547   1.090   2.297   6.480  0.0815  0.1670  0.4954
  168MOL0     O22548   1.155   2.367   6.380 -0.4392 -0.0206  0.3087
  168MOL0     C22549   1.211   2.302   6.272  0.2185 -0.4701  0.0257
  168MOL0     C22550   1.220   2.369   6.155 -0.8161 -0.8009 -0.4151
  168MOL0     C22551   1.273   2.321   6.038  0.3874 -0.4066 -0.6117
  168MOL0     C22552   1.330   2.198   6.038 -0.2390  0.1879 -0.3378
  168MOL0     O22553   1.396   2.147   5.927  0.2571  0.3882 -0.2258
  168MOL0     C22554   1.428   2.009   5.906  0.1667  0.4625  0.5579
  168MOL0     C22555   1.451   1.976   5.758  0.7274 -1.1925 -0.9194
  168MOL0     C22556   1.502   1.839   5.729  0.5677  0.2421  0.2951
  168MOL0     C22557   1.552   1.832   5.589  0.6432  0.6186 -0.4747
  168MOL0     C22558   1.605   1.697   5.548  0.0028  0.1107  0.2638
  168MOL0     C22559   1.745   1.661   5.599  0.1186 -0.9061  0.3053
  168MOL0     C22560   1.797   1.529   5.549  0.7080 -0.9120 -0.5496
  168MOL0     C22561   1.929   1.491   5.620  0.4096 -0.9189 -0.0304
  168MOL0     N22562   1.973   1.360   5.586  0.4993 -0.3632 -0.3621
  168MOL0     C22563   2.051   1.306   5.489 -1.3459 -1.0737  0.0192
  168MOL0     C22564   2.045   1.173   5.485  0.8081 -0.5304 -0.4932
  168MOL0     C22565   2.105   1.086   5.381 -0.2551 -0.0923 -0.3550
  168MOL0     C22566   2.024   1.096   5.257  0.1598 -0.3303 -0.4324
  168MOL0     C22567   2.081   1.023   5.135 -0.1480  0.8491  0.5837
  168MOL0     C22568   1.987   1.011   5.017 -0.3620 -0.5822  0.3249
  168MOL0     O22569   2.065   0.948   4.918  1.0328  0.3464 -0.2680
  168MOL0     C22570   2.010   0.920   4.796  0.0539 -0.0831  0.4336
  168MOL0     C22571   1.876   0.925   4.767 -0.2447  0.5264  0.0171
  168MOL0     C22572   1.831   0.886   4.637 -0.7306  0.5696  0.1403
  168MOL0     C22573   1.686   0.873   4.618 -0.5208 -0.0847  0.1139
  168MOL0     C22574   1.924   0.873   4.528 -0.2442 -0.3547 -1.1639
  168MOL0     C22575   1.891   0.865   4.388 -0.3140 -0.0447  1.3326
  168MOL0     O22576   2.001   0.824   4.307  0.9252  0.2347 -0.4301
  168MOL0     C22577   1.978   0.797   4.178  0.0361  0.3090  0.1223
  168MOL0     C22578   1.980   0.657   4.138  0.2000 -0.4006 -0.0687
  168MOL0     C22579   1.939   0.626   4.006 -1.1027  0.0988 -0.8187
  168MOL0     C22580   1.916   0.732   3.914 -0.3292 -0.1195 -1.3832
  168MOL0     O22581   1.891   0.715   3.783  0.0706 -0.3649  0.2784
  168MOL0     C22582   1.940   0.601   3.724 -0.3392 -0.3178  0.7426
  168MOL0     C22583   1.906   0.592   3.572 -0.5790 -0.0162  0.0678
  168MOL0     C22584   1.986   0.484   3.497  0.1093 -0.9363  0.4716
  168MOL0     C22585   2.135   0.526   3.483  0.4764 -0.8764 -0.0341
  168MOL0     C22586   2.212   0.440   3.382  0.4575 -0.2695  1.1737
  168MOL0     C22587   2.192   0.490   3.238 -0.6695 -0.0602 -0.5139
  168MOL0     C22588   2.269   0.396   3.153  0.2591  0.3728 -0.4032
  168MOL0     C22589   2.274   0.441   3.004  0.3811 -0.6614  0.2333
  168MOL0    Cl22590   2.317   0.307   2.897 -0.1241 -0.1779 -0.2008
  168MOL0     C22591   1.917   0.862   3.954 -0.1923  0.1748 -0.2287
  168MOL0     C22592   1.947   0.895   4.083 -0.3713 -0.2989  0.0938
  168MOL0     O22593   1.775   0.875   4.349  0.9540  0.1273  0.1886
  168MOL0     C22594   2.060   0.872   4.566  0.9137  0.2297 -1.0184
  168MOL0     C22595   2.096   0.885   4.703 -0.6008  0.1658  0.2951
  168MOL0     N22596   1.953   1.140   5.586  0.0119  0.1127 -0.0385
  168MOL0     N22597   1.920   1.254   5.650 -0.2311  0.1580 -0.0448
  168MOL0     C22598   1.320   2.122   6.148 -0.1754  0.1273  0.0074
  168MOL0     C22599   1.266   2.174   6.273  0.7029  0.1616  0.1776
  168MOL0     C22600   1.117   2.344   6.619  0.4186 -0.5279 -1.4192
  168MOL0     C22601   1.191   2.462   6.649 -0.8638  0.4896  0.3732
  168MOL0     C22602   1.223   2.496   6.779  0.1831 -0.2756 -0.3167
  168MOL0     C22603   1.158   2.431   6.885 -0.3748 -0.2726 -0.0668
  168MOL0     O22604   1.203   2.470   7.017 -0.0059  0.4136 -0.4729
  168MOL0     C22605   1.144   2.405   7.128  0.2308 -0.6685  0.0511
  168MOL0     C22606   1.192   2.471   7.259 -0.1262  0.7401 -0.3907
  168MOL0     C22607   1.148   2.383   7.380 -0.0009 -0.3123  0.3821
  168MOL0     C22608   1.173   2.467   7.504  0.0131 -0.6013 -0.4134
  168MOL0     C22609   1.186   2.393   7.627  0.3713 -0.0321  0.0452
  168MOL0     C22610   1.202   2.336   7.736 -0.2381  0.2457 -0.0051
  168MOL0     C22611   1.074   2.327   6.857 -0.7162  0.7860  1.0497
  168MOL0     C22612   1.057   2.277   6.730 -1.6892  0.2656  0.8739
  168MOL0     H22613   1.188   2.472   6.165  0.9613 -0.1620 -0.8671
  168MOL0     H22614   1.264   2.380   5.947 -1.0605 -0.3246 -0.4274
  168MOL0     H22615   1.522   1.983   5.957  1.8689  0.1053 -2.5128
  168MOL0     H22616   1.333   1.970   5.942 -0.7512  1.0258 -1.1437
  168MOL0     H22617   1.364   2.003   5.698  1.4048  1.3783 -0.8888
  168MOL0     H22618   1.523   2.048   5.718 -1.1929  1.1915 -0.3280
  168MOL0     H22619   1.584   1.816   5.798  1.2883  3.9820  0.9186
  168MOL0     H22620   1.423   1.765   5.746 -0.4015  1.4056  1.0127
  168MOL0     H22621   1.469   1.845   5.518  1.4425 -1.2276 -1.8221
  168MOL0     H22622   1.627   1.909   5.567 -1.2439  3.1586  1.4277
  168MOL0     H22623   1.537   1.620   5.587  2.4680 -1.1563  2.4382
  168MOL0     H22624   1.605   1.683   5.440  1.4451  0.3605  0.2051
  168MOL0     H22625   1.815   1.737   5.561 -1.3996 -0.6676 -2.2854
  168MOL0     H22626   1.741   1.655   5.708  2.0111 -0.7108  0.4194
  168MOL0     H22627   1.719   1.452   5.552 -0.5907  0.3863  0.4621
  168MOL0     H22628   1.820   1.525   5.442  1.7977 -4.3246 -0.2950
  168MOL0     H22629   1.919   1.514   5.727 -1.1877 -0.1878 -0.3056
  168MOL0     H22630   2.009   1.553   5.578 -0.6754  0.0299 -0.7478
  168MOL0     H22631   2.106   1.372   5.422 -1.6523 -1.4582 -0.6233
  168MOL0     H22632   2.197   1.136   5.349 -1.4236  2.0590 -0.5014
  168MOL0     H22633   2.118   0.984   5.420 -0.0936  2.1694  6.9677
  168MOL0     H22634   2.025   1.204   5.236  3.4432  0.4295  2.6144
  168MOL0     H22635   1.919   1.068   5.267 -0.9537  3.1423 -0.7768
  168MOL0     H22636   2.112   0.922   5.166 -0.6677  0.3915 -0.3214
  168MOL0     H22637   2.166   1.078   5.094 -1.0395  0.6195 -1.7598
  168MOL0     H22638   1.963   1.116   4.999 -0.1499 -0.1383  2.3391
  168MOL0     H22639   1.891   0.965   5.041 -0.1854 -1.8807 -1.2923
  168MOL0     H22640   1.792   0.953   4.830 -1.4327 -4.9926  1.4615
  168MOL0     H22641   1.638   0.877   4.716 -1.9267  2.0060 -0.5911
  168MOL0     H22642   1.657   0.963   4.563 -2.3720  0.8094  2.3803
  168MOL0     H22643   1.654   0.785   4.562  2.7689 -0.1906 -1.8783
  168MOL0     H22644   2.004   0.579   4.208  0.0845 -1.5112 -1.2349
  168MOL0     H22645   1.929   0.520   3.984  3.3597 -1.0285  1.4727
  168MOL0     H22646   2.049   0.598   3.728 -0.3575  0.0950  1.5501
  168MOL0     H22647   1.885   0.516   3.766 -1.7834 -1.2798 -2.7341
  168MOL0     H22648   1.801   0.563   3.562 -1.3181  2.7814 -1.4185
  168MOL0     H22649   1.928   0.689   3.527  1.1045  0.2023  1.2785
  168MOL0     H22650   1.943   0.473   3.396  2.4971 -2.0223 -0.5154
  168MOL0     H22651   1.983   0.382   3.534 -1.1036 -2.3404 -3.0483
  168MOL0     H22652   2.138   0.630   3.451 -0.0617 -1.1358 -0.9669
  168MOL0     H22653   2.185   0.519   3.580  1.8617 -2.5229 -0.8247
  168MOL0     H22654   2.176   0.337   3.390  0.4139 -0.3566  0.0505
  168MOL0     H22655   2.320   0.439   3.400  0.2113  1.3751  3.0101
  168MOL0     H22656   2.093   0.516   3.200  0.8729  2.6768 -3.1451
  168MOL0     H22657   2.257   0.577   3.233  2.1775 -1.9136  1.2730
  168MOL0     H22658   2.211   0.303   3.148  1.7315 -0.5625 -0.5769
  168MOL0     H22659   2.368   0.387   3.200 -0.0225  0.7808  0.2843
  168MOL0     H22660   2.352   0.516   2.993 -0.5298 -0.0194 -2.8291
  168MOL0     H22661   2.174   0.482   2.988  0.8604  2.1634  3.5040
  168MOL0     H22662   1.904   0.938   3.878  2.2016 -0.9957 -1.9617
  168MOL0     H22663   1.963   1.000   4.107 -1.0865 -0.4762  1.4852
  168MOL0     H22664   2.147   0.882   4.502  1.5175 -2.0658 -0.6587
  168MOL0     H22665   2.201   0.884   4.727 -0.8096 -1.6747  1.3781
  168MOL0     H22666   1.373   2.028   6.152  1.0115  0.5521 -2.9382
  168MOL0     H22667   1.260   2.112   6.361 -2.8663 -0.7391 -0.5388
  168MOL0     H22668   1.233   2.531   6.577  1.7007 -1.5461 -0.2543
  168MOL0     H22669   1.296   2.575   6.795  1.1865 -0.5559 -2.9431
  168MOL0     H22670   1.036   2.422   7.130  0.6020  2.2863 -0.7627
  168MOL0     H22671   1.169   2.300   7.112 -0.4894 -1.3432  2.8289
  168MOL0     H22672   1.151   2.572   7.269 -3.2794  0.0366 -3.9595
  168MOL0     H22673   1.301   2.464   7.249 -0.3800  0.3081 -3.9084
  168MOL0     H22674   1.209   2.293   7.389 -2.0360 -1.6836  1.2052
  168MOL0     H22675   1.045   2.347   7.368  0.0003 -0.8906  1.9231
  168MOL0     H22676   1.097   2.545   7.494  2.0094  1.7508  1.7284
  168MOL0     H22677   1.270   2.515   7.496 -1.1623  2.3499  1.4808
  168MOL0     H22678   1.214   2.303   7.837  0.3921 -0.4658 -0.3073
  168MOL0     H22679   1.013   2.279   6.933 -3.3399  1.1147 -0.7378
  168MOL0     H22680   0.999   2.185   6.723 -0.2067 -0.7727  1.7547
  169MOL0     O22681   2.936   3.391   2.970  0.2368  0.9318  0.4106
  169MOL0     C22682   3.030   3.476   2.960  0.1854  0.6531  0.8959
  169MOL0     O22683   3.019   3.612   2.953  0.6465 -0.4260  0.0741
  169MOL0     C22684   2.904   3.681   2.950  0.3694  0.3705  0.0555
  169MOL0     C22685   2.924   3.818   2.958 -0.5852  0.0471  0.0958
  169MOL0     C22686   2.814   3.902   2.938  0.4013  0.0714  0.4203
  169MOL0     C22687   2.679   3.855   2.910 -0.1643 -0.4595 -0.7492
  169MOL0     O22688   2.599   3.953   2.861  0.1203  0.5010  0.4378
  169MOL0     C22689   2.466   3.913   2.847  0.3423 -0.4471 -0.5441
  169MOL0     C22690   2.384   4.049   2.822 -0.4641 -0.5397 -0.6456
  169MOL0     C22691   2.393   4.102   2.682  0.3007 -0.3768  0.0580
  169MOL0     C22692   2.333   4.243   2.665 -0.4296  0.2075  0.4555
  169MOL0     C22693   2.183   4.235   2.691 -1.3485  0.1378  0.9996
  169MOL0     C22694   2.135   4.380   2.675 -0.0760  0.1574 -0.4219
  169MOL0     C22695   2.009   4.399   2.739 -0.1593 -0.0518 -1.2758
  169MOL0     C22696   1.945   4.538   2.734  0.1427  0.7179 -0.4024
  169MOL0     N22697   1.829   4.537   2.834 -0.0288  0.1966  0.3031
  169MOL0     C22698   1.819   4.608   2.949  1.2176 -1.1506  0.3421
  169MOL0     C22699   1.691   4.597   2.986 -0.4281  0.2771 -0.2054
  169MOL0     C22700   1.643   4.667   3.105  0.6089  0.5711 -0.8307
  169MOL0     C22701   1.492   4.645   3.141  0.1063 -1.0398 -0.4947
  169MOL0     C22702   1.458   4.499   3.166  0.0712  0.2093 -0.3153
  169MOL0     C22703   1.496   4.478   3.309 -0.1977 -1.5272  0.4055
  169MOL0     O22704   1.460   4.348   3.326 -0.6019 -0.0276 -0.2285
  169MOL0     C22705   1.409   4.299   3.442  1.1283  0.2004  0.3515
  169MOL0     C22706   1.344   4.181   3.426 -0.0561 -0.3149 -0.2343
  169MOL0     C22707   1.267   4.117   3.531 -0.1868 -0.5652  1.1275
  169MOL0     C22708   1.215   3.980   3.492  0.5622 -0.0867 -0.6763
  169MOL0     C22709   1.269   4.182   3.660  0.2656 -0.4411 -0.4127
  169MOL0     C22710   1.210   4.116   3.784 -0.1907 -0.8257 -0.0685
  169MOL0     O22711   1.240   4.182   3.902  0.4378 -0.0516 -0.2801
  169MOL0     C22712   1.168   4.149   4.011 -0.3430  0.2518  0.5402
  169MOL0     C22713   1.074   4.229   4.079 -0.2246 -0.6151  0.8797
  169MOL0     C22714   1.007   4.187   4.196  0.4624 -0.5103  0.2607
  169MOL0     C22715   1.029   4.062   4.235  0.2569  0.5383 -0.1473
  169MOL0     O22716   0.967   4.022   4.352 -0.5490  0.0383  0.3953
  169MOL0     C22717   0.941   3.888   4.368 -0.3513  1.3984  0.3693
  169MOL0     C22718   0.835   3.868   4.467  0.1025  0.8030  0.4251
  169MOL0     C22719   0.876   3.908   4.608 -0.3736  0.6829  0.2762
  169MOL0     C22720   0.833   3.801   4.715  0.8527  0.4027  0.0246
  169MOL0     C22721   0.882   3.835   4.866 -0.1747 -1.0387  0.1724
  169MOL0     C22722   0.835   3.747   4.971  0.5152  0.2437  0.1672
  169MOL0     C22723   0.935   3.646   5.002  0.2360 -0.2778 -0.3292
  169MOL0     C22724   0.893   3.527   5.082  0.0542  0.0818 -0.3669
  169MOL0    Cl22725   0.873   3.574   5.250  0.1839  0.3513  0.1768
  169MOL0     C22726   1.125   3.975   4.175 -1.0244 -0.0459 -0.6427
  169MOL0     C22727   1.199   4.019   4.062  0.6625  0.1248 -0.5639
  169MOL0     O22728   1.129   4.026   3.776 -0.4493 -0.2767  0.4533
  169MOL0     C22729   1.331   4.311   3.668  0.7539  0.3637  0.2446
  169MOL0     C22730   1.395   4.374   3.557  0.3837  0.2708 -0.2258
  169MOL0     N22731   1.617   4.528   2.896  0.4138 -0.1359  0.2471
  169MOL0     N22732   1.702   4.493   2.800  0.0763 -0.2060  0.2257
  169MOL0     C22733   2.658   3.718   2.887 -0.3855  0.8428 -1.1812
  169MOL0     C22734   2.773   3.635   2.910  0.7293  1.0153 -1.4077
  169MOL0     C22735   3.167   3.426   2.966 -0.2888  0.3447  0.2171
  169MOL0     C22736   3.203   3.314   2.898 -0.2986 -0.1090 -0.1087
  169MOL0     C22737   3.335   3.266   2.922 -1.2074 -0.3592 -0.1710
  169MOL0     C22738   3.430   3.328   2.996 -0.4490 -0.6055  0.5356
  169MOL0     O22739   3.553   3.264   3.002 -0.4740 -0.2991  1.9219
  169MOL0     C22740   3.666   3.343   2.995  0.3308 -0.5838 -0.1633
  169MOL0     C22741   3.782   3.266   2.936  0.2492 -0.0005  0.5394
  169MOL0     C22742   3.884   3.362   2.873 -0.0085 -0.2197 -0.2434
  169MOL0     C22743   3.965   3.443   2.971  0.0981  0.2633 -0.6673
  169MOL0     C22744   3.885   3.545   3.044  0.3919  0.5029 -0.0558
  169MOL0     C22745   3.824   3.638   3.098  0.1332  0.0519 -0.2958
  169MOL0     C22746   3.392   3.444   3.069  0.1324 -0.2053 -0.0854
  169MOL0     C22747   3.262   3.494   3.050  0.3360  0.5436 -0.1155
  169MOL0     H22748   3.017   3.861   2.995  0.0043 -0.7433 -0.4312
  169MOL0     H22749   2.836   4.008   2.938 -1.1288  0.4245  1.6490
  169MOL0     H22750   2.447   3.854   2.757 -2.4818 -1.0506  0.3285
  169MOL0     H22751   2.429   3.874   2.942  0.8033  1.6997  0.5854
  169MOL0     H22752   2.279   4.025   2.841 -1.2170  2.2531 -0.8938
  169MOL0     H22753   2.416   4.129   2.889  0.0736 -0.0092 -1.5175
  169MOL0     H22754   2.500   4.113   2.661  0.0491 -2.3512 -2.9882
  169MOL0     H22755   2.366   4.028   2.606 -1.2499  1.6721 -1.5370
  169MOL0     H22756   2.368   4.314   2.740 -1.6824 -1.8095  3.1277
  169MOL0     H22757   2.368   4.286   2.571  0.0647 -1.4937 -0.1788
  169MOL0     H22758   2.128   4.167   2.625  1.5294  0.0695 -1.5449
  169MOL0     H22759   2.165   4.198   2.792 -1.8433 -1.1465  0.4560
  169MOL0     H22760   2.204   4.451   2.721 -0.2508  0.3520 -0.4600
  169MOL0     H22761   2.135   4.400   2.567  1.4796 -0.4968 -0.5827
  169MOL0     H22762   1.939   4.337   2.682  1.9726 -2.8225 -1.0860
  169MOL0     H22763   2.022   4.361   2.840 -0.1498 -1.3524 -1.7484
  169MOL0     H22764   1.899   4.557   2.637 -1.8529  0.2726  0.3954
  169MOL0     H22765   2.010   4.618   2.771  0.3718  0.4702 -0.2667
  169MOL0     H22766   1.891   4.675   2.994  0.0964 -0.4204  1.0964
  169MOL0     H22767   1.705   4.632   3.188  1.1265 -0.6961 -1.7147
  169MOL0     H22768   1.651   4.776   3.094  1.1949  1.1883  3.8272
  169MOL0     H22769   1.436   4.683   3.055 -0.1867 -2.9280 -1.1845
  169MOL0     H22770   1.473   4.712   3.225 -1.0987 -0.3235 -1.3180
  169MOL0     H22771   1.509   4.435   3.094  0.2493 -0.3996  0.3394
  169MOL0     H22772   1.351   4.482   3.149  0.0175 -1.2994  1.2346
  169MOL0     H22773   1.444   4.551   3.371 -2.9616 -1.5547 -1.6984
  169MOL0     H22774   1.605   4.483   3.322 -0.1801  1.4554 -0.2564
  169MOL0     H22775   1.331   4.139   3.327  2.9092  3.2717 -2.4042
  169MOL0     H22776   1.200   3.966   3.384  1.9567 -3.1934 -0.5727
  169MOL0     H22777   1.297   3.914   3.521  0.7004  0.6465  0.6986
  169MOL0     H22778   1.128   3.945   3.548  1.9446 -0.1032  1.5951
  169MOL0     H22779   1.035   4.322   4.038 -3.9665 -1.9049  1.0615
  169MOL0     H22780   0.931   4.254   4.235 -0.0609 -0.0488 -1.4656
  169MOL0     H22781   0.900   3.846   4.276  2.8787 -0.4821 -0.3671
  169MOL0     H22782   1.036   3.836   4.384 -1.9063 -2.2686 -1.2271
  169MOL0     H22783   0.746   3.925   4.438 -1.5010 -1.1027  1.2641
  169MOL0     H22784   0.804   3.763   4.455 -2.2311  1.5307 -0.3502
  169MOL0     H22785   0.841   4.008   4.638 -1.5047  0.0212  1.2570
  169MOL0     H22786   0.986   3.908   4.606 -0.2223 -1.7390 -3.8805
  169MOL0     H22787   0.727   3.775   4.710  1.0827 -0.2908 -2.5030
  169MOL0     H22788   0.885   3.711   4.682  0.1103 -0.1383  0.3167
  169MOL0     H22789   0.853   3.938   4.890  1.2083 -1.4123  4.2612
  169MOL0     H22790   0.991   3.833   4.862  0.0443  3.5748 -0.8072
  169MOL0     H22791   0.804   3.791   5.066 -2.0032 -1.6725  0.3294
  169MOL0     H22792   0.749   3.697   4.927  1.6230 -0.6464 -1.0778
  169MOL0     H22793   1.022   3.689   5.053  0.2685  0.3004 -0.8490
  169MOL0     H22794   0.974   3.588   4.918  1.7592 -2.0110  1.4783
  169MOL0     H22795   0.974   3.459   5.057 -0.2291  0.2342 -1.8096
  169MOL0     H22796   0.798   3.482   5.050 -1.0878  1.5988  0.7055
  169MOL0     H22797   1.148   3.874   4.208  1.0403  0.7891  0.6633
  169MOL0     H22798   1.249   3.944   4.001  1.2036  1.6315 -2.0705
  169MOL0     H22799   1.326   4.366   3.761 -0.9786  1.2479 -0.3406
  169MOL0     H22800   1.427   4.477   3.555  1.2108  0.0435 -3.2625
  169MOL0     H22801   2.563   3.677   2.853  0.0296 -1.1072 -0.1578
  169MOL0     H22802   2.755   3.529   2.894 -4.3208  0.8337  2.7489
  169MOL0     H22803   3.132   3.261   2.834 -2.8915 -1.6745  3.7268
  169MOL0     H22804   3.360   3.178   2.863 -0.6514  1.1118 -2.2189
  169MOL0     H22805   3.651   3.434   2.937  2.0466  1.6155  2.5618
  169MOL0     H22806   3.682   3.384   3.095 -1.6476 -1.7169  0.6841
  169MOL0     H22807   3.758   3.191   2.860 -0.9592  1.5808 -0.7242
  169MOL0     H22808   3.833   3.222   3.022  0.5955  2.6619  1.8032
  169MOL0     H22809   3.841   3.434   2.803 -1.3333 -0.7644 -0.0309
  169MOL0     H22810   3.951   3.299   2.814 -0.4980 -3.4540  2.3346
  169MOL0     H22811   4.056   3.495   2.941  0.3531  0.0306 -0.2997
  169MOL0     H22812   3.995   3.375   3.051 -2.9112 -0.0565  0.3346
  169MOL0     H22813   3.779   3.730   3.129  1.4633  0.7608 -0.3906
  169MOL0     H22814   3.459   3.503   3.131  2.9011  1.1190 -3.9487
  169MOL0     H22815   3.237   3.583   3.107 -0.0722  1.3932 -1.5549
  170MOL0     O22816   5.150   7.286   8.582 -0.2222 -0.5192 -0.2786
  170MOL0     C22817   5.140   7.254   8.694 -0.5071  0.0094 -0.5813
  170MOL0     O22818   5.065   7.320   8.785 -0.6365  0.5144  0.2657
  170MOL0     C22819   5.028   7.446   8.739 -0.2201 -0.0497  0.6993
  170MOL0     C22820   4.897   7.459   8.697  0.1353  1.1105  0.5076
  170MOL0     C22821   4.851   7.579   8.630 -0.9186 -0.6018 -0.1237
  170MOL0     C22822   4.941   7.690   8.619  0.8795 -0.3947  0.1686
  170MOL0     O22823   4.890   7.797   8.562  0.3258 -0.3357 -0.5643
  170MOL0     C22824   4.899   7.914   8.641  0.1904 -0.4583 -0.6241
  170MOL0     C22825   4.997   8.013   8.587 -0.3172 -0.0082  0.8228
  170MOL0     C22826   5.030   8.127   8.679 -0.2235  0.0869  0.3405
  170MOL0     C22827   5.119   8.239   8.629 -1.4267 -0.0946 -0.8361
  170MOL0     C22828   5.129   8.352   8.733  0.1721  0.1574 -0.3538
  170MOL0     C22829   5.198   8.479   8.685  1.1114  0.1529 -0.1653
  170MOL0     C22830   5.118   8.558   8.586 -0.6049  0.2239 -1.6096
  170MOL0     C22831   5.172   8.698   8.581 -0.3109 -0.4443 -0.1008
  170MOL0     N22832   5.306   8.710   8.528  0.0606  0.2670  0.4458
  170MOL0     C22833   5.431   8.713   8.596  0.1866 -0.4626  0.6102
  170MOL0     C22834   5.521   8.711   8.494 -0.5425 -0.3803 -0.3372
  170MOL0     C22835   5.669   8.726   8.524 -0.0142 -0.1254 -0.3561
  170MOL0     C22836   5.751   8.586   8.527  1.1566 -0.0190 -0.0510
  170MOL0     C22837   5.900   8.608   8.516 -0.3332 -1.3616  0.8233
  170MOL0     C22838   5.979   8.479   8.512  0.4572 -0.2024  1.1582
  170MOL0     O22839   5.944   8.412   8.392 -0.4590  0.4667  0.0465
  170MOL0     C22840   6.011   8.303   8.342 -0.4376 -0.1172 -0.8547
  170MOL0     C22841   5.974   8.250   8.222  0.0320 -0.4176  0.1136
  170MOL0     C22842   6.041   8.146   8.156 -0.9996  0.0677  0.7870
  170MOL0     C22843   6.009   8.107   8.014  0.6113  0.9334  0.9108
  170MOL0     C22844   6.150   8.082   8.223 -0.5988  0.1137 -0.2595
  170MOL0     C22845   6.236   7.969   8.162 -1.1330  0.1180 -0.6240
  170MOL0     O22846   6.342   7.935   8.239  0.1839  0.1877  0.2319
  170MOL0     C22847   6.432   7.841   8.198  0.4217  0.3007 -0.6745
  170MOL0     C22848   6.461   7.736   8.284  0.6330 -0.3670 -0.5357
  170MOL0     C22849   6.567   7.651   8.251  0.2734  0.3820 -0.5375
  170MOL0     C22850   6.636   7.645   8.129  0.0968  0.1805 -0.9513
  170MOL0     O22851   6.746   7.551   8.103 -0.5883  0.1911  0.2331
  170MOL0     C22852   6.813   7.566   7.974 -1.1386 -0.8412 -0.0466
  170MOL0     C22853   6.949   7.478   7.978  0.1684 -0.3019  0.2545
  170MOL0     C22854   7.022   7.484   8.114 -0.1350 -0.2694 -0.6525
  170MOL0     C22855   7.074   7.626   8.152  0.0236  1.1431  0.3485
  170MOL0     C22856   7.102   7.644   8.307 -0.3648 -0.4333  0.2900
  170MOL0     C22857   6.968   7.648   8.389  1.4098 -0.7100 -0.8628
  170MOL0     C22858   6.893   7.775   8.361  0.3371 -0.4737  0.0299
  170MOL0     C22859   6.792   7.791   8.477 -0.0401 -0.1506  0.7360
  170MOL0    Cl22860   6.686   7.939   8.431 -0.1552  0.2287  0.4003
  170MOL0     C22861   6.584   7.743   8.040 -0.6857  0.6267 -0.7610
  170MOL0     C22862   6.488   7.846   8.072  1.2081  1.1099 -0.8905
  170MOL0     O22863   6.207   7.907   8.059 -0.5400 -0.4200  0.1447
  170MOL0     C22864   6.186   8.132   8.355  0.8752 -0.8010 -0.6437
  170MOL0     C22865   6.108   8.234   8.409 -0.2993 -1.3636 -0.0603
  170MOL0     N22866   5.455   8.690   8.376 -0.4251  0.2668  0.0176
  170MOL0     N22867   5.334   8.695   8.394  0.6114  0.1432 -0.7907
  170MOL0     C22868   5.072   7.680   8.664 -0.0177 -0.3776  0.0407
  170MOL0     C22869   5.106   7.555   8.730 -0.8371 -0.2912  0.6207
  170MOL0     C22870   5.202   7.126   8.721  0.3773  0.5845 -1.0440
  170MOL0     C22871   5.339   7.103   8.691  0.2543 -0.3442  0.0823
  170MOL0     C22872   5.405   6.980   8.722  0.3566 -0.0778 -0.3072
  170MOL0     C22873   5.329   6.871   8.764 -1.2442  0.3649 -0.3125
  170MOL0     O22874   5.398   6.753   8.778  0.7219  0.0705 -0.4029
  170MOL0     C22875   5.332   6.626   8.818  0.5585 -0.3256  0.1407
  170MOL0     C22876   5.410   6.539   8.919 -0.2422  0.4332 -0.5489
  170MOL0     C22877   5.429   6.605   9.056 -0.3571  0.6151  0.2434
  170MOL0     C22878   5.448   6.503   9.173 -0.2302  0.7626 -0.9129
  170MOL0     C22879   5.600   6.465   9.182  0.2245 -0.1492 -0.3554
  170MOL0     C22880   5.717   6.437   9.194 -0.7127 -0.0487  0.8316
  170MOL0     C22881   5.196   6.895   8.815 -0.4973 -0.4899 -0.4107
  170MOL0     C22882   5.133   7.021   8.783  0.3450 -1.1539 -0.5011
  170MOL0     H22883   4.836   7.371   8.710 -0.3450  0.8892 -2.4062
  170MOL0     H22884   4.747   7.582   8.601 -0.8295 -1.3714 -0.5461
  170MOL0     H22885   4.802   7.964   8.645 -0.3609 -1.5034 -0.5968
  170MOL0     H22886   4.927   7.892   8.744  0.8596 -1.0035 -0.9139
  170MOL0     H22887   5.094   7.971   8.561  0.9626  1.9600  2.1224
  170MOL0     H22888   4.959   8.035   8.487  1.8088 -6.0662 -1.8339
  170MOL0     H22889   4.933   8.163   8.715 -1.0584  2.0153 -3.2419
  170MOL0     H22890   5.083   8.086   8.765 -2.2053 -0.9864  1.1098
  170MOL0     H22891   5.221   8.207   8.609 -0.1846  2.8342  0.1870
  170MOL0     H22892   5.068   8.272   8.537 -1.4585 -0.0397 -0.7988
  170MOL0     H22893   5.029   8.368   8.775  0.6544 -0.5132  1.1035
  170MOL0     H22894   5.195   8.321   8.814  2.4546  2.0093 -1.3788
  170MOL0     H22895   5.226   8.541   8.770  3.0812 -0.2189 -0.4867
  170MOL0     H22896   5.289   8.445   8.634 -0.0401 -0.9522 -1.5855
  170MOL0     H22897   5.122   8.516   8.485 -2.3593 -2.6526 -0.6130
  170MOL0     H22898   5.015   8.556   8.624  0.0132  2.1419  0.3612
  170MOL0     H22899   5.185   8.761   8.670  2.1050  0.3440 -0.9393
  170MOL0     H22900   5.114   8.757   8.510 -1.3374 -0.9177  0.3221
  170MOL0     H22901   5.442   8.736   8.701 -2.8653  2.6641  0.4372
  170MOL0     H22902   5.706   8.765   8.428 -1.2041 -2.5700 -1.9201
  170MOL0     H22903   5.700   8.782   8.612  2.6379  0.1602 -1.3664
  170MOL0     H22904   5.736   8.513   8.448  2.5433  1.1706 -1.4740
  170MOL0     H22905   5.716   8.546   8.623  2.0488  0.9242  0.6892
  170MOL0     H22906   5.931   8.663   8.605 -1.6914 -2.3708  1.9834
  170MOL0     H22907   5.928   8.667   8.429  1.1527 -0.2089  2.0202
  170MOL0     H22908   5.968   8.420   8.603 -0.4909  0.1236  1.2653
  170MOL0     H22909   6.086   8.502   8.503  0.1533  1.0300  0.4228
  170MOL0     H22910   5.899   8.304   8.165  0.5803 -0.4469 -0.6603
  170MOL0     H22911   5.986   8.000   8.017 -0.6753  1.1084 -0.8810
  170MOL0     H22912   5.921   8.152   7.969 -1.6850 -3.4599  0.4353
  170MOL0     H22913   6.091   8.141   7.950 -1.1147  3.0177 -0.3203
  170MOL0     H22914   6.405   7.721   8.376  0.3145  1.9621 -0.2889
  170MOL0     H22915   6.583   7.573   8.326 -1.5803  0.4109 -0.0837
  170MOL0     H22916   6.747   7.528   7.895 -1.6860  2.1493 -1.1407
  170MOL0     H22917   6.839   7.670   7.952 -0.3839 -0.5332  2.0480
  170MOL0     H22918   6.934   7.371   7.961 -0.3530 -0.1022 -0.5888
  170MOL0     H22919   7.004   7.529   7.899  0.8072  1.2165  1.6264
  170MOL0     H22920   7.107   7.416   8.104  0.0992 -0.3708  1.6068
  170MOL0     H22921   6.971   7.438   8.199 -1.2285  2.2397  0.1350
  170MOL0     H22922   7.176   7.635   8.114  0.8095 -0.5467  1.8701
  170MOL0     H22923   7.004   7.699   8.111 -3.5701 -2.4205 -0.5062
  170MOL0     H22924   7.145   7.744   8.319 -0.9016  0.0240 -1.3091
  170MOL0     H22925   7.175   7.569   8.338  0.3201  0.2473  0.3696
  170MOL0     H22926   6.909   7.557   8.381 -0.7926  0.6674 -1.1355
  170MOL0     H22927   7.005   7.643   8.492  1.3173 -0.0572 -0.7897
  170MOL0     H22928   6.846   7.776   8.262  1.7235 -1.3802 -0.6703
  170MOL0     H22929   6.959   7.862   8.366  2.0105 -1.6881 -0.1804
  170MOL0     H22930   6.846   7.811   8.570  3.4752 -0.3906 -1.0815
  170MOL0     H22931   6.730   7.702   8.482 -0.0521 -0.3022 -1.2609
  170MOL0     H22932   6.628   7.740   7.941  1.6738  1.3510  0.2022
  170MOL0     H22933   6.478   7.914   7.988 -1.6831 -1.0321 -2.4759
  170MOL0     H22934   6.262   8.075   8.408 -0.1300 -2.2731 -0.7239
  170MOL0     H22935   6.139   8.264   8.509 -3.2336 -0.7160  0.7305
  170MOL0     H22936   5.129   7.773   8.671 -0.0776 -0.3889  0.8102
  170MOL0     H22937   5.211   7.564   8.759 -0.4174  1.9157 -1.2068
  170MOL0     H22938   5.389   7.181   8.635 -2.7574  3.7988  2.6033
  170MOL0     H22939   5.510   6.966   8.697 -0.0154  0.9906 -2.7335
  170MOL0     H22940   5.227   6.639   8.845  0.3680 -1.9348  0.3133
  170MOL0     H22941   5.333   6.575   8.721 -2.9748 -0.2520 -0.0803
  170MOL0     H22942   5.508   6.508   8.880  0.2373  1.3458 -0.1047
  170MOL0     H22943   5.357   6.444   8.926 -1.5565  0.9280 -2.7671
  170MOL0     H22944   5.335   6.654   9.082  1.3183  2.2698  3.8559
  170MOL0     H22945   5.518   6.667   9.048  0.8450 -0.6934  2.3256
  170MOL0     H22946   5.394   6.408   9.166  0.6974  0.2628 -1.5968
  170MOL0     H22947   5.425   6.552   9.268  1.1469 -0.3419  0.0230
  170MOL0     H22948   5.821   6.413   9.201 -0.9263 -2.1820 -1.6992
  170MOL0     H22949   5.146   6.815   8.867  1.7034 -0.7334  1.4823
  170MOL0     H22950   5.029   7.033   8.812  0.3890  0.7762 -0.9874
  171MOL0     O22951  11.309   1.039   7.217 -0.6257  0.6814  0.4132
  171MOL0     C22952  11.252   1.091   7.122  0.4231 -1.2181 -1.0698
  171MOL0     O22953  11.116   1.061   7.087 -0.8295  0.6706  0.2023
  171MOL0     C22954  11.040   0.991   7.175 -0.7053  0.0460 -0.4257
  171MOL0     C22955  11.069   0.865   7.226 -0.2344 -0.8118 -0.3027
  171MOL0     C22956  10.977   0.793   7.309  0.8602  0.0976  0.3250
  171MOL0     C22957  10.848   0.846   7.327 -0.7010  0.5417  0.0060
  171MOL0     O22958  10.762   0.775   7.407  0.0854 -0.2831 -0.5491
  171MOL0     C22959  10.713   0.847   7.529 -0.8976 -0.3524  0.5102
  171MOL0     C22960  10.599   0.766   7.582  0.4710  0.8602  0.5345
  171MOL0     C22961  10.645   0.651   7.667 -0.6853  0.3265  0.0818
  171MOL0     C22962  10.690   0.701   7.802 -0.6521 -0.3344 -0.5543
  171MOL0     C22963  10.701   0.580   7.901  0.4477  0.0552  0.4810
  171MOL0     C22964  10.750   0.637   8.033  0.5661 -1.2651 -1.1825
  171MOL0     C22965  10.787   0.530   8.118 -0.4496 -0.4697 -0.5194
  171MOL0     C22966  10.826   0.568   8.258  0.1878  0.2523 -0.2023
  171MOL0     N22967  10.722   0.575   8.367  0.0458 -0.0286  1.1140
  171MOL0     C22968  10.589   0.578   8.348  0.6308  0.0791 -1.2016
  171MOL0     C22969  10.529   0.594   8.473 -0.1924 -0.4317  0.0606
  171MOL0     C22970  10.383   0.612   8.494  0.3119 -0.6755 -0.0512
  171MOL0     C22971  10.313   0.492   8.565 -0.2180 -0.4097 -0.0913
  171MOL0     C22972  10.362   0.363   8.507  1.0418 -0.2244 -0.2690
  171MOL0     C22973  10.278   0.254   8.569 -0.4273 -0.5597 -0.5238
  171MOL0     O22974  10.347   0.128   8.532  0.5660 -1.6872  0.5821
  171MOL0     C22975  10.286   0.016   8.562  0.8525  0.8853 -0.4012
  171MOL0     C22976  10.159  -0.007   8.616  0.5532 -0.1146 -0.7144
  171MOL0     C22977  10.101  -0.141   8.628  0.8035  0.3440  0.4285
  171MOL0     C22978   9.968  -0.165   8.711  0.2178 -0.2268 -0.0918
  171MOL0     C22979  10.160  -0.250   8.560  0.1529  0.0149  0.0903
  171MOL0     C22980  10.101  -0.386   8.545 -0.4228 -0.1014 -0.5873
  171MOL0     O22981   9.960  -0.389   8.544 -0.2870 -1.1182  0.3346
  171MOL0     C22982   9.908  -0.510   8.534 -0.0994 -0.4065 -1.3219
  171MOL0     C22983   9.899  -0.604   8.646  0.2571 -0.3271 -0.1825
  171MOL0     C22984   9.863  -0.738   8.622  0.1567  0.6836  0.8148
  171MOL0     C22985   9.830  -0.781   8.493  0.2118  0.4993 -0.4139
  171MOL0     O22986   9.779  -0.909   8.486 -0.4560 -0.0811  0.8390
  171MOL0     C22987   9.776  -0.966   8.354  0.2028  0.0902  0.1585
  171MOL0     C22988   9.747  -1.115   8.375  0.2880  0.3911 -0.1946
  171MOL0     C22989   9.786  -1.198   8.257  0.6801 -0.6693  0.2841
  171MOL0     C22990   9.757  -1.350   8.286 -0.7138 -0.4438  0.1116
  171MOL0     C22991   9.831  -1.443   8.191 -0.1492 -0.2430 -0.1571
  171MOL0     C22992   9.737  -1.502   8.085  0.4835  1.0276 -0.3586
  171MOL0     C22993   9.666  -1.399   8.000 -1.3639  0.2079 -0.1185
  171MOL0     C22994   9.625  -1.457   7.861  0.0867  0.2719 -0.1058
  171MOL0    Cl22995   9.487  -1.569   7.881 -0.4303 -0.0745 -0.0098
  171MOL0     C22996   9.861  -0.693   8.384 -0.3441  0.3691 -0.6312
  171MOL0     C22997   9.885  -0.552   8.409 -0.1528 -0.3385  0.0611
  171MOL0     O22998  10.179  -0.480   8.556  0.2589 -0.0774  0.6708
  171MOL0     C22999  10.282  -0.229   8.503 -0.6486 -0.1444 -0.0133
  171MOL0     C23000  10.336  -0.103   8.503 -0.5224 -0.0969  0.1971
  171MOL0     N23001  10.635   0.604   8.558 -0.1355  0.5544  0.0066
  171MOL0     N23002  10.747   0.599   8.494  0.0931  0.6606  0.0102
  171MOL0     C23003  10.823   0.972   7.284  0.3086 -1.2112 -0.2704
  171MOL0     C23004  10.919   1.046   7.209  0.3979  0.4946  0.5233
  171MOL0     C23005  11.333   1.185   7.047 -0.1892 -0.0272  1.2711
  171MOL0     C23006  11.474   1.183   7.053 -0.9891 -0.0536 -0.0315
  171MOL0     C23007  11.550   1.252   6.960  0.3201  0.8174 -0.1126
  171MOL0     C23008  11.489   1.334   6.867 -1.3557  0.4831 -0.0003
  171MOL0     O23009  11.552   1.400   6.766 -0.0484  0.3833 -0.0183
  171MOL0     C23010  11.674   1.344   6.724  0.2043  0.0225  1.0202
  171MOL0     C23011  11.699   1.418   6.591 -0.2642 -0.7438 -0.0535
  171MOL0     C23012  11.814   1.360   6.503 -0.8853  0.2293  0.1524
  171MOL0     C23013  11.951   1.407   6.551 -0.1700 -0.0392 -0.3584
  171MOL0     C23014  12.002   1.310   6.647 -0.2405 -0.4757 -0.4371
  171MOL0     C23015  12.041   1.228   6.729 -0.7545  0.1247  0.2551
  171MOL0     C23016  11.350   1.342   6.867 -0.7493 -0.4206  0.5823
  171MOL0     C23017  11.271   1.271   6.954 -0.0642 -0.4619  0.8027
  171MOL0     H23018  11.161   0.819   7.192  2.2314  2.6278  1.1447
  171MOL0     H23019  11.009   0.694   7.340  0.3787  1.1546  4.9197
  171MOL0     H23020  10.796   0.864   7.599  0.7005 -1.7942 -0.9481
  171MOL0     H23021  10.680   0.949   7.507 -0.0795  0.1355  1.4490
  171MOL0     H23022  10.541   0.823   7.654  2.2805  1.0124  1.9183
  171MOL0     H23023  10.548   0.723   7.495  2.5870  2.3814 -1.5807
  171MOL0     H23024  10.558   0.585   7.672 -1.5493  1.1192 -2.7550
  171MOL0     H23025  10.726   0.608   7.608 -2.1125 -3.4570  0.6016
  171MOL0     H23026  10.788   0.745   7.783  0.8545 -3.3201 -0.1142
  171MOL0     H23027  10.620   0.773   7.847  2.5561  1.2405  2.3674
  171MOL0     H23028  10.608   0.531   7.931  0.3717  0.5147  1.0186
  171MOL0     H23029  10.767   0.503   7.862 -1.5579 -1.9597  0.8547
  171MOL0     H23030  10.839   0.700   8.022 -0.1442  0.7131  2.5746
  171MOL0     H23031  10.671   0.699   8.078  0.8137 -0.6581 -1.5769
  171MOL0     H23032  10.705   0.459   8.130 -0.6490 -0.0367  0.8565
  171MOL0     H23033  10.877   0.496   8.066  0.6871  2.2888 -0.5527
  171MOL0     H23034  10.883   0.661   8.249  1.2540 -0.4846 -1.4640
  171MOL0     H23035  10.896   0.489   8.287  1.5005  1.1898 -0.7163
  171MOL0     H23036  10.534   0.576   8.254  0.0809 -3.4048 -0.9480
  171MOL0     H23037  10.360   0.697   8.558 -2.8165 -1.2897 -0.1862
  171MOL0     H23038  10.327   0.617   8.400 -3.6521 -0.8860  2.1122
  171MOL0     H23039  10.206   0.510   8.556 -0.7879 -2.2705  1.9329
  171MOL0     H23040  10.330   0.496   8.673 -1.9710 -2.9955  0.3755
  171MOL0     H23041  10.467   0.349   8.531  1.3956  3.8458  1.3528
  171MOL0     H23042  10.345   0.347   8.400 -0.8155 -3.0825  0.3507
  171MOL0     H23043  10.177   0.251   8.527 -0.6141 -0.6572 -0.0628
  171MOL0     H23044  10.266   0.260   8.677 -2.2787 -0.6077 -0.6834
  171MOL0     H23045  10.096   0.073   8.653 -0.5640 -1.2710 -0.0576
  171MOL0     H23046   9.960  -0.084   8.784 -1.3638 -2.5245  2.5122
  171MOL0     H23047   9.887  -0.154   8.639 -0.5889 -1.7086  0.5543
  171MOL0     H23048   9.963  -0.264   8.758 -0.0399 -2.3401 -4.1533
  171MOL0     H23049   9.901  -0.572   8.750  0.3728 -0.9337  0.0082
  171MOL0     H23050   9.853  -0.808   8.704  0.5466  0.9290  1.0728
  171MOL0     H23051   9.706  -0.918   8.285  2.4030 -0.2619 -2.5322
  171MOL0     H23052   9.863  -0.939   8.293 -1.8081  2.3935 -1.9290
  171MOL0     H23053   9.795  -1.143   8.469 -0.6655  0.1853  0.2371
  171MOL0     H23054   9.639  -1.120   8.394  0.6546 -0.8611  1.8117
  171MOL0     H23055   9.891  -1.184   8.232  0.8836  0.8251  1.7642
  171MOL0     H23056   9.727  -1.169   8.170  1.0344 -0.2685  0.1727
  171MOL0     H23057   9.793  -1.376   8.386  2.3785  0.0203 -0.7711
  171MOL0     H23058   9.651  -1.375   8.286 -0.2558 -2.5999  0.9959
  171MOL0     H23059   9.870  -1.532   8.241 -1.0845  0.2444  1.4865
  171MOL0     H23060   9.921  -1.403   8.143 -1.8287 -0.1259 -3.5043
  171MOL0     H23061   9.795  -1.548   8.005  0.1125  2.2491 -1.3593
  171MOL0     H23062   9.676  -1.571   8.144 -0.7294  2.4794  0.1674
  171MOL0     H23063   9.733  -1.314   7.986 -0.1111 -0.7307 -0.0210
  171MOL0     H23064   9.583  -1.358   8.058 -1.2831 -2.1777  1.8814
  171MOL0     H23065   9.707  -1.516   7.817 -1.8495 -1.5923 -1.4501
  171MOL0     H23066   9.604  -1.371   7.798 -2.0546  0.0561  0.2509
  171MOL0     H23067   9.846  -0.730   8.284  1.7945  0.6212 -1.0944
  171MOL0     H23068   9.890  -0.475   8.332  1.1393 -1.6383 -1.2178
  171MOL0     H23069  10.342  -0.309   8.461  0.2547  0.2160  0.5680
  171MOL0     H23070  10.434  -0.096   8.457  0.0729 -1.0630  1.2719
  171MOL0     H23071  10.731   1.023   7.310  0.8251 -1.8061  3.3839
  171MOL0     H23072  10.889   1.145   7.177 -1.1970  0.2474  1.1522
  171MOL0     H23073  11.514   1.111   7.124 -1.3099 -1.9215 -1.6463
  171MOL0     H23074  11.655   1.225   6.961  0.0549 -0.5163 -2.0367
  171MOL0     H23075  11.752   1.369   6.797  0.7551  1.0508  0.1076
  171MOL0     H23076  11.652   1.237   6.713 -1.2852  0.2827  1.1881
  171MOL0     H23077  11.731   1.516   6.626 -1.1952  0.0498 -1.3276
  171MOL0     H23078  11.605   1.426   6.536  0.1944  0.1359 -0.7331
  171MOL0     H23079  11.792   1.393   6.401 -2.0222 -0.0324  0.3012
  171MOL0     H23080  11.802   1.252   6.489 -0.7064  0.0542  1.2554
  171MOL0     H23081  11.928   1.504   6.594  1.7752 -0.3190  1.4549
  171MOL0     H23082  12.029   1.417   6.475  0.2942  0.2756  0.1508
  171MOL0     H23083  12.093   1.162   6.795  2.8518  4.5299  2.4148
  171MOL0     H23084  11.311   1.415   6.798 -1.6205 -1.2342  0.1890
  171MOL0     H23085  11.164   1.292   6.953  0.4725  3.6067  3.7250
  172MOL0     O23086   2.733   7.343   3.637 -0.4205  0.2415 -0.0485
  172MOL0     C23087   2.662   7.364   3.537 -0.2532  0.0649 -0.0742
  172MOL0     O23088   2.713   7.385   3.416 -0.4267  0.3233  0.3327
  172MOL0     C23089   2.852   7.375   3.419 -0.3420  0.2179 -0.3249
  172MOL0     C23090   2.915   7.485   3.376 -0.4230  0.0637  0.1700
  172MOL0     C23091   3.060   7.469   3.351 -0.7328 -0.5550  0.1352
  172MOL0     C23092   3.128   7.348   3.376 -0.9545  0.2186 -1.1949
  172MOL0     O23093   3.265   7.358   3.353 -0.2711 -0.1082  0.0481
  172MOL0     C23094   3.361   7.285   3.440 -0.3000  1.0361  0.7444
  172MOL0     C23095   3.502   7.338   3.411 -0.3274 -0.0161  0.6434
  172MOL0     C23096   3.603   7.288   3.512 -0.7184  0.4064 -0.0494
  172MOL0     C23097   3.747   7.277   3.463  0.1332  0.2524 -0.3498
  172MOL0     C23098   3.828   7.404   3.471 -0.4701 -0.4082  0.0505
  172MOL0     C23099   3.805   7.499   3.352 -0.6486  0.4018  0.7734
  172MOL0     C23100   3.915   7.609   3.364  1.0757  1.0007 -0.1137
  172MOL0     C23101   3.963   7.675   3.233  0.0837  0.3331  0.6529
  172MOL0     N23102   4.034   7.577   3.147  0.1059 -0.5707 -0.3339
  172MOL0     C23103   4.134   7.493   3.190 -0.8351  0.6166  0.8834
  172MOL0     C23104   4.145   7.396   3.101  0.6106 -0.0942  0.9088
  172MOL0     C23105   4.259   7.297   3.096  0.3824 -1.0512 -0.2447
  172MOL0     C23106   4.220   7.161   3.174  0.8659 -0.9853  0.1528
  172MOL0     C23107   4.257   7.049   3.082 -0.5990  0.7393 -0.2002
  172MOL0     C23108   4.224   6.903   3.134 -0.6651  0.0320 -0.5885
  172MOL0     O23109   4.306   6.907   3.253 -0.4278 -0.2489  0.4725
  172MOL0     C23110   4.320   6.794   3.328 -0.4984 -0.7328 -0.7420
  172MOL0     C23111   4.291   6.672   3.285  0.7736  0.4298 -0.5298
  172MOL0     C23112   4.317   6.552   3.365  0.0903  0.7093  0.5299
  172MOL0     C23113   4.282   6.421   3.296  0.5932 -0.8135  0.5941
  172MOL0     C23114   4.374   6.561   3.486 -0.1532 -0.2216  0.2073
  172MOL0     C23115   4.397   6.454   3.592 -0.0313  0.4275  1.1412
  172MOL0     O23116   4.467   6.494   3.699 -0.5486  0.7407  0.7508
  172MOL0     C23117   4.538   6.398   3.769 -0.4701 -0.0221  0.4612
  172MOL0     C23118   4.671   6.362   3.738  0.7128 -1.4193  0.2923
  172MOL0     C23119   4.747   6.294   3.828  1.1257 -0.8500  0.2381
  172MOL0     C23120   4.692   6.235   3.945  0.5473 -0.8349  0.1616
  172MOL0     O23121   4.771   6.173   4.041  0.2348 -0.2401 -0.0113
  172MOL0     C23122   4.729   6.160   4.174 -0.0193  0.4275  0.1761
  172MOL0     C23123   4.857   6.095   4.244 -0.4299 -0.9787 -0.5042
  172MOL0     C23124   4.834   6.025   4.379  0.3107  0.0776  0.0968
  172MOL0     C23125   4.752   6.100   4.479 -0.1666 -0.0266 -0.5745
  172MOL0     C23126   4.737   6.020   4.607  0.1799 -0.2349  0.4643
  172MOL0     C23127   4.678   6.101   4.721  0.2269  0.4429 -0.6431
  172MOL0     C23128   4.770   6.123   4.841  0.2479  0.0479  0.9850
  172MOL0     C23129   4.794   6.277   4.853 -0.5989  0.6976 -0.4650
  172MOL0    Cl23130   4.654   6.365   4.902 -0.1495 -0.1676  0.2452
  172MOL0     C23131   4.555   6.261   3.961 -0.2113 -0.5684  0.3087
  172MOL0     C23132   4.480   6.344   3.883  0.3845  0.2229 -0.2112
  172MOL0     O23133   4.353   6.342   3.575 -0.0404  0.4387  0.5037
  172MOL0     C23134   4.419   6.696   3.529  0.2444  0.2142  0.4438
  172MOL0     C23135   4.383   6.810   3.452  0.2500 -0.8985 -0.8785
  172MOL0     N23136   4.060   7.424   2.996  0.0374 -0.0501  0.2610
  172MOL0     N23137   3.989   7.529   3.029 -0.1202 -0.2415  0.7803
  172MOL0     C23138   3.057   7.232   3.412  0.5501 -0.6681  0.6023
  172MOL0     C23139   2.915   7.244   3.419  0.8119 -0.6615 -0.4793
  172MOL0     C23140   2.524   7.388   3.559  0.4317 -0.6051  0.6176
  172MOL0     C23141   2.433   7.359   3.456  0.2246 -0.3790  0.7067
  172MOL0     C23142   2.301   7.378   3.475 -0.2901  1.6416  0.3262
  172MOL0     C23143   2.249   7.411   3.598  0.1716  0.5493 -0.1087
  172MOL0     O23144   2.113   7.426   3.623 -0.2251 -0.1531 -0.9882
  172MOL0     C23145   2.028   7.330   3.558  0.5732 -0.1198  0.1814
  172MOL0     C23146   2.056   7.185   3.605  0.2252  0.3631 -0.2019
  172MOL0     C23147   1.953   7.089   3.549 -0.3205  0.0535  0.5007
  172MOL0     C23148   1.955   6.946   3.613 -0.2132 -0.3285  0.8849
  172MOL0     C23149   1.930   6.954   3.753  0.1281 -0.2595 -0.5879
  172MOL0     C23150   1.922   6.961   3.876  0.3130 -0.0490  0.5534
  172MOL0     C23151   2.335   7.436   3.716  0.0937  1.0784  1.2991
  172MOL0     C23152   2.473   7.417   3.691  0.2688 -0.2100  0.2654
  172MOL0     H23153   2.860   7.578   3.369 -2.5638 -1.1527  0.0313
  172MOL0     H23154   3.108   7.546   3.291 -3.6919  0.9274 -0.5216
  172MOL0     H23155   3.322   7.290   3.542 -0.0238  0.3678  0.8833
  172MOL0     H23156   3.359   7.180   3.409 -3.8272  1.6520 -1.7786
  172MOL0     H23157   3.521   7.298   3.311 -0.4631 -0.6850  0.8773
  172MOL0     H23158   3.507   7.447   3.399 -2.6249  0.0468 -0.1405
  172MOL0     H23159   3.596   7.347   3.603 -2.3411 -1.5511  1.1797
  172MOL0     H23160   3.580   7.190   3.553 -0.2079  0.7657  1.1524
  172MOL0     H23161   3.803   7.203   3.521 -1.2826 -2.6415 -2.4015
  172MOL0     H23162   3.746   7.238   3.360  0.1430 -1.3784  0.2411
  172MOL0     H23163   3.798   7.453   3.564 -3.4216 -2.1616  0.1323
  172MOL0     H23164   3.931   7.368   3.467 -0.6864 -0.9200 -1.3687
  172MOL0     H23165   3.818   7.450   3.255 -0.1108 -1.1450  1.5917
  172MOL0     H23166   3.704   7.542   3.357  0.1708  2.4630  0.6676
  172MOL0     H23167   3.858   7.688   3.414 -0.7469  0.6696 -1.5577
  172MOL0     H23168   3.996   7.589   3.435 -0.1045 -1.0730  0.7181
  172MOL0     H23169   4.029   7.761   3.251 -0.1965  0.6386  0.2503
  172MOL0     H23170   3.876   7.709   3.176 -0.8407  2.4848  3.1162
  172MOL0     H23171   4.209   7.504   3.267  0.1710 -1.8285  0.3424
  172MOL0     H23172   4.286   7.269   2.993  0.1550 -0.0029 -0.6071
  172MOL0     H23173   4.349   7.345   3.136 -1.2133  2.8967 -0.9132
  172MOL0     H23174   4.114   7.160   3.202  0.8802  0.8932  0.4348
  172MOL0     H23175   4.275   7.165   3.268  1.7395  0.5514 -0.3837
  172MOL0     H23176   4.359   7.054   3.045  0.1658  3.4743  2.0099
  172MOL0     H23177   4.201   7.066   2.989 -2.5563 -1.4024  0.4839
  172MOL0     H23178   4.238   6.823   3.060  0.1102  0.8905 -1.4065
  172MOL0     H23179   4.119   6.913   3.161 -0.6100  1.4095 -0.8013
  172MOL0     H23180   4.241   6.654   3.191  1.5644 -0.4110 -0.8039
  172MOL0     H23181   4.224   6.432   3.204  0.5473 -0.4109  0.6678
  172MOL0     H23182   4.368   6.368   3.256 -1.2851 -1.3777 -3.1376
  172MOL0     H23183   4.227   6.358   3.366  0.4681  1.4644  2.7104
  172MOL0     H23184   4.713   6.407   3.649  0.2284  1.3448  1.3622
  172MOL0     H23185   4.854   6.284   3.813  1.4462  2.1117  0.0314
  172MOL0     H23186   4.708   6.257   4.220 -0.0296 -0.2594  1.6816
  172MOL0     H23187   4.644   6.093   4.189 -0.2231  0.3499 -1.1718
  172MOL0     H23188   4.907   6.026   4.176 -1.2112 -0.8266 -1.2506
  172MOL0     H23189   4.928   6.177   4.260  0.4637 -1.9380  0.5897
  172MOL0     H23190   4.923   6.007   4.439 -0.0821  0.4841  0.8112
  172MOL0     H23191   4.793   5.924   4.368  0.5651 -0.6306  4.2461
  172MOL0     H23192   4.801   6.197   4.490 -0.5156  0.3275 -1.9331
  172MOL0     H23193   4.653   6.124   4.437 -0.0374  0.7500 -0.4467
  172MOL0     H23194   4.828   5.972   4.645  0.5872  0.8149  0.8689
  172MOL0     H23195   4.676   5.934   4.579  3.4210 -3.1186  1.5233
  172MOL0     H23196   4.635   6.190   4.673 -2.2589 -2.0065 -3.3513
  172MOL0     H23197   4.597   6.042   4.766 -0.5552  1.7545 -0.2669
  172MOL0     H23198   4.856   6.056   4.841 -1.9413 -2.9913  1.9077
  172MOL0     H23199   4.708   6.095   4.927  1.2284  0.6759  1.9144
  172MOL0     H23200   4.838   6.318   4.761  1.4207 -2.6736 -1.1935
  172MOL0     H23201   4.874   6.281   4.927 -1.6777 -2.4442  1.0304
  172MOL0     H23202   4.509   6.210   4.045  2.9613 -1.9224  1.3809
  172MOL0     H23203   4.374   6.362   3.898  0.2112 -0.1280 -0.9317
  172MOL0     H23204   4.466   6.716   3.625 -3.1052 -0.1883  2.2994
  172MOL0     H23205   4.404   6.912   3.481 -0.3252 -1.4985  1.9893
  172MOL0     H23206   3.103   7.134   3.405 -2.4637 -2.0753 -2.0885
  172MOL0     H23207   2.852   7.156   3.427 -2.6054  1.7605  4.1546
  172MOL0     H23208   2.478   7.352   3.358  2.8748  0.4665  1.7786
  172MOL0     H23209   2.245   7.367   3.383  2.3923  1.6687 -1.4231
  172MOL0     H23210   1.921   7.339   3.579  0.4486 -1.5208  0.2879
  172MOL0     H23211   2.035   7.351   3.450  1.4280  1.4213  0.5106
  172MOL0     H23212   2.052   7.186   3.715 -2.3386  2.3197 -0.2355
  172MOL0     H23213   2.152   7.140   3.578  1.6248  3.1013 -0.0277
  172MOL0     H23214   1.985   7.078   3.445  1.2993  2.7255  0.6132
  172MOL0     H23215   1.856   7.136   3.536 -0.0303  0.1757 -1.7068
  172MOL0     H23216   2.053   6.900   3.598  1.4644  3.1921  0.1704
  172MOL0     H23217   1.875   6.889   3.565  0.4200 -0.4861 -0.0080
  172MOL0     H23218   1.922   6.979   3.982  0.3333  1.8754  0.2578
  172MOL0     H23219   2.285   7.444   3.812 -0.5712 -1.7066  1.2637
  172MOL0     H23220   2.541   7.447   3.771  2.4816  0.8731 -1.8931
  173MOL0     O23221   6.941   8.758   5.571  0.0067 -0.3203 -0.2053
  173MOL0     C23222   7.001   8.675   5.645  0.5210 -1.3768 -0.0815
  173MOL0     O23223   6.952   8.623   5.766 -0.0543  0.3634  0.3466
  173MOL0     C23224   6.807   8.619   5.781 -1.2243  0.7655 -0.2362
  173MOL0     C23225   6.717   8.607   5.678 -0.4960 -0.6123  0.5190
  173MOL0     C23226   6.582   8.600   5.704 -0.5352  0.5072  0.4691
  173MOL0     C23227   6.532   8.590   5.837  0.3420 -0.7849 -0.9108
  173MOL0     O23228   6.396   8.573   5.859  0.2317 -1.0983  0.0616
  173MOL0     C23229   6.342   8.658   5.964  0.8443  0.0281 -0.0282
  173MOL0     C23230   6.193   8.675   5.931 -0.2910  0.0795 -0.7125
  173MOL0     C23231   6.125   8.786   6.021 -0.6597 -0.4200 -0.4377
  173MOL0     C23232   5.978   8.817   5.998  0.0917  1.3213  0.3194
  173MOL0     C23233   5.913   8.930   6.088  0.1076  1.1058  0.3837
  173MOL0     C23234   5.993   9.057   6.101 -0.1749  0.1864 -0.1801
  173MOL0     C23235   5.933   9.131   6.216 -0.3016 -0.2303  0.1173
  173MOL0     C23236   5.788   9.158   6.207 -0.8021 -0.5990 -0.1543
  173MOL0     N23237   5.756   9.270   6.302  0.3895 -0.4478  0.4752
  173MOL0     C23238   5.805   9.401   6.323  0.3547  0.4727  0.5886
  173MOL0     C23239   5.746   9.448   6.435 -0.5703 -0.2567  0.1496
  173MOL0     C23240   5.758   9.589   6.481 -0.0622 -0.5048 -0.0921
  173MOL0     C23241   5.913   9.628   6.493  0.0165  0.7885 -0.6482
  173MOL0     C23242   5.991   9.529   6.581 -0.5199 -0.6972  0.7045
  173MOL0     C23243   5.933   9.498   6.721 -0.7558 -0.5744 -0.0923
  173MOL0     O23244   5.897   9.605   6.800  0.1029 -0.9351 -0.4433
  173MOL0     C23245   5.802   9.588   6.900  0.2922 -0.3426 -0.8603
  173MOL0     C23246   5.736   9.468   6.937  0.0777 -0.3070  0.0661
  173MOL0     C23247   5.642   9.465   7.040  0.6222  0.2502 -0.1576
  173MOL0     C23248   5.571   9.327   7.062 -0.3482 -0.1318  0.9937
  173MOL0     C23249   5.600   9.583   7.098  0.6276 -0.1425 -0.0450
  173MOL0     C23250   5.507   9.598   7.210 -1.0243  0.6765  0.1928
  173MOL0     O23251   5.499   9.481   7.293 -0.2354  0.8755  0.0822
  173MOL0     C23252   5.399   9.483   7.380 -0.5972 -0.0907  1.3271
  173MOL0     C23253   5.369   9.590   7.460 -0.4854  0.5378  0.4283
  173MOL0     C23254   5.243   9.591   7.521  0.4572 -0.0233  0.4120
  173MOL0     C23255   5.154   9.481   7.533  0.5881 -0.1365  0.6183
  173MOL0     O23256   5.036   9.486   7.605 -0.3526 -0.2541 -0.2564
  173MOL0     C23257   4.929   9.480   7.515  0.3156  0.2441  0.0116
  173MOL0     C23258   4.828   9.584   7.568 -1.3209 -0.3583  0.5055
  173MOL0     C23259   4.881   9.730   7.570  0.1145 -0.0341 -0.9040
  173MOL0     C23260   4.759   9.809   7.589  0.1622  0.0718 -0.8465
  173MOL0     C23261   4.779   9.956   7.582 -0.4738  0.0545  0.1845
  173MOL0     C23262   4.850  10.004   7.710  1.3257 -0.1050  0.5103
  173MOL0     C23263   4.878  10.160   7.704  0.2083 -0.9577 -0.0992
  173MOL0     C23264   4.890  10.231   7.842 -0.8009  0.3710 -0.4209
  173MOL0    Cl23265   5.035  10.179   7.939  0.1832 -0.2615 -0.2999
  173MOL0     C23266   5.195   9.364   7.459  0.7907 -0.6230  0.7199
  173MOL0     C23267   5.309   9.377   7.375 -0.8063  0.4305 -0.8980
  173MOL0     O23268   5.446   9.700   7.216 -0.3470 -0.2134 -0.2532
  173MOL0     C23269   5.667   9.700   7.064 -0.7561  0.8439 -0.2133
  173MOL0     C23270   5.773   9.704   6.969  0.0975  0.5352 -0.1669
  173MOL0     N23271   5.664   9.349   6.489  0.3408  0.2794  0.3470
  173MOL0     N23272   5.667   9.253   6.399  0.7501 -0.1714 -0.4073
  173MOL0     C23273   6.627   8.615   5.944 -0.2797  0.1259  1.1026
  173MOL0     C23274   6.765   8.631   5.910  0.7328  0.5431 -0.2159
  173MOL0     C23275   7.129   8.631   5.601 -0.5422 -0.3723 -0.1253
  173MOL0     C23276   7.175   8.502   5.647  0.3868  0.0802  0.4443
  173MOL0     C23277   7.293   8.443   5.601 -0.1054  0.3015  0.9367
  173MOL0     C23278   7.373   8.505   5.509  0.3621 -0.9535  0.7830
  173MOL0     O23279   7.482   8.447   5.450  0.5263  0.2595 -0.2582
  173MOL0     C23280   7.536   8.325   5.505 -0.7497  0.6709  0.4531
  173MOL0     C23281   7.651   8.290   5.412  0.0269 -0.3255 -0.0296
  173MOL0     C23282   7.751   8.404   5.370  0.1445 -0.4967 -0.7654
  173MOL0     C23283   7.865   8.354   5.285  0.4633 -0.5666 -0.5306
  173MOL0     C23284   7.821   8.350   5.148 -0.4309  0.8255 -0.5261
  173MOL0     C23285   7.784   8.361   5.032  0.3862  0.6951  0.7888
  173MOL0     C23286   7.333   8.638   5.469 -0.7898 -0.6170 -0.0259
  173MOL0     C23287   7.219   8.703   5.518 -0.6678 -0.6257 -0.4019
  173MOL0     H23288   6.761   8.609   5.579  1.0910  0.9599  1.1994
  173MOL0     H23289   6.509   8.591   5.624  0.1812  1.2311 -0.2915
  173MOL0     H23290   6.365   8.620   6.064 -1.3682 -0.3102  0.4133
  173MOL0     H23291   6.385   8.758   5.954  1.2830 -0.2329 -0.8780
  173MOL0     H23292   6.172   8.692   5.825 -3.0301  1.6021 -0.0222
  173MOL0     H23293   6.143   8.579   5.938  0.7076 -0.4806 -1.0051
  173MOL0     H23294   6.132   8.757   6.127 -2.9761 -1.4173 -0.4879
  173MOL0     H23295   6.181   8.879   6.007 -0.4401 -0.4425  0.2350
  173MOL0     H23296   5.960   8.841   5.892 -2.3262 -0.4995  0.2148
  173MOL0     H23297   5.911   8.731   6.013  0.0331  0.9856 -1.5901
  173MOL0     H23298   5.817   8.964   6.049  0.0707  3.4088  2.2958
  173MOL0     H23299   5.895   8.881   6.185  2.4793 -0.5609  0.0665
  173MOL0     H23300   6.095   9.036   6.131 -0.7380 -0.8810  1.0328
  173MOL0     H23301   5.993   9.098   5.999  2.0993 -0.9805 -0.7131
  173MOL0     H23302   5.969   9.083   6.307  0.5352  0.2466  0.0486
  173MOL0     H23303   5.986   9.226   6.225 -0.8227 -0.0831  1.9410
  173MOL0     H23304   5.738   9.063   6.232  0.5619 -1.3200 -0.0805
  173MOL0     H23305   5.755   9.189   6.107 -0.4221  4.3362  0.9972
  173MOL0     H23306   5.871   9.446   6.250 -0.5428 -1.3192 -1.4551
  173MOL0     H23307   5.702   9.643   6.403 -0.5008 -3.1188 -1.7357
  173MOL0     H23308   5.698   9.601   6.572  0.5400  0.7382  0.1596
  173MOL0     H23309   5.935   9.730   6.528 -0.6891  1.0921 -1.0698
  173MOL0     H23310   5.950   9.622   6.390  1.4658 -1.5542 -0.0611
  173MOL0     H23311   6.088   9.575   6.600  0.0011 -0.4029 -2.2057
  173MOL0     H23312   6.023   9.435   6.534 -0.1541  1.1106 -3.0449
  173MOL0     H23313   6.011   9.444   6.776  0.7169  1.2693 -0.3038
  173MOL0     H23314   5.845   9.433   6.708 -1.9089  0.3730  2.2419
  173MOL0     H23315   5.748   9.378   6.877 -1.1110 -1.5438  1.6239
  173MOL0     H23316   5.586   9.273   6.968  0.4068  1.3359  0.2142
  173MOL0     H23317   5.628   9.273   7.138  0.8798  1.6910  1.4345
  173MOL0     H23318   5.464   9.341   7.078 -0.4068 -0.3992  0.8423
  173MOL0     H23319   5.428   9.680   7.472 -1.9017  1.6754 -0.7107
  173MOL0     H23320   5.225   9.681   7.578  0.4091  0.7716 -0.8174
  173MOL0     H23321   4.961   9.512   7.415  2.0918  0.0647  0.4893
  173MOL0     H23322   4.886   9.380   7.516  4.0524 -1.6446  4.3857
  173MOL0     H23323   4.744   9.560   7.503  0.5952 -3.5000 -1.0442
  173MOL0     H23324   4.784   9.556   7.664  0.4652  1.0573  1.8138
  173MOL0     H23325   4.922   9.766   7.475 -0.8351 -0.0451 -1.3213
  173MOL0     H23326   4.953   9.751   7.649 -3.5071  2.9760  1.9626
  173MOL0     H23327   4.686   9.784   7.511  0.1366  1.9153 -1.4596
  173MOL0     H23328   4.712   9.775   7.681 -1.4884  0.7276 -1.4166
  173MOL0     H23329   4.679  10.000   7.592 -0.6575 -0.7408  2.4551
  173MOL0     H23330   4.822   9.993   7.489  2.6919 -4.5432 -0.4768
  173MOL0     H23331   4.791   9.984   7.800  1.2772 -1.1466  0.2626
  173MOL0     H23332   4.940   9.941   7.707  3.8662  3.2664 -2.0686
  173MOL0     H23333   4.797  10.208   7.648  0.3793  0.2778  0.6790
  173MOL0     H23334   4.969  10.172   7.645 -0.8972  2.3269 -1.3823
  173MOL0     H23335   4.798  10.205   7.896 -0.8070  1.0429 -0.1037
  173MOL0     H23336   4.901  10.338   7.823 -3.8993  1.0583  0.9492
  173MOL0     H23337   5.139   9.271   7.467 -0.9097  0.4132  1.4656
  173MOL0     H23338   5.325   9.296   7.304 -1.5099  0.3083 -0.9326
  173MOL0     H23339   5.648   9.796   7.111 -3.5521 -0.4520  1.5585
  173MOL0     H23340   5.849   9.780   6.954  2.3944 -1.8601 -1.6442
  173MOL0     H23341   6.604   8.612   6.050 -1.3918 -3.0938  0.8603
  173MOL0     H23342   6.829   8.646   5.996  0.9551 -2.3617  0.2394
  173MOL0     H23343   7.117   8.450   5.722 -1.9864  0.3513 -1.0771
  173MOL0     H23344   7.314   8.341   5.631 -3.0492 -0.5967  0.3004
  173MOL0     H23345   7.573   8.332   5.607 -2.5820  1.2917  1.1219
  173MOL0     H23346   7.462   8.245   5.515  0.9684 -0.6260  5.2795
  173MOL0     H23347   7.605   8.262   5.316  0.8452  1.8180 -1.1123
  173MOL0     H23348   7.706   8.203   5.448 -1.9995 -1.0439  1.5191
  173MOL0     H23349   7.809   8.446   5.453  4.1077  0.7999 -3.8940
  173MOL0     H23350   7.697   8.486   5.322 -0.0696 -2.2264 -3.7205
  173MOL0     H23351   7.916   8.264   5.319  0.1030 -0.2214  0.9794
  173MOL0     H23352   7.938   8.436   5.287 -0.8982  0.7228 -1.3985
  173MOL0     H23353   7.749   8.381   4.933  2.1753 -0.9584 -0.2469
  173MOL0     H23354   7.397   8.686   5.396 -0.2388 -2.0679 -0.5246
  173MOL0     H23355   7.206   8.805   5.481  1.9970  0.4424  1.3332
  174MOL0     O23356   6.739   1.450   3.636  0.4309  0.5173  0.4343
  174MOL0     C23357   6.791   1.428   3.743 -0.6220 -0.5545  0.5473
  174MOL0     O23358   6.845   1.313   3.786  0.0059  0.5141 -0.4585
  174MOL0     C23359   6.841   1.205   3.697 -1.0235  0.3344  0.5747
  174MOL0     C23360   6.726   1.135   3.670 -0.3264 -0.8460 -0.8720
  174MOL0     C23361   6.732   1.018   3.591  0.1357 -0.2767  0.3688
  174MOL0     C23362   6.850   0.963   3.539  0.3739  0.0799  1.1215
  174MOL0     O23363   6.846   0.841   3.477 -0.6887  0.1168  0.3445
  174MOL0     C23364   6.891   0.737   3.570  1.0595 -1.1611  0.5916
  174MOL0     C23365   6.854   0.594   3.518 -0.2714 -1.0610  0.3468
  174MOL0     C23366   6.943   0.562   3.396 -0.0665  0.6874  0.1085
  174MOL0     C23367   6.919   0.407   3.367  0.3465  0.1898 -0.1630
  174MOL0     C23368   6.951   0.372   3.225  0.0077  0.5471  0.1879
  174MOL0     C23369   6.934   0.222   3.199  0.0355 -0.3973 -0.3750
  174MOL0     C23370   6.956   0.177   3.059  0.6302  0.4852  0.4277
  174MOL0     C23371   7.096   0.154   3.009  0.4163 -0.0351 -0.8055
  174MOL0     N23372   7.133   0.023   3.050 -0.1784 -0.1136 -0.5636
  174MOL0     C23373   7.168  -0.010   3.181  0.1510  1.1582  0.7962
  174MOL0     C23374   7.158  -0.149   3.179 -0.4720  1.2898  0.1813
  174MOL0     C23375   7.189  -0.251   3.292 -0.7366  0.1814  0.0446
  174MOL0     C23376   7.327  -0.305   3.264 -0.1165  0.5130 -0.1422
  174MOL0     C23377   7.357  -0.378   3.396  1.1738 -0.1163 -0.4703
  174MOL0     C23378   7.487  -0.455   3.401 -0.2525 -0.1538 -0.3299
  174MOL0     O23379   7.607  -0.364   3.411  0.6245  0.0625  0.1177
  174MOL0     C23380   7.716  -0.411   3.349 -0.9742  0.3861  0.6632
  174MOL0     C23381   7.736  -0.546   3.315  1.2505  0.5125  0.7104
  174MOL0     C23382   7.843  -0.595   3.234  1.1822 -0.4562  0.8095
  174MOL0     C23383   7.876  -0.743   3.238 -0.1597  0.3208  0.2140
  174MOL0     C23384   7.943  -0.509   3.196 -0.5603 -0.4209 -0.0703
  174MOL0     C23385   8.063  -0.553   3.116  0.6788  0.6931  0.0945
  174MOL0     O23386   8.169  -0.461   3.107 -0.0474  0.6286 -0.7077
  174MOL0     C23387   8.262  -0.485   3.015  0.0653 -0.4791  0.4056
  174MOL0     C23388   8.251  -0.414   2.889 -1.2873 -0.2100 -0.6671
  174MOL0     C23389   8.366  -0.399   2.809 -0.3115  0.9205  0.6239
  174MOL0     C23390   8.482  -0.479   2.844 -0.2575 -0.9509  0.0148
  174MOL0     O23391   8.595  -0.479   2.768 -0.1956  0.3711 -0.4360
  174MOL0     C23392   8.591  -0.479   2.625 -0.1107 -0.9302 -0.6473
  174MOL0     C23393   8.581  -0.337   2.569  0.9984  0.6077 -0.9732
  174MOL0     C23394   8.690  -0.278   2.484 -0.6492  0.0926  0.5410
  174MOL0     C23395   8.828  -0.278   2.551  0.6963 -0.2756  0.4356
  174MOL0     C23396   8.940  -0.260   2.451  0.1623 -0.0828  0.6972
  174MOL0     C23397   9.069  -0.213   2.508 -0.9781 -0.5012 -1.1156
  174MOL0     C23398   9.181  -0.183   2.403 -0.0189 -0.2656 -0.0969
  174MOL0     C23399   9.187  -0.038   2.372 -0.3746 -0.3870  0.0289
  174MOL0    Cl23400   9.056   0.004   2.255  0.5870 -0.0329 -0.4643
  174MOL0     C23401   8.492  -0.541   2.965  0.6485 -0.3080 -0.1630
  174MOL0     C23402   8.382  -0.548   3.053  0.4069 -0.2793 -0.2295
  174MOL0     O23403   8.054  -0.658   3.051 -0.3245 -0.3829  0.0768
  174MOL0     C23404   7.929  -0.381   3.248  0.0297  0.8645  0.8174
  174MOL0     C23405   7.828  -0.332   3.328  0.2675 -0.4520  1.0334
  174MOL0     N23406   7.143  -0.191   3.045 -0.8522 -0.1581  1.0575
  174MOL0     N23407   7.123  -0.089   2.965 -0.4750 -0.2905 -0.5047
  174MOL0     C23408   6.971   1.031   3.571  0.3007  0.9066 -0.2813
  174MOL0     C23409   6.964   1.151   3.653  0.5926  0.8961 -0.7023
  174MOL0     C23410   6.788   1.543   3.838 -0.0274  0.0965 -0.2491
  174MOL0     C23411   6.744   1.674   3.797 -0.3535  0.3870 -0.1902
  174MOL0     C23412   6.730   1.775   3.897  0.6862 -0.4181  0.0058
  174MOL0     C23413   6.763   1.745   4.029  0.0042 -0.7649  0.3447
  174MOL0     O23414   6.781   1.844   4.125  0.3202  0.3350  0.0378
  174MOL0     C23415   6.869   1.948   4.090  0.6501 -0.1743 -0.3658
  174MOL0     C23416   6.863   2.065   4.192  0.5094 -0.1182 -1.0420
  174MOL0     C23417   6.886   2.011   4.334 -0.5888 -0.4512 -0.1135
  174MOL0     C23418   6.948   2.120   4.419 -0.0196 -0.5865  0.3404
  174MOL0     C23419   7.003   2.065   4.540  0.3359  0.3580 -1.0240
  174MOL0     C23420   7.053   2.007   4.638  0.3267  0.2261 -0.2945
  174MOL0     C23421   6.813   1.619   4.064 -0.4124 -0.0339 -0.0634
  174MOL0     C23422   6.837   1.522   3.974 -0.3622 -0.5053 -0.2247
  174MOL0     H23423   6.629   1.169   3.704 -1.4633 -2.2296 -2.5536
  174MOL0     H23424   6.641   0.967   3.561  0.4057 -1.6038  1.6550
  174MOL0     H23425   6.999   0.742   3.587  0.9639 -0.2210  0.9631
  174MOL0     H23426   6.839   0.748   3.666  0.8244  0.9661  0.2520
  174MOL0     H23427   6.890   0.521   3.591 -0.5274 -3.3289 -1.6900
  174MOL0     H23428   6.746   0.583   3.505 -0.9866  2.9233  1.2949
  174MOL0     H23429   6.922   0.641   3.323 -1.8861  0.3445  0.2085
  174MOL0     H23430   7.045   0.586   3.426  0.3416 -1.4902  0.6404
  174MOL0     H23431   6.978   0.346   3.436 -2.1331 -2.4234 -0.2005
  174MOL0     H23432   6.818   0.381   3.398  0.7901  2.5575  4.0659
  174MOL0     H23433   6.893   0.434   3.155 -0.5550  1.3559  1.3273
  174MOL0     H23434   7.056   0.393   3.206  0.4986 -2.4717 -1.0743
  174MOL0     H23435   6.995   0.166   3.271 -0.5147  0.3624  0.7161
  174MOL0     H23436   6.830   0.206   3.229 -0.3670  2.5372  0.1383
  174MOL0     H23437   6.893   0.088   3.061  0.9751  0.2471  1.7248
  174MOL0     H23438   6.915   0.255   2.993 -1.1639 -1.6374 -1.1142
  174MOL0     H23439   7.164   0.223   3.060  3.4877 -1.4006 -2.7267
  174MOL0     H23440   7.104   0.161   2.900  2.2259 -0.3850 -0.7280
  174MOL0     H23441   7.179   0.053   3.269  0.2243  1.8484  0.2977
  174MOL0     H23442   7.184  -0.208   3.393  0.3285  0.4188  0.0043
  174MOL0     H23443   7.119  -0.335   3.284 -1.3885  0.4577  2.1193
  174MOL0     H23444   7.404  -0.232   3.237  0.5219  0.2975  1.0127
  174MOL0     H23445   7.307  -0.380   3.187 -2.1772 -0.7553  1.5246
  174MOL0     H23446   7.280  -0.455   3.402 -0.4641  1.4139 -1.0773
  174MOL0     H23447   7.342  -0.318   3.486  0.3151  2.6272 -2.3193
  174MOL0     H23448   7.485  -0.521   3.315 -1.4168 -1.3286  0.5623
  174MOL0     H23449   7.485  -0.515   3.492  0.7603  1.8779  1.1234
  174MOL0     H23450   7.664  -0.620   3.349  1.1445  0.5295  0.5247
  174MOL0     H23451   7.984  -0.745   3.259 -0.1110  0.7118  0.0208
  174MOL0     H23452   7.810  -0.802   3.301 -1.7896  1.8509  0.0279
  174MOL0     H23453   7.862  -0.778   3.135 -0.3696 -1.0917  0.7082
  174MOL0     H23454   8.157  -0.363   2.870 -2.5866 -0.6160  3.6381
  174MOL0     H23455   8.364  -0.332   2.724  0.5856  2.1784  1.5588
  174MOL0     H23456   8.687  -0.519   2.593  0.6845  1.2593 -1.1909
  174MOL0     H23457   8.509  -0.538   2.583  0.9428 -0.3355 -3.8524
  174MOL0     H23458   8.488  -0.318   2.513  0.2799 -0.0365 -0.0343
  174MOL0     H23459   8.557  -0.277   2.657 -0.0380 -0.1647 -0.7045
  174MOL0     H23460   8.675  -0.176   2.448  1.7863 -0.0398 -1.0560
  174MOL0     H23461   8.699  -0.337   2.392 -0.4342  0.4903  0.3067
  174MOL0     H23462   8.820  -0.184   2.608 -0.8386  0.6620 -1.2237
  174MOL0     H23463   8.851  -0.355   2.625  1.3639  0.2081  0.7401
  174MOL0     H23464   8.911  -0.201   2.364  0.4583 -2.8162 -1.4154
  174MOL0     H23465   8.954  -0.364   2.418 -1.9625 -0.5021  0.9654
  174MOL0     H23466   9.049  -0.125   2.570  1.8126 -1.4450  1.3394
  174MOL0     H23467   9.111  -0.288   2.576  0.8013  0.2256 -1.3658
  174MOL0     H23468   9.174  -0.236   2.308  1.7599  0.6929 -0.8039
  174MOL0     H23469   9.273  -0.218   2.451  2.1328 -0.6500 -4.1031
  174MOL0     H23470   9.284  -0.032   2.323 -0.4978 -1.9179 -0.4692
  174MOL0     H23471   9.170   0.023   2.461 -2.9441 -0.4268 -0.3402
  174MOL0     H23472   8.582  -0.593   2.994  0.6229 -0.0321  0.4447
  174MOL0     H23473   8.384  -0.616   3.137 -3.2658 -0.4945 -0.1697
  174MOL0     H23474   8.001  -0.304   3.221 -2.4288  2.0141 -3.3067
  174MOL0     H23475   7.835  -0.234   3.374  0.9564 -1.0626  2.3155
  174MOL0     H23476   7.063   0.987   3.534  0.9261  1.8823  0.0890
  174MOL0     H23477   7.056   1.196   3.687  1.0585  0.1165 -0.9112
  174MOL0     H23478   6.699   1.687   3.698  0.9883  0.4629 -0.8080
  174MOL0     H23479   6.708   1.879   3.876  5.5185  0.9935  0.9065
  174MOL0     H23480   6.976   1.929   4.093  0.8028  0.7142  0.4412
  174MOL0     H23481   6.855   1.975   3.985  1.8301 -3.3555 -1.4428
  174MOL0     H23482   6.771   2.123   4.185  1.4043  1.3022 -1.6883
  174MOL0     H23483   6.947   2.134   4.177  0.2601  1.5373  3.6802
  174MOL0     H23484   6.957   1.927   4.337 -0.9026 -0.7035  0.4021
  174MOL0     H23485   6.793   1.985   4.386  0.0780  0.6552  1.7028
  174MOL0     H23486   6.878   2.203   4.431 -1.0233 -1.5451  1.4348
  174MOL0     H23487   7.031   2.174   4.372  1.0069  0.9914  3.6359
  174MOL0     H23488   7.104   1.961   4.720  1.7511 -0.4856 -1.5236
  174MOL0     H23489   6.840   1.596   4.167 -0.1737  2.8886  0.6185
  174MOL0     H23490   6.870   1.421   3.998 -1.8342 -1.3934 -1.7219
  175MOL0     O23491   4.791   8.035   7.654  0.2715  0.0409 -0.3395
  175MOL0     C23492   4.730   7.952   7.722 -0.1845 -0.0117  0.3390
  175MOL0     O23493   4.600   7.939   7.726  0.1958  0.1848 -0.4364
  175MOL0     C23494   4.520   8.041   7.684  0.7307  0.5386  0.3802
  175MOL0     C23495   4.544   8.177   7.696 -0.3452 -0.6284  0.2698
  175MOL0     C23496   4.453   8.275   7.651  0.0377  0.1150  0.7581
  175MOL0     C23497   4.332   8.233   7.593  0.2468  0.2544 -1.4170
  175MOL0     O23498   4.235   8.323   7.553 -0.5906  0.3767  0.2400
  175MOL0     C23499   4.273   8.435   7.480  0.0486  0.0236 -0.1375
  175MOL0     C23500   4.313   8.383   7.338  0.3107  0.0345  0.0509
  175MOL0     C23501   4.304   8.489   7.233 -0.9888 -0.0099 -0.0753
  175MOL0     C23502   4.404   8.609   7.256 -0.0074  0.8581 -0.2765
  175MOL0     C23503   4.392   8.714   7.153 -0.9361 -0.3422  0.0114
  175MOL0     C23504   4.478   8.827   7.170 -0.5875  0.5610 -0.5447
  175MOL0     C23505   4.460   8.896   7.315  0.5684 -0.3950  0.4263
  175MOL0     C23506   4.504   9.045   7.291 -0.1668 -0.0009  0.4779
  175MOL0     N23507   4.651   9.050   7.299  0.2239  0.0927 -0.4924
  175MOL0     C23508   4.728   9.039   7.184 -0.2068 -0.0415  0.2367
  175MOL0     C23509   4.856   9.079   7.218 -0.6292 -0.7519 -0.6637
  175MOL0     C23510   4.969   9.092   7.123 -0.8722 -0.0733 -0.2343
  175MOL0     C23511   4.965   9.233   7.075 -0.8471 -0.1838  0.4944
  175MOL0     C23512   5.101   9.260   7.004  0.1552 -0.3716 -0.1703
  175MOL0     C23513   5.134   9.403   6.996  0.2534 -0.4167  0.0114
  175MOL0     O23514   5.178   9.440   6.861  0.0718 -0.5792 -0.1446
  175MOL0     C23515   5.212   9.565   6.817 -0.2328 -0.0704 -0.2305
  175MOL0     C23516   5.231   9.671   6.895  0.0874 -0.8718 -0.3355
  175MOL0     C23517   5.283   9.791   6.844  0.4057 -0.7479  0.3763
  175MOL0     C23518   5.303   9.903   6.942 -0.1877  1.0853 -0.5419
  175MOL0     C23519   5.313   9.801   6.709 -0.1362 -0.0736 -0.1254
  175MOL0     C23520   5.356   9.927   6.645 -0.3047 -0.7464 -0.3933
  175MOL0     O23521   5.367   9.925   6.505  0.6967  0.0632 -0.5970
  175MOL0     C23522   5.408  10.034   6.441  0.7521  0.1601 -0.1557
  175MOL0     C23523   5.328  10.088   6.346 -0.4923  0.0605  0.8257
  175MOL0     C23524   5.360  10.202   6.275 -0.1056 -0.3020 -0.1615
  175MOL0     C23525   5.472  10.279   6.315  0.1656 -0.3450 -0.6965
  175MOL0     O23526   5.496  10.396   6.250  0.3439  0.4960 -0.1820
  175MOL0     C23527   5.603  10.478   6.289 -0.0563  0.4233  0.3524
  175MOL0     C23528   5.611  10.609   6.214  1.2023  0.2081  0.9778
  175MOL0     C23529   5.734  10.689   6.273 -0.3838  0.6481  0.2771
  175MOL0     C23530   5.731  10.831   6.230 -0.3777  0.6824  0.2245
  175MOL0     C23531   5.844  10.911   6.299 -0.2543  0.0085  0.3889
  175MOL0     C23532   5.839  11.056   6.251 -0.2902  1.1758  0.1301
  175MOL0     C23533   5.948  11.135   6.314 -0.6862 -0.0477  0.5561
  175MOL0     C23534   5.907  11.243   6.424  0.7255 -0.4452  0.5332
  175MOL0    Cl23535   5.841  11.158   6.576  0.1933 -0.1166  0.4667
  175MOL0     C23536   5.558  10.221   6.410 -0.8398  0.1953 -0.5268
  175MOL0     C23537   5.515  10.110   6.482  0.4583 -0.0994 -0.6640
  175MOL0     O23538   5.367  10.029   6.711 -0.4613 -0.8301  0.6681
  175MOL0     C23539   5.306   9.685   6.631  0.1651  0.1295  0.6108
  175MOL0     C23540   5.259   9.567   6.687 -0.3851 -0.7692 -0.2711
  175MOL0     N23541   4.851   9.084   7.355 -0.9175 -0.6038  0.1696
  175MOL0     N23542   4.731   9.084   7.399  0.7277  0.6163  0.2894
  175MOL0     C23543   4.299   8.097   7.600  0.2998 -0.1576 -0.2910
  175MOL0     C23544   4.390   7.997   7.634  0.4648 -0.0950  0.2970
  175MOL0     C23545   4.813   7.858   7.800 -0.2568 -0.3838 -0.1619
  175MOL0     C23546   4.945   7.837   7.772  0.8988  0.0952  0.1638
  175MOL0     C23547   5.026   7.743   7.844  0.5999 -0.3172  0.0638
  175MOL0     C23548   4.961   7.668   7.950 -0.1935 -1.2034  0.6367
  175MOL0     O23549   5.022   7.572   8.018 -0.3219  0.7227  1.3330
  175MOL0     C23550   5.152   7.602   8.045 -0.1257  0.8385  0.2400
  175MOL0     C23551   5.191   7.526   8.167 -0.4039  0.2879 -0.1537
  175MOL0     C23552   5.181   7.372   8.154 -0.1784 -0.1955 -0.3459
  175MOL0     C23553   5.273   7.300   8.253 -0.3440 -0.5343  0.3380
  175MOL0     C23554   5.413   7.292   8.198  0.7691 -0.1730 -0.0931
  175MOL0     C23555   5.530   7.283   8.163 -0.8183 -0.2488  0.2874
  175MOL0     C23556   4.835   7.691   7.982 -0.0207  0.0928  0.0929
  175MOL0     C23557   4.764   7.787   7.915  0.3427  0.3877 -0.1997
  175MOL0     H23558   4.638   8.217   7.735  1.2998 -4.5795  0.7914
  175MOL0     H23559   4.480   8.380   7.645  0.8052 -0.1494 -0.7217
  175MOL0     H23560   4.186   8.500   7.465  0.5375  0.2332 -2.4495
  175MOL0     H23561   4.345   8.500   7.530 -0.7249  1.6695 -1.0562
  175MOL0     H23562   4.417   8.350   7.351  1.5297  2.8676 -1.4665
  175MOL0     H23563   4.249   8.301   7.305 -0.8737  1.2300 -0.7107
  175MOL0     H23564   4.329   8.428   7.146 -0.8683  0.8866 -0.6717
  175MOL0     H23565   4.202   8.523   7.214  0.7488  4.2189 -3.5382
  175MOL0     H23566   4.383   8.655   7.354 -1.5186 -1.0477  0.3417
  175MOL0     H23567   4.502   8.562   7.268  1.0128  2.8340 -0.3500
  175MOL0     H23568   4.420   8.675   7.054  1.0874 -1.7633  1.0681
  175MOL0     H23569   4.290   8.752   7.143 -0.6116  0.7733  0.8139
  175MOL0     H23570   4.582   8.795   7.159  0.9766  4.9295 -0.6382
  175MOL0     H23571   4.452   8.905   7.098 -4.0417 -0.8202 -0.9668
  175MOL0     H23572   4.353   8.912   7.330  0.6923  1.4671 -0.3738
  175MOL0     H23573   4.513   8.843   7.395  0.9168 -1.6691 -0.6114
  175MOL0     H23574   4.472   9.105   7.377  2.2518  0.2557  1.2523
  175MOL0     H23575   4.459   9.089   7.201 -2.2758  2.3108  2.4862
  175MOL0     H23576   4.703   9.041   7.078  0.0589  2.1964  0.1797
  175MOL0     H23577   5.057   9.072   7.185  0.8915 -2.8012 -3.2423
  175MOL0     H23578   4.940   9.023   7.043 -0.4527  1.0130 -1.3577
  175MOL0     H23579   4.945   9.300   7.159 -1.5265 -1.8196  1.6932
  175MOL0     H23580   4.886   9.243   6.999 -0.1397 -0.8312 -0.3611
  175MOL0     H23581   5.106   9.217   6.903  2.0638  0.6034 -0.5495
  175MOL0     H23582   5.184   9.220   7.063  0.5923  1.6498  0.6722
  175MOL0     H23583   5.211   9.429   7.069  1.7322 -3.5684 -0.2831
  175MOL0     H23584   5.041   9.457   7.018  0.2729 -0.3353 -0.1119
  175MOL0     H23585   5.200   9.674   6.999 -2.5789 -0.9050 -1.0629
  175MOL0     H23586   5.229   9.983   6.926 -1.4242  0.8640  3.1470
  175MOL0     H23587   5.288   9.862   7.042  1.1880  1.9672  0.0505
  175MOL0     H23588   5.407   9.933   6.930 -0.0341  1.4026  1.3643
  175MOL0     H23589   5.241  10.029   6.320 -0.8203  0.4194  1.1157
  175MOL0     H23590   5.291  10.233   6.197 -1.2547  0.8199  1.2510
  175MOL0     H23591   5.605  10.498   6.397  2.5593 -2.1069  0.8676
  175MOL0     H23592   5.695  10.424   6.268  0.2420  1.4954 -1.3748
  175MOL0     H23593   5.620  10.584   6.108 -1.8331 -1.5093  0.9952
  175MOL0     H23594   5.521  10.667   6.238  1.8261  0.1642  3.7079
  175MOL0     H23595   5.819  10.633   6.232 -0.8955 -1.4930  1.9263
  175MOL0     H23596   5.730  10.679   6.382  0.6911  0.5544  0.3247
  175MOL0     H23597   5.741  10.832   6.121  1.0333  1.6206  0.3324
  175MOL0     H23598   5.633  10.873   6.257 -1.1215  0.4787 -1.9889
  175MOL0     H23599   5.942  10.883   6.260 -1.8475 -0.7746 -3.4819
  175MOL0     H23600   5.839  10.906   6.408  0.7461 -1.6268  0.3900
  175MOL0     H23601   5.843  11.063   6.142  2.1698 -0.3604  0.0467
  175MOL0     H23602   5.739  11.089   6.282 -1.6041 -3.1737  1.2699
  175MOL0     H23603   5.996  11.185   6.229  1.1673 -1.3577  0.7890
  175MOL0     H23604   6.031  11.074   6.349  1.3024  1.2299 -1.6398
  175MOL0     H23605   5.830  11.297   6.368  0.3147 -0.9992  0.5569
  175MOL0     H23606   5.985  11.318   6.443  1.3236 -0.5020 -1.4473
  175MOL0     H23607   5.645  10.278   6.440 -0.4294  0.8283 -2.7361
  175MOL0     H23608   5.585  10.079   6.559  3.1145  1.4793 -2.2660
  175MOL0     H23609   5.343   9.683   6.529  0.8035 -0.7729  0.8595
  175MOL0     H23610   5.244   9.484   6.618 -1.2695 -2.2485  1.6197
  175MOL0     H23611   4.202   8.070   7.557 -0.1782 -0.1200  0.7388
  175MOL0     H23612   4.369   7.891   7.628 -3.3115  0.5765 -1.2957
  175MOL0     H23613   4.991   7.895   7.693 -2.7895  2.4020 -0.5240
  175MOL0     H23614   5.129   7.734   7.813  0.7092  1.6221 -0.2619
  175MOL0     H23615   5.217   7.577   7.960  2.1727  1.9392  1.5772
  175MOL0     H23616   5.179   7.708   8.054  0.4803  0.8261 -1.1105
  175MOL0     H23617   5.134   7.563   8.253  0.5037  1.5986 -0.0754
  175MOL0     H23618   5.297   7.555   8.171 -0.1361  1.3003 -5.9781
  175MOL0     H23619   5.214   7.343   8.053 -0.0231  0.7434 -0.5774
  175MOL0     H23620   5.075   7.347   8.160 -0.4129  0.9894  4.6274
  175MOL0     H23621   5.238   7.197   8.265  0.7401 -0.8082  1.3300
  175MOL0     H23622   5.272   7.342   8.354  0.0540 -1.1471  0.6031
  175MOL0     H23623   5.634   7.286   8.136 -0.3416 -0.2868  2.0356
  175MOL0     H23624   4.787   7.641   8.066 -2.2887  1.5867 -0.2071
  175MOL0     H23625   4.660   7.799   7.945 -0.2227 -2.5468 -0.6105
  176MOL0     O23626   4.084   3.850   1.784 -0.5876  0.2506  0.1533
  176MOL0     C23627   4.043   3.924   1.701  1.0597  0.6290 -0.0909
  176MOL0     O23628   3.951   3.880   1.601 -0.1799 -0.4743 -0.5048
  176MOL0     C23629   3.911   3.750   1.606 -0.2846  0.5502 -0.6488
  176MOL0     C23630   3.821   3.714   1.710  0.9669 -0.7180  0.6410
  176MOL0     C23631   3.760   3.584   1.700  0.2448 -1.0025  0.0563
  176MOL0     C23632   3.799   3.498   1.597  0.0612  0.5249  0.2812
  176MOL0     O23633   3.749   3.373   1.590 -0.3149  0.0787  0.1934
  176MOL0     C23634   3.662   3.322   1.692  0.5739  0.0362 -0.7480
  176MOL0     C23635   3.643   3.166   1.692  0.5153 -0.8941 -0.3392
  176MOL0     C23636   3.781   3.102   1.657 -0.4110 -0.8649 -0.2711
  176MOL0     C23637   3.808   2.962   1.715  0.3241 -0.0106 -0.4778
  176MOL0     C23638   3.951   2.900   1.694  0.5230 -0.5062 -0.5276
  176MOL0     C23639   3.997   2.817   1.818  0.4839 -1.0423 -0.0429
  176MOL0     C23640   4.094   2.707   1.763 -0.7348 -0.3659  0.0597
  176MOL0     C23641   4.018   2.578   1.720  0.0181 -1.1983 -0.5432
  176MOL0     N23642   4.107   2.493   1.651 -0.3777  0.5061 -0.2337
  176MOL0     C23643   4.218   2.431   1.698 -0.4645  0.7160  0.0992
  176MOL0     C23644   4.248   2.332   1.607  0.4388  0.5992 -0.2809
  176MOL0     C23645   4.358   2.226   1.621 -0.1261 -0.4594  0.2385
  176MOL0     C23646   4.480   2.268   1.705  1.0074 -0.0745  0.5089
  176MOL0     C23647   4.558   2.149   1.751  0.8244  1.3202 -0.8992
  176MOL0     C23648   4.669   2.194   1.846  0.8582  0.2745  0.9895
  176MOL0     O23649   4.633   2.270   1.965 -0.2312  0.0127 -0.7114
  176MOL0     C23650   4.573   2.201   2.070  1.1537 -0.4933  1.0313
  176MOL0     C23651   4.552   2.289   2.174 -0.0177 -0.2565 -1.3057
  176MOL0     C23652   4.500   2.238   2.295  0.3120  0.1549  0.3772
  176MOL0     C23653   4.491   2.333   2.414 -0.3004 -0.6338  0.3251
  176MOL0     C23654   4.481   2.100   2.311  0.5928  0.1152  0.1895
  176MOL0     C23655   4.434   2.020   2.438  1.5359 -0.2586 -0.3172
  176MOL0     O23656   4.369   1.905   2.418 -0.1567  1.1064 -0.8937
  176MOL0     C23657   4.313   1.837   2.529  0.7422 -0.4924  0.8758
  176MOL0     C23658   4.197   1.888   2.593  0.9077 -0.0549  0.4351
  176MOL0     C23659   4.159   1.827   2.710 -0.5286 -0.1840  0.1323
  176MOL0     C23660   4.209   1.703   2.748 -0.0464  0.4023  0.1861
  176MOL0     O23661   4.165   1.636   2.862 -0.3441  1.0270  0.2042
  176MOL0     C23662   4.062   1.691   2.938  0.6905  0.1826 -0.7988
  176MOL0     C23663   4.111   1.811   3.034 -0.0160  0.2185 -0.7398
  176MOL0     C23664   4.009   1.834   3.154 -0.4326 -0.0619  0.4596
  176MOL0     C23665   4.084   1.912   3.269 -0.2442  0.7840  0.0304
  176MOL0     C23666   3.990   1.947   3.382  0.1261 -0.8587  0.2112
  176MOL0     C23667   4.061   2.012   3.500 -0.6528 -0.3333  0.5572
  176MOL0     C23668   3.965   2.086   3.600 -0.2794  0.5707  0.3130
  176MOL0     C23669   3.829   2.011   3.654  0.1227  0.0349  0.9445
  176MOL0    Cl23670   3.696   2.019   3.539  0.2882 -0.0780  0.5766
  176MOL0     C23671   4.312   1.648   2.679  0.5583  0.0582 -0.0111
  176MOL0     C23672   4.363   1.712   2.564 -0.5603  1.2935 -0.7647
  176MOL0     O23673   4.473   2.065   2.551  0.2994 -0.4775 -0.4518
  176MOL0     C23674   4.505   2.015   2.196  0.9324  0.6496  0.4604
  176MOL0     C23675   4.553   2.073   2.078  0.1755 -0.0113  0.2023
  176MOL0     N23676   4.157   2.344   1.502 -0.1728 -0.0419 -0.7927
  176MOL0     N23677   4.083   2.444   1.524 -0.2877 -0.1968 -0.0111
  176MOL0     C23678   3.895   3.534   1.506  0.3556  0.1965 -0.3414
  176MOL0     C23679   3.949   3.663   1.501  0.3444  0.0778 -0.1899
  176MOL0     C23680   4.066   4.070   1.721  0.7241  0.2240  0.9250
  176MOL0     C23681   4.150   4.117   1.827 -0.9015  0.1585 -0.0314
  176MOL0     C23682   4.182   4.251   1.847 -0.5813 -0.4687 -0.4965
  176MOL0     C23683   4.130   4.350   1.755 -0.2671 -0.5298 -0.3855
  176MOL0     O23684   4.148   4.482   1.763  0.3449 -0.6452  0.2537
  176MOL0     C23685   4.207   4.529   1.883 -0.2716 -1.3628 -0.1215
  176MOL0     C23686   4.221   4.685   1.898  0.3655  0.6260 -0.6921
  176MOL0     C23687   4.321   4.733   2.001 -0.4065  0.1465 -0.8799
  176MOL0     C23688   4.328   4.884   2.017  0.2597  0.5020  0.4761
  176MOL0     C23689   4.390   4.944   1.900  0.4637  0.1008  0.5894
  176MOL0     C23690   4.436   5.005   1.801  0.0692 -0.8662 -0.4782
  176MOL0     C23691   4.049   4.300   1.647 -0.2634 -0.4242 -0.1823
  176MOL0     C23692   4.029   4.158   1.622  0.3747 -0.2567 -0.3904
  176MOL0     H23693   3.794   3.785   1.787 -0.7516 -1.0853  0.4120
  176MOL0     H23694   3.681   3.576   1.775 -0.0818 -3.3270 -0.4707
  176MOL0     H23695   3.695   3.343   1.794 -0.2678 -0.3837 -0.3747
  176MOL0     H23696   3.565   3.371   1.683  0.2973 -0.0616  1.2601
  176MOL0     H23697   3.623   3.140   1.796  1.6562  1.6121  0.6009
  176MOL0     H23698   3.561   3.144   1.623  2.7437 -1.8227 -2.8429
  176MOL0     H23699   3.785   3.089   1.548  2.2648 -1.8069 -0.1411
  176MOL0     H23700   3.865   3.158   1.699  0.3477 -2.1571 -0.0175
  176MOL0     H23701   3.790   2.979   1.822  1.1632 -0.5131 -0.2461
  176MOL0     H23702   3.726   2.892   1.701 -1.9593  2.3857 -0.0483
  176MOL0     H23703   3.947   2.841   1.603 -0.5879  0.2824 -1.0162
  176MOL0     H23704   4.019   2.985   1.690  1.6798 -1.1890  2.1545
  176MOL0     H23705   4.038   2.877   1.900  1.1549 -2.0270  0.3520
  176MOL0     H23706   3.907   2.769   1.856 -1.0432 -0.4135 -2.5792
  176MOL0     H23707   4.160   2.740   1.682 -2.7192 -0.2241 -1.5916
  176MOL0     H23708   4.157   2.682   1.849 -1.0617  0.1591  0.4605
  176MOL0     H23709   3.923   2.607   1.675  0.5530  0.4092 -0.6969
  176MOL0     H23710   3.992   2.519   1.808 -1.8942 -0.7856 -0.8013
  176MOL0     H23711   4.271   2.460   1.788  1.3985  0.5211 -0.9007
  176MOL0     H23712   4.311   2.134   1.658  1.4461 -0.5905  2.0402
  176MOL0     H23713   4.393   2.187   1.524  0.5163 -1.5190  0.8711
  176MOL0     H23714   4.451   2.336   1.786 -2.2289  1.5351 -1.8035
  176MOL0     H23715   4.550   2.336   1.656 -0.3526  2.2369  1.6133
  176MOL0     H23716   4.595   2.094   1.664  1.7384 -0.5437  0.6040
  176MOL0     H23717   4.494   2.085   1.813 -0.3955  2.9878 -0.3797
  176MOL0     H23718   4.738   2.259   1.791  0.5406  0.5370  0.8993
  176MOL0     H23719   4.735   2.115   1.883 -1.4241 -1.1264  2.3422
  176MOL0     H23720   4.577   2.395   2.174  0.8391 -0.3843  0.9587
  176MOL0     H23721   4.522   2.436   2.392 -1.2428 -0.4592 -0.2525
  176MOL0     H23722   4.399   2.341   2.474  0.4456  0.6068  1.3426
  176MOL0     H23723   4.562   2.294   2.487 -1.7527 -0.1754  2.0405
  176MOL0     H23724   4.139   1.976   2.567  1.0893  0.2413  1.0318
  176MOL0     H23725   4.096   1.890   2.772 -0.9393  2.3095 -2.6142
  176MOL0     H23726   3.975   1.719   2.878  0.0842  2.9077  1.1908
  176MOL0     H23727   4.028   1.614   3.008  3.5945  0.1267  0.7049
  176MOL0     H23728   4.196   1.772   3.090 -0.5347  2.1149  1.5275
  176MOL0     H23729   4.138   1.900   2.976  0.4538 -0.3364 -1.3923
  176MOL0     H23730   3.973   1.738   3.190  1.4110 -0.6908  0.7618
  176MOL0     H23731   3.940   1.912   3.120  1.1451  0.6945 -1.2323
  176MOL0     H23732   4.160   1.839   3.299 -0.5700  0.9505  1.3387
  176MOL0     H23733   4.123   2.008   3.234 -1.9967  1.2484 -0.7169
  176MOL0     H23734   3.924   1.865   3.409 -1.1778 -0.3341 -1.2147
  176MOL0     H23735   3.929   2.034   3.354 -1.7011 -0.6351  4.1953
  176MOL0     H23736   4.119   1.935   3.551  1.0470 -0.5315 -1.5014
  176MOL0     H23737   4.141   2.083   3.476  2.4352 -2.7124  2.9746
  176MOL0     H23738   3.932   2.179   3.553 -3.0239 -0.7553 -0.5843
  176MOL0     H23739   4.020   2.106   3.693 -2.6177  0.0793  1.8840
  176MOL0     H23740   3.785   2.053   3.745 -1.4021 -3.3863  1.9568
  176MOL0     H23741   3.856   1.909   3.684 -1.4862 -0.0418  2.2815
  176MOL0     H23742   4.363   1.556   2.704  1.0875  1.0025  2.6942
  176MOL0     H23743   4.448   1.657   2.524 -0.9382  0.8033 -0.9101
  176MOL0     H23744   4.486   1.908   2.199 -3.5071  1.2506  2.0691
  176MOL0     H23745   4.581   2.009   1.994  1.7648 -0.3916  0.9831
  176MOL0     H23746   3.918   3.466   1.424  0.2660 -1.7711  1.1924
  176MOL0     H23747   4.020   3.682   1.421 -1.6361  0.5000 -1.9406
  176MOL0     H23748   4.199   4.044   1.891  0.4673  1.7317  0.8014
  176MOL0     H23749   4.236   4.282   1.936 -0.2177 -1.5380 -0.3324
  176MOL0     H23750   4.161   4.488   1.974  3.0711 -0.5120  2.1616
  176MOL0     H23751   4.313   4.501   1.894  0.4269  1.0045 -0.3221
  176MOL0     H23752   4.123   4.731   1.913 -0.0770 -0.3939 -0.4358
  176MOL0     H23753   4.261   4.724   1.803  1.0719  3.1153  0.5388
  176MOL0     H23754   4.421   4.698   1.972 -0.2308  0.4262 -0.6191
  176MOL0     H23755   4.300   4.688   2.098  4.6985 -0.5127  0.2088
  176MOL0     H23756   4.402   4.909   2.094  1.8095  0.6448 -1.0039
  176MOL0     H23757   4.234   4.929   2.050 -0.6073 -2.0997  1.7488
  176MOL0     H23758   4.491   5.058   1.726  0.7800  0.4531  0.9194
  176MOL0     H23759   4.017   4.381   1.581  1.4318  0.7591  0.3788
  176MOL0     H23760   3.966   4.130   1.538 -0.8897 -2.3190  1.1434
  177MOL0     O23761   8.241   3.067   0.600 -0.1610 -0.2735  0.1723
  177MOL0     C23762   8.218   3.072   0.720  0.3392  0.0394 -0.5263
  177MOL0     O23763   8.149   2.975   0.793  0.1640  0.5102  0.0738
  177MOL0     C23764   8.094   2.860   0.729  0.4979  0.8589 -0.3208
  177MOL0     C23765   8.049   2.846   0.599  0.4220 -0.5388 -0.0922
  177MOL0     C23766   7.995   2.732   0.539  0.0554 -0.8751 -0.3089
  177MOL0     C23767   7.986   2.616   0.621  0.0646 -0.2746  0.9030
  177MOL0     O23768   7.948   2.500   0.562 -0.2430 -0.1647  0.7705
  177MOL0     C23769   7.901   2.496   0.427  0.5835  0.7254 -0.1924
  177MOL0     C23770   7.903   2.337   0.381  0.7930 -0.9981 -0.0293
  177MOL0     C23771   7.806   2.318   0.261 -0.2690  0.6294  0.0295
  177MOL0     C23772   7.847   2.353   0.124  0.0024  0.1246  0.2671
  177MOL0     C23773   7.767   2.312  -0.001 -0.3178 -0.0230  0.2231
  177MOL0     C23774   7.789   2.166  -0.052  0.3955  1.0545 -0.1682
  177MOL0     C23775   7.928   2.137  -0.114  0.6533 -1.6968 -0.7706
  177MOL0     C23776   7.927   1.995  -0.162 -0.1835  0.4056  0.3958
  177MOL0     N23777   7.932   1.887  -0.063  0.3788 -0.1620  0.5199
  177MOL0     C23778   7.823   1.823  -0.006 -0.7910  0.7311  0.5989
  177MOL0     C23779   7.866   1.785   0.117 -1.0420  0.5695  0.4504
  177MOL0     C23780   7.798   1.711   0.227 -0.4651 -0.1779  0.3036
  177MOL0     C23781   7.688   1.609   0.196 -0.2173  0.9599  1.5575
  177MOL0     C23782   7.679   1.522   0.322 -0.6772  0.2060  0.4882
  177MOL0     C23783   7.622   1.614   0.437  0.5328  0.1212  0.1108
  177MOL0     O23784   7.565   1.528   0.534  0.4161 -0.2898 -0.5187
  177MOL0     C23785   7.549   1.582   0.657  0.3734 -0.1390  0.4274
  177MOL0     C23786   7.541   1.491   0.760  0.5250  0.0696  0.1729
  177MOL0     C23787   7.509   1.526   0.896 -0.7866  0.9712 -0.6180
  177MOL0     C23788   7.507   1.415   0.991 -0.1140  0.0912 -0.6262
  177MOL0     C23789   7.494   1.658   0.929  0.5303 -0.2246 -0.0078
  177MOL0     C23790   7.460   1.720   1.060 -0.5187 -0.4692 -0.0192
  177MOL0     O23791   7.472   1.860   1.080  0.2948  0.3747  0.1509
  177MOL0     C23792   7.498   1.903   1.212  0.7074 -0.5928  0.4716
  177MOL0     C23793   7.402   1.988   1.268  0.7037 -0.7624  1.2900
  177MOL0     C23794   7.414   2.039   1.397 -0.6496 -0.6085  0.1712
  177MOL0     C23795   7.530   2.001   1.473  0.2982 -0.4485  0.0558
  177MOL0     O23796   7.559   2.048   1.603  0.5010  0.2235  0.1094
  177MOL0     C23797   7.490   2.166   1.654 -0.6302 -0.6069  0.0493
  177MOL0     C23798   7.361   2.141   1.733 -0.4493 -0.3338  0.9235
  177MOL0     C23799   7.281   2.270   1.756  0.5113 -0.1752 -0.3907
  177MOL0     C23800   7.169   2.233   1.852  0.8381 -0.3819  0.1476
  177MOL0     C23801   7.039   2.306   1.829 -0.2896 -0.2360 -0.8726
  177MOL0     C23802   7.054   2.455   1.856  1.0177  0.1367  0.1610
  177MOL0     C23803   6.921   2.532   1.826 -1.0150  0.3146 -0.5003
  177MOL0     C23804   6.794   2.499   1.900 -0.0807 -0.0557  0.4127
  177MOL0    Cl23805   6.829   2.443   2.058  0.0082 -0.3215 -0.2031
  177MOL0     C23806   7.613   1.901   1.421 -0.5995  0.2365  0.9084
  177MOL0     C23807   7.601   1.859   1.291  0.6794 -0.0337 -0.2388
  177MOL0     O23808   7.425   1.640   1.148  0.5662  0.6907 -0.0396
  177MOL0     C23809   7.495   1.744   0.820  0.2609 -0.7959 -0.6120
  177MOL0     C23810   7.524   1.710   0.693 -0.3838  0.5327  0.8979
  177MOL0     N23811   7.997   1.818   0.133 -0.5228 -0.0895  0.8295
  177MOL0     N23812   8.042   1.874   0.018  0.6847  0.4486 -0.3149
  177MOL0     C23813   8.025   2.625   0.756 -1.0127 -0.2975 -0.5400
  177MOL0     C23814   8.085   2.745   0.804 -0.4355  0.5268 -0.9800
  177MOL0     C23815   8.262   3.182   0.800 -0.2554 -0.5087 -0.1674
  177MOL0     C23816   8.332   3.282   0.734  0.8661  0.0059 -0.0325
  177MOL0     C23817   8.375   3.394   0.799 -0.4016 -0.0894 -0.0843
  177MOL0     C23818   8.338   3.421   0.939 -0.0647  0.2170 -0.0805
  177MOL0     O23819   8.381   3.540   0.998 -0.3051 -0.3063  0.4079
  177MOL0     C23820   8.384   3.547   1.142  0.1629  0.9538 -0.2020
  177MOL0     C23821   8.464   3.669   1.177 -0.5587  0.3685  1.1724
  177MOL0     C23822   8.429   3.709   1.317  0.1814  0.7680 -0.8283
  177MOL0     C23823   8.543   3.774   1.392 -0.3768 -0.5763  0.3393
  177MOL0     C23824   8.564   3.911   1.334 -0.0653 -0.4234  0.9402
  177MOL0     C23825   8.581   4.025   1.290  0.4063  0.6598  0.2251
  177MOL0     C23826   8.272   3.322   1.003  0.5178 -0.3445 -0.7091
  177MOL0     C23827   8.231   3.198   0.932  0.0338 -1.5476 -0.6482
  177MOL0     H23828   8.066   2.938   0.545  3.3012  0.5100  2.3126
  177MOL0     H23829   7.971   2.732   0.433  1.3579 -3.0467 -0.6803
  177MOL0     H23830   7.798   2.533   0.418 -1.0161 -3.0105  0.8294
  177MOL0     H23831   7.970   2.549   0.361  1.8166  0.8029  1.0994
  177MOL0     H23832   8.007   2.307   0.361  0.8144  0.3702 -2.3405
  177MOL0     H23833   7.870   2.275   0.464  3.5567  1.0718  2.8733
  177MOL0     H23834   7.777   2.212   0.263  0.2852  0.4604 -0.6704
  177MOL0     H23835   7.711   2.366   0.288  0.0364  1.0401  0.4065
  177MOL0     H23836   7.856   2.462   0.125  0.6146  0.0773  0.2012
  177MOL0     H23837   7.948   2.318   0.100 -0.2898 -1.4665  1.2269
  177MOL0     H23838   7.664   2.319   0.035 -0.8687 -4.3137 -0.0674
  177MOL0     H23839   7.793   2.394  -0.069 -0.9812 -0.1285 -0.1672
  177MOL0     H23840   7.782   2.100   0.035  0.3695  1.0864 -0.1460
  177MOL0     H23841   7.701   2.156  -0.115  0.7211  3.0111 -1.0207
  177MOL0     H23842   7.935   2.197  -0.205 -0.0291 -0.2850  0.0742
  177MOL0     H23843   8.016   2.151  -0.051 -0.7705  0.3489  0.9458
  177MOL0     H23844   8.013   1.986  -0.229 -1.0464  2.0806 -1.0180
  177MOL0     H23845   7.833   1.981  -0.216  0.2441 -1.2709  0.0354
  177MOL0     H23846   7.729   1.806  -0.057 -2.6246  0.9421  3.6847
  177MOL0     H23847   7.870   1.662   0.293  0.9616 -0.0447 -1.0919
  177MOL0     H23848   7.755   1.791   0.288 -1.7066 -0.3876 -0.2679
  177MOL0     H23849   7.713   1.553   0.106 -2.8069 -2.3667  2.7200
  177MOL0     H23850   7.596   1.660   0.166 -0.7359 -0.7293  0.0954
  177MOL0     H23851   7.767   1.465   0.350 -1.8575 -0.5955  2.8173
  177MOL0     H23852   7.597   1.452   0.306 -1.1005  0.8624 -0.3415
  177MOL0     H23853   7.543   1.678   0.398  0.4760 -0.5297 -0.9002
  177MOL0     H23854   7.709   1.665   0.480  0.0205  2.4561 -1.4638
  177MOL0     H23855   7.536   1.387   0.728 -2.5971  0.1622  0.0944
  177MOL0     H23856   7.417   1.425   1.052  0.3113 -1.1207  0.2263
  177MOL0     H23857   7.501   1.315   0.949 -3.6326  0.7717 -2.0776
  177MOL0     H23858   7.594   1.423   1.057 -0.1454 -0.2979 -0.5406
  177MOL0     H23859   7.318   2.025   1.210  1.2555 -1.1104  0.2365
  177MOL0     H23860   7.344   2.118   1.421  1.5136  2.7603 -3.4439
  177MOL0     H23861   7.556   2.208   1.731 -0.3614 -1.9440  0.5798
  177MOL0     H23862   7.493   2.237   1.572  1.2005  3.8208  3.5049
  177MOL0     H23863   7.304   2.065   1.679  2.5588 -1.4177 -0.9762
  177MOL0     H23864   7.389   2.099   1.830 -0.5784 -2.0724  0.2475
  177MOL0     H23865   7.239   2.299   1.660  2.0518  0.0307 -1.0220
  177MOL0     H23866   7.333   2.353   1.805 -2.0969  0.4085  1.6451
  177MOL0     H23867   7.139   2.131   1.826 -2.3431  0.1673  1.2170
  177MOL0     H23868   7.203   2.227   1.956  2.9931 -3.5995 -0.5719
  177MOL0     H23869   6.970   2.268   1.904  0.8056  0.7035  0.6790
  177MOL0     H23870   6.996   2.299   1.728 -0.6661 -4.0062 -0.5848
  177MOL0     H23871   7.076   2.466   1.963  1.3671  2.8194 -0.1173
  177MOL0     H23872   7.143   2.501   1.810 -0.4179  3.1171  0.1024
  177MOL0     H23873   6.905   2.507   1.721  2.4088 -0.3453 -1.0008
  177MOL0     H23874   6.938   2.640   1.828  0.5446  0.1000  1.8307
  177MOL0     H23875   6.732   2.430   1.841 -1.9653  1.0146  1.0671
  177MOL0     H23876   6.729   2.586   1.911 -1.8796 -1.3332  0.2193
  177MOL0     H23877   7.699   1.862   1.475  0.4349 -0.3734 -1.0922
  177MOL0     H23878   7.668   1.782   1.255  0.5200  0.1228 -0.8761
  177MOL0     H23879   7.486   1.851   0.834 -1.1673 -0.8380 -0.9799
  177MOL0     H23880   7.532   1.789   0.619  2.1374  0.8742  1.4369
  177MOL0     H23881   8.019   2.532   0.812  1.6675 -0.8518 -1.0612
  177MOL0     H23882   8.112   2.754   0.909 -0.3659  2.5151 -1.1259
  177MOL0     H23883   8.350   3.285   0.627  0.7265 -0.0829 -0.0579
  177MOL0     H23884   8.426   3.471   0.741  0.1055 -0.7761 -0.5641
  177MOL0     H23885   8.281   3.564   1.176  0.5918 -1.0264  2.4189
  177MOL0     H23886   8.422   3.450   1.175 -1.3895  0.9841  1.8854
  177MOL0     H23887   8.444   3.750   1.106 -0.4922  0.3725  1.1578
  177MOL0     H23888   8.568   3.640   1.160 -1.3532 -0.5340 -3.5727
  177MOL0     H23889   8.393   3.625   1.377 -1.9556  1.4950 -0.9790
  177MOL0     H23890   8.351   3.786   1.316  1.3622  2.0916  1.4778
  177MOL0     H23891   8.624   3.700   1.384  0.1403 -0.0437  0.5222
  177MOL0     H23892   8.513   3.772   1.497 -2.2196  1.8847 -0.0610
  177MOL0     H23893   8.592   4.124   1.250 -0.9549  0.9706  0.5587
  177MOL0     H23894   8.235   3.324   1.105  1.6629  0.7164 -0.2801
  177MOL0     H23895   8.186   3.114   0.985  1.1177 -1.1264  1.0015
  178MOL0     O23896   6.754   9.129   9.102 -0.5160  0.2645  0.2283
  178MOL0     C23897   6.773   9.150   9.221  1.0217 -0.3283  0.2955
  178MOL0     O23898   6.849   9.248   9.272  0.2669  0.5625 -0.3733
  178MOL0     C23899   6.896   9.339   9.183 -0.8294  0.0632 -0.8536
  178MOL0     C23900   7.030   9.342   9.145 -0.5702 -0.5996  0.3289
  178MOL0     C23901   7.069   9.427   9.044  0.4974 -0.3268  0.0441
  178MOL0     C23902   6.986   9.517   8.990 -0.4541 -0.4339  0.3066
  178MOL0     O23903   7.038   9.604   8.892  0.3314  0.1423 -0.4045
  178MOL0     C23904   6.937   9.688   8.821 -0.8039  0.7759 -0.4599
  178MOL0     C23905   7.002   9.724   8.685  0.8646  0.6404  0.2036
  178MOL0     C23906   6.920   9.660   8.564 -0.7735  0.1286 -0.4613
  178MOL0     C23907   6.966   9.521   8.530 -0.0214  0.5014 -0.6793
  178MOL0     C23908   6.873   9.427   8.456  0.6274 -0.0466 -0.5774
  178MOL0     C23909   6.790   9.484   8.335  0.1007 -0.7131  0.5760
  178MOL0     C23910   6.881   9.545   8.235 -0.1019  0.4671  0.4953
  178MOL0     C23911   6.813   9.554   8.091  0.3951 -0.2173  0.5211
  178MOL0     N23912   6.897   9.616   7.996 -0.5142 -1.3602  0.1137
  178MOL0     C23913   6.847   9.675   7.883  1.4331  0.0354 -1.4743
  178MOL0     C23914   6.943   9.730   7.811  0.3294  0.5031  0.2444
  178MOL0     C23915   6.922   9.783   7.673  0.2067  0.2478  0.4051
  178MOL0     C23916   6.873   9.926   7.668 -1.1403  0.5487  0.1473
  178MOL0     C23917   6.867   9.983   7.523  1.2297 -0.5262  0.1623
  178MOL0     C23918   6.877  10.141   7.526  0.3807 -0.6776  0.1330
  178MOL0     O23919   6.934  10.173   7.403  0.2894  0.3660  0.0244
  178MOL0     C23920   6.935  10.305   7.370  0.1524  0.7075  0.4021
  178MOL0     C23921   6.907  10.412   7.447  0.2570  0.7259 -1.2655
  178MOL0     C23922   6.872  10.540   7.390  0.1696  1.3618  0.1883
  178MOL0     C23923   6.850  10.656   7.484 -0.3605  0.0886  0.7467
  178MOL0     C23924   6.874  10.556   7.248  0.1527  0.4505  0.2376
  178MOL0     C23925   6.821  10.669   7.177  0.6119 -0.2191  0.3310
  178MOL0     O23926   6.892  10.721   7.078 -0.8592  0.4256 -0.6651
  178MOL0     C23927   6.872  10.850   7.042  0.3786 -1.1998  0.0699
  178MOL0     C23928   6.878  10.881   6.905 -0.7266 -0.2456 -0.7071
  178MOL0     C23929   6.850  11.014   6.860 -0.5903  0.1423 -0.1231
  178MOL0     C23930   6.835  11.114   6.951 -0.4990 -0.8873  0.1915
  178MOL0     O23931   6.813  11.242   6.886 -0.2156 -0.3435 -0.3511
  178MOL0     C23932   6.728  11.349   6.933  0.2237 -0.1485 -0.0558
  178MOL0     C23933   6.597  11.368   6.847 -0.7268  0.0940  0.1115
  178MOL0     C23934   6.532  11.503   6.850  0.7728 -0.1660 -0.0975
  178MOL0     C23935   6.404  11.476   6.771  0.1321 -0.8883  0.5071
  178MOL0     C23936   6.328  11.606   6.736  0.5666  0.8917 -0.5299
  178MOL0     C23937   6.196  11.564   6.664  0.4679  0.6676 -0.0304
  178MOL0     C23938   6.105  11.675   6.615  0.2573 -0.6022  0.1876
  178MOL0     C23939   5.988  11.632   6.543 -0.7865 -0.5745  0.2683
  178MOL0    Cl23940   5.873  11.544   6.649  0.2079  0.1469  0.0756
  178MOL0     C23941   6.829  11.092   7.094 -0.8836  0.3535 -0.2175
  178MOL0     C23942   6.845  10.957   7.129 -0.0147 -0.2848  0.4209
  178MOL0     O23943   6.718  10.719   7.219  0.1734  0.5229  0.7681
  178MOL0     C23944   6.910  10.446   7.164  0.1019  0.3989 -0.2554
  178MOL0     C23945   6.951  10.323   7.230 -0.4255  0.2631 -0.5076
  178MOL0     N23946   7.054   9.716   7.889 -0.1509 -1.2777 -0.2018
  178MOL0     N23947   7.026   9.660   8.003 -1.2695 -0.5344  0.0627
  178MOL0     C23948   6.854   9.523   9.034  0.0988  0.0040  1.2914
  178MOL0     C23949   6.803   9.423   9.122 -0.3585 -1.0723  0.8105
  178MOL0     C23950   6.713   9.060   9.324  0.3388 -0.4686 -0.4581
  178MOL0     C23951   6.623   8.963   9.290  0.0152  0.0427 -0.3760
  178MOL0     C23952   6.573   8.870   9.380  0.7760 -0.2378 -0.5710
  178MOL0     C23953   6.610   8.881   9.519 -0.2016  0.1101  1.0107
  178MOL0     O23954   6.564   8.784   9.606  0.3084  0.0372  0.2389
  178MOL0     C23955   6.622   8.761   9.735 -0.1176 -0.6819  0.6971
  178MOL0     C23956   6.631   8.614   9.767  0.3512  1.0952  0.3440
  178MOL0     C23957   6.497   8.530   9.757  0.1733 -0.0655 -0.1865
  178MOL0     C23958   6.498   8.394   9.839  0.1534 -0.6106  0.0244
  178MOL0     C23959   6.359   8.343   9.837  0.2399  0.0209 -0.0065
  178MOL0     C23960   6.244   8.312   9.831 -1.1161  0.4947 -1.0469
  178MOL0     C23961   6.689   8.987   9.558  0.3155 -0.8579  0.0927
  178MOL0     C23962   6.745   9.075   9.461 -0.2804 -0.5201 -0.6185
  178MOL0     H23963   7.095   9.280   9.205  1.2460  1.9761  1.2087
  178MOL0     H23964   7.163   9.430   8.990  1.3873 -5.4345  0.7769
  178MOL0     H23965   6.848   9.627   8.805  1.4543 -2.6564 -1.3168
  178MOL0     H23966   6.910   9.774   8.882  0.2698 -0.4903  1.9925
  178MOL0     H23967   6.991   9.832   8.677  2.9212  0.7678 -1.7661
  178MOL0     H23968   7.108   9.698   8.683  1.1941  1.9263  0.2358
  178MOL0     H23969   6.813   9.660   8.586 -0.4628  1.9103  1.3348
  178MOL0     H23970   6.921   9.723   8.475 -2.5114 -2.3537 -2.3525
  178MOL0     H23971   7.057   9.537   8.472  1.3313  0.5714  1.3429
  178MOL0     H23972   6.990   9.474   8.626 -3.4265 -1.4058 -0.5930
  178MOL0     H23973   6.940   9.346   8.426 -1.0367 -1.6969 -0.0811
  178MOL0     H23974   6.804   9.384   8.529  1.2179 -1.1403 -0.6396
  178MOL0     H23975   6.735   9.403   8.287  2.1179 -1.1170 -1.2340
  178MOL0     H23976   6.720   9.556   8.378 -0.2159 -0.7928  0.2015
  178MOL0     H23977   6.904   9.649   8.259 -0.2226  0.5588  0.2132
  178MOL0     H23978   6.975   9.490   8.221  0.1477  1.5479 -2.9068
  178MOL0     H23979   6.715   9.601   8.102 -0.0337 -0.6842 -0.9456
  178MOL0     H23980   6.790   9.454   8.052 -0.3240  0.9224 -2.2899
  178MOL0     H23981   6.745   9.679   7.846  0.7764  7.3396 -0.3089
  178MOL0     H23982   7.014   9.783   7.615 -0.8078 -3.5379 -1.5111
  178MOL0     H23983   6.855   9.714   7.622  0.7419  1.3131 -1.8740
  178MOL0     H23984   6.946   9.983   7.726 -0.8200  0.9063 -0.6083
  178MOL0     H23985   6.779   9.931   7.724 -0.0454 -1.8080  2.4418
  178MOL0     H23986   6.784   9.950   7.459  1.6717 -0.0762 -0.6598
  178MOL0     H23987   6.959   9.954   7.471  2.1646 -0.0171  1.4895
  178MOL0     H23988   6.943  10.175   7.606 -0.4831 -0.8832  0.9439
  178MOL0     H23989   6.780  10.189   7.542  0.2871 -1.3262  1.6756
  178MOL0     H23990   6.903  10.401   7.555 -1.4449 -0.2465 -1.4017
  178MOL0     H23991   6.893  10.641   7.583  1.0164  0.9426  0.3131
  178MOL0     H23992   6.905  10.742   7.446 -0.6190 -0.0000  0.1603
  178MOL0     H23993   6.745  10.681   7.500 -0.8190 -0.4181 -1.1698
  178MOL0     H23994   6.902  10.806   6.831  1.1071 -0.8597  0.4286
  178MOL0     H23995   6.859  11.050   6.758 -3.1424  4.1708  0.8517
  178MOL0     H23996   6.701  11.343   7.039  0.2841  2.2953  0.1361
  178MOL0     H23997   6.782  11.441   6.911  0.1896 -0.2925 -0.7755
  178MOL0     H23998   6.613  11.340   6.743  0.0388  1.1432 -0.0690
  178MOL0     H23999   6.519  11.299   6.881 -0.7547 -2.0435 -3.7588
  178MOL0     H24000   6.591  11.576   6.794  0.3953  0.7586  0.6743
  178MOL0     H24001   6.509  11.548   6.947 -2.4264 -2.5300  0.4144
  178MOL0     H24002   6.427  11.421   6.679  1.2015  0.7036 -0.2381
  178MOL0     H24003   6.341  11.405   6.826 -0.8466  1.3498  2.4533
  178MOL0     H24004   6.379  11.672   6.666 -0.4116 -0.1338 -2.2788
  178MOL0     H24005   6.302  11.665   6.824 -0.8417 -0.6327  0.1269
  178MOL0     H24006   6.223  11.498   6.581  0.8743  3.0284 -1.8776
  178MOL0     H24007   6.136  11.504   6.733 -0.1223  1.9843  0.6198
  178MOL0     H24008   6.164  11.736   6.547 -0.3604  1.4292  1.3914
  178MOL0     H24009   6.072  11.744   6.694 -2.2506 -1.3174 -0.1401
  178MOL0     H24010   6.024  11.565   6.464  0.8417  0.1328  0.3776
  178MOL0     H24011   5.937  11.719   6.500 -0.4843  1.0888  3.0496
  178MOL0     H24012   6.812  11.167   7.170 -1.7167  0.3052 -0.3531
  178MOL0     H24013   6.841  10.938   7.236  1.5242 -2.1906  0.1911
  178MOL0     H24014   6.905  10.457   7.056 -2.3130  0.7026 -0.1775
  178MOL0     H24015   6.984  10.239   7.169  2.9111 -0.8382  2.4264
  178MOL0     H24016   6.785   9.602   9.008  2.5375  1.4023 -1.5159
  178MOL0     H24017   6.699   9.419   9.154 -0.0537 -1.9893  1.7402
  178MOL0     H24018   6.578   8.955   9.192 -0.2499 -0.3720 -0.2261
  178MOL0     H24019   6.506   8.793   9.345 -1.3213  1.4864 -0.5682
  178MOL0     H24020   6.722   8.805   9.737 -1.1853  2.7473 -3.6833
  178MOL0     H24021   6.565   8.809   9.815  1.2633  0.4045  1.0714
  178MOL0     H24022   6.653   8.607   9.874  0.0222 -2.9011  0.3140
  178MOL0     H24023   6.708   8.571   9.702  1.7909  3.7716  0.1434
  178MOL0     H24024   6.478   8.521   9.649 -3.9939  2.4942  0.0991
  178MOL0     H24025   6.415   8.590   9.799 -0.0900 -2.9630  4.0043
  178MOL0     H24026   6.522   8.425   9.942 -1.5578 -2.4423  1.0418
  178MOL0     H24027   6.566   8.323   9.792  0.2340 -0.0759 -0.6759
  178MOL0     H24028   6.140   8.288   9.817 -0.1514 -3.1984 -3.5125
  178MOL0     H24029   6.719   9.007   9.661  0.1191 -1.9938  0.3824
  178MOL0     H24030   6.815   9.149   9.499  1.4583 -1.2069 -2.3340
  179MOL0     O24031  10.996   6.891   1.013 -0.1437  0.3255  0.3041
  179MOL0     C24032  11.030   7.005   1.004 -1.0296 -0.4406  1.1605
  179MOL0     O24033  11.045   7.096   1.107 -0.6458  0.1868 -0.4004
  179MOL0     C24034  11.013   7.054   1.229  0.1659  0.3455 -0.9636
  179MOL0     C24035  10.893   6.984   1.269 -0.0844 -0.3267 -1.0964
  179MOL0     C24036  10.874   6.952   1.406  0.3198  0.2235 -0.0774
  179MOL0     C24037  10.969   6.977   1.504 -0.0284  0.6137 -0.6862
  179MOL0     O24038  10.940   6.917   1.628 -0.4745  0.3801  0.6924
  179MOL0     C24039  11.058   6.850   1.686  0.6490  0.8320  0.0413
  179MOL0     C24040  10.994   6.764   1.796 -0.2283  0.7202  0.0500
  179MOL0     C24041  11.085   6.649   1.830  0.4958 -0.5940  0.2180
  179MOL0     C24042  11.019   6.571   1.944  0.5271  0.1110  0.5886
  179MOL0     C24043  10.916   6.464   1.891  0.7735 -0.1991  0.5139
  179MOL0     C24044  10.844   6.364   1.994 -0.0909 -0.0481  0.0189
  179MOL0     C24045  10.763   6.250   1.922 -0.3172  1.3299 -0.0568
  179MOL0     C24046  10.624   6.283   1.864  0.2193  0.3525 -0.3982
  179MOL0     N24047  10.522   6.255   1.967  0.2940 -0.9781 -0.5736
  179MOL0     C24048  10.463   6.129   1.988  0.0446  0.3399  0.4392
  179MOL0     C24049  10.360   6.154   2.076  0.4648  0.2545  0.2080
  179MOL0     C24050  10.260   6.060   2.132 -0.0614 -0.9519  0.2248
  179MOL0     C24051  10.116   6.088   2.080 -0.2294  1.1227  0.2562
  179MOL0     C24052  10.007   6.011   2.144  0.2001  0.0408  0.3074
  179MOL0     C24053  10.006   5.859   2.136  0.0165  1.0690  0.1865
  179MOL0     O24054   9.890   5.811   2.223 -0.3895  0.1658 -0.1586
  179MOL0     C24055   9.899   5.683   2.273 -0.6335 -0.0816 -0.9625
  179MOL0     C24056   9.951   5.656   2.397 -0.0558  0.4335 -0.4704
  179MOL0     C24057   9.989   5.524   2.442 -0.2905 -0.1109 -0.2138
  179MOL0     C24058  10.067   5.502   2.569  0.3943  0.5251 -0.4339
  179MOL0     C24059   9.962   5.414   2.358 -1.0711 -0.2510  0.0931
  179MOL0     C24060   9.992   5.268   2.388  0.4164 -0.6531 -0.3614
  179MOL0     O24061   9.986   5.204   2.276 -0.9564  0.4212 -0.1197
  179MOL0     C24062   9.971   5.070   2.286 -0.1773  0.0901  0.6165
  179MOL0     C24063  10.081   4.991   2.275 -0.4772  0.7853 -1.2948
  179MOL0     C24064  10.073   4.856   2.304  0.1832 -0.4651  0.2191
  179MOL0     C24065   9.948   4.799   2.329 -0.3266 -0.7489  0.0094
  179MOL0     O24066   9.937   4.662   2.354  0.5525  0.4751 -0.5593
  179MOL0     C24067   9.952   4.574   2.244  0.0208  0.8359  0.1367
  179MOL0     C24068   9.957   4.427   2.308  0.1336 -0.3189  0.4043
  179MOL0     C24069   9.845   4.390   2.414 -0.2296 -0.5942  0.5764
  179MOL0     C24070   9.700   4.422   2.369  0.4322 -0.2089 -0.0591
  179MOL0     C24071   9.613   4.451   2.491 -0.3666  0.2160  0.5616
  179MOL0     C24072   9.603   4.338   2.597  0.5109  0.5465  0.1996
  179MOL0     C24073   9.482   4.350   2.687 -0.1296  1.1605  0.0456
  179MOL0     C24074   9.351   4.314   2.612 -0.1190  0.0343  0.2643
  179MOL0    Cl24075   9.217   4.287   2.719 -0.6114  0.1135 -0.1042
  179MOL0     C24076   9.834   4.876   2.322 -0.2514  0.4672  0.5785
  179MOL0     C24077   9.840   5.012   2.293 -0.4232  0.1968 -0.9441
  179MOL0     O24078  10.011   5.221   2.501 -0.3945 -0.2625 -0.8917
  179MOL0     C24079   9.892   5.439   2.233 -0.5477 -0.1300 -0.0510
  179MOL0     C24080   9.864   5.568   2.195 -0.0531  0.3365  0.2423
  179MOL0     N24081  10.391   6.283   2.129  0.0538  0.2390  0.2782
  179MOL0     N24082  10.484   6.344   2.062 -0.4300 -0.1717 -0.8349
  179MOL0     C24083  11.088   7.040   1.464 -0.0652  0.1664 -0.5792
  179MOL0     C24084  11.100   7.088   1.331  0.3145 -0.3164 -0.2921
  179MOL0     C24085  11.059   7.048   0.864 -0.6041 -0.1957 -0.8988
  179MOL0     C24086  11.029   6.950   0.764 -0.8121 -0.5655  0.3050
  179MOL0     C24087  11.035   7.002   0.629  0.3016  0.2670  0.0912
  179MOL0     C24088  11.067   7.132   0.594 -0.0580 -0.2111 -0.3483
  179MOL0     O24089  11.081   7.192   0.472  0.2948  0.0463 -0.0890
  179MOL0     C24090  11.071   7.097   0.363  0.9053  0.3755  0.1881
  179MOL0     C24091  11.089   7.168   0.233  0.0033 -0.8227  0.0982
  179MOL0     C24092  11.229   7.235   0.216  0.4996 -0.0446 -0.0874
  179MOL0     C24093  11.242   7.326   0.087  1.0230 -0.0753 -0.6629
  179MOL0     C24094  11.256   7.254  -0.032  0.6340 -0.1269 -0.0888
  179MOL0     C24095  11.250   7.196  -0.146  0.6216 -0.1219 -0.1707
  179MOL0     C24096  11.085   7.214   0.702 -0.6312  0.4261  0.9799
  179MOL0     C24097  11.073   7.179   0.834 -0.7697 -0.0791 -0.2031
  179MOL0     H24098  10.827   6.947   1.192  0.4254 -2.0209 -0.7619
  179MOL0     H24099  10.799   6.882   1.442 -0.8056  0.8070 -1.2295
  179MOL0     H24100  11.107   6.794   1.606 -0.6277  0.3978 -0.4696
  179MOL0     H24101  11.130   6.921   1.726 -1.5173  1.0530  4.0578
  179MOL0     H24102  10.974   6.829   1.882 -2.8775  2.6072 -1.8183
  179MOL0     H24103  10.898   6.726   1.759 -1.1164  1.8901  1.0880
  179MOL0     H24104  11.119   6.589   1.745  0.3564  1.9231 -1.7228
  179MOL0     H24105  11.179   6.687   1.871 -0.6995  0.1729  2.3914
  179MOL0     H24106  11.097   6.513   1.996 -1.8029 -3.7538  0.1779
  179MOL0     H24107  10.968   6.643   2.009  3.2225  0.6535  2.2732
  179MOL0     H24108  10.835   6.519   1.842  3.8427  1.4372 -3.3020
  179MOL0     H24109  10.963   6.406   1.810  0.2669 -0.6433  0.5360
  179MOL0     H24110  10.930   6.322   2.048 -1.3752 -1.0096  1.3793
  179MOL0     H24111  10.778   6.413   2.066 -0.9567 -0.7334 -0.2927
  179MOL0     H24112  10.815   6.205   1.837  0.1836  1.8419 -0.0233
  179MOL0     H24113  10.759   6.176   2.002  4.5853  1.4750  0.6468
  179MOL0     H24114  10.590   6.233   1.773 -0.2404  0.0265 -0.0531
  179MOL0     H24115  10.604   6.388   1.840  1.8588  0.5248 -1.0983
  179MOL0     H24116  10.478   6.027   1.955 -1.7146  0.7084 -1.7380
  179MOL0     H24117  10.281   5.956   2.106 -1.2692 -1.9470  2.8406
  179MOL0     H24118  10.249   6.067   2.241 -1.8245 -0.9435  0.0665
  179MOL0     H24119  10.112   6.061   1.974 -2.0210  1.6799  0.1600
  179MOL0     H24120  10.098   6.195   2.081 -2.7672  0.7567 -0.3208
  179MOL0     H24121   9.909   6.033   2.100 -0.1826 -1.3649  0.4299
  179MOL0     H24122   9.995   6.047   2.246  0.0812 -0.8036  0.5931
  179MOL0     H24123  10.104   5.821   2.167  0.9762  3.4259  0.2749
  179MOL0     H24124   9.983   5.819   2.037 -0.2734 -0.4734  0.8499
  179MOL0     H24125   9.965   5.731   2.475 -0.0936  0.4146 -0.4455
  179MOL0     H24126  10.104   5.597   2.609  0.7903  0.3841 -0.4560
  179MOL0     H24127  10.006   5.465   2.653  0.2811  0.0017 -0.7455
  179MOL0     H24128  10.144   5.430   2.538 -0.4064 -1.4552  1.8417
  179MOL0     H24129  10.178   5.037   2.260  0.8720 -0.9180  1.4730
  179MOL0     H24130  10.165   4.798   2.302 -0.0999 -0.9049 -1.6906
  179MOL0     H24131   9.868   4.586   2.175  1.1218  2.3539 -0.9926
  179MOL0     H24132  10.044   4.589   2.186  0.7468 -3.2860 -0.0569
  179MOL0     H24133   9.941   4.352   2.231 -0.4873 -0.9123  1.0852
  179MOL0     H24134  10.060   4.409   2.340  0.6107  0.7060 -0.4923
  179MOL0     H24135   9.858   4.445   2.508 -3.4752  1.8257 -0.2256
  179MOL0     H24136   9.862   4.284   2.434  1.5766 -1.0038 -2.4394
  179MOL0     H24137   9.695   4.506   2.299 -2.0654 -0.8031 -0.7034
  179MOL0     H24138   9.652   4.341   2.313  1.3952 -0.9798  0.2156
  179MOL0     H24139   9.518   4.482   2.445 -0.7716  0.3694  1.4763
  179MOL0     H24140   9.654   4.535   2.548 -0.6109 -0.7716  2.2676
  179MOL0     H24141   9.599   4.239   2.552 -6.1306 -0.3109  1.6014
  179MOL0     H24142   9.688   4.331   2.666 -0.0850  1.5622  1.0809
  179MOL0     H24143   9.480   4.457   2.712  0.8644  0.8074  1.7758
  179MOL0     H24144   9.507   4.298   2.780  3.1045  1.9788 -0.2512
  179MOL0     H24145   9.359   4.225   2.551 -0.1451  0.4578 -0.3630
  179MOL0     H24146   9.324   4.402   2.553  0.1261 -0.8230 -1.1670
  179MOL0     H24147   9.739   4.830   2.347  0.1596 -1.6291 -1.3885
  179MOL0     H24148   9.749   5.070   2.301  0.2029  1.1801 -0.7388
  179MOL0     H24149   9.857   5.356   2.172  3.1550 -1.7377 -0.2721
  179MOL0     H24150   9.820   5.580   2.097 -2.0078  0.1371  1.0402
  179MOL0     H24151  11.176   7.043   1.526 -0.2512  0.2781 -0.3184
  179MOL0     H24152  11.190   7.144   1.308 -0.6526  1.0451 -0.8634
  179MOL0     H24153  10.997   6.849   0.785 -3.6056  0.2913  0.6068
  179MOL0     H24154  11.007   6.936   0.548  2.0703 -0.4852  0.0342
  179MOL0     H24155  11.157   7.030   0.375  1.0055  0.4185 -0.2892
  179MOL0     H24156  10.972   7.050   0.357  1.7680 -1.3558 -2.1045
  179MOL0     H24157  11.009   7.242   0.223 -0.1153 -1.0609 -0.8073
  179MOL0     H24158  11.068   7.097   0.153 -0.9252  1.7669 -2.1044
  179MOL0     H24159  11.294   7.147   0.212  0.1550 -0.3482  0.8740
  179MOL0     H24160  11.245   7.293   0.307  0.7799 -0.8311  0.3728
  179MOL0     H24161  11.333   7.386   0.100  1.1541 -0.6046  1.1300
  179MOL0     H24162  11.164   7.402   0.076 -0.2367 -1.0190  1.1459
  179MOL0     H24163  11.238   7.138  -0.235 -0.3024 -0.9767  0.4891
  179MOL0     H24164  11.116   7.317   0.687  0.6031 -0.0270  0.2953
  179MOL0     H24165  11.070   7.260   0.907 -2.3542 -1.1253  0.9585
  180MOL0     O24166   1.194   7.140   2.678 -0.1853  0.5908 -0.5408
  180MOL0     C24167   1.279   7.064   2.628 -0.7847 -0.0692 -0.3338
  180MOL0     O24168   1.353   6.965   2.699  0.9310  0.3473  0.6911
  180MOL0     C24169   1.316   6.957   2.826 -0.7277  0.1923 -0.1275
  180MOL0     C24170   1.384   7.024   2.930  0.2655 -0.2090 -0.6041
  180MOL0     C24171   1.344   7.000   3.062 -1.0386  0.2854 -0.3017
  180MOL0     C24172   1.233   6.925   3.087 -0.5222  1.0004 -0.3314
  180MOL0     O24173   1.195   6.904   3.213  0.5126 -0.2426 -0.2941
  180MOL0     C24174   1.071   6.964   3.254  0.0262  0.1532 -0.3992
  180MOL0     C24175   1.000   6.857   3.342 -0.0512  0.2663  0.5110
  180MOL0     C24176   0.851   6.876   3.354  0.2803 -0.6204 -0.1662
  180MOL0     C24177   0.781   6.741   3.312  0.0492 -0.6554  0.0113
  180MOL0     C24178   0.702   6.690   3.432  0.2125 -0.0061 -0.0340
  180MOL0     C24179   0.662   6.538   3.397 -0.6055 -0.6388  0.6475
  180MOL0     C24180   0.574   6.478   3.511 -0.3905 -0.7753 -0.7294
  180MOL0     C24181   0.557   6.332   3.470  0.4802  1.0777 -0.8780
  180MOL0     N24182   0.452   6.253   3.543 -0.2107 -0.0675 -0.0905
  180MOL0     C24183   0.330   6.320   3.570 -0.4835 -0.7847 -0.3218
  180MOL0     C24184   0.250   6.230   3.631  0.1596  0.3177  0.1585
  180MOL0     C24185   0.109   6.277   3.675  0.1692  0.0892  0.4325
  180MOL0     C24186   0.108   6.287   3.827  0.0543  0.2032  0.5497
  180MOL0     C24187  -0.017   6.359   3.872  0.5299  0.7107 -0.0371
  180MOL0     C24188  -0.151   6.308   3.812 -0.1054  0.8104 -0.6423
  180MOL0     O24189  -0.178   6.167   3.807  0.0197  0.8452  0.7724
  180MOL0     C24190  -0.294   6.128   3.744  0.3676  0.6788 -0.1740
  180MOL0     C24191  -0.390   6.213   3.687 -0.7211 -0.4612  0.6615
  180MOL0     C24192  -0.517   6.173   3.652  0.6035  1.7255  0.6086
  180MOL0     C24193  -0.602   6.285   3.591  1.0025  0.7359  0.0879
  180MOL0     C24194  -0.541   6.035   3.667 -0.4733 -0.1937 -0.1164
  180MOL0     C24195  -0.674   5.985   3.634 -0.6494  0.7275  0.9072
  180MOL0     O24196  -0.793   6.069   3.636  1.0546  0.4534 -0.2242
  180MOL0     C24197  -0.917   6.024   3.591 -1.0742  0.0029 -0.8827
  180MOL0     C24198  -0.933   5.946   3.476  0.6227  0.3378  0.7899
  180MOL0     C24199  -1.059   5.924   3.415  0.2008 -0.9727  0.4065
  180MOL0     C24200  -1.170   5.987   3.476  0.4777 -0.8986 -0.3476
  180MOL0     O24201  -1.294   5.962   3.416  0.8127 -0.4139 -0.3810
  180MOL0     C24202  -1.325   6.025   3.289  0.1667  0.2969  0.3039
  180MOL0     C24203  -1.428   5.929   3.213  0.8444  0.5342  0.1364
  180MOL0     C24204  -1.423   5.945   3.066 -0.5513  0.1894  0.4212
  180MOL0     C24205  -1.500   6.068   3.018 -0.5587 -0.1001 -0.3759
  180MOL0     C24206  -1.502   6.089   2.864  0.3858 -0.0184 -0.9739
  180MOL0     C24207  -1.372   6.053   2.797 -1.0229  0.4324 -0.7642
  180MOL0     C24208  -1.379   6.091   2.655 -0.3910  0.7429  0.1722
  180MOL0     C24209  -1.254   6.060   2.580 -0.3989 -0.8844  0.5484
  180MOL0    Cl24210  -1.244   5.888   2.568 -0.3894  0.2840 -0.3349
  180MOL0     C24211  -1.151   6.075   3.583 -0.3190  0.1202 -0.1782
  180MOL0     C24212  -1.027   6.089   3.648  0.3296  0.0156 -0.4085
  180MOL0     O24213  -0.677   5.866   3.600  0.2489  0.0361  0.4375
  180MOL0     C24214  -0.450   5.949   3.722 -0.2313 -0.5241 -0.1298
  180MOL0     C24215  -0.324   5.993   3.768  0.0129  0.4991  0.5171
  180MOL0     N24216   0.318   6.115   3.648 -0.3706  0.8051  0.0322
  180MOL0     N24217   0.443   6.134   3.593  0.3973  0.3162  0.3988
  180MOL0     C24218   1.165   6.852   2.991 -0.1744 -0.0742 -0.0585
  180MOL0     C24219   1.221   6.859   2.865  0.4315  0.4569  0.5506
  180MOL0     C24220   1.306   7.079   2.487  0.1791  0.8672  0.6201
  180MOL0     C24221   1.408   7.010   2.429  0.1327  1.5325  0.5528
  180MOL0     C24222   1.441   7.019   2.291  0.2267 -0.3233 -0.4123
  180MOL0     C24223   1.367   7.105   2.212  1.3738  0.1372  0.7118
  180MOL0     O24224   1.388   7.103   2.082  0.6511 -0.0378  0.1197
  180MOL0     C24225   1.282   7.119   1.990 -0.6575 -0.1640  0.5191
  180MOL0     C24226   1.335   7.115   1.852 -0.7740 -0.2583  0.4617
  180MOL0     C24227   1.398   6.970   1.817 -0.4972 -0.6593 -0.1177
  180MOL0     C24228   1.402   6.953   1.667  0.3607 -0.3355 -0.2763
  180MOL0     C24229   1.473   6.825   1.634 -0.1440 -0.2978 -0.8576
  180MOL0     C24230   1.527   6.726   1.602  0.1569  0.6463 -0.2279
  180MOL0     C24231   1.262   7.185   2.274  0.1346  0.2296  0.5446
  180MOL0     C24232   1.239   7.172   2.411  0.4030 -0.5841 -0.8630
  180MOL0     H24233   1.455   7.100   2.900  0.1608  0.6530  1.2205
  180MOL0     H24234   1.396   7.045   3.145  2.0252  1.6990 -2.7988
  180MOL0     H24235   1.082   7.055   3.313  0.4690  0.8236 -1.4800
  180MOL0     H24236   0.996   6.981   3.176 -2.2083  0.8132  1.7538
  180MOL0     H24237   1.019   6.755   3.309  1.9897  1.5196 -2.7349
  180MOL0     H24238   1.047   6.865   3.441 -1.7310 -2.4634  1.6237
  180MOL0     H24239   0.835   6.906   3.458  0.0901 -0.3549 -0.2722
  180MOL0     H24240   0.817   6.955   3.287  1.9482  0.4251  0.1737
  180MOL0     H24241   0.705   6.758   3.236  1.2090  1.3540 -0.7704
  180MOL0     H24242   0.843   6.654   3.288 -0.5735 -1.0283 -0.2715
  180MOL0     H24243   0.760   6.701   3.524 -0.8131  0.2121  0.5997
  180MOL0     H24244   0.608   6.747   3.435 -0.4506 -1.0591 -0.3250
  180MOL0     H24245   0.612   6.534   3.300  0.2609  0.8474  0.0982
  180MOL0     H24246   0.758   6.485   3.388 -0.9492 -0.9785 -5.5451
  180MOL0     H24247   0.623   6.494   3.607  1.2740 -0.4751 -1.5947
  180MOL0     H24248   0.473   6.521   3.507 -0.1043 -0.1575 -1.7830
  180MOL0     H24249   0.655   6.284   3.470 -1.1605 -2.8396  2.9891
  180MOL0     H24250   0.513   6.334   3.369 -4.1508 -1.0183  0.8251
  180MOL0     H24251   0.313   6.425   3.551  3.2005 -0.4574 -2.8361
  180MOL0     H24252   0.092   6.374   3.628  0.7454  0.2697  0.5911
  180MOL0     H24253   0.041   6.196   3.649  0.8469 -0.3330 -0.0600
  180MOL0     H24254   0.200   6.335   3.860  1.1935 -0.5298 -1.3615
  180MOL0     H24255   0.120   6.187   3.868  2.4818  0.0511 -0.3440
  180MOL0     H24256  -0.003   6.463   3.843  0.4480  1.3361  1.9657
  180MOL0     H24257  -0.028   6.357   3.981  1.2237 -1.1417  0.0345
  180MOL0     H24258  -0.152   6.332   3.705  3.6506 -0.1110 -1.0318
  180MOL0     H24259  -0.229   6.359   3.868 -0.9842 -0.7736 -0.3390
  180MOL0     H24260  -0.371   6.317   3.664 -0.9590 -0.9135 -1.9511
  180MOL0     H24261  -0.673   6.340   3.653  0.6122  1.6178 -1.0956
  180MOL0     H24262  -0.539   6.360   3.542  1.1436 -0.4367 -1.6304
  180MOL0     H24263  -0.664   6.243   3.510  1.3166 -1.3218  0.8373
  180MOL0     H24264  -0.839   5.905   3.440  1.7437  0.4101  3.3968
  180MOL0     H24265  -1.072   5.867   3.323 -1.3869  3.0401 -2.1260
  180MOL0     H24266  -1.372   6.122   3.306 -1.7935 -0.2989 -1.3247
  180MOL0     H24267  -1.234   6.035   3.228 -1.2052  1.1604 -1.6876
  180MOL0     H24268  -1.410   5.826   3.245 -1.3074  0.1779  0.3724
  180MOL0     H24269  -1.529   5.945   3.252  0.4640  3.3832 -1.7216
  180MOL0     H24270  -1.480   5.859   3.028  0.4872  0.1488 -1.1267
  180MOL0     H24271  -1.317   5.948   3.040 -0.0795  1.0759  2.2750
  180MOL0     H24272  -1.598   6.083   3.064  0.9122  2.1864  2.2378
  180MOL0     H24273  -1.445   6.150   3.064 -1.2997  0.3989 -0.3555
  180MOL0     H24274  -1.530   6.194   2.850  0.7728  0.3111  0.5410
  180MOL0     H24275  -1.580   6.024   2.824 -0.4086 -0.8999  1.8091
  180MOL0     H24276  -1.293   6.111   2.845 -0.2983 -1.1446  0.0055
  180MOL0     H24277  -1.348   5.947   2.805 -0.2520  0.7418  1.9211
  180MOL0     H24278  -1.403   6.198   2.654  1.1144  1.3189 -4.9447
  180MOL0     H24279  -1.467   6.052   2.602 -0.1380 -0.9886  0.9603
  180MOL0     H24280  -1.161   6.090   2.629  0.0309 -2.0595  0.4872
  180MOL0     H24281  -1.251   6.089   2.474 -1.8042 -3.5995 -0.3406
  180MOL0     H24282  -1.229   6.131   3.634 -0.6540 -0.4092 -0.0950
  180MOL0     H24283  -1.005   6.160   3.727  0.2093 -1.2586  0.8057
  180MOL0     H24284  -0.474   5.845   3.741  2.7361 -1.0997  1.0594
  180MOL0     H24285  -0.258   5.914   3.802 -1.6816 -1.2087 -0.0427
  180MOL0     H24286   1.063   6.815   3.000 -0.0164 -0.9557 -1.5298
  180MOL0     H24287   1.162   6.811   2.787 -1.7244  4.1290 -0.2866
  180MOL0     H24288   1.461   6.945   2.497 -0.8792 -1.2905 -1.2035
  180MOL0     H24289   1.518   6.960   2.243 -1.3962 -2.2337 -0.8284
  180MOL0     H24290   1.206   7.041   2.001 -1.1450  0.1014 -0.8025
  180MOL0     H24291   1.242   7.219   2.008 -1.8158 -0.3217 -0.9680
  180MOL0     H24292   1.413   7.192   1.851 -3.1430  2.2696 -0.2431
  180MOL0     H24293   1.258   7.147   1.781 -1.2600 -0.5310  0.8602
  180MOL0     H24294   1.352   6.893   1.880  0.4993 -1.1895 -0.0229
  180MOL0     H24295   1.500   6.967   1.857  0.0977 -2.1283 -1.6436
  180MOL0     H24296   1.449   7.042   1.622 -1.5215  0.6382 -0.4207
  180MOL0     H24297   1.302   6.932   1.628  0.2536 -2.4711  1.0184
  180MOL0     H24298   1.563   6.634   1.562 -0.8442  0.9244 -1.8403
  180MOL0     H24299   1.193   7.252   2.224 -3.6183 -1.0392  3.4977
  180MOL0     H24300   1.164   7.237   2.455 -0.8186 -0.1876 -3.3204
  181MOL0     O24301   4.543   0.868   5.685 -0.1376 -0.1019  1.1323
  181MOL0     C24302   4.454   0.894   5.606 -0.0143  0.1993  0.0393
  181MOL0     O24303   4.376   1.002   5.613 -0.2598 -0.2147 -0.3021
  181MOL0     C24304   4.404   1.101   5.711 -0.0067 -1.9217  0.2622
  181MOL0     C24305   4.357   1.088   5.845 -0.7581 -0.5755  0.6699
  181MOL0     C24306   4.361   1.195   5.934  0.6640  0.0668  0.1909
  181MOL0     C24307   4.420   1.315   5.890  0.6716 -0.3123 -0.1707
  181MOL0     O24308   4.418   1.424   5.975  0.0883 -0.1364  0.9751
  181MOL0     C24309   4.468   1.549   5.936  0.2127 -0.4081  1.0070
  181MOL0     C24310   4.619   1.567   5.944 -0.7437  0.5235  0.6573
  181MOL0     C24311   4.671   1.519   6.076  0.2629  0.4913  0.9323
  181MOL0     C24312   4.824   1.566   6.077  0.2644  0.4781 -0.6336
  181MOL0     C24313   4.935   1.501   6.170 -1.2163 -0.3085 -0.2113
  181MOL0     C24314   5.081   1.554   6.124  0.7306  0.3022  1.7034
  181MOL0     C24315   5.175   1.545   6.246 -0.0936 -0.6649  0.3474
  181MOL0     C24316   5.209   1.402   6.299  0.8280  0.0062  0.1085
  181MOL0     N24317   5.310   1.316   6.233  0.0901  0.1322 -0.0120
  181MOL0     C24318   5.416   1.360   6.156 -0.4119  0.3921 -0.3336
  181MOL0     C24319   5.470   1.248   6.094 -0.3349  0.6805  1.0166
  181MOL0     C24320   5.601   1.239   6.027  0.1731 -0.2191  0.2307
  181MOL0     C24321   5.583   1.283   5.883 -1.0406 -0.4917  0.5658
  181MOL0     C24322   5.707   1.238   5.809  0.7709  0.0575  0.7382
  181MOL0     C24323   5.690   1.260   5.656 -1.0607  0.2769 -0.9143
  181MOL0     O24324   5.780   1.358   5.602  0.1483 -0.7206 -0.5178
  181MOL0     C24325   5.903   1.309   5.572  0.3075  0.3081 -0.4675
  181MOL0     C24326   6.010   1.343   5.659  0.0882 -0.3305 -0.3595
  181MOL0     C24327   6.141   1.301   5.623  0.0058 -0.6355  0.6585
  181MOL0     C24328   6.252   1.348   5.706 -0.3678 -0.7959 -0.3970
  181MOL0     C24329   6.157   1.215   5.509  0.2529  0.5939 -0.1905
  181MOL0     C24330   6.288   1.161   5.460 -0.1838  0.2424 -0.4629
  181MOL0     O24331   6.302   1.116   5.329  0.5364 -0.3158  0.9034
  181MOL0     C24332   6.406   1.032   5.299 -0.1740  0.7856 -0.3913
  181MOL0     C24333   6.394   0.889   5.317 -0.2708  0.5344  0.0938
  181MOL0     C24334   6.496   0.797   5.309  0.0392  0.2567  0.8965
  181MOL0     C24335   6.622   0.847   5.268 -0.3351 -0.2698 -0.5382
  181MOL0     O24336   6.723   0.767   5.268  0.2270  0.7493 -0.3281
  181MOL0     C24337   6.817   0.778   5.154  0.3186 -0.1016  0.3923
  181MOL0     C24338   6.865   0.635   5.113  0.9728 -0.5298  0.0013
  181MOL0     C24339   6.947   0.643   4.985  0.0757  0.0365  0.1669
  181MOL0     C24340   7.081   0.714   5.011  0.0092 -0.7740 -0.1957
  181MOL0     C24341   7.197   0.693   4.921 -0.0244  0.3349 -0.1304
  181MOL0     C24342   7.159   0.711   4.780 -1.1478 -0.9258  1.5090
  181MOL0     C24343   7.285   0.721   4.684  0.5842 -0.0213  0.6335
  181MOL0     C24344   7.354   0.580   4.687 -0.2118  0.6360  0.3185
  181MOL0    Cl24345   7.447   0.560   4.536  0.0180 -0.1724 -0.5352
  181MOL0     C24346   6.636   0.987   5.244 -0.3516  0.6598  0.7519
  181MOL0     C24347   6.530   1.077   5.264 -0.5238  0.1081 -0.1740
  181MOL0     O24348   6.374   1.133   5.543  0.4761 -0.6196 -0.2566
  181MOL0     C24349   6.048   1.191   5.428 -0.2655  0.5014 -0.0067
  181MOL0     C24350   5.920   1.237   5.461  0.0037  0.2283  0.2588
  181MOL0     N24351   5.392   1.147   6.132  0.2109  0.0482  0.1778
  181MOL0     N24352   5.305   1.181   6.219 -0.3065  0.3894  0.7837
  181MOL0     C24353   4.465   1.328   5.763 -0.2620 -0.1250  0.4593
  181MOL0     C24354   4.457   1.220   5.671  0.4976  0.3533  0.7644
  181MOL0     C24355   4.402   0.788   5.525  0.6087 -0.4067 -0.5575
  181MOL0     C24356   4.434   0.657   5.560  0.2176 -0.0661 -0.3024
  181MOL0     C24357   4.376   0.551   5.495  0.6791 -0.6738 -0.4640
  181MOL0     C24358   4.280   0.567   5.396 -0.6622  0.7204 -1.0864
  181MOL0     O24359   4.213   0.468   5.326 -0.4920 -0.9048 -0.1338
  181MOL0     C24360   4.250   0.335   5.330  0.5519 -0.4006 -0.0821
  181MOL0     C24361   4.147   0.256   5.240 -0.1399  0.2099 -0.4896
  181MOL0     C24362   4.026   0.206   5.317  0.4560 -0.6244 -0.3252
  181MOL0     C24363   4.047   0.061   5.370  0.0082  0.3318 -0.5906
  181MOL0     C24364   3.936   0.034   5.459 -0.5465  0.1836 -0.2992
  181MOL0     C24365   3.837   0.013   5.524 -0.6465 -0.7117 -0.5625
  181MOL0     C24366   4.246   0.701   5.365  0.2365 -0.9935  0.6529
  181MOL0     C24367   4.299   0.810   5.436 -0.4773  0.8624 -0.5529
  181MOL0     H24368   4.304   0.997   5.874 -1.7407 -1.2685 -2.8669
  181MOL0     H24369   4.324   1.175   6.034 -3.0128  1.3934 -0.7554
  181MOL0     H24370   4.425   1.575   5.839  0.5049  0.3892  1.0872
  181MOL0     H24371   4.431   1.622   6.008  0.0117 -0.3524  0.8476
  181MOL0     H24372   4.662   1.501   5.868  1.3901  1.1164  1.2752
  181MOL0     H24373   4.644   1.672   5.928 -1.4915  0.7089  0.6813
  181MOL0     H24374   4.612   1.572   6.153 -0.2613  0.0208  0.8639
  181MOL0     H24375   4.673   1.410   6.084  3.6566  0.4119  0.1982
  181MOL0     H24376   4.863   1.566   5.975  0.6022  2.3152 -0.5442
  181MOL0     H24377   4.832   1.670   6.109  2.1825  1.3897 -3.7570
  181MOL0     H24378   4.915   1.535   6.272 -1.8820  1.8735 -1.0011
  181MOL0     H24379   4.937   1.392   6.168 -2.1849 -0.3372 -2.4184
  181MOL0     H24380   5.120   1.493   6.042  1.7777  0.7410  1.8554
  181MOL0     H24381   5.077   1.661   6.101  1.0409  0.5398  2.6795
  181MOL0     H24382   5.276   1.587   6.233 -0.2051 -0.8011 -1.1459
  181MOL0     H24383   5.136   1.614   6.321 -0.2025 -0.6529  0.2810
  181MOL0     H24384   5.110   1.355   6.295 -1.8116  5.0106 -1.8278
  181MOL0     H24385   5.240   1.416   6.403 -4.9128  0.3870  2.1502
  181MOL0     H24386   5.466   1.456   6.150  2.5132 -1.0634 -1.1168
  181MOL0     H24387   5.666   1.309   6.081 -3.1869  2.9275  0.5751
  181MOL0     H24388   5.635   1.135   6.028  0.1384 -0.2324  1.4868
  181MOL0     H24389   5.586   1.391   5.870  1.4614 -0.6663 -0.9410
  181MOL0     H24390   5.500   1.232   5.835 -0.0540  0.7789 -2.7441
  181MOL0     H24391   5.707   1.132   5.837  1.9619 -0.0671  0.3033
  181MOL0     H24392   5.799   1.285   5.845  0.8006  0.7343 -0.1901
  181MOL0     H24393   5.594   1.305   5.629 -0.4575  1.2653 -1.4619
  181MOL0     H24394   5.698   1.163   5.606  0.5221 -0.7664  1.2256
  181MOL0     H24395   5.994   1.396   5.752 -1.5414 -0.0006 -0.7956
  181MOL0     H24396   6.333   1.401   5.656  1.0183 -1.4395  1.0731
  181MOL0     H24397   6.211   1.417   5.781  1.0291 -3.2715  2.9255
  181MOL0     H24398   6.294   1.265   5.763 -1.3474  0.8607  3.0016
  181MOL0     H24399   6.295   0.865   5.354  0.4496 -1.3407  0.9312
  181MOL0     H24400   6.471   0.693   5.325  1.5204 -1.1620 -4.2431
  181MOL0     H24401   6.773   0.821   5.063 -0.4090  0.3572  0.9423
  181MOL0     H24402   6.897   0.848   5.183 -1.4621  2.0927  0.3402
  181MOL0     H24403   6.920   0.587   5.195  2.7500  1.6814  0.2226
  181MOL0     H24404   6.773   0.578   5.096 -0.9638  2.2240  0.5376
  181MOL0     H24405   6.894   0.708   4.915 -1.9701 -0.6925  0.9685
  181MOL0     H24406   6.964   0.540   4.951  2.0127  0.6116 -0.8223
  181MOL0     H24407   7.066   0.822   5.003  0.1252 -0.7487 -0.0673
  181MOL0     H24408   7.123   0.687   5.108  2.8778 -0.2630 -1.1820
  181MOL0     H24409   7.230   0.591   4.938  2.5863  0.7876 -1.9053
  181MOL0     H24410   7.274   0.767   4.944  0.5742 -0.4462  0.4032
  181MOL0     H24411   7.096   0.631   4.740  0.9645 -1.4344 -1.1437
  181MOL0     H24412   7.084   0.790   4.781  0.9021  1.1531  2.6258
  181MOL0     H24413   7.356   0.798   4.714  0.6133  0.7445 -1.2722
  181MOL0     H24414   7.255   0.749   4.583  1.0672 -2.0945 -0.1336
  181MOL0     H24415   7.287   0.494   4.697  2.7505 -1.7224  1.0490
  181MOL0     H24416   7.411   0.568   4.780  0.0935  1.0367  0.1885
  181MOL0     H24417   6.734   1.024   5.218 -0.5807  1.2186  0.6667
  181MOL0     H24418   6.539   1.185   5.252 -1.0441  0.0577 -1.0616
  181MOL0     H24419   6.061   1.125   5.343  1.7367  1.0950 -0.2271
  181MOL0     H24420   5.837   1.212   5.396 -0.8287  1.0754  0.9705
  181MOL0     H24421   4.512   1.415   5.717  1.0361 -1.7003 -1.3494
  181MOL0     H24422   4.497   1.236   5.571 -1.9497  0.9791 -0.1727
  181MOL0     H24423   4.500   0.634   5.643 -0.6638  2.4354  1.2193
  181MOL0     H24424   4.385   0.453   5.540 -1.1112 -0.7926 -0.2878
  181MOL0     H24425   4.353   0.327   5.295  1.4190  1.3487  1.9192
  181MOL0     H24426   4.244   0.304   5.434 -1.0859  0.0605 -0.0172
  181MOL0     H24427   4.197   0.181   5.178  0.0552  1.8542 -2.4335
  181MOL0     H24428   4.115   0.332   5.167  0.1813 -0.1052 -0.9673
  181MOL0     H24429   3.938   0.206   5.252 -0.1595 -1.9152  0.4549
  181MOL0     H24430   3.998   0.273   5.400  1.3348 -1.9349  1.0888
  181MOL0     H24431   4.135   0.052   5.433 -2.2693 -0.9095  2.6709
  181MOL0     H24432   4.042  -0.022   5.299 -1.3979 -3.1346  3.1493
  181MOL0     H24433   3.743   0.003   5.575 -0.2997  2.1352  0.7966
  181MOL0     H24434   4.158   0.727   5.306  0.4868  0.1389  0.7466
  181MOL0     H24435   4.251   0.908   5.437 -0.9767  0.8352 -5.0426
  182MOL0     O24436   1.619   3.914   6.045 -0.5744  0.4460  0.0288
  182MOL0     C24437   1.689   3.843   6.126  0.5701 -0.8163  0.1448
  182MOL0     O24438   1.823   3.809   6.118  0.7888  0.4057  0.3701
  182MOL0     C24439   1.889   3.852   6.009  0.0237 -0.3991 -0.1582
  182MOL0     C24440   2.024   3.903   6.021 -0.7215  0.4258 -0.0186
  182MOL0     C24441   2.088   3.958   5.907 -0.0328 -0.4087  0.0248
  182MOL0     C24442   2.029   3.954   5.777 -0.5354 -0.0436  1.2022
  182MOL0     O24443   2.091   4.020   5.674 -0.0621  1.0009  0.2780
  182MOL0     C24444   2.077   3.953   5.554 -0.4917  0.1956 -0.9495
  182MOL0     C24445   2.153   3.826   5.543  0.0541 -0.3304  0.4615
  182MOL0     C24446   2.302   3.849   5.581  0.0762 -0.6557  0.7275
  182MOL0     C24447   2.384   3.723   5.534  1.1016 -0.6341  0.0667
  182MOL0     C24448   2.528   3.725   5.548 -0.0058 -0.0253  1.2218
  182MOL0     C24449   2.559   3.721   5.698 -0.2630  0.0575  0.4843
  182MOL0     C24450   2.713   3.700   5.719  0.6000 -0.1889  1.3159
  182MOL0     C24451   2.759   3.557   5.695 -0.1252 -0.2611  0.0168
  182MOL0     N24452   2.905   3.541   5.690 -0.6877 -0.2291 -0.3522
  182MOL0     C24453   3.002   3.626   5.738  0.0854  0.6666 -0.6488
  182MOL0     C24454   3.118   3.556   5.740  0.2494  0.4859 -0.5249
  182MOL0     C24455   3.243   3.625   5.797 -0.4497 -1.3199 -0.2250
  182MOL0     C24456   3.254   3.756   5.874  0.3757  0.8306 -0.8264
  182MOL0     C24457   3.237   3.720   6.018  0.4929 -0.6800  0.1538
  182MOL0     C24458   3.094   3.658   6.053 -0.2583  0.1028 -0.0136
  182MOL0     O24459   3.006   3.759   6.021  0.2164  0.4491  0.1623
  182MOL0     C24460   2.886   3.762   6.077  0.3570  0.3778  0.1223
  182MOL0     C24461   2.817   3.879   6.058 -0.3724  0.2528 -0.2750
  182MOL0     C24462   2.688   3.890   6.102  0.3615 -0.3245 -0.5647
  182MOL0     C24463   2.620   4.024   6.094 -0.5240 -1.0623 -0.4902
  182MOL0     C24464   2.634   3.785   6.182 -0.3255  0.3797  0.2817
  182MOL0     C24465   2.493   3.787   6.224  0.7324 -0.4450  0.4452
  182MOL0     O24466   2.453   3.701   6.321  1.2232 -0.2430 -0.1464
  182MOL0     C24467   2.321   3.685   6.363  0.9401 -0.3248  0.9637
  182MOL0     C24468   2.201   3.706   6.283  0.1363  0.2179 -0.0086
  182MOL0     C24469   2.075   3.700   6.346  0.8164  0.6952  0.0865
  182MOL0     C24470   2.066   3.680   6.489  0.1557  0.2495 -1.2319
  182MOL0     O24471   1.940   3.686   6.546 -0.1966  0.3644 -0.1412
  182MOL0     C24472   1.931   3.730   6.683  0.3187  0.5810  0.6644
  182MOL0     C24473   1.791   3.781   6.705  0.5082 -0.2841  0.0832
  182MOL0     C24474   1.748   3.910   6.627 -0.0834  0.0623 -0.5753
  182MOL0     C24475   1.706   4.018   6.731  0.4497  0.4653  0.1026
  182MOL0     C24476   1.561   4.013   6.754 -0.1671 -0.1175 -0.4470
  182MOL0     C24477   1.512   4.131   6.841  0.2993  0.3753  0.8463
  182MOL0     C24478   1.361   4.100   6.867 -0.0544  0.6168 -0.1886
  182MOL0     C24479   1.289   4.218   6.930 -0.1781 -1.6807  0.5877
  182MOL0    Cl24480   1.121   4.182   6.985 -0.0693  0.0824  0.0777
  182MOL0     C24481   2.183   3.665   6.559  0.3815  0.1508  0.1942
  182MOL0     C24482   2.303   3.668   6.501 -0.5536  0.1579 -0.4752
  182MOL0     O24483   2.412   3.859   6.160 -0.1408 -0.3526  0.0665
  182MOL0     C24484   2.708   3.667   6.211 -0.9588 -0.1513  0.6958
  182MOL0     C24485   2.831   3.658   6.149  0.0396 -0.0413  0.0503
  182MOL0     N24486   3.103   3.444   5.664 -0.5737  0.5125  0.1542
  182MOL0     N24487   2.972   3.439   5.634 -0.0277  0.1114 -0.0396
  182MOL0     C24488   1.904   3.889   5.763  1.2627  0.1746 -0.4452
  182MOL0     C24489   1.836   3.844   5.881  0.1442 -0.3862  0.9685
  182MOL0     C24490   1.617   3.788   6.242 -0.2147  0.0154  0.0289
  182MOL0     C24491   1.506   3.846   6.292  1.1087  0.1875 -0.4797
  182MOL0     C24492   1.439   3.799   6.408  1.1421  0.7704 -1.6936
  182MOL0     C24493   1.502   3.698   6.485  0.3932 -0.3988 -0.3179
  182MOL0     O24494   1.456   3.654   6.612 -0.0639 -0.1603  0.3475
  182MOL0     C24495   1.322   3.687   6.649 -0.4799  0.6590 -0.4242
  182MOL0     C24496   1.265   3.572   6.740  0.1262 -0.4684 -0.0996
  182MOL0     C24497   1.338   3.563   6.874 -0.2830 -0.3543 -0.9579
  182MOL0     C24498   1.256   3.491   6.983 -0.1884 -0.5804 -0.2430
  182MOL0     C24499   1.342   3.493   7.100  0.3502  0.8635 -0.3776
  182MOL0     C24500   1.427   3.493   7.188  0.0264  0.9089 -0.0120
  182MOL0     C24501   1.615   3.629   6.433  0.2301 -1.6199  0.6687
  182MOL0     C24502   1.670   3.682   6.311 -0.5608  0.2809  0.3308
  182MOL0     H24503   2.067   3.931   6.116 -1.6209  2.2490 -0.1016
  182MOL0     H24504   2.187   4.000   5.921 -0.1370 -0.8185  2.3609
  182MOL0     H24505   1.970   3.939   5.533 -0.5472 -0.9456 -0.0057
  182MOL0     H24506   2.124   4.021   5.482  1.7695 -0.3828 -0.0999
  182MOL0     H24507   2.110   3.748   5.606  2.1677 -0.9673  1.2177
  182MOL0     H24508   2.139   3.798   5.438 -1.7821  4.8397 -0.9958
  182MOL0     H24509   2.343   3.942   5.542  0.4433 -1.4186 -0.8042
  182MOL0     H24510   2.313   3.841   5.689 -1.4790 -1.3068  0.8612
  182MOL0     H24511   2.332   3.640   5.585 -0.2000  1.2434  2.0035
  182MOL0     H24512   2.374   3.709   5.426 -3.6241 -0.9066  0.3006
  182MOL0     H24513   2.570   3.638   5.497  1.7708  1.3399  0.2737
  182MOL0     H24514   2.566   3.812   5.495 -1.3950 -1.2052 -1.9637
  182MOL0     H24515   2.543   3.822   5.736  1.1011  2.0847 -3.7326
  182MOL0     H24516   2.498   3.648   5.753  0.6271  0.0618  1.5075
  182MOL0     H24517   2.781   3.773   5.676 -0.4522  2.2398  3.5142
  182MOL0     H24518   2.729   3.713   5.827  1.7205  2.9751  0.8694
  182MOL0     H24519   2.717   3.541   5.595  0.6210  0.7533 -0.4815
  182MOL0     H24520   2.716   3.481   5.760  0.4898 -0.4985  0.1522
  182MOL0     H24521   2.988   3.725   5.781 -1.6375  0.0074  0.4227
  182MOL0     H24522   3.286   3.542   5.852 -0.2678 -1.9964 -1.3511
  182MOL0     H24523   3.308   3.628   5.709  0.8432 -1.1527  0.7067
  182MOL0     H24524   3.180   3.833   5.853  0.0272  1.3704  2.0379
  182MOL0     H24525   3.358   3.792   5.878  1.3916 -1.9174  2.0561
  182MOL0     H24526   3.250   3.813   6.075 -0.2195 -0.0172 -0.7377
  182MOL0     H24527   3.323   3.656   6.040  0.3533 -2.1137 -3.0328
  182MOL0     H24528   3.101   3.634   6.160  0.3143 -3.1140 -0.6605
  182MOL0     H24529   3.070   3.565   6.001  4.1613 -1.4721  0.2663
  182MOL0     H24530   2.850   3.960   5.995 -0.3826 -0.9030 -1.8084
  182MOL0     H24531   2.531   4.040   6.031 -0.0794 -1.4022 -1.2173
  182MOL0     H24532   2.596   4.055   6.196  1.8426  1.6354 -0.6384
  182MOL0     H24533   2.696   4.100   6.073 -0.4695 -0.5810  1.3042
  182MOL0     H24534   2.206   3.714   6.175  2.4494 -0.8624 -0.0454
  182MOL0     H24535   1.984   3.707   6.288  0.2157 -1.2074  0.7335
  182MOL0     H24536   1.938   3.638   6.742 -0.9869  0.1152  0.1208
  182MOL0     H24537   2.007   3.799   6.722 -1.2545  2.6058  0.3170
  182MOL0     H24538   1.721   3.704   6.672 -0.1358  0.0665  0.6102
  182MOL0     H24539   1.783   3.782   6.814 -1.0490 -4.0016  0.1598
  182MOL0     H24540   1.667   3.886   6.558  0.9601  0.5900 -2.0205
  182MOL0     H24541   1.828   3.946   6.562  2.7558 -1.6226  1.7451
  182MOL0     H24542   1.759   3.989   6.822  0.3077 -0.1461 -0.0049
  182MOL0     H24543   1.744   4.112   6.691 -2.0804  0.9733 -1.3784
  182MOL0     H24544   1.538   3.920   6.808  1.4051  0.1430  0.7610
  182MOL0     H24545   1.507   4.024   6.660 -1.0370  1.1586  0.1720
  182MOL0     H24546   1.567   4.146   6.934  0.9369  2.4633  0.1935
  182MOL0     H24547   1.514   4.214   6.769 -0.5340  2.1706  2.7790
  182MOL0     H24548   1.361   4.010   6.929 -0.5746  0.2902 -0.6446
  182MOL0     H24549   1.301   4.078   6.778 -0.7516 -1.4260  0.7079
  182MOL0     H24550   1.292   4.307   6.867  1.7128 -3.7893 -2.5166
  182MOL0     H24551   1.337   4.244   7.025 -1.6177  2.0688  0.4660
  182MOL0     H24552   2.168   3.636   6.662  1.4897  2.6325  1.1397
  182MOL0     H24553   2.396   3.659   6.556 -0.9454 -1.0011  0.0278
  182MOL0     H24554   2.670   3.580   6.265 -2.7033 -0.1007 -0.3737
  182MOL0     H24555   2.882   3.565   6.173 -0.7003  0.1578  2.7347
  182MOL0     H24556   1.848   3.892   5.670  1.6216  0.2554 -0.6569
  182MOL0     H24557   1.739   3.798   5.864 -0.1660  0.1962  1.1107
  182MOL0     H24558   1.453   3.919   6.232 -1.1938 -0.6952  0.3595
  182MOL0     H24559   1.349   3.847   6.443  2.4104 -0.1500  3.7444
  182MOL0     H24560   1.324   3.779   6.708  1.8429 -0.5497  1.5293
  182MOL0     H24561   1.260   3.698   6.559  1.3002  0.0429 -1.7866
  182MOL0     H24562   1.268   3.478   6.684  0.2706  0.2100 -1.2836
  182MOL0     H24563   1.161   3.588   6.772 -0.4500 -2.9045 -0.5510
  182MOL0     H24564   1.356   3.663   6.912  1.4744 -1.0686  0.2399
  182MOL0     H24565   1.434   3.511   6.863 -0.1374 -0.7387  1.5420
  182MOL0     H24566   1.233   3.388   6.956  0.8685 -0.6104 -1.1105
  182MOL0     H24567   1.162   3.541   7.010  0.7272  0.8605  0.4198
  182MOL0     H24568   1.504   3.484   7.262  0.1667  0.7908 -0.1719
  182MOL0     H24569   1.670   3.543   6.468  2.1553 -2.0763 -3.0959
  182MOL0     H24570   1.762   3.638   6.274  0.4061  2.5697 -0.1142
  183MOL0     O24571   7.180   3.692  10.478 -0.2481 -0.1254 -0.6656
  183MOL0     C24572   7.234   3.796  10.444  0.1311 -0.8960  0.4745
  183MOL0     O24573   7.276   3.896  10.526  0.3939 -0.0653 -0.3885
  183MOL0     C24574   7.227   3.899  10.657  0.0083  0.2883  0.1474
  183MOL0     C24575   7.315   3.923  10.760 -0.6839 -0.4518  0.0729
  183MOL0     C24576   7.266   3.914  10.894  0.2895  0.8440  1.6635
  183MOL0     C24577   7.131   3.894  10.916 -0.4027  0.1791  0.8349
  183MOL0     O24578   7.092   3.929  11.045 -0.3071 -0.3876 -0.2929
  183MOL0     C24579   6.970   4.005  11.051  0.1544  0.0993  0.1939
  183MOL0     C24580   6.945   4.083  11.174 -0.0762 -0.6691  0.6231
  183MOL0     C24581   7.040   4.203  11.190  0.7656 -1.1252  0.5844
  183MOL0     C24582   7.001   4.292  11.312  0.3613  0.3248  0.1365
  183MOL0     C24583   7.115   4.381  11.359 -0.5956  0.2307 -0.2495
  183MOL0     C24584   7.073   4.449  11.483 -0.2206 -0.9884 -1.0958
  183MOL0     C24585   7.177   4.544  11.527  0.2066 -0.2401 -1.4968
  183MOL0     C24586   7.185   4.680  11.450  0.1198  0.3430 -0.6048
  183MOL0     N24587   7.266   4.785  11.519 -0.0642 -0.1898 -0.2261
  183MOL0     C24588   7.400   4.830  11.500 -0.1169 -0.1285  0.3300
  183MOL0     C24589   7.432   4.919  11.597  0.7590 -0.4364  0.0671
  183MOL0     C24590   7.565   4.973  11.602 -0.1202  0.1801  0.2189
  183MOL0     C24591   7.673   4.863  11.625 -0.0861  0.8223 -0.5875
  183MOL0     C24592   7.783   4.914  11.709 -0.2478 -0.2685  0.3111
  183MOL0     C24593   7.881   4.811  11.765 -0.0509 -0.2848 -0.3707
  183MOL0     O24594   7.929   4.730  11.658  0.5943  0.0474 -0.3340
  183MOL0     C24595   8.045   4.760  11.582  1.3139 -0.1156  0.7182
  183MOL0     C24596   8.044   4.701  11.465 -0.2970 -0.3636  1.0986
  183MOL0     C24597   8.153   4.701  11.377  0.0841 -0.4359 -0.8600
  183MOL0     C24598   8.138   4.629  11.248 -0.0939 -0.2241  0.1730
  183MOL0     C24599   8.267   4.772  11.422  0.2378  0.9579  0.5331
  183MOL0     C24600   8.388   4.786  11.334 -0.4339  0.2604 -0.1718
  183MOL0     O24601   8.485   4.867  11.380 -0.2153  0.7081 -0.6374
  183MOL0     C24602   8.599   4.883  11.307 -0.0844  0.1038 -1.2355
  183MOL0     C24603   8.719   4.893  11.388  0.3699 -1.0649  0.2380
  183MOL0     C24604   8.846   4.909  11.330  0.8266 -0.9844  0.9856
  183MOL0     C24605   8.856   4.904  11.184 -0.0041 -0.0030  1.5138
  183MOL0     O24606   8.985   4.914  11.129  0.3265 -0.4283  0.1458
  183MOL0     C24607   9.007   4.896  10.985  0.8718  0.9511  0.3926
  183MOL0     C24608   9.017   4.749  10.946  0.8504 -0.0928  0.5935
  183MOL0     C24609   8.879   4.693  10.933  0.2045 -0.4309 -0.1360
  183MOL0     C24610   8.891   4.540  10.905 -0.1765  0.0163 -0.3135
  183MOL0     C24611   8.762   4.469  10.907 -0.2555 -0.3866 -0.2427
  183MOL0     C24612   8.789   4.321  10.863 -0.2590 -0.8042  0.1460
  183MOL0     C24613   8.666   4.232  10.856 -0.5795  0.3564 -0.4319
  183MOL0     C24614   8.595   4.252  10.720  0.5605  0.0953  0.1739
  183MOL0    Cl24615   8.424   4.240  10.752 -0.1656 -0.2399 -0.1182
  183MOL0     C24616   8.735   4.910  11.110 -0.4856  0.3267  0.5970
  183MOL0     C24617   8.611   4.896  11.170 -0.3384 -0.5582  0.1743
  183MOL0     O24618   8.396   4.726  11.227 -0.2256  0.0074  0.0209
  183MOL0     C24619   8.273   4.838  11.544  0.6115  0.3960 -0.2247
  183MOL0     C24620   8.158   4.830  11.621  1.1780 -1.2820  0.3057
  183MOL0     N24621   7.325   4.939  11.686 -0.5081  0.1865  0.2156
  183MOL0     N24622   7.232   4.859  11.637 -0.4146  0.2302  0.0787
  183MOL0     C24623   7.042   3.864  10.810 -0.2251 -0.9781 -0.8626
  183MOL0     C24624   7.091   3.876  10.681 -0.0874  0.4231  0.3822
  183MOL0     C24625   7.257   3.818  10.303  0.3980 -0.0776 -0.8836
  183MOL0     C24626   7.319   3.937  10.254 -0.3522 -0.2230 -0.7090
  183MOL0     C24627   7.337   3.961  10.121  0.7204  1.1715 -0.0098
  183MOL0     C24628   7.298   3.859  10.027 -0.1061  0.0224 -1.2505
  183MOL0     O24629   7.334   3.894   9.906  0.5660 -0.4280  0.0816
  183MOL0     C24630   7.325   3.795   9.810  0.2379 -0.1980  0.5023
  183MOL0     C24631   7.402   3.838   9.682 -0.6196  0.1868  0.4675
  183MOL0     C24632   7.457   3.704   9.619 -0.0523 -0.2099 -0.0429
  183MOL0     C24633   7.349   3.620   9.564 -0.2584  0.1118 -0.9323
  183MOL0     C24634   7.293   3.661   9.431 -0.3321  1.1201  0.0697
  183MOL0     C24635   7.243   3.681   9.317 -0.0451 -0.1220 -0.2244
  183MOL0     C24636   7.231   3.741  10.073  0.3070 -0.0295  0.2613
  183MOL0     C24637   7.206   3.724  10.205  0.0798 -0.8623 -0.6888
  183MOL0     H24638   7.421   3.939  10.741 -0.5867 -2.0509 -0.9380
  183MOL0     H24639   7.323   3.939  10.982  1.7784 -0.2961  1.0586
  183MOL0     H24640   6.973   4.068  10.962 -1.2221 -2.4335 -1.7972
  183MOL0     H24641   6.888   3.933  11.041  2.1040 -2.1339 -0.7823
  183MOL0     H24642   6.845   4.126  11.160 -0.4805 -2.1735 -1.5742
  183MOL0     H24643   6.933   4.007  11.252 -1.1022 -1.7337 -0.5342
  183MOL0     H24644   7.142   4.167  11.208  0.6457 -1.9035 -0.2449
  183MOL0     H24645   7.044   4.272  11.104 -3.9590 -1.0578  0.1827
  183MOL0     H24646   6.912   4.355  11.303  1.2609  1.5691 -0.3233
  183MOL0     H24647   6.985   4.230  11.401 -3.1716  2.8606  1.4764
  183MOL0     H24648   7.202   4.318  11.377 -1.1477 -0.4922 -0.0275
  183MOL0     H24649   7.143   4.449  11.278 -0.3431  0.0927 -0.2783
  183MOL0     H24650   6.986   4.511  11.458  0.7753 -0.7870 -4.6597
  183MOL0     H24651   7.053   4.379  11.565  0.6320 -0.0177 -0.0464
  183MOL0     H24652   7.141   4.573  11.626 -1.4474  0.9952 -2.4099
  183MOL0     H24653   7.275   4.502  11.552  1.6972  3.4036 -0.6108
  183MOL0     H24654   7.085   4.717  11.427 -0.0677 -1.1323 -2.4361
  183MOL0     H24655   7.232   4.654  11.354 -0.3557 -0.8992 -0.5214
  183MOL0     H24656   7.462   4.794  11.419 -1.3950 -2.3849  0.2451
  183MOL0     H24657   7.594   5.030  11.513 -2.0149 -0.0878 -0.6408
  183MOL0     H24658   7.566   5.038  11.690  0.4356 -0.5288  0.7426
  183MOL0     H24659   7.701   4.819  11.529 -1.3661 -1.9408  0.2023
  183MOL0     H24660   7.624   4.790  11.690 -0.1004  0.6684 -0.7724
  183MOL0     H24661   7.746   4.983  11.786  2.3465 -0.0855  1.4860
  183MOL0     H24662   7.844   4.981  11.647 -1.5742 -0.4208 -1.2539
  183MOL0     H24663   7.828   4.751  11.839 -2.5921 -1.0341 -2.6309
  183MOL0     H24664   7.966   4.866  11.808 -0.4593 -2.0232  2.9434
  183MOL0     H24665   7.951   4.657  11.431 -0.6345  0.8400  0.4053
  183MOL0     H24666   8.159   4.693  11.161 -0.0453  2.2654  1.9210
  183MOL0     H24667   8.217   4.553  11.247  0.0095 -0.1202 -1.0839
  183MOL0     H24668   8.036   4.592  11.237 -1.4654  3.1908  0.3443
  183MOL0     H24669   8.716   4.887  11.496  2.6715 -0.2516  0.4141
  183MOL0     H24670   8.940   4.915  11.384  1.1902 -2.1239  0.5169
  183MOL0     H24671   8.930   4.953  10.933 -0.5583 -0.2651  1.1101
  183MOL0     H24672   9.097   4.945  10.946  1.5524 -1.5064 -1.3382
  183MOL0     H24673   9.068   4.733  10.850  1.6664 -0.3331  1.0556
  183MOL0     H24674   9.077   4.699  11.023  0.3989  0.2934  1.2062
  183MOL0     H24675   8.821   4.745  10.856 -1.2078 -1.1051  0.4434
  183MOL0     H24676   8.832   4.695  11.032  1.4433 -2.2817  0.5551
  183MOL0     H24677   8.954   4.526  10.817  0.2303  0.8547 -0.1727
  183MOL0     H24678   8.947   4.505  10.992  1.7741  2.1988 -0.5798
  183MOL0     H24679   8.686   4.514  10.842  0.7087  1.4000 -0.1749
  183MOL0     H24680   8.723   4.477  11.009 -0.6117 -0.2523 -0.3858
  183MOL0     H24681   8.834   4.305  10.765  0.2402 -4.3282  0.8376
  183MOL0     H24682   8.850   4.289  10.948 -0.1845  3.7295  2.1359
  183MOL0     H24683   8.594   4.265  10.932 -1.7487  1.9517 -2.1362
  183MOL0     H24684   8.690   4.127  10.875 -0.3619  0.6249  0.8082
  183MOL0     H24685   8.629   4.181  10.644  2.2572  2.2385 -1.1990
  183MOL0     H24686   8.605   4.355  10.684  0.2453 -0.0718 -0.4030
  183MOL0     H24687   8.740   4.934  11.004 -0.1207 -2.2803 -0.0526
  183MOL0     H24688   8.526   4.912  11.104 -0.6643 -2.0882  0.1942
  183MOL0     H24689   8.355   4.900  11.577  1.9107 -1.7311  0.7760
  183MOL0     H24690   8.160   4.892  11.710  0.2551  0.7658 -0.9999
  183MOL0     H24691   6.936   3.858  10.830 -0.4431  2.4370 -0.2908
  183MOL0     H24692   7.022   3.858  10.599  0.0599 -0.4670  0.4503
  183MOL0     H24693   7.346   4.010  10.329  1.2452 -2.6454  1.2678
  183MOL0     H24694   7.373   4.058  10.090 -0.1339  1.0493 -1.4790
  183MOL0     H24695   7.371   3.702   9.845 -0.8824 -0.9051  0.1636
  183MOL0     H24696   7.225   3.758   9.788  1.8234 -3.8701 -1.4622
  183MOL0     H24697   7.489   3.898   9.709  0.8940 -1.8197  0.3077
  183MOL0     H24698   7.349   3.899   9.608 -2.4843 -2.6610 -0.7184
  183MOL0     H24699   7.512   3.644   9.691 -1.1321  2.7832  3.6222
  183MOL0     H24700   7.526   3.727   9.537 -0.0937 -0.0517 -0.0339
  183MOL0     H24701   7.271   3.604   9.638  1.3217  0.5356  0.9081
  183MOL0     H24702   7.390   3.523   9.534 -0.3545 -0.3183  0.2663
  183MOL0     H24703   7.208   3.691   9.216  2.0666 -1.5774 -1.1795
  183MOL0     H24704   7.198   3.665  10.003  1.0828 -0.1326  0.0005
  183MOL0     H24705   7.151   3.639  10.245 -2.2991  0.6500 -0.5228
  184MOL0     O24706  10.755   3.263   6.623  0.0464 -0.1480  0.4593
  184MOL0     C24707  10.815   3.371   6.611 -0.0523  0.5871 -0.6167
  184MOL0     O24708  10.782   3.479   6.545 -0.1172 -0.7951 -0.2708
  184MOL0     C24709  10.676   3.485   6.451  0.1109 -0.4947 -0.9046
  184MOL0     C24710  10.698   3.523   6.314  0.7445  0.3727 -0.4174
  184MOL0     C24711  10.592   3.542   6.226  0.6510  0.8159 -0.4313
  184MOL0     C24712  10.459   3.532   6.278 -1.0455  0.5034 -0.5897
  184MOL0     O24713  10.363   3.559   6.189  0.1808 -0.0036  0.9724
  184MOL0     C24714  10.240   3.503   6.214  0.1203  0.9571 -0.4937
  184MOL0     C24715  10.176   3.483   6.078 -0.1084 -0.3853  0.4403
  184MOL0     C24716  10.023   3.460   6.099  1.0401 -0.2256 -0.7429
  184MOL0     C24717   9.961   3.402   5.971 -0.3610 -0.3670 -0.6240
  184MOL0     C24718   9.816   3.397   5.966 -0.1729  0.8557 -0.3605
  184MOL0     C24719   9.758   3.301   5.860  0.4791  0.1295  0.5732
  184MOL0     C24720   9.597   3.287   5.865 -0.4782 -0.3064 -1.1194
  184MOL0     C24721   9.539   3.235   5.998  0.6430 -0.4886  0.0136
  184MOL0     N24722   9.397   3.191   5.997  1.7705  0.2515 -0.4763
  184MOL0     C24723   9.289   3.264   5.942 -1.4510  0.9596 -0.6035
  184MOL0     C24724   9.180   3.180   5.970 -0.2066 -0.1995  0.9940
  184MOL0     C24725   9.038   3.216   5.950  0.7998  0.4335 -0.4664
  184MOL0     C24726   8.968   3.144   5.824 -0.5441 -0.7674  0.3239
  184MOL0     C24727   8.918   3.006   5.850  0.1004 -0.4598 -0.1671
  184MOL0     C24728   8.806   2.968   5.764 -0.5118  0.5086 -0.2947
  184MOL0     O24729   8.844   2.945   5.625  0.0591  0.9691  0.0934
  184MOL0     C24730   8.736   2.943   5.542 -1.7991  0.4615  0.1556
  184MOL0     C24731   8.633   2.849   5.564  0.2482  0.5797  0.0569
  184MOL0     C24732   8.530   2.832   5.466  0.5594 -0.2733 -0.3092
  184MOL0     C24733   8.435   2.722   5.475 -1.0013  0.3301  0.5140
  184MOL0     C24734   8.533   2.918   5.354  0.0785  1.9555  0.3279
  184MOL0     C24735   8.422   2.920   5.252 -0.0238 -0.1682 -0.5592
  184MOL0     O24736   8.462   2.946   5.114  0.2163 -0.0903  0.5045
  184MOL0     C24737   8.367   2.993   5.025 -0.1372  0.3040 -0.2543
  184MOL0     C24738   8.252   3.053   5.054  0.4375 -0.0084  0.0643
  184MOL0     C24739   8.156   3.084   4.956  0.0499  0.2501 -0.2516
  184MOL0     C24740   8.180   3.047   4.823 -0.5849 -0.2948 -0.9136
  184MOL0     O24741   8.086   3.078   4.724  0.2750  0.0355 -0.1215
  184MOL0     C24742   8.145   3.120   4.602  0.5476  0.0336  0.7757
  184MOL0     C24743   8.033   3.188   4.515 -0.0473 -0.0835  0.2579
  184MOL0     C24744   7.971   3.101   4.406  1.0341  0.1890 -0.0448
  184MOL0     C24745   8.029   3.134   4.270 -0.1655 -0.4505  0.6973
  184MOL0     C24746   7.975   3.033   4.177 -0.3046 -0.0631  0.9887
  184MOL0     C24747   7.998   3.081   4.030  0.5940  0.0944  0.2821
  184MOL0     C24748   8.143   3.114   4.001 -0.8392  0.4167 -0.2470
  184MOL0     C24749   8.161   3.092   3.848 -0.1529 -0.4712 -0.3180
  184MOL0    Cl24750   8.332   3.128   3.798  0.0957 -0.1826  0.1570
  184MOL0     C24751   8.311   2.992   4.796  0.7781 -0.7345 -0.5847
  184MOL0     C24752   8.399   2.966   4.896  0.1713 -0.5618  0.3188
  184MOL0     O24753   8.303   2.899   5.288 -0.3382  0.3234  0.0805
  184MOL0     C24754   8.636   3.010   5.342  0.1837  0.5852  0.8417
  184MOL0     C24755   8.732   3.022   5.435 -0.7506  0.6465  0.4242
  184MOL0     N24756   9.219   3.066   6.039  0.1573 -0.7265  0.3230
  184MOL0     N24757   9.345   3.076   6.050 -0.1869 -0.5054  0.4529
  184MOL0     C24758  10.439   3.499   6.414  0.1294 -0.1112 -0.7575
  184MOL0     C24759  10.542   3.467   6.499 -0.6852  0.0153  1.2165
  184MOL0     C24760  10.929   3.394   6.700  0.2161  0.0450 -0.0947
  184MOL0     C24761  11.002   3.518   6.716 -0.1080 -0.7838 -0.6992
  184MOL0     C24762  11.106   3.540   6.806  0.6205  0.6671  0.0854
  184MOL0     C24763  11.150   3.424   6.873  0.2875  0.6722 -0.0425
  184MOL0     O24764  11.249   3.433   6.968  0.5478  0.2092 -0.8004
  184MOL0     C24765  11.345   3.534   6.960 -0.1422  1.0874 -0.1607
  184MOL0     C24766  11.462   3.494   7.053  0.1825  0.3939 -0.0422
  184MOL0     C24767  11.432   3.440   7.190 -0.7197  0.1811  0.6398
  184MOL0     C24768  11.555   3.386   7.260 -0.4146  0.2793  0.3065
  184MOL0     C24769  11.597   3.502   7.343  1.1981  0.3446  0.4972
  184MOL0     C24770  11.634   3.609   7.394 -0.5533  0.1300 -0.0129
  184MOL0     C24771  11.095   3.298   6.861  0.2132 -0.0875  0.6897
  184MOL0     C24772  10.984   3.283   6.773 -0.6141  0.9577 -0.5464
  184MOL0     H24773  10.802   3.550   6.295  0.9973 -0.8849 -0.9597
  184MOL0     H24774  10.602   3.567   6.121 -2.9041  1.5346 -0.7038
  184MOL0     H24775  10.241   3.408   6.268  2.8571  0.8965 -0.5309
  184MOL0     H24776  10.178   3.574   6.270  2.1184  3.6743 -1.5020
  184MOL0     H24777  10.201   3.579   6.031  0.9854 -0.6221  0.5138
  184MOL0     H24778  10.222   3.398   6.026  5.4715  2.4583 -0.0743
  184MOL0     H24779  10.009   3.395   6.187 -2.0138  0.4471 -0.6213
  184MOL0     H24780   9.978   3.555   6.130  1.4477 -0.6510  1.3358
  184MOL0     H24781   9.992   3.468   5.889 -2.4959  0.8355 -0.5231
  184MOL0     H24782  10.004   3.302   5.958  1.2461  0.5981 -3.9816
  184MOL0     H24783   9.773   3.354   6.057 -1.1704 -0.5528 -1.4524
  184MOL0     H24784   9.771   3.496   5.955 -0.3957  0.5291 -3.1387
  184MOL0     H24785   9.779   3.334   5.757 -0.7150 -0.8316 -0.0076
  184MOL0     H24786   9.804   3.202   5.872 -1.2453 -0.7507  0.3033
  184MOL0     H24787   9.548   3.383   5.848 -1.9354 -0.5366  1.3302
  184MOL0     H24788   9.572   3.220   5.782 -1.2914  0.0274 -1.1512
  184MOL0     H24789   9.545   3.312   6.075  2.5402 -1.3876  0.8311
  184MOL0     H24790   9.588   3.145   6.039 -2.0471 -0.8190  2.8861
  184MOL0     H24791   9.284   3.363   5.898  2.6724  2.2767  1.4146
  184MOL0     H24792   8.985   3.187   6.041  2.2187  0.5683  0.4465
  184MOL0     H24793   9.026   3.324   5.938  0.6121  0.5659  0.7168
  184MOL0     H24794   9.052   3.139   5.753  0.5370  0.5329  1.4393
  184MOL0     H24795   8.889   3.211   5.788  1.1752  1.6763  0.7858
  184MOL0     H24796   8.902   2.999   5.958  1.7365 -0.8354  0.0729
  184MOL0     H24797   9.000   2.937   5.830  0.1460 -0.2095 -0.8672
  184MOL0     H24798   8.721   3.036   5.755 -0.0755  1.1075  0.0588
  184MOL0     H24799   8.763   2.880   5.813 -2.2192  2.3912  1.8361
  184MOL0     H24800   8.645   2.777   5.645 -1.3463  3.7315  3.3537
  184MOL0     H24801   8.430   2.685   5.373 -0.9400  0.9361  0.2870
  184MOL0     H24802   8.468   2.644   5.544  0.8603 -0.1696 -0.8797
  184MOL0     H24803   8.340   2.765   5.509 -1.5239 -1.5950  1.6387
  184MOL0     H24804   8.225   3.086   5.154 -1.1302 -2.6768  0.6036
  184MOL0     H24805   8.061   3.124   4.989 -0.2126  0.2576 -0.9865
  184MOL0     H24806   8.222   3.195   4.625  0.9905 -0.2796  0.3239
  184MOL0     H24807   8.184   3.047   4.530  2.8225  1.8561  0.0083
  184MOL0     H24808   7.958   3.234   4.581 -1.3296 -2.4818  0.5720
  184MOL0     H24809   8.078   3.265   4.450 -0.5674 -0.8136 -1.0001
  184MOL0     H24810   7.863   3.117   4.404  0.8328 -1.0887 -0.2134
  184MOL0     H24811   7.982   2.996   4.435  0.5592  0.2038  0.1985
  184MOL0     H24812   8.007   3.239   4.247 -0.1550 -0.4549  0.6670
  184MOL0     H24813   8.139   3.129   4.275 -0.0324  1.5594  0.4778
  184MOL0     H24814   7.868   3.015   4.190 -0.8660  0.8949 -1.5725
  184MOL0     H24815   8.035   2.944   4.202  0.2613 -0.6621 -2.0021
  184MOL0     H24816   7.974   2.991   3.973  2.0331 -0.7618  0.9649
  184MOL0     H24817   7.934   3.167   4.006  1.0232  0.1427 -0.7392
  184MOL0     H24818   8.215   3.060   4.063 -1.6553  0.2929  0.6182
  184MOL0     H24819   8.167   3.221   4.006  4.0630 -0.3111 -2.3118
  184MOL0     H24820   8.089   3.149   3.789 -0.0883  0.1658  0.2030
  184MOL0     H24821   8.160   2.984   3.829 -0.3235 -0.4418 -0.4766
  184MOL0     H24822   8.333   2.975   4.691  2.9790 -0.0124 -0.2805
  184MOL0     H24823   8.500   2.932   4.875  1.3617  0.9978  2.9934
  184MOL0     H24824   8.629   3.076   5.257 -3.8585 -1.0351 -0.3374
  184MOL0     H24825   8.809   3.097   5.416 -0.7248  0.8635  1.3467
  184MOL0     H24826  10.338   3.484   6.450  0.4339 -0.3477  0.0332
  184MOL0     H24827  10.525   3.432   6.601 -0.2465 -2.3485  0.5411
  184MOL0     H24828  10.974   3.601   6.653  2.7214 -0.9268 -2.3382
  184MOL0     H24829  11.161   3.634   6.818  1.8916 -0.3240  3.1555
  184MOL0     H24830  11.375   3.552   6.856 -2.2124  1.9476 -0.6547
  184MOL0     H24831  11.295   3.626   6.992 -0.7893  0.7161 -0.0861
  184MOL0     H24832  11.505   3.592   7.073 -1.5032  1.3869 -1.0213
  184MOL0     H24833  11.528   3.425   6.999 -0.2734 -0.7545  0.8235
  184MOL0     H24834  11.360   3.357   7.186  1.1422 -1.4826  0.1567
  184MOL0     H24835  11.387   3.522   7.247 -1.7000 -1.8239  2.9095
  184MOL0     H24836  11.632   3.341   7.196  0.0601  1.6119 -0.0921
  184MOL0     H24837  11.529   3.301   7.323  0.4628  0.4971  0.9843
  184MOL0     H24838  11.671   3.700   7.438 -1.6970 -1.0278  3.7725
  184MOL0     H24839  11.140   3.216   6.917 -1.8686 -1.5833  0.2855
  184MOL0     H24840  10.953   3.180   6.758  2.0029 -0.5658  2.9063
  185MOL0     O24841   4.096   2.001   8.905 -0.1687 -0.2895 -0.2176
  185MOL0     C24842   3.997   2.013   8.978 -0.2459 -0.4102  0.2003
  185MOL0     O24843   3.974   1.934   9.083 -0.1339 -0.4218 -1.0858
  185MOL0     C24844   4.068   1.829   9.099 -0.2771 -0.1550 -1.2174
  185MOL0     C24845   4.207   1.835   9.110 -0.2596  0.4084  0.9375
  185MOL0     C24846   4.279   1.718   9.153 -0.1537 -1.4935  1.5677
  185MOL0     C24847   4.222   1.597   9.168 -0.1405  0.1952  0.4401
  185MOL0     O24848   4.305   1.486   9.185 -0.5622 -0.7957 -0.3543
  185MOL0     C24849   4.241   1.362   9.222 -1.2911  0.2961 -0.6958
  185MOL0     C24850   4.351   1.271   9.253  0.3780  0.2591 -0.7879
  185MOL0     C24851   4.443   1.303   9.378  0.6148 -0.5134  0.2851
  185MOL0     C24852   4.489   1.180   9.432  0.3134 -0.0254  0.6376
  185MOL0     C24853   4.595   1.204   9.549  0.2553 -0.1004 -0.7529
  185MOL0     C24854   4.738   1.247   9.498 -0.1576  0.4357  0.6854
  185MOL0     C24855   4.846   1.257   9.603 -1.1888 -0.8059  0.1764
  185MOL0     C24856   4.989   1.290   9.560 -0.3956  0.1964  0.6388
  185MOL0     N24857   5.044   1.202   9.460  0.1614  0.2978  0.1860
  185MOL0     C24858   5.010   1.213   9.324  0.6820 -0.4457 -0.0597
  185MOL0     C24859   5.105   1.142   9.261 -0.3920  1.0140  0.0227
  185MOL0     C24860   5.104   1.120   9.117 -0.7166  0.6228  0.1559
  185MOL0     C24861   5.140   0.978   9.077  0.2798  0.2080  0.3558
  185MOL0     C24862   5.039   0.868   9.128 -0.1756 -0.6450  1.1421
  185MOL0     C24863   4.988   0.772   9.012 -0.6152 -0.0229  0.3855
  185MOL0     O24864   4.936   0.839   8.898  0.8081 -0.6074 -0.1701
  185MOL0     C24865   4.805   0.887   8.903 -1.0446  1.0911  1.1108
  185MOL0     C24866   4.711   0.871   9.005 -0.1635 -0.4686 -0.2733
  185MOL0     C24867   4.579   0.921   8.998 -0.3327 -0.4629  0.4277
  185MOL0     C24868   4.488   0.892   9.120 -0.4163  0.4727 -0.4944
  185MOL0     C24869   4.537   0.994   8.883 -0.1652 -0.2894  0.0743
  185MOL0     C24870   4.409   1.061   8.864 -0.4190  0.0237  0.0931
  185MOL0     O24871   4.414   1.150   8.764  0.2870  0.2941 -0.4275
  185MOL0     C24872   4.321   1.250   8.771  0.1076 -0.5387 -0.5882
  185MOL0     C24873   4.350   1.385   8.803  0.1773  0.8812  0.3112
  185MOL0     C24874   4.250   1.484   8.797 -0.1016  0.5271  0.4392
  185MOL0     C24875   4.128   1.455   8.749  0.6705  0.9416  0.3548
  185MOL0     O24876   4.022   1.538   8.740  0.2376  0.8986 -0.5194
  185MOL0     C24877   4.037   1.678   8.729 -0.6986  0.5165  0.0241
  185MOL0     C24878   3.900   1.750   8.697 -0.2409 -0.2360  1.0750
  185MOL0     C24879   3.800   1.736   8.816  0.4150 -0.6131  1.5408
  185MOL0     C24880   3.673   1.807   8.777  0.3015 -0.3022 -0.1253
  185MOL0     C24881   3.602   1.829   8.914 -0.0290  0.4858  1.0591
  185MOL0     C24882   3.483   1.921   8.887  0.0340 -0.1492  0.1219
  185MOL0     C24883   3.421   1.981   9.012 -0.6113 -0.2708 -0.1126
  185MOL0     C24884   3.289   2.047   8.967  0.5839 -0.3136  0.1085
  185MOL0    Cl24885   3.148   1.936   8.969  0.5222  0.4072 -0.0403
  185MOL0     C24886   4.098   1.314   8.718  0.3431  0.7662  0.3121
  185MOL0     C24887   4.196   1.223   8.729  0.6803  0.1812  0.0613
  185MOL0     O24888   4.323   1.043   8.949  0.6776  0.4231 -0.3230
  185MOL0     C24889   4.635   1.003   8.783  0.1317 -1.1747  0.4264
  185MOL0     C24890   4.765   0.959   8.791 -0.0224 -0.7034 -0.2081
  185MOL0     N24891   5.185   1.082   9.352  0.0445 -0.3359  0.6774
  185MOL0     N24892   5.152   1.120   9.470  0.6426 -0.2474  0.1743
  185MOL0     C24893   4.082   1.587   9.142 -0.8479  0.3071 -0.0729
  185MOL0     C24894   4.007   1.700   9.118 -0.0860 -0.0961  0.1167
  185MOL0     C24895   3.907   2.128   8.956  0.4858 -0.3159  0.2416
  185MOL0     C24896   3.803   2.143   9.047 -0.5576  0.5358  0.8392
  185MOL0     C24897   3.729   2.268   9.036  0.0491  0.3714 -0.4939
  185MOL0     C24898   3.761   2.365   8.936 -0.1400  0.8288  0.3389
  185MOL0     O24899   3.698   2.488   8.909 -0.4862  1.2009 -0.5406
  185MOL0     C24900   3.601   2.556   8.996 -0.0468  0.5627  0.8048
  185MOL0     C24901   3.689   2.621   9.109  0.2532  0.3757 -0.2229
  185MOL0     C24902   3.601   2.672   9.214 -0.2335 -0.5297 -0.5632
  185MOL0     C24903   3.657   2.725   9.353  1.0764  1.1609  0.1043
  185MOL0     C24904   3.661   2.603   9.442 -0.5852  0.2949  0.1111
  185MOL0     C24905   3.666   2.503   9.514 -0.0326 -0.5784 -0.8533
  185MOL0     C24906   3.864   2.340   8.852 -0.5621 -0.6810  0.0726
  185MOL0     C24907   3.937   2.225   8.857 -0.1314  0.1983  0.6834
  185MOL0     H24908   4.244   1.935   9.091 -0.5851  0.1982 -0.9622
  185MOL0     H24909   4.385   1.696   9.157  0.9565  2.3013 -1.0242
  185MOL0     H24910   4.181   1.364   9.313  3.2223 -1.2232  2.7069
  185MOL0     H24911   4.195   1.330   9.128 -1.9356 -0.3133 -0.1882
  185MOL0     H24912   4.293   1.181   9.271  0.5827  0.6969  2.7212
  185MOL0     H24913   4.409   1.257   9.161 -0.2501 -0.2545 -1.1088
  185MOL0     H24914   4.520   1.375   9.350  0.3126 -0.0169  0.7205
  185MOL0     H24915   4.388   1.353   9.458  0.3338 -0.6156  0.1574
  185MOL0     H24916   4.408   1.112   9.460 -2.2975  1.6742 -2.1741
  185MOL0     H24917   4.546   1.128   9.354 -2.0281 -2.6651  0.4926
  185MOL0     H24918   4.557   1.271   9.628  1.5278 -0.0026 -0.1939
  185MOL0     H24919   4.606   1.109   9.603  0.3780  2.3545  4.1456
  185MOL0     H24920   4.765   1.164   9.433 -2.0104  0.4723 -0.1931
  185MOL0     H24921   4.735   1.344   9.446 -0.3182  0.9559  1.6381
  185MOL0     H24922   4.811   1.337   9.668 -7.9321 -0.7676 -2.6610
  185MOL0     H24923   4.853   1.170   9.669  3.1653 -0.1142  0.9540
  185MOL0     H24924   5.059   1.281   9.643  3.5541  0.0143 -2.4021
  185MOL0     H24925   4.995   1.392   9.521  3.3376  0.1804  0.8594
  185MOL0     H24926   4.929   1.268   9.277  1.5260 -1.4901 -2.9358
  185MOL0     H24927   5.008   1.149   9.073 -0.6900 -2.0109 -1.8770
  185MOL0     H24928   5.188   1.178   9.078 -1.1368 -0.2947 -2.3250
  185MOL0     H24929   5.240   0.959   9.117  0.6229  1.8342  0.3071
  185MOL0     H24930   5.143   0.959   8.970  1.1056 -2.7954  0.8100
  185MOL0     H24931   4.959   0.926   9.176 -0.2413  0.9699 -0.7960
  185MOL0     H24932   5.074   0.800   9.206 -1.4153 -1.9517  0.5894
  185MOL0     H24933   4.919   0.701   9.058 -1.4523 -0.0478 -0.8879
  185MOL0     H24934   5.063   0.706   8.967 -0.2431  2.3712 -2.8214
  185MOL0     H24935   4.748   0.817   9.091  4.0225  0.2407 -1.4336
  185MOL0     H24936   4.397   0.849   9.078 -0.5682 -0.2166  0.5079
  185MOL0     H24937   4.542   0.831   9.193 -0.7545  1.0558  0.2463
  185MOL0     H24938   4.453   0.979   9.176  0.3409  0.2798  0.2988
  185MOL0     H24939   4.447   1.425   8.829 -0.1541  1.8940  0.0295
  185MOL0     H24940   4.276   1.587   8.820  0.9186  0.3178  0.2486
  185MOL0     H24941   4.071   1.713   8.827  0.1694 -1.4880  0.4837
  185MOL0     H24942   4.117   1.693   8.655 -1.9857  2.8281 -0.9977
  185MOL0     H24943   3.921   1.856   8.677 -0.9343 -0.0392  1.3475
  185MOL0     H24944   3.860   1.703   8.608 -0.3129  1.1902  0.3175
  185MOL0     H24945   3.852   1.784   8.899  1.8540 -1.0458  0.9224
  185MOL0     H24946   3.774   1.633   8.840 -0.8963 -0.7609 -0.2965
  185MOL0     H24947   3.688   1.906   8.732  3.3891 -0.6997 -0.1704
  185MOL0     H24948   3.617   1.744   8.708 -0.7116  2.4264 -1.9574
  185MOL0     H24949   3.669   1.877   8.985  0.9889  0.2128  0.3169
  185MOL0     H24950   3.580   1.733   8.963 -1.7401  0.3391  0.0777
  185MOL0     H24951   3.513   2.013   8.835  0.7486  0.6624  1.8920
  185MOL0     H24952   3.412   1.859   8.832  0.8327 -3.3298  2.4258
  185MOL0     H24953   3.490   2.062   9.040  3.2667 -2.9721 -1.0100
  185MOL0     H24954   3.411   1.905   9.091 -1.2941  0.2951  0.3515
  185MOL0     H24955   3.296   2.086   8.865 -0.2241  0.7578  0.4543
  185MOL0     H24956   3.262   2.124   9.038 -1.2022 -0.9907  0.2164
  185MOL0     H24957   3.998   1.287   8.685  0.7932 -2.8554  1.4943
  185MOL0     H24958   4.164   1.122   8.706 -0.4160  0.1032  1.7963
  185MOL0     H24959   4.607   1.045   8.686 -0.3309 -0.1702  0.9803
  185MOL0     H24960   4.830   0.975   8.705 -1.5385 -0.4550 -1.3618
  185MOL0     H24961   4.025   1.495   9.151 -2.2572  1.1310 -0.3759
  185MOL0     H24962   3.898   1.696   9.111 -0.2362  2.8866 -0.8989
  185MOL0     H24963   3.783   2.069   9.124  3.2529  0.3412  1.8604
  185MOL0     H24964   3.668   2.299   9.120 -0.3227 -0.1474 -0.5686
  185MOL0     H24965   3.550   2.636   8.943 -1.0680 -0.1278  0.7258
  185MOL0     H24966   3.528   2.482   9.030 -1.7651  1.1327 -1.3827
  185MOL0     H24967   3.742   2.701   9.057  0.7310 -0.2646 -0.7347
  185MOL0     H24968   3.764   2.549   9.144 -0.9152 -0.1550  1.3277
  185MOL0     H24969   3.526   2.594   9.231 -1.2907  1.0460  2.6165
  185MOL0     H24970   3.550   2.758   9.169 -3.4465 -1.3215  1.2560
  185MOL0     H24971   3.583   2.791   9.401 -2.9895 -1.9049 -1.3109
  185MOL0     H24972   3.748   2.785   9.344  0.4216  2.2208  0.3254
  185MOL0     H24973   3.648   2.409   9.562 -0.2288 -0.6031 -0.9751
  185MOL0     H24974   3.889   2.419   8.782  0.5885 -1.4759 -0.4403
  185MOL0     H24975   4.016   2.219   8.783 -0.0036 -2.0612  0.9439
  186MOL0     O24976  11.142   4.151   2.123 -0.1281 -0.5313  0.0150
  186MOL0     C24977  11.025   4.123   2.112  0.5749 -0.0561  0.2463
  186MOL0     O24978  10.920   4.213   2.107 -0.4645  0.4298  0.2454
  186MOL0     C24979  10.957   4.346   2.139  1.1489  0.2645  0.9898
  186MOL0     C24980  11.025   4.379   2.261 -0.0975  0.0149  1.0366
  186MOL0     C24981  11.034   4.509   2.302 -0.5681  0.8602  0.3674
  186MOL0     C24982  10.981   4.611   2.219  0.0278  1.0104 -1.9103
  186MOL0     O24983  11.019   4.737   2.245 -0.3162 -0.1980 -0.1989
  186MOL0     C24984  11.161   4.775   2.220 -0.4131 -0.9189  0.6396
  186MOL0     C24985  11.171   4.895   2.121 -0.7395 -0.0396 -0.2032
  186MOL0     C24986  11.100   4.882   1.983  0.5724  0.7036  0.9640
  186MOL0     C24987  11.089   5.017   1.918  0.2068  0.6937  1.3464
  186MOL0     C24988  10.999   5.024   1.791 -0.8014 -0.2662  0.5233
  186MOL0     C24989  10.998   5.161   1.727 -0.3135 -0.0269 -0.3263
  186MOL0     C24990  10.982   5.271   1.825 -0.5994  0.1002 -0.8621
  186MOL0     C24991  10.940   5.397   1.749  0.2888 -0.4317  1.7635
  186MOL0     N24992  11.051   5.451   1.661 -0.1604  0.3919 -0.3485
  186MOL0     C24993  11.142   5.544   1.708 -0.0217 -0.2119 -0.0969
  186MOL0     C24994  11.198   5.588   1.596 -0.2086 -0.4233 -0.1565
  186MOL0     C24995  11.297   5.693   1.597  0.6653  0.3133  0.8528
  186MOL0     C24996  11.433   5.633   1.643  0.0586  0.1961 -0.1766
  186MOL0     C24997  11.529   5.751   1.682  0.0485 -0.6888 -0.6221
  186MOL0     C24998  11.564   5.836   1.560 -0.0315  0.7812 -0.2458
  186MOL0     O24999  11.579   5.969   1.589  0.8390 -0.6870 -0.4140
  186MOL0     C25000  11.573   6.052   1.481 -0.2591 -0.7820 -0.5406
  186MOL0     C25001  11.634   6.025   1.361 -0.4278 -0.1446 -0.1410
  186MOL0     C25002  11.620   6.099   1.251 -0.2785 -0.2266  0.4638
  186MOL0     C25003  11.670   6.037   1.121  0.5472  0.4248  0.1840
  186MOL0     C25004  11.544   6.220   1.257 -0.0505  0.4500 -0.0741
  186MOL0     C25005  11.526   6.321   1.151 -0.7723 -1.2922  0.4739
  186MOL0     O25006  11.646   6.389   1.109  0.6977  0.7830  0.5943
  186MOL0     C25007  11.646   6.457   0.990 -0.4380 -1.2005  0.3552
  186MOL0     C25008  11.730   6.576   0.972  0.6818 -0.2861 -0.3070
  186MOL0     C25009  11.714   6.657   0.855 -0.4021 -0.0274  0.0157
  186MOL0     C25010  11.612   6.634   0.760 -0.6532  0.1767  0.5662
  186MOL0     O25011  11.580   6.694   0.642 -0.1107 -0.0569 -0.3985
  186MOL0     C25012  11.648   6.814   0.603  0.1408  0.2347 -0.4590
  186MOL0     C25013  11.566   6.889   0.499 -0.1020  0.0832  0.3099
  186MOL0     C25014  11.642   7.009   0.449 -0.6790 -0.6557 -0.2492
  186MOL0     C25015  11.608   7.051   0.312  0.3151  0.6579 -0.0125
  186MOL0     C25016  11.683   7.177   0.253 -1.0145 -0.2581  0.0023
  186MOL0     C25017  11.635   7.219   0.112 -0.2882  0.1220  0.5759
  186MOL0     C25018  11.713   7.345   0.066  0.6149 -0.3405  0.0496
  186MOL0     C25019  11.671   7.392  -0.070 -0.4130  0.2725  0.6837
  186MOL0    Cl25020  11.502   7.413  -0.103  0.6359 -0.2768 -0.1803
  186MOL0     C25021  11.542   6.512   0.769 -0.6384  0.0728 -0.1352
  186MOL0     C25022  11.549   6.435   0.888 -1.0006 -1.2819 -0.0665
  186MOL0     O25023  11.413   6.342   1.110  0.2995 -0.4215  0.8846
  186MOL0     C25024  11.485   6.251   1.371 -0.1095 -0.0965 -1.1178
  186MOL0     C25025  11.491   6.163   1.477  0.8260 -0.2071  0.2629
  186MOL0     N25026  11.158   5.506   1.485 -0.6152 -0.6611  0.1201
  186MOL0     N25027  11.072   5.419   1.529  0.1250 -1.2008 -0.5742
  186MOL0     C25028  10.906   4.578   2.104 -0.3879 -0.5231 -0.7902
  186MOL0     C25029  10.892   4.440   2.067 -0.3379 -0.0224  0.1355
  186MOL0     C25030  10.980   3.990   2.101  0.0245  0.0801 -0.4911
  186MOL0     C25031  10.859   3.954   2.035  0.6441 -1.0778  0.3942
  186MOL0     C25032  10.815   3.818   2.033 -0.0053 -0.4630  0.2709
  186MOL0     C25033  10.895   3.715   2.080 -0.4979  0.8145  0.2523
  186MOL0     O25034  10.853   3.587   2.078 -0.5991 -0.4817  0.6965
  186MOL0     C25035  10.750   3.549   1.988 -0.1080 -0.5098 -0.6708
  186MOL0     C25036  10.616   3.532   2.066  0.1193 -0.0693 -0.9806
  186MOL0     C25037  10.621   3.441   2.195 -0.1507 -0.2492  0.0451
  186MOL0     C25038  10.644   3.282   2.172  0.6369 -0.2478 -0.0549
  186MOL0     C25039  10.528   3.197   2.190 -0.1441 -0.2669 -1.0815
  186MOL0     C25040  10.436   3.128   2.210 -0.1095 -0.5876  0.3914
  186MOL0     C25041  11.018   3.747   2.139 -0.4713 -0.6379  0.7078
  186MOL0     C25042  11.061   3.887   2.147 -0.9938 -0.1078  0.5418
  186MOL0     H25043  11.060   4.301   2.327  0.9996 -0.3659  0.0368
  186MOL0     H25044  11.084   4.541   2.393 -1.4219  3.7932 -0.1002
  186MOL0     H25045  11.206   4.790   2.318 -1.8145  1.3705  1.0230
  186MOL0     H25046  11.218   4.694   2.174 -1.4664  0.5221 -3.7592
  186MOL0     H25047  11.126   4.977   2.179  0.0671 -1.3904  2.4919
  186MOL0     H25048  11.277   4.909   2.099 -0.9358 -1.3414 -2.2210
  186MOL0     H25049  11.160   4.807   1.931  1.0245  1.7287 -0.0388
  186MOL0     H25050  10.998   4.844   1.995  0.6294  0.4147  0.5377
  186MOL0     H25051  11.050   5.082   1.997  0.0966 -0.5865  2.3759
  186MOL0     H25052  11.183   5.064   1.884  0.6215 -2.4203 -2.5910
  186MOL0     H25053  11.033   4.959   1.710  1.9570  1.0963  0.4811
  186MOL0     H25054  10.898   5.000   1.825 -1.7686 -2.0906 -3.2069
  186MOL0     H25055  11.092   5.174   1.673  0.2479 -0.3284  0.5618
  186MOL0     H25056  10.920   5.169   1.651  0.5783  0.4989 -1.2101
  186MOL0     H25057  10.896   5.251   1.889  1.0492 -2.3030  0.7889
  186MOL0     H25058  11.079   5.288   1.874  1.0047  3.6870 -4.7502
  186MOL0     H25059  10.899   5.482   1.805 -1.9071 -0.8217  0.8635
  186MOL0     H25060  10.853   5.377   1.686  1.0643  1.1159  0.0863
  186MOL0     H25061  11.141   5.578   1.811 -1.1003  0.9801 -0.4727
  186MOL0     H25062  11.302   5.733   1.495  0.7148  2.3102  1.5954
  186MOL0     H25063  11.259   5.770   1.664 -1.1846 -1.0313  1.4217
  186MOL0     H25064  11.476   5.579   1.558 -2.8993  3.5112 -4.1801
  186MOL0     H25065  11.422   5.562   1.726 -1.0496  0.6195  0.0505
  186MOL0     H25066  11.621   5.702   1.716 -0.7285 -1.0858  0.9947
  186MOL0     H25067  11.497   5.802   1.773 -2.9321  0.2804 -2.0665
  186MOL0     H25068  11.490   5.825   1.480 -2.1427  3.7849  1.1077
  186MOL0     H25069  11.656   5.795   1.518 -0.6755 -0.0323 -0.9133
  186MOL0     H25070  11.702   5.941   1.374  0.5364  0.7621  0.8603
  186MOL0     H25071  11.721   6.113   1.062 -0.8581  1.7234  0.5930
  186MOL0     H25072  11.741   5.954   1.127  1.3792  0.9295 -1.9852
  186MOL0     H25073  11.583   6.004   1.063 -1.0319  0.4303  2.4032
  186MOL0     H25074  11.800   6.584   1.055  0.0629 -0.4047  0.2347
  186MOL0     H25075  11.787   6.732   0.830 -0.4096  0.2018  0.6759
  186MOL0     H25076  11.660   6.881   0.689 -1.2066  0.6925 -0.6021
  186MOL0     H25077  11.744   6.796   0.555 -0.2472  0.8156 -1.4820
  186MOL0     H25078  11.546   6.818   0.417  2.7377 -0.4444 -0.0298
  186MOL0     H25079  11.478   6.929   0.549  2.5359  1.9550  3.9049
  186MOL0     H25080  11.750   6.988   0.451 -0.9087 -1.8428  1.7890
  186MOL0     H25081  11.616   7.091   0.516  1.2678 -2.4043  2.9295
  186MOL0     H25082  11.623   6.966   0.245 -1.9135  1.1307 -1.1884
  186MOL0     H25083  11.500   7.067   0.304  0.1210 -1.2325 -2.2684
  186MOL0     H25084  11.791   7.158   0.241 -1.0242 -0.2931 -0.0301
  186MOL0     H25085  11.684   7.262   0.322  2.3450 -0.5689  0.5282
  186MOL0     H25086  11.666   7.146   0.035  2.5613  2.4784 -0.7069
  186MOL0     H25087  11.525   7.220   0.114 -0.3661  2.0310 -1.3752
  186MOL0     H25088  11.820   7.325   0.069  0.6895  0.1726  2.2041
  186MOL0     H25089  11.692   7.426   0.135 -1.2536 -0.9572  0.2626
  186MOL0     H25090  11.713   7.325  -0.145 -2.9124  1.3273 -1.8161
  186MOL0     H25091  11.718   7.489  -0.089  0.2401 -0.0433  0.6660
  186MOL0     H25092  11.474   6.485   0.689  2.1519  1.0178 -3.0250
  186MOL0     H25093  11.472   6.359   0.899 -1.1578 -0.9140  1.6539
  186MOL0     H25094  11.435   6.347   1.380  1.9035  0.8193  1.6253
  186MOL0     H25095  11.446   6.192   1.572 -0.6244 -3.6833  0.8041
  186MOL0     H25096  10.848   4.655   2.054 -0.8683  0.1649  0.7573
  186MOL0     H25097  10.825   4.419   1.985 -2.0391 -0.1364  1.4872
  186MOL0     H25098  10.796   4.026   1.985  3.0282  0.1603 -1.0223
  186MOL0     H25099  10.716   3.789   2.000 -0.3270  0.0464  0.7711
  186MOL0     H25100  10.735   3.625   1.911 -0.7456 -3.6256 -3.9259
  186MOL0     H25101  10.782   3.458   1.935  3.9381  0.7984 -0.7519
  186MOL0     H25102  10.541   3.481   2.005 -2.9270  3.1657 -0.2889
  186MOL0     H25103  10.571   3.627   2.097 -1.6518 -0.5791 -1.8730
  186MOL0     H25104  10.526   3.450   2.249 -0.1290 -2.9746  0.7077
  186MOL0     H25105  10.692   3.494   2.258 -0.2317  0.2142 -0.2454
  186MOL0     H25106  10.728   3.245   2.231  1.8444 -0.4610 -1.8272
  186MOL0     H25107  10.668   3.264   2.067 -1.5475  1.2935 -0.9121
  186MOL0     H25108  10.351   3.064   2.217  0.1759 -1.2529 -1.6458
  186MOL0     H25109  11.079   3.662   2.169  0.4525  0.3480  1.6841
  186MOL0     H25110  11.158   3.909   2.190 -0.4663  1.0778 -1.1547
  187MOL0     O25111   0.265   6.754  10.186  0.6794  0.2688  0.0626
  187MOL0     C25112   0.150   6.728  10.233 -0.7992  0.2922  0.1938
  187MOL0     O25113   0.083   6.604  10.215 -0.2294  0.3909 -0.0975
  187MOL0     C25114   0.114   6.525  10.108 -0.7151  0.3805 -0.0925
  187MOL0     C25115   0.191   6.408  10.126  0.3110  0.3134  0.5540
  187MOL0     C25116   0.238   6.331  10.016  0.3487 -0.5636  0.1382
  187MOL0     C25117   0.225   6.375   9.887 -0.5669  0.2757  0.2936
  187MOL0     O25118   0.272   6.297   9.782 -0.2202  0.1573  0.8144
  187MOL0     C25119   0.283   6.350   9.648  0.1332  0.6009  1.0540
  187MOL0     C25120   0.368   6.252   9.565  1.0543 -0.4230 -0.3218
  187MOL0     C25121   0.501   6.231   9.635  0.0156  0.3097 -0.1046
  187MOL0     C25122   0.616   6.163   9.551  0.1879 -0.3140 -0.3522
  187MOL0     C25123   0.570   6.034   9.472  0.3067 -0.3115 -0.1582
  187MOL0     C25124   0.538   5.932   9.578  1.2138 -0.6271 -0.2141
  187MOL0     C25125   0.463   5.808   9.523 -0.1613 -0.8331 -0.8040
  187MOL0     C25126   0.456   5.705   9.631 -0.1316  0.8344 -0.9699
  187MOL0     N25127   0.373   5.590   9.589 -0.0644  0.4290 -0.3201
  187MOL0     C25128   0.251   5.552   9.633  0.3586 -0.2582 -0.0267
  187MOL0     C25129   0.178   5.506   9.534 -0.2242  1.0692 -0.0072
  187MOL0     C25130   0.041   5.451   9.548  0.0695  0.3976 -0.0466
  187MOL0     C25131  -0.038   5.517   9.430 -0.0694  0.0990 -0.5507
  187MOL0     C25132  -0.082   5.657   9.471  0.2421  0.6111 -0.7596
  187MOL0     C25133   0.015   5.761   9.407 -0.0872 -0.2627 -0.2159
  187MOL0     O25134  -0.059   5.876   9.372 -0.0099 -0.1199  0.1189
  187MOL0     C25135  -0.077   5.987   9.457 -0.2927  0.1859 -0.1204
  187MOL0     C25136  -0.053   5.990   9.593 -0.7254  0.9571 -0.3497
  187MOL0     C25137  -0.072   6.102   9.669  0.4925 -0.4323 -0.9087
  187MOL0     C25138  -0.027   6.098   9.816 -0.1759 -0.4759  0.3794
  187MOL0     C25139  -0.114   6.226   9.615 -0.3586  0.1091  1.1748
  187MOL0     C25140  -0.153   6.354   9.678 -0.8990 -0.3138  0.4719
  187MOL0     O25141  -0.249   6.340   9.781  0.8119 -0.2760  0.2328
  187MOL0     C25142  -0.280   6.454   9.848 -0.5197  0.2598  0.1544
  187MOL0     C25143  -0.219   6.467   9.974 -0.6473  0.3919 -0.1806
  187MOL0     C25144  -0.245   6.580  10.061  0.2242  0.4914  0.4394
  187MOL0     C25145  -0.341   6.675  10.026 -0.5572 -0.2376  0.0882
  187MOL0     O25146  -0.358   6.773  10.116  0.1992 -0.5794 -0.2176
  187MOL0     C25147  -0.422   6.895  10.078  0.4746  0.6724  0.3137
  187MOL0     C25148  -0.425   6.997  10.187 -0.4490  0.5102  0.0685
  187MOL0     C25149  -0.539   7.094  10.164 -0.3417  1.0229 -0.4798
  187MOL0     C25150  -0.676   7.063  10.230 -0.6902  1.0243 -1.0545
  187MOL0     C25151  -0.778   7.186  10.224  0.2431  0.6125 -0.0142
  187MOL0     C25152  -0.914   7.126  10.173  0.4883  0.0406  0.4418
  187MOL0     C25153  -0.994   7.038  10.267 -0.8208  0.0068 -0.0023
  187MOL0     C25154  -1.126   6.992  10.210 -0.5563  1.3056 -0.0159
  187MOL0    Cl25155  -1.247   7.117  10.180  0.4199 -0.1656 -0.5004
  187MOL0     C25156  -0.411   6.660   9.904 -0.7007  0.2213 -0.5821
  187MOL0     C25157  -0.370   6.560   9.820  0.0959  0.2328  0.4294
  187MOL0     O25158  -0.099   6.460   9.648  0.2675 -0.2208  0.3047
  187MOL0     C25159  -0.143   6.223   9.474  0.2253  0.3587 -0.9401
  187MOL0     C25160  -0.119   6.107   9.403  0.1680  0.0490 -0.0180
  187MOL0     N25161   0.265   5.495   9.422  0.6890 -0.0766  0.2872
  187MOL0     N25162   0.380   5.545   9.464  0.9601  0.0901  0.6460
  187MOL0     C25163   0.164   6.509   9.869 -0.1315  0.1936 -0.4428
  187MOL0     C25164   0.112   6.576   9.978  0.0272  0.4365 -0.6392
  187MOL0     C25165   0.084   6.830  10.316 -0.6230  0.0945  0.0260
  187MOL0     C25166   0.158   6.915  10.399 -0.1556  0.0784 -0.3479
  187MOL0     C25167   0.085   6.991  10.497 -0.9620 -0.9015  0.7709
  187MOL0     C25168  -0.056   6.989  10.508 -0.6357 -0.5379  0.0977
  187MOL0     O25169  -0.113   7.085  10.586 -0.5242 -0.6048 -0.0529
  187MOL0     C25170  -0.249   7.132  10.559 -0.8918 -1.3821 -0.0181
  187MOL0     C25171  -0.302   7.202  10.683 -0.3368 -0.3528 -0.9434
  187MOL0     C25172  -0.209   7.318  10.737  0.5215 -0.0862 -0.4632
  187MOL0     C25173  -0.244   7.349  10.887 -1.1722  0.6126  0.5374
  187MOL0     C25174  -0.356   7.433  10.899 -0.6933 -0.0989 -0.1559
  187MOL0     C25175  -0.448   7.511  10.900 -1.0541 -0.1138  0.9851
  187MOL0     C25176  -0.122   6.904  10.419 -0.1692  1.3166 -0.1167
  187MOL0     C25177  -0.055   6.828  10.332  0.3854 -0.0064 -0.0799
  187MOL0     H25178   0.211   6.372  10.227 -1.0896  1.2541  1.1981
  187MOL0     H25179   0.281   6.231  10.021 -1.5989 -1.5608 -1.7612
  187MOL0     H25180   0.180   6.363   9.614 -0.2951 -0.2281  1.9820
  187MOL0     H25181   0.336   6.446   9.645  1.8179 -0.2987 -1.4765
  187MOL0     H25182   0.298   6.167   9.566 -1.0908  1.2156 -1.5896
  187MOL0     H25183   0.380   6.291   9.464 -0.9651  0.5798 -0.2227
  187MOL0     H25184   0.548   6.325   9.665 -0.2097  1.1065 -2.0853
  187MOL0     H25185   0.485   6.175   9.727  0.8504  0.1517 -0.0424
  187MOL0     H25186   0.665   6.230   9.480  0.1806  0.3767  0.2805
  187MOL0     H25187   0.698   6.146   9.621  1.8448  0.0825 -2.1111
  187MOL0     H25188   0.481   6.065   9.416  0.6590  1.7194  0.3348
  187MOL0     H25189   0.648   5.977   9.421 -0.2185 -2.2469  1.0949
  187MOL0     H25190   0.632   5.896   9.619  1.9231 -0.2535 -1.4580
  187MOL0     H25191   0.490   5.978   9.665  1.2355  0.9688 -1.0103
  187MOL0     H25192   0.368   5.837   9.478  0.1575  2.4778  0.3684
  187MOL0     H25193   0.525   5.763   9.444  1.6815 -1.1069  0.7358
  187MOL0     H25194   0.428   5.756   9.724 -3.0221  3.0542 -2.8563
  187MOL0     H25195   0.551   5.653   9.647 -1.1173 -1.0958 -1.0711
  187MOL0     H25196   0.217   5.567   9.735 -1.2673  1.1341 -0.7346
  187MOL0     H25197   0.065   5.346   9.528  2.2244  0.8535 -0.0675
  187MOL0     H25198  -0.018   5.468   9.638 -1.2096 -2.1394 -0.3165
  187MOL0     H25199  -0.134   5.464   9.425  0.7649 -1.5205 -0.2482
  187MOL0     H25200   0.022   5.507   9.339  1.1560  1.4918  0.0776
  187MOL0     H25201  -0.088   5.666   9.580  1.7784  1.9598 -0.7598
  187MOL0     H25202  -0.185   5.663   9.432  0.1777 -2.1161 -1.1660
  187MOL0     H25203   0.061   5.725   9.314  5.8979 -1.1010  2.5951
  187MOL0     H25204   0.095   5.797   9.472 -1.5917  3.7542 -0.3269
  187MOL0     H25205  -0.016   5.902   9.644 -0.0559  0.7641 -1.1605
  187MOL0     H25206  -0.071   6.023   9.883 -1.1646 -1.7693 -1.6194
  187MOL0     H25207   0.082   6.088   9.813 -0.2871 -1.7109 -2.1812
  187MOL0     H25208  -0.052   6.193   9.864 -2.3918 -0.6014 -0.3949
  187MOL0     H25209  -0.147   6.391  10.003 -1.7272  0.6459  3.6520
  187MOL0     H25210  -0.182   6.586  10.149  0.2534  2.6134  0.3328
  187MOL0     H25211  -0.373   6.945   9.994  0.8547  1.4016  0.9502
  187MOL0     H25212  -0.526   6.872  10.055  1.0132 -1.8302  0.0663
  187MOL0     H25213  -0.427   6.952  10.287  1.1643 -2.1412 -0.9731
  187MOL0     H25214  -0.329   7.048  10.175 -0.6069  0.9962  0.7554
  187MOL0     H25215  -0.533   7.122  10.059 -0.2325  0.1400 -0.7195
  187MOL0     H25216  -0.496   7.182  10.213  1.3169  0.0187 -0.0360
  187MOL0     H25217  -0.714   6.970  10.187 -0.4647  0.1358  0.5580
  187MOL0     H25218  -0.667   7.025  10.332  0.1234 -2.7872 -2.3836
  187MOL0     H25219  -0.751   7.269  10.158 -0.9840  2.3576  1.5473
  187MOL0     H25220  -0.791   7.219  10.328 -1.4311 -1.0354  0.3520
  187MOL0     H25221  -0.977   7.211  10.144  0.8336 -0.2354 -1.2034
  187MOL0     H25222  -0.891   7.084  10.075  4.3065  2.6043 -0.0141
  187MOL0     H25223  -1.006   7.094  10.361  2.0302  1.9964 -0.6970
  187MOL0     H25224  -0.934   6.947  10.279  1.2351  0.9903 -2.1021
  187MOL0     H25225  -1.177   6.913  10.267 -0.8734 -0.6401 -2.7940
  187MOL0     H25226  -1.088   6.943  10.120  0.5997 -1.7977  1.9482
  187MOL0     H25227  -0.486   6.734   9.876 -0.1266  2.1163  2.3741
  187MOL0     H25228  -0.418   6.562   9.723  1.1168  0.0134 -0.0914
  187MOL0     H25229  -0.196   6.305   9.427 -1.8572  0.5863  1.5914
  187MOL0     H25230  -0.134   6.105   9.295 -1.6114  0.0544  0.1921
  187MOL0     H25231   0.167   6.557   9.771  1.1044 -1.1470 -1.0998
  187MOL0     H25232   0.067   6.675   9.967  0.0266  0.3189 -1.8189
  187MOL0     H25233   0.267   6.913  10.391  0.1262 -1.5712  2.4251
  187MOL0     H25234   0.154   7.051  10.557  0.6308 -1.2894 -0.5939
  187MOL0     H25235  -0.237   7.207  10.481 -1.4064 -1.3649 -0.0868
  187MOL0     H25236  -0.317   7.048  10.540  1.0814 -3.5023  1.6832
  187MOL0     H25237  -0.302   7.140  10.772  0.3999 -0.2413 -0.8609
  187MOL0     H25238  -0.403   7.240  10.666 -1.0301 -0.2408  2.6438
  187MOL0     H25239  -0.231   7.401  10.670 -0.9818 -0.3002 -0.2780
  187MOL0     H25240  -0.103   7.291  10.728  0.9459  1.6400 -1.0890
  187MOL0     H25241  -0.158   7.392  10.939  0.2202 -1.2461 -0.1329
  187MOL0     H25242  -0.265   7.249  10.926 -1.2253 -0.2166 -1.4682
  187MOL0     H25243  -0.523   7.586  10.907 -0.0491  1.0827 -0.5360
  187MOL0     H25244  -0.226   6.884  10.441 -0.0118  0.1498 -0.3909
  187MOL0     H25245  -0.110   6.761  10.266  0.6311 -1.5727  1.2540
  188MOL0     O25246   8.175   9.153   3.057 -0.6535 -0.2695 -0.0498
  188MOL0     C25247   8.147   9.261   3.112  0.1986  1.4044 -0.2867
  188MOL0     O25248   8.039   9.335   3.089 -0.0424  0.2535  0.4593
  188MOL0     C25249   7.975   9.329   2.968  0.6021  0.0864  0.1735
  188MOL0     C25250   7.849   9.394   2.960  0.2278 -0.2545 -0.1384
  188MOL0     C25251   7.783   9.393   2.840 -0.0286 -0.2988  0.1739
  188MOL0     C25252   7.838   9.327   2.726 -0.5798  0.1401 -0.4722
  188MOL0     O25253   7.780   9.324   2.603 -0.2974  0.5976 -0.1206
  188MOL0     C25254   7.738   9.447   2.535 -0.2712 -0.4544 -0.4873
  188MOL0     C25255   7.698   9.428   2.389  0.2838  0.8242 -0.4592
  188MOL0     C25256   7.597   9.534   2.328 -0.1484 -0.3448 -0.1171
  188MOL0     C25257   7.567   9.505   2.179  0.4932 -0.6193 -0.0091
  188MOL0     C25258   7.422   9.543   2.136 -0.3129 -0.3905  0.1701
  188MOL0     C25259   7.399   9.501   1.994  0.2950  0.9507  0.0001
  188MOL0     C25260   7.247   9.511   1.973 -0.4214 -0.1461  0.3537
  188MOL0     C25261   7.164   9.401   2.053  0.5949  0.8083  0.2327
  188MOL0     N25262   7.184   9.265   1.991  0.3840  0.1324 -0.0273
  188MOL0     C25263   7.165   9.238   1.856 -0.8465  0.3128 -0.5654
  188MOL0     C25264   7.200   9.107   1.845 -0.1257 -0.4440  0.0826
  188MOL0     C25265   7.200   9.015   1.727  0.0519 -1.0527 -0.8640
  188MOL0     C25266   7.197   8.865   1.767  0.1638  0.3174 -0.0448
  188MOL0     C25267   7.177   8.785   1.636 -0.8102 -0.4916 -0.0114
  188MOL0     C25268   7.162   8.640   1.657 -0.2244  0.0556 -0.2650
  188MOL0     O25269   7.277   8.578   1.730  0.3149 -0.1966  0.2166
  188MOL0     C25270   7.394   8.552   1.667  0.3553  0.3226  0.3646
  188MOL0     C25271   7.429   8.591   1.530  0.3562 -0.1105  1.0007
  188MOL0     C25272   7.556   8.564   1.470 -0.1797 -0.7850  0.1744
  188MOL0     C25273   7.570   8.599   1.325  1.0004 -0.0222  0.3423
  188MOL0     C25274   7.661   8.502   1.549  0.1678 -0.3100  0.9680
  188MOL0     C25275   7.785   8.445   1.501 -0.5983  0.0878 -0.0823
  188MOL0     O25276   7.846   8.364   1.605  0.3707 -0.2766  0.0619
  188MOL0     C25277   7.960   8.295   1.581  0.2298 -0.7407 -0.2513
  188MOL0     C25278   7.947   8.162   1.606  0.4456  0.4135  0.8512
  188MOL0     C25279   8.055   8.078   1.599 -0.2613  0.1673 -0.1465
  188MOL0     C25280   8.182   8.124   1.570  0.2550 -0.3293 -0.1468
  188MOL0     O25281   8.286   8.044   1.559  0.5694  0.1078 -0.7949
  188MOL0     C25282   8.286   7.916   1.609  0.8318  0.0749 -0.3121
  188MOL0     C25283   8.434   7.859   1.604  0.2242  0.2177 -0.0760
  188MOL0     C25284   8.538   7.949   1.668 -0.3485  0.1878  0.4162
  188MOL0     C25285   8.675   7.878   1.670 -0.6474  0.8595 -0.2540
  188MOL0     C25286   8.786   7.962   1.714  0.6414  0.0799  0.0104
  188MOL0     C25287   8.917   7.887   1.701  0.5560 -0.4453  0.7545
  188MOL0     C25288   9.047   7.972   1.725  0.8416  0.3728  0.1945
  188MOL0     C25289   9.046   8.065   1.840  0.2588  0.1321  0.1698
  188MOL0    Cl25290   8.958   8.213   1.811  0.3067  0.0410 -0.6222
  188MOL0     C25291   8.202   8.261   1.541  0.5976  0.5572  0.0685
  188MOL0     C25292   8.086   8.354   1.540 -0.1658  1.4795  0.1751
  188MOL0     O25293   7.830   8.456   1.383 -0.2855  0.4682 -0.5482
  188MOL0     C25294   7.633   8.476   1.677  0.5114 -0.2312 -0.0687
  188MOL0     C25295   7.508   8.497   1.744  0.8857 -0.6356  0.2205
  188MOL0     N25296   7.249   9.057   1.965 -0.0805 -1.3476  0.0641
  188MOL0     N25297   7.233   9.148   2.049  0.6074 -1.1229  0.8007
  188MOL0     C25298   7.958   9.261   2.734 -0.1500 -0.5946 -0.6345
  188MOL0     C25299   8.034   9.276   2.852  0.3421  0.1251  0.7375
  188MOL0     C25300   8.233   9.302   3.226  0.2703  0.3870 -1.1949
  188MOL0     C25301   8.352   9.230   3.255 -0.1512 -0.6341  0.0422
  188MOL0     C25302   8.433   9.261   3.360 -0.2669  0.0322 -0.1023
  188MOL0     C25303   8.399   9.367   3.444  0.1911  0.4669 -0.6602
  188MOL0     O25304   8.471   9.420   3.551  0.1608  0.3972 -0.1647
  188MOL0     C25305   8.568   9.339   3.606 -0.9656  0.1450  0.1296
  188MOL0     C25306   8.598   9.371   3.754  0.4753 -0.6422  0.8635
  188MOL0     C25307   8.635   9.515   3.777  0.1101 -0.4174 -0.0245
  188MOL0     C25308   8.526   9.574   3.872  0.5971  0.4505 -0.3957
  188MOL0     C25309   8.547   9.710   3.894  0.3503  0.1225  0.1394
  188MOL0     C25310   8.592   9.822   3.909  0.2068  0.8211 -0.5501
  188MOL0     C25311   8.283   9.440   3.413 -0.0244  0.3502 -0.9033
  188MOL0     C25312   8.191   9.403   3.309 -0.3892 -0.0788  0.0725
  188MOL0     H25313   7.798   9.442   3.043 -0.7158 -2.6752  0.7724
  188MOL0     H25314   7.690   9.445   2.823 -1.4380 -2.4042  0.9364
  188MOL0     H25315   7.657   9.495   2.590 -0.1015 -1.9775  1.1845
  188MOL0     H25316   7.812   9.528   2.542 -1.1673  0.3572 -0.2242
  188MOL0     H25317   7.792   9.435   2.334  1.6269 -0.2897  1.5493
  188MOL0     H25318   7.659   9.325   2.390 -0.5364  1.0566  2.6080
  188MOL0     H25319   7.500   9.536   2.379  1.7163  1.2664  3.7435
  188MOL0     H25320   7.639   9.633   2.350  0.9393 -1.5355  3.9289
  188MOL0     H25321   7.640   9.562   2.120  0.5155  2.6981  2.8891
  188MOL0     H25322   7.580   9.398   2.162 -1.2473 -0.7343 -0.7584
  188MOL0     H25323   7.359   9.486   2.205  0.7607 -0.0534  1.4816
  188MOL0     H25324   7.403   9.651   2.139 -1.2089 -0.5108 -0.7083
  188MOL0     H25325   7.459   9.558   1.922  1.5365 -0.5979 -0.2285
  188MOL0     H25326   7.417   9.396   1.972  0.5141  1.2208 -1.1819
  188MOL0     H25327   7.216   9.603   2.022 -0.8379 -0.7740  1.2951
  188MOL0     H25328   7.218   9.510   1.867 -1.5430  0.6330  0.6339
  188MOL0     H25329   7.054   9.407   2.056  0.2041 -3.6142  2.2352
  188MOL0     H25330   7.192   9.399   2.159  2.3803  0.1701 -0.2224
  188MOL0     H25331   7.119   9.298   1.778 -1.9002 -1.4688 -1.3789
  188MOL0     H25332   7.115   9.035   1.662 -1.0543  1.3146  1.1393
  188MOL0     H25333   7.292   9.036   1.672  0.2409 -1.9298 -0.8912
  188MOL0     H25334   7.115   8.836   1.833  0.1019  0.5928  0.0032
  188MOL0     H25335   7.291   8.833   1.811  0.4688 -0.0220 -0.9126
  188MOL0     H25336   7.266   8.805   1.577 -0.2579 -0.9750  0.6398
  188MOL0     H25337   7.084   8.815   1.585 -0.5879  4.9495  2.0730
  188MOL0     H25338   7.141   8.584   1.566  1.8489  0.2005 -0.8785
  188MOL0     H25339   7.078   8.630   1.727  0.3497  1.9174  0.7603
  188MOL0     H25340   7.351   8.639   1.470  0.6049  1.4307  1.8388
  188MOL0     H25341   7.504   8.680   1.290 -0.7504 -0.8911  1.4639
  188MOL0     H25342   7.671   8.628   1.297  0.4940 -0.9478 -2.7311
  188MOL0     H25343   7.543   8.509   1.270 -0.0139  0.3685  0.1696
  188MOL0     H25344   7.858   8.113   1.643  0.6359 -1.5185 -0.9826
  188MOL0     H25345   8.025   7.977   1.627  0.7743 -1.0606 -3.1260
  188MOL0     H25346   8.256   7.911   1.714 -1.3571  0.7203 -0.8519
  188MOL0     H25347   8.220   7.842   1.561  0.6697  0.4993 -0.7462
  188MOL0     H25348   8.421   7.760   1.648  0.9169  1.2481  2.6696
  188MOL0     H25349   8.459   7.864   1.498  2.5793 -0.2836  0.3981
  188MOL0     H25350   8.510   7.971   1.772 -2.0136  0.2936 -0.0210
  188MOL0     H25351   8.543   8.038   1.605 -1.0170 -1.0041 -1.4134
  188MOL0     H25352   8.678   7.793   1.739  0.2033  1.4556  0.4671
  188MOL0     H25353   8.704   7.833   1.574  1.8358 -0.1512  0.8750
  188MOL0     H25354   8.768   7.986   1.819 -0.9495 -0.3078 -0.1532
  188MOL0     H25355   8.795   8.053   1.653 -0.5144  0.4255  0.3455
  188MOL0     H25356   8.909   7.818   1.785  1.2430 -1.5134 -0.0305
  188MOL0     H25357   8.918   7.817   1.617  1.9501 -2.5100  2.3660
  188MOL0     H25358   9.077   8.023   1.634 -2.2879  0.6345 -0.8108
  188MOL0     H25359   9.127   7.900   1.746  2.1077  1.5977 -0.3429
  188MOL0     H25360   9.149   8.076   1.875 -0.0773  2.9688  0.4330
  188MOL0     H25361   8.998   8.026   1.930 -0.3325  0.8135  0.1534
  188MOL0     H25362   8.305   8.287   1.516  0.3557  2.9765  1.3066
  188MOL0     H25363   8.092   8.460   1.519  0.6284  1.4149  0.0441
  188MOL0     H25364   7.705   8.440   1.751 -2.1568  0.4520  3.1197
  188MOL0     H25365   7.508   8.469   1.849 -1.5507 -0.1687  0.4100
  188MOL0     H25366   7.997   9.196   2.657 -3.6742 -3.5747 -0.1559
  188MOL0     H25367   8.137   9.243   2.846 -0.1172 -1.3123  0.3955
  188MOL0     H25368   8.378   9.145   3.193  0.1942 -0.0476 -0.6357
  188MOL0     H25369   8.523   9.205   3.384  0.4766  0.5920 -1.4794
  188MOL0     H25370   8.540   9.234   3.602  1.7157 -0.5951 -1.5542
  188MOL0     H25371   8.662   9.353   3.552 -0.6490 -2.2228 -0.0379
  188MOL0     H25372   8.677   9.305   3.792  0.4584 -0.6984  0.8025
  188MOL0     H25373   8.509   9.339   3.810 -0.5509 -0.6994 -0.7350
  188MOL0     H25374   8.629   9.574   3.686  0.6328 -1.1532 -0.5459
  188MOL0     H25375   8.735   9.525   3.822 -0.7787  5.0262  1.3578
  188MOL0     H25376   8.527   9.531   3.973  0.8457  4.3491  1.4238
  188MOL0     H25377   8.427   9.552   3.830  1.2538  0.5623 -2.1020
  188MOL0     H25378   8.624   9.923   3.924  1.4363  0.0497  2.9678
  188MOL0     H25379   8.257   9.516   3.485 -0.1508  1.7804 -2.4123
  188MOL0     H25380   8.097   9.454   3.292 -0.7771 -0.9019 -0.3434
  189MOL0     O25381   4.954   6.805   5.737  0.2161  0.4567 -0.3299
  189MOL0     C25382   4.899   6.744   5.828  0.6805  0.6190  1.0324
  189MOL0     O25383   4.857   6.804   5.946  0.3808 -0.4608  0.1119
  189MOL0     C25384   4.870   6.941   5.965 -0.0477 -0.6847  0.3105
  189MOL0     C25385   4.807   7.048   5.896  0.6974  0.0766  1.6577
  189MOL0     C25386   4.835   7.182   5.923  0.7933  0.0419  0.5092
  189MOL0     C25387   4.932   7.220   6.022 -0.5791  0.1731  0.1159
  189MOL0     O25388   4.971   7.348   6.050  0.7488  1.1604  1.1611
  189MOL0     C25389   4.905   7.458   5.979  0.2306  0.7696 -0.1332
  189MOL0     C25390   4.956   7.466   5.837  0.2353 -0.3914  1.4287
  189MOL0     C25391   4.884   7.571   5.753  0.8142  0.3161 -0.1090
  189MOL0     C25392   4.733   7.535   5.728  0.4377 -0.8945 -1.0081
  189MOL0     C25393   4.660   7.643   5.647 -0.2260  0.1299 -0.7777
  189MOL0     C25394   4.723   7.774   5.641  0.1835 -1.0683 -0.9307
  189MOL0     C25395   4.653   7.879   5.548  1.1165 -0.1860  0.0262
  189MOL0     C25396   4.515   7.920   5.608 -0.2369 -0.0951 -0.4780
  189MOL0     N25397   4.436   8.006   5.516 -0.8484  0.9979  1.2056
  189MOL0     C25398   4.433   8.142   5.526 -0.5178  0.3201  0.0844
  189MOL0     C25399   4.346   8.178   5.431 -0.0743 -0.6997  0.2215
  189MOL0     C25400   4.311   8.323   5.407  0.3649  0.2918  0.7157
  189MOL0     C25401   4.217   8.366   5.522 -0.7544 -0.7160 -0.3168
  189MOL0     C25402   4.208   8.520   5.547 -1.1002  0.2117 -0.7639
  189MOL0     C25403   4.335   8.582   5.622  1.2959  0.6914 -0.7854
  189MOL0     O25404   4.332   8.531   5.766  0.1712 -0.1800  0.3492
  189MOL0     C25405   4.422   8.441   5.812 -0.5830  0.6840  0.1550
  189MOL0     C25406   4.535   8.388   5.740  0.0962 -0.5586 -0.4247
  189MOL0     C25407   4.628   8.314   5.805 -0.1595  0.4347 -0.1480
  189MOL0     C25408   4.746   8.274   5.729 -0.0110 -1.0460  0.0972
  189MOL0     C25409   4.611   8.282   5.941  0.9570 -0.0857  0.7185
  189MOL0     C25410   4.701   8.182   6.015 -0.0912 -0.5924  0.4384
  189MOL0     O25411   4.791   8.109   5.943 -0.7775  1.1903  0.5970
  189MOL0     C25412   4.857   8.001   6.010  0.1497 -0.0885  0.4289
  189MOL0     C25413   4.795   7.892   6.070  0.3626  0.7429 -0.4715
  189MOL0     C25414   4.864   7.796   6.138 -0.6264  0.5283 -0.7183
  189MOL0     C25415   4.998   7.810   6.156  0.1558  0.9187  0.0644
  189MOL0     O25416   5.059   7.712   6.226 -0.8852  0.4634  0.9287
  189MOL0     C25417   4.997   7.611   6.302  1.1527  0.2666  0.2196
  189MOL0     C25418   5.105   7.529   6.369 -0.4521  0.2020 -0.9299
  189MOL0     C25419   5.063   7.427   6.470 -0.2283 -0.4040  0.7572
  189MOL0     C25420   5.193   7.359   6.530  0.7370 -0.7545 -0.4955
  189MOL0     C25421   5.153   7.236   6.614 -0.0191 -0.1371  0.2343
  189MOL0     C25422   5.086   7.132   6.531 -0.0465 -0.6540 -0.6945
  189MOL0     C25423   5.075   7.002   6.631  0.3071 -0.3077  0.5258
  189MOL0     C25424   4.962   6.897   6.613  0.0679  0.2292  0.1252
  189MOL0    Cl25425   4.814   6.990   6.581  0.2114 -0.3722 -0.5069
  189MOL0     C25426   5.063   7.927   6.106  0.0282  0.7143 -0.3678
  189MOL0     C25427   4.990   8.024   6.033 -0.0662  0.8580  0.3319
  189MOL0     O25428   4.690   8.169   6.133 -0.3482  1.0905 -0.7490
  189MOL0     C25429   4.502   8.328   6.001 -0.0845 -0.1334  0.1271
  189MOL0     C25430   4.410   8.414   5.945  0.8152  0.1293  0.4556
  189MOL0     N25431   4.289   8.071   5.363 -0.5014  0.5750  0.0614
  189MOL0     N25432   4.346   7.966   5.419 -0.5309  0.0446  0.3196
  189MOL0     C25433   4.990   7.110   6.088  0.0960  0.6456 -0.7343
  189MOL0     C25434   4.957   6.980   6.057  0.1387 -1.0180 -0.0552
  189MOL0     C25435   4.873   6.600   5.819 -0.4291 -0.2571 -0.3868
  189MOL0     C25436   4.921   6.526   5.713  0.4193 -0.2317  0.4863
  189MOL0     C25437   4.899   6.392   5.685 -0.5978 -0.8618 -0.0263
  189MOL0     C25438   4.821   6.321   5.780  0.7162 -0.0842 -0.0204
  189MOL0     O25439   4.775   6.184   5.781 -1.3660  0.1900 -0.8001
  189MOL0     C25440   4.850   6.098   5.689  0.6873 -0.1001 -0.4563
  189MOL0     C25441   4.790   5.955   5.693 -0.2709  0.2005 -0.2128
  189MOL0     C25442   4.812   5.876   5.819  0.5021  0.0594  0.2213
  189MOL0     C25443   4.840   5.727   5.800 -0.1799  0.4860 -0.4490
  189MOL0     C25444   4.780   5.650   5.909  0.6287 -0.1608  0.4178
  189MOL0     C25445   4.729   5.591   6.002 -0.4109 -0.7129 -0.0532
  189MOL0     C25446   4.779   6.393   5.888  0.8890 -0.6425 -0.9667
  189MOL0     C25447   4.798   6.533   5.910 -0.1662 -0.3915  0.4186
  189MOL0     H25448   4.727   7.025   5.825 -0.8058  0.0690  3.2859
  189MOL0     H25449   4.777   7.255   5.869  1.4823  0.8182  0.7794
  189MOL0     H25450   4.797   7.446   5.986 -0.0026  2.9061  0.4994
  189MOL0     H25451   4.922   7.549   6.037  1.4619 -0.1285  0.9899
  189MOL0     H25452   5.064   7.485   5.836  0.7850 -3.0744  1.7212
  189MOL0     H25453   4.938   7.372   5.783 -0.1446 -0.7062  2.0999
  189MOL0     H25454   4.884   7.672   5.794 -2.4622  1.7183 -3.0715
  189MOL0     H25455   4.944   7.580   5.662  4.0147  3.3422  2.0120
  189MOL0     H25456   4.717   7.443   5.670 -1.1133  1.3720 -4.5709
  189MOL0     H25457   4.677   7.534   5.822 -0.0285 -0.3032 -1.2692
  189MOL0     H25458   4.643   7.592   5.552 -1.7346 -1.1027  0.0940
  189MOL0     H25459   4.566   7.645   5.704  1.2977  1.1057  1.8976
  189MOL0     H25460   4.722   7.812   5.744 -1.4114  0.3523 -1.4279
  189MOL0     H25461   4.828   7.767   5.611  0.6615  0.9633  0.0903
  189MOL0     H25462   4.721   7.962   5.528  2.0715 -1.1815 -1.0659
  189MOL0     H25463   4.624   7.827   5.455 -2.0096  1.4368 -0.0589
  189MOL0     H25464   4.520   7.971   5.705 -1.3933 -1.0181  0.0818
  189MOL0     H25465   4.463   7.826   5.622 -0.6450  0.2895  0.6758
  189MOL0     H25466   4.494   8.220   5.571 -0.0958  1.5424 -2.4374
  189MOL0     H25467   4.394   8.394   5.408 -0.3772  1.1966  0.1676
  189MOL0     H25468   4.263   8.337   5.310  2.4706  1.2006 -0.2533
  189MOL0     H25469   4.248   8.331   5.620 -0.7716 -0.1783 -0.1135
  189MOL0     H25470   4.120   8.322   5.498 -1.4822  0.3558  0.5637
  189MOL0     H25471   4.117   8.527   5.608 -1.7794  0.0973 -1.7407
  189MOL0     H25472   4.190   8.575   5.455  0.0695  0.4323 -0.8812
  189MOL0     H25473   4.321   8.689   5.633 -0.3390  0.4797 -0.4971
  189MOL0     H25474   4.428   8.549   5.575  0.7488  0.5913 -1.8455
  189MOL0     H25475   4.555   8.405   5.635  1.7013  0.3272 -0.0137
  189MOL0     H25476   4.838   8.282   5.789 -0.0645 -0.3945  0.0949
  189MOL0     H25477   4.732   8.170   5.696  0.9352 -0.9203 -0.7508
  189MOL0     H25478   4.766   8.336   5.642  0.6455 -0.5809  0.5644
  189MOL0     H25479   4.687   7.894   6.069  0.3442  3.0980  0.3376
  189MOL0     H25480   4.798   7.719   6.176  1.1590 -2.2237 -2.7857
  189MOL0     H25481   4.930   7.653   6.377  2.4265  1.0073  0.9881
  189MOL0     H25482   4.931   7.552   6.238  2.9309  0.9775 -2.4789
  189MOL0     H25483   5.164   7.470   6.298  2.0915  0.6454  0.6835
  189MOL0     H25484   5.179   7.593   6.419 -0.4857  0.8281 -1.6550
  189MOL0     H25485   4.986   7.358   6.432  0.7761  0.4042 -3.3033
  189MOL0     H25486   5.021   7.474   6.559  2.5555  0.4172  1.7450
  189MOL0     H25487   5.249   7.319   6.444  0.6656 -2.1102  0.0664
  189MOL0     H25488   5.249   7.428   6.593  0.3767  0.0741 -1.0598
  189MOL0     H25489   5.084   7.277   6.689  2.5695  0.6666  2.3548
  189MOL0     H25490   5.237   7.186   6.664  0.4138 -0.3114 -0.6619
  189MOL0     H25491   4.985   7.158   6.500 -0.0586  3.4503  1.9903
  189MOL0     H25492   5.157   7.111   6.450 -0.0155  1.7571 -1.3624
  189MOL0     H25493   5.069   7.035   6.736 -0.4529 -1.9920  1.0384
  189MOL0     H25494   5.165   6.941   6.621 -1.2577 -2.5214 -0.9368
  189MOL0     H25495   4.956   6.840   6.706  1.9931 -2.5858 -1.3419
  189MOL0     H25496   4.981   6.834   6.525  0.6643  1.4423 -0.6361
  189MOL0     H25497   5.170   7.919   6.127  0.4195 -1.0533 -2.6710
  189MOL0     H25498   5.041   8.112   5.995  0.3724 -0.0463 -1.2413
  189MOL0     H25499   4.493   8.297   6.105  2.2791  0.4111  0.5582
  189MOL0     H25500   4.323   8.451   5.999  0.8428  2.2756 -0.8512
  189MOL0     H25501   5.067   7.129   6.162 -0.5949 -0.7305  0.3683
  189MOL0     H25502   5.022   6.908   6.105  0.5765  0.7520  2.1808
  189MOL0     H25503   4.964   6.579   5.628  0.4398 -3.8934 -2.0201
  189MOL0     H25504   4.943   6.345   5.598  0.1880 -0.0687 -0.0729
  189MOL0     H25505   4.835   6.139   5.589  2.7474 -1.3945 -1.3478
  189MOL0     H25506   4.957   6.107   5.708  0.5283  0.4823  0.2276
  189MOL0     H25507   4.814   5.895   5.605  0.8656 -0.4090  0.4869
  189MOL0     H25508   4.683   5.978   5.689 -0.1755  0.4847 -3.0668
  189MOL0     H25509   4.721   5.892   5.877  0.9831  0.1725  0.9644
  189MOL0     H25510   4.890   5.925   5.879 -1.8787  1.8572  2.0562
  189MOL0     H25511   4.948   5.706   5.796 -0.3113 -2.2731  3.8640
  189MOL0     H25512   4.799   5.695   5.704  0.3823 -0.4595 -0.3882
  189MOL0     H25513   4.696   5.539   6.089  1.6780  1.0725  1.9352
  189MOL0     H25514   4.721   6.339   5.963  1.1508  1.8225  1.1282
  189MOL0     H25515   4.769   6.582   6.003  0.9954  2.9687 -0.8167
  190MOL0     O25516   6.843   9.847   3.281  0.3382 -0.0348 -0.0158
  190MOL0     C25517   6.800   9.947   3.343  0.6452  0.4766  0.4038
  190MOL0     O25518   6.824  10.078   3.306 -0.5504  0.0910 -0.0307
  190MOL0     C25519   6.940  10.099   3.234  0.7668 -0.0360  0.1542
  190MOL0     C25520   6.949  10.081   3.095 -0.1852 -0.3045 -0.5849
  190MOL0     C25521   7.070  10.101   3.032 -0.4118  0.1192  0.2022
  190MOL0     C25522   7.188  10.134   3.105  0.7338 -0.0877 -0.0162
  190MOL0     O25523   7.309  10.149   3.033  0.4687 -0.0150 -0.4275
  190MOL0     C25524   7.419  10.077   3.087  0.3265 -0.4135  0.8318
  190MOL0     C25525   7.540  10.118   3.018 -0.2964  0.3067  0.0219
  190MOL0     C25526   7.570  10.270   3.044 -0.3052  0.5164 -0.0023
  190MOL0     C25527   7.681  10.319   2.955  0.5431 -0.1816  0.0069
  190MOL0     C25528   7.693  10.474   2.984 -0.1045  0.6004  0.0239
  190MOL0     C25529   7.773  10.551   2.879 -1.0590 -0.3735  1.0144
  190MOL0     C25530   7.925  10.526   2.883 -0.1130  0.0811 -0.6520
  190MOL0     C25531   7.988  10.608   2.774  0.4559 -0.0984 -0.3810
  190MOL0     N25532   8.127  10.575   2.747  0.8948 -0.1613  1.3534
  190MOL0     C25533   8.236  10.613   2.818 -0.2555 -0.5204  0.0539
  190MOL0     C25534   8.342  10.565   2.758  0.7299 -0.3667  0.3036
  190MOL0     C25535   8.488  10.596   2.813  0.3094 -0.4292  0.2302
  190MOL0     C25536   8.551  10.458   2.803 -0.0684 -0.5601  0.2617
  190MOL0     C25537   8.692  10.464   2.872 -0.5570  0.4054  0.4338
  190MOL0     C25538   8.801  10.439   2.774 -0.3093  0.5674  0.3231
  190MOL0     O25539   8.926  10.481   2.835 -0.6428  0.1475  0.2473
  190MOL0     C25540   9.046  10.490   2.765  0.7840 -0.1185  0.3089
  190MOL0     C25541   9.158  10.519   2.840  0.2365 -1.1011 -0.0778
  190MOL0     C25542   9.279  10.536   2.785 -0.2649 -0.0732 -1.3080
  190MOL0     C25543   9.394  10.559   2.899 -0.2788  0.0416 -0.6783
  190MOL0     C25544   9.307  10.514   2.650  0.2972 -0.0646 -0.2543
  190MOL0     C25545   9.437  10.519   2.581  0.6745 -0.2806 -0.2696
  190MOL0     O25546   9.456  10.441   2.469 -0.1537  0.3314 -0.1660
  190MOL0     C25547   9.581  10.422   2.415  0.1760 -0.4958 -1.0748
  190MOL0     C25548   9.697  10.401   2.489  0.3413 -0.4403  0.2018
  190MOL0     C25549   9.825  10.401   2.433  0.4357  0.0429 -0.9003
  190MOL0     C25550   9.833  10.426   2.293 -0.3598  0.1578 -1.0967
  190MOL0     O25551   9.962  10.421   2.246  0.4667  0.1006  0.2453
  190MOL0     C25552   9.990  10.433   2.109  0.2701 -0.0310  0.2054
  190MOL0     C25553  10.141  10.401   2.092 -0.3584  0.7307  0.2985
  190MOL0     C25554  10.180  10.395   1.941 -0.2405  0.1679 -0.9346
  190MOL0     C25555  10.101  10.281   1.861 -0.0907  0.4549 -0.3450
  190MOL0     C25556  10.122  10.266   1.711 -0.2497 -0.2627 -0.1774
  190MOL0     C25557  10.254  10.181   1.679  0.6341  0.5867 -0.1123
  190MOL0     C25558  10.263  10.131   1.533  0.7119  1.0589 -0.5229
  190MOL0     C25559  10.147  10.019   1.496 -0.0505 -0.1533 -0.1172
  190MOL0    Cl25560  10.160   9.875   1.594  0.2575  0.2414  0.3568
  190MOL0     C25561   9.721  10.434   2.221 -0.4931  0.9694  0.2950
  190MOL0     C25562   9.597  10.440   2.278  0.0347  0.4162 -0.6179
  190MOL0     O25563   9.521  10.581   2.633  0.1153  0.4738  0.0281
  190MOL0     C25564   9.190  10.490   2.576  0.0814 -0.2050  0.1314
  190MOL0     C25565   9.060  10.484   2.633  0.0488  0.6746 -0.1950
  190MOL0     N25566   8.304  10.506   2.643  0.1523 -0.5644 -0.2700
  190MOL0     N25567   8.175  10.513   2.633 -0.0954 -0.4169 -0.8350
  190MOL0     C25568   7.175  10.168   3.243 -0.4356 -0.2899  0.3903
  190MOL0     C25569   7.052  10.134   3.304 -0.7318 -0.0167  0.8481
  190MOL0     C25570   6.685   9.920   3.437  0.1293  0.1375  0.9834
  190MOL0     C25571   6.630   9.790   3.433 -0.9874 -0.6110  0.1866
  190MOL0     C25572   6.518   9.759   3.519  0.0173 -0.4761 -0.0072
  190MOL0     C25573   6.498   9.850   3.615  0.0743  0.1087 -0.4329
  190MOL0     O25574   6.412   9.812   3.719 -0.2782 -0.4097 -0.4728
  190MOL0     C25575   6.446   9.840   3.859  0.0394  0.3989 -0.9770
  190MOL0     C25576   6.371   9.744   3.953 -0.2017  0.8374 -0.5202
  190MOL0     C25577   6.429   9.606   3.947 -0.3360 -1.1872  1.5466
  190MOL0     C25578   6.410   9.522   4.069 -0.3198 -1.1802 -0.6945
  190MOL0     C25579   6.496   9.407   4.066 -0.4362  0.6161 -0.3642
  190MOL0     C25580   6.581   9.320   4.080 -0.9409  1.0007  0.3284
  190MOL0     C25581   6.541   9.983   3.609  0.0055  0.5455  0.4552
  190MOL0     C25582   6.636  10.021   3.515 -0.6504 -0.1193  0.2988
  190MOL0     H25583   6.863  10.075   3.029 -2.0743  0.7020  1.6491
  190MOL0     H25584   7.081  10.068   2.930  4.0279  0.3511  0.4204
  190MOL0     H25585   7.443  10.101   3.191  0.4109  2.7694  0.1750
  190MOL0     H25586   7.398   9.970   3.080  0.0701 -0.3752  1.0239
  190MOL0     H25587   7.624  10.063   3.062 -0.7721  0.3069  0.9741
  190MOL0     H25588   7.520  10.095   2.913 -1.0478  3.7579 -0.7121
  190MOL0     H25589   7.479  10.331   3.032  0.7398  2.3752  0.9875
  190MOL0     H25590   7.590  10.289   3.149 -1.8972 -0.3195  0.4878
  190MOL0     H25591   7.774  10.269   2.982  0.1105 -1.5806 -1.0016
  190MOL0     H25592   7.666  10.291   2.851 -0.2787  0.0354  0.0616
  190MOL0     H25593   7.592  10.515   2.994 -0.3154  0.1969 -0.4308
  190MOL0     H25594   7.738  10.490   3.082 -1.3751  3.6792  0.2461
  190MOL0     H25595   7.727  10.522   2.784  1.0728 -0.4886 -0.0346
  190MOL0     H25596   7.752  10.656   2.901  1.4305  0.0671  1.5718
  190MOL0     H25597   7.969  10.540   2.982  0.9931 -0.6538 -1.0233
  190MOL0     H25598   7.943  10.421   2.862 -1.9504 -0.0788 -1.5595
  190MOL0     H25599   7.977  10.715   2.796  0.1212 -0.3338  0.6095
  190MOL0     H25600   7.929  10.580   2.686  1.6992  1.0187 -1.6241
  190MOL0     H25601   8.235  10.671   2.909  8.2066  4.6609 -2.0309
  190MOL0     H25602   8.546  10.658   2.743 -0.6372 -4.1113 -4.3553
  190MOL0     H25603   8.480  10.626   2.917 -3.1158 -1.2383  0.3375
  190MOL0     H25604   8.561  10.440   2.696 -0.6639  1.3508 -0.1409
  190MOL0     H25605   8.480  10.386   2.844 -1.5533  0.9739  0.4965
  190MOL0     H25606   8.693  10.393   2.955  0.7199 -0.2478 -0.1144
  190MOL0     H25607   8.708  10.566   2.907  0.2797  0.9737 -1.5017
  190MOL0     H25608   8.780  10.498   2.685 -0.0424 -0.5358 -0.4913
  190MOL0     H25609   8.799  10.332   2.751  0.0411  0.5198  0.4931
  190MOL0     H25610   9.120  10.526   2.942 -1.2127 -0.8524 -0.6128
  190MOL0     H25611   9.426  10.662   2.916 -1.6755  0.2610  0.9411
  190MOL0     H25612   9.366  10.516   2.996  0.9461  1.2819  0.2696
  190MOL0     H25613   9.481  10.502   2.867  0.0504 -0.0278  0.3087
  190MOL0     H25614   9.697  10.387   2.597  1.7284  4.0323  1.0313
  190MOL0     H25615   9.912  10.368   2.489 -0.4956 -0.3557  0.3728
  190MOL0     H25616   9.928  10.363   2.052  2.7835 -2.4629  0.2054
  190MOL0     H25617   9.973  10.533   2.067  1.2740  0.0782  0.0351
  190MOL0     H25618  10.196  10.487   2.132  1.3537 -0.4722  0.6184
  190MOL0     H25619  10.164  10.306   2.140 -1.5105 -0.2100 -0.9501
  190MOL0     H25620  10.287  10.387   1.919 -0.3454  1.1664 -1.9077
  190MOL0     H25621  10.147  10.490   1.898  0.2093  1.1870  0.8716
  190MOL0     H25622  10.122  10.182   1.904 -2.4700  0.0001 -0.0567
  190MOL0     H25623   9.993  10.294   1.876 -0.0534  0.6266 -0.2187
  190MOL0     H25624  10.136  10.364   1.665  0.9368 -1.0696 -1.6289
  190MOL0     H25625  10.029  10.230   1.666 -0.4428  2.9993 -2.6764
  190MOL0     H25626  10.333  10.253   1.700  0.9995  1.0294 -2.6888
  190MOL0     H25627  10.272  10.100   1.750  2.2017  0.6293 -0.4317
  190MOL0     H25628  10.363  10.089   1.515  0.9669  0.6271  1.5556
  190MOL0     H25629  10.263  10.221   1.472  1.7792  1.7075  0.3859
  190MOL0     H25630  10.156   9.998   1.388  0.8321  1.0159 -0.2865
  190MOL0     H25631  10.054  10.073   1.514 -0.3175 -0.3002 -0.9933
  190MOL0     H25632   9.728  10.455   2.114  0.4226  2.1701  0.5643
  190MOL0     H25633   9.504  10.455   2.224  1.5655  0.6985 -3.3694
  190MOL0     H25634   9.206  10.471   2.471 -0.1541 -0.0391  0.0639
  190MOL0     H25635   8.975  10.476   2.566 -0.7680 -0.3062  0.9132
  190MOL0     H25636   7.256  10.217   3.295 -0.3998  2.6185 -2.1144
  190MOL0     H25637   7.048  10.145   3.412  0.8991 -2.5234  1.2284
  190MOL0     H25638   6.667   9.718   3.360  2.6696 -0.8722  2.0637
  190MOL0     H25639   6.451   9.674   3.521 -1.4972  0.5636  4.0755
  190MOL0     H25640   6.552   9.820   3.873  0.2233  0.2921 -2.3907
  190MOL0     H25641   6.428   9.942   3.895  3.9924  0.7948  0.3522
  190MOL0     H25642   6.264   9.743   3.929 -0.0874  1.8708 -1.1524
  190MOL0     H25643   6.382   9.779   4.056 -1.5779  0.4193 -0.2176
  190MOL0     H25644   6.536   9.627   3.937 -0.8518  1.9239  1.5428
  190MOL0     H25645   6.384   9.560   3.859 -1.3191  1.9104  0.2830
  190MOL0     H25646   6.304   9.499   4.079 -0.8084  0.6590 -1.2072
  190MOL0     H25647   6.435   9.579   4.159 -1.2847 -2.3908  0.3631
  190MOL0     H25648   6.645   9.253   4.134  1.3391  1.9663 -1.0149
  190MOL0     H25649   6.511  10.052   3.688 -2.4657 -0.9691  0.9305
  190MOL0     H25650   6.680  10.120   3.515 -1.6867  0.3530  0.1142
  191MOL0     O25651   0.677  10.281  10.303  0.3492  0.6771  0.1248
  191MOL0     C25652   0.768  10.356  10.283 -0.2558 -0.9745 -1.0696
  191MOL0     O25653   0.791  10.427  10.167 -0.2879 -0.2605  0.3790
  191MOL0     C25654   0.709  10.428  10.057  0.0463  0.0141  0.2614
  191MOL0     C25655   0.665  10.556  10.009 -0.8467  0.1482 -0.1008
  191MOL0     C25656   0.577  10.564   9.904 -0.3539 -0.1407  0.2531
  191MOL0     C25657   0.534  10.444   9.843 -0.3806 -0.9934 -0.3589
  191MOL0     O25658   0.440  10.470   9.750 -0.2537  0.1643  0.0069
  191MOL0     C25659   0.362  10.357   9.699  0.2871  0.1368  0.1181
  191MOL0     C25660   0.259  10.297   9.800  0.2207 -0.3743  0.3398
  191MOL0     C25661   0.178  10.415   9.859 -0.1897 -0.4310  0.5021
  191MOL0     C25662   0.068  10.452   9.759  1.3433  0.0897 -0.1060
  191MOL0     C25663  -0.029  10.542   9.835  0.2288  0.3327 -0.5205
  191MOL0     C25664  -0.130  10.570   9.730  0.4441  0.2081 -0.4305
  191MOL0     C25665  -0.218  10.682   9.773  0.6197 -0.6911  0.2050
  191MOL0     C25666  -0.359  10.639   9.767 -0.0669 -0.4360 -0.1175
  191MOL0     N25667  -0.455  10.755   9.779  0.1495  0.0426 -0.2547
  191MOL0     C25668  -0.521  10.801   9.678  0.5691 -1.2912  0.9020
  191MOL0     C25669  -0.630  10.866   9.720 -0.0625 -1.4268 -0.0524
  191MOL0     C25670  -0.742  10.931   9.643  0.9323  1.7073  0.5310
  191MOL0     C25671  -0.780  11.068   9.700  0.6218 -0.0063  0.0995
  191MOL0     C25672  -0.670  11.176   9.696 -0.0031  0.2692  0.7043
  191MOL0     C25673  -0.722  11.287   9.784  0.1010 -0.5407  0.0706
  191MOL0     O25674  -0.644  11.406   9.752 -0.1425 -0.5327 -0.0408
  191MOL0     C25675  -0.508  11.410   9.771 -0.1553 -0.5356  0.9054
  191MOL0     C25676  -0.435  11.472   9.673 -0.3025 -0.0190  0.5916
  191MOL0     C25677  -0.298  11.500   9.695 -1.2477  0.0457  0.6495
  191MOL0     C25678  -0.244  11.578   9.575 -0.1894  0.1028 -0.2856
  191MOL0     C25679  -0.229  11.444   9.810  0.5489 -0.2310 -0.3163
  191MOL0     C25680  -0.086  11.448   9.840  0.3442 -0.7790  0.1761
  191MOL0     O25681  -0.012  11.515   9.749  0.5423 -0.3183  0.3124
  191MOL0     C25682   0.100  11.575   9.791  0.0555 -0.7436  0.5843
  191MOL0     C25683   0.115  11.714   9.774 -0.2366 -1.0623 -0.2955
  191MOL0     C25684   0.243  11.773   9.798 -0.7096 -0.6619  0.0139
  191MOL0     C25685   0.356  11.693   9.833  0.9811 -0.1858 -0.1709
  191MOL0     O25686   0.485  11.734   9.862  0.6161  0.0207 -0.1792
  191MOL0     C25687   0.516  11.867   9.813  0.7288 -0.3997 -0.9557
  191MOL0     C25688   0.664  11.880   9.803 -0.2763  0.5930 -0.5329
  191MOL0     C25689   0.740  11.751   9.785 -0.1293  0.9599  0.9246
  191MOL0     C25690   0.884  11.777   9.768  0.2950  0.1442 -1.2191
  191MOL0     C25691   0.962  11.656   9.814 -0.1171  0.1715  0.1807
  191MOL0     C25692   1.113  11.668   9.773 -0.0926 -0.6928 -0.2731
  191MOL0     C25693   1.180  11.534   9.785 -0.1879  0.0691 -0.0092
  191MOL0     C25694   1.233  11.494   9.922  0.0504 -0.1719  0.7866
  191MOL0    Cl25695   1.359  11.599   9.973  0.3578  0.6271  0.3661
  191MOL0     C25696   0.332  11.559   9.847 -0.2293 -0.1678 -0.0739
  191MOL0     C25697   0.209  11.504   9.831  0.5249  0.2490  0.0230
  191MOL0     O25698  -0.043  11.391   9.937 -0.9289 -0.4013  0.6512
  191MOL0     C25699  -0.315  11.378   9.906  0.6093  1.1053  0.3775
  191MOL0     C25700  -0.449  11.356   9.891 -0.3089 -0.4114  0.6427
  191MOL0     N25701  -0.618  10.873   9.857  0.1353  1.0612 -0.0184
  191MOL0     N25702  -0.513  10.807   9.891 -0.4502  0.2047  0.0449
  191MOL0     C25703   0.590  10.324   9.883  0.4808 -0.4321 -0.2765
  191MOL0     C25704   0.676  10.314   9.987 -0.3998 -0.6454 -0.6583
  191MOL0     C25705   0.849  10.389  10.405  0.2747 -0.4305 -0.5860
  191MOL0     C25706   0.939  10.497  10.408 -0.4251  0.1230 -0.1873
  191MOL0     C25707   0.995  10.531  10.530  0.2471 -1.1059 -0.5699
  191MOL0     C25708   0.982  10.464  10.651 -0.6155 -0.3839 -0.5891
  191MOL0     O25709   1.061  10.510  10.763 -0.5521 -0.3413 -0.2473
  191MOL0     C25710   1.094  10.404  10.866  0.0578 -0.3102 -0.1846
  191MOL0     C25711   1.169  10.443  10.994  0.4235 -1.0930 -1.2004
  191MOL0     C25712   1.298  10.496  10.965 -0.5969 -0.4926 -0.0099
  191MOL0     C25713   1.392  10.530  11.092 -0.2804 -0.3396 -0.0468
  191MOL0     C25714   1.434  10.672  11.079  0.3353 -0.1754 -0.6314
  191MOL0     C25715   1.475  10.792  11.076 -0.1552  0.2645 -0.2731
  191MOL0     C25716   0.895  10.355  10.655 -0.2535 -0.4052  0.2036
  191MOL0     C25717   0.824  10.322  10.530  0.4701 -0.6861 -0.0558
  191MOL0     H25718   0.705  10.648  10.051  4.0937 -0.0405 -3.4548
  191MOL0     H25719   0.532  10.659   9.877 -1.8434 -1.1442 -0.9480
  191MOL0     H25720   0.299  10.391   9.616 -3.3288 -0.7743  2.2436
  191MOL0     H25721   0.419  10.270   9.665  0.8408  0.3669  0.4588
  191MOL0     H25722   0.188  10.230   9.750 -4.2003  2.3479  2.2643
  191MOL0     H25723   0.327  10.238   9.862  1.4805  0.2428 -0.4217
  191MOL0     H25724   0.143  10.381   9.956  2.5287  0.3116  1.8347
  191MOL0     H25725   0.239  10.505   9.873  0.2170 -0.4376 -1.0372
  191MOL0     H25726   0.108  10.505   9.672  2.7509 -1.8599 -0.7024
  191MOL0     H25727   0.017  10.363   9.720 -0.9950  0.6237  1.5020
  191MOL0     H25728  -0.077  10.490   9.918  0.6523 -0.5314 -0.8024
  191MOL0     H25729   0.019  10.633   9.872  0.5371 -0.0839  0.1108
  191MOL0     H25730  -0.098  10.593   9.629 -1.4536 -0.5036 -1.2477
  191MOL0     H25731  -0.191  10.480   9.720 -0.7425  0.7936  1.1219
  191MOL0     H25732  -0.190  10.710   9.876 -0.4562 -0.6421  0.4962
  191MOL0     H25733  -0.197  10.762   9.701 -1.3284 -2.3913 -2.4255
  191MOL0     H25734  -0.372  10.573   9.853  1.0104 -1.3857 -0.6581
  191MOL0     H25735  -0.389  10.586   9.676 -0.9706 -0.4800  0.1945
  191MOL0     H25736  -0.510  10.773   9.574  0.2754 -0.5952  0.6804
  191MOL0     H25737  -0.714  10.931   9.538  2.6815 -3.1468  0.7206
  191MOL0     H25738  -0.820  10.855   9.657 -0.7640  3.2045 -0.5043
  191MOL0     H25739  -0.799  11.061   9.807  1.0908  0.2064  0.2005
  191MOL0     H25740  -0.867  11.112   9.651  1.3829  2.4861  0.8358
  191MOL0     H25741  -0.658  11.217   9.595 -2.9857 -0.1694  0.0835
  191MOL0     H25742  -0.574  11.135   9.726 -0.8899 -3.2107 -0.7664
  191MOL0     H25743  -0.716  11.260   9.890 -1.6622  2.8693  1.1733
  191MOL0     H25744  -0.825  11.315   9.760  0.8647  2.0191 -0.5391
  191MOL0     H25745  -0.490  11.497   9.582  1.4599  1.6929 -0.0888
  191MOL0     H25746  -0.277  11.680   9.593  1.7749  0.3178  2.9595
  191MOL0     H25747  -0.135  11.577   9.586 -0.2627 -1.6838  0.7396
  191MOL0     H25748  -0.282  11.546   9.478 -1.7552  2.8551 -0.6473
  191MOL0     H25749   0.025  11.771   9.752  0.2664 -0.3387 -0.5384
  191MOL0     H25750   0.253  11.880   9.785 -0.0538 -0.6287  0.6917
  191MOL0     H25751   0.467  11.893   9.718  1.5147  1.2752 -0.9357
  191MOL0     H25752   0.481  11.939   9.888 -0.8163 -2.8050  0.7793
  191MOL0     H25753   0.693  11.950   9.725 -0.6675  0.5803 -0.6910
  191MOL0     H25754   0.699  11.923   9.897  0.7508 -3.6563  1.2703
  191MOL0     H25755   0.716  11.695   9.694  0.5692  2.7023 -0.3831
  191MOL0     H25756   0.727  11.685   9.872  2.7123  0.8408  1.3408
  191MOL0     H25757   0.882  11.799   9.661 -2.3381 -0.0855 -1.2829
  191MOL0     H25758   0.921  11.863   9.823  0.1221 -0.6946  0.2457
  191MOL0     H25759   0.926  11.572   9.754 -2.0674 -2.2484  4.2214
  191MOL0     H25760   0.940  11.638   9.920  1.9584  0.0250  0.6176
  191MOL0     H25761   1.118  11.701   9.668  1.0735 -1.2157 -0.3937
  191MOL0     H25762   1.143  11.751   9.837 -4.4026 -0.5560  1.9774
  191MOL0     H25763   1.269  11.540   9.722  2.0318  1.2723  2.9565
  191MOL0     H25764   1.111  11.456   9.754 -0.1942  0.2511 -0.4540
  191MOL0     H25765   1.266  11.390   9.917  0.2213 -0.1464  1.2782
  191MOL0     H25766   1.152  11.492   9.996  1.6637 -2.2170  2.6655
  191MOL0     H25767   0.417  11.492   9.854 -1.6991 -2.0349  0.9131
  191MOL0     H25768   0.208  11.398   9.857  5.4595  0.7915  3.9036
  191MOL0     H25769  -0.271  11.344   9.999 -0.0089 -0.1585  0.2396
  191MOL0     H25770  -0.521  11.308   9.956 -1.5208 -1.7902 -1.6112
  191MOL0     H25771   0.552  10.236   9.832 -2.2352  1.0096 -0.9527
  191MOL0     H25772   0.707  10.215  10.018 -2.1150 -1.1010 -0.3396
  191MOL0     H25773   0.962  10.554  10.318 -1.3556  0.6790 -0.0836
  191MOL0     H25774   1.046  10.627  10.525 -2.8433  0.6625 -1.0542
  191MOL0     H25775   0.995  10.385  10.908 -0.6811 -1.1099 -2.1583
  191MOL0     H25776   1.132  10.316  10.813  0.7733  0.2356 -0.6042
  191MOL0     H25777   1.177  10.366  11.071  1.2738  1.7892  1.8499
  191MOL0     H25778   1.106  10.512  11.052  0.3509 -2.5733  0.5954
  191MOL0     H25779   1.297  10.578  10.893  2.6797 -1.7225 -1.6998
  191MOL0     H25780   1.351  10.420  10.906 -0.4425 -1.5066  1.3912
  191MOL0     H25781   1.478  10.466  11.112 -1.2964 -1.8629 -0.3954
  191MOL0     H25782   1.343  10.532  11.190  0.0143  0.0685  0.0959
  191MOL0     H25783   1.514  10.892  11.072 -2.1925  1.0607 -2.7684
  191MOL0     H25784   0.863  10.296  10.741 -2.7723 -1.8204 -1.5680
  191MOL0     H25785   0.751  10.243  10.533  0.8779 -1.0843 -0.4166
  192MOL0     O25786  11.334   4.740  11.072 -0.1507  0.2366  0.9973
  192MOL0     C25787  11.350   4.682  11.174  1.3980 -0.1935 -1.3002
  192MOL0     O25788  11.255   4.614  11.252 -0.2113 -0.2360 -0.1450
  192MOL0     C25789  11.125   4.594  11.205 -0.3688 -0.5673 -0.5310
  192MOL0     C25790  11.064   4.622  11.086  0.3124 -0.7178 -0.5894
  192MOL0     C25791  10.921   4.601  11.077  0.5320  0.5327 -0.7964
  192MOL0     C25792  10.844   4.541  11.170  0.3011  0.4472  1.1999
  192MOL0     O25793  10.710   4.515  11.144 -0.3357 -0.0948  0.5921
  192MOL0     C25794  10.610   4.552  11.236 -0.2930 -0.3483 -0.3013
  192MOL0     C25795  10.476   4.500  11.176  0.6208  0.8513 -0.0501
  192MOL0     C25796  10.365   4.485  11.272  0.5030 -0.3931 -0.0926
  192MOL0     C25797  10.229   4.451  11.215  0.5112  0.6371  0.3900
  192MOL0     C25798  10.128   4.421  11.324  0.1987 -0.2585  0.5948
  192MOL0     C25799  10.167   4.297  11.420  0.6128 -0.3322  0.5470
  192MOL0     C25800  10.200   4.359  11.554  0.2397 -0.8791  0.1617
  192MOL0     C25801  10.218   4.250  11.656 -0.9961 -0.3438 -0.2933
  192MOL0     N25802  10.180   4.300  11.796 -0.3316 -0.5510  0.0884
  192MOL0     C25803  10.062   4.270  11.855  0.1951  0.5910 -0.6223
  192MOL0     C25804  10.047   4.370  11.947  0.3284 -0.8039 -0.2836
  192MOL0     C25805   9.925   4.405  12.039 -0.0541 -0.6289 -0.3557
  192MOL0     C25806   9.805   4.316  12.020 -0.0109  1.2893 -0.1000
  192MOL0     C25807   9.811   4.189  12.106 -0.7837  0.2929 -0.2921
  192MOL0     C25808   9.681   4.104  12.082 -0.4156 -0.0851  0.2615
  192MOL0     O25809   9.691   4.047  11.952  0.5543  0.9224  0.0922
  192MOL0     C25810   9.589   3.956  11.932 -0.1351  0.1126 -0.2317
  192MOL0     C25811   9.471   3.943  12.014  0.4906  0.7052  0.0867
  192MOL0     C25812   9.386   3.833  11.999 -0.3359  0.2925 -0.7575
  192MOL0     C25813   9.274   3.822  12.100  0.3820  0.0420 -0.1613
  192MOL0     C25814   9.405   3.739  11.898 -0.7141  0.4364 -0.1480
  192MOL0     C25815   9.326   3.620  11.877  0.8477 -0.0209  0.0023
  192MOL0     O25816   9.385   3.510  11.812 -0.2726 -0.4774  0.1483
  192MOL0     C25817   9.297   3.415  11.763 -0.5099  0.7801 -0.5861
  192MOL0     C25818   9.221   3.427  11.641  0.2679 -0.1008 -0.3109
  192MOL0     C25819   9.145   3.315  11.593  1.2391  0.4706 -0.4310
  192MOL0     C25820   9.122   3.199  11.679  1.3538  0.0837  0.4862
  192MOL0     O25821   9.045   3.095  11.613 -0.0647 -0.4148 -0.8226
  192MOL0     C25822   9.000   2.985  11.685  0.6650  0.2531  0.3444
  192MOL0     C25823   8.886   2.914  11.612 -0.2590  0.9257  0.1476
  192MOL0     C25824   8.916   2.846  11.480  0.0304 -0.6866  0.0446
  192MOL0     C25825   9.011   2.719  11.489 -0.0730  0.6155 -0.7377
  192MOL0     C25826   9.055   2.670  11.339 -0.1028 -0.5784 -0.5731
  192MOL0     C25827   8.942   2.598  11.274  0.5264  0.3474  0.9855
  192MOL0     C25828   8.989   2.513  11.155  0.4528 -0.6146 -0.3502
  192MOL0     C25829   8.863   2.458  11.077  0.2717  1.0230  0.6165
  192MOL0    Cl25830   8.758   2.360  11.201 -0.0984  0.3778  0.3239
  192MOL0     C25831   9.190   3.190  11.804  0.2026 -0.6003 -0.7252
  192MOL0     C25832   9.288   3.287  11.834 -0.0945 -0.4300  0.3371
  192MOL0     O25833   9.203   3.625  11.908  0.2140 -0.1906 -0.0682
  192MOL0     C25834   9.503   3.767  11.807 -0.2644 -0.8504 -0.3741
  192MOL0     C25835   9.598   3.871  11.828 -0.2474  0.1553  0.1500
  192MOL0     N25836  10.156   4.461  11.942  0.1474  0.4073 -0.6689
  192MOL0     N25837  10.233   4.419  11.850  1.3771  0.5102 -0.3563
  192MOL0     C25838  10.915   4.494  11.282  0.4247  0.3448 -0.3050
  192MOL0     C25839  11.048   4.534  11.308 -1.3216 -0.4421  0.3787
  192MOL0     C25840  11.482   4.672  11.222 -0.5086 -0.4106 -0.1032
  192MOL0     C25841  11.585   4.666  11.119 -0.4934  0.8505  1.0540
  192MOL0     C25842  11.718   4.646  11.156 -0.5344  0.6092  0.3070
  192MOL0     C25843  11.752   4.632  11.296 -0.2017 -1.0730 -0.9439
  192MOL0     O25844  11.878   4.630  11.352 -0.1952  0.2016  0.0477
  192MOL0     C25845  11.989   4.621  11.263 -0.3362 -0.1003  0.0389
  192MOL0     C25846  12.124   4.640  11.351  0.3878 -0.7574  0.7304
  192MOL0     C25847  12.168   4.511  11.412  0.6142  0.6292  0.1231
  192MOL0     C25848  12.311   4.524  11.474 -0.4440  0.2669  1.3546
  192MOL0     C25849  12.298   4.592  11.603 -0.2879 -0.1472 -0.1878
  192MOL0     C25850  12.292   4.653  11.708  0.0235 -0.3289  0.6346
  192MOL0     C25851  11.649   4.636  11.393  0.1642  0.6097  0.3007
  192MOL0     C25852  11.515   4.655  11.356 -1.0115  0.5475  0.8802
  192MOL0     H25853  11.109   4.661  10.996 -0.7272 -4.1301 -2.7955
  192MOL0     H25854  10.865   4.631  10.989  1.1675 -2.9158 -2.5378
  192MOL0     H25855  10.622   4.530  11.343 -0.8647  2.4347  0.4090
  192MOL0     H25856  10.613   4.661  11.238  0.8384 -0.3540 -0.8327
  192MOL0     H25857  10.451   4.563  11.090  0.8050 -0.9928 -1.5106
  192MOL0     H25858  10.494   4.399  11.136  3.4364  1.4236 -0.4599
  192MOL0     H25859  10.389   4.412  11.350 -1.1918 -0.0370  0.8296
  192MOL0     H25860  10.358   4.581  11.323 -2.1628 -0.9332  0.7297
  192MOL0     H25861  10.192   4.525  11.143  0.2738  1.2099  1.0956
  192MOL0     H25862  10.245   4.366  11.147  2.8442  1.5010 -0.2402
  192MOL0     H25863  10.123   4.515  11.381  1.3442 -0.4555  1.0505
  192MOL0     H25864  10.032   4.391  11.282 -1.2973  2.0422  2.0969
  192MOL0     H25865  10.087   4.222  11.422 -1.3608  1.6299 -0.2956
  192MOL0     H25866  10.257   4.245  11.384  0.5028 -0.8400  0.9923
  192MOL0     H25867  10.288   4.424  11.547 -0.4516 -0.0724 -1.6704
  192MOL0     H25868  10.115   4.420  11.587  0.8388 -2.0799  4.5012
  192MOL0     H25869  10.324   4.225  11.649 -1.2379 -1.5989  0.2979
  192MOL0     H25870  10.157   4.161  11.637 -2.5257  0.1807  1.7504
  192MOL0     H25871   9.986   4.200  11.823  0.4591  0.2163 -0.4395
  192MOL0     H25872   9.961   4.408  12.142 -3.6632  1.3687  1.0385
  192MOL0     H25873   9.891   4.507  12.015  3.2489  1.3427  2.3662
  192MOL0     H25874   9.789   4.280  11.918  0.5440 -3.1010  1.1313
  192MOL0     H25875   9.715   4.370  12.048  0.7978  0.5996  4.6050
  192MOL0     H25876   9.824   4.224  12.209  1.5045 -0.4084 -0.2972
  192MOL0     H25877   9.896   4.123  12.085 -0.9123  0.4081 -1.2154
  192MOL0     H25878   9.590   4.159  12.108 -1.9991 -3.2294  1.9791
  192MOL0     H25879   9.672   4.027  12.159 -1.0154 -0.5912 -0.2986
  192MOL0     H25880   9.438   4.009  12.093  0.7690  0.0288  0.7814
  192MOL0     H25881   9.191   3.887  12.069 -0.8809 -1.7911 -0.7880
  192MOL0     H25882   9.228   3.724  12.115 -0.0808 -0.4869 -4.1102
  192MOL0     H25883   9.323   3.838  12.197  0.7975  1.9878 -0.6572
  192MOL0     H25884   9.228   3.518  11.582 -0.3399  0.0196 -0.2024
  192MOL0     H25885   9.093   3.313  11.498  0.1204  1.8748  0.1188
  192MOL0     H25886   9.081   2.917  11.714  0.1786 -1.0601 -1.2569
  192MOL0     H25887   8.957   3.034  11.773 -1.9627  0.0936 -0.7774
  192MOL0     H25888   8.831   2.842  11.674 -1.8995  0.7314 -1.4297
  192MOL0     H25889   8.819   2.996  11.583 -1.7943 -0.2874  0.1032
  192MOL0     H25890   8.965   2.917  11.413 -1.5975  0.6124  0.1647
  192MOL0     H25891   8.816   2.818  11.445 -0.3247  0.3228  0.2054
  192MOL0     H25892   9.093   2.745  11.557  0.4617  0.7001 -1.4081
  192MOL0     H25893   8.958   2.640  11.542  2.6881 -0.6356  0.3887
  192MOL0     H25894   9.143   2.606  11.329 -1.2676 -2.1147 -1.4290
  192MOL0     H25895   9.075   2.763  11.283 -2.0887 -1.3352 -2.7221
  192MOL0     H25896   8.898   2.525  11.343 -4.1964  2.0574  0.1345
  192MOL0     H25897   8.857   2.656  11.239  0.1889  0.0241  1.2571
  192MOL0     H25898   9.046   2.427  11.189  1.7943  0.7553  1.0326
  192MOL0     H25899   9.054   2.576  11.093  0.7735 -1.3425 -0.7646
  192MOL0     H25900   8.877   2.396  10.989 -2.8522  2.6353 -1.2217
  192MOL0     H25901   8.807   2.543  11.036 -2.6615 -1.4042 -0.8687
  192MOL0     H25902   9.169   3.115  11.880  0.9160  1.9136  2.1877
  192MOL0     H25903   9.352   3.279  11.922  1.1054 -0.8162 -0.5328
  192MOL0     H25904   9.527   3.708  11.720 -1.9393 -0.2078 -1.3056
  192MOL0     H25905   9.687   3.870  11.766 -0.2360  3.9037 -0.0841
  192MOL0     H25906  10.872   4.433  11.361 -1.6334  1.2717 -0.6304
  192MOL0     H25907  11.101   4.516  11.401 -1.5690  3.7923  1.5404
  192MOL0     H25908  11.569   4.668  11.012  0.9664 -3.6796  0.5359
  192MOL0     H25909  11.801   4.627  11.088 -0.0121 -3.2598  1.7308
  192MOL0     H25910  11.982   4.527  11.207 -1.2978 -0.9415  1.5121
  192MOL0     H25911  11.989   4.699  11.186  0.2974  2.3685  2.4021
  192MOL0     H25912  12.112   4.724  11.420  0.6050  0.1210 -0.2664
  192MOL0     H25913  12.205   4.669  11.283  1.0003 -1.5598  1.1125
  192MOL0     H25914  12.182   4.448  11.323  2.2320  1.8052 -0.5222
  192MOL0     H25915  12.100   4.462  11.482  3.3581 -2.7489  0.7202
  192MOL0     H25916  12.385   4.576  11.412  1.3413 -1.1910  2.1855
  192MOL0     H25917  12.351   4.426  11.503  2.8941  1.1849  0.3148
  192MOL0     H25918  12.287   4.707  11.801  1.9919 -0.8319  1.0778
  192MOL0     H25919  11.675   4.611  11.495  0.6707 -0.3767 -0.0490
  192MOL0     H25920  11.437   4.649  11.432  0.7785  3.5483  3.1641
  193MOL0     O25921   7.063   3.141   3.852  0.6033  0.8613 -0.4247
  193MOL0     C25922   6.995   3.111   3.948  0.2602 -1.1379 -0.2521
  193MOL0     O25923   6.970   3.197   4.049 -0.3609  0.3008 -0.7142
  193MOL0     C25924   7.018   3.326   4.040  0.6670  0.1604  0.3156
  193MOL0     C25925   6.926   3.434   4.026 -0.0399  0.5231 -0.4502
  193MOL0     C25926   6.979   3.559   4.030  0.6822  0.0009 -0.2883
  193MOL0     C25927   7.117   3.584   4.057  0.8412 -0.1834  0.5476
  193MOL0     O25928   7.177   3.709   4.061 -0.5022 -0.0581  0.1518
  193MOL0     C25929   7.115   3.820   3.990 -1.5603  0.3517 -0.0409
  193MOL0     C25930   7.195   3.944   4.033  0.0174 -0.6955  0.3427
  193MOL0     C25931   7.339   3.963   3.983  0.6158  1.4813  0.4294
  193MOL0     C25932   7.388   4.105   3.983 -0.6317 -0.1455 -0.4214
  193MOL0     C25933   7.530   4.111   3.920  0.8409  0.4496  0.1710
  193MOL0     C25934   7.568   4.260   3.916 -0.3289  0.5055  0.1236
  193MOL0     C25935   7.704   4.294   3.861 -0.4194 -0.5812  0.2628
  193MOL0     C25936   7.714   4.445   3.843 -0.0086 -1.3932 -0.1865
  193MOL0     N25937   7.828   4.482   3.757 -0.0528  0.5048  0.4855
  193MOL0     C25938   7.814   4.496   3.621 -0.6977  0.8306 -0.1519
  193MOL0     C25939   7.942   4.517   3.571  0.3837 -0.3469 -0.2215
  193MOL0     C25940   7.982   4.539   3.422 -0.5345 -0.8652  0.1189
  193MOL0     C25941   7.963   4.685   3.378 -0.2733  0.7255 -0.3899
  193MOL0     C25942   7.832   4.702   3.302 -0.1865  0.3470  0.6171
  193MOL0     C25943   7.806   4.630   3.169 -0.2450 -0.3710  0.1098
  193MOL0     O25944   7.724   4.515   3.177  0.3801  0.7967  0.3580
  193MOL0     C25945   7.683   4.470   3.052 -0.5809 -0.0678 -0.3332
  193MOL0     C25946   7.631   4.339   3.073  0.3541 -0.3061  0.3169
  193MOL0     C25947   7.591   4.264   2.961 -0.5304  1.0100  0.1042
  193MOL0     C25948   7.497   4.150   2.991 -0.4638  0.1000 -0.1097
  193MOL0     C25949   7.607   4.300   2.829  1.3100 -0.3004 -0.1373
  193MOL0     C25950   7.564   4.230   2.700 -0.0899  0.2719 -0.0301
  193MOL0     O25951   7.547   4.091   2.692 -0.4813  0.6286  0.1127
  193MOL0     C25952   7.468   4.042   2.598  0.0705 -0.2901 -0.2352
  193MOL0     C25953   7.493   4.051   2.461  0.1295 -0.0089  0.1249
  193MOL0     C25954   7.401   4.008   2.365 -0.4637 -0.0080  0.1329
  193MOL0     C25955   7.288   3.939   2.401  0.3666 -0.1930 -0.9126
  193MOL0     O25956   7.217   3.903   2.286  0.0178  0.3567 -0.2514
  193MOL0     C25957   7.102   3.808   2.304  0.2768  0.0758  0.6064
  193MOL0     C25958   7.006   3.827   2.183 -0.4515 -0.1277 -0.0383
  193MOL0     C25959   7.095   3.832   2.058 -0.1214  0.2761  0.5542
  193MOL0     C25960   7.032   3.721   1.963 -0.3348 -0.1021 -0.2129
  193MOL0     C25961   7.106   3.722   1.827 -0.4855  0.8266 -0.5320
  193MOL0     C25962   7.053   3.612   1.743  0.2925 -0.0091 -0.5935
  193MOL0     C25963   7.148   3.575   1.621 -0.2874 -0.6704  0.5485
  193MOL0     C25964   7.059   3.522   1.507 -0.0816 -0.3925 -0.6582
  193MOL0    Cl25965   6.984   3.356   1.555 -0.2734 -0.1398 -0.6281
  193MOL0     C25966   7.268   3.921   2.542  0.7206 -0.7199  0.8460
  193MOL0     C25967   7.351   3.982   2.640  0.0728  0.7644 -0.6637
  193MOL0     O25968   7.532   4.308   2.611  0.1485  0.2122 -0.0105
  193MOL0     C25969   7.661   4.431   2.817 -1.0503  0.9029  0.2869
  193MOL0     C25970   7.709   4.516   2.925  0.7739 -0.4898  0.3735
  193MOL0     N25971   8.032   4.497   3.672  0.2804 -0.1608 -0.2208
  193MOL0     N25972   7.960   4.464   3.777  0.1740 -0.2708 -0.7818
  193MOL0     C25973   7.205   3.472   4.069  0.3524 -0.5204  1.0872
  193MOL0     C25974   7.152   3.349   4.060 -0.3799 -0.4380  0.1447
  193MOL0     C25975   6.920   2.984   3.933 -0.6109  0.1797 -0.3997
  193MOL0     C25976   6.820   2.945   4.029 -0.0985 -0.2732 -0.1760
  193MOL0     C25977   6.770   2.816   4.031 -0.4787 -0.1666  0.4552
  193MOL0     C25978   6.812   2.717   3.940  0.5640 -0.2457  0.7106
  193MOL0     O25979   6.778   2.582   3.969  0.0006 -0.5224  0.2810
  193MOL0     C25980   6.820   2.471   3.888  0.0665  0.6622 -0.0856
  193MOL0     C25981   6.751   2.341   3.922  0.9507 -0.1686 -0.1652
  193MOL0     C25982   6.603   2.380   3.905 -0.2164  0.5524 -0.6278
  193MOL0     C25983   6.508   2.313   4.006 -0.0199  0.4579 -0.0358
  193MOL0     C25984   6.523   2.168   4.027  0.8152 -0.8600  0.8331
  193MOL0     C25985   6.525   2.047   4.050 -0.3494  0.0722  0.1147
  193MOL0     C25986   6.904   2.753   3.843  0.2991  0.4376  1.3300
  193MOL0     C25987   6.956   2.881   3.840 -0.5813 -0.0717  0.2305
  193MOL0     H25988   6.818   3.430   4.015  0.0659 -0.0595 -1.3903
  193MOL0     H25989   6.897   3.629   4.030 -1.5766 -2.4737 -0.5562
  193MOL0     H25990   7.133   3.818   3.882  2.5440  0.7478  0.4768
  193MOL0     H25991   7.008   3.829   4.008 -1.6475 -2.6197  1.5701
  193MOL0     H25992   7.136   4.034   4.011 -0.0540 -0.7416  0.3445
  193MOL0     H25993   7.202   3.946   4.142  2.0557  1.0803  0.2440
  193MOL0     H25994   7.400   3.907   4.053 -1.0229 -0.3955  0.4442
  193MOL0     H25995   7.350   3.920   3.883 -0.8989 -0.3457  0.9694
  193MOL0     H25996   7.320   4.164   3.922 -0.6509 -1.6430 -1.9293
  193MOL0     H25997   7.391   4.138   4.087  0.1418  0.4143 -0.6129
  193MOL0     H25998   7.604   4.055   3.978 -0.3273 -2.8853 -1.2992
  193MOL0     H25999   7.521   4.071   3.818  0.5457 -2.0656  1.1168
  193MOL0     H26000   7.486   4.309   3.864 -0.1621  0.2282 -0.4102
  193MOL0     H26001   7.555   4.279   4.023 -3.7961 -1.5380  0.1935
  193MOL0     H26002   7.777   4.254   3.933 -2.7079 -0.3936  2.8506
  193MOL0     H26003   7.718   4.255   3.760  0.2702  3.2973 -1.3035
  193MOL0     H26004   7.722   4.496   3.940 -3.0331 -1.4191  0.1655
  193MOL0     H26005   7.624   4.482   3.793  0.6893  1.6913  0.6097
  193MOL0     H26006   7.720   4.522   3.574  0.0860  0.0499 -2.2572
  193MOL0     H26007   8.084   4.506   3.402 -0.0894  1.1050 -1.1427
  193MOL0     H26008   7.921   4.483   3.349 -1.3909  4.2003 -3.6016
  193MOL0     H26009   8.050   4.701   3.313 -0.8807  1.3842 -1.0669
  193MOL0     H26010   7.968   4.753   3.463  1.2921 -0.7667  0.7901
  193MOL0     H26011   7.805   4.808   3.303 -0.9132  0.3582  5.7322
  193MOL0     H26012   7.754   4.661   3.367  0.9713  0.8831  2.4367
  193MOL0     H26013   7.900   4.613   3.116 -1.1024 -1.7191 -1.0619
  193MOL0     H26014   7.750   4.704   3.111 -0.5866 -0.1942  0.6613
  193MOL0     H26015   7.616   4.296   3.171 -1.3903  2.4504  1.3735
  193MOL0     H26016   7.502   4.143   3.100  1.3185  0.2285 -0.1571
  193MOL0     H26017   7.400   4.163   2.942 -0.2686 -2.3452 -1.2979
  193MOL0     H26018   7.540   4.058   2.950 -1.0055  0.3716 -1.3429
  193MOL0     H26019   7.583   4.106   2.436  0.2767  0.4748  1.6274
  193MOL0     H26020   7.403   4.030   2.258  2.5518  1.1696  0.3367
  193MOL0     H26021   7.132   3.703   2.308 -2.6012 -0.8713 -0.1622
  193MOL0     H26022   7.043   3.827   2.394 -0.7355  1.6384 -0.3429
  193MOL0     H26023   6.940   3.740   2.180 -2.1900  1.1379 -2.9104
  193MOL0     H26024   6.945   3.917   2.191  0.5602  0.5010  0.9685
  193MOL0     H26025   7.199   3.798   2.072  0.7652  3.1078  1.4546
  193MOL0     H26026   7.098   3.927   2.005  0.5208  1.5045  2.6892
  193MOL0     H26027   7.046   3.618   1.997  0.1548  0.8684  2.8159
  193MOL0     H26028   6.928   3.745   1.937 -0.7769 -1.9699 -0.2618
  193MOL0     H26029   7.214   3.711   1.840 -0.4516 -0.8639 -1.9097
  193MOL0     H26030   7.117   3.821   1.782  2.6313  2.2795  2.9371
  193MOL0     H26031   7.042   3.517   1.797  1.0238  0.1268 -0.1871
  193MOL0     H26032   6.951   3.646   1.723  0.4295  0.2079 -0.9200
  193MOL0     H26033   7.222   3.500   1.651  1.0710  0.4446  0.1152
  193MOL0     H26034   7.194   3.670   1.591 -2.4412  0.0225 -0.7872
  193MOL0     H26035   7.119   3.500   1.418 -1.2826 -0.2510 -1.5365
  193MOL0     H26036   6.981   3.588   1.468  0.7962  0.9177 -0.2434
  193MOL0     H26037   7.175   3.875   2.574 -1.7373  0.3654 -3.7948
  193MOL0     H26038   7.307   3.971   2.739 -0.0241  2.0577 -0.5430
  193MOL0     H26039   7.653   4.474   2.718 -2.4866 -1.2767 -0.6098
  193MOL0     H26040   7.759   4.611   2.910 -2.3452  1.0903 -0.9485
  193MOL0     H26041   7.311   3.492   4.076  0.0859  0.7178  1.9615
  193MOL0     H26042   7.216   3.263   4.081 -2.1471 -2.2691 -1.5348
  193MOL0     H26043   6.787   3.026   4.094 -1.3392 -0.0480 -1.0613
  193MOL0     H26044   6.702   2.789   4.112 -0.8267  1.6348  0.8097
  193MOL0     H26045   6.812   2.472   3.779  1.8720 -4.1664 -0.4759
  193MOL0     H26046   6.925   2.457   3.913  0.0242  0.5142  0.0049
  193MOL0     H26047   6.775   2.316   4.025  1.0519 -2.5954 -0.7091
  193MOL0     H26048   6.776   2.254   3.861 -1.8195  0.9714 -3.2489
  193MOL0     H26049   6.576   2.342   3.806  4.8606 -1.6337 -1.4829
  193MOL0     H26050   6.581   2.486   3.919  3.5445  1.2086  2.0434
  193MOL0     H26051   6.410   2.345   3.970  1.8135  3.9308 -2.6419
  193MOL0     H26052   6.518   2.359   4.105 -0.8329 -3.4396  2.0403
  193MOL0     H26053   6.532   1.942   4.071 -2.1443 -0.6539 -2.4323
  193MOL0     H26054   6.944   2.690   3.764  0.0773  3.5689 -1.4894
  193MOL0     H26055   7.026   2.899   3.759 -1.1282  3.0716  0.3108
  194MOL0     O26056   1.515   8.275   5.795 -0.5613 -0.3801 -0.5822
  194MOL0     C26057   1.511   8.395   5.785  1.1213 -0.6675 -0.1362
  194MOL0     O26058   1.410   8.471   5.736  0.7327  0.8680 -0.1087
  194MOL0     C26059   1.301   8.413   5.665  0.1995  0.3652 -0.1073
  194MOL0     C26060   1.217   8.303   5.728 -0.8558  0.5939  0.5375
  194MOL0     C26061   1.116   8.247   5.653 -0.9865 -0.8213  0.7745
  194MOL0     C26062   1.093   8.306   5.528 -0.8192  0.5413 -0.6416
  194MOL0     O26063   1.000   8.241   5.458 -0.4964 -0.3691  0.1111
  194MOL0     C26064   1.038   8.224   5.319  0.3953 -0.7315  0.6413
  194MOL0     C26065   0.951   8.116   5.249  0.3367  0.3832 -0.2765
  194MOL0     C26066   0.931   7.979   5.312  0.2463 -0.4738  0.7941
  194MOL0     C26067   1.046   7.891   5.357 -0.7845  0.1927 -0.1859
  194MOL0     C26068   0.998   7.759   5.421 -0.2701 -0.0572  0.2264
  194MOL0     C26069   0.959   7.778   5.566  0.3919 -0.6679  0.0816
  194MOL0     C26070   1.054   7.839   5.676 -0.1249  0.6015 -0.0069
  194MOL0     C26071   1.021   7.781   5.817 -0.8245 -0.7917  0.3127
  194MOL0     N26072   1.105   7.863   5.911  0.1720  0.2146 -0.3513
  194MOL0     C26073   1.238   7.865   5.931  0.4615 -0.7187 -0.2855
  194MOL0     C26074   1.267   7.992   5.967  0.3604  0.0351 -0.6137
  194MOL0     C26075   1.413   8.044   5.970  0.3236 -0.1261  0.3078
  194MOL0     C26076   1.503   8.006   6.087  0.9067  0.1805  0.3976
  194MOL0     C26077   1.468   8.097   6.210 -0.4243  0.5710 -1.2595
  194MOL0     C26078   1.519   8.025   6.340  0.0944 -0.1203 -0.5990
  194MOL0     O26079   1.455   8.062   6.459 -0.6515 -1.1446  0.1285
  194MOL0     C26080   1.510   8.034   6.580  0.2234  0.1505 -0.3475
  194MOL0     C26081   1.611   7.937   6.594  0.8681 -0.9908  0.3639
  194MOL0     C26082   1.660   7.908   6.720 -0.5450  0.1488 -0.3781
  194MOL0     C26083   1.775   7.804   6.728  0.1446 -0.1322 -0.0765
  194MOL0     C26084   1.604   7.971   6.838 -0.0056  0.0875  0.1300
  194MOL0     C26085   1.634   7.954   6.984 -0.2934 -0.2909 -0.3729
  194MOL0     O26086   1.595   8.053   7.067 -0.8654  0.5488 -0.1122
  194MOL0     C26087   1.616   8.069   7.201 -0.0081  0.4513  0.4259
  194MOL0     C26088   1.706   8.001   7.282 -0.9776 -0.3396  0.2504
  194MOL0     C26089   1.720   8.038   7.412  0.7530  0.0554 -0.3792
  194MOL0     C26090   1.636   8.132   7.478 -1.1341  1.0347  0.1871
  194MOL0     O26091   1.666   8.161   7.612 -0.3104 -0.5839 -0.3137
  194MOL0     C26092   1.674   8.300   7.648 -0.2059  0.1489  0.5869
  194MOL0     C26093   1.780   8.320   7.767  0.1757  0.2205 -0.1017
  194MOL0     C26094   1.724   8.237   7.893 -0.5744 -0.1080 -0.3815
  194MOL0     C26095   1.814   8.239   8.014 -0.8325 -0.2774 -0.1712
  194MOL0     C26096   1.956   8.182   7.978 -0.7337 -1.5942  0.4199
  194MOL0     C26097   2.050   8.168   8.096 -0.8670  1.1407  0.5604
  194MOL0     C26098   2.148   8.047   8.081  0.3030 -0.2766  0.1244
  194MOL0     C26099   2.289   8.078   8.031 -0.4665 -0.0223  0.6970
  194MOL0    Cl26100   2.267   8.135   7.862 -0.0372 -0.1186 -0.0745
  194MOL0     C26101   1.550   8.201   7.394 -0.7434  0.8154 -0.1606
  194MOL0     C26102   1.538   8.167   7.258 -0.1513  0.0762  0.4164
  194MOL0     O26103   1.686   7.847   7.019  0.0193  0.6331 -0.0537
  194MOL0     C26104   1.497   8.063   6.814 -0.2125 -0.2185 -0.3539
  194MOL0     C26105   1.447   8.096   6.689 -0.2572 -0.1051 -0.3633
  194MOL0     N26106   1.143   8.057   5.963 -0.4287 -1.1119 -0.1562
  194MOL0     N26107   1.047   7.976   5.946 -0.3876 -0.4648 -0.7091
  194MOL0     C26108   1.170   8.414   5.476  0.3130  0.5678  0.1962
  194MOL0     C26109   1.275   8.470   5.550  0.4601 -0.5788  0.1879
  194MOL0     C26110   1.643   8.461   5.805 -0.3542 -0.0256  0.0189
  194MOL0     C26111   1.760   8.401   5.859  0.3553  0.3478 -0.3557
  194MOL0     C26112   1.882   8.477   5.869 -0.0947  0.8197 -0.0789
  194MOL0     C26113   1.881   8.614   5.852  1.0032  0.0321 -0.5942
  194MOL0     O26114   2.002   8.671   5.876 -0.2127  0.2557  0.0994
  194MOL0     C26115   2.013   8.816   5.886 -0.0260 -0.5176 -0.5042
  194MOL0     C26116   2.133   8.834   5.979  0.1863 -0.1104 -1.0029
  194MOL0     C26117   2.099   8.811   6.129 -0.2680  0.0102  0.6142
  194MOL0     C26118   2.002   8.913   6.190 -0.7886 -0.6823  0.2286
  194MOL0     C26119   1.903   8.854   6.275  0.0915  0.7080 -0.0878
  194MOL0     C26120   1.820   8.818   6.358 -0.6045  0.0978  0.6278
  194MOL0     C26121   1.766   8.684   5.818 -0.1059  0.1987  0.4866
  194MOL0     C26122   1.656   8.603   5.793  1.7637  0.3724 -0.2612
  194MOL0     H26123   1.244   8.280   5.830  3.4010  0.2084 -0.4673
  194MOL0     H26124   1.064   8.162   5.695 -1.6917  0.4775  2.6418
  194MOL0     H26125   1.010   8.312   5.261 -0.9706 -1.4591  0.1411
  194MOL0     H26126   1.142   8.195   5.302 -0.2762 -1.5606 -2.7604
  194MOL0     H26127   0.852   8.161   5.237 -2.1016 -3.3108  3.2202
  194MOL0     H26128   1.003   8.102   5.154  0.7401  0.9487 -0.1446
  194MOL0     H26129   0.865   7.986   5.399 -0.8327 -1.8479  0.1214
  194MOL0     H26130   0.874   7.919   5.241  2.7702  0.2005 -1.9792
  194MOL0     H26131   1.107   7.867   5.269  1.0752 -2.4327  1.6503
  194MOL0     H26132   1.106   7.940   5.434 -1.4495  2.3231 -0.9291
  194MOL0     H26133   0.915   7.720   5.362  2.2761  0.0892 -3.8796
  194MOL0     H26134   1.077   7.684   5.410 -0.8934 -0.5032 -1.7157
  194MOL0     H26135   0.870   7.841   5.573 -1.2683 -3.0846  2.8556
  194MOL0     H26136   0.931   7.677   5.598 -2.0585  0.2700  1.0693
  194MOL0     H26137   1.156   7.805   5.652 -0.5816 -0.6591 -0.2526
  194MOL0     H26138   1.052   7.947   5.656 -0.8213  0.3960 -1.1794
  194MOL0     H26139   1.045   7.676   5.835 -0.2079 -0.8244 -0.6050
  194MOL0     H26140   0.917   7.790   5.850 -0.2471 -1.8889  2.6349
  194MOL0     H26141   1.310   7.785   5.918  0.6687 -0.4689 -0.7064
  194MOL0     H26142   1.466   8.018   5.877 -2.3826 -1.2118 -1.0584
  194MOL0     H26143   1.399   8.152   5.974  0.7676  0.1500 -2.7955
  194MOL0     H26144   1.607   8.012   6.055  0.3336  0.3743 -1.5250
  194MOL0     H26145   1.495   7.900   6.111  0.3939  0.1980  0.3238
  194MOL0     H26146   1.361   8.104   6.230 -0.1048  2.4842  0.0100
  194MOL0     H26147   1.513   8.197   6.209  1.0414  0.0316  1.6765
  194MOL0     H26148   1.627   8.033   6.356 -0.0879  0.2896  0.5148
  194MOL0     H26149   1.496   7.919   6.326 -0.9241 -0.1357  0.9163
  194MOL0     H26150   1.666   7.890   6.513  2.0954  1.3981 -0.2866
  194MOL0     H26151   1.758   7.726   6.653  1.0772 -1.0698  0.6431
  194MOL0     H26152   1.872   7.855   6.720 -0.4223  0.8942 -0.5619
  194MOL0     H26153   1.785   7.747   6.821 -0.2838  2.9090  1.9673
  194MOL0     H26154   1.766   7.923   7.238  1.9325  0.3309  2.7049
  194MOL0     H26155   1.793   7.987   7.474  3.3622  1.7491 -1.9160
  194MOL0     H26156   1.714   8.359   7.565  2.3951 -4.0208 -1.4481
  194MOL0     H26157   1.574   8.333   7.676 -0.0356  2.0322 -0.7960
  194MOL0     H26158   1.868   8.276   7.720 -0.3484  1.0908 -2.0170
  194MOL0     H26159   1.783   8.424   7.800 -0.6054 -0.0399  0.8339
  194MOL0     H26160   1.715   8.132   7.865  0.7015 -0.9153  1.9780
  194MOL0     H26161   1.630   8.283   7.924 -1.4003 -1.8106 -0.2872
  194MOL0     H26162   1.822   8.338   8.059  1.2181 -0.1245 -0.7921
  194MOL0     H26163   1.771   8.155   8.068 -1.9749  0.4688  0.1105
  194MOL0     H26164   2.009   8.247   7.907 -3.9961  2.5880  1.3728
  194MOL0     H26165   1.928   8.089   7.928 -1.0761 -0.7004 -1.1400
  194MOL0     H26166   2.094   8.268   8.110 -1.7747  1.2502  3.4325
  194MOL0     H26167   1.992   8.151   8.188 -1.5047 -1.9360 -0.3025
  194MOL0     H26168   2.105   7.972   8.013  0.2681  0.1248 -0.3030
  194MOL0     H26169   2.150   7.998   8.179 -1.6056  0.6019  0.6572
  194MOL0     H26170   2.359   7.994   8.036 -3.6162 -2.9452 -0.4696
  194MOL0     H26171   2.324   8.162   8.093 -0.4658  1.4208 -1.1833
  194MOL0     H26172   1.484   8.278   7.433  0.4488  1.0559  1.5011
  194MOL0     H26173   1.462   8.222   7.204 -0.8234 -0.5341  0.7165
  194MOL0     H26174   1.445   8.118   6.892  1.7136  3.5963 -1.5081
  194MOL0     H26175   1.361   8.150   6.653  1.2759  0.2793 -3.8527
  194MOL0     H26176   1.151   8.463   5.381 -0.1691  5.9921  2.7344
  194MOL0     H26177   1.331   8.557   5.516 -4.3160  3.6210  1.9292
  194MOL0     H26178   1.742   8.300   5.895 -2.3467  0.4074 -1.2820
  194MOL0     H26179   1.969   8.420   5.900 -1.4276 -0.6130  1.2469
  194MOL0     H26180   2.031   8.862   5.789  3.1320 -2.5171 -1.0202
  194MOL0     H26181   1.928   8.863   5.936  0.3159  1.9322 -2.0875
  194MOL0     H26182   2.166   8.939   5.977  0.7662 -0.2794 -0.5245
  194MOL0     H26183   2.217   8.765   5.965 -1.3158 -2.5818  1.3843
  194MOL0     H26184   2.194   8.819   6.182  0.7325 -2.2609 -0.7190
  194MOL0     H26185   2.060   8.709   6.140 -0.7828  0.3624  2.3758
  194MOL0     H26186   1.959   8.986   6.121  1.4229 -1.5264 -2.1941
  194MOL0     H26187   2.065   8.971   6.258  1.1949 -3.5366  0.9911
  194MOL0     H26188   1.768   8.770   6.438  2.7487 -4.0744  0.5918
  194MOL0     H26189   1.740   8.790   5.811  0.8476  0.3483 -1.7446
  194MOL0     H26190   1.566   8.655   5.761  1.4142  0.7852  1.3272
  195MOL0     O26191   1.671   3.433   3.773  0.5242  0.4481  0.8766
  195MOL0     C26192   1.703   3.419   3.889  0.2247 -0.5992  0.2536
  195MOL0     O26193   1.814   3.362   3.930 -0.4134 -0.5303 -0.7854
  195MOL0     C26194   1.912   3.334   3.835  0.2688  0.0585 -0.3841
  195MOL0     C26195   1.978   3.448   3.785 -0.7802 -0.5236 -0.0597
  195MOL0     C26196   2.082   3.428   3.694 -0.6458  0.3732  1.2961
  195MOL0     C26197   2.109   3.306   3.644 -0.1704  0.3261  0.9159
  195MOL0     O26198   2.219   3.304   3.561  0.2223  0.7221 -0.4112
  195MOL0     C26199   2.234   3.197   3.464  0.8214  0.8009 -0.8062
  195MOL0     C26200   2.377   3.157   3.471 -0.0748  0.4199  0.6307
  195MOL0     C26201   2.410   3.074   3.598  1.1321  0.7915  0.4246
  195MOL0     C26202   2.477   3.154   3.703 -0.1082  0.1757 -0.4742
  195MOL0     C26203   2.440   3.095   3.834 -1.2993  0.1223  0.6896
  195MOL0     C26204   2.551   3.128   3.942 -0.3884  0.2390 -0.5473
  195MOL0     C26205   2.585   3.276   3.972 -0.0583  0.1965  0.1142
  195MOL0     C26206   2.470   3.377   3.966  0.0010  0.0163 -0.3551
  195MOL0     N26207   2.491   3.499   4.052 -0.0111  0.1982  0.0418
  195MOL0     C26208   2.567   3.609   4.021  0.0530 -1.2584 -0.5643
  195MOL0     C26209   2.546   3.702   4.117  0.0186 -0.2522  0.9486
  195MOL0     C26210   2.618   3.836   4.135 -1.1432 -0.2273  0.6344
  195MOL0     C26211   2.767   3.815   4.142  0.1279  0.1749  0.4351
  195MOL0     C26212   2.844   3.941   4.196  0.3199  0.0330 -0.6985
  195MOL0     C26213   2.787   4.000   4.326 -0.0158 -0.2912 -0.0585
  195MOL0     O26214   2.786   3.898   4.425  0.7536 -0.4281 -0.0957
  195MOL0     C26215   2.829   3.930   4.548  0.5674 -0.5799 -0.2193
  195MOL0     C26216   2.922   3.851   4.613  0.7431 -0.2873 -0.3988
  195MOL0     C26217   2.964   3.879   4.740 -0.6877  0.4913 -0.7481
  195MOL0     C26218   3.041   3.771   4.811  0.5075  0.2954 -0.4101
  195MOL0     C26219   2.931   4.001   4.803  0.6800 -0.5924  0.0695
  195MOL0     C26220   2.975   4.048   4.936 -0.7920  0.1509 -0.1748
  195MOL0     O26221   3.034   4.173   4.940 -0.0554  0.0842 -0.4521
  195MOL0     C26222   3.055   4.220   5.068  1.1569  0.0071 -0.0286
  195MOL0     C26223   3.165   4.193   5.143 -0.5892 -0.0866  0.2758
  195MOL0     C26224   3.200   4.263   5.264  0.0469  0.2377 -0.0730
  195MOL0     C26225   3.111   4.362   5.308  1.0515  0.7824 -0.8692
  195MOL0     O26226   3.138   4.440   5.425 -0.0846 -1.0806  0.9908
  195MOL0     C26227   3.254   4.519   5.398  0.1793 -0.2669  0.0467
  195MOL0     C26228   3.324   4.562   5.531  0.3139 -0.2433  0.1890
  195MOL0     C26229   3.301   4.710   5.569  0.7347 -0.6005 -0.0379
  195MOL0     C26230   3.390   4.735   5.697  0.7008  0.0114  0.5200
  195MOL0     C26231   3.346   4.864   5.751 -0.1202 -0.4812 -0.6461
  195MOL0     C26232   3.455   4.920   5.835 -0.0993  0.8371 -0.3312
  195MOL0     C26233   3.408   5.050   5.895 -0.1566  0.2556  0.8846
  195MOL0     C26234   3.520   5.122   5.976  0.4711 -0.0719  0.2825
  195MOL0    Cl26235   3.543   5.286   5.917 -0.0391 -0.0837 -0.1527
  195MOL0     C26236   2.986   4.368   5.244  0.1170  1.0709  1.2292
  195MOL0     C26237   2.960   4.308   5.119 -0.5276 -0.4555  0.0641
  195MOL0     O26238   2.963   3.968   5.030 -0.0646 -0.3381 -0.1602
  195MOL0     C26239   2.847   4.086   4.726  0.0521  0.2837  0.4313
  195MOL0     C26240   2.786   4.043   4.606  0.7429  0.5445  0.5805
  195MOL0     N26241   2.458   3.649   4.206 -0.3888 -0.8322  0.6297
  195MOL0     N26242   2.425   3.532   4.168  0.5675 -0.1091  0.7420
  195MOL0     C26243   2.047   3.192   3.698 -0.3295 -0.5064  0.1535
  195MOL0     C26244   1.945   3.206   3.792 -0.2849  0.5516 -0.7279
  195MOL0     C26245   1.599   3.445   3.984  0.7291 -0.1017 -0.1790
  195MOL0     C26246   1.485   3.522   3.958  0.0486  0.3153  0.6459
  195MOL0     C26247   1.391   3.542   4.045  0.1088 -0.8844  0.8406
  195MOL0     C26248   1.387   3.477   4.169 -0.0429  0.4160 -0.2146
  195MOL0     O26249   1.285   3.492   4.264 -0.8336 -0.1349  0.2895
  195MOL0     C26250   1.157   3.535   4.223  0.5447 -0.3313  0.2652
  195MOL0     C26251   1.066   3.555   4.340  0.0614  0.1546  0.9960
  195MOL0     C26252   1.029   3.418   4.395  0.2953 -0.0772  0.5919
  195MOL0     C26253   1.116   3.346   4.501 -0.3494  0.1463  0.3518
  195MOL0     C26254   1.163   3.427   4.612 -1.3921 -0.3289  1.1305
  195MOL0     C26255   1.199   3.485   4.711 -0.5793  0.5309 -0.4236
  195MOL0     C26256   1.508   3.417   4.212  0.0704 -0.8050 -0.2832
  195MOL0     C26257   1.610   3.396   4.119 -0.0621 -0.5071 -0.7488
  195MOL0     H26258   1.958   3.550   3.818 -1.6321 -1.4453  2.5294
  195MOL0     H26259   2.129   3.517   3.651  0.7627 -0.4293  1.1054
  195MOL0     H26260   2.170   3.109   3.479 -0.5050  1.4245 -2.4437
  195MOL0     H26261   2.224   3.242   3.365  4.8731  3.0911 -0.3895
  195MOL0     H26262   2.392   3.092   3.384  0.5188  1.2183  0.1164
  195MOL0     H26263   2.439   3.246   3.463 -1.1293  1.4338  2.9091
  195MOL0     H26264   2.321   3.034   3.647  1.5443 -2.6922 -1.3747
  195MOL0     H26265   2.460   2.981   3.569  0.8350  0.9805 -0.7544
  195MOL0     H26266   2.585   3.156   3.688  0.3954  3.6129  2.4702
  195MOL0     H26267   2.442   3.257   3.694 -2.0453 -0.6009 -4.1863
  195MOL0     H26268   2.344   3.141   3.859 -2.1817  0.4755 -2.7594
  195MOL0     H26269   2.434   2.986   3.834 -0.1922  0.0402  0.3999
  195MOL0     H26270   2.517   3.091   4.039  0.4323 -0.8629 -0.6636
  195MOL0     H26271   2.638   3.065   3.922 -1.6690 -1.4872 -0.9143
  195MOL0     H26272   2.631   3.277   4.071  2.3616 -0.9572 -0.9137
  195MOL0     H26273   2.659   3.311   3.899 -0.3095  2.7787  0.9759
  195MOL0     H26274   2.383   3.323   4.004 -0.9533 -1.0798 -3.6710
  195MOL0     H26275   2.454   3.413   3.864  1.9252  1.1612 -0.2952
  195MOL0     H26276   2.632   3.615   3.935  1.8194  1.2167  0.7989
  195MOL0     H26277   2.588   3.899   4.051 -2.8007 -0.8271  0.7541
  195MOL0     H26278   2.574   3.881   4.225 -2.1706  0.9596 -0.4329
  195MOL0     H26279   2.811   3.782   4.047 -2.4163  0.0016 -0.7556
  195MOL0     H26280   2.768   3.737   4.220  0.8944  2.2548  2.6312
  195MOL0     H26281   2.846   4.020   4.120 -2.8177 -1.2730 -2.3386
  195MOL0     H26282   2.952   3.929   4.208  0.4730  1.1072 -0.8820
  195MOL0     H26283   2.692   4.054   4.316 -0.8235 -1.6610 -0.0473
  195MOL0     H26284   2.863   4.075   4.351 -1.1262  0.5599  0.8941
  195MOL0     H26285   2.961   3.757   4.576  0.3936 -0.6472  0.1444
  195MOL0     H26286   3.058   3.790   4.918 -1.1702 -2.1151  0.3523
  195MOL0     H26287   2.984   3.678   4.816 -2.7514  2.1497  4.5902
  195MOL0     H26288   3.133   3.745   4.759  0.7664 -1.5100  0.8638
  195MOL0     H26289   3.222   4.104   5.118  0.3708  0.7550 -0.6115
  195MOL0     H26290   3.299   4.241   5.304 -0.6290  0.8820  2.0198
  195MOL0     H26291   3.324   4.465   5.333 -0.5140  0.8329 -1.6814
  195MOL0     H26292   3.224   4.603   5.335 -1.7217 -1.1067 -0.2282
  195MOL0     H26293   3.297   4.493   5.611  1.5213 -0.5382  0.3565
  195MOL0     H26294   3.432   4.555   5.514  0.1283 -1.6541 -0.5201
  195MOL0     H26295   3.198   4.727   5.603  1.0107  1.5361 -0.1479
  195MOL0     H26296   3.316   4.785   5.491  0.4275  0.1488  0.6065
  195MOL0     H26297   3.383   4.655   5.772 -2.4603 -1.5428 -1.2578
  195MOL0     H26298   3.496   4.740   5.670  0.7277  1.7568  0.8271
  195MOL0     H26299   3.245   4.868   5.793  1.4087  3.1421  3.4882
  195MOL0     H26300   3.342   4.931   5.664 -1.3627  0.2712 -0.0360
  195MOL0     H26301   3.479   4.849   5.915  1.9085 -1.8759 -3.1151
  195MOL0     H26302   3.535   4.936   5.762 -1.2835  1.4691 -1.5299
  195MOL0     H26303   3.328   5.033   5.967  0.8671  3.5824  3.0689
  195MOL0     H26304   3.360   5.102   5.811 -0.7970 -1.4924  0.1387
  195MOL0     H26305   3.613   5.066   5.960  0.7120  0.0515  1.1835
  195MOL0     H26306   3.509   5.129   6.085  2.2931  2.4137  0.3901
  195MOL0     H26307   2.912   4.443   5.271 -1.8419 -0.4726  0.3091
  195MOL0     H26308   2.865   4.328   5.071 -0.4776 -1.3963 -0.4486
  195MOL0     H26309   2.827   4.183   4.770  2.7062  1.3182 -0.4192
  195MOL0     H26310   2.712   4.102   4.552  0.2829 -2.3109 -2.1781
  195MOL0     H26311   2.075   3.094   3.659  1.5701 -0.7967  2.0714
  195MOL0     H26312   1.901   3.116   3.834  2.0596  1.0359  3.3629
  195MOL0     H26313   1.476   3.562   3.858  0.2808  1.0466  0.9142
  195MOL0     H26314   1.324   3.616   4.002  1.5588 -1.8542 -3.5785
  195MOL0     H26315   1.162   3.630   4.168 -2.0271 -2.3603 -4.0627
  195MOL0     H26316   1.119   3.466   4.147 -4.4243 -0.5954  2.5808
  195MOL0     H26317   0.971   3.601   4.310 -1.3601 -0.9856  3.4750
  195MOL0     H26318   1.111   3.621   4.414  2.9712 -1.4869  0.8281
  195MOL0     H26319   1.022   3.346   4.313  0.0940 -0.8977  1.3155
  195MOL0     H26320   0.928   3.431   4.434 -0.5491 -0.1968 -1.4349
  195MOL0     H26321   1.203   3.306   4.448  0.2303  0.0240  1.3693
  195MOL0     H26322   1.069   3.256   4.540  2.7496 -0.8669  2.1443
  195MOL0     H26323   1.234   3.544   4.793 -3.1647  3.2712 -1.0938
  195MOL0     H26324   1.515   3.378   4.313  0.6186 -0.0512 -0.0212
  195MOL0     H26325   1.698   3.348   4.161 -0.5151  1.2320  2.5303
  196MOL0     O26326   9.182   8.694   1.302 -0.1957  0.2466  0.6483
  196MOL0     C26327   9.210   8.744   1.415 -0.0717 -0.0695  0.4230
  196MOL0     O26328   9.251   8.676   1.516  0.6318  0.8261 -0.7140
  196MOL0     C26329   9.290   8.547   1.486 -0.0201  0.5358  0.1159
  196MOL0     C26330   9.215   8.428   1.523  0.2533  0.7291  0.8342
  196MOL0     C26331   9.272   8.309   1.491  0.1023  0.6021  0.1792
  196MOL0     C26332   9.407   8.292   1.441  0.9776  0.3611  0.1311
  196MOL0     O26333   9.458   8.171   1.406 -0.2585 -0.0495 -0.7689
  196MOL0     C26334   9.398   8.052   1.470 -0.3978 -0.7222  0.9461
  196MOL0     C26335   9.442   8.033   1.620  0.5143  0.7953  0.6624
  196MOL0     C26336   9.422   7.886   1.666 -0.7996  0.6363 -0.1073
  196MOL0     C26337   9.552   7.811   1.671  0.1451 -0.5669 -0.2814
  196MOL0     C26338   9.535   7.667   1.714  0.5736 -0.2606  0.4277
  196MOL0     C26339   9.668   7.603   1.725 -0.0748  0.0285  0.2769
  196MOL0     C26340   9.648   7.448   1.726 -0.5054  1.6554  0.4773
  196MOL0     C26341   9.779   7.381   1.751  0.1233  0.3639  0.2267
  196MOL0     N26342   9.850   7.367   1.619 -0.5082 -0.2261 -0.7306
  196MOL0     C26343   9.845   7.275   1.520 -0.4051  0.6489  0.4728
  196MOL0     C26344   9.927   7.312   1.421 -0.3184 -0.4758  0.1202
  196MOL0     C26345   9.935   7.237   1.289 -0.6439  1.5282 -0.0307
  196MOL0     C26346   9.986   7.089   1.297  0.2807  0.1656  0.7386
  196MOL0     C26347   9.944   7.004   1.187  1.2208 -0.0090  0.1029
  196MOL0     C26348   9.805   6.939   1.202 -0.6268  0.8414 -0.3500
  196MOL0     O26349   9.703   7.030   1.177  0.1858 -0.5520 -0.4577
  196MOL0     C26350   9.611   7.064   1.271  0.5849  0.4360  0.5780
  196MOL0     C26351   9.541   6.970   1.342 -0.2297  0.4445  0.3944
  196MOL0     C26352   9.439   6.995   1.434  0.5532 -0.0578  0.3005
  196MOL0     C26353   9.373   6.866   1.487 -0.1953 -0.1031 -0.0206
  196MOL0     C26354   9.408   7.128   1.462  0.1052 -0.5385  0.3534
  196MOL0     C26355   9.318   7.180   1.560 -0.5834  0.6890  0.1782
  196MOL0     O26356   9.260   7.298   1.525  0.9380 -0.6016 -0.5226
  196MOL0     C26357   9.176   7.356   1.623 -0.0613  1.7268 -0.3533
  196MOL0     C26358   9.069   7.281   1.671  0.4846  0.5040  0.9081
  196MOL0     C26359   9.002   7.327   1.777  0.1373  0.4966 -0.8214
  196MOL0     C26360   9.013   7.458   1.832 -0.9088  0.3767  0.2122
  196MOL0     O26361   8.945   7.499   1.938  0.0299 -0.1668 -0.6083
  196MOL0     C26362   8.929   7.421   2.062  0.1377 -0.5945 -0.4711
  196MOL0     C26363   8.775   7.402   2.083  0.3284 -0.1356 -0.8846
  196MOL0     C26364   8.741   7.355   2.233  0.3077  1.1015 -0.7819
  196MOL0     C26365   8.743   7.457   2.345 -0.1848  0.5269  0.4970
  196MOL0     C26366   8.640   7.415   2.457 -0.6063  0.3752  0.0249
  196MOL0     C26367   8.669   7.486   2.587 -0.1473  0.2198  0.9744
  196MOL0     C26368   8.582   7.606   2.575 -0.4615 -1.3758  0.6018
  196MOL0     C26369   8.633   7.706   2.683 -0.7758  0.2544 -0.1547
  196MOL0    Cl26370   8.768   7.785   2.602 -0.1404  0.2020 -0.3183
  196MOL0     C26371   9.114   7.538   1.784 -1.3596 -0.2959 -0.4365
  196MOL0     C26372   9.200   7.484   1.681 -0.9269  0.8913 -0.6851
  196MOL0     O26373   9.346   7.138   1.672 -0.3344 -0.6070 -0.5330
  196MOL0     C26374   9.473   7.233   1.381  0.8582 -0.3535  0.3600
  196MOL0     C26375   9.566   7.197   1.279  0.0294 -0.5145  0.2814
  196MOL0     N26376   9.975   7.438   1.454 -0.8783 -0.0978 -0.6754
  196MOL0     N26377   9.941   7.465   1.578 -0.5112  0.4730 -0.3187
  196MOL0     C26378   9.481   8.405   1.409  0.6603 -1.2850  0.7466
  196MOL0     C26379   9.426   8.529   1.425 -0.4753 -0.8872 -0.3444
  196MOL0     C26380   9.205   8.888   1.431 -0.5867 -0.5178  0.4000
  196MOL0     C26381   9.208   8.966   1.312 -0.8575 -0.5444 -0.3564
  196MOL0     C26382   9.218   9.103   1.330  0.2576  0.2610  0.6292
  196MOL0     C26383   9.227   9.163   1.457  0.0242 -0.7388 -0.2390
  196MOL0     O26384   9.237   9.298   1.475  0.1979  0.5989 -0.8210
  196MOL0     C26385   9.330   9.357   1.387  0.8328 -0.7486  0.3096
  196MOL0     C26386   9.412   9.449   1.463  0.4381 -0.8526  0.5282
  196MOL0     C26387   9.538   9.387   1.509  0.0027  0.7882 -0.1583
  196MOL0     C26388   9.619   9.440   1.627  0.2610  0.3963 -0.5275
  196MOL0     C26389   9.530   9.454   1.749 -0.4234  0.1498 -0.8511
  196MOL0     C26390   9.456   9.464   1.845 -0.2858  0.0642  0.2413
  196MOL0     C26391   9.223   9.082   1.572 -0.4228  0.0229 -0.3770
  196MOL0     C26392   9.212   8.944   1.557 -0.7416  0.9163  0.7093
  196MOL0     H26393   9.115   8.428   1.564 -1.8238  1.6573 -3.5833
  196MOL0     H26394   9.220   8.221   1.529  0.2146  0.9560  1.1897
  196MOL0     H26395   9.294   8.033   1.443 -1.0473  2.0766  1.1946
  196MOL0     H26396   9.445   7.971   1.412  1.1068  0.1052  0.9534
  196MOL0     H26397   9.545   8.070   1.628  0.8627  0.8372 -2.7801
  196MOL0     H26398   9.378   8.098   1.681  0.6485  1.3883  0.1738
  196MOL0     H26399   9.382   7.884   1.768 -0.7831  0.4649 -0.1050
  196MOL0     H26400   9.350   7.840   1.598 -0.0187 -0.9899  0.1095
  196MOL0     H26401   9.601   7.834   1.576 -0.6597  0.8082 -0.3827
  196MOL0     H26402   9.613   7.863   1.746 -0.2289  1.6566 -1.4259
  196MOL0     H26403   9.496   7.656   1.815 -2.8973 -1.2286 -0.8805
  196MOL0     H26404   9.471   7.612   1.645  0.7762  0.0276  0.0040
  196MOL0     H26405   9.731   7.621   1.638 -0.3943  2.8422  0.5359
  196MOL0     H26406   9.715   7.639   1.817  4.4284 -0.4051 -1.6324
  196MOL0     H26407   9.579   7.412   1.803 -0.0270 -1.0370 -0.2509
  196MOL0     H26408   9.604   7.429   1.628 -1.0415  3.9296  0.2171
  196MOL0     H26409   9.770   7.284   1.800  1.0514  0.2523  0.2001
  196MOL0     H26410   9.833   7.442   1.825  0.5471 -2.9234  2.8915
  196MOL0     H26411   9.780   7.189   1.525  1.3675 -0.7359  0.9117
  196MOL0     H26412   9.838   7.241   1.238 -0.5864 -1.6267 -0.5725
  196MOL0     H26413  10.010   7.291   1.232 -0.6828  0.1060 -1.4951
  196MOL0     H26414   9.957   7.054   1.397  0.3626  1.5861  1.2781
  196MOL0     H26415  10.096   7.085   1.294  0.2967  0.0278  1.2749
  196MOL0     H26416  10.019   6.926   1.168  1.2359 -0.6116  2.3142
  196MOL0     H26417   9.950   7.057   1.092  1.7973 -2.7940 -1.5296
  196MOL0     H26418   9.792   6.883   1.296  0.4493 -0.8661 -1.1618
  196MOL0     H26419   9.797   6.865   1.122 -1.6107  0.4317  0.1015
  196MOL0     H26420   9.578   6.870   1.325  2.3850  1.0672  1.8195
  196MOL0     H26421   9.309   6.882   1.574 -3.1358 -2.5845 -1.5459
  196MOL0     H26422   9.317   6.815   1.408  2.1526 -1.7451 -0.7321
  196MOL0     H26423   9.450   6.799   1.525  0.2202 -0.5421 -1.5562
  196MOL0     H26424   9.035   7.182   1.643 -0.8394  0.4485  2.5277
  196MOL0     H26425   8.924   7.258   1.809  0.9583  0.0805  0.3598
  196MOL0     H26426   8.988   7.329   2.060  0.4460 -0.4582  0.9671
  196MOL0     H26427   8.965   7.484   2.144 -1.6941  0.8158 -0.6859
  196MOL0     H26428   8.723   7.498   2.076  0.8536  0.1836 -0.4987
  196MOL0     H26429   8.742   7.331   2.006 -1.6055 -1.4476  1.0303
  196MOL0     H26430   8.814   7.280   2.265  3.0707  3.6430 -0.6268
  196MOL0     H26431   8.646   7.301   2.225 -0.0663  1.0195  2.7161
  196MOL0     H26432   8.839   7.464   2.397 -0.9290  2.4760  1.7181
  196MOL0     H26433   8.725   7.548   2.287  2.1550  1.6232  1.3441
  196MOL0     H26434   8.663   7.315   2.494 -2.9779 -1.0729 -2.0138
  196MOL0     H26435   8.538   7.421   2.417 -1.1705 -0.0427  1.3742
  196MOL0     H26436   8.642   7.429   2.676  1.3340 -5.7243 -1.9010
  196MOL0     H26437   8.775   7.510   2.599  0.1571  0.8375 -2.0864
  196MOL0     H26438   8.484   7.573   2.612 -0.3308 -0.4336  1.8665
  196MOL0     H26439   8.586   7.646   2.473  0.8375 -0.4265  0.9938
  196MOL0     H26440   8.665   7.660   2.777 -3.9919  1.1408  1.5323
  196MOL0     H26441   8.560   7.783   2.710 -3.0566 -0.6850 -3.1232
  196MOL0     H26442   9.133   7.633   1.832 -0.8406 -0.3516 -0.5255
  196MOL0     H26443   9.288   7.543   1.662 -1.2706  1.7377  0.2607
  196MOL0     H26444   9.444   7.338   1.374  1.0816 -0.2784  0.5853
  196MOL0     H26445   9.598   7.285   1.225  0.7277 -1.6261 -1.1681
  196MOL0     H26446   9.578   8.395   1.362 -0.8295  0.9350 -3.2512
  196MOL0     H26447   9.478   8.619   1.395 -0.5264 -1.0083 -0.8086
  196MOL0     H26448   9.186   8.920   1.216  1.0260 -0.4502 -0.8715
  196MOL0     H26449   9.213   9.167   1.242  1.8500  1.0738  1.0930
  196MOL0     H26450   9.394   9.284   1.336 -1.5467 -2.1183 -0.8736
  196MOL0     H26451   9.274   9.405   1.306 -0.0646 -0.4757  1.0755
  196MOL0     H26452   9.349   9.485   1.544 -2.0151 -3.4583 -0.0715
  196MOL0     H26453   9.444   9.535   1.402 -0.2260 -0.4972  0.6715
  196MOL0     H26454   9.611   9.386   1.427 -2.1233 -1.2158 -2.1572
  196MOL0     H26455   9.513   9.284   1.535 -1.4827  0.8507 -1.2579
  196MOL0     H26456   9.656   9.541   1.608  1.9148  0.1671  1.1702
  196MOL0     H26457   9.704   9.371   1.634 -1.5290 -1.8631  0.1419
  196MOL0     H26458   9.405   9.469   1.939 -1.3930 -0.3081 -0.3174
  196MOL0     H26459   9.238   9.128   1.670  1.5240  3.5528 -2.1335
  196MOL0     H26460   9.216   8.872   1.638  0.3143 -0.2363 -0.3197
  197MOL0     O26461  11.340   0.757   8.416 -0.1774  0.3590  0.6831
  197MOL0     C26462  11.355   0.643   8.362  0.2972  0.5081 -0.3619
  197MOL0     O26463  11.428   0.620   8.249 -0.7481  0.1786 -0.4818
  197MOL0     C26464  11.453   0.713   8.157 -0.1415 -0.9223 -0.6290
  197MOL0     C26465  11.397   0.841   8.149 -0.6343 -0.6063  0.2974
  197MOL0     C26466  11.441   0.941   8.062  0.9413  0.3229 -0.5526
  197MOL0     C26467  11.543   0.912   7.976  0.5515  0.1970 -0.5495
  197MOL0     O26468  11.582   1.010   7.885  0.3789  0.0986 -0.0479
  197MOL0     C26469  11.718   1.062   7.904  0.1050  0.2572  0.0438
  197MOL0     C26470  11.703   1.201   7.957  0.2433 -0.7380  0.3011
  197MOL0     C26471  11.638   1.287   7.847 -0.2941  0.2092 -0.7949
  197MOL0     C26472  11.611   1.426   7.920  0.3907 -0.8638 -0.3185
  197MOL0     C26473  11.573   1.514   7.811 -0.3839 -0.1028 -1.0576
  197MOL0     C26474  11.574   1.670   7.858 -0.9256  0.5589  0.7504
  197MOL0     C26475  11.545   1.765   7.740 -0.3356  0.3361 -0.1649
  197MOL0     C26476  11.584   1.907   7.753  0.6433  0.3374  0.0199
  197MOL0     N26477  11.474   1.982   7.816  0.0124  0.3237  0.4434
  197MOL0     C26478  11.450   1.996   7.948  0.4545 -0.1280 -0.5882
  197MOL0     C26479  11.349   2.087   7.956  0.3786  0.4578  0.8057
  197MOL0     C26480  11.275   2.135   8.077  0.4245 -0.4544 -0.4019
  197MOL0     C26481  11.285   2.285   8.076  1.2804 -0.0612 -0.8496
  197MOL0     C26482  11.219   2.343   8.196 -0.3041 -0.6861 -0.0368
  197MOL0     C26483  11.175   2.489   8.196  0.0494 -0.4385  1.2445
  197MOL0     O26484  11.090   2.513   8.079 -0.3273 -0.2121  0.0034
  197MOL0     C26485  11.040   2.641   8.066  0.0048 -1.0744 -0.2245
  197MOL0     C26486  11.056   2.721   7.942  0.3547  0.2598 -0.3845
  197MOL0     C26487  10.975   2.840   7.923  0.4844  0.2783  0.1748
  197MOL0     C26488  10.981   2.913   7.790  0.8025  1.3086  0.0934
  197MOL0     C26489  10.914   2.903   8.034  1.3785  0.0017  0.7321
  197MOL0     C26490  10.833   3.034   8.039 -1.0211 -0.5675 -0.5650
  197MOL0     O26491  10.819   3.086   8.169 -0.6381 -0.4749 -0.4708
  197MOL0     C26492  10.730   3.188   8.173  0.2021 -0.0573 -0.5999
  197MOL0     C26493  10.780   3.316   8.210 -0.2333 -0.0040  0.1117
  197MOL0     C26494  10.696   3.427   8.226 -0.1726  0.7594  0.7638
  197MOL0     C26495  10.554   3.407   8.211  0.4682 -0.3845  0.0326
  197MOL0     O26496  10.472   3.517   8.222 -0.2851 -0.3754 -0.0623
  197MOL0     C26497  10.331   3.497   8.220  1.0335  0.4032  0.2540
  197MOL0     C26498  10.285   3.475   8.078 -0.6897  0.8540  0.1520
  197MOL0     C26499  10.135   3.440   8.055 -0.3289 -0.3870  1.1354
  197MOL0     C26500  10.056   3.563   8.096 -0.5123  0.3527  0.1553
  197MOL0     C26501   9.911   3.553   8.045 -0.8724  0.1887 -0.2806
  197MOL0     C26502   9.908   3.563   7.883  0.1572  0.4323  0.2257
  197MOL0     C26503   9.785   3.606   7.811 -0.1472 -0.2641 -0.1190
  197MOL0     C26504   9.649   3.550   7.868 -1.3219 -0.4323 -0.3911
  197MOL0    Cl26505   9.512   3.586   7.765 -0.1429  0.2224  0.2112
  197MOL0     C26506  10.507   3.271   8.196 -0.5257 -0.7899  0.1391
  197MOL0     C26507  10.596   3.164   8.173 -0.9156 -0.0161  0.6146
  197MOL0     O26508  10.782   3.082   7.938 -0.9393  0.1571 -0.3583
  197MOL0     C26509  10.913   2.831   8.159 -0.6159 -0.0228  0.6453
  197MOL0     C26510  10.972   2.706   8.173 -0.8835 -0.1491  0.1352
  197MOL0     N26511  11.319   2.127   7.830 -0.7446 -0.0212  0.3974
  197MOL0     N26512  11.391   2.061   7.746 -0.2418 -0.0467 -0.8067
  197MOL0     C26513  11.597   0.783   7.977 -0.9946 -0.2852  0.2697
  197MOL0     C26514  11.549   0.683   8.063  0.4952  0.2402 -0.0243
  197MOL0     C26515  11.275   0.528   8.409 -0.2225 -0.3824 -0.6778
  197MOL0     C26516  11.283   0.395   8.356 -0.0989  0.0268 -0.0526
  197MOL0     C26517  11.205   0.293   8.404  0.1308 -0.9910  1.0186
  197MOL0     C26518  11.100   0.321   8.495  1.0172 -0.6342  0.9978
  197MOL0     O26519  10.999   0.228   8.533 -0.1809  0.7399 -0.4959
  197MOL0     C26520  10.854   0.256   8.563 -0.5332 -0.3156  0.1204
  197MOL0     C26521  10.753   0.226   8.455  0.0982 -0.1982  0.9168
  197MOL0     C26522  10.773   0.088   8.392  0.0724  0.4019 -0.1082
  197MOL0     C26523  10.664   0.061   8.289 -0.5925 -0.3272 -0.4944
  197MOL0     C26524  10.687   0.127   8.162  0.4083 -0.0757 -0.0427
  197MOL0     C26525  10.708   0.192   8.054  0.0307 -0.1519 -0.3138
  197MOL0     C26526  11.098   0.448   8.555 -0.3202  0.1598 -0.0058
  197MOL0     C26527  11.178   0.555   8.513 -1.0655  0.5883  0.1019
  197MOL0     H26528  11.310   0.871   8.207 -1.6235  2.0741 -2.3084
  197MOL0     H26529  11.386   1.035   8.059  1.7811  1.0231  2.6324
  197MOL0     H26530  11.783   1.001   7.968  0.6794  1.7707  0.9531
  197MOL0     H26531  11.769   1.073   7.808 -1.2206 -1.5975 -0.9332
  197MOL0     H26532  11.650   1.203   8.052 -1.0463 -0.9497 -0.3871
  197MOL0     H26533  11.807   1.233   7.968  1.2866 -2.3583 -3.1482
  197MOL0     H26534  11.696   1.300   7.756 -0.6717 -0.8026 -1.1966
  197MOL0     H26535  11.546   1.237   7.814 -1.5603 -0.7926  3.5249
  197MOL0     H26536  11.522   1.420   7.983 -1.7988  0.0014 -3.1089
  197MOL0     H26537  11.703   1.462   7.967 -0.2274  1.3524 -0.6692
  197MOL0     H26538  11.637   1.506   7.722 -1.8805 -1.0564 -2.1048
  197MOL0     H26539  11.473   1.483   7.781 -1.8586  2.7520  0.5201
  197MOL0     H26540  11.493   1.680   7.931 -0.4148  2.5584  1.1099
  197MOL0     H26541  11.670   1.687   7.909 -0.5635 -1.0708  0.6638
  197MOL0     H26542  11.608   1.731   7.658 -2.3832  0.9939 -2.1170
  197MOL0     H26543  11.441   1.755   7.705 -0.6770 -0.1415  0.9172
  197MOL0     H26544  11.607   1.939   7.651  0.5423  0.4829  0.0429
  197MOL0     H26545  11.674   1.911   7.815 -0.8768  4.4163  2.3240
  197MOL0     H26546  11.484   1.949   8.040  1.9348  1.2726 -0.3691
  197MOL0     H26547  11.173   2.097   8.071  1.7985 -4.6071 -0.9683
  197MOL0     H26548  11.322   2.098   8.169 -0.4136 -0.1217  0.1668
  197MOL0     H26549  11.234   2.324   7.987 -0.1417 -0.6189 -0.3101
  197MOL0     H26550  11.389   2.318   8.067  2.4677 -2.6032  1.7529
  197MOL0     H26551  11.291   2.334   8.278 -0.3432 -2.0576 -0.1205
  197MOL0     H26552  11.126   2.289   8.215 -0.0605 -1.4016 -0.7912
  197MOL0     H26553  11.267   2.547   8.181 -0.0119 -1.2244 -4.4254
  197MOL0     H26554  11.128   2.526   8.287 -1.7626  2.6335 -0.7341
  197MOL0     H26555  11.119   2.678   7.864  0.5424 -0.2784  0.0545
  197MOL0     H26556  10.880   2.940   7.757 -0.9823 -0.2723  3.6017
  197MOL0     H26557  11.057   2.991   7.798  1.4860  0.4672  2.7960
  197MOL0     H26558  11.004   2.842   7.710 -2.5307  0.4558 -0.2874
  197MOL0     H26559  10.885   3.335   8.228  0.0903 -2.3473  1.1045
  197MOL0     H26560  10.720   3.532   8.237 -1.0231  1.1969 -1.0965
  197MOL0     H26561  10.304   3.411   8.283 -1.2342  0.2687 -0.8016
  197MOL0     H26562  10.277   3.577   8.271 -0.0498 -1.1927  1.7149
  197MOL0     H26563  10.320   3.562   8.022  2.2793 -1.2860 -1.5972
  197MOL0     H26564  10.348   3.399   8.032  1.1413  1.5421  1.3920
  197MOL0     H26565  10.103   3.353   8.112  0.9626 -0.8878  1.1270
  197MOL0     H26566  10.134   3.429   7.946  0.8379  0.8688  0.9567
  197MOL0     H26567  10.059   3.579   8.204 -1.9323  0.3309  0.2096
  197MOL0     H26568  10.108   3.652   8.058  1.4379 -0.0812  1.6454
  197MOL0     H26569   9.867   3.642   8.091  2.4664  1.8612  0.0199
  197MOL0     H26570   9.874   3.458   8.085  0.9993  0.1523  1.5879
  197MOL0     H26571   9.990   3.629   7.855  1.6626 -1.7538 -0.8286
  197MOL0     H26572   9.925   3.457   7.859 -0.7908  0.1591  0.6933
  197MOL0     H26573   9.799   3.570   7.709 -2.5395 -0.1763 -0.5440
  197MOL0     H26574   9.784   3.715   7.810 -2.4059 -0.2311 -0.1524
  197MOL0     H26575   9.622   3.603   7.960 -1.7755 -2.8357  0.9409
  197MOL0     H26576   9.653   3.441   7.883 -1.3937 -0.2487  1.1291
  197MOL0     H26577  10.401   3.253   8.184 -0.5300 -0.4440 -0.3424
  197MOL0     H26578  10.557   3.064   8.157  0.9079 -1.0229  2.1300
  197MOL0     H26579  10.867   2.870   8.250  0.5329  0.9607  0.8237
  197MOL0     H26580  10.970   2.662   8.272  1.4940 -0.1993  0.2062
  197MOL0     H26581  11.684   0.766   7.914 -1.8156  1.3834 -1.4424
  197MOL0     H26582  11.591   0.583   8.077 -1.5126 -0.7766 -0.8444
  197MOL0     H26583  11.354   0.384   8.275 -1.0390 -1.5756 -0.7053
  197MOL0     H26584  11.212   0.199   8.349 -1.5866 -0.3936 -0.3018
  197MOL0     H26585  10.833   0.193   8.650 -0.4939 -1.2765 -0.5509
  197MOL0     H26586  10.850   0.354   8.611 -1.4400 -1.2205  1.9867
  197MOL0     H26587  10.763   0.308   8.383  0.4387  0.8736  2.1555
  197MOL0     H26588  10.651   0.219   8.495  0.1534 -0.8951  0.9587
  197MOL0     H26589  10.758   0.010   8.467 -1.8755  0.0980 -0.7702
  197MOL0     H26590  10.874   0.084   8.349  0.0384 -0.1100 -0.1428
  197MOL0     H26591  10.572   0.084   8.344 -0.1235 -3.4015  1.8490
  197MOL0     H26592  10.666  -0.047   8.269  2.2485 -0.2351 -1.2256
  197MOL0     H26593  10.726   0.247   7.964  1.2907  2.3908  1.3748
  197MOL0     H26594  11.033   0.476   8.637 -0.9211  0.0014 -0.4170
  197MOL0     H26595  11.155   0.652   8.555 -1.4388  0.0536  1.1615
  198MOL0     O26596   3.217   6.954   3.646 -0.5965  0.1068  0.3427
  198MOL0     C26597   3.105   6.977   3.700  0.7863  0.8898 -0.5075
  198MOL0     O26598   3.079   7.053   3.807  0.4371  0.5956 -0.0000
  198MOL0     C26599   3.192   7.109   3.859  0.9987  0.7112  0.1060
  198MOL0     C26600   3.240   7.221   3.802 -0.2424  0.1185 -1.4447
  198MOL0     C26601   3.361   7.281   3.834 -0.6313 -0.7323  0.4303
  198MOL0     C26602   3.436   7.221   3.940 -0.6884  0.5667 -0.2857
  198MOL0     O26603   3.557   7.285   3.964  0.6091  0.0815 -0.5010
  198MOL0     C26604   3.662   7.202   4.027  0.3571 -0.2630 -0.0207
  198MOL0     C26605   3.798   7.268   4.024 -0.4642 -0.3780 -0.7882
  198MOL0     C26606   3.850   7.285   3.883 -1.2468  0.0434  0.6742
  198MOL0     C26607   4.002   7.297   3.886 -0.8116 -1.2848  0.2938
  198MOL0     C26608   4.039   7.356   3.748 -0.1107  0.4890 -0.1106
  198MOL0     C26609   4.174   7.437   3.762  0.8520 -0.3861  0.0514
  198MOL0     C26610   4.153   7.575   3.817 -0.0406 -0.7024 -0.7827
  198MOL0     C26611   4.272   7.638   3.903  1.4347  0.2664 -0.0208
  198MOL0     N26612   4.258   7.598   4.041  0.0639 -0.2199 -0.2507
  198MOL0     C26613   4.239   7.474   4.097  0.0337  0.9670 -0.0752
  198MOL0     C26614   4.245   7.499   4.234  0.3420  0.2583  0.5403
  198MOL0     C26615   4.248   7.389   4.336  0.2006 -0.6125 -0.1641
  198MOL0     C26616   4.169   7.432   4.459 -0.0906  1.4835 -0.0081
  198MOL0     C26617   4.015   7.424   4.452  0.1952  1.2215 -0.3319
  198MOL0     C26618   3.941   7.492   4.334  0.2124 -0.0757 -0.5472
  198MOL0     O26619   3.795   7.501   4.333 -0.2971 -0.2626  0.4603
  198MOL0     C26620   3.726   7.571   4.235 -0.7472  0.3132  0.2211
  198MOL0     C26621   3.789   7.614   4.123  0.4256  0.6145  0.8273
  198MOL0     C26622   3.717   7.663   4.016 -0.1308  1.1527  0.3382
  198MOL0     C26623   3.788   7.703   3.893  0.1255  0.6644  0.2411
  198MOL0     C26624   3.575   7.680   4.031 -0.5908 -0.8630  0.1678
  198MOL0     C26625   3.485   7.723   3.928 -0.4258  0.1846 -0.5313
  198MOL0     O26626   3.474   7.646   3.829  0.5130  0.5675 -0.3743
  198MOL0     C26627   3.369   7.669   3.748 -0.3456 -0.0202  0.3469
  198MOL0     C26628   3.374   7.734   3.630 -0.5094 -0.2790 -0.6120
  198MOL0     C26629   3.265   7.743   3.544  0.5123  0.3176 -0.8264
  198MOL0     C26630   3.138   7.695   3.580 -0.4134 -0.1446  0.1169
  198MOL0     O26631   3.016   7.728   3.510 -0.8702 -0.5844 -0.6585
  198MOL0     C26632   2.975   7.863   3.526 -0.2803  0.5931 -0.3157
  198MOL0     C26633   2.906   7.880   3.662  0.0787  0.7376 -0.4109
  198MOL0     C26634   2.836   8.010   3.693 -0.1831  0.0224 -0.0001
  198MOL0     C26635   2.924   8.133   3.660 -0.0181 -0.3837  0.4366
  198MOL0     C26636   2.855   8.267   3.702 -1.2133  0.1057 -0.0402
  198MOL0     C26637   2.835   8.296   3.849  0.4471 -0.6816 -0.4158
  198MOL0     C26638   2.769   8.433   3.868  0.3174  0.6477 -0.1808
  198MOL0     C26639   2.684   8.427   4.000 -0.4797  0.5678 -0.0027
  198MOL0    Cl26640   2.622   8.580   4.046  0.5743 -0.0053 -0.6063
  198MOL0     C26641   3.129   7.638   3.709 -0.3436 -0.8486 -0.2888
  198MOL0     C26642   3.244   7.626   3.791 -0.0616 -0.1172  0.0510
  198MOL0     O26643   3.418   7.821   3.957 -0.3653  0.4195  0.2141
  198MOL0     C26644   3.515   7.647   4.158 -0.5996 -0.2931 -0.0430
  198MOL0     C26645   3.593   7.588   4.263 -0.4132 -0.8885  0.0890
  198MOL0     N26646   4.240   7.634   4.257 -0.0284 -0.2248 -0.3484
  198MOL0     N26647   4.260   7.688   4.139 -0.2560  0.6876 -0.0058
  198MOL0     C26648   3.393   7.108   4.009  0.2426  0.2413  0.4027
  198MOL0     C26649   3.266   7.058   3.969  0.3022 -0.5441 -0.5229
  198MOL0     C26650   2.988   6.911   3.641  0.2005  0.7561  0.2425
  198MOL0     C26651   2.872   6.873   3.720  0.4180 -0.0297  0.4187
  198MOL0     C26652   2.767   6.796   3.666  1.0306 -0.1835  0.5611
  198MOL0     C26653   2.778   6.748   3.540  0.4934  0.6678  0.6027
  198MOL0     O26654   2.675   6.667   3.500  0.1315 -0.6280  0.2818
  198MOL0     C26655   2.677   6.600   3.372  0.5816  0.3639  0.3777
  198MOL0     C26656   2.559   6.497   3.379  0.0993  0.6877  0.2189
  198MOL0     C26657   2.516   6.429   3.242 -0.1102  0.3111 -0.3950
  198MOL0     C26658   2.380   6.350   3.245 -0.3295  0.2844 -0.2538
  198MOL0     C26659   2.349   6.294   3.111  0.2165 -0.6074 -0.3782
  198MOL0     C26660   2.326   6.244   3.006 -0.5348  0.1519  0.2462
  198MOL0     C26661   2.884   6.777   3.467 -0.3184 -0.0832 -0.1469
  198MOL0     C26662   2.990   6.859   3.509 -0.4236  0.4548  0.0658
  198MOL0     H26663   3.168   7.269   3.737 -1.4191  0.5197  0.0954
  198MOL0     H26664   3.396   7.367   3.778 -2.1233  0.1806  0.8400
  198MOL0     H26665   3.645   7.185   4.133  0.8602  1.6493  0.4016
  198MOL0     H26666   3.671   7.107   3.973  0.2036  0.5623 -1.5580
  198MOL0     H26667   3.793   7.363   4.080 -0.3498 -1.4210  1.0805
  198MOL0     H26668   3.870   7.209   4.081 -1.3997  0.2358  1.1519
  198MOL0     H26669   3.831   7.192   3.829 -0.2787 -0.2895  0.8834
  198MOL0     H26670   3.801   7.369   3.833  0.7971  0.8724 -0.0409
  198MOL0     H26671   4.045   7.347   3.973 -1.9505  0.0605  0.1207
  198MOL0     H26672   4.049   7.200   3.899 -2.7295 -2.5288 -1.4163
  198MOL0     H26673   4.049   7.269   3.683 -0.0063  1.3199 -1.2366
  198MOL0     H26674   3.968   7.430   3.711 -0.4084  0.0974 -0.3286
  198MOL0     H26675   4.249   7.388   3.826  1.2117  0.0797 -0.0089
  198MOL0     H26676   4.223   7.432   3.665  1.7555 -2.2942  0.5498
  198MOL0     H26677   4.137   7.637   3.729  1.2937  0.0638 -0.5130
  198MOL0     H26678   4.065   7.573   3.882 -1.6154  3.5855 -2.4666
  198MOL0     H26679   4.265   7.747   3.900 -2.3391  0.2073  1.1654
  198MOL0     H26680   4.375   7.630   3.867  0.6959  1.8878 -2.8220
  198MOL0     H26681   4.252   7.375   4.055  0.8013 -0.4722  3.2338
  198MOL0     H26682   4.227   7.290   4.295  2.4729 -0.3195 -2.2608
  198MOL0     H26683   4.353   7.378   4.365 -0.0569 -0.8447  0.7105
  198MOL0     H26684   4.199   7.529   4.500  1.5005  2.1517 -2.5324
  198MOL0     H26685   4.191   7.362   4.541 -1.0457  1.1271 -0.0475
  198MOL0     H26686   3.989   7.478   4.544  0.4226  3.0617 -1.3065
  198MOL0     H26687   3.974   7.323   4.438  1.9226  0.7212 -2.2283
  198MOL0     H26688   3.972   7.435   4.246 -0.8003 -0.8560 -0.4167
  198MOL0     H26689   3.985   7.591   4.319  0.1627  0.0374  0.0562
  198MOL0     H26690   3.896   7.598   4.109  0.6909  1.6359  1.5872
  198MOL0     H26691   3.727   7.739   3.810  0.5209 -2.0364 -1.3549
  198MOL0     H26692   3.856   7.781   3.926 -1.2173  1.1247  2.1208
  198MOL0     H26693   3.838   7.619   3.844 -1.3526  0.4721 -1.0303
  198MOL0     H26694   3.469   7.765   3.588 -1.5411  0.2544 -2.6410
  198MOL0     H26695   3.276   7.801   3.453 -0.0376  0.5464 -0.7458
  198MOL0     H26696   3.062   7.930   3.524 -2.5043  3.8478  1.4673
  198MOL0     H26697   2.912   7.896   3.442  0.6936 -1.8347 -2.1278
  198MOL0     H26698   2.836   7.796   3.670  0.3416  0.3797 -1.6299
  198MOL0     H26699   2.983   7.864   3.739  1.1053 -1.1766 -1.7239
  198MOL0     H26700   2.801   7.992   3.795  0.3378 -1.4852 -0.0579
  198MOL0     H26701   2.752   8.016   3.624  0.5979  0.4547 -0.9375
  198MOL0     H26702   3.012   8.132   3.724 -1.7963 -2.3276  3.0736
  198MOL0     H26703   2.933   8.147   3.551  0.3826 -0.2076  0.4908
  198MOL0     H26704   2.762   8.278   3.645 -1.5310  0.7824  0.5890
  198MOL0     H26705   2.913   8.350   3.662 -0.0957 -0.1436  1.0152
  198MOL0     H26706   2.775   8.216   3.893 -0.7963 -1.4033 -3.1878
  198MOL0     H26707   2.929   8.296   3.905  1.9093  1.0816 -2.6529
  198MOL0     H26708   2.701   8.454   3.786  2.2618 -2.1561 -2.7347
  198MOL0     H26709   2.845   8.512   3.864 -0.8548  1.8891  0.9624
  198MOL0     H26710   2.727   8.380   4.089 -0.5754  1.0946  0.3281
  198MOL0     H26711   2.594   8.366   3.985 -2.9088  2.9139  3.3668
  198MOL0     H26712   3.039   7.601   3.757 -1.3709  0.3121 -1.2775
  198MOL0     H26713   3.235   7.593   3.893  0.4008  0.2862  0.2309
  198MOL0     H26714   3.408   7.659   4.174 -0.5834 -2.3186  2.0399
  198MOL0     H26715   3.557   7.562   4.362  2.9818 -1.5593  1.2792
  198MOL0     H26716   3.451   7.065   4.090  2.3297 -0.0636 -1.1731
  198MOL0     H26717   3.215   6.976   4.019  1.5212 -1.2841 -0.4624
  198MOL0     H26718   2.853   6.912   3.819  0.1402  1.0429 -0.0343
  198MOL0     H26719   2.670   6.793   3.716  0.9857  1.0612  0.5805
  198MOL0     H26720   2.664   6.673   3.292  4.0535 -1.4891 -2.1556
  198MOL0     H26721   2.771   6.544   3.372  0.0168 -0.6115  0.6598
  198MOL0     H26722   2.476   6.561   3.408 -0.7768  0.4339 -1.5636
  198MOL0     H26723   2.577   6.422   3.457 -0.4431  0.1061 -0.1948
  198MOL0     H26724   2.599   6.364   3.215  1.7843  1.7001  1.7010
  198MOL0     H26725   2.502   6.509   3.169 -4.0933  1.4823  1.3901
  198MOL0     H26726   2.299   6.422   3.263  0.4479  0.5785  2.4462
  198MOL0     H26727   2.366   6.267   3.315 -2.4570 -1.6049 -2.7125
  198MOL0     H26728   2.316   6.201   2.908  1.4860  0.0171  0.0558
  198MOL0     H26729   2.912   6.746   3.367  1.7450 -3.3723  1.2712
  198MOL0     H26730   3.077   6.887   3.451 -0.5794  0.9707  0.0801
  199MOL0     O26731   0.675  10.306   6.442  0.1477  0.0012  0.0527
  199MOL0     C26732   0.679  10.426   6.402 -0.0912 -0.4093  1.0250
  199MOL0     O26733   0.623  10.479   6.277  0.4886 -0.1459  0.5849
  199MOL0     C26734   0.589  10.388   6.176  0.2610  0.3164 -1.2250
  199MOL0     C26735   0.664  10.276   6.136  0.1846  0.0128  0.2336
  199MOL0     C26736   0.614  10.193   6.041 -0.1933  0.0795  0.1825
  199MOL0     C26737   0.489  10.211   5.987  0.6078 -0.2390 -0.0248
  199MOL0     O26738   0.448  10.117   5.899 -0.2575 -0.7122 -0.0062
  199MOL0     C26739   0.370  10.174   5.790  0.5858 -0.2714  0.5243
  199MOL0     C26740   0.405  10.105   5.653 -0.3297  0.4333 -0.5581
  199MOL0     C26741   0.560  10.101   5.638 -0.3421  1.1497  0.2320
  199MOL0     C26742   0.596  10.058   5.499  0.3604  0.4581  0.0861
  199MOL0     C26743   0.738  10.009   5.480  0.1986  0.4291 -0.1799
  199MOL0     C26744   0.750   9.921   5.353 -0.5333 -0.2500  0.6577
  199MOL0     C26745   0.890   9.903   5.289 -0.4999  0.7060 -0.4881
  199MOL0     C26746   0.930  10.019   5.207  0.0942 -0.2720  0.3175
  199MOL0     N26747   1.064  10.013   5.142 -0.1866 -0.7461  0.5520
  199MOL0     C26748   1.089   9.972   5.013  0.3242  0.2507 -0.1792
  199MOL0     C26749   1.216   9.976   4.999 -0.6008 -0.3371  0.1818
  199MOL0     C26750   1.306   9.926   4.878 -0.2030  0.1843 -0.0461
  199MOL0     C26751   1.292   9.776   4.882  0.9054 -0.2296  0.1380
  199MOL0     C26752   1.396   9.712   4.784  0.0678 -0.2642 -0.2619
  199MOL0     C26753   1.372   9.562   4.760 -0.9461 -0.4699 -0.0799
  199MOL0     O26754   1.453   9.483   4.851 -0.2875 -0.5384  0.0866
  199MOL0     C26755   1.564   9.431   4.798 -0.8024 -0.3239  1.1908
  199MOL0     C26756   1.603   9.302   4.832 -0.8589 -0.1530 -0.2313
  199MOL0     C26757   1.709   9.232   4.765 -0.6684  0.5887 -1.4403
  199MOL0     C26758   1.724   9.083   4.804  0.0399  0.1357 -0.0270
  199MOL0     C26759   1.784   9.302   4.661  0.2734  0.4177 -0.7451
  199MOL0     C26760   1.904   9.241   4.588  1.1930 -0.5307  0.6125
  199MOL0     O26761   1.966   9.326   4.501 -0.6029  0.0415 -1.0413
  199MOL0     C26762   2.047   9.274   4.404  0.2331 -0.2199 -0.6569
  199MOL0     C26763   1.998   9.235   4.282  0.9102  0.0836  0.0755
  199MOL0     C26764   2.078   9.177   4.189 -0.6649  0.5883 -0.2926
  199MOL0     C26765   2.213   9.152   4.224  0.0806  0.4099  0.2439
  199MOL0     O26766   2.306   9.111   4.133 -0.4769  0.1717  0.0476
  199MOL0     C26767   2.269   9.002   4.046 -0.9966 -0.3660  0.7608
  199MOL0     C26768   2.390   8.974   3.964  0.1733  0.1827  1.0230
  199MOL0     C26769   2.364   8.899   3.830  0.8048  0.0435  0.4303
  199MOL0     C26770   2.500   8.842   3.780 -0.7689 -0.1785 -0.0430
  199MOL0     C26771   2.501   8.795   3.641 -0.5376 -0.1630  0.0537
  199MOL0     C26772   2.375   8.701   3.614  0.1761 -0.5975 -0.2787
  199MOL0     C26773   2.383   8.573   3.683  0.2246 -0.5365 -0.2364
  199MOL0     C26774   2.248   8.511   3.702  0.6558  0.3354 -0.6162
  199MOL0    Cl26775   2.148   8.579   3.838  0.3028 -0.1738  0.4134
  199MOL0     C26776   2.266   9.210   4.347  0.2364  0.0966  0.0929
  199MOL0     C26777   2.178   9.259   4.435  0.0502  0.3214 -0.2962
  199MOL0     O26778   1.920   9.118   4.589 -0.4388 -0.8374  0.8499
  199MOL0     C26779   1.752   9.431   4.636 -1.0701  0.4838  0.4080
  199MOL0     C26780   1.647   9.494   4.704  0.1944  0.1405  0.3069
  199MOL0     N26781   1.273  10.028   5.113  0.8083 -1.8242  0.3012
  199MOL0     N26782   1.178  10.049   5.194 -0.3252 -0.1941 -1.0653
  199MOL0     C26783   0.407  10.311   6.043 -0.1214 -0.5081  0.3216
  199MOL0     C26784   0.461  10.409   6.135  0.2962  0.7471  0.3368
  199MOL0     C26785   0.733  10.523   6.499 -0.0190  0.4109 -0.6951
  199MOL0     C26786   0.744  10.654   6.453  0.3816  0.2422 -0.3129
  199MOL0     C26787   0.787  10.748   6.547 -0.2506 -0.2335 -0.1812
  199MOL0     C26788   0.823  10.724   6.667  0.1208  0.2239 -0.3029
  199MOL0     O26789   0.850  10.819   6.761 -0.3135  0.3398 -0.0790
  199MOL0     C26790   0.952  10.913   6.733 -0.7418 -0.0426 -0.6133
  199MOL0     C26791   1.077  10.886   6.812  1.1196  0.1551 -0.1044
  199MOL0     C26792   1.119  10.746   6.801  1.0475  0.9567 -0.6168
  199MOL0     C26793   1.265  10.730   6.864  1.0076 -0.0713  0.1062
  199MOL0     C26794   1.328  10.606   6.832  0.1228  0.6019  1.0022
  199MOL0     C26795   1.392  10.508   6.806 -0.5182  0.2374  0.9895
  199MOL0     C26796   0.818  10.593   6.709  0.1613 -0.1797 -0.0310
  199MOL0     C26797   0.762  10.489   6.634  0.1520 -1.0909  0.1401
  199MOL0     H26798   0.768  10.263   6.164  1.6685  1.6403 -3.7547
  199MOL0     H26799   0.667  10.099   6.032 -0.7063 -0.2317  0.3444
  199MOL0     H26800   0.264  10.154   5.808 -0.7232  2.0641 -3.3402
  199MOL0     H26801   0.379  10.283   5.781  0.3646 -0.3810 -1.6099
  199MOL0     H26802   0.369  10.002   5.661 -2.1049  1.1337  1.2853
  199MOL0     H26803   0.359  10.161   5.570  0.7676  1.6061 -0.4096
  199MOL0     H26804   0.595  10.199   5.671  1.0445  0.3465  1.2380
  199MOL0     H26805   0.589  10.013   5.696 -2.3783 -1.9676 -3.0178
  199MOL0     H26806   0.534   9.974   5.469 -0.4795  0.7755  0.8520
  199MOL0     H26807   0.568  10.139   5.430 -1.8773 -0.5395 -0.2721
  199MOL0     H26808   0.795  10.100   5.463 -0.1301  0.3669 -1.8005
  199MOL0     H26809   0.775   9.953   5.566  1.4619  2.2463  0.5005
  199MOL0     H26810   0.715   9.821   5.379  0.5460 -0.3039  1.9486
  199MOL0     H26811   0.677   9.962   5.282 -1.0906 -2.3004 -0.0054
  199MOL0     H26812   0.969   9.885   5.363 -1.8284  3.8632  1.9568
  199MOL0     H26813   0.882   9.819   5.219  3.6958 -4.6421  4.4151
  199MOL0     H26814   0.929  10.104   5.276  2.9221  0.3310 -0.2878
  199MOL0     H26815   0.852  10.032   5.132 -1.1439  0.4566  1.6745
  199MOL0     H26816   1.013   9.943   4.942 -1.8771  1.3444  1.6124
  199MOL0     H26817   1.285   9.971   4.781  3.2852  1.1644 -0.4772
  199MOL0     H26818   1.412   9.940   4.902 -0.0970  0.4172 -0.6505
  199MOL0     H26819   1.191   9.752   4.847  0.5783  2.4264 -0.9574
  199MOL0     H26820   1.296   9.732   4.982 -2.2026 -1.7825 -0.3082
  199MOL0     H26821   1.499   9.743   4.804 -0.6008  3.5710 -1.8777
  199MOL0     H26822   1.376   9.752   4.684  0.3608  0.6544  0.0334
  199MOL0     H26823   1.395   9.536   4.657 -0.7927  1.0581 -0.4624
  199MOL0     H26824   1.268   9.536   4.784 -1.0676  0.7178  0.8046
  199MOL0     H26825   1.539   9.265   4.911 -0.7906  2.3618  1.1212
  199MOL0     H26826   1.710   9.008   4.726  0.9735 -3.2307  2.7751
  199MOL0     H26827   1.818   9.072   4.859  0.3122  1.2116 -0.2622
  199MOL0     H26828   1.648   9.059   4.878  0.3693 -2.4031 -0.4005
  199MOL0     H26829   1.891   9.249   4.278  1.0430  1.7311  1.2027
  199MOL0     H26830   2.033   9.140   4.097  1.5810  1.8460 -2.0024
  199MOL0     H26831   2.232   8.911   4.094 -3.3753  0.6424  0.9787
  199MOL0     H26832   2.195   9.036   3.972  0.5227 -1.4330 -1.3462
  199MOL0     H26833   2.445   9.066   3.943 -1.9017  1.7276  1.9038
  199MOL0     H26834   2.466   8.920   4.022 -0.1622  1.4529  2.7413
  199MOL0     H26835   2.323   8.965   3.753 -0.6463 -3.2429 -1.8531
  199MOL0     H26836   2.293   8.819   3.852 -1.1468  2.1887  2.3482
  199MOL0     H26837   2.574   8.923   3.783  0.5420 -1.2554 -1.6793
  199MOL0     H26838   2.514   8.757   3.848 -3.0573 -0.5843 -0.0046
  199MOL0     H26839   2.596   8.744   3.627 -1.3969 -2.1519  1.0500
  199MOL0     H26840   2.507   8.877   3.569  0.0143 -0.8132 -0.6597
  199MOL0     H26841   2.292   8.764   3.646  0.7178 -0.1709  0.3199
  199MOL0     H26842   2.363   8.687   3.506  0.9667  1.7773 -0.7500
  199MOL0     H26843   2.420   8.580   3.786  1.7384 -5.6189 -0.1845
  199MOL0     H26844   2.449   8.498   3.638 -1.4984 -3.3381  1.6064
  199MOL0     H26845   2.268   8.409   3.736  0.6677  0.7555  0.6792
  199MOL0     H26846   2.196   8.495   3.607 -0.1342 -2.0457  0.1538
  199MOL0     H26847   2.373   9.221   4.360  0.3063  4.1086 -2.3724
  199MOL0     H26848   2.221   9.282   4.532  0.2325  1.0184 -0.5375
  199MOL0     H26849   1.820   9.495   4.581  0.1959  1.1109  2.5933
  199MOL0     H26850   1.636   9.599   4.677 -3.0083  0.2121  1.5147
  199MOL0     H26851   0.307  10.326   6.005  0.2161 -2.2040 -1.3540
  199MOL0     H26852   0.382  10.480   6.156 -1.5194 -0.8805 -0.6371
  199MOL0     H26853   0.729  10.685   6.351  1.1391  1.0600 -0.1826
  199MOL0     H26854   0.783  10.852   6.515  0.7623  0.6902  2.3986
  199MOL0     H26855   0.982  10.930   6.629  2.7757 -0.8490  0.1188
  199MOL0     H26856   0.921  11.012   6.769  1.0086  0.5490 -0.6099
  199MOL0     H26857   1.056  10.912   6.917 -0.2268  1.2298 -0.6043
  199MOL0     H26858   1.158  10.948   6.772  1.7284  0.1926  1.1296
  199MOL0     H26859   1.115  10.708   6.699 -1.0125 -1.7725  0.3438
  199MOL0     H26860   1.056  10.676   6.856 -1.1980  1.7652 -2.0241
  199MOL0     H26861   1.265  10.736   6.973 -3.7529 -0.5993  0.3285
  199MOL0     H26862   1.330  10.808   6.823  0.2064  1.7116  2.0698
  199MOL0     H26863   1.455  10.425   6.779 -1.4375 -0.4813  0.9841
  199MOL0     H26864   0.860  10.582   6.809  2.6774 -0.6420 -1.0757
  199MOL0     H26865   0.749  10.392   6.680 -1.0775 -0.3356  1.5100
  200MOL0     O26866  10.030   2.998   3.972 -0.0186 -0.2707 -0.8435
  200MOL0     C26867  10.011   2.881   4.009  0.0709 -0.3777 -0.9824
  200MOL0     O26868  10.027   2.844   4.142  0.4507 -0.8852  0.1475
  200MOL0     C26869  10.091   2.922   4.234  0.3196  0.1758  0.8670
  200MOL0     C26870  10.047   2.922   4.366 -0.3791  0.7659 -0.0388
  200MOL0     C26871  10.117   2.993   4.465 -0.0546 -0.8798  0.9187
  200MOL0     C26872  10.223   3.076   4.431  0.6570  0.1063 -0.1640
  200MOL0     O26873  10.292   3.140   4.536  0.1607 -0.0565 -0.3398
  200MOL0     C26874  10.343   3.268   4.509 -0.3596  0.3759  0.0771
  200MOL0     C26875  10.301   3.359   4.616  0.9799  0.1881 -0.0970
  200MOL0     C26876  10.147   3.369   4.621 -0.4820  0.2892  0.7014
  200MOL0     C26877  10.110   3.496   4.700  0.3312 -0.0654  0.2332
  200MOL0     C26878  10.132   3.491   4.857 -0.9519  0.0556  1.4856
  200MOL0     C26879  10.095   3.628   4.927  0.2847  0.4165 -0.0035
  200MOL0     C26880  10.067   3.614   5.074  0.1297 -0.1582  0.3238
  200MOL0     C26881  10.190   3.619   5.156 -0.9977 -0.4453 -0.2493
  200MOL0     N26882  10.276   3.493   5.147  0.3698 -0.6587  0.5945
  200MOL0     C26883  10.405   3.493   5.110 -0.2857  0.0787  0.0396
  200MOL0     C26884  10.442   3.370   5.138 -1.0087 -0.0222 -0.0447
  200MOL0     C26885  10.585   3.302   5.132 -0.3148 -0.0446  0.9679
  200MOL0     C26886  10.650   3.301   4.989 -0.3163 -0.3964 -0.1577
  200MOL0     C26887  10.574   3.233   4.877 -0.6072  0.8251  0.0848
  200MOL0     C26888  10.567   3.079   4.891  0.3468 -0.8536  0.3382
  200MOL0     O26889  10.499   3.061   5.009 -0.2391  0.5083 -0.4334
  200MOL0     C26890  10.481   2.930   5.055  0.2301 -0.3093  0.6189
  200MOL0     C26891  10.402   2.916   5.166 -0.8009  0.3311  0.6841
  200MOL0     C26892  10.356   2.792   5.212 -0.4703 -0.8159  0.8007
  200MOL0     C26893  10.254   2.801   5.327 -0.4657  0.1976  0.1825
  200MOL0     C26894  10.391   2.667   5.155 -0.4017 -0.3368  0.2061
  200MOL0     C26895  10.347   2.537   5.202 -0.3376  0.2428  0.2285
  200MOL0     O26896  10.361   2.432   5.115  0.4354 -0.1122  0.2996
  200MOL0     C26897  10.338   2.304   5.150 -0.5998  0.3191  0.4976
  200MOL0     C26898  10.328   2.242   5.278 -0.7350 -0.0418  0.1468
  200MOL0     C26899  10.277   2.114   5.295  0.2258 -0.0326 -0.1301
  200MOL0     C26900  10.248   2.038   5.183 -0.2434 -0.6276  0.1664
  200MOL0     O26901  10.208   1.910   5.212  0.5176 -0.4789  0.4168
  200MOL0     C26902  10.166   1.829   5.092  0.0342  0.0792 -0.0232
  200MOL0     C26903  10.110   1.699   5.143 -0.4764 -0.7469  0.5124
  200MOL0     C26904  10.008   1.716   5.249 -0.3434 -0.8668 -0.6195
  200MOL0     C26905   9.980   1.582   5.325  0.7099 -0.9358  1.2472
  200MOL0     C26906   9.873   1.597   5.440 -0.2041 -0.6316  0.1496
  200MOL0     C26907   9.829   1.458   5.495 -0.0891 -0.1449  0.4494
  200MOL0     C26908   9.728   1.463   5.610  0.3156  0.2511  0.6319
  200MOL0     C26909   9.789   1.508   5.739  0.1073  0.3907 -0.3291
  200MOL0    Cl26910   9.960   1.437   5.767 -0.1007 -0.1757 -0.4199
  200MOL0     C26911  10.255   2.097   5.059  1.0467  0.2696 -0.1847
  200MOL0     C26912  10.306   2.223   5.045  0.7307  0.4305  0.6713
  200MOL0     O26913  10.302   2.532   5.313 -0.1876  0.5672 -0.7377
  200MOL0     C26914  10.473   2.679   5.041 -0.0464 -0.3752 -0.1001
  200MOL0     C26915  10.512   2.812   4.989 -0.2948 -0.3001  0.0250
  200MOL0     N26916  10.344   3.306   5.197  0.4009  0.5551 -0.3688
  200MOL0     N26917  10.244   3.374   5.207 -0.0911 -1.3768 -0.8565
  200MOL0     C26918  10.263   3.084   4.297 -0.2307 -0.1174  0.0064
  200MOL0     C26919  10.194   3.015   4.200 -0.4430 -0.4351  0.1249
  200MOL0     C26920   9.974   2.783   3.909  1.0772 -0.6709 -0.3633
  200MOL0     C26921   9.877   2.685   3.955  0.4033  0.1487  0.4123
  200MOL0     C26922   9.860   2.571   3.872 -0.3548  0.0176  0.3347
  200MOL0     C26923   9.931   2.547   3.755 -0.3626 -0.4234  1.1320
  200MOL0     O26924   9.911   2.428   3.691  0.6050  0.0422  0.3389
  200MOL0     C26925  10.009   2.384   3.599  0.0018 -0.6919  1.2224
  200MOL0     C26926  10.139   2.350   3.669 -0.1214  0.4274 -0.0616
  200MOL0     C26927  10.232   2.272   3.575  0.0713  0.2082 -0.7671
  200MOL0     C26928  10.369   2.243   3.641 -0.1597 -0.7091 -0.1470
  200MOL0     C26929  10.476   2.344   3.611  1.0045  0.3256 -0.3884
  200MOL0     C26930  10.573   2.412   3.595  0.7882  0.2214 -0.8103
  200MOL0     C26931  10.014   2.652   3.705  0.6677  0.6044 -0.5533
  200MOL0     C26932  10.032   2.771   3.779  0.4462 -0.3729  0.2236
  200MOL0     H26933   9.971   2.852   4.401  0.4029 -1.0959 -1.8274
  200MOL0     H26934  10.100   2.989   4.573  0.1505  1.5747  1.0985
  200MOL0     H26935  10.452   3.264   4.517 -0.3584 -0.8759 -0.3205
  200MOL0     H26936  10.320   3.310   4.411  3.1252  1.6745 -0.3384
  200MOL0     H26937  10.346   3.330   4.711  0.9580  3.0948  0.8985
  200MOL0     H26938  10.347   3.455   4.594  0.6762  0.3165 -0.1730
  200MOL0     H26939  10.109   3.374   4.519  1.3429 -0.3717 -0.0431
  200MOL0     H26940  10.116   3.278   4.674  1.8915 -0.8664  0.2454
  200MOL0     H26941  10.166   3.582   4.662 -2.3578  0.6190 -2.6800
  200MOL0     H26942  10.005   3.525   4.686  1.0189  1.7350 -1.6819
  200MOL0     H26943  10.071   3.408   4.895 -0.0385 -0.3260  2.1613
  200MOL0     H26944  10.239   3.472   4.872 -0.6247  0.7453  0.1598
  200MOL0     H26945  10.177   3.696   4.899  1.6784 -0.1348  2.3894
  200MOL0     H26946  10.012   3.677   4.876 -1.1400 -0.7623  1.1037
  200MOL0     H26947  10.005   3.700   5.097 -0.4889 -0.6473  0.5208
  200MOL0     H26948  10.017   3.521   5.104  2.7842 -1.8653 -0.2017
  200MOL0     H26949  10.170   3.645   5.261 -0.4392  2.4620 -0.7775
  200MOL0     H26950  10.239   3.707   5.114 -0.0509 -0.4841  0.7410
  200MOL0     H26951  10.454   3.582   5.072 -2.0254  1.8743  1.7648
  200MOL0     H26952  10.656   3.349   5.201  1.2102 -2.2040  1.0037
  200MOL0     H26953  10.567   3.201   5.172  0.9141 -0.5125  0.3956
  200MOL0     H26954  10.752   3.265   5.003 -0.0520  1.3205  3.8020
  200MOL0     H26955  10.659   3.407   4.961 -1.3686 -0.8207 -2.3087
  200MOL0     H26956  10.624   3.251   4.781  1.5561 -3.7077  0.0978
  200MOL0     H26957  10.471   3.263   4.855 -0.6852  1.0838  0.7654
  200MOL0     H26958  10.671   3.044   4.899  0.9595  1.0878  1.7131
  200MOL0     H26959  10.510   3.024   4.816  1.9376 -1.4863 -0.4645
  200MOL0     H26960  10.391   3.005   5.227  1.9980 -0.8346  3.1757
  200MOL0     H26961  10.298   2.754   5.416  1.1201 -2.2161 -1.7330
  200MOL0     H26962  10.238   2.909   5.331  0.5508  0.4635 -1.6325
  200MOL0     H26963  10.154   2.760   5.312 -0.7338  1.1047 -0.5687
  200MOL0     H26964  10.360   2.299   5.365  0.3298 -1.0257  0.4221
  200MOL0     H26965  10.273   2.081   5.398 -0.2351  1.2218  0.2689
  200MOL0     H26966  10.092   1.878   5.028 -1.6109 -0.1991  1.5841
  200MOL0     H26967  10.254   1.808   5.031 -0.0113 -1.1371  0.3002
  200MOL0     H26968  10.052   1.638   5.073 -1.3893  0.0750  0.5268
  200MOL0     H26969  10.200   1.651   5.181  0.8802  0.7865 -0.5992
  200MOL0     H26970   9.917   1.758   5.204  0.0832 -1.7855 -2.4500
  200MOL0     H26971  10.041   1.784   5.328 -1.9695  0.6604 -1.1798
  200MOL0     H26972   9.955   1.502   5.254  1.3543  1.5070 -1.9789
  200MOL0     H26973  10.076   1.558   5.373  2.7952 -1.3110 -2.6458
  200MOL0     H26974   9.787   1.653   5.403 -0.1771  0.8845  2.2331
  200MOL0     H26975   9.916   1.658   5.519  1.8569 -0.1558 -1.2543
  200MOL0     H26976   9.789   1.407   5.407 -2.6582  1.3565  0.6453
  200MOL0     H26977   9.916   1.398   5.522 -0.9494 -3.2707 -2.8988
  200MOL0     H26978   9.707   1.356   5.620  3.2039 -0.7303 -2.0646
  200MOL0     H26979   9.639   1.522   5.584 -1.1253 -1.4722  1.4062
  200MOL0     H26980   9.724   1.474   5.820 -0.9500  0.3629 -1.1810
  200MOL0     H26981   9.793   1.617   5.740 -1.6007  0.5469 -2.6584
  200MOL0     H26982  10.231   2.044   4.967  1.5390 -0.7051  0.2368
  200MOL0     H26983  10.309   2.268   4.945 -4.5744 -0.0069  0.0502
  200MOL0     H26984  10.508   2.589   4.994 -2.1099 -0.6617 -1.2022
  200MOL0     H26985  10.571   2.806   4.899 -1.0078  1.3479 -0.5962
  200MOL0     H26986  10.348   3.145   4.268  0.1679  0.1014  1.5322
  200MOL0     H26987  10.228   3.024   4.098 -2.8172  0.2066 -0.6544
  200MOL0     H26988   9.830   2.689   4.052 -0.8042 -0.3544 -0.1366
  200MOL0     H26989   9.804   2.498   3.929  0.7495 -0.4982  0.7968
  200MOL0     H26990   9.966   2.296   3.551  0.9137 -0.7413  0.4667
  200MOL0     H26991  10.034   2.445   3.512  0.4840 -2.1178  0.3302
  200MOL0     H26992  10.123   2.295   3.763  0.4045 -0.5267 -0.5242
  200MOL0     H26993  10.189   2.443   3.701  1.1844  0.1124 -1.1044
  200MOL0     H26994  10.245   2.339   3.489  2.9742 -1.1306 -1.4909
  200MOL0     H26995  10.189   2.177   3.542  0.1899  0.4349 -1.5973
  200MOL0     H26996  10.399   2.141   3.615 -2.5912 -1.3910 -0.5629
  200MOL0     H26997  10.364   2.244   3.750 -3.1031 -1.8884 -0.1723
  200MOL0     H26998  10.650   2.482   3.571  1.2066  0.3451  0.7936
  200MOL0     H26999  10.074   2.638   3.616  1.6553  0.9709  0.0275
  200MOL0     H27000  10.097   2.847   3.737 -0.6544  1.6983  2.0563
  201MOL0     O27001   6.633   9.458   2.816 -0.2544  0.0721  0.1443
  201MOL0     C27002   6.730   9.383   2.819  0.6197  0.0615  1.0464
  201MOL0     O27003   6.746   9.264   2.751 -0.2139  0.7659  0.1039
  201MOL0     C27004   6.660   9.210   2.664 -1.1141  0.2033  0.1858
  201MOL0     C27005   6.521   9.216   2.672  0.6036 -0.4037 -0.2746
  201MOL0     C27006   6.436   9.167   2.569 -0.5110 -0.2313 -0.3831
  201MOL0     C27007   6.496   9.112   2.457  0.9313 -0.2092 -0.1449
  201MOL0     O27008   6.417   9.068   2.355  0.6220 -0.6215 -0.6103
  201MOL0     C27009   6.387   9.162   2.243 -0.3485  0.5570  0.3003
  201MOL0     C27010   6.279   9.273   2.259  0.5115  0.4643 -0.0498
  201MOL0     C27011   6.134   9.219   2.274  0.4276 -0.1491 -0.1861
  201MOL0     C27012   6.023   9.326   2.262 -0.1135 -0.2656  0.4134
  201MOL0     C27013   6.035   9.446   2.358 -0.1069 -0.2929 -0.3681
  201MOL0     C27014   5.913   9.538   2.334  0.3933  0.1278 -0.2692
  201MOL0     C27015   5.962   9.671   2.396 -0.3725 -0.3012 -0.5587
  201MOL0     C27016   5.843   9.747   2.434  0.2142 -0.4129 -0.2754
  201MOL0     N27017   5.889   9.869   2.503 -0.5224  0.7307  0.3290
  201MOL0     C27018   6.002   9.937   2.464  0.0030  0.2887  0.0906
  201MOL0     C27019   6.006  10.034   2.563 -0.2117  0.2203 -0.2620
  201MOL0     C27020   6.119  10.143   2.570 -0.5212  0.0118  0.1369
  201MOL0     C27021   6.178  10.174   2.436 -0.5551 -0.5204 -0.6485
  201MOL0     C27022   6.261  10.302   2.419 -0.2852  0.1393  0.1361
  201MOL0     C27023   6.395  10.306   2.491  0.4265  0.7826  1.0613
  201MOL0     O27024   6.442  10.441   2.499 -0.4944 -0.0394 -0.6704
  201MOL0     C27025   6.551  10.482   2.430 -0.2707  0.5997  0.0863
  201MOL0     C27026   6.571  10.440   2.302  0.3814  1.0362  0.9411
  201MOL0     C27027   6.674  10.484   2.211  0.6240 -0.4978 -0.0753
  201MOL0     C27028   6.691  10.427   2.065 -0.3328 -0.3686  0.7289
  201MOL0     C27029   6.769  10.566   2.268 -0.6379 -0.3271  0.1450
  201MOL0     C27030   6.887  10.616   2.192  0.8368  0.0977  0.0008
  201MOL0     O27031   6.902  10.763   2.184 -0.4964  0.0153  0.0314
  201MOL0     C27032   7.008  10.825   2.122  0.0156 -0.0354  0.1798
  201MOL0     C27033   7.104  10.887   2.200  0.9642 -0.3051  0.1538
  201MOL0     C27034   7.209  10.957   2.137 -0.2230  0.0320  0.3059
  201MOL0     C27035   7.212  10.986   2.001 -0.1107 -0.3664  0.3173
  201MOL0     O27036   7.301  11.062   1.936  0.5265  0.3635 -0.8347
  201MOL0     C27037   7.421  11.123   2.000  0.3641  0.0468 -0.2573
  201MOL0     C27038   7.469  11.244   1.918 -0.0504  0.3874  0.2598
  201MOL0     C27039   7.590  11.293   1.998  0.2206  0.0221 -0.0302
  201MOL0     C27040   7.636  11.431   1.942 -0.5244  0.2517  0.0378
  201MOL0     C27041   7.738  11.493   2.027  0.3621  0.2537 -0.6624
  201MOL0     C27042   7.789  11.624   1.982 -0.1889 -0.1667 -1.0848
  201MOL0     C27043   7.898  11.679   2.070 -0.7196  0.1848  0.1016
  201MOL0     C27044   7.825  11.757   2.181  0.0921 -0.2341 -0.2491
  201MOL0    Cl27045   7.926  11.900   2.234 -0.3417 -0.1699 -0.3780
  201MOL0     C27046   7.123  10.907   1.925 -0.2112 -0.5179  0.0415
  201MOL0     C27047   7.025  10.826   1.984  1.3675  0.4950 -0.5994
  201MOL0     O27048   6.963  10.532   2.143  0.8940 -0.0333 -0.0949
  201MOL0     C27049   6.752  10.611   2.397  0.4497 -0.5358  0.6503
  201MOL0     C27050   6.641  10.570   2.486  0.0015 -0.6311  0.4724
  201MOL0     N27051   5.906  10.007   2.657 -0.6150  0.0404 -0.1765
  201MOL0     N27052   5.842   9.906   2.619  0.1296  0.3010  0.0423
  201MOL0     C27053   6.635   9.108   2.445  0.0924  0.2077 -0.2888
  201MOL0     C27054   6.717   9.151   2.550  0.7041  1.5487 -0.3165
  201MOL0     C27055   6.852   9.426   2.895 -0.5192 -0.4924 -0.1899
  201MOL0     C27056   6.973   9.354   2.888  0.3911  0.3307  0.0153
  201MOL0     C27057   7.091   9.407   2.935 -0.0519  0.1308  0.1038
  201MOL0     C27058   7.095   9.526   3.005 -0.7872  0.0796 -0.6134
  201MOL0     O27059   7.212   9.574   3.052 -0.1535  0.2709 -0.1291
  201MOL0     C27060   7.216   9.648   3.173  0.6657 -0.6370 -0.4222
  201MOL0     C27061   7.357   9.658   3.223  1.0250 -0.2532 -1.3165
  201MOL0     C27062   7.446   9.687   3.108  0.0061  0.0577  0.6061
  201MOL0     C27063   7.577   9.746   3.161  0.4292 -0.8102  0.6090
  201MOL0     C27064   7.642   9.649   3.232  0.3362  0.0137 -0.6149
  201MOL0     C27065   7.694   9.541   3.270  0.8531 -0.0950  0.5852
  201MOL0     C27066   6.972   9.581   3.043  0.1907 -1.1803 -0.0502
  201MOL0     C27067   6.860   9.546   2.966  0.2667  0.8603 -0.7198
  201MOL0     H27068   6.479   9.261   2.762 -0.8716  1.1050 -1.6435
  201MOL0     H27069   6.328   9.160   2.574 -0.6785  2.2235  1.8619
  201MOL0     H27070   6.488   9.195   2.215 -0.1611 -0.6271 -0.5052
  201MOL0     H27071   6.351   9.089   2.170  0.8962 -0.2204  0.4351
  201MOL0     H27072   6.307   9.341   2.341 -0.8509  1.7830 -0.6376
  201MOL0     H27073   6.273   9.329   2.166 -2.7833 -0.4848 -0.5160
  201MOL0     H27074   6.110   9.146   2.197  0.2213 -2.4118  1.8961
  201MOL0     H27075   6.119   9.175   2.373  0.0984  0.8355  0.2150
  201MOL0     H27076   6.013   9.365   2.160 -0.6426  0.3072  0.6764
  201MOL0     H27077   5.928   9.272   2.261  0.4726 -1.4798 -3.0679
  201MOL0     H27078   6.021   9.409   2.460 -3.4493 -3.4286 -1.7369
  201MOL0     H27079   6.134   9.491   2.348 -0.1832 -0.1329 -0.4025
  201MOL0     H27080   5.890   9.558   2.229  1.2428  1.3734 -0.2465
  201MOL0     H27081   5.818   9.515   2.384  1.0039 -0.1241  0.7913
  201MOL0     H27082   6.037   9.660   2.475 -2.3673 -0.7179  1.3760
  201MOL0     H27083   6.019   9.721   2.317  5.1506  0.8249  3.5575
  201MOL0     H27084   5.779   9.693   2.505  0.6011 -0.0356  0.3762
  201MOL0     H27085   5.792   9.770   2.340  0.9586 -1.2946 -0.9010
  201MOL0     H27086   6.067   9.924   2.378 -0.6334  1.7246 -0.6425
  201MOL0     H27087   6.069  10.232   2.609  0.8289 -0.4516  3.2244
  201MOL0     H27088   6.197  10.132   2.646  0.1312  3.6956  0.2194
  201MOL0     H27089   6.100  10.185   2.360 -0.3880 -0.4093 -0.8025
  201MOL0     H27090   6.238  10.093   2.396 -0.2421 -0.6581  0.0788
  201MOL0     H27091   6.203  10.385   2.460 -0.6170  0.1175 -0.2911
  201MOL0     H27092   6.281  10.318   2.312 -0.7725  2.9153  0.3729
  201MOL0     H27093   6.464  10.241   2.439 -0.7797  1.2200 -1.2082
  201MOL0     H27094   6.368  10.269   2.591  0.8724  0.6824  1.1432
  201MOL0     H27095   6.508  10.360   2.265 -1.0517  3.1039 -1.3865
  201MOL0     H27096   6.746  10.487   1.993 -0.3303  3.2325  3.4552
  201MOL0     H27097   6.752  10.337   2.076  3.2299  1.5373 -1.6103
  201MOL0     H27098   6.590  10.411   2.024 -0.2408  2.3716 -0.7817
  201MOL0     H27099   7.104  10.870   2.307  2.2593 -0.1605  0.1940
  201MOL0     H27100   7.281  10.999   2.207  2.0207 -1.6715 -0.8564
  201MOL0     H27101   7.375  11.169   2.088 -2.7346 -2.3429 -0.4551
  201MOL0     H27102   7.507  11.063   2.033  0.5975  0.9113  0.7503
  201MOL0     H27103   7.507  11.220   1.818  1.0188  1.4391  0.3934
  201MOL0     H27104   7.397  11.326   1.911  0.2216  0.9094  2.7768
  201MOL0     H27105   7.675  11.225   1.997  2.9855  3.1975 -0.8066
  201MOL0     H27106   7.548  11.298   2.099 -2.3737 -1.3269 -0.9515
  201MOL0     H27107   7.697  11.409   1.854 -0.3774  1.4977 -0.1841
  201MOL0     H27108   7.554  11.504   1.936 -1.6152 -0.8456  0.9105
  201MOL0     H27109   7.826  11.429   2.038  0.1344 -0.0190 -0.4169
  201MOL0     H27110   7.697  11.494   2.129  0.0659 -0.9800 -0.7558
  201MOL0     H27111   7.838  11.622   1.884  2.4245  1.4576  0.0752
  201MOL0     H27112   7.703  11.688   1.962  0.3543 -0.1937 -3.8640
  201MOL0     H27113   7.953  11.758   2.017 -2.9459  0.9429 -1.2298
  201MOL0     H27114   7.969  11.604   2.105  1.0552  1.1807 -1.2248
  201MOL0     H27115   7.798  11.690   2.263 -0.0311 -0.3861 -0.4138
  201MOL0     H27116   7.734  11.808   2.149  1.3800  1.3666 -1.5845
  201MOL0     H27117   7.122  10.938   1.821 -0.7195  0.8173  0.4271
  201MOL0     H27118   6.956  10.766   1.925  3.8760 -1.7725 -1.4589
  201MOL0     H27119   6.815  10.686   2.444  1.4499  0.2537 -1.8294
  201MOL0     H27120   6.618  10.618   2.580  0.3067 -1.5696  1.0382
  201MOL0     H27121   6.676   9.075   2.349  1.7603  2.4057 -0.4100
  201MOL0     H27122   6.825   9.152   2.546  0.6959  0.4874 -1.3830
  201MOL0     H27123   6.967   9.265   2.826 -1.2755  0.7164 -0.4397
  201MOL0     H27124   7.180   9.345   2.927 -1.3546 -1.6390 -1.2752
  201MOL0     H27125   7.184   9.751   3.163 -1.1209 -0.5721  3.8375
  201MOL0     H27126   7.152   9.611   3.254  0.2900  0.9892  0.0456
  201MOL0     H27127   7.385   9.563   3.270 -2.3499 -1.3860 -1.2583
  201MOL0     H27128   7.369   9.736   3.299  0.4183  0.6916 -2.1550
  201MOL0     H27129   7.389   9.752   3.041 -1.6325 -1.6932  0.2302
  201MOL0     H27130   7.463   9.606   3.037 -1.8115 -1.5117  1.8746
  201MOL0     H27131   7.565   9.832   3.228  0.7237 -1.1155  1.0607
  201MOL0     H27132   7.649   9.786   3.090  0.8185  0.6010  1.7439
  201MOL0     H27133   7.732   9.454   3.320  0.2615 -1.3162 -1.0022
  201MOL0     H27134   6.946   9.673   3.093  0.3199 -0.4999 -1.1976
  201MOL0     H27135   6.772   9.609   2.970  1.1451  2.1305 -0.9972
  202MOL0     O27136   0.952   5.947   1.510  0.2870  0.3328 -0.1587
  202MOL0     C27137   1.063   5.952   1.455 -0.4275 -0.5872  0.0517
  202MOL0     O27138   1.172   5.867   1.476  0.5007 -0.4875  1.0671
  202MOL0     C27139   1.160   5.749   1.538 -0.0895  0.5614 -0.5861
  202MOL0     C27140   1.223   5.632   1.496 -0.7396 -0.8044  0.3076
  202MOL0     C27141   1.213   5.510   1.552 -0.3691 -0.4377  0.3821
  202MOL0     C27142   1.123   5.489   1.656 -0.3973 -0.6912  1.4009
  202MOL0     O27143   1.086   5.369   1.700 -0.0220  0.4605  0.2126
  202MOL0     C27144   1.159   5.256   1.655  0.4771  0.7485 -0.4190
  202MOL0     C27145   1.128   5.130   1.737 -0.3413 -0.2994 -0.5751
  202MOL0     C27146   1.141   5.143   1.891 -0.4201 -0.8290 -0.2644
  202MOL0     C27147   1.092   5.026   1.971  0.1666  0.0452 -0.2093
  202MOL0     C27148   1.135   5.034   2.117  0.0179  0.2001 -0.0704
  202MOL0     C27149   1.075   4.925   2.204 -0.2249 -0.1344 -0.2535
  202MOL0     C27150   1.124   4.785   2.173 -1.1728 -0.4307  0.7931
  202MOL0     C27151   1.071   4.691   2.294 -0.4441 -1.1996  0.3828
  202MOL0     N27152   1.146   4.708   2.425  0.2779  0.1124  0.3315
  202MOL0     C27153   1.273   4.667   2.460  0.2544 -0.3316 -0.2537
  202MOL0     C27154   1.279   4.690   2.592  0.4203  0.7631 -0.6048
  202MOL0     C27155   1.386   4.661   2.685  0.8103 -0.6322  0.4948
  202MOL0     C27156   1.489   4.766   2.697 -0.2050 -0.9428 -0.5015
  202MOL0     C27157   1.584   4.782   2.584 -0.1008 -0.3990  0.1860
  202MOL0     C27158   1.704   4.870   2.632  0.6860  0.8987  0.1725
  202MOL0     O27159   1.767   4.935   2.522 -0.4552 -0.5819  0.4790
  202MOL0     C27160   1.760   5.070   2.514 -0.0794  0.3509 -0.4476
  202MOL0     C27161   1.768   5.161   2.623  0.3599  0.3178 -0.6723
  202MOL0     C27162   1.755   5.301   2.613 -0.5594 -0.4326 -0.1902
  202MOL0     C27163   1.742   5.376   2.746 -0.4658 -0.5600  0.1586
  202MOL0     C27164   1.764   5.349   2.477  0.6934  0.0175  0.0973
  202MOL0     C27165   1.750   5.494   2.453 -0.2259  0.1640 -0.0499
  202MOL0     O27166   1.668   5.558   2.550 -0.1453 -0.1637  0.6130
  202MOL0     C27167   1.640   5.689   2.520 -0.4652 -0.4239 -0.3694
  202MOL0     C27168   1.517   5.714   2.465  0.6759  0.1379  0.1390
  202MOL0     C27169   1.485   5.842   2.429 -0.2478 -0.5167  0.6487
  202MOL0     C27170   1.570   5.953   2.455 -0.0087  0.5284  0.4189
  202MOL0     O27171   1.526   6.077   2.406 -0.1765  0.6356  0.9271
  202MOL0     C27172   1.514   6.168   2.517  0.7207 -0.7708  0.1154
  202MOL0     C27173   1.466   6.304   2.463 -0.1725  0.3642 -0.0371
  202MOL0     C27174   1.363   6.296   2.353 -0.7896  1.4014  0.3004
  202MOL0     C27175   1.300   6.435   2.335  1.2648  0.7430  0.3590
  202MOL0     C27176   1.190   6.429   2.228 -0.2113 -0.3455 -0.1126
  202MOL0     C27177   1.102   6.554   2.237 -0.3773 -0.8529  0.0375
  202MOL0     C27178   1.173   6.693   2.236  0.1807 -0.1768  0.3628
  202MOL0     C27179   1.281   6.721   2.129 -0.5404 -0.1459  0.2202
  202MOL0    Cl27180   1.222   6.681   1.970 -0.2041  0.2165 -0.1084
  202MOL0     C27181   1.697   5.931   2.510  0.4498  0.9438 -0.4317
  202MOL0     C27182   1.732   5.799   2.542  0.0127  0.1416  0.0585
  202MOL0     O27183   1.796   5.545   2.350  0.0939  0.1579 -0.2600
  202MOL0     C27184   1.787   5.263   2.371  0.9955 -0.0975 -0.1810
  202MOL0     C27185   1.784   5.127   2.391  0.6051  0.7731 -0.3608
  202MOL0     N27186   1.167   4.768   2.633 -0.2871  0.4311 -0.5442
  202MOL0     N27187   1.093   4.784   2.528  0.6876 -0.1314 -0.6143
  202MOL0     C27188   1.061   5.607   1.709 -0.1340  0.0570 -0.1007
  202MOL0     C27189   1.078   5.737   1.651  0.4940 -0.8755  0.3553
  202MOL0     C27190   1.092   6.065   1.360  1.0556 -0.8781 -0.5085
  202MOL0     C27191   1.207   6.063   1.282  0.5140  0.4550  0.4259
  202MOL0     C27192   1.219   6.151   1.176  0.9755 -0.0376  0.3455
  202MOL0     C27193   1.130   6.255   1.151 -0.7345  0.0536  0.2528
  202MOL0     O27194   1.137   6.361   1.066 -0.1714  0.1065 -0.1768
  202MOL0     C27195   1.247   6.397   0.991  0.6163 -1.3604  0.0205
  202MOL0     C27196   1.312   6.512   1.067 -0.4358  0.5179 -0.7508
  202MOL0     C27197   1.406   6.581   0.967  0.0027 -0.2880 -0.5042
  202MOL0     C27198   1.527   6.635   1.034 -0.7490  0.7545  0.1089
  202MOL0     C27199   1.605   6.715   0.943 -0.3696 -0.3752 -0.8095
  202MOL0     C27200   1.673   6.787   0.876  0.2386 -0.1645  0.3652
  202MOL0     C27201   1.014   6.255   1.234  0.0179 -0.4565 -0.1048
  202MOL0     C27202   0.990   6.164   1.334 -0.9418  1.1654 -0.2780
  202MOL0     H27203   1.300   5.637   1.420 -0.4172  0.3764  0.6939
  202MOL0     H27204   1.264   5.424   1.509  0.3832  0.9148 -1.5943
  202MOL0     H27205   1.150   5.235   1.548 -0.7149 -1.0764 -0.0118
  202MOL0     H27206   1.267   5.265   1.669  0.2565 -0.2500  2.5383
  202MOL0     H27207   1.030   5.099   1.701  0.6993 -3.6698 -0.9143
  202MOL0     H27208   1.185   5.042   1.706 -3.6910 -2.5252 -0.9160
  202MOL0     H27209   1.245   5.156   1.922  0.8820 -2.2724 -3.5330
  202MOL0     H27210   1.076   5.224   1.925  0.6281 -0.2592  0.4388
  202MOL0     H27211   0.983   5.018   1.965  0.0450  2.0652 -1.6306
  202MOL0     H27212   1.133   4.937   1.923  1.6005  1.6788 -2.1671
  202MOL0     H27213   1.244   5.039   2.130 -0.1173  0.9107  0.9007
  202MOL0     H27214   1.101   5.128   2.162 -2.6962 -1.6201  1.9694
  202MOL0     H27215   1.100   4.951   2.307 -0.4314 -1.2018  0.0786
  202MOL0     H27216   0.966   4.932   2.206 -0.2625 -0.0975 -1.3879
  202MOL0     H27217   1.088   4.755   2.074 -4.5891  1.5886  1.2921
  202MOL0     H27218   1.233   4.794   2.167 -1.1151 -1.5598 -0.3588
  202MOL0     H27219   1.098   4.590   2.260 -2.3044 -1.6556  0.1397
  202MOL0     H27220   0.962   4.696   2.299 -0.7494  1.7236 -3.9565
  202MOL0     H27221   1.337   4.610   2.393 -0.4864 -1.6815  0.1319
  202MOL0     H27222   1.350   4.645   2.787 -0.0558 -3.7842 -0.2060
  202MOL0     H27223   1.423   4.566   2.645  0.4341 -1.1737  1.4126
  202MOL0     H27224   1.552   4.739   2.783 -0.7056 -2.6711 -0.6322
  202MOL0     H27225   1.432   4.857   2.718  1.4956  0.4546 -1.6599
  202MOL0     H27226   1.537   4.826   2.496 -0.8332 -1.7864 -0.1511
  202MOL0     H27227   1.643   4.694   2.557  1.0976  1.0398 -2.1518
  202MOL0     H27228   1.768   4.811   2.699 -0.5430 -0.2221  0.4067
  202MOL0     H27229   1.659   4.946   2.696 -1.9865 -3.3310  3.9899
  202MOL0     H27230   1.772   5.120   2.724 -2.6400 -0.1352 -0.6407
  202MOL0     H27231   1.634   5.391   2.757 -0.9288 -1.4605 -2.3001
  202MOL0     H27232   1.775   5.308   2.825 -0.9985 -1.4502 -0.3648
  202MOL0     H27233   1.805   5.464   2.751 -0.0427 -0.8666  0.2270
  202MOL0     H27234   1.443   5.640   2.434 -1.9295  1.6017  2.3645
  202MOL0     H27235   1.391   5.857   2.377 -1.0949  2.0445  2.7157
  202MOL0     H27236   1.447   6.122   2.590 -1.2887  1.5531 -0.1146
  202MOL0     H27237   1.613   6.171   2.564  1.2753 -2.0742 -0.8946
  202MOL0     H27238   1.418   6.364   2.541  0.3401 -0.9206  1.3032
  202MOL0     H27239   1.548   6.364   2.421 -0.9140  0.6391 -1.1304
  202MOL0     H27240   1.286   6.221   2.374 -0.6745  0.8051 -1.3037
  202MOL0     H27241   1.424   6.274   2.265 -0.4230  3.2614  0.0482
  202MOL0     H27242   1.262   6.457   2.435  4.1991  2.9453  1.1168
  202MOL0     H27243   1.369   6.515   2.305  0.0897  1.5477 -0.2949
  202MOL0     H27244   1.128   6.340   2.241 -0.4935 -0.4309 -1.7729
  202MOL0     H27245   1.239   6.423   2.130 -0.5450  2.2496 -0.5078
  202MOL0     H27246   1.028   6.535   2.158 -0.6728  0.6114 -0.0795
  202MOL0     H27247   1.045   6.544   2.330  0.1503  0.0634  0.4679
  202MOL0     H27248   1.211   6.717   2.335  1.6065  1.4017 -0.5201
  202MOL0     H27249   1.088   6.760   2.225 -1.8654 -2.9394 -2.7333
  202MOL0     H27250   1.376   6.673   2.153  1.2193  2.9903  0.0327
  202MOL0     H27251   1.317   6.824   2.134 -0.1251 -0.2862  0.1330
  202MOL0     H27252   1.766   6.010   2.538  2.8145 -0.7314 -1.2124
  202MOL0     H27253   1.835   5.781   2.572 -0.0431 -1.7624 -0.7192
  202MOL0     H27254   1.800   5.309   2.273  2.6028  2.4565  1.1149
  202MOL0     H27255   1.788   5.057   2.308 -0.6716  0.5698 -0.2763
  202MOL0     H27256   1.001   5.581   1.796 -0.8344 -3.1361 -1.3766
  202MOL0     H27257   1.029   5.829   1.681  1.0383 -0.1343 -0.9365
  202MOL0     H27258   1.277   5.982   1.295  0.3817  0.3683  0.6084
  202MOL0     H27259   1.311   6.150   1.118  1.3989 -1.5984  0.9896
  202MOL0     H27260   1.316   6.315   0.968  2.5278  0.3425 -0.5958
  202MOL0     H27261   1.205   6.433   0.896 -0.9913 -1.7952  0.5364
  202MOL0     H27262   1.377   6.469   1.144  0.5904 -2.0434 -2.8979
  202MOL0     H27263   1.246   6.590   1.107  2.4061  2.1442  1.0653
  202MOL0     H27264   1.349   6.663   0.924  0.2552 -1.3209 -2.9439
  202MOL0     H27265   1.446   6.502   0.903  0.0361 -0.2751 -0.4994
  202MOL0     H27266   1.583   6.549   1.070 -0.0488  0.9181 -0.5618
  202MOL0     H27267   1.494   6.696   1.119 -1.4506  3.6767 -2.0780
  202MOL0     H27268   1.737   6.825   0.799 -1.1964  0.4210 -0.5908
  202MOL0     H27269   0.952   6.342   1.218  2.7931  1.8179  0.4995
  202MOL0     H27270   0.905   6.176   1.401 -1.3920 -1.3713 -0.2916
  203MOL0     O27271   3.224   8.584   3.315 -0.1070  0.5062 -0.1126
  203MOL0     C27272   3.331   8.605   3.257 -0.4315  0.5571  1.2284
  203MOL0     O27273   3.385   8.540   3.136 -0.2334  0.1798 -0.1645
  203MOL0     C27274   3.301   8.462   3.049 -0.3194  1.7626 -0.0610
  203MOL0     C27275   3.160   8.493   3.033  0.5810 -0.6496 -0.0266
  203MOL0     C27276   3.074   8.411   2.957  0.0945 -0.9195 -0.0915
  203MOL0     C27277   3.131   8.310   2.883 -1.1959 -0.1048 -0.3034
  203MOL0     O27278   3.057   8.230   2.799 -0.1151 -0.5185  0.0230
  203MOL0     C27279   3.097   8.183   2.672 -0.4275 -0.5718 -0.3874
  203MOL0     C27280   2.973   8.120   2.611 -1.2844  0.6367  0.1600
  203MOL0     C27281   2.987   8.037   2.479  0.0008 -0.7222  0.7366
  203MOL0     C27282   2.857   7.984   2.413  0.0846  0.6664 -0.2538
  203MOL0     C27283   2.874   7.916   2.279 -1.0627 -0.0046 -0.2617
  203MOL0     C27284   2.882   8.020   2.168 -0.2329 -0.0632  0.6585
  203MOL0     C27285   2.853   7.940   2.032 -0.2349 -1.1446  0.2997
  203MOL0     C27286   2.881   8.037   1.923  0.3591  0.5822 -0.3067
  203MOL0     N27287   2.844   7.989   1.788  0.2347 -0.2973 -0.1299
  203MOL0     C27288   2.889   7.867   1.746  0.3752 -0.0630  0.3140
  203MOL0     C27289   2.868   7.874   1.610  0.7880  0.2625 -0.4317
  203MOL0     C27290   2.886   7.765   1.501 -0.2301  0.1398  0.1352
  203MOL0     C27291   3.020   7.762   1.438  0.1366  1.0518 -0.5262
  203MOL0     C27292   3.060   7.900   1.363  0.2409  0.2563 -0.8071
  203MOL0     C27293   3.109   8.006   1.460  0.2499 -0.3601 -0.9992
  203MOL0     O27294   3.195   7.951   1.560 -0.0584  0.0807 -0.0983
  203MOL0     C27295   3.215   8.023   1.677  0.0072  1.2312  0.3389
  203MOL0     C27296   3.252   7.938   1.788  0.1118  0.4086 -0.5617
  203MOL0     C27297   3.277   7.996   1.914 -0.9582  0.1113 -0.7731
  203MOL0     C27298   3.292   7.897   2.030  0.0650 -0.7174 -0.7750
  203MOL0     C27299   3.245   8.132   1.935  0.4142  1.1514 -1.2284
  203MOL0     C27300   3.272   8.194   2.066  0.7762  0.4159 -0.2876
  203MOL0     O27301   3.196   8.308   2.101 -0.0654 -0.1297 -0.8879
  203MOL0     C27302   3.205   8.373   2.222  0.9288 -0.1191  0.1649
  203MOL0     C27303   3.089   8.432   2.277  0.8750 -0.3478  0.8359
  203MOL0     C27304   3.097   8.473   2.412 -0.2203  0.0788 -0.3530
  203MOL0     C27305   3.219   8.497   2.476 -0.1232  0.0034  0.2582
  203MOL0     O27306   3.222   8.547   2.602 -0.8989 -0.8750 -0.4495
  203MOL0     C27307   3.111   8.628   2.650 -0.2069 -0.8966 -0.6846
  203MOL0     C27308   3.167   8.720   2.760  0.5024 -0.4572 -0.4617
  203MOL0     C27309   3.058   8.794   2.827 -0.0372  0.2737  0.0833
  203MOL0     C27310   3.016   8.917   2.746 -0.3033  0.8327  0.3334
  203MOL0     C27311   2.931   9.011   2.830  0.4189  0.0829 -0.5507
  203MOL0     C27312   2.826   8.947   2.928  0.1926 -0.2911 -0.0846
  203MOL0     C27313   2.702   8.892   2.867 -0.0736  0.0164 -0.2976
  203MOL0     C27314   2.609   9.007   2.825  0.1354 -0.5859  0.4022
  203MOL0    Cl27315   2.456   8.937   2.786  0.5178  0.0595 -0.4343
  203MOL0     C27316   3.331   8.450   2.422 -0.5228 -0.0371 -0.8769
  203MOL0     C27317   3.324   8.381   2.299 -0.1339  0.5863 -0.0004
  203MOL0     O27318   3.362   8.140   2.138  0.1551  0.5082 -0.5248
  203MOL0     C27319   3.211   8.215   1.832 -1.2375 -0.0680 -0.1417
  203MOL0     C27320   3.191   8.160   1.701 -0.7373  0.3935  0.6517
  203MOL0     N27321   2.792   7.988   1.576 -0.1556 -0.2663 -0.1881
  203MOL0     N27322   2.795   8.061   1.678 -0.4534  0.2074 -1.0172
  203MOL0     C27323   3.266   8.277   2.900  0.0210  0.2105  0.2434
  203MOL0     C27324   3.349   8.345   2.992 -0.0176 -0.1973  0.9274
  203MOL0     C27325   3.419   8.704   3.304 -1.2010  0.4371 -1.3762
  203MOL0     C27326   3.411   8.744   3.438  0.0287  0.3078  0.4225
  203MOL0     C27327   3.481   8.840   3.500 -1.8321 -0.2478  0.2132
  203MOL0     C27328   3.588   8.898   3.427  0.0118 -0.2501  0.2866
  203MOL0     O27329   3.666   8.990   3.489  0.2788 -0.2209  0.4634
  203MOL0     C27330   3.756   9.078   3.414  0.0020  0.5479 -0.3340
  203MOL0     C27331   3.681   9.177   3.315 -0.5680  0.0323 -0.0313
  203MOL0     C27332   3.588   9.263   3.397  0.1173 -0.2763 -0.1678
  203MOL0     C27333   3.517   9.375   3.321 -0.4295  0.1128  0.5211
  203MOL0     C27334   3.486   9.491   3.408 -0.4256  0.2112 -0.8685
  203MOL0     C27335   3.456   9.582   3.480 -0.0192 -0.2297  0.0888
  203MOL0     C27336   3.611   8.859   3.290  0.7856 -0.8288  0.5025
  203MOL0     C27337   3.513   8.778   3.227 -0.1784  0.5453 -0.0318
  203MOL0     H27338   3.123   8.587   3.072 -1.7829 -1.1273 -0.9548
  203MOL0     H27339   2.979   8.452   2.922  0.6112  1.3765  0.9673
  203MOL0     H27340   3.129   8.266   2.609 -0.1690 -2.4120 -2.8193
  203MOL0     H27341   3.169   8.102   2.687 -0.8289 -0.6125  1.6573
  203MOL0     H27342   2.926   8.051   2.683 -0.0909 -2.2046 -1.6519
  203MOL0     H27343   2.899   8.201   2.603 -1.4662  0.7081  1.9865
  203MOL0     H27344   3.030   8.111   2.411 -1.4702 -0.2264  0.2922
  203MOL0     H27345   3.051   7.953   2.507  1.3400 -0.0145 -0.1310
  203MOL0     H27346   2.825   7.903   2.479 -2.1725  2.3350  0.8357
  203MOL0     H27347   2.777   8.058   2.413 -0.6803 -0.0094  2.6882
  203MOL0     H27348   2.966   7.857   2.284 -0.6414  0.7210  0.9213
  203MOL0     H27349   2.778   7.865   2.268 -1.4501  0.5810  0.3126
  203MOL0     H27350   2.817   8.106   2.185  3.0023  2.9352 -0.8576
  203MOL0     H27351   2.979   8.065   2.150 -0.9215  0.9367 -0.6675
  203MOL0     H27352   2.929   7.862   2.029 -1.6942 -2.6147  0.5344
  203MOL0     H27353   2.754   7.895   2.022 -0.7254  0.2195 -1.4093
  203MOL0     H27354   2.988   8.057   1.920  0.7594 -1.4221 -2.3168
  203MOL0     H27355   2.829   8.132   1.938 -0.5774  0.7325 -3.6607
  203MOL0     H27356   2.949   7.794   1.800 -1.2994 -2.0988 -0.4731
  203MOL0     H27357   2.865   7.662   1.533  2.7721 -0.4470  0.5159
  203MOL0     H27358   2.809   7.783   1.426 -0.4339  1.4526  0.6254
  203MOL0     H27359   3.023   7.689   1.357  0.3443  0.3312  0.1269
  203MOL0     H27360   3.099   7.735   1.508  1.1535  0.1029 -1.9974
  203MOL0     H27361   2.976   7.949   1.312 -0.8972  0.5495  1.2480
  203MOL0     H27362   3.138   7.881   1.289 -1.4722 -2.3453 -2.1009
  203MOL0     H27363   3.026   8.066   1.499 -1.0009 -2.7170  0.1297
  203MOL0     H27364   3.171   8.072   1.398  1.3853 -1.1439 -0.7309
  203MOL0     H27365   3.273   7.831   1.780  0.5332  0.3670  0.8590
  203MOL0     H27366   3.253   7.930   2.127  2.6375  1.0811 -0.2660
  203MOL0     H27367   3.268   7.792   2.008 -3.1289  0.1171 -1.8123
  203MOL0     H27368   3.395   7.904   2.064 -0.4174  3.4570  0.4208
  203MOL0     H27369   2.997   8.426   2.220 -0.0428 -3.1073  2.4283
  203MOL0     H27370   3.005   8.504   2.462 -0.1372  0.4021 -0.3967
  203MOL0     H27371   3.061   8.677   2.566 -1.6856 -2.5412 -0.8216
  203MOL0     H27372   3.031   8.561   2.683  1.4981 -1.6419  2.3298
  203MOL0     H27373   3.221   8.658   2.833  1.9784  0.8590 -0.3924
  203MOL0     H27374   3.240   8.794   2.728  0.5119  0.5741  1.7557
  203MOL0     H27375   3.091   8.830   2.925 -3.7523 -1.3878  2.1975
  203MOL0     H27376   2.966   8.738   2.847  0.4017 -1.8752 -3.1048
  203MOL0     H27377   3.104   8.972   2.710  0.8880 -2.9306 -3.3274
  203MOL0     H27378   2.958   8.892   2.657 -0.6747  1.9116  0.2636
  203MOL0     H27379   2.888   9.089   2.766  2.0888  1.3649 -0.1651
  203MOL0     H27380   3.005   9.067   2.888  0.1293  2.4217 -2.3083
  203MOL0     H27381   2.876   8.875   2.993 -0.4329 -1.6633 -1.0798
  203MOL0     H27382   2.794   9.029   2.993  3.0257  1.2652 -0.4734
  203MOL0     H27383   2.645   8.839   2.945 -1.7004  2.1900  0.1065
  203MOL0     H27384   2.726   8.838   2.775 -0.2956  2.3515 -1.8224
  203MOL0     H27385   2.658   9.045   2.734  0.1885 -1.3446  0.1057
  203MOL0     H27386   2.603   9.082   2.904 -0.0444  0.6932 -0.7865
  203MOL0     H27387   3.425   8.455   2.475  0.1501 -2.1912 -1.7366
  203MOL0     H27388   3.416   8.333   2.265  0.3342  0.6193  1.1463
  203MOL0     H27389   3.212   8.324   1.839  0.6892  0.0635 -1.6495
  203MOL0     H27390   3.168   8.231   1.623  0.8564 -0.3592 -0.5721
  203MOL0     H27391   3.310   8.191   2.850  0.8378  0.7469  0.0169
  203MOL0     H27392   3.454   8.328   3.014 -0.2512 -1.3849  1.1733
  203MOL0     H27393   3.342   8.689   3.502 -2.2722 -0.4291 -2.4821
  203MOL0     H27394   3.451   8.858   3.603  0.6851 -1.1746  1.1636
  203MOL0     H27395   3.823   9.132   3.482  2.2158 -1.8618 -0.4383
  203MOL0     H27396   3.830   9.013   3.366 -2.4787 -2.7872  0.0423
  203MOL0     H27397   3.625   9.129   3.234  0.6764 -2.1918  0.3570
  203MOL0     H27398   3.742   9.245   3.255 -1.6863 -0.4045 -1.7577
  203MOL0     H27399   3.651   9.306   3.475  0.2350 -0.5083 -0.1339
  203MOL0     H27400   3.511   9.201   3.443 -1.1000  0.1072 -1.6002
  203MOL0     H27401   3.428   9.326   3.280 -1.6123  2.5013  0.0698
  203MOL0     H27402   3.573   9.412   3.234 -0.0001  1.2349  1.2589
  203MOL0     H27403   3.442   9.652   3.560 -0.1136  1.4422 -1.3193
  203MOL0     H27404   3.703   8.900   3.249  0.3432  0.2451  0.5554
  203MOL0     H27405   3.536   8.735   3.130 -0.2877  0.5349 -0.0527
  204MOL0     O27406   8.370   0.545   6.515 -0.7784  0.4533  0.1206
  204MOL0     C27407   8.363   0.664   6.489  0.3525  0.2095 -0.0897
  204MOL0     O27408   8.458   0.739   6.426  0.6211  0.3846  0.1774
  204MOL0     C27409   8.575   0.682   6.385  0.3954  0.6238 -0.1882
  204MOL0     C27410   8.578   0.556   6.317 -0.6916 -0.9573 -0.0778
  204MOL0     C27411   8.705   0.500   6.292  0.2066 -0.6797 -0.0141
  204MOL0     C27412   8.827   0.562   6.334 -0.1165  0.5191  0.3814
  204MOL0     O27413   8.959   0.511   6.316  0.1120  0.5860 -0.1824
  204MOL0     C27414   8.978   0.403   6.235 -0.6898  1.0695 -0.0915
  204MOL0     C27415   9.117   0.349   6.233 -0.6653  0.3589 -0.2938
  204MOL0     C27416   9.202   0.426   6.131  0.2925  0.3046 -1.2599
  204MOL0     C27417   9.178   0.387   5.986 -0.3071 -0.0706  0.0722
  204MOL0     C27418   9.281   0.463   5.911 -0.5758 -0.6683  0.0460
  204MOL0     C27419   9.248   0.470   5.767  0.1850 -0.1759 -0.5091
  204MOL0     C27420   9.348   0.538   5.682 -0.4395 -0.7515 -0.2733
  204MOL0     C27421   9.493   0.474   5.678 -0.1702 -0.1248 -0.1585
  204MOL0     N27422   9.492   0.340   5.616 -0.3911 -0.3959  0.1447
  204MOL0     C27423   9.495   0.219   5.679  0.3854  0.0322  0.0187
  204MOL0     C27424   9.450   0.135   5.577 -0.3332 -0.4825  0.4964
  204MOL0     C27425   9.449  -0.016   5.585 -0.8456 -0.1534  0.2316
  204MOL0     C27426   9.315  -0.070   5.540  0.0960 -0.3275  0.7656
  204MOL0     C27427   9.330  -0.182   5.433 -0.0205  0.5287 -0.3786
  204MOL0     C27428   9.339  -0.124   5.288 -0.2437  0.0882  0.0760
  204MOL0     O27429   9.359  -0.234   5.193 -0.6225 -0.8157 -0.3994
  204MOL0     C27430   9.254  -0.278   5.114 -0.4553  0.2861 -0.5313
  204MOL0     C27431   9.288  -0.338   4.997  0.1525  0.7824  0.1566
  204MOL0     C27432   9.187  -0.367   4.906  0.0320  0.2768  1.1503
  204MOL0     C27433   9.235  -0.414   4.767  0.2544 -0.3409 -0.6785
  204MOL0     C27434   9.050  -0.338   4.935  0.7561 -0.6786  0.0927
  204MOL0     C27435   8.924  -0.361   4.857 -0.8188 -0.4819 -0.3379
  204MOL0     O27436   8.804  -0.294   4.884 -0.6686  0.2359  0.2934
  204MOL0     C27437   8.704  -0.315   4.787  0.5533  0.2149  0.5542
  204MOL0     C27438   8.645  -0.443   4.798  0.4190  0.2175  0.1591
  204MOL0     C27439   8.527  -0.467   4.724 -0.1954  0.8680 -0.3377
  204MOL0     C27440   8.489  -0.374   4.623  0.5399  1.0357  0.2142
  204MOL0     O27441   8.384  -0.408   4.534 -0.3814  0.7250  0.5970
  204MOL0     C27442   8.430  -0.423   4.396  0.1913  1.2861 -1.5948
  204MOL0     C27443   8.398  -0.564   4.334  0.3936  0.0677  0.2929
  204MOL0     C27444   8.477  -0.674   4.404  0.7094  1.1523 -0.2302
  204MOL0     C27445   8.447  -0.815   4.349 -0.2366 -0.3858 -0.6358
  204MOL0     C27446   8.499  -0.928   4.444  0.2678 -0.7650 -0.1072
  204MOL0     C27447   8.440  -1.066   4.428 -0.8099 -0.2303 -1.1017
  204MOL0     C27448   8.487  -1.146   4.553  0.0199 -0.0330 -0.6205
  204MOL0     C27449   8.488  -1.293   4.522  0.0419  0.1922 -0.4200
  204MOL0    Cl27450   8.534  -1.379   4.665 -0.2554  0.1844  0.3023
  204MOL0     C27451   8.541  -0.245   4.621  0.0246  0.2265 -0.8393
  204MOL0     C27452   8.649  -0.211   4.711  0.0998 -0.0484  0.1261
  204MOL0     O27453   8.948  -0.429   4.757  0.0874  0.1597 -0.4733
  204MOL0     C27454   9.020  -0.290   5.064 -0.7565  0.2974  1.0863
  204MOL0     C27455   9.121  -0.262   5.148 -0.7895  0.2743 -0.7736
  204MOL0     N27456   9.420   0.208   5.466 -0.3281 -0.1700 -0.4361
  204MOL0     N27457   9.445   0.330   5.487  0.3873 -0.0467  1.3011
  204MOL0     C27458   8.813   0.684   6.394  0.3508 -0.2266 -0.6417
  204MOL0     C27459   8.692   0.747   6.419  0.7480 -0.2031  0.1770
  204MOL0     C27460   8.238   0.732   6.540  0.7568 -0.0588  0.6189
  204MOL0     C27461   8.197   0.858   6.495  0.0623  0.0448  0.0501
  204MOL0     C27462   8.082   0.934   6.550 -0.4834  0.2230  0.2963
  204MOL0     C27463   8.002   0.876   6.641 -0.4576 -0.0445 -0.2451
  204MOL0     O27464   7.882   0.929   6.692  0.4664  0.1251  0.2176
  204MOL0     C27465   7.873   1.071   6.694  0.2377  0.1921 -0.5864
  204MOL0     C27466   7.953   1.136   6.818  0.4601 -0.4926  0.2688
  204MOL0     C27467   7.926   1.284   6.828 -0.2132 -0.7078 -0.0382
  204MOL0     C27468   8.040   1.360   6.770  0.0737  0.9118  0.5745
  204MOL0     C27469   8.060   1.325   6.627  0.1358 -0.2162 -0.1314
  204MOL0     C27470   8.082   1.305   6.507  0.2912 -0.1731 -0.4406
  204MOL0     C27471   8.039   0.749   6.689 -0.1740  0.5301  0.1565
  204MOL0     C27472   8.155   0.678   6.638  0.1718  0.1049  0.2744
  204MOL0     H27473   8.488   0.504   6.283 -1.4765 -0.2539  0.8865
  204MOL0     H27474   8.697   0.417   6.222  0.8185  1.9955 -3.5491
  204MOL0     H27475   8.915   0.319   6.267 -2.3090  1.9503 -0.8275
  204MOL0     H27476   8.944   0.443   6.139 -4.1079  3.1919  1.7825
  204MOL0     H27477   9.167   0.348   6.331  0.3581 -1.0774 -0.7915
  204MOL0     H27478   9.118   0.245   6.199  2.9043  0.1058  0.1725
  204MOL0     H27479   9.182   0.533   6.145  2.4905  0.5660  0.5941
  204MOL0     H27480   9.308   0.403   6.147  0.3209  0.4454 -1.2423
  204MOL0     H27481   9.196   0.281   5.967 -0.6649  0.1350 -1.5553
  204MOL0     H27482   9.076   0.415   5.957 -1.1400  0.8258  3.5100
  204MOL0     H27483   9.288   0.568   5.940 -0.1749 -0.7921  0.4045
  204MOL0     H27484   9.376   0.417   5.937 -0.3353  0.5137  1.3570
  204MOL0     H27485   9.250   0.364   5.740  2.2039 -0.5940  1.1229
  204MOL0     H27486   9.149   0.516   5.753 -0.9842 -1.9430  1.3738
  204MOL0     H27487   9.306   0.541   5.581  0.2546  0.1530 -0.5449
  204MOL0     H27488   9.358   0.638   5.723 -3.0979 -1.3771  2.3057
  204MOL0     H27489   9.530   0.464   5.780  1.3207  1.7580 -0.4411
  204MOL0     H27490   9.567   0.538   5.628  0.8891  1.0151  2.6931
  204MOL0     H27491   9.523   0.191   5.780  0.9177 -2.4218 -0.7325
  204MOL0     H27492   9.529  -0.070   5.532 -3.7904 -1.2572 -3.5743
  204MOL0     H27493   9.467  -0.050   5.687  4.1448  0.7365 -0.1097
  204MOL0     H27494   9.264   0.020   5.502  3.5307  1.2862 -0.4099
  204MOL0     H27495   9.267  -0.105   5.632  1.7509 -2.1098  1.0049
  204MOL0     H27496   9.250  -0.256   5.445  1.2763 -0.8061  0.3055
  204MOL0     H27497   9.409  -0.256   5.447 -1.1688 -0.8030 -0.7503
  204MOL0     H27498   9.410  -0.042   5.272  0.9695 -0.7340  1.0121
  204MOL0     H27499   9.237  -0.088   5.277 -1.4876 -2.7315  1.3400
  204MOL0     H27500   9.394  -0.340   4.972  0.0587  1.3065 -0.2928
  204MOL0     H27501   9.201  -0.518   4.764  0.8346 -0.5201 -1.2063
  204MOL0     H27502   9.191  -0.358   4.684 -1.9987 -0.5442  0.2882
  204MOL0     H27503   9.343  -0.414   4.777  0.2215 -2.2748  0.1126
  204MOL0     H27504   8.668  -0.527   4.862 -1.0857  0.0593  0.5365
  204MOL0     H27505   8.467  -0.555   4.745  0.3974  0.7146  0.7837
  204MOL0     H27506   8.365  -0.352   4.344 -2.8928 -0.2693 -0.1876
  204MOL0     H27507   8.533  -0.391   4.383  0.1574  1.4384 -1.4968
  204MOL0     H27508   8.293  -0.578   4.359  0.7218  0.2201  1.8738
  204MOL0     H27509   8.418  -0.560   4.227  0.4697 -1.1953  0.2480
  204MOL0     H27510   8.438  -0.663   4.506 -2.6331 -1.6594 -1.0246
  204MOL0     H27511   8.585  -0.654   4.399  0.2726  4.5635  1.0999
  204MOL0     H27512   8.338  -0.819   4.340 -0.2376 -2.0242 -0.1885
  204MOL0     H27513   8.487  -0.827   4.248  0.5920 -0.3783 -0.3194
  204MOL0     H27514   8.482  -0.893   4.546 -1.6147  0.7243 -0.8884
  204MOL0     H27515   8.607  -0.930   4.429  0.2106 -0.7543 -0.5089
  204MOL0     H27516   8.331  -1.065   4.437 -0.9228 -4.9435  0.7643
  204MOL0     H27517   8.464  -1.114   4.333 -2.1865  1.1107 -2.1692
  204MOL0     H27518   8.411  -1.109   4.623  0.0213  2.5360 -1.8441
  204MOL0     H27519   8.590  -1.125   4.583  0.9192 -0.7744 -2.9813
  204MOL0     H27520   8.561  -1.317   4.443  1.6270 -1.5668  1.4474
  204MOL0     H27521   8.388  -1.323   4.489 -0.0686 -3.0597  2.3671
  204MOL0     H27522   8.501  -0.169   4.555 -3.2133 -0.0131  0.6697
  204MOL0     H27523   8.691  -0.112   4.705  2.0154 -0.7551  0.9346
  204MOL0     H27524   8.913  -0.283   5.082 -1.4209 -1.5064 -1.4986
  204MOL0     H27525   9.093  -0.225   5.246 -2.2731 -0.3693 -0.9270
  204MOL0     H27526   8.904   0.736   6.421  0.4688  0.3827 -2.1179
  204MOL0     H27527   8.690   0.839   6.477  2.1274  0.3008 -0.5297
  204MOL0     H27528   8.258   0.909   6.421 -1.1292  0.5755 -0.5901
  204MOL0     H27529   8.068   1.034   6.512 -0.9355 -0.4878 -1.5521
  204MOL0     H27530   7.906   1.110   6.598  0.7200  2.1590  0.3289
  204MOL0     H27531   7.766   1.091   6.704 -0.4163 -2.7984 -0.6261
  204MOL0     H27532   8.060   1.114   6.812  0.0938 -2.1460 -0.8096
  204MOL0     H27533   7.913   1.093   6.911  1.2433 -1.5294  0.1298
  204MOL0     H27534   7.914   1.320   6.930 -0.6452 -2.4097  0.5327
  204MOL0     H27535   7.831   1.312   6.782  0.2818  2.3612  0.6070
  204MOL0     H27536   8.133   1.338   6.824 -0.4067  2.3956  2.0873
  204MOL0     H27537   8.020   1.467   6.776  0.5318  1.1711 -1.5852
  204MOL0     H27538   8.103   1.284   6.404 -0.3404  0.6885 -0.7607
  204MOL0     H27539   7.978   0.698   6.763 -0.7717  1.5546  0.3905
  204MOL0     H27540   8.182   0.581   6.678  0.2545 -0.4706 -1.1273
  205MOL0     O27541  10.021   6.162   8.814 -0.2902 -0.5086  0.3579
  205MOL0     C27542  10.099   6.157   8.720 -0.2680  0.3222  0.3016
  205MOL0     O27543  10.084   6.085   8.606 -0.3980 -0.0279 -0.2175
  205MOL0     C27544   9.962   6.009   8.594 -0.3712 -1.3760  0.1947
  205MOL0     C27545   9.886   5.957   8.702 -0.2786  0.6580  0.6285
  205MOL0     C27546   9.758   5.899   8.677 -0.4489  0.1259  0.2464
  205MOL0     C27547   9.707   5.887   8.541 -1.6706 -0.1839 -0.2049
  205MOL0     O27548   9.590   5.822   8.529  0.0729  0.1305 -0.3504
  205MOL0     C27549   9.565   5.737   8.413  0.6432  0.7769 -0.4344
  205MOL0     C27550   9.465   5.789   8.312 -0.7682 -0.2856 -0.5219
  205MOL0     C27551   9.325   5.797   8.353  0.5140 -0.2624 -0.0421
  205MOL0     C27552   9.256   5.659   8.352  0.0975 -0.7203 -0.1445
  205MOL0     C27553   9.108   5.687   8.372 -0.4916 -0.7885  0.1248
  205MOL0     C27554   9.026   5.570   8.437  0.7283 -0.8182  0.4182
  205MOL0     C27555   9.047   5.439   8.352  0.0835 -0.1207 -0.9085
  205MOL0     C27556   8.976   5.435   8.218  0.7693 -0.7630  0.6000
  205MOL0     N27557   8.820   5.432   8.221 -0.6756 -0.2735 -0.4476
  205MOL0     C27558   8.748   5.472   8.113  1.0227  0.0430  0.0623
  205MOL0     C27559   8.631   5.423   8.131 -0.2015 -0.4805  0.3649
  205MOL0     C27560   8.513   5.453   8.047 -0.6004 -0.8580 -0.6981
  205MOL0     C27561   8.514   5.606   8.016 -0.4706 -0.7417  0.1312
  205MOL0     C27562   8.398   5.650   7.918 -0.2676  0.0143  0.0549
  205MOL0     C27563   8.380   5.804   7.913 -0.1170 -0.5013 -0.5441
  205MOL0     O27564   8.444   5.858   7.787 -0.3323  0.6101 -0.2991
  205MOL0     C27565   8.461   5.985   7.763  0.6196 -0.3866  0.0311
  205MOL0     C27566   8.511   6.010   7.635 -0.3293  0.0231  0.0008
  205MOL0     C27567   8.533   6.139   7.588 -0.2010  0.5733 -0.6918
  205MOL0     C27568   8.579   6.159   7.445 -0.1360 -1.5748 -0.2134
  205MOL0     C27569   8.490   6.249   7.680  0.4831  0.1463  0.7519
  205MOL0     C27570   8.508   6.395   7.638  0.7292 -0.4180 -0.6718
  205MOL0     O27571   8.422   6.476   7.704 -0.4222  0.3093 -0.6302
  205MOL0     C27572   8.413   6.605   7.654  1.2403  0.4790 -1.1164
  205MOL0     C27573   8.464   6.720   7.727  0.6970  1.0068  0.4176
  205MOL0     C27574   8.449   6.842   7.675  0.4187  0.0244  0.4239
  205MOL0     C27575   8.385   6.864   7.550 -1.5093  0.4187  0.8208
  205MOL0     O27576   8.366   6.986   7.484  0.4503 -0.6878  0.1853
  205MOL0     C27577   8.422   7.105   7.537 -0.2147 -0.0491  0.5358
  205MOL0     C27578   8.413   7.203   7.421  1.2260 -0.3218 -0.6750
  205MOL0     C27579   8.474   7.335   7.458 -0.5584 -0.0393 -0.0205
  205MOL0     C27580   8.471   7.438   7.339 -0.5621 -0.6482  0.1834
  205MOL0     C27581   8.515   7.574   7.385 -0.0159  0.4777 -0.4005
  205MOL0     C27582   8.519   7.676   7.272 -0.2068  0.0949 -0.4304
  205MOL0     C27583   8.384   7.738   7.237  0.2877  0.0158 -0.6909
  205MOL0     C27584   8.394   7.785   7.087 -0.5025  0.1437  0.0925
  205MOL0    Cl27585   8.233   7.818   7.019 -0.0015  0.0680 -0.4386
  205MOL0     C27586   8.342   6.750   7.480  0.5158 -0.3675  0.5699
  205MOL0     C27587   8.345   6.625   7.534 -0.0907 -0.1174 -0.0554
  205MOL0     O27588   8.593   6.432   7.559 -0.2886  0.2555  0.4846
  205MOL0     C27589   8.439   6.216   7.810 -0.0274  0.0976  0.9471
  205MOL0     C27590   8.437   6.082   7.854 -0.2503  0.3621 -0.4479
  205MOL0     N27591   8.627   5.349   8.245  0.1717  0.3450 -0.4534
  205MOL0     N27592   8.742   5.354   8.298 -0.1491  0.6659 -0.2236
  205MOL0     C27593   9.790   5.936   8.435 -0.4569  0.0741 -0.7812
  205MOL0     C27594   9.919   5.989   8.460 -0.0480 -0.1591  1.1661
  205MOL0     C27595  10.217   6.250   8.720  0.2280  0.2479 -0.2940
  205MOL0     C27596  10.306   6.260   8.614 -0.5197  1.2224  0.4603
  205MOL0     C27597  10.412   6.360   8.617  0.1967 -0.0226 -0.5305
  205MOL0     C27598  10.417   6.447   8.729  0.2953 -0.0978  0.0395
  205MOL0     O27599  10.505   6.547   8.712 -0.2236  0.4732  0.5022
  205MOL0     C27600  10.536   6.636   8.830 -0.6484  0.3855  0.0397
  205MOL0     C27601  10.685   6.689   8.815 -0.3545 -0.2082  0.5274
  205MOL0     C27602  10.712   6.771   8.942 -0.7704 -0.5998 -0.6129
  205MOL0     C27603  10.663   6.918   8.926 -0.1032  1.1117 -0.2009
  205MOL0     C27604  10.748   7.004   9.018  0.2567 -0.2056  0.8102
  205MOL0     C27605  10.823   7.060   9.095  1.2416 -1.4425 -0.2852
  205MOL0     C27606  10.319   6.442   8.825  1.1948  0.7579 -0.5902
  205MOL0     C27607  10.216   6.348   8.817  0.0142  0.1958  0.0173
  205MOL0     H27608   9.915   5.942   8.806 -2.5178 -4.3569  0.8175
  205MOL0     H27609   9.699   5.852   8.756 -0.8957 -4.1507 -2.3135
  205MOL0     H27610   9.657   5.721   8.356  0.9837  0.4420  0.2033
  205MOL0     H27611   9.534   5.636   8.442  2.6516 -0.2009 -1.4660
  205MOL0     H27612   9.494   5.887   8.274 -3.6041  0.5994 -0.6636
  205MOL0     H27613   9.479   5.718   8.230 -1.3226 -3.1512  1.6757
  205MOL0     H27614   9.325   5.854   8.446 -0.6969 -0.0271 -0.1614
  205MOL0     H27615   9.271   5.865   8.287 -0.5243  0.9155  1.9273
  205MOL0     H27616   9.279   5.608   8.258 -0.1326 -0.6491 -0.2407
  205MOL0     H27617   9.282   5.601   8.442 -1.5799 -5.1456 -2.2278
  205MOL0     H27618   9.099   5.771   8.442 -2.3026  0.1268 -1.1129
  205MOL0     H27619   9.076   5.730   8.277  0.0733 -0.0884  0.2496
  205MOL0     H27620   9.059   5.557   8.541 -3.7689  1.8258  2.4657
  205MOL0     H27621   8.925   5.609   8.445  2.0087  2.8670  0.4377
  205MOL0     H27622   9.155   5.421   8.349 -0.0383 -1.0505 -0.1387
  205MOL0     H27623   9.013   5.355   8.414  1.2015 -0.0722 -0.1958
  205MOL0     H27624   9.010   5.348   8.162 -1.3395 -1.4396  0.2812
  205MOL0     H27625   9.005   5.523   8.160 -0.4402 -2.6306 -3.1797
  205MOL0     H27626   8.793   5.515   8.024  0.4004 -0.5308 -0.5424
  205MOL0     H27627   8.524   5.395   7.955 -0.9878 -0.5349 -0.9506
  205MOL0     H27628   8.421   5.429   8.102  0.0735 -0.3852  0.6939
  205MOL0     H27629   8.608   5.641   7.973 -0.4535 -0.5065  0.3569
  205MOL0     H27630   8.506   5.661   8.110  1.1041  1.5411 -0.9608
  205MOL0     H27631   8.302   5.607   7.948 -0.9557  1.3667 -0.1142
  205MOL0     H27632   8.430   5.615   7.820  2.4334 -1.3243  1.3163
  205MOL0     H27633   8.430   5.845   8.002 -0.5758 -0.4393 -0.3119
  205MOL0     H27634   8.272   5.819   7.918 -0.0457  0.4713 -1.6103
  205MOL0     H27635   8.542   5.919   7.585  0.8610 -0.9734  2.4082
  205MOL0     H27636   8.544   6.256   7.407  0.8726 -1.0569  0.1492
  205MOL0     H27637   8.688   6.151   7.440  0.4173  3.0641 -0.0889
  205MOL0     H27638   8.537   6.080   7.382  0.3998 -1.5307 -0.6420
  205MOL0     H27639   8.529   6.697   7.811 -0.3420 -0.5745  0.8491
  205MOL0     H27640   8.499   6.926   7.722  0.4326 -0.5404  1.4369
  205MOL0     H27641   8.369   7.155   7.619  0.2919  0.7402  0.3898
  205MOL0     H27642   8.528   7.102   7.565 -0.2124 -0.5730  0.4773
  205MOL0     H27643   8.471   7.160   7.339  1.4642  1.4863 -1.5181
  205MOL0     H27644   8.306   7.208   7.400  0.5699 -0.2984  2.1880
  205MOL0     H27645   8.579   7.315   7.482 -0.3805  0.6799 -0.1757
  205MOL0     H27646   8.435   7.375   7.552 -3.1467 -1.3922 -0.4306
  205MOL0     H27647   8.549   7.415   7.266 -0.5271 -1.0588  0.3507
  205MOL0     H27648   8.377   7.443   7.282 -0.1016 -1.3906 -0.6609
  205MOL0     H27649   8.615   7.571   7.431 -0.8329 -1.8506  1.3958
  205MOL0     H27650   8.452   7.611   7.466 -0.4274 -2.3528  0.6794
  205MOL0     H27651   8.583   7.758   7.304 -0.2679 -0.8956  2.4704
  205MOL0     H27652   8.557   7.631   7.179  1.8969  1.0759 -0.0836
  205MOL0     H27653   8.370   7.824   7.303  1.4941  0.1459 -0.5709
  205MOL0     H27654   8.308   7.661   7.248 -1.9537  1.9105 -1.9574
  205MOL0     H27655   8.444   7.718   7.017  2.4530 -0.1215  2.2812
  205MOL0     H27656   8.454   7.876   7.084 -1.7109  1.0240 -3.5856
  205MOL0     H27657   8.297   6.767   7.383 -0.8331 -0.9697  1.0730
  205MOL0     H27658   8.300   6.546   7.476  0.1405 -0.0681 -0.3013
  205MOL0     H27659   8.411   6.299   7.874 -0.9516  1.6235 -1.3142
  205MOL0     H27660   8.425   6.054   7.958  1.1629 -2.8182 -1.0362
  205MOL0     H27661   9.760   5.914   8.333  0.2953 -0.7411 -0.8422
  205MOL0     H27662   9.970   6.041   8.380 -2.0941  0.3868  0.1290
  205MOL0     H27663  10.307   6.181   8.539 -2.4948  2.7389 -1.2931
  205MOL0     H27664  10.471   6.357   8.526  1.2741  0.3037  0.1365
  205MOL0     H27665  10.457   6.711   8.831  0.4056  1.5258  0.1587
  205MOL0     H27666  10.524   6.574   8.920  0.2658  1.7750  1.1485
  205MOL0     H27667  10.699   6.743   8.721 -0.1872  1.1347  1.3044
  205MOL0     H27668  10.749   6.601   8.806 -2.5575 -1.9017  0.3560
  205MOL0     H27669  10.821   6.768   8.948 -0.7333  1.1880  0.0565
  205MOL0     H27670  10.679   6.722   9.034  0.8092 -0.4455  0.0605
  205MOL0     H27671  10.556   6.930   8.946 -0.4231  2.7616 -2.5277
  205MOL0     H27672  10.688   6.940   8.822 -0.6827  0.5136 -0.4779
  205MOL0     H27673  10.897   7.109   9.154  0.4478 -1.4572  0.7605
  205MOL0     H27674  10.309   6.514   8.906  2.9469 -0.3353  0.6663
  205MOL0     H27675  10.133   6.352   8.887 -0.7486  2.1155 -0.9226
  206MOL0     O27676   9.292   4.636   4.014 -0.2296  0.0493 -0.6269
  206MOL0     C27677   9.380   4.607   3.940 -0.2206 -1.0435 -0.3348
  206MOL0     O27678   9.391   4.644   3.805 -0.1658 -0.1286  0.0047
  206MOL0     C27679   9.280   4.662   3.727 -0.4209 -0.1398  0.6136
  206MOL0     C27680   9.285   4.758   3.623  0.0720 -0.7623 -0.9591
  206MOL0     C27681   9.175   4.779   3.536 -0.5330  0.1345  0.9105
  206MOL0     C27682   9.059   4.706   3.548 -1.0600  0.3947  0.3132
  206MOL0     O27683   8.961   4.737   3.459  0.0970 -0.2751  0.5254
  206MOL0     C27684   8.840   4.660   3.441  0.1112 -0.1842 -0.9432
  206MOL0     C27685   8.778   4.704   3.313  0.6257 -0.3798  0.4717
  206MOL0     C27686   8.630   4.662   3.292 -0.5165 -0.5288 -0.7142
  206MOL0     C27687   8.556   4.744   3.190  0.2527  0.4715 -0.0729
  206MOL0     C27688   8.427   4.660   3.145  0.2371  0.6782 -0.4686
  206MOL0     C27689   8.313   4.746   3.105  0.0671 -0.8705 -0.0517
  206MOL0     C27690   8.196   4.672   3.038 -0.3626 -0.2828  0.9626
  206MOL0     C27691   8.088   4.766   2.995  0.4847  0.3558 -0.0298
  206MOL0     N27692   8.127   4.885   2.917 -0.3128  0.3872 -0.0568
  206MOL0     C27693   8.162   4.894   2.789 -0.4257 -0.0972 -0.1268
  206MOL0     C27694   8.119   5.012   2.744  0.3073 -0.8754 -0.5866
  206MOL0     C27695   8.142   5.057   2.603  0.0595  0.3723  0.5128
  206MOL0     C27696   8.014   5.034   2.524  0.4933 -0.8940  0.0243
  206MOL0     C27697   8.010   5.041   2.367  0.3253 -0.1812 -0.8804
  206MOL0     C27698   8.105   4.952   2.297 -0.1929  0.8252  0.7191
  206MOL0     O27699   8.061   4.819   2.288 -0.2411  0.1849 -0.8682
  206MOL0     C27700   8.138   4.734   2.365  0.2348 -0.2999  0.3782
  206MOL0     C27701   8.068   4.623   2.428 -0.6838 -0.2813  0.4948
  206MOL0     C27702   8.139   4.532   2.515  1.1127  0.2489 -0.7112
  206MOL0     C27703   8.062   4.420   2.585  0.0893  0.6315 -0.3274
  206MOL0     C27704   8.282   4.556   2.536  0.0914  0.0376  0.2978
  206MOL0     C27705   8.362   4.505   2.651  0.1164 -0.2863 -0.5407
  206MOL0     O27706   8.487   4.471   2.642 -0.3909  0.2740  0.0541
  206MOL0     C27707   8.548   4.423   2.755  0.4379 -0.0694  0.3564
  206MOL0     C27708   8.526   4.291   2.789 -0.9834 -0.7507 -0.7232
  206MOL0     C27709   8.601   4.237   2.889 -0.0233  0.8409 -0.8357
  206MOL0     C27710   8.696   4.319   2.955  0.5636 -0.0201  0.8663
  206MOL0     O27711   8.782   4.261   3.045 -0.1315  0.6687 -0.5924
  206MOL0     C27712   8.841   4.334   3.163 -0.3613  1.3313  0.4235
  206MOL0     C27713   8.918   4.239   3.257 -0.1478 -0.1866 -0.5578
  206MOL0     C27714   9.031   4.314   3.319 -0.3798  0.1076 -0.2193
  206MOL0     C27715   9.098   4.211   3.421  0.3762 -1.5272 -0.3537
  206MOL0     C27716   9.209   4.281   3.497 -0.2767 -1.1876 -0.8950
  206MOL0     C27717   9.258   4.212   3.624 -0.0505  0.0729  1.0919
  206MOL0     C27718   9.405   4.229   3.662 -0.0719 -0.7098 -0.5364
  206MOL0     C27719   9.500   4.195   3.543  0.0893 -0.6531 -1.1359
  206MOL0    Cl27720   9.676   4.201   3.605 -0.3525 -0.3456 -0.1079
  206MOL0     C27721   8.699   4.462   2.930  0.0113  1.2850  0.4554
  206MOL0     C27722   8.632   4.516   2.821 -0.8280  0.0701 -0.6726
  206MOL0     O27723   8.296   4.495   2.758 -0.0737  0.2494  0.8333
  206MOL0     C27724   8.346   4.645   2.463 -0.3021  0.2142  1.0738
  206MOL0     C27725   8.283   4.734   2.376  0.2890  0.4348 -0.2771
  206MOL0     N27726   8.089   5.085   2.852  0.3101 -0.5792 -0.3373
  206MOL0     N27727   8.085   5.010   2.957 -0.6748  0.3741  0.0417
  206MOL0     C27728   9.049   4.618   3.651 -0.1688  0.5390 -0.6200
  206MOL0     C27729   9.156   4.603   3.743 -0.9239  0.0689  0.2589
  206MOL0     C27730   9.483   4.513   3.988 -0.7237  0.1297  0.1729
  206MOL0     C27731   9.594   4.479   3.908 -0.1931 -0.1974 -0.1839
  206MOL0     C27732   9.684   4.381   3.940  0.3179 -0.1348 -0.8139
  206MOL0     C27733   9.671   4.320   4.071 -0.8216  0.3928 -0.9018
  206MOL0     O27734   9.772   4.237   4.111 -0.3455  0.4743  0.2347
  206MOL0     C27735   9.808   4.230   4.249 -0.0747 -0.2911  0.0423
  206MOL0     C27736   9.830   4.375   4.316  0.1229 -0.0272  0.6847
  206MOL0     C27737   9.922   4.471   4.232  0.0054  0.7253 -0.8254
  206MOL0     C27738   9.915   4.602   4.312 -0.4702 -0.5952 -0.7655
  206MOL0     C27739   9.987   4.597   4.435 -1.1237 -0.6081  0.4315
  206MOL0     C27740  10.045   4.573   4.536 -0.2986  0.1228  0.9770
  206MOL0     C27741   9.552   4.339   4.147 -0.2608  0.2723  0.7061
  206MOL0     C27742   9.461   4.440   4.101  0.0010  0.5178 -0.2324
  206MOL0     H27743   9.376   4.817   3.620 -0.9265  0.8246 -1.7355
  206MOL0     H27744   9.184   4.857   3.461 -1.7617 -1.1703 -0.6612
  206MOL0     H27745   8.856   4.552   3.442 -2.5690 -0.6667 -2.5076
  206MOL0     H27746   8.775   4.685   3.526  2.3100 -1.4413  1.2666
  206MOL0     H27747   8.791   4.813   3.311 -0.6231 -0.1996  1.0525
  206MOL0     H27748   8.842   4.655   3.240  0.8702  0.3423  0.1906
  206MOL0     H27749   8.636   4.557   3.264  2.4575 -0.9333  1.0169
  206MOL0     H27750   8.571   4.679   3.382 -2.1719 -0.4971 -1.7657
  206MOL0     H27751   8.531   4.841   3.233 -1.2174 -0.2006  0.6672
  206MOL0     H27752   8.618   4.752   3.101  1.1067 -0.2743  0.4367
  206MOL0     H27753   8.453   4.585   3.070  1.6111 -0.3250  0.9602
  206MOL0     H27754   8.384   4.607   3.230 -0.0846 -0.4491 -1.3142
  206MOL0     H27755   8.278   4.788   3.200 -1.5403 -1.6605 -0.2691
  206MOL0     H27756   8.348   4.834   3.049 -0.6238  1.5821  3.0668
  206MOL0     H27757   8.239   4.630   2.947  2.6894 -0.9797  2.5765
  206MOL0     H27758   8.173   4.582   3.095  5.0456 -3.1795 -0.7665
  206MOL0     H27759   8.049   4.801   3.091 -0.2274 -1.0316  0.2271
  206MOL0     H27760   8.012   4.709   2.940 -1.2265  1.0955  1.4782
  206MOL0     H27761   8.191   4.817   2.717 -0.8980  1.5558 -2.2054
  206MOL0     H27762   8.168   5.163   2.610 -0.9188  0.5660  1.5084
  206MOL0     H27763   8.222   5.003   2.551 -2.3448 -1.2808 -1.7675
  206MOL0     H27764   7.942   5.113   2.549 -1.0793 -0.9955 -3.5880
  206MOL0     H27765   7.967   4.940   2.554 -3.6887  1.2685  1.0708
  206MOL0     H27766   8.034   5.144   2.338  0.0580  0.3088  0.5515
  206MOL0     H27767   7.912   5.005   2.335  1.2949 -4.7936  0.5111
  206MOL0     H27768   8.206   4.968   2.336 -0.2829  0.6596  1.0226
  206MOL0     H27769   8.098   4.984   2.193  1.4310  1.0635  0.6564
  206MOL0     H27770   7.962   4.620   2.407 -0.6458 -2.2854  0.3989
  206MOL0     H27771   8.114   4.324   2.581 -1.8180 -0.4123 -1.7872
  206MOL0     H27772   8.046   4.446   2.690  3.1567 -4.0335  1.6380
  206MOL0     H27773   7.965   4.401   2.538  0.6434  1.5327 -1.9530
  206MOL0     H27774   8.455   4.239   2.725  0.4037 -2.6028 -0.8377
  206MOL0     H27775   8.599   4.131   2.910 -2.9143  1.3222  2.1373
  206MOL0     H27776   8.922   4.391   3.116  1.7622  0.7583  3.1228
  206MOL0     H27777   8.765   4.396   3.211 -1.6203  1.3758 -1.5194
  206MOL0     H27778   8.859   4.201   3.341 -1.4103  0.9000 -0.9158
  206MOL0     H27779   8.959   4.157   3.197  1.3456  1.7287 -2.2783
  206MOL0     H27780   9.010   4.409   3.369  4.5039 -0.1868  3.0979
  206MOL0     H27781   9.100   4.343   3.239 -1.2773  0.2457 -0.9678
  206MOL0     H27782   9.020   4.166   3.483  0.0093 -0.7473 -0.2399
  206MOL0     H27783   9.144   4.125   3.371 -0.9742 -0.4630 -3.7183
  206MOL0     H27784   9.186   4.378   3.541 -0.3151 -2.6802  2.7315
  206MOL0     H27785   9.282   4.298   3.417 -0.6965  1.0377 -0.8669
  206MOL0     H27786   9.188   4.246   3.701 -1.8365  0.4460 -0.6093
  206MOL0     H27787   9.244   4.104   3.612  3.3515 -0.3725 -0.0389
  206MOL0     H27788   9.442   4.161   3.739  5.2054  2.0581 -0.1452
  206MOL0     H27789   9.428   4.329   3.701  0.3889 -0.7413 -0.7349
  206MOL0     H27790   9.485   4.268   3.463  1.0056  0.7737 -0.0572
  206MOL0     H27791   9.479   4.094   3.508  1.2562 -0.4436 -2.5609
  206MOL0     H27792   8.768   4.526   2.984  1.2449  1.5731 -1.3867
  206MOL0     H27793   8.631   4.623   2.801  0.1002  0.3245  0.5271
  206MOL0     H27794   8.450   4.671   2.480  0.2116 -2.4102  2.5237
  206MOL0     H27795   8.341   4.812   2.327  1.4004  0.0355  0.3756
  206MOL0     H27796   8.949   4.580   3.668  0.1479  0.9904  3.1655
  206MOL0     H27797   9.138   4.534   3.824  0.0099  0.9518  1.2452
  206MOL0     H27798   9.609   4.523   3.810  1.1849  0.3990  0.2698
  206MOL0     H27799   9.772   4.357   3.881 -0.1462  1.8031 -2.4322
  206MOL0     H27800   9.734   4.174   4.306  1.1805 -3.8445 -1.5780
  206MOL0     H27801   9.905   4.179   4.259 -0.6261 -1.8515 -1.9511
  206MOL0     H27802   9.878   4.359   4.413 -1.6726 -4.7334  1.0274
  206MOL0     H27803   9.737   4.428   4.341  0.4684  0.1680  1.6253
  206MOL0     H27804   9.883   4.482   4.130 -0.7607  0.9255 -0.5111
  206MOL0     H27805  10.025   4.433   4.233 -0.3705 -0.3671 -1.6333
  206MOL0     H27806   9.815   4.639   4.335 -0.0993  0.6165 -1.0386
  206MOL0     H27807   9.954   4.680   4.245 -0.1796 -0.8507 -0.8941
  206MOL0     H27808  10.109   4.553   4.620 -3.0463 -2.7220  2.6578
  206MOL0     H27809   9.520   4.289   4.238 -0.5743  2.8570  2.0998
  206MOL0     H27810   9.388   4.481   4.170 -0.2695 -1.1289  0.5032
  207MOL0     O27811   3.910   0.608   5.811 -0.5250  0.2494  0.2967
  207MOL0     C27812   4.006   0.684   5.787  0.1962 -0.1117 -0.3152
  207MOL0     O27813   4.136   0.658   5.811 -0.3875 -0.4716 -0.5185
  207MOL0     C27814   4.181   0.530   5.798 -0.5352  0.2588  0.5508
  207MOL0     C27815   4.294   0.488   5.863 -0.0113 -0.0226  0.3489
  207MOL0     C27816   4.341   0.350   5.837 -0.0956  0.0614  0.2021
  207MOL0     C27817   4.271   0.255   5.766 -0.1981 -0.2873  0.3051
  207MOL0     O27818   4.330   0.131   5.741  0.2608 -0.1313  0.3892
  207MOL0     C27819   4.245   0.022   5.766 -0.6262 -0.2186  0.4616
  207MOL0     C27820   4.335  -0.097   5.748 -0.3105  0.5643 -0.9830
  207MOL0     C27821   4.436  -0.120   5.856 -0.4276  0.6089  0.0573
  207MOL0     C27822   4.493  -0.262   5.863 -0.3861  0.4627  0.3314
  207MOL0     C27823   4.606  -0.280   5.973 -0.0096 -0.3987 -0.2528
  207MOL0     C27824   4.571  -0.259   6.116  0.7439  0.4492 -0.8037
  207MOL0     C27825   4.701  -0.267   6.192  0.4920 -0.1071 -1.3195
  207MOL0     C27826   4.676  -0.255   6.345  0.0664  0.2231 -0.2182
  207MOL0     N27827   4.805  -0.281   6.407  0.3646 -0.2242  0.2334
  207MOL0     C27828   4.851  -0.406   6.437  0.9938 -0.0464  0.1564
  207MOL0     C27829   4.956  -0.385   6.513  0.0120  0.2044  0.0033
  207MOL0     C27830   5.012  -0.503   6.591  0.3434 -0.1907 -0.0158
  207MOL0     C27831   4.921  -0.547   6.706 -0.5079 -0.3299 -0.4995
  207MOL0     C27832   4.999  -0.619   6.815  0.2363  0.7023  0.5714
  207MOL0     C27833   4.917  -0.661   6.932 -0.3106 -0.1958 -0.2071
  207MOL0     O27834   4.993  -0.734   7.026 -0.8209  0.3126  0.4550
  207MOL0     C27835   4.953  -0.771   7.145 -0.4926  0.1310  0.9915
  207MOL0     C27836   5.046  -0.828   7.231  0.3847  0.1194  0.8034
  207MOL0     C27837   5.009  -0.875   7.352  0.2744 -0.2637 -0.5323
  207MOL0     C27838   5.110  -0.954   7.424  0.8055  1.7706 -0.6644
  207MOL0     C27839   4.880  -0.860   7.406 -0.6899  0.0314 -0.4294
  207MOL0     C27840   4.835  -0.908   7.526  0.0901 -0.2918 -0.6699
  207MOL0     O27841   4.703  -0.933   7.534 -0.3296  1.4553  0.7931
  207MOL0     C27842   4.641  -1.004   7.640  0.0868  0.3180  0.1192
  207MOL0     C27843   4.533  -1.086   7.605  0.1598 -0.2885  0.5214
  207MOL0     C27844   4.453  -1.159   7.686 -0.6544 -0.0670 -0.4599
  207MOL0     C27845   4.476  -1.137   7.820  0.6408  0.0103  1.2102
  207MOL0     O27846   4.393  -1.203   7.904 -0.0883  0.4686  0.1249
  207MOL0     C27847   4.340  -1.129   8.015  0.3167 -0.0979 -0.4301
  207MOL0     C27848   4.229  -1.218   8.085  1.0151  0.5586 -1.0005
  207MOL0     C27849   4.086  -1.219   8.016  0.5872 -0.6635 -0.5511
  207MOL0     C27850   3.990  -1.320   8.072  0.0306 -0.3689 -0.1460
  207MOL0     C27851   3.853  -1.310   8.015  0.7075 -0.4728 -0.0296
  207MOL0     C27852   3.787  -1.451   7.995 -0.3472  0.3755 -0.9895
  207MOL0     C27853   3.636  -1.441   7.974 -0.0485  0.8387  0.1365
  207MOL0     C27854   3.593  -1.581   7.934 -0.8418  0.4986  0.9232
  207MOL0    Cl27855   3.640  -1.708   8.044  0.0277  0.1045 -0.4595
  207MOL0     C27856   4.580  -1.047   7.867  0.4080 -0.0680  0.0533
  207MOL0     C27857   4.658  -0.978   7.774  1.5767  1.1973  0.8652
  207MOL0     O27858   4.913  -0.913   7.618 -0.3806 -0.5185 -0.1741
  207MOL0     C27859   4.789  -0.796   7.319 -0.3988  0.0274 -1.1556
  207MOL0     C27860   4.828  -0.742   7.195 -0.1069 -0.1373  0.9416
  207MOL0     N27861   4.984  -0.242   6.514 -0.2716  1.1306 -0.4130
  207MOL0     N27862   4.891  -0.182   6.452  0.0456  0.5060  1.5043
  207MOL0     C27863   4.155   0.295   5.704  0.9494 -0.2439  0.2256
  207MOL0     C27864   4.116   0.436   5.720 -0.2657  0.0505 -0.3201
  207MOL0     C27865   3.967   0.815   5.735 -0.1488 -0.0155  0.4412
  207MOL0     C27866   3.832   0.846   5.695  0.0076 -0.1527 -0.1507
  207MOL0     C27867   3.804   0.961   5.620 -0.3583  0.8240  0.4178
  207MOL0     C27868   3.911   1.042   5.571  1.1066 -0.4794 -0.0246
  207MOL0     O27869   3.886   1.140   5.485 -0.5316 -0.1164 -0.1328
  207MOL0     C27870   3.861   1.107   5.347  0.2848  0.4918 -0.5874
  207MOL0     C27871   3.917   0.966   5.295  0.3312 -0.0220 -0.6980
  207MOL0     C27872   3.934   0.960   5.140  0.4455  0.0999  0.5238
  207MOL0     C27873   3.824   1.025   5.069 -0.2033 -0.9699  0.1530
  207MOL0     C27874   3.832   0.991   4.922  0.7851 -0.4429 -1.3388
  207MOL0     C27875   3.839   0.975   4.804  0.0288 -0.6534 -0.5621
  207MOL0     C27876   4.037   1.023   5.612  0.3186  0.4109  0.2230
  207MOL0     C27877   4.059   0.922   5.710 -0.0703  0.5936  0.5203
  207MOL0     H27878   4.355   0.562   5.915 -1.8130  0.3967  1.9633
  207MOL0     H27879   4.433   0.305   5.873 -0.6673 -1.2619  0.0905
  207MOL0     H27880   4.217   0.017   5.872 -2.4484 -2.1691 -0.0403
  207MOL0     H27881   4.163   0.005   5.695  0.0791  0.9558 -0.6747
  207MOL0     H27882   4.262  -0.175   5.771  1.7325 -1.3475 -0.6345
  207MOL0     H27883   4.379  -0.105   5.648 -1.0732 -1.9065 -1.1751
  207MOL0     H27884   4.517  -0.052   5.828 -1.0207 -0.0393 -3.8193
  207MOL0     H27885   4.392  -0.097   5.953 -1.5458  0.2848 -0.3610
  207MOL0     H27886   4.417  -0.329   5.905  0.3722  0.3321  1.5240
  207MOL0     H27887   4.528  -0.305   5.769  2.2244 -0.4799  1.6433
  207MOL0     H27888   4.643  -0.382   5.969 -2.5260 -1.4478  1.0161
  207MOL0     H27889   4.686  -0.206   5.960  0.2797  0.3253  3.9592
  207MOL0     H27890   4.520  -0.166   6.141  0.9472  0.5729 -0.8367
  207MOL0     H27891   4.503  -0.343   6.135  0.2995  1.5291  3.1028
  207MOL0     H27892   4.755  -0.357   6.159 -0.7225 -1.0593 -0.7692
  207MOL0     H27893   4.771  -0.184   6.178 -1.2276  1.9325  1.3769
  207MOL0     H27894   4.615  -0.336   6.385  1.3416 -0.2000  0.9408
  207MOL0     H27895   4.635  -0.156   6.368  0.8234  0.3985  0.4472
  207MOL0     H27896   4.790  -0.494   6.424 -2.6798  2.3179 -0.0889
  207MOL0     H27897   5.020  -0.585   6.519 -0.3385  0.3954 -0.7908
  207MOL0     H27898   5.114  -0.477   6.621  0.6248 -3.4356  2.3661
  207MOL0     H27899   4.841  -0.612   6.670  1.2365 -2.6998 -0.3767
  207MOL0     H27900   4.876  -0.459   6.752  0.5385  0.0870 -0.2459
  207MOL0     H27901   5.087  -0.567   6.854 -0.9560  0.3723  3.9956
  207MOL0     H27902   5.032  -0.703   6.754 -1.2593  1.9484 -2.1390
  207MOL0     H27903   4.854  -0.744   6.898  1.0218 -1.3674  0.0834
  207MOL0     H27904   4.875  -0.567   6.968 -0.1248  0.2276 -1.0700
  207MOL0     H27905   5.141  -0.846   7.181 -0.4522  2.0483 -1.6787
  207MOL0     H27906   5.152  -0.887   7.499 -0.9434  1.0521  1.0484
  207MOL0     H27907   5.075  -1.045   7.473  1.1548  1.6021 -0.7203
  207MOL0     H27908   5.194  -0.980   7.358  2.2700  2.6928  0.7722
  207MOL0     H27909   4.507  -1.093   7.500  0.1801 -0.9014  0.5513
  207MOL0     H27910   4.371  -1.224   7.657  0.1848 -1.3390 -0.0947
  207MOL0     H27911   4.426  -1.110   8.080 -0.9355  0.3254  1.1503
  207MOL0     H27912   4.294  -1.043   7.966 -1.9443 -1.6597 -1.2555
  207MOL0     H27913   4.263  -1.321   8.079  2.4310  0.8301  1.2688
  207MOL0     H27914   4.222  -1.177   8.187  0.2298 -0.9162 -0.4365
  207MOL0     H27915   4.105  -1.225   7.908 -1.6915 -0.8026 -0.9947
  207MOL0     H27916   4.037  -1.121   8.021 -3.6932 -2.2227 -4.6445
  207MOL0     H27917   4.032  -1.414   8.036 -1.4843 -1.4973  0.8952
  207MOL0     H27918   3.988  -1.304   8.180 -1.2195 -0.7805 -0.0988
  207MOL0     H27919   3.839  -1.252   7.923 -2.2614  0.7093  1.0609
  207MOL0     H27920   3.801  -1.256   8.094 -1.6108 -0.6767 -1.3431
  207MOL0     H27921   3.840  -1.492   7.909 -1.0232  0.6245 -1.5336
  207MOL0     H27922   3.804  -1.514   8.083  1.7135  0.0664 -1.5456
  207MOL0     H27923   3.617  -1.370   7.893 -2.8168  0.0532 -0.0037
  207MOL0     H27924   3.584  -1.404   8.063  0.3134 -1.1049  1.1839
  207MOL0     H27925   3.633  -1.610   7.837  1.4273  0.5783  1.7722
  207MOL0     H27926   3.484  -1.576   7.919 -0.8027  0.6387  0.6742
  207MOL0     H27927   4.606  -1.047   7.973 -1.8780 -2.8193  0.7401
  207MOL0     H27928   4.733  -0.910   7.814 -0.9012  3.1249  2.5561
  207MOL0     H27929   4.688  -0.791   7.357  0.6949 -2.8067  2.6762
  207MOL0     H27930   4.743  -0.715   7.134 -0.3426 -2.6558  0.0083
  207MOL0     H27931   4.110   0.229   5.630  1.2694 -1.6243  1.2177
  207MOL0     H27932   4.035   0.471   5.658  0.0733  2.9412  0.7117
  207MOL0     H27933   3.743   0.785   5.709 -0.7719  0.6857 -1.2599
  207MOL0     H27934   3.710   0.978   5.567  0.0001 -1.9558 -1.2828
  207MOL0     H27935   3.756   1.115   5.315  0.4702 -1.7116 -1.9459
  207MOL0     H27936   3.925   1.189   5.313  0.1732  2.8818  4.2019
  207MOL0     H27937   3.848   0.883   5.315 -0.5698  1.2801  2.0209
  207MOL0     H27938   4.012   0.956   5.347 -0.9205 -0.9122  1.5361
  207MOL0     H27939   3.953   0.853   5.125  1.2035  0.1934  0.7695
  207MOL0     H27940   4.029   1.011   5.121  0.6488 -0.2110  0.6990
  207MOL0     H27941   3.829   1.133   5.085  0.8899 -0.8097 -1.1650
  207MOL0     H27942   3.726   0.986   5.098 -0.7394  0.7887  0.8385
  207MOL0     H27943   3.840   0.965   4.697  1.5756 -0.6192 -0.5732
  207MOL0     H27944   4.114   1.089   5.572 -1.7013  2.8896  0.1454
  207MOL0     H27945   4.158   0.920   5.756  0.6323  3.1562 -0.6966
  208MOL0     O27946   0.652   7.852   1.560 -0.7681  0.4974 -0.1241
  208MOL0     C27947   0.658   7.953   1.482  1.3381 -0.7974  0.1681
  208MOL0     O27948   0.566   8.054   1.479  0.4512 -0.0264 -0.4752
  208MOL0     C27949   0.473   8.045   1.583  0.1763 -0.6354 -0.2589
  208MOL0     C27950   0.342   7.987   1.566 -0.3364  0.1635 -0.9394
  208MOL0     C27951   0.256   7.984   1.680  0.4574  0.4893  0.0236
  208MOL0     C27952   0.300   8.032   1.808 -0.2997 -0.1791  0.1947
  208MOL0     O27953   0.217   8.033   1.922 -0.0993 -0.1030  0.8510
  208MOL0     C27954   0.107   7.943   1.925  0.4760 -0.9219 -0.0948
  208MOL0     C27955   0.037   7.936   2.056 -0.2298  0.6006 -1.1692
  208MOL0     C27956  -0.029   8.072   2.097  0.5612 -0.5375  0.2703
  208MOL0     C27957  -0.030   8.087   2.252 -0.1115 -0.2693  1.0135
  208MOL0     C27958  -0.032   8.234   2.292  0.1666 -0.4855 -0.4953
  208MOL0     C27959  -0.057   8.251   2.444  0.4190 -0.1938  0.1712
  208MOL0     C27960  -0.191   8.179   2.487  0.2583 -0.2909  0.6368
  208MOL0     C27961  -0.254   8.262   2.602  0.1222  0.2556  0.4184
  208MOL0     N27962  -0.175   8.258   2.732  0.5409 -0.6550 -0.3521
  208MOL0     C27963  -0.196   8.178   2.841  0.0153  1.0205  0.0701
  208MOL0     C27964  -0.087   8.187   2.919 -0.2906  0.8433  0.8192
  208MOL0     C27965  -0.054   8.127   3.052 -0.3134 -0.2337 -0.6645
  208MOL0     C27966  -0.116   8.217   3.172  0.1864  0.8254  0.5238
  208MOL0     C27967  -0.269   8.219   3.179 -0.0373  0.5472  1.5763
  208MOL0     C27968  -0.314   8.347   3.246 -0.2115 -0.6570  0.6688
  208MOL0     O27969  -0.288   8.340   3.386 -0.7297 -0.1381 -0.1474
  208MOL0     C27970  -0.294   8.458   3.455  0.4488 -0.1452  0.3530
  208MOL0     C27971  -0.337   8.449   3.588  0.2019 -1.0111 -0.1433
  208MOL0     C27972  -0.364   8.558   3.666  0.3952  1.1030 -0.0075
  208MOL0     C27973  -0.396   8.516   3.811 -0.0978  0.5728 -0.1955
  208MOL0     C27974  -0.356   8.694   3.616 -0.6381  0.4258 -0.4150
  208MOL0     C27975  -0.398   8.819   3.695 -0.4303  0.3781  0.4497
  208MOL0     O27976  -0.384   8.939   3.618  0.4684  0.6326 -0.5911
  208MOL0     C27977  -0.360   9.065   3.672  0.4708  0.3830 -0.2176
  208MOL0     C27978  -0.430   9.172   3.602 -0.0411  0.0323  0.3720
  208MOL0     C27979  -0.392   9.301   3.639  0.0823 -0.3607 -0.3785
  208MOL0     C27980  -0.313   9.332   3.749 -1.0008  0.0136  0.5216
  208MOL0     O27981  -0.279   9.465   3.766 -0.3078 -0.1804  0.4941
  208MOL0     C27982  -0.282   9.498   3.913  0.3114 -1.1042 -0.0242
  208MOL0     C27983  -0.297   9.643   3.921  0.0432 -0.9491 -0.3757
  208MOL0     C27984  -0.270   9.685   4.070  0.2736 -0.2960  0.0381
  208MOL0     C27985  -0.321   9.819   4.110 -0.2310 -0.3482  0.5944
  208MOL0     C27986  -0.462   9.844   4.058 -0.0029  0.3397  0.1370
  208MOL0     C27987  -0.498   9.980   4.102 -0.2412  0.5486 -0.1289
  208MOL0     C27988  -0.643  10.013   4.070 -0.1811 -0.2041 -0.1561
  208MOL0     C27989  -0.698  10.122   4.157 -0.3242 -0.4861 -0.2679
  208MOL0    Cl27990  -0.559  10.236   4.192  0.0231 -0.2798 -0.1075
  208MOL0     C27991  -0.270   9.232   3.831 -0.3087  0.1407 -0.1630
  208MOL0     C27992  -0.289   9.097   3.789  0.0050  0.4174  0.5530
  208MOL0     O27993  -0.421   8.822   3.820 -0.4565  0.2390  0.4342
  208MOL0     C27994  -0.302   8.710   3.487  0.4283  0.4113 -0.6360
  208MOL0     C27995  -0.270   8.594   3.414 -0.2398  0.4693  0.3261
  208MOL0     N27996  -0.001   8.275   2.862  0.1945  0.5489  0.6864
  208MOL0     N27997  -0.062   8.323   2.760 -0.1594  0.1363  0.8130
  208MOL0     C27998   0.418   8.101   1.813  0.1932  0.6852 -0.6568
  208MOL0     C27999   0.506   8.099   1.709  0.0108 -1.1582  0.1406
  208MOL0     C28000   0.754   7.957   1.383  0.7642 -0.5643 -0.1375
  208MOL0     C28001   0.728   8.019   1.262  0.2213  0.2810 -0.2860
  208MOL0     C28002   0.814   8.018   1.156  0.5351  0.1225  0.7529
  208MOL0     C28003   0.928   7.939   1.156 -0.2361 -0.2546  0.0725
  208MOL0     O28004   1.028   7.916   1.063 -0.9133 -0.5113 -0.0670
  208MOL0     C28005   1.055   7.993   0.939  0.4372 -0.6221  0.3638
  208MOL0     C28006   1.192   8.044   0.931 -0.0784  0.4818 -0.1579
  208MOL0     C28007   1.228   8.108   0.799  0.5814 -0.0265  0.0531
  208MOL0     C28008   1.303   8.003   0.715  0.0366 -0.1633 -0.4130
  208MOL0     C28009   1.321   8.051   0.576 -0.4526 -0.0089 -1.0984
  208MOL0     C28010   1.327   8.109   0.471 -0.9649 -0.8625 -0.2629
  208MOL0     C28011   0.947   7.863   1.266  0.1818  0.0899  0.4252
  208MOL0     C28012   0.866   7.869   1.379 -0.0180  0.2442  0.0267
  208MOL0     H28013   0.319   7.955   1.464  3.4090  0.8509 -2.1500
  208MOL0     H28014   0.152   7.951   1.679  0.6076 -0.0634  1.0977
  208MOL0     H28015   0.031   7.992   1.863  0.1833 -1.6348 -0.3041
  208MOL0     H28016   0.144   7.846   1.890  1.3165  0.2036 -2.5960
  208MOL0     H28017  -0.035   7.854   2.068  3.0080 -2.2265  0.6171
  208MOL0     H28018   0.117   7.913   2.128  0.5727  1.9670 -1.6035
  208MOL0     H28019   0.016   8.161   2.053 -2.5420  1.0646 -0.0014
  208MOL0     H28020  -0.132   8.062   2.061  1.0503 -0.6027 -1.1493
  208MOL0     H28021  -0.110   8.022   2.290 -1.4989  0.8060  0.0602
  208MOL0     H28022   0.062   8.040   2.288 -0.1345 -0.3294  0.9945
  208MOL0     H28023   0.062   8.287   2.275  0.6776 -1.5150 -1.0314
  208MOL0     H28024  -0.109   8.290   2.238  1.4998  1.7012 -0.2431
  208MOL0     H28025   0.021   8.211   2.508  1.4198 -0.6430 -1.2825
  208MOL0     H28026  -0.070   8.359   2.455  0.0931 -0.0155 -1.6852
  208MOL0     H28027  -0.254   8.165   2.399  0.4203 -0.1110  0.4908
  208MOL0     H28028  -0.167   8.075   2.515  5.2363  0.3769 -0.1296
  208MOL0     H28029  -0.347   8.208   2.622 -1.3653  1.7515 -1.8580
  208MOL0     H28030  -0.282   8.363   2.573 -0.9858 -0.2666 -0.4215
  208MOL0     H28031  -0.282   8.112   2.854  0.9267 -0.6659 -1.8269
  208MOL0     H28032  -0.081   8.022   3.061 -0.6008 -0.1587 -0.6518
  208MOL0     H28033   0.053   8.150   3.051 -1.0183  6.0666 -6.9654
  208MOL0     H28034  -0.073   8.315   3.152 -1.2918  1.5414  0.7228
  208MOL0     H28035  -0.090   8.174   3.270 -1.4000 -2.1397 -0.2147
  208MOL0     H28036  -0.301   8.131   3.236 -2.5255 -0.6221 -1.3174
  208MOL0     H28037  -0.317   8.210   3.081  1.3166  0.1984  0.9230
  208MOL0     H28038  -0.421   8.370   3.235  0.0650  0.8299  0.8989
  208MOL0     H28039  -0.260   8.429   3.197  0.6727 -2.2750 -1.2259
  208MOL0     H28040  -0.355   8.354   3.637  0.7080  0.5880  3.4169
  208MOL0     H28041  -0.417   8.409   3.817  1.0536  0.2290 -1.6959
  208MOL0     H28042  -0.313   8.538   3.878 -0.3048 -0.0091  0.2524
  208MOL0     H28043  -0.480   8.576   3.848 -0.2950  3.3571 -4.3603
  208MOL0     H28044  -0.490   9.161   3.512  2.6338  1.9576 -1.7997
  208MOL0     H28045  -0.437   9.381   3.582  0.9477 -0.5886 -1.4025
  208MOL0     H28046  -0.373   9.453   3.955 -0.1517  0.8065  1.1521
  208MOL0     H28047  -0.202   9.450   3.970  0.2723  0.9556  1.9012
  208MOL0     H28048  -0.236   9.706   3.855  0.4871 -1.7886 -0.7855
  208MOL0     H28049  -0.399   9.650   3.884  0.2215 -2.7456 -1.3604
  208MOL0     H28050  -0.161   9.686   4.083  0.2191 -3.0965  1.5520
  208MOL0     H28051  -0.317   9.608   4.132  2.6714  1.1856  4.0454
  208MOL0     H28052  -0.312   9.839   4.217  0.7610  1.9266  0.1411
  208MOL0     H28053  -0.262   9.897   4.060 -0.3408  0.4833  1.7202
  208MOL0     H28054  -0.532   9.768   4.091  1.2486 -2.0985 -2.4308
  208MOL0     H28055  -0.473   9.850   3.949 -0.1920 -0.7367  0.0940
  208MOL0     H28056  -0.483   9.982   4.211  2.6055 -0.3882 -0.4164
  208MOL0     H28057  -0.429  10.051   4.055 -0.9102  1.5485  0.3617
  208MOL0     H28058  -0.710   9.927   4.080 -1.3119  0.8444  1.9200
  208MOL0     H28059  -0.644  10.051   3.968 -0.1183 -1.8766 -0.8133
  208MOL0     H28060  -0.748  10.087   4.247  0.2251 -3.0092 -0.8570
  208MOL0     H28061  -0.777  10.181   4.111 -1.3036  1.6431  3.6988
  208MOL0     H28062  -0.198   9.246   3.911  0.8603 -0.8360 -1.0104
  208MOL0     H28063  -0.240   9.010   3.833 -1.3364  0.7962  2.9661
  208MOL0     H28064  -0.279   8.806   3.443 -2.5109  1.3907 -0.2964
  208MOL0     H28065  -0.235   8.607   3.312 -0.0085 -0.8667  0.2086
  208MOL0     H28066   0.455   8.147   1.904  2.4000  0.8015 -1.5575
  208MOL0     H28067   0.606   8.140   1.724  0.0210 -1.2909  0.4400
  208MOL0     H28068   0.643   8.086   1.251  0.0983  0.4057  1.2434
  208MOL0     H28069   0.795   8.081   1.069 -0.1670  2.3957  2.4293
  208MOL0     H28070   1.033   7.938   0.847 -1.4072  3.2235 -1.7426
  208MOL0     H28071   0.989   8.080   0.946  3.1787  1.3926  4.4406
  208MOL0     H28072   1.263   7.964   0.951  1.8056  2.2168  0.4276
  208MOL0     H28073   1.210   8.117   1.010 -2.3711 -1.3257  2.2171
  208MOL0     H28074   1.296   8.190   0.824  2.5102 -0.6640 -2.5799
  208MOL0     H28075   1.137   8.146   0.752  1.4493 -0.4850 -2.1426
  208MOL0     H28076   1.253   7.906   0.704  1.2051 -0.7089 -1.2074
  208MOL0     H28077   1.395   7.979   0.769 -1.1251  1.4238  2.4740
  208MOL0     H28078   1.328   8.149   0.372 -0.9365  0.6421  0.3036
  208MOL0     H28079   1.034   7.798   1.275 -1.8777 -2.6703  2.0679
  208MOL0     H28080   0.881   7.799   1.460 -3.8534  0.5847  1.2245
  209MOL0     O28081   3.058  10.151  10.639 -0.1732 -0.5855 -0.1725
  209MOL0     C28082   3.126  10.161  10.741 -0.6486  0.2426 -0.3138
  209MOL0     O28083   3.211  10.061  10.787 -1.1242  0.0300 -0.0512
  209MOL0     C28084   3.223   9.954  10.714 -0.1856  0.1463  0.6103
  209MOL0     C28085   3.262   9.957  10.579 -0.2297  0.5031  0.0708
  209MOL0     C28086   3.276   9.829  10.510  0.0685 -0.7178  0.8085
  209MOL0     C28087   3.253   9.707  10.567 -0.8798  0.7220  0.4321
  209MOL0     O28088   3.243   9.610  10.473  0.1507  0.2726  0.7031
  209MOL0     C28089   3.248   9.474  10.504  0.5759  0.5231  0.1135
  209MOL0     C28090   3.106   9.413  10.527  0.0777  0.0513 -0.1095
  209MOL0     C28091   3.015   9.419  10.401 -1.3203  0.2040 -0.7919
  209MOL0     C28092   2.891   9.344  10.431 -0.1112  0.1780  0.5434
  209MOL0     C28093   2.802   9.319  10.310 -0.2793 -0.0356 -0.5343
  209MOL0     C28094   2.695   9.415  10.301 -0.7385  0.6458  0.8296
  209MOL0     C28095   2.608   9.394  10.176 -0.0611  0.2836 -0.3605
  209MOL0     C28096   2.665   9.480  10.062 -0.4524  0.2702 -0.2994
  209MOL0     N28097   2.618   9.618  10.065 -0.1295 -0.1442  0.1652
  209MOL0     C28098   2.656   9.718   9.968  0.3006 -0.5265 -0.8361
  209MOL0     C28099   2.610   9.841  10.019  0.6210 -0.0498  0.4765
  209MOL0     C28100   2.652   9.978   9.967  0.0711  0.6479 -0.5579
  209MOL0     C28101   2.677  10.075  10.083 -0.1315 -0.8021 -0.2185
  209MOL0     C28102   2.696  10.224  10.033  0.0278 -0.0577 -0.0169
  209MOL0     C28103   2.732  10.325  10.135 -0.2777 -0.3545 -0.3580
  209MOL0     O28104   2.862  10.289  10.175  0.7016  0.1296 -0.6700
  209MOL0     C28105   2.941  10.367  10.265  0.6578 -0.5053 -0.1031
  209MOL0     C28106   3.050  10.308  10.313 -0.0196  0.1622  0.6795
  209MOL0     C28107   3.147  10.373  10.390 -0.1011  0.2183 -0.1471
  209MOL0     C28108   3.268  10.299  10.429 -0.1714  0.4607 -0.9445
  209MOL0     C28109   3.135  10.511  10.428 -0.6383 -0.5793 -0.1367
  209MOL0     C28110   3.224  10.598  10.516 -1.5667 -0.6613  0.4028
  209MOL0     O28111   3.358  10.557  10.538  0.1449 -0.2900 -0.4884
  209MOL0     C28112   3.432  10.628  10.627 -0.0171 -0.1437 -0.5946
  209MOL0     C28113   3.465  10.570  10.751 -0.0225 -0.4183 -0.3914
  209MOL0     C28114   3.529  10.651  10.850  0.0309 -0.8608 -0.3901
  209MOL0     C28115   3.553  10.785  10.837  0.5140 -0.5190 -0.1783
  209MOL0     O28116   3.616  10.850  10.940  0.5695  0.1287 -0.1364
  209MOL0     C28117   3.655  10.982  10.921  0.3284  0.7171  0.4843
  209MOL0     C28118   3.671  11.075  11.044  0.2947 -0.3113  1.1926
  209MOL0     C28119   3.778  11.035  11.131  0.1338 -0.7036 -0.1091
  209MOL0     C28120   3.802  11.145  11.234 -0.0178 -0.1126  0.3933
  209MOL0     C28121   3.925  11.132  11.320 -0.3838 -0.1254 -0.3758
  209MOL0     C28122   3.900  11.049  11.445  0.4871 -0.7736 -0.8069
  209MOL0     C28123   4.027  10.998  11.514  0.5054  0.3718 -0.7833
  209MOL0     C28124   3.985  10.888  11.609 -0.2258  0.7152  1.4129
  209MOL0    Cl28125   4.128  10.782  11.670 -0.5099  0.1880  0.1949
  209MOL0     C28126   3.531  10.832  10.699 -0.7900  0.3366  0.8932
  209MOL0     C28127   3.478  10.754  10.598 -0.1182  0.0989  1.1904
  209MOL0     O28128   3.185  10.706  10.543  0.4577 -0.2796 -0.0550
  209MOL0     C28129   3.014  10.563  10.390 -0.2131 -0.6196 -0.4878
  209MOL0     C28130   2.920  10.497  10.310  0.4534 -0.4543 -0.1129
  209MOL0     N28131   2.557   9.818  10.149 -0.0893 -0.4096  0.7032
  209MOL0     N28132   2.561   9.688  10.175  0.1803 -0.4452  1.0678
  209MOL0     C28133   3.232   9.701  10.710 -0.3297 -0.5615  0.9231
  209MOL0     C28134   3.229   9.828  10.782  0.5827 -0.8250  0.6521
  209MOL0     C28135   3.140  10.298  10.801 -0.0963  0.5627 -0.3446
  209MOL0     C28136   3.062  10.410  10.749  0.0043 -0.8237  0.5150
  209MOL0     C28137   3.081  10.540  10.809  0.5513  0.2036  1.1192
  209MOL0     C28138   3.183  10.554  10.902  0.3132 -0.4735 -0.2947
  209MOL0     O28139   3.228  10.671  10.964  0.4748  0.5091  0.2795
  209MOL0     C28140   3.184  10.795  10.902 -0.3296 -0.0297  1.1192
  209MOL0     C28141   3.211  10.906  11.006 -0.4271 -0.0952  0.1934
  209MOL0     C28142   3.128  10.899  11.132 -0.2907  0.1141  0.0659
  209MOL0     C28143   3.162  11.020  11.217  1.0244  0.5785  0.0658
  209MOL0     C28144   3.099  11.028  11.352  0.4325  1.0888  0.9735
  209MOL0     C28145   3.038  11.050  11.459 -1.0884  0.0122 -0.2791
  209MOL0     C28146   3.255  10.444  10.955  0.5673 -0.5502 -0.1517
  209MOL0     C28147   3.235  10.318  10.901  0.1667  0.1539 -0.4083
  209MOL0     H28148   3.256  10.046  10.517  0.1465  1.6760  1.6140
  209MOL0     H28149   3.278   9.825  10.402  1.4924  1.0620  0.7042
  209MOL0     H28150   3.287   9.420  10.417 -0.5866  2.7043 -1.8573
  209MOL0     H28151   3.311   9.461  10.593  0.8228  2.0723  0.1801
  209MOL0     H28152   3.129   9.308  10.544  1.2639 -0.3665 -3.5680
  209MOL0     H28153   3.059   9.470  10.609 -1.0376  2.4869 -2.2885
  209MOL0     H28154   2.992   9.524  10.380 -0.5751  0.4048 -0.6345
  209MOL0     H28155   3.063   9.377  10.312 -1.6546  0.4362 -1.0826
  209MOL0     H28156   2.917   9.248  10.477 -1.6987 -0.8241 -0.5538
  209MOL0     H28157   2.852   9.409  10.509 -2.5361  0.1306 -0.5433
  209MOL0     H28158   2.856   9.313  10.215 -1.5591 -0.5654 -1.2654
  209MOL0     H28159   2.754   9.221  10.327 -1.7675  1.0357  2.0137
  209MOL0     H28160   2.642   9.400  10.396  2.4900  1.0302  2.8694
  209MOL0     H28161   2.732   9.518  10.300 -2.5329  1.3241 -0.6028
  209MOL0     H28162   2.604   9.290  10.143 -3.6053 -0.8382  2.9463
  209MOL0     H28163   2.502   9.417  10.190 -0.3249 -0.4612 -1.0506
  209MOL0     H28164   2.613   9.432   9.979  0.3334  1.1080 -1.3040
  209MOL0     H28165   2.773   9.469  10.047 -0.4717 -2.7514  0.9988
  209MOL0     H28166   2.725   9.695   9.888 -0.5789 -0.0994 -1.7413
  209MOL0     H28167   2.748   9.979   9.915  1.1112  3.5587  1.1646
  209MOL0     H28168   2.571  10.019   9.905 -0.4326 -0.1665 -0.4587
  209MOL0     H28169   2.765  10.034  10.135 -0.3800 -1.8746 -0.6218
  209MOL0     H28170   2.588  10.069  10.147 -0.2631 -2.3537 -0.5136
  209MOL0     H28171   2.593  10.245  10.004 -0.4043 -0.6891  0.9897
  209MOL0     H28172   2.754  10.243   9.942  3.1624 -0.5079  1.7373
  209MOL0     H28173   2.681  10.321  10.232  0.7037  2.0079  0.3112
  209MOL0     H28174   2.731  10.427  10.095  0.4608  0.2979  1.2245
  209MOL0     H28175   3.073  10.205  10.289  0.6220  0.1136  1.4761
  209MOL0     H28176   3.279  10.283  10.536  1.0067  2.3144 -0.7527
  209MOL0     H28177   3.274  10.200  10.383  0.6249 -0.7175  1.5351
  209MOL0     H28178   3.362  10.346  10.399  1.9660  0.1175  4.1976
  209MOL0     H28179   3.448  10.464  10.768 -2.0096 -0.2740 -1.1782
  209MOL0     H28180   3.560  10.607  10.944  1.3449 -1.9016 -1.2627
  209MOL0     H28181   3.751  10.976  10.869 -0.8129 -1.3707 -1.5604
  209MOL0     H28182   3.576  11.027  10.859 -0.2481  1.0622  1.4479
  209MOL0     H28183   3.695  11.173  11.000  4.5909 -0.6563  2.2868
  209MOL0     H28184   3.580  11.090  11.103 -1.0471  0.8233 -1.0095
  209MOL0     H28185   3.874  11.016  11.084  0.5547 -0.2683  0.5519
  209MOL0     H28186   3.734  10.949  11.182  0.6509  0.3002  2.1590
  209MOL0     H28187   3.809  11.242  11.185  1.1971  0.0929  0.9163
  209MOL0     H28188   3.715  11.152  11.300 -1.4206 -0.2082 -1.3900
  209MOL0     H28189   3.967  11.226  11.356  3.1069 -2.4082  2.3144
  209MOL0     H28190   3.997  11.078  11.258  0.7994 -2.2314  2.5677
  209MOL0     H28191   3.839  11.107  11.515  1.9403  0.9885 -0.9042
  209MOL0     H28192   3.845  10.960  11.413  1.2244 -1.4211 -0.2982
  209MOL0     H28193   4.056  11.085  11.574 -0.4240 -0.3713  0.8282
  209MOL0     H28194   4.102  10.968  11.441  0.5974 -0.4670 -0.3580
  209MOL0     H28195   3.923  10.820  11.550  2.0677  0.0081 -0.3406
  209MOL0     H28196   3.936  10.927  11.698  0.1364  0.2369  1.8271
  209MOL0     H28197   3.548  10.937  10.679 -1.1508  0.3177  0.4783
  209MOL0     H28198   3.467  10.803  10.502 -1.6682  2.5690  2.4982
  209MOL0     H28199   2.986  10.667  10.403 -1.4916 -0.7459 -1.9986
  209MOL0     H28200   2.827  10.544  10.280 -0.6116 -1.9583  0.7221
  209MOL0     H28201   3.219   9.611  10.768 -3.9063 -1.2164 -0.6372
  209MOL0     H28202   3.215   9.830  10.889 -2.9916  0.4646  0.3181
  209MOL0     H28203   2.994  10.390  10.667  0.9556 -0.3290 -0.4132
  209MOL0     H28204   3.032  10.623  10.759 -0.3915 -0.6675  0.5605
  209MOL0     H28205   3.244  10.826  10.816  1.9874  0.7157  2.9054
  209MOL0     H28206   3.078  10.785  10.874  0.0101  1.7122 -1.1121
  209MOL0     H28207   3.166  10.990  10.953  0.0286 -2.0766 -3.6604
  209MOL0     H28208   3.315  10.928  11.035 -0.9035 -1.7367  3.6062
  209MOL0     H28209   3.155  10.807  11.186 -1.2855 -0.4206 -0.3061
  209MOL0     H28210   3.022  10.894  11.103 -0.3253  2.6051 -0.4130
  209MOL0     H28211   3.128  11.108  11.163 -0.8457  1.1268  2.0070
  209MOL0     H28212   3.271  11.029  11.216  1.2172 -0.0668  3.1997
  209MOL0     H28213   2.975  11.065  11.545  3.3110  1.4371  3.0591
  209MOL0     H28214   3.332  10.464  11.029  1.2455 -0.3538 -0.8896
  209MOL0     H28215   3.280  10.230  10.946 -1.8950 -1.2418 -0.9300
  210MOL0     O28216   3.529   5.713   5.984 -0.0405  0.1821 -0.0183
  210MOL0     C28217   3.545   5.674   5.869  1.2791  1.1845 -0.1806
  210MOL0     O28218   3.649   5.699   5.786 -0.4862  0.7231 -0.8362
  210MOL0     C28219   3.756   5.754   5.843 -0.2410 -0.2762  0.2777
  210MOL0     C28220   3.835   5.682   5.933 -0.3461 -0.1201  0.2499
  210MOL0     C28221   3.938   5.748   5.995 -0.3602  0.0354 -0.3952
  210MOL0     C28222   3.963   5.884   5.984  0.3465  0.4630  0.8472
  210MOL0     O28223   4.075   5.930   6.039  0.4211 -0.0091  0.3824
  210MOL0     C28224   4.082   6.077   6.036  0.7972 -0.0529  0.0806
  210MOL0     C28225   4.174   6.105   6.150  0.5103  0.0154 -0.6213
  210MOL0     C28226   4.215   6.257   6.163  0.4349  0.1940 -0.3759
  210MOL0     C28227   4.101   6.358   6.171 -0.7384 -0.1587  0.0914
  210MOL0     C28228   4.131   6.468   6.269 -0.3212  0.3009  0.3050
  210MOL0     C28229   4.100   6.424   6.411 -0.1951 -0.7305 -1.2164
  210MOL0     C28230   4.101   6.541   6.517  0.0491  0.4946  0.1719
  210MOL0     C28231   4.087   6.483   6.663  1.0936 -0.1372 -0.1778
  210MOL0     N28232   4.091   6.582   6.763  0.0745 -0.2165 -1.0987
  210MOL0     C28233   4.129   6.544   6.889  0.9148  0.3305  0.6630
  210MOL0     C28234   4.126   6.647   6.979  0.7166 -0.1523  0.4150
  210MOL0     C28235   4.184   6.647   7.125  1.1459  0.9799  0.9152
  210MOL0     C28236   4.328   6.631   7.115  0.0797  1.1339 -0.6162
  210MOL0     C28237   4.394   6.740   7.035 -0.7630 -0.1815  0.3332
  210MOL0     C28238   4.429   6.867   7.113 -0.5461 -0.1133  0.5559
  210MOL0     O28239   4.513   6.960   7.038 -0.1479 -1.0183  0.1125
  210MOL0     C28240   4.455   7.029   6.927 -0.0663 -0.4711 -0.1079
  210MOL0     C28241   4.320   7.038   6.902  0.7857 -0.5974  0.1937
  210MOL0     C28242   4.274   7.128   6.799 -1.1309 -0.4321  0.3867
  210MOL0     C28243   4.124   7.126   6.804  0.4424  0.4153  0.0488
  210MOL0     C28244   4.359   7.194   6.707  0.0996 -0.0674 -0.2480
  210MOL0     C28245   4.305   7.263   6.588 -0.2946 -0.3094  0.2571
  210MOL0     O28246   4.338   7.206   6.466  0.4579  0.0338 -0.4755
  210MOL0     C28247   4.308   7.255   6.339 -0.1841  0.0169 -0.0430
  210MOL0     C28248   4.208   7.349   6.319  0.5647  0.3342  0.3951
  210MOL0     C28249   4.189   7.400   6.189  0.8243  0.1875  0.1217
  210MOL0     C28250   4.271   7.368   6.081  1.2681 -0.0076  0.1425
  210MOL0     O28251   4.243   7.405   5.950  0.5735 -0.1864  0.1963
  210MOL0     C28252   4.340   7.388   5.849  0.3966 -0.4417  0.3446
  210MOL0     C28253   4.261   7.400   5.719  0.6256 -0.3393 -0.0445
  210MOL0     C28254   4.352   7.413   5.603 -0.1595 -0.4966  0.8695
  210MOL0     C28255   4.280   7.449   5.472 -0.4789  0.2067 -0.5672
  210MOL0     C28256   4.248   7.596   5.453  0.1692  0.1431  0.4599
  210MOL0     C28257   4.182   7.623   5.324 -0.2925 -0.1986 -0.2894
  210MOL0     C28258   4.292   7.650   5.214  0.0912 -0.2070  0.7346
  210MOL0     C28259   4.239   7.673   5.071  0.3423  0.5665 -0.9847
  210MOL0    Cl28260   4.222   7.536   4.993  0.0290  0.1155 -0.1904
  210MOL0     C28261   4.378   7.284   6.105  0.4859 -0.3093 -0.3001
  210MOL0     C28262   4.389   7.226   6.236  0.7797  0.2043  0.4609
  210MOL0     O28263   4.259   7.376   6.611 -0.0353  0.0737 -0.1321
  210MOL0     C28264   4.497   7.167   6.728 -0.2707 -0.9311  0.0167
  210MOL0     C28265   4.543   7.092   6.839 -1.1332  0.4415  0.5357
  210MOL0     N28266   4.074   6.748   6.899  0.2897 -0.3196 -0.1959
  210MOL0     N28267   4.054   6.710   6.771 -0.4092 -0.3566  0.4278
  210MOL0     C28268   3.882   5.952   5.886 -0.0347 -0.8746 -0.4396
  210MOL0     C28269   3.781   5.890   5.818  0.1752  0.0121  0.3917
  210MOL0     C28270   3.437   5.584   5.813  1.1826 -1.1017  0.3989
  210MOL0     C28271   3.459   5.536   5.681  0.2096  0.9610  0.3560
  210MOL0     C28272   3.358   5.468   5.616 -0.0630 -0.2747  0.5124
  210MOL0     C28273   3.235   5.434   5.683  0.3462  0.2568 -0.4818
  210MOL0     O28274   3.138   5.349   5.629  0.2073  0.0854 -0.0144
  210MOL0     C28275   3.144   5.277   5.505 -0.0031 -0.3524 -0.1351
  210MOL0     C28276   3.236   5.160   5.502  0.1929 -0.0438 -0.1158
  210MOL0     C28277   3.193   5.060   5.391  0.4826  1.0082 -0.8355
  210MOL0     C28278   3.073   4.972   5.443  0.0784 -0.5610  0.0551
  210MOL0     C28279   3.059   4.875   5.338  0.2616 -0.1611  0.3278
  210MOL0     C28280   3.036   4.781   5.262 -0.3875 -0.3175  0.4119
  210MOL0     C28281   3.214   5.483   5.807 -0.0247 -0.7630 -0.9976
  210MOL0     C28282   3.310   5.554   5.878 -0.4420  0.2988 -0.3921
  210MOL0     H28283   3.828   5.578   5.961  0.5366 -0.4926 -0.8420
  210MOL0     H28284   4.000   5.695   6.067 -0.3153  0.1349 -0.3604
  210MOL0     H28285   4.124   6.098   5.937 -2.2241 -0.1666 -1.3312
  210MOL0     H28286   3.986   6.128   6.042 -0.1571 -1.5081 -1.8242
  210MOL0     H28287   4.137   6.070   6.247  1.9164  1.3355  0.4263
  210MOL0     H28288   4.262   6.044   6.132 -1.7070 -2.6056 -3.7011
  210MOL0     H28289   4.262   6.259   6.262 -2.4747  2.4019  1.1084
  210MOL0     H28290   4.295   6.278   6.091 -0.2382  2.0955 -0.6406
  210MOL0     H28291   4.086   6.405   6.073 -4.1585  0.7133  0.8798
  210MOL0     H28292   4.006   6.309   6.196 -1.6770  0.4755 -1.9634
  210MOL0     H28293   4.238   6.491   6.269 -0.8797  3.4833 -0.8602
  210MOL0     H28294   4.087   6.566   6.249 -2.7606 -0.6566  0.6562
  210MOL0     H28295   4.001   6.379   6.407 -0.3468 -0.5395  0.0873
  210MOL0     H28296   4.176   6.350   6.440 -2.5973 -2.6406  0.6325
  210MOL0     H28297   4.192   6.601   6.519  0.1491  0.3287  1.8003
  210MOL0     H28298   4.018   6.604   6.484 -2.1018 -3.2010 -2.1875
  210MOL0     H28299   4.175   6.418   6.674  0.6546 -0.9896 -1.3917
  210MOL0     H28300   4.002   6.417   6.681  1.4254 -0.8855 -1.2228
  210MOL0     H28301   4.166   6.443   6.902  0.1041 -0.2192 -0.9974
  210MOL0     H28302   4.171   6.737   7.185 -0.6580  0.7180  0.9623
  210MOL0     H28303   4.146   6.561   7.181 -0.2836 -1.4072 -3.2170
  210MOL0     H28304   4.342   6.536   7.061 -3.0557  0.4083 -0.3115
  210MOL0     H28305   4.368   6.620   7.216 -2.7199 -0.9375  0.4070
  210MOL0     H28306   4.334   6.777   6.952 -1.6385  0.3524  1.1903
  210MOL0     H28307   4.489   6.706   6.992 -0.7756 -1.4784  1.2740
  210MOL0     H28308   4.488   6.833   7.199 -2.5980 -0.0664  2.0380
  210MOL0     H28309   4.338   6.910   7.154 -0.2348 -0.5888  1.7708
  210MOL0     H28310   4.254   6.986   6.971  0.0782 -0.5445 -0.4318
  210MOL0     H28311   4.076   7.189   6.728  0.0636 -1.4406 -1.3384
  210MOL0     H28312   4.108   7.022   6.773  0.6071  0.5514 -0.5075
  210MOL0     H28313   4.078   7.151   6.899 -0.0861  1.3684 -0.4448
  210MOL0     H28314   4.149   7.379   6.406  1.0641  0.9236  0.5366
  210MOL0     H28315   4.111   7.476   6.182  1.8458  1.6946  3.1624
  210MOL0     H28316   4.411   7.470   5.860 -1.0147  0.5956  2.2204
  210MOL0     H28317   4.388   7.289   5.845  1.6183  0.0818  1.1538
  210MOL0     H28318   4.219   7.301   5.698  1.5995 -0.6705 -0.4967
  210MOL0     H28319   4.187   7.480   5.731  0.5539 -0.4082 -0.0238
  210MOL0     H28320   4.401   7.317   5.584  0.0293 -0.5069  1.3926
  210MOL0     H28321   4.431   7.483   5.630  0.6455 -1.0507  0.0029
  210MOL0     H28322   4.348   7.419   5.392  0.7932  1.8501 -0.1527
  210MOL0     H28323   4.198   7.377   5.460  1.8890 -3.1905  1.6001
  210MOL0     H28324   4.330   7.663   5.480 -0.5734  1.4369 -0.3799
  210MOL0     H28325   4.175   7.635   5.525 -0.7890 -0.1984 -0.3045
  210MOL0     H28326   4.108   7.545   5.302 -0.1101  0.2566 -2.7473
  210MOL0     H28327   4.125   7.716   5.332  1.2086  0.6415  1.0677
  210MOL0     H28328   4.361   7.565   5.224 -0.4189 -0.8168 -0.7149
  210MOL0     H28329   4.358   7.735   5.233 -1.6058  1.0943  1.0192
  210MOL0     H28330   4.300   7.743   5.013  0.6432  0.4205 -0.8464
  210MOL0     H28331   4.141   7.719   5.079  0.8688  1.3113  2.1195
  210MOL0     H28332   4.452   7.263   6.028  0.0611  1.0545 -1.1047
  210MOL0     H28333   4.478   7.167   6.258 -0.8480 -2.7768 -0.3660
  210MOL0     H28334   4.565   7.207   6.653 -2.4103  0.8951 -1.0588
  210MOL0     H28335   4.647   7.068   6.859 -0.3981  3.2261  0.5909
  210MOL0     H28336   3.907   6.054   5.858  0.2338 -0.2821  1.7302
  210MOL0     H28337   3.732   5.943   5.736 -1.2494 -1.5336  0.1951
  210MOL0     H28338   3.552   5.544   5.624 -0.3864 -0.3620 -0.8569
  210MOL0     H28339   3.390   5.426   5.521  2.0336  0.1333  0.9796
  210MOL0     H28340   3.040   5.244   5.497 -0.6475  1.0847  1.6722
  210MOL0     H28341   3.176   5.351   5.432 -0.3634  0.6009  0.6585
  210MOL0     H28342   3.243   5.123   5.605 -2.9030  1.2376  0.6846
  210MOL0     H28343   3.341   5.179   5.479  0.7624 -2.3508  0.3876
  210MOL0     H28344   3.284   5.002   5.373  1.8254  2.5161  0.6819
  210MOL0     H28345   3.163   5.110   5.298 -2.7017 -2.0165 -1.6035
  210MOL0     H28346   2.982   5.032   5.445 -0.1744 -0.2591 -5.4462
  210MOL0     H28347   3.107   4.934   5.540  3.7891 -0.4092 -1.0096
  210MOL0     H28348   3.012   4.706   5.188  1.1783  0.4828 -0.9691
  210MOL0     H28349   3.118   5.469   5.854 -0.6023  1.7261 -1.3128
  210MOL0     H28350   3.290   5.592   5.977 -0.6652  0.6788 -0.5763
  211MOL0     O28351  11.397   9.984   0.497  0.1350 -0.3686 -0.3407
  211MOL0     C28352  11.484   9.894   0.475  0.0879  0.3401  0.1143
  211MOL0     O28353  11.611   9.922   0.478 -0.1582  0.2303 -0.0536
  211MOL0     C28354  11.670  10.037   0.516 -0.2830 -0.5171  0.3420
  211MOL0     C28355  11.803  10.004   0.559 -0.4569 -0.5635 -0.5578
  211MOL0     C28356  11.889  10.107   0.587  0.3374 -0.1494 -0.2030
  211MOL0     C28357  11.839  10.238   0.586 -0.1142  0.6419 -0.3709
  211MOL0     O28358  11.933  10.322   0.624 -0.6820 -0.0345  0.4897
  211MOL0     C28359  11.897  10.463   0.626  1.0141  1.0476 -0.7174
  211MOL0     C28360  12.030  10.535   0.648  0.0175 -0.2968  0.9598
  211MOL0     C28361  12.015  10.687   0.647  0.4192 -0.4355 -0.0094
  211MOL0     C28362  11.991  10.759   0.521  0.3870  0.9344  0.0576
  211MOL0     C28363  12.105  10.738   0.423  0.3223 -1.2355 -0.0081
  211MOL0     C28364  12.116  10.846   0.316 -0.4964  0.1847 -0.4371
  211MOL0     C28365  11.997  10.830   0.217 -0.1800  0.1513  0.4430
  211MOL0     C28366  11.875  10.909   0.241 -0.2297 -1.2890  0.5755
  211MOL0     N28367  11.920  11.050   0.245 -0.1809 -0.2527 -0.0351
  211MOL0     C28368  11.963  11.129   0.136 -0.2073  0.0279 -0.8461
  211MOL0     C28369  12.006  11.245   0.191 -0.3782  0.8504  0.0449
  211MOL0     C28370  12.068  11.358   0.115  1.4255  0.1848 -0.9323
  211MOL0     C28371  11.991  11.487   0.157 -0.2531 -0.1862 -0.2258
  211MOL0     C28372  12.087  11.608   0.142 -0.0987 -0.0483 -0.4644
  211MOL0     C28373  12.024  11.735   0.192 -0.2633 -0.3982 -0.0764
  211MOL0     O28374  12.124  11.840   0.195 -0.3570  0.1527  0.6669
  211MOL0     C28375  12.196  11.867   0.314  0.1292 -0.4556  1.9229
  211MOL0     C28376  12.141  11.965   0.398 -0.3851 -0.9642 -1.0521
  211MOL0     C28377  12.188  11.988   0.527 -0.4666  0.9451  0.0711
  211MOL0     C28378  12.113  12.084   0.613  0.0695 -0.1952  0.3632
  211MOL0     C28379  12.308  11.910   0.558  0.2251  0.3365 -1.2497
  211MOL0     C28380  12.390  11.936   0.684  0.5109 -0.7384  0.0387
  211MOL0     O28381  12.373  12.062   0.742 -0.0623  0.4912 -0.1001
  211MOL0     C28382  12.429  12.094   0.858  0.0640 -0.1692 -0.0874
  211MOL0     C28383  12.552  12.036   0.906  1.4562 -0.3298 -0.1565
  211MOL0     C28384  12.604  12.090   1.015  0.2708  0.2559 -0.3193
  211MOL0     C28385  12.542  12.178   1.104  0.4561  1.2097  1.0935
  211MOL0     O28386  12.608  12.202   1.225  1.4043 -0.0710 -0.4337
  211MOL0     C28387  12.536  12.304   1.303 -0.1704  0.7574  0.2772
  211MOL0     C28388  12.562  12.448   1.254  0.6571 -0.0569  0.2405
  211MOL0     C28389  12.430  12.531   1.262 -0.2205 -0.1036 -0.3079
  211MOL0     C28390  12.451  12.689   1.247 -0.0790  0.6795 -0.1021
  211MOL0     C28391  12.314  12.758   1.220 -0.4297 -0.4567 -0.2659
  211MOL0     C28392  12.317  12.915   1.203 -0.0558 -0.2668 -0.0573
  211MOL0     C28393  12.418  12.985   1.304  0.5075 -0.9583  0.3083
  211MOL0     C28394  12.419  13.127   1.261  0.9532 -0.4867  0.1386
  211MOL0    Cl28395  12.262  13.207   1.275 -0.5468  0.1427  0.5681
  211MOL0     C28396  12.421  12.236   1.061 -0.4800  0.1855 -0.2008
  211MOL0     C28397  12.372  12.196   0.937  1.4624  0.1131  0.0601
  211MOL0     O28398  12.459  11.842   0.727  0.4165 -0.2380  0.8454
  211MOL0     C28399  12.362  11.813   0.473  0.1008 -0.6631  0.6785
  211MOL0     C28400  12.298  11.791   0.350  0.5260  0.3325  0.5587
  211MOL0     N28401  11.991  11.249   0.324 -0.3231 -0.4047  0.1455
  211MOL0     N28402  11.931  11.138   0.356 -0.6456  0.6903 -0.0769
  211MOL0     C28403  11.706  10.272   0.548 -0.0734 -0.2778 -0.0175
  211MOL0     C28404  11.622  10.166   0.510 -0.1281  0.6229 -0.5536
  211MOL0     C28405  11.437   9.765   0.425 -0.1230 -0.3077  0.8271
  211MOL0     C28406  11.507   9.711   0.317 -0.0965 -0.2059  0.5217
  211MOL0     C28407  11.479   9.588   0.262  0.3693  0.0696  0.5141
  211MOL0     C28408  11.369   9.515   0.309  0.4639 -1.1632 -0.0744
  211MOL0     O28409  11.327   9.402   0.248  0.0847  0.1062 -0.1692
  211MOL0     C28410  11.413   9.343   0.146  0.3462 -0.9457  0.0757
  211MOL0     C28411  11.346   9.211   0.102 -0.2505 -0.3416 -0.7809
  211MOL0     C28412  11.196   9.235   0.070  0.2310 -0.4226 -0.0025
  211MOL0     C28413  11.165   9.134  -0.042 -0.2809  0.8097  0.1927
  211MOL0     C28414  11.168   8.991  -0.002 -0.5529 -0.5682 -1.0634
  211MOL0     C28415  11.157   8.884   0.053  0.2771  1.0259 -0.1616
  211MOL0     C28416  11.296   9.569   0.422 -0.8798  0.7062 -0.4530
  211MOL0     C28417  11.335   9.684   0.486 -1.0265  0.3522  0.2306
  211MOL0     H28418  11.830   9.899   0.560  0.7921 -0.2612 -1.0761
  211MOL0     H28419  11.996  10.100   0.603  0.2459  1.0982  1.2144
  211MOL0     H28420  11.852  10.506   0.536 -2.8036  1.8073  1.3423
  211MOL0     H28421  11.822  10.465   0.705  1.8479 -2.1014  0.3195
  211MOL0     H28422  12.073  10.508   0.745  0.7446 -4.8034 -0.3481
  211MOL0     H28423  12.100  10.497   0.572  0.1737 -0.1918  1.0497
  211MOL0     H28424  11.928  10.718   0.706  1.9857 -0.9301  2.7531
  211MOL0     H28425  12.107  10.730   0.690  1.5038 -2.2773 -0.3828
  211MOL0     H28426  11.903  10.717   0.471 -0.7827  1.6922  1.4047
  211MOL0     H28427  11.969  10.866   0.530 -1.1700  0.7271 -0.8881
  211MOL0     H28428  12.201  10.736   0.476  0.9266 -2.1954 -1.0895
  211MOL0     H28429  12.104  10.640   0.374  0.8329  0.5248 -3.9248
  211MOL0     H28430  12.122  10.947   0.358  0.0688  0.6484 -1.5890
  211MOL0     H28431  12.213  10.828   0.269 -0.5110  2.6489 -1.5735
  211MOL0     H28432  12.031  10.853   0.116  0.0188 -0.4695  0.3647
  211MOL0     H28433  11.950  10.732   0.217  0.3525 -0.1265  1.8185
  211MOL0     H28434  11.825  10.878   0.334 -0.7477 -0.9936  0.4012
  211MOL0     H28435  11.807  10.888   0.158  0.6474 -0.4171 -0.3811
  211MOL0     H28436  11.978  11.107   0.031 -0.1740 -3.4505 -0.2222
  211MOL0     H28437  12.172  11.369   0.148  1.6031  4.1541 -2.2117
  211MOL0     H28438  12.063  11.336   0.008  0.1844 -2.4094 -0.4086
  211MOL0     H28439  11.973  11.483   0.264 -1.9294 -0.1562 -0.4833
  211MOL0     H28440  11.898  11.506   0.103 -1.4758  0.2654  1.9658
  211MOL0     H28441  12.092  11.622   0.033  2.9760 -1.4640 -0.5885
  211MOL0     H28442  12.187  11.585   0.180 -0.3646  1.4432  1.2889
  211MOL0     H28443  11.992  11.718   0.295  0.3769 -2.0103 -0.1143
  211MOL0     H28444  11.936  11.760   0.132 -0.2272 -0.0354  0.0219
  211MOL0     H28445  12.052  12.023   0.375 -0.0250  1.1668  2.2393
  211MOL0     H28446  12.004  12.086   0.603  0.1559  1.9394 -0.7302
  211MOL0     H28447  12.127  12.065   0.719  0.1473 -0.6000  0.2841
  211MOL0     H28448  12.145  12.186   0.590  0.9404 -0.4895  0.2583
  211MOL0     H28449  12.609  11.956   0.859 -0.6471 -1.1441 -1.4515
  211MOL0     H28450  12.700  12.051   1.047  0.4275  0.4200 -0.5950
  211MOL0     H28451  12.430  12.280   1.304 -0.0915  0.1450 -1.7700
  211MOL0     H28452  12.574  12.285   1.404  0.6064  0.4474 -0.0591
  211MOL0     H28453  12.637  12.500   1.314  0.1491  2.1022 -0.9070
  211MOL0     H28454  12.599  12.461   1.153  0.5481  3.8253  0.5550
  211MOL0     H28455  12.393  12.512   1.363  1.6640 -2.4207  0.0177
  211MOL0     H28456  12.359  12.509   1.181  0.1007 -0.5808 -0.4649
  211MOL0     H28457  12.499  12.734   1.334 -1.9860  3.3627 -0.3262
  211MOL0     H28458  12.516  12.707   1.161  1.3980  1.5345  1.1466
  211MOL0     H28459  12.263  12.725   1.312  2.5088 -0.4317  1.4959
  211MOL0     H28460  12.254  12.725   1.135 -2.6841 -0.6193  1.2789
  211MOL0     H28461  12.347  12.943   1.102  3.6783  0.7258  1.1521
  211MOL0     H28462  12.218  12.954   1.228  0.4976  0.6446  0.7559
  211MOL0     H28463  12.521  12.951   1.288  1.5808  1.6876  1.1653
  211MOL0     H28464  12.374  12.981   1.404 -0.1147 -0.1151  0.0728
  211MOL0     H28465  12.456  13.130   1.159 -3.1103 -2.8464 -1.6377
  211MOL0     H28466  12.486  13.190   1.320 -0.7143  2.2655 -0.7086
  211MOL0     H28467  12.366  12.319   1.104 -2.3495 -0.8824 -0.4541
  211MOL0     H28468  12.283  12.237   0.891  0.4109 -2.5970 -0.5040
  211MOL0     H28469  12.447  11.753   0.502  1.0519  0.2549 -0.1265
  211MOL0     H28470  12.345  11.714   0.289 -0.0154 -0.9199  1.6825
  211MOL0     H28471  11.682  10.377   0.536 -0.6772 -0.2965  0.9253
  211MOL0     H28472  11.524  10.191   0.473 -0.8125 -0.0104  0.7480
  211MOL0     H28473  11.588   9.771   0.278  0.3321  0.4391  2.3240
  211MOL0     H28474  11.545   9.552   0.184 -0.0330  0.9174 -0.2430
  211MOL0     H28475  11.401   9.407   0.059 -0.4556 -1.9904 -0.6092
  211MOL0     H28476  11.512   9.324   0.188  0.6762  2.1257  0.9238
  211MOL0     H28477  11.366   9.133   0.177  2.0325  1.4759  0.6534
  211MOL0     H28478  11.403   9.177   0.015  2.2189 -1.4126  1.1399
  211MOL0     H28479  11.180   9.338   0.036  1.4319 -0.4466 -0.7002
  211MOL0     H28480  11.133   9.233   0.159 -0.3228 -0.2616 -0.3832
  211MOL0     H28481  11.223   9.153  -0.132 -2.1701  1.0321 -1.0361
  211MOL0     H28482  11.061   9.150  -0.072 -0.4099 -1.8359 -1.0551
  211MOL0     H28483  11.166   8.785   0.094  1.9431  0.3901 -1.9099
  211MOL0     H28484  11.212   9.519   0.469 -1.0447  1.3468 -0.0423
  211MOL0     H28485  11.291   9.716   0.580  0.4265  1.9337  0.4317
  212MOL0     O28486   0.940   2.068   3.864  0.5447  0.0495  0.2360
  212MOL0     C28487   0.993   2.184   3.880  0.0840  0.6543  0.0950
  212MOL0     O28488   1.074   2.214   3.991 -0.2352 -0.4588 -0.1179
  212MOL0     C28489   1.120   2.110   4.069  0.3545  0.4789  0.9113
  212MOL0     C28490   1.263   2.088   4.059  0.1660  0.7481 -0.6121
  212MOL0     C28491   1.309   1.978   4.137  0.3370  0.2835 -0.3389
  212MOL0     C28492   1.226   1.888   4.202 -1.0121  0.2575  0.0214
  212MOL0     O28493   1.278   1.769   4.249  0.4362  0.2926 -0.4048
  212MOL0     C28494   1.195   1.651   4.263 -0.5048  0.4512  0.4006
  212MOL0     C28495   1.282   1.535   4.325  1.1231 -0.9713  0.2671
  212MOL0     C28496   1.413   1.507   4.255 -0.8295  0.9039  0.0701
  212MOL0     C28497   1.448   1.362   4.283  0.2486 -0.6399 -0.5658
  212MOL0     C28498   1.605   1.331   4.256  0.4605  0.3368  0.2857
  212MOL0     C28499   1.633   1.352   4.106  1.2972 -0.8368 -0.6504
  212MOL0     C28500   1.771   1.302   4.062  0.2047  0.2989 -0.9427
  212MOL0     C28501   1.786   1.315   3.912  0.3652  0.4011 -0.0296
  212MOL0     N28502   1.903   1.252   3.843 -0.6498 -0.3502  0.9062
  212MOL0     C28503   2.038   1.285   3.883 -0.3760 -0.0104 -0.1783
  212MOL0     C28504   2.117   1.215   3.794  0.2520 -0.4573  0.8051
  212MOL0     C28505   2.265   1.189   3.793  0.4323 -0.1947 -0.4882
  212MOL0     C28506   2.339   1.303   3.724  0.5770  0.3849 -0.0211
  212MOL0     C28507   2.322   1.307   3.568 -0.5454 -0.0908 -0.1273
  212MOL0     C28508   2.336   1.169   3.497  0.4086 -0.0558  0.1000
  212MOL0     O28509   2.363   1.177   3.362 -0.4747 -1.0653  0.2154
  212MOL0     C28510   2.275   1.243   3.286 -0.4232 -0.7548  1.3915
  212MOL0     C28511   2.338   1.323   3.184  0.2519  0.0102 -0.0103
  212MOL0     C28512   2.251   1.372   3.075  0.7348  0.1250 -0.0763
  212MOL0     C28513   2.325   1.455   2.977 -0.7887 -0.3668 -0.5319
  212MOL0     C28514   2.111   1.366   3.084 -0.3210  0.6028 -1.2438
  212MOL0     C28515   2.010   1.415   2.986 -0.5374  0.4946  0.3527
  212MOL0     O28516   1.886   1.356   2.978  0.3637 -0.0114  0.6041
  212MOL0     C28517   1.782   1.388   2.893  0.8653 -0.2769  0.1143
  212MOL0     C28518   1.662   1.321   2.916  0.1791  1.3430  0.7857
  212MOL0     C28519   1.549   1.341   2.838  0.8819  0.1724 -0.6537
  212MOL0     C28520   1.558   1.423   2.727  0.5216  0.8162 -0.1434
  212MOL0     O28521   1.442   1.459   2.662 -0.1581 -0.1337  0.3597
  212MOL0     C28522   1.404   1.604   2.671 -0.3009  0.1768 -1.0790
  212MOL0     C28523   1.384   1.666   2.532 -0.3732  0.0153  1.1919
  212MOL0     C28524   1.340   1.811   2.546 -0.6783  0.5333  0.1211
  212MOL0     C28525   1.445   1.897   2.618 -0.5387 -0.1700  0.8526
  212MOL0     C28526   1.424   2.045   2.576 -0.5718 -0.5429 -0.6356
  212MOL0     C28527   1.514   2.135   2.672  0.2831 -0.3635 -0.9827
  212MOL0     C28528   1.475   2.285   2.667  0.2167  0.2739 -0.5921
  212MOL0     C28529   1.580   2.380   2.605 -0.3987  0.2477 -0.2159
  212MOL0    Cl28530   1.741   2.362   2.694  0.4652  0.2025 -0.4061
  212MOL0     C28531   1.680   1.488   2.703  0.3142  0.3067 -0.3764
  212MOL0     C28532   1.789   1.469   2.786 -0.2737  0.7356 -0.6850
  212MOL0     O28533   2.054   1.505   2.924  0.5976 -0.7583 -0.0867
  212MOL0     C28534   2.065   1.278   3.188  0.5805  0.0450 -0.4085
  212MOL0     C28535   2.140   1.224   3.292  0.1507 -0.0185  0.2188
  212MOL0     N28536   2.031   1.155   3.703  0.5306 -0.0503  0.5759
  212MOL0     N28537   1.911   1.181   3.733 -0.4876  0.0875  0.1404
  212MOL0     C28538   1.093   1.917   4.218  0.6479 -0.8605  0.5625
  212MOL0     C28539   1.035   2.024   4.149  0.4252  0.1850  0.0789
  212MOL0     C28540   0.973   2.291   3.781  0.1439 -0.4401 -0.1022
  212MOL0     C28541   0.886   2.285   3.679  0.1271  0.2865 -0.0133
  212MOL0     C28542   0.880   2.386   3.576  0.3806 -0.0638  0.2545
  212MOL0     C28543   0.954   2.505   3.589  0.3060 -0.1585  0.2423
  212MOL0     O28544   0.943   2.600   3.494 -0.5544 -0.0626 -0.0614
  212MOL0     C28545   1.026   2.717   3.499 -0.2086  0.9289 -0.0349
  212MOL0     C28546   1.000   2.782   3.371  0.7321 -0.6740  1.1237
  212MOL0     C28547   1.065   2.917   3.363 -0.2855 -0.2154  0.9384
  212MOL0     C28548   1.031   2.995   3.242 -0.4169  0.2575 -0.7157
  212MOL0     C28549   1.099   2.956   3.110  0.4389  0.2250  0.4979
  212MOL0     C28550   1.158   2.920   3.001  0.2921 -0.1529 -0.4686
  212MOL0     C28551   1.032   2.526   3.708  0.8829  0.1829  1.1615
  212MOL0     C28552   1.043   2.411   3.795  1.2989 -0.7660  0.4435
  212MOL0     H28553   1.334   2.147   4.002  0.8083  0.7983  0.2023
  212MOL0     H28554   1.414   1.952   4.130  0.3644 -0.1646  1.3693
  212MOL0     H28555   1.111   1.659   4.333 -0.6225 -1.2840  0.4888
  212MOL0     H28556   1.166   1.622   4.162 -0.8595  0.0714  0.6129
  212MOL0     H28557   1.289   1.547   4.434 -0.7347 -0.8953  0.4158
  212MOL0     H28558   1.222   1.444   4.322 -1.3499  0.5685  0.4561
  212MOL0     H28559   1.403   1.522   4.147 -2.8817  0.9347  0.2178
  212MOL0     H28560   1.501   1.549   4.304 -0.0626  2.8973 -2.7503
  212MOL0     H28561   1.430   1.337   4.388  1.6389 -1.4511 -0.4889
  212MOL0     H28562   1.395   1.285   4.225  3.4425 -3.4875 -0.0388
  212MOL0     H28563   1.671   1.391   4.319  0.2644  2.8550 -1.7534
  212MOL0     H28564   1.621   1.225   4.279  1.4340  0.3516 -0.2690
  212MOL0     H28565   1.553   1.312   4.042 -1.3265  3.1867 -0.2239
  212MOL0     H28566   1.628   1.459   4.084  1.4907 -0.6500  0.1718
  212MOL0     H28567   1.843   1.376   4.097 -0.6522 -0.3053  2.4620
  212MOL0     H28568   1.802   1.205   4.102  2.5797  1.7523  1.0434
  212MOL0     H28569   1.798   1.417   3.876  2.3944 -1.0573 -4.0904
  212MOL0     H28570   1.704   1.266   3.858  1.7362 -0.8548 -1.0627
  212MOL0     H28571   2.068   1.329   3.977 -2.6432 -1.9502  1.5943
  212MOL0     H28572   2.286   1.189   3.900 -1.8135  3.2135  0.1342
  212MOL0     H28573   2.285   1.096   3.739 -2.7960 -0.3729 -1.6105
  212MOL0     H28574   2.446   1.300   3.749  0.7089 -0.6440 -0.6371
  212MOL0     H28575   2.307   1.400   3.762  0.2232  0.4357 -0.4491
  212MOL0     H28576   2.384   1.385   3.522 -3.2328  3.1757  1.4092
  212MOL0     H28577   2.223   1.348   3.546 -1.1528 -0.5721  1.5629
  212MOL0     H28578   2.244   1.117   3.524  0.8268 -0.7890  0.1359
  212MOL0     H28579   2.415   1.104   3.535  0.2579 -1.0171 -1.1797
  212MOL0     H28580   2.446   1.328   3.187  0.4176 -2.2912 -0.1327
  212MOL0     H28581   2.425   1.412   2.966 -1.4440 -2.5575  1.2674
  212MOL0     H28582   2.288   1.468   2.875  0.2975  1.5013 -0.7251
  212MOL0     H28583   2.336   1.554   3.021  0.0710 -0.7313  0.0976
  212MOL0     H28584   1.662   1.252   3.000  2.7718 -0.2840 -0.4310
  212MOL0     H28585   1.449   1.301   2.857  0.4186  0.2442 -2.7183
  212MOL0     H28586   1.312   1.600   2.730  2.2198 -1.0365  3.2087
  212MOL0     H28587   1.478   1.659   2.729  1.8222 -3.1673 -0.3116
  212MOL0     H28588   1.468   1.658   2.463  0.0460  3.1874  1.1918
  212MOL0     H28589   1.298   1.622   2.481  1.8204 -2.4508 -0.6465
  212MOL0     H28590   1.254   1.821   2.613 -1.2724  0.8481 -0.6795
  212MOL0     H28591   1.313   1.860   2.453 -1.9573  0.3198  0.3661
  212MOL0     H28592   1.445   1.899   2.728  5.4777 -0.8795  1.2217
  212MOL0     H28593   1.547   1.862   2.600 -1.3408 -1.9144 -0.6158
  212MOL0     H28594   1.325   2.087   2.593  0.9017  3.8460 -1.4014
  212MOL0     H28595   1.457   2.057   2.473  2.2403  3.1712  0.4518
  212MOL0     H28596   1.508   2.104   2.776  1.3009 -0.3538 -0.9104
  212MOL0     H28597   1.615   2.104   2.642  0.1390  0.6104 -2.5625
  212MOL0     H28598   1.459   2.309   2.773 -1.2380 -0.7281 -0.5500
  212MOL0     H28599   1.376   2.291   2.621 -0.8640 -0.5845  1.4599
  212MOL0     H28600   1.541   2.481   2.618 -2.2767  0.1093 -3.5117
  212MOL0     H28601   1.598   2.350   2.501 -0.0581  0.7611 -0.3095
  212MOL0     H28602   1.689   1.570   2.633 -3.3027  0.8189 -0.4505
  212MOL0     H28603   1.876   1.532   2.768  1.4770 -0.1608  3.5965
  212MOL0     H28604   1.962   1.243   3.184  0.8918 -0.7855 -1.8998
  212MOL0     H28605   2.094   1.150   3.357  2.1778 -2.2751 -0.7302
  212MOL0     H28606   1.028   1.847   4.269  0.2405 -2.5464 -2.0532
  212MOL0     H28607   0.927   2.031   4.159  0.2600 -1.9313  0.3795
  212MOL0     H28608   0.821   2.199   3.670 -0.9495  1.2092 -1.6984
  212MOL0     H28609   0.806   2.382   3.497 -0.7741  1.5777  1.1683
  212MOL0     H28610   1.012   2.779   3.588  1.4987  1.9054 -0.3996
  212MOL0     H28611   1.132   2.691   3.493 -0.0887  1.7281 -2.1278
  212MOL0     H28612   0.892   2.789   3.356  1.1447  0.6194 -1.8953
  212MOL0     H28613   1.034   2.722   3.286 -3.2111  1.6858 -2.5223
  212MOL0     H28614   1.173   2.899   3.366 -0.4520 -1.3161  3.8154
  212MOL0     H28615   1.027   2.973   3.449 -2.3276  1.1543 -0.7608
  212MOL0     H28616   1.053   3.102   3.244 -1.1492  0.4367  2.4229
  212MOL0     H28617   0.922   2.995   3.231 -0.5115  2.9130 -0.2385
  212MOL0     H28618   1.223   2.888   2.921  0.3316  0.7903 -0.8231
  212MOL0     H28619   1.085   2.618   3.731 -0.6436  1.5000 -0.2281
  212MOL0     H28620   1.099   2.432   3.886  0.6013  0.9624  0.5148
  213MOL0     O28621   1.493   3.901   0.803  0.0362 -0.3946  0.3735
  213MOL0     C28622   1.478   3.849   0.915 -0.1324 -0.3442 -0.1123
  213MOL0     O28623   1.568   3.856   1.016  0.3754 -0.1757  0.5463
  213MOL0     C28624   1.664   3.954   0.991  0.2780 -0.5881 -0.4500
  213MOL0     C28625   1.792   3.914   0.961 -0.0536 -0.0025  0.8042
  213MOL0     C28626   1.898   4.011   0.956  0.3210 -0.3086  0.3403
  213MOL0     C28627   1.865   4.145   0.952 -0.6964 -0.2828  0.8928
  213MOL0     O28628   1.964   4.236   0.927 -0.2767 -0.6364  0.3016
  213MOL0     C28629   2.057   4.221   0.821 -0.5050  0.2340 -0.1618
  213MOL0     C28630   1.977   4.214   0.688  0.2690 -0.5380  0.1585
  213MOL0     C28631   1.873   4.334   0.685 -0.0285 -0.1764  0.1892
  213MOL0     C28632   1.855   4.389   0.541  0.0815  0.4827  0.4392
  213MOL0     C28633   1.784   4.516   0.536  0.2619  0.4591  0.5209
  213MOL0     C28634   1.743   4.563   0.393 -0.4281 -0.8156  0.2364
  213MOL0     C28635   1.656   4.697   0.419  0.6298  0.1873  0.2482
  213MOL0     C28636   1.743   4.819   0.437 -0.9640  0.9090  0.8364
  213MOL0     N28637   1.667   4.940   0.480  0.7915 -0.1789  0.3143
  213MOL0     C28638   1.583   5.020   0.404  0.1223 -0.0854 -0.0963
  213MOL0     C28639   1.522   5.114   0.481  0.6102 -0.1219  0.2990
  213MOL0     C28640   1.424   5.216   0.429  0.0227  0.2983  0.8173
  213MOL0     C28641   1.467   5.298   0.307 -0.3332  0.2026 -0.3678
  213MOL0     C28642   1.406   5.440   0.297 -0.1292  0.1525 -0.1366
  213MOL0     C28643   1.428   5.493   0.158 -0.3332 -0.1432 -0.0889
  213MOL0     O28644   1.335   5.434   0.060 -0.2544 -0.1587  0.5901
  213MOL0     C28645   1.308   5.493  -0.061  0.3005 -0.5510  0.1970
  213MOL0     C28646   1.319   5.632  -0.093 -0.6774  0.9358  0.1553
  213MOL0     C28647   1.313   5.684  -0.222 -0.1153 -0.6631 -0.7675
  213MOL0     C28648   1.323   5.831  -0.227  1.0021 -0.1183  0.0274
  213MOL0     C28649   1.299   5.594  -0.329 -0.3364  0.2699  0.5809
  213MOL0     C28650   1.285   5.634  -0.469  0.0660  0.4826  0.0706
  213MOL0     O28651   1.325   5.552  -0.574 -0.2408 -0.0042  0.4888
  213MOL0     C28652   1.308   5.611  -0.701  0.0899  0.2897 -0.2325
  213MOL0     C28653   1.231   5.555  -0.804  0.1705 -0.2644 -0.0321
  213MOL0     C28654   1.221   5.627  -0.926 -0.4185  0.9856 -0.2725
  213MOL0     C28655   1.280   5.744  -0.949 -0.6861  0.1037 -0.4716
  213MOL0     O28656   1.269   5.801  -1.070 -0.4235 -0.1041 -0.4035
  213MOL0     C28657   1.374   5.887  -1.121 -0.4271 -0.4914  0.0229
  213MOL0     C28658   1.379   5.920  -1.274  0.8672  0.4426  1.0494
  213MOL0     C28659   1.486   6.010  -1.334 -0.1925  0.0071 -0.1095
  213MOL0     C28660   1.463   6.158  -1.289  1.2706 -0.6396 -0.3994
  213MOL0     C28661   1.562   6.259  -1.344 -0.4955  0.7923  0.2431
  213MOL0     C28662   1.551   6.275  -1.494  0.0797  0.2022 -0.4227
  213MOL0     C28663   1.647   6.379  -1.542  0.6284  0.1354 -0.4904
  213MOL0     C28664   1.612   6.410  -1.691  0.0594  0.3384 -0.1791
  213MOL0    Cl28665   1.467   6.512  -1.712 -0.0474 -0.2462  0.1286
  213MOL0     C28666   1.363   5.792  -0.846 -0.2270 -0.2964 -0.3732
  213MOL0     C28667   1.379   5.730  -0.725 -0.8425 -0.0432 -0.4803
  213MOL0     O28668   1.221   5.738  -0.476  0.5540 -0.2846 -0.0403
  213MOL0     C28669   1.293   5.460  -0.299  0.4562 -0.4156 -0.2522
  213MOL0     C28670   1.293   5.407  -0.168  0.0126 -0.0721 -0.6935
  213MOL0     N28671   1.567   5.080   0.608  0.2757 -0.3380  0.5075
  213MOL0     N28672   1.668   4.991   0.606 -0.3700  0.2394  0.3766
  213MOL0     C28673   1.739   4.185   0.989 -0.8530 -0.6595  0.2217
  213MOL0     C28674   1.638   4.096   1.008  0.6860  1.0943 -0.4585
  213MOL0     C28675   1.345   3.782   0.945  0.4637  0.7936  0.1588
  213MOL0     C28676   1.317   3.709   1.062 -0.6566  0.2874  0.4327
  213MOL0     C28677   1.188   3.659   1.092  0.3714 -0.0808  0.0652
  213MOL0     C28678   1.079   3.687   1.005 -0.9220 -0.4887 -0.1190
  213MOL0     O28679   0.946   3.646   1.009 -0.5937  0.5008  0.6650
  213MOL0     C28680   0.893   3.621   1.137 -0.6974  0.1761 -0.8930
  213MOL0     C28681   0.762   3.545   1.131 -0.1128  1.0317  0.0873
  213MOL0     C28682   0.768   3.397   1.075 -0.4468 -0.7117  0.3322
  213MOL0     C28683   0.647   3.308   1.108 -0.6748 -0.1029  0.4403
  213MOL0     C28684   0.520   3.381   1.126 -0.0470  0.3776  0.5155
  213MOL0     C28685   0.422   3.450   1.142 -0.3411 -1.4272 -0.2388
  213MOL0     C28686   1.104   3.760   0.891  0.5310 -0.2045 -0.5331
  213MOL0     C28687   1.230   3.792   0.853 -0.1279  0.3401 -0.2503
  213MOL0     H28688   1.799   3.806   0.961 -2.6013 -0.2303  0.3310
  213MOL0     H28689   2.001   3.981   0.945 -0.0613 -1.1519 -1.3109
  213MOL0     H28690   2.122   4.309   0.824  2.3489 -1.6343 -2.2545
  213MOL0     H28691   2.113   4.127   0.827 -0.9121 -0.1017 -1.3506
  213MOL0     H28692   2.061   4.222   0.619 -1.4047 -1.2241 -2.0575
  213MOL0     H28693   1.927   4.117   0.681  0.6248 -0.6169 -1.7231
  213MOL0     H28694   1.779   4.310   0.735  0.2692 -1.3771  0.1916
  213MOL0     H28695   1.916   4.424   0.731  2.2348  0.5455 -3.0018
  213MOL0     H28696   1.951   4.409   0.493 -0.3382 -0.8569 -1.0562
  213MOL0     H28697   1.804   4.313   0.481  1.6330  0.4838 -0.9659
  213MOL0     H28698   1.703   4.504   0.608  1.4014 -1.3682  1.5756
  213MOL0     H28699   1.838   4.593   0.593  0.8522 -0.5788  1.3961
  213MOL0     H28700   1.836   4.588   0.341  0.7661  1.1867  3.0470
  213MOL0     H28701   1.683   4.491   0.336 -4.1405  2.6869 -0.7775
  213MOL0     H28702   1.588   4.719   0.337  0.9150 -1.9665 -0.6463
  213MOL0     H28703   1.594   4.690   0.508 -0.5469  0.7949 -0.5029
  213MOL0     H28704   1.811   4.841   0.355  0.7754  0.9588  2.2399
  213MOL0     H28705   1.806   4.800   0.524 -2.9094  0.3067  2.1938
  213MOL0     H28706   1.575   5.015   0.296  2.0461 -3.0357 -0.2274
  213MOL0     H28707   1.340   5.151   0.400  1.0561 -1.3604  1.4167
  213MOL0     H28708   1.399   5.281   0.513  2.5276  1.4433  0.7440
  213MOL0     H28709   1.450   5.240   0.216 -2.8027 -0.2776  0.3226
  213MOL0     H28710   1.575   5.311   0.318  0.7931 -3.8429 -3.8834
  213MOL0     H28711   1.455   5.509   0.366  1.3659 -3.5047  2.7790
  213MOL0     H28712   1.297   5.441   0.301 -0.1081  1.2894  0.3479
  213MOL0     H28713   1.529   5.472   0.121 -0.3351 -0.8684  0.2917
  213MOL0     H28714   1.408   5.600   0.160 -2.6580 -0.5474  0.7193
  213MOL0     H28715   1.333   5.700  -0.011 -0.7212  0.0929  0.8785
  213MOL0     H28716   1.418   5.860  -0.273  0.5639 -2.9503 -3.0101
  213MOL0     H28717   1.242   5.881  -0.281  0.1393  0.4276  1.7789
  213MOL0     H28718   1.304   5.873  -0.128  2.6561  2.5703 -0.6642
  213MOL0     H28719   1.184   5.459  -0.789  1.7272 -1.2488 -1.2185
  213MOL0     H28720   1.171   5.577  -1.009  0.2477 -0.0430 -0.0758
  213MOL0     H28721   1.354   5.977  -1.061 -3.9660 -1.4597  0.5078
  213MOL0     H28722   1.475   5.854  -1.093 -1.1507 -2.5765  0.3320
  213MOL0     H28723   1.406   5.823  -1.318  0.9565 -0.4983  3.0873
  213MOL0     H28724   1.282   5.959  -1.307  0.7163  1.6447  2.8049
  213MOL0     H28725   1.489   6.007  -1.443 -1.5566  1.3182 -0.2054
  213MOL0     H28726   1.580   5.974  -1.289  0.0223  2.0632  1.2267
  213MOL0     H28727   1.366   6.199  -1.318  2.2540  2.9802  0.9439
  213MOL0     H28728   1.465   6.161  -1.179 -0.8795 -1.6919 -0.2828
  213MOL0     H28729   1.662   6.215  -1.342 -1.2578 -1.3627 -2.7569
  213MOL0     H28730   1.558   6.356  -1.293  1.1473  0.9547  0.1074
  213MOL0     H28731   1.561   6.177  -1.541 -1.6625 -0.0643 -0.2833
  213MOL0     H28732   1.448   6.306  -1.512  0.1053 -1.2997 -4.0199
  213MOL0     H28733   1.747   6.337  -1.526 -0.3385 -1.3705  2.2067
  213MOL0     H28734   1.652   6.478  -1.496  0.6177  1.1395 -2.5162
  213MOL0     H28735   1.597   6.327  -1.762  1.8211  0.8792 -1.2373
  213MOL0     H28736   1.699   6.466  -1.725 -1.4732  0.7131 -3.9492
  213MOL0     H28737   1.409   5.888  -0.867  0.0143 -0.3629 -0.1480
  213MOL0     H28738   1.437   5.780  -0.648 -0.8517  2.2063 -1.8581
  213MOL0     H28739   1.277   5.395  -0.385  0.4422 -0.8200  0.0527
  213MOL0     H28740   1.282   5.304  -0.135  2.3940 -0.3698 -0.6498
  213MOL0     H28741   1.716   4.289   1.010 -1.3038 -0.4455 -1.2619
  213MOL0     H28742   1.543   4.145   1.027  0.1335  0.4372 -1.4508
  213MOL0     H28743   1.388   3.682   1.140 -0.1753 -3.2774 -1.0864
  213MOL0     H28744   1.178   3.601   1.183  0.7531  0.9350  0.7683
  213MOL0     H28745   0.967   3.568   1.198 -1.2061  1.6194  1.0810
  213MOL0     H28746   0.871   3.722   1.174 -0.3801 -0.2378  0.4856
  213MOL0     H28747   0.694   3.599   1.065  0.4716  2.3787  0.5549
  213MOL0     H28748   0.710   3.546   1.227 -1.1549 -0.1984 -0.4336
  213MOL0     H28749   0.861   3.348   1.107  0.7881  1.2017 -0.1637
  213MOL0     H28750   0.777   3.419   0.968  1.8867 -0.4542  0.5246
  213MOL0     H28751   0.663   3.249   1.199  2.2576 -2.0020 -1.1696
  213MOL0     H28752   0.626   3.241   1.025  2.9635 -1.7604  0.6868
  213MOL0     H28753   0.337   3.513   1.162 -0.5394 -1.0190 -2.1691
  213MOL0     H28754   1.016   3.788   0.834  0.0439 -1.2910 -0.3465
  213MOL0     H28755   1.257   3.832   0.756  2.8640 -1.0763 -0.1081
  214MOL0     O28756   4.557   5.357   5.108  1.0944  0.3690  0.5592
  214MOL0     C28757   4.496   5.262   5.057 -0.2543  0.2106 -0.7358
  214MOL0     O28758   4.401   5.185   5.122  0.3401 -0.3746  0.6055
  214MOL0     C28759   4.326   5.212   5.240 -0.4683 -0.1870 -0.9444
  214MOL0     C28760   4.334   5.328   5.321 -0.4205  0.7473 -0.0631
  214MOL0     C28761   4.254   5.361   5.431  0.2352  0.1171  0.2093
  214MOL0     C28762   4.162   5.259   5.484  0.6979  0.3503 -0.1160
  214MOL0     O28763   4.098   5.287   5.606  0.3105 -0.2873 -0.4439
  214MOL0     C28764   3.973   5.213   5.638 -0.7626  0.0772 -0.3517
  214MOL0     C28765   3.867   5.297   5.701 -0.4790 -0.5893 -0.4840
  214MOL0     C28766   3.859   5.432   5.636  0.1963 -0.1693 -0.0526
  214MOL0     C28767   3.804   5.430   5.492 -0.2159  0.5300  0.3493
  214MOL0     C28768   3.809   5.555   5.418 -1.0231  0.4613  0.8292
  214MOL0     C28769   3.946   5.624   5.396 -0.0344  0.7842  0.0375
  214MOL0     C28770   3.946   5.763   5.349 -0.5538  0.5253 -0.6212
  214MOL0     C28771   3.918   5.863   5.459  0.3491 -0.1025 -0.4469
  214MOL0     N28772   4.045   5.902   5.520  0.1591 -0.4457 -0.1017
  214MOL0     C28773   4.088   5.861   5.648 -0.2119  0.1045  0.1458
  214MOL0     C28774   4.207   5.924   5.668  0.2507  0.3614 -0.0646
  214MOL0     C28775   4.301   5.891   5.783 -0.6197  0.6798 -0.2342
  214MOL0     C28776   4.280   5.749   5.832 -0.1143 -0.4951  0.3591
  214MOL0     C28777   4.392   5.704   5.930  0.2672 -0.6297  0.5609
  214MOL0     C28778   4.370   5.553   5.946 -0.2685  0.7729  0.4832
  214MOL0     O28779   4.250   5.532   6.025  0.0886  0.8196  0.4748
  214MOL0     C28780   4.193   5.404   6.021  1.0840 -0.2847  0.1142
  214MOL0     C28781   4.244   5.293   5.944 -0.2379 -1.2283  0.0160
  214MOL0     C28782   4.188   5.165   5.951  0.7040  0.2492 -0.5600
  214MOL0     C28783   4.270   5.058   5.883 -0.5768  0.1333  1.1947
  214MOL0     C28784   4.080   5.139   6.034 -0.2160 -0.1556  0.3647
  214MOL0     C28785   4.022   5.003   6.064  0.2700 -0.0321  0.4517
  214MOL0     O28786   4.047   4.908   5.979 -0.4686  0.7410  0.1984
  214MOL0     C28787   3.973   4.792   5.992 -0.2642 -0.5785 -0.8253
  214MOL0     C28788   3.832   4.788   5.985 -0.5249  0.0468  0.1648
  214MOL0     C28789   3.764   4.671   6.018  0.0279  0.2680  0.7167
  214MOL0     C28790   3.833   4.547   6.044  0.4897  0.4030 -0.1595
  214MOL0     O28791   3.761   4.428   6.060 -0.5579 -0.2543 -0.1606
  214MOL0     C28792   3.834   4.316   6.116 -0.6240 -0.2100  0.4673
  214MOL0     C28793   3.730   4.208   6.115  0.1908 -0.5314  0.0546
  214MOL0     C28794   3.608   4.242   6.202  0.3005 -0.8684 -0.3788
  214MOL0     C28795   3.538   4.121   6.257 -0.4025  0.7487 -0.3551
  214MOL0     C28796   3.393   4.142   6.292  0.1846  0.2963  0.2986
  214MOL0     C28797   3.334   4.010   6.354 -0.6369 -0.6326 -0.3321
  214MOL0     C28798   3.365   3.990   6.503  0.9272  0.5521 -0.0560
  214MOL0     C28799   3.317   3.859   6.568 -0.7942  0.2659  0.5170
  214MOL0    Cl28800   3.425   3.721   6.521  0.0081 -0.6201  0.2881
  214MOL0     C28801   3.973   4.552   6.033 -0.6288  0.0219 -0.2849
  214MOL0     C28802   4.045   4.667   6.003  0.1261 -0.3447  0.1972
  214MOL0     O28803   3.942   4.995   6.160 -0.3599 -0.2712  0.7505
  214MOL0     C28804   4.016   5.249   6.097 -1.1751 -0.4134 -0.2348
  214MOL0     C28805   4.077   5.378   6.090  0.4560 -0.1119 -0.5862
  214MOL0     N28806   4.231   6.005   5.561 -0.1991  0.3992 -0.4551
  214MOL0     N28807   4.126   6.001   5.482  0.0427  0.2626  0.3379
  214MOL0     C28808   4.160   5.146   5.402  0.0767 -0.1157 -0.1511
  214MOL0     C28809   4.230   5.123   5.288 -0.3189 -0.2371  0.3225
  214MOL0     C28810   4.555   5.214   4.927  0.0117 -0.2848 -0.1942
  214MOL0     C28811   4.676   5.263   4.873 -1.0153 -0.0797  0.7184
  214MOL0     C28812   4.725   5.209   4.758 -0.1263 -0.0265  0.6742
  214MOL0     C28813   4.664   5.106   4.693 -0.3543  0.0578 -0.1965
  214MOL0     O28814   4.723   5.029   4.591  0.4060  0.0734  0.4378
  214MOL0     C28815   4.804   5.088   4.493 -0.3793 -0.1707 -0.3369
  214MOL0     C28816   4.938   5.026   4.527  0.4044  1.1834  1.3714
  214MOL0     C28817   5.047   5.113   4.460 -1.3079  0.8112 -0.1382
  214MOL0     C28818   5.057   5.099   4.306 -0.1830 -0.0561 -0.5310
  214MOL0     C28819   5.094   4.962   4.262  0.2099  0.0098 -0.0578
  214MOL0     C28820   5.140   4.863   4.217 -0.2643  1.0907 -0.6232
  214MOL0     C28821   4.549   5.058   4.748 -0.0392  0.3266 -0.0374
  214MOL0     C28822   4.490   5.108   4.860 -0.4195  0.8509 -0.6222
  214MOL0     H28823   4.382   5.418   5.282  0.7569 -0.7483 -2.3240
  214MOL0     H28824   4.256   5.462   5.471  0.4754  0.7689 -1.3731
  214MOL0     H28825   3.923   5.180   5.547 -4.2727 -0.5682  1.6099
  214MOL0     H28826   3.994   5.130   5.707 -0.4338  0.9644  0.6422
  214MOL0     H28827   3.766   5.256   5.694 -0.3059 -0.8695 -1.4790
  214MOL0     H28828   3.886   5.314   5.808  0.2121 -0.8837 -0.5554
  214MOL0     H28829   3.810   5.509   5.697  1.2008  2.5791 -2.5123
  214MOL0     H28830   3.953   5.485   5.647 -0.7757  2.0272 -1.6259
  214MOL0     H28831   3.838   5.342   5.438 -1.2591  1.4779 -2.0175
  214MOL0     H28832   3.696   5.410   5.501  0.2318 -2.5755 -0.0727
  214MOL0     H28833   3.766   5.547   5.318  3.1554 -3.4816 -1.0228
  214MOL0     H28834   3.750   5.624   5.479  0.3420  0.4472  2.2460
  214MOL0     H28835   4.017   5.609   5.478 -0.3828  0.2361  0.2380
  214MOL0     H28836   3.990   5.570   5.312 -0.2008 -1.0190  1.0563
  214MOL0     H28837   4.048   5.786   5.315  0.0174 -1.0545 -0.0764
  214MOL0     H28838   3.871   5.772   5.270 -3.6470  0.8840  2.1703
  214MOL0     H28839   3.854   5.821   5.538  2.9076  0.1866  1.9012
  214MOL0     H28840   3.861   5.948   5.420  0.1720 -0.1508 -0.2988
  214MOL0     H28841   4.039   5.782   5.704  0.8666  0.9843  2.4428
  214MOL0     H28842   4.396   5.919   5.737 -2.0791  2.3016 -2.4550
  214MOL0     H28843   4.287   5.957   5.869 -1.7306 -2.3610  2.1430
  214MOL0     H28844   4.273   5.685   5.744 -1.8139 -0.2002  0.2349
  214MOL0     H28845   4.188   5.750   5.891  0.2468  2.6183  1.0327
  214MOL0     H28846   4.379   5.753   6.027  2.8847  0.9433  0.2123
  214MOL0     H28847   4.491   5.718   5.886  1.4059  0.1190  3.1571
  214MOL0     H28848   4.453   5.514   6.005 -1.4193 -3.8121 -0.5815
  214MOL0     H28849   4.365   5.506   5.847  3.0029 -0.1210  0.6386
  214MOL0     H28850   4.326   5.307   5.873  1.9682 -1.9859  2.2641
  214MOL0     H28851   4.212   5.003   5.808  0.7384 -0.1955  0.3796
  214MOL0     H28852   4.352   5.107   5.829 -0.7550 -0.0348  0.7697
  214MOL0     H28853   4.328   5.004   5.958  1.2777  0.7260  0.2573
  214MOL0     H28854   3.774   4.877   5.964  1.3031  1.0149 -1.1649
  214MOL0     H28855   3.656   4.670   6.032  0.2308 -1.0968  2.6845
  214MOL0     H28856   3.926   4.284   6.067  0.7085  1.7946  1.5373
  214MOL0     H28857   3.859   4.341   6.219 -2.8884 -0.9612  1.2518
  214MOL0     H28858   3.705   4.199   6.009  1.3579  5.1424 -1.0503
  214MOL0     H28859   3.777   4.118   6.157  1.9394 -1.0646 -2.7371
  214MOL0     H28860   3.531   4.295   6.145  2.0369  3.0722  0.5708
  214MOL0     H28861   3.649   4.301   6.285  3.5432 -2.5294 -0.6718
  214MOL0     H28862   3.534   4.042   6.181 -1.4446  1.5484 -1.1606
  214MOL0     H28863   3.596   4.084   6.342 -0.8794 -0.2415 -0.4377
  214MOL0     H28864   3.342   4.161   6.197  1.3891  2.1338 -0.0371
  214MOL0     H28865   3.383   4.227   6.361  0.4524  0.3530  0.2690
  214MOL0     H28866   3.226   3.999   6.350 -0.9750  1.2198  1.7947
  214MOL0     H28867   3.376   3.930   6.292  0.7855  1.1423 -1.7956
  214MOL0     H28868   3.330   4.070   6.569 -1.5361 -2.6179  2.8370
  214MOL0     H28869   3.475   3.994   6.508  1.0350  3.2737 -2.0975
  214MOL0     H28870   3.210   3.841   6.554 -0.8863  1.3099 -0.2096
  214MOL0     H28871   3.327   3.873   6.676  0.6171  3.0912  0.1131
  214MOL0     H28872   4.026   4.457   6.036 -0.8113 -0.0554  0.6950
  214MOL0     H28873   4.153   4.672   6.000  0.1078  0.3544 -2.6905
  214MOL0     H28874   3.927   5.240   6.158 -0.7417  0.2785  0.5120
  214MOL0     H28875   4.029   5.451   6.154  0.0439 -1.0304  0.1789
  214MOL0     H28876   4.098   5.062   5.432 -0.7887  1.2713  2.2285
  214MOL0     H28877   4.221   5.031   5.232  1.3250  1.1022 -2.3706
  214MOL0     H28878   4.737   5.335   4.926 -0.2051  0.5314 -0.9665
  214MOL0     H28879   4.806   5.250   4.699 -2.2717 -0.7003 -3.0551
  214MOL0     H28880   4.773   5.060   4.392 -0.3383  1.3439 -0.8003
  214MOL0     H28881   4.813   5.197   4.496  1.0686 -0.2791 -0.2884
  214MOL0     H28882   4.943   4.917   4.523 -1.1270  1.0501  2.3985
  214MOL0     H28883   4.946   5.049   4.634 -0.2998  2.1034  1.2397
  214MOL0     H28884   5.141   5.090   4.512 -2.3643 -1.3499  0.9822
  214MOL0     H28885   5.031   5.217   4.490  1.2292  1.0823  0.4939
  214MOL0     H28886   5.141   5.159   4.270  1.2608 -1.9021 -0.3627
  214MOL0     H28887   4.964   5.126   4.254 -2.1695 -2.9759  1.1913
  214MOL0     H28888   5.182   4.771   4.181 -0.6384  1.8817 -3.2877
  214MOL0     H28889   4.505   4.965   4.714 -1.8515  1.3847 -0.7013
  214MOL0     H28890   4.409   5.046   4.896  0.1735 -0.3277 -1.2591
  215MOL0     O28891   1.957   0.130   2.913 -0.0071  0.7245  0.6259
  215MOL0     C28892   2.048   0.052   2.952 -0.3980 -0.1580  0.6708
  215MOL0     O28893   2.111  -0.037   2.865  0.5774  0.3239 -0.6761
  215MOL0     C28894   2.094  -0.010   2.733  0.0115  0.2173  0.5734
  215MOL0     C28895   2.132   0.111   2.673  0.4514 -0.2587  0.2996
  215MOL0     C28896   2.124   0.141   2.531  0.4140 -0.5615  0.2768
  215MOL0     C28897   2.061   0.042   2.449 -0.3717 -0.2691 -0.1603
  215MOL0     O28898   2.055   0.060   2.319 -0.1753 -0.5136  0.5412
  215MOL0     C28899   1.942   0.030   2.245  0.0629  0.1192 -0.2470
  215MOL0     C28900   1.913   0.127   2.131  0.8097 -0.6886 -0.3904
  215MOL0     C28901   1.775   0.089   2.073  0.0871  0.5853  0.0371
  215MOL0     C28902   1.710   0.184   1.966 -0.1318 -0.4681  0.2169
  215MOL0     C28903   1.717   0.331   2.008 -1.0681  0.3837  0.2088
  215MOL0     C28904   1.620   0.422   1.928  0.1667 -0.4402  0.2823
  215MOL0     C28905   1.684   0.478   1.794  0.9596 -0.0503  0.8039
  215MOL0     C28906   1.625   0.614   1.744  0.2986 -0.4162 -0.5976
  215MOL0     N28907   1.653   0.735   1.837  0.5684  0.1534 -0.3881
  215MOL0     C28908   1.754   0.758   1.928 -0.2385  0.2951 -0.3769
  215MOL0     C28909   1.727   0.884   1.978  0.6256 -0.2132  0.3910
  215MOL0     C28910   1.806   0.959   2.077  0.7064 -0.7889 -0.1112
  215MOL0     C28911   1.887   1.085   2.017 -0.5157 -0.3331  0.1002
  215MOL0     C28912   2.006   1.038   1.941 -0.1609 -0.9994 -0.1978
  215MOL0     C28913   2.090   1.151   1.878 -0.2323  0.3396 -0.3428
  215MOL0     O28914   2.133   1.247   1.983  0.1550  0.2049 -0.6334
  215MOL0     C28915   2.214   1.349   1.952 -0.3372 -0.4723  0.0058
  215MOL0     C28916   2.313   1.365   2.046 -0.4264  0.2652 -0.5792
  215MOL0     C28917   2.407   1.467   2.028 -0.3978 -0.5681 -0.6207
  215MOL0     C28918   2.494   1.489   2.154  0.8810 -0.0571  0.9515
  215MOL0     C28919   2.411   1.543   1.908  1.0580 -0.2228  0.5346
  215MOL0     C28920   2.508   1.648   1.883 -0.6406 -0.9698  0.1367
  215MOL0     O28921   2.625   1.626   1.936  0.1771 -0.1104 -0.2263
  215MOL0     C28922   2.720   1.722   1.912 -0.4334 -0.3514  0.0049
  215MOL0     C28923   2.819   1.684   1.818 -0.6695  0.2074 -0.2614
  215MOL0     C28924   2.907   1.775   1.768 -0.5841  0.7094  1.0316
  215MOL0     C28925   2.918   1.905   1.818  0.3520  0.1398 -0.1353
  215MOL0     O28926   3.005   1.989   1.751 -0.4189  0.2545 -0.1037
  215MOL0     C28927   3.060   2.092   1.835 -0.2226 -1.1402 -0.3252
  215MOL0     C28928   3.184   2.158   1.786  0.8624  0.6950 -0.3429
  215MOL0     C28929   3.184   2.211   1.649  0.5582 -0.6106 -0.4154
  215MOL0     C28930   3.073   2.320   1.616  0.0289 -0.0409  0.4320
  215MOL0     C28931   3.080   2.397   1.485 -0.4824  0.7087 -0.3216
  215MOL0     C28932   3.051   2.304   1.365  0.2213  0.7079 -0.4387
  215MOL0     C28933   3.017   2.357   1.231  0.6164  0.1260  0.5492
  215MOL0     C28934   2.888   2.441   1.237  0.0837  0.5108  0.7644
  215MOL0    Cl28935   2.780   2.425   1.105  0.2252  0.2830 -0.2516
  215MOL0     C28936   2.836   1.933   1.929  0.0015 -0.6393  0.4552
  215MOL0     C28937   2.732   1.852   1.971 -0.2575 -0.1093  0.1296
  215MOL0     O28938   2.472   1.750   1.825 -0.0105 -0.1863 -0.0256
  215MOL0     C28939   2.314   1.513   1.809 -0.0711 -0.3620 -0.8511
  215MOL0     C28940   2.219   1.417   1.835  0.5089 -0.0993 -0.2081
  215MOL0     N28941   1.602   0.920   1.926  0.6577  0.4703  0.8439
  215MOL0     N28942   1.566   0.839   1.838  0.0110 -0.7101 -0.1582
  215MOL0     C28943   2.012  -0.081   2.511  0.5501  0.4681  0.1771
  215MOL0     C28944   2.036  -0.107   2.647 -0.2977 -0.1980  0.7231
  215MOL0     C28945   2.066   0.042   3.098  0.2822  0.3458 -0.7756
  215MOL0     C28946   2.121  -0.072   3.161 -1.3380  0.6934 -0.0737
  215MOL0     C28947   2.109  -0.100   3.301 -0.0527  0.7083  0.6576
  215MOL0     C28948   2.049  -0.006   3.385  0.0078  0.3520  0.0483
  215MOL0     O28949   2.054  -0.051   3.509  0.3543 -0.3711 -0.3359
  215MOL0     C28950   2.022   0.040   3.617  0.2240  0.1636  0.6571
  215MOL0     C28951   2.136   0.130   3.664  0.9277 -0.4864  0.1988
  215MOL0     C28952   2.104   0.187   3.802  0.2705 -0.0687 -0.3568
  215MOL0     C28953   2.213   0.287   3.841  0.6795 -1.2229 -0.4667
  215MOL0     C28954   2.347   0.250   3.837 -0.3429 -0.7747  0.3411
  215MOL0     C28955   2.468   0.220   3.833  0.0457 -1.0681  0.0347
  215MOL0     C28956   2.004   0.115   3.326  0.0464  0.1178 -0.8604
  215MOL0     C28957   2.005   0.133   3.188 -0.5314 -0.2847 -0.7550
  215MOL0     H28958   2.176   0.191   2.731 -0.7414  0.8797 -0.3053
  215MOL0     H28959   2.166   0.225   2.476  0.6007 -2.7813 -3.3051
  215MOL0     H28960   1.953  -0.071   2.203  0.3643 -1.2769  2.9085
  215MOL0     H28961   1.864   0.006   2.317  1.9060 -3.3251  0.8543
  215MOL0     H28962   1.908   0.233   2.157  3.4443 -0.3069 -1.0871
  215MOL0     H28963   1.987   0.124   2.050 -1.5874 -0.0038 -2.7057
  215MOL0     H28964   1.776  -0.013   2.034 -1.7778  0.3927  0.3792
  215MOL0     H28965   1.709   0.096   2.160  1.6055  3.1878  1.1047
  215MOL0     H28966   1.765   0.178   1.872  0.1662  1.2903  0.2401
  215MOL0     H28967   1.605   0.154   1.967 -1.1717  2.7400  1.4397
  215MOL0     H28968   1.690   0.334   2.114  0.4790  2.3365  0.6063
  215MOL0     H28969   1.814   0.378   1.990 -1.8321  0.9680 -3.0370
  215MOL0     H28970   1.527   0.369   1.908  0.6225 -0.3890 -2.2898
  215MOL0     H28971   1.588   0.505   1.992  1.6605 -1.0266  1.9036
  215MOL0     H28972   1.792   0.493   1.798  1.1410  1.3978 -3.6482
  215MOL0     H28973   1.656   0.403   1.720 -1.0741 -2.1761  3.5272
  215MOL0     H28974   1.518   0.608   1.718 -0.5865 -2.0711  2.8116
  215MOL0     H28975   1.694   0.637   1.663 -0.7502  1.9736 -0.8900
  215MOL0     H28976   1.830   0.683   1.943 -0.7408 -0.7789 -2.7245
  215MOL0     H28977   1.735   0.996   2.151 -0.6365  0.3580 -1.8972
  215MOL0     H28978   1.876   0.897   2.134  1.1305  0.8746  1.2604
  215MOL0     H28979   1.915   1.147   2.103 -0.5531  0.3995 -0.4040
  215MOL0     H28980   1.821   1.136   1.947  0.8082 -0.5353 -1.3385
  215MOL0     H28981   1.958   0.978   1.862 -1.2748 -2.8292  1.7599
  215MOL0     H28982   2.072   0.974   2.001  2.0629  0.9414 -0.4439
  215MOL0     H28983   2.038   1.196   1.793  3.0446  1.4159 -1.9552
  215MOL0     H28984   2.172   1.095   1.831 -0.6835 -0.8617  0.2729
  215MOL0     H28985   2.317   1.308   2.138 -0.7292  0.7196 -0.2777
  215MOL0     H28986   2.559   1.578   2.151 -0.1610  0.8855  3.5042
  215MOL0     H28987   2.435   1.506   2.244  1.2532 -0.6160  1.3104
  215MOL0     H28988   2.558   1.401   2.154  1.4418  0.3380  0.3727
  215MOL0     H28989   2.805   1.581   1.787 -1.6078  0.5780 -1.1436
  215MOL0     H28990   2.974   1.749   1.687 -3.0052 -1.6366 -0.3852
  215MOL0     H28991   2.978   2.166   1.832 -0.3118 -1.2305 -0.1012
  215MOL0     H28992   3.070   2.051   1.935  0.0771 -1.5182 -0.5080
  215MOL0     H28993   3.209   2.240   1.855 -0.3551  0.7654  0.0360
  215MOL0     H28994   3.265   2.085   1.798 -0.5050 -0.8652 -0.3439
  215MOL0     H28995   3.151   2.125   1.590  1.9763 -0.9777 -0.7193
  215MOL0     H28996   3.286   2.249   1.632  0.9342 -1.8110 -0.9794
  215MOL0     H28997   2.980   2.263   1.611 -0.4977  0.6766  1.5913
  215MOL0     H28998   3.059   2.387   1.701 -0.6382  0.5021 -0.0965
  215MOL0     H28999   3.177   2.446   1.476  0.3573 -0.7118  0.7264
  215MOL0     H29000   3.004   2.476   1.491 -1.3163 -0.1247  4.2484
  215MOL0     H29001   3.134   2.233   1.359 -0.2821  0.2011 -1.5811
  215MOL0     H29002   2.963   2.247   1.397 -0.0429  2.9054  3.4110
  215MOL0     H29003   3.002   2.275   1.161 -0.6695  0.5813  0.2793
  215MOL0     H29004   3.102   2.416   1.195  2.5093 -2.1032  1.1336
  215MOL0     H29005   2.926   2.544   1.243 -2.8767  1.8425 -1.1005
  215MOL0     H29006   2.834   2.418   1.329  2.3197 -2.1299  1.5511
  215MOL0     H29007   2.842   2.031   1.976  2.4708 -1.3447  1.8276
  215MOL0     H29008   2.677   1.900   2.051  1.7405  1.3598  0.6998
  215MOL0     H29009   2.338   1.561   1.715  2.1998  1.6386  0.6425
  215MOL0     H29010   2.147   1.384   1.761 -0.0507 -1.3683  0.8516
  215MOL0     H29011   1.968  -0.157   2.448  0.2084  2.4921 -2.1730
  215MOL0     H29012   2.034  -0.208   2.685  1.5297 -0.6306 -0.1949
  215MOL0     H29013   2.140  -0.161   3.102  0.2318  1.7466 -1.2341
  215MOL0     H29014   2.147  -0.198   3.328 -2.5519 -0.6191 -0.2532
  215MOL0     H29015   1.930   0.087   3.581 -0.0031 -3.5115 -4.8299
  215MOL0     H29016   2.003  -0.009   3.713  1.2523  4.0476  3.0684
  215MOL0     H29017   2.152   0.199   3.580  0.1719 -1.0169 -0.3914
  215MOL0     H29018   2.232   0.076   3.670  1.2292  0.1546  1.5704
  215MOL0     H29019   2.105   0.098   3.867 -3.9159 -1.5955 -2.0695
  215MOL0     H29020   2.001   0.222   3.800  0.4440  0.4427 -0.2953
  215MOL0     H29021   2.195   0.309   3.947  1.7679  0.1520 -0.5325
  215MOL0     H29022   2.195   0.373   3.776  1.0854 -0.8387 -0.0843
  215MOL0     H29023   2.571   0.190   3.834  0.8005  1.2101  1.9781
  215MOL0     H29024   1.973   0.195   3.392 -1.1867 -0.8714 -0.1843
  215MOL0     H29025   1.971   0.225   3.144  0.9488  0.2115 -0.9220
  216MOL0     O29026   2.385   0.792   3.498  0.1828 -0.8605  0.3513
  216MOL0     C29027   2.473   0.761   3.580  0.3398  0.0337 -0.3480
  216MOL0     O29028   2.604   0.721   3.547 -0.9298 -0.5147 -1.4901
  216MOL0     C29029   2.649   0.688   3.415  0.1958  0.2110 -0.4021
  216MOL0     C29030   2.787   0.684   3.376  0.9715 -0.3820 -0.2305
  216MOL0     C29031   2.822   0.643   3.249  0.2886 -0.5618 -0.0296
  216MOL0     C29032   2.731   0.620   3.153  0.6077  0.0194  0.3697
  216MOL0     O29033   2.751   0.585   3.023  0.4148 -0.1123 -0.9988
  216MOL0     C29034   2.858   0.651   2.961 -0.1616 -0.3250  0.4851
  216MOL0     C29035   2.881   0.607   2.821  0.6726  0.2972 -0.8137
  216MOL0     C29036   2.857   0.455   2.805  0.5633  0.1093 -0.4102
  216MOL0     C29037   2.897   0.418   2.669  0.9889  0.2149  0.2428
  216MOL0     C29038   2.887   0.263   2.641  0.1031 -0.1532 -0.1211
  216MOL0     C29039   2.755   0.191   2.655 -0.4516 -0.2668  0.6893
  216MOL0     C29040   2.651   0.255   2.555 -0.2923 -0.1646  0.0100
  216MOL0     C29041   2.688   0.262   2.410 -0.1569 -0.1022  0.8468
  216MOL0     N29042   2.573   0.259   2.316 -0.2811  0.8920 -0.4909
  216MOL0     C29043   2.462   0.333   2.329  1.0550  1.0497  0.8150
  216MOL0     C29044   2.379   0.274   2.240 -0.3667  0.4848  0.2863
  216MOL0     C29045   2.257   0.350   2.219 -0.4144 -0.2827  0.5710
  216MOL0     C29046   2.273   0.455   2.103 -0.4581 -0.0197 -0.4920
  216MOL0     C29047   2.161   0.568   2.119 -0.4266  0.1092  0.2547
  216MOL0     C29048   2.167   0.666   2.004 -0.2941  0.2023  0.1732
  216MOL0     O29049   2.269   0.767   2.028 -0.5591 -0.4727  0.2166
  216MOL0     C29050   2.354   0.791   1.928 -0.4923 -0.8747  0.0341
  216MOL0     C29051   2.411   0.924   1.936 -0.5343 -0.8184  0.0171
  216MOL0     C29052   2.488   0.979   1.830  0.0627 -0.3617  0.0145
  216MOL0     C29053   2.528   1.123   1.838 -0.0378  0.5526  0.3893
  216MOL0     C29054   2.517   0.890   1.720  0.2114  0.1207 -0.5175
  216MOL0     C29055   2.612   0.922   1.613  0.6329  0.0039 -0.2253
  216MOL0     O29056   2.694   0.813   1.572 -0.3844  0.3908 -0.5150
  216MOL0     C29057   2.766   0.817   1.453  0.1119  0.3441  0.3913
  216MOL0     C29058   2.709   0.874   1.339 -0.1590  0.1280  0.8370
  216MOL0     C29059   2.778   0.841   1.213 -0.1846  0.4566 -0.2023
  216MOL0     C29060   2.899   0.772   1.216 -0.3220 -0.4457  0.3610
  216MOL0     O29061   2.986   0.756   1.104  0.6986  0.4127  0.4030
  216MOL0     C29062   2.917   0.737   0.979 -0.0932  0.0577  0.5664
  216MOL0     C29063   3.006   0.667   0.874 -0.1618  0.9470  0.1654
  216MOL0     C29064   3.153   0.705   0.849 -0.4397  0.4296  0.0449
  216MOL0     C29065   3.159   0.832   0.765  0.8635 -0.4371  0.0361
  216MOL0     C29066   3.308   0.868   0.726 -0.8533  0.4114 -0.6218
  216MOL0     C29067   3.370   0.938   0.846  0.6201 -0.6219  0.8896
  216MOL0     C29068   3.512   1.007   0.812  0.9647 -0.8531  0.6426
  216MOL0     C29069   3.503   1.149   0.775 -0.4591  0.5433 -0.6192
  216MOL0    Cl29070   3.409   1.252   0.900 -0.3455 -0.1691 -0.2417
  216MOL0     C29071   2.957   0.723   1.334 -0.3177  0.4502  0.0961
  216MOL0     C29072   2.882   0.738   1.451  0.5911  0.4158  0.4639
  216MOL0     O29073   2.616   1.036   1.563  0.0997  0.5420 -0.0320
  216MOL0     C29074   2.471   0.756   1.716 -0.9538 -0.1522 -1.2626
  216MOL0     C29075   2.396   0.709   1.822 -0.3071  0.5326 -1.1055
  216MOL0     N29076   2.435   0.164   2.174  0.2223  0.0236  0.3539
  216MOL0     N29077   2.552   0.155   2.224 -1.9420 -0.4097  0.1412
  216MOL0     C29078   2.592   0.611   3.191 -0.6078  0.9947 -0.4046
  216MOL0     C29079   2.560   0.648   3.319  0.2530 -0.3329  0.2646
  216MOL0     C29080   2.435   0.747   3.720  0.2794  0.2541 -0.1067
  216MOL0     C29081   2.318   0.798   3.775  0.6952 -0.3658 -0.7011
  216MOL0     C29082   2.291   0.779   3.912  0.1701 -0.1889  0.0820
  216MOL0     C29083   2.371   0.686   3.988 -0.3485 -0.4710 -0.1747
  216MOL0     O29084   2.310   0.658   4.111 -0.1894 -0.0269 -0.0968
  216MOL0     C29085   2.379   0.729   4.213  0.2267 -0.5554 -0.1049
  216MOL0     C29086   2.374   0.668   4.354  0.5393 -1.2976  0.5577
  216MOL0     C29087   2.434   0.773   4.442 -0.2230 -0.8993 -0.3545
  216MOL0     C29088   2.449   0.725   4.591 -0.7446  1.0367 -0.0863
  216MOL0     C29089   2.503   0.839   4.676 -0.0789  0.7622  1.1523
  216MOL0     C29090   2.533   0.920   4.767  0.6898 -0.8670  0.1751
  216MOL0     C29091   2.483   0.637   3.930 -0.9549  0.0838 -0.1126
  216MOL0     C29092   2.525   0.674   3.801  0.9581  0.2591 -1.1616
  216MOL0     H29093   2.858   0.700   3.456 -1.5598 -2.1382  2.5781
  216MOL0     H29094   2.929   0.660   3.234  0.1900  1.8860  1.5041
  216MOL0     H29095   2.837   0.759   2.956  3.4470  0.5874  1.9813
  216MOL0     H29096   2.954   0.639   3.012  0.6989  1.0341 -0.7362
  216MOL0     H29097   2.824   0.663   2.746  1.1578  1.7806 -0.1035
  216MOL0     H29098   2.981   0.644   2.796  0.5455  0.7249 -0.7029
  216MOL0     H29099   2.917   0.401   2.878  0.1846 -0.4438 -0.5024
  216MOL0     H29100   2.750   0.435   2.818  0.2654  1.6115 -0.3236
  216MOL0     H29101   2.841   0.477   2.597  2.6684  2.1646  0.4456
  216MOL0     H29102   3.002   0.446   2.654  0.2860  1.9575 -1.9213
  216MOL0     H29103   2.928   0.251   2.540  3.0696  1.2734  0.7846
  216MOL0     H29104   2.963   0.225   2.711  0.4533  2.1450  0.8107
  216MOL0     H29105   2.776   0.086   2.630  2.3006  0.0216  1.4065
  216MOL0     H29106   2.714   0.192   2.757  1.5082  0.7995  1.5206
  216MOL0     H29107   2.557   0.200   2.565  0.6131 -1.8602 -0.5269
  216MOL0     H29108   2.628   0.354   2.597 -1.2964 -0.3562 -0.0532
  216MOL0     H29109   2.755   0.179   2.384 -0.6836 -0.5791  0.9837
  216MOL0     H29110   2.754   0.347   2.389 -1.0331  0.3439 -0.2290
  216MOL0     H29111   2.432   0.414   2.395  0.1951  0.2799  1.3793
  216MOL0     H29112   2.173   0.286   2.192 -0.5035 -0.3307  0.9562
  216MOL0     H29113   2.228   0.393   2.315 -2.7512  0.2336 -0.3099
  216MOL0     H29114   2.265   0.393   2.013  0.8943  2.7602 -2.6795
  216MOL0     H29115   2.373   0.499   2.100 -0.5506  0.1951 -0.4763
  216MOL0     H29116   2.181   0.626   2.209  3.0135 -1.9600  0.9937
  216MOL0     H29117   2.062   0.524   2.132 -0.8564  0.4418 -1.5843
  216MOL0     H29118   2.073   0.723   2.001 -1.5286 -1.7269  0.1819
  216MOL0     H29119   2.170   0.609   1.911  1.0869  0.4274  0.0667
  216MOL0     H29120   2.399   0.983   2.026 -1.0447 -2.0304  0.7748
  216MOL0     H29121   2.518   1.170   1.937 -0.6086  2.5231 -0.5595
  216MOL0     H29122   2.636   1.124   1.820  0.2894 -1.2521  1.8678
  216MOL0     H29123   2.468   1.192   1.778 -1.0902  1.8953  2.7879
  216MOL0     H29124   2.613   0.924   1.348 -1.6318 -2.4943  0.7079
  216MOL0     H29125   2.746   0.882   1.117  0.6797  2.1125  0.1833
  216MOL0     H29126   2.832   0.673   1.002 -1.6690  1.1459 -1.7730
  216MOL0     H29127   2.895   0.838   0.942 -0.1058 -0.5780 -1.2737
  216MOL0     H29128   3.005   0.563   0.908  1.6066 -0.1101 -2.6637
  216MOL0     H29129   2.944   0.668   0.783  0.0120  1.3348  0.0472
  216MOL0     H29130   3.211   0.628   0.797  0.0396  0.5733  0.3631
  216MOL0     H29131   3.202   0.718   0.946  0.8437 -1.7644 -0.2405
  216MOL0     H29132   3.104   0.827   0.670 -1.1963 -1.5526  1.2299
  216MOL0     H29133   3.114   0.904   0.834 -0.7438 -0.9324 -0.4379
  216MOL0     H29134   3.306   0.946   0.650 -0.0943  2.4360  1.3052
  216MOL0     H29135   3.363   0.779   0.692 -2.4427 -1.5626  1.6260
  216MOL0     H29136   3.296   1.005   0.892  2.0534  0.9726  0.9700
  216MOL0     H29137   3.387   0.847   0.905  1.4843 -1.5382 -0.7189
  216MOL0     H29138   3.563   0.954   0.731 -0.8516 -3.8930  1.3571
  216MOL0     H29139   3.566   0.998   0.906  0.2034  1.4996  1.3851
  216MOL0     H29140   3.466   1.161   0.673 -1.1727  0.9844 -0.3151
  216MOL0     H29141   3.604   1.191   0.761 -0.9823  2.2557  0.4050
  216MOL0     H29142   3.058   0.683   1.341 -0.6847 -0.6142 -0.4730
  216MOL0     H29143   2.921   0.700   1.545 -1.3172  0.9358  1.5165
  216MOL0     H29144   2.503   0.683   1.642  0.3064 -1.3501  0.3827
  216MOL0     H29145   2.373   0.604   1.809 -0.1360  0.1937  0.9991
  216MOL0     H29146   2.527   0.574   3.112  1.1885  1.4395 -2.1553
  216MOL0     H29147   2.453   0.651   3.339 -0.4442  5.2700 -2.3982
  216MOL0     H29148   2.258   0.849   3.701  0.6603 -0.0365 -0.4486
  216MOL0     H29149   2.203   0.809   3.968 -0.9692 -2.6052 -0.2864
  216MOL0     H29150   2.482   0.751   4.184  0.3022 -2.2439 -1.2264
  216MOL0     H29151   2.317   0.820   4.214  2.0115  0.7417  2.2370
  216MOL0     H29152   2.428   0.573   4.358  0.3565 -1.4735 -0.8980
  216MOL0     H29153   2.269   0.647   4.379  0.9577 -3.5251  0.5815
  216MOL0     H29154   2.381   0.868   4.432  2.5678  0.8090  0.0312
  216MOL0     H29155   2.532   0.796   4.398 -0.7966 -0.7272 -1.5798
  216MOL0     H29156   2.507   0.633   4.592 -2.9495 -0.4278  0.3102
  216MOL0     H29157   2.354   0.694   4.636  0.0319 -2.5112 -0.6210
  216MOL0     H29158   2.557   0.997   4.838 -0.1327  0.8402 -1.2972
  216MOL0     H29159   2.561   0.572   3.967  1.6484  0.9991 -3.4342
  216MOL0     H29160   2.617   0.627   3.767  0.0779 -2.4124 -0.0712
  217MOL0     O29161   9.554   3.975   9.990  0.2496 -0.6254 -0.1461
  217MOL0     C29162   9.430   3.989  10.002 -1.8446 -1.5291 -0.0229
  217MOL0     O29163   9.374   4.070  10.090 -0.0985 -0.2390  0.8720
  217MOL0     C29164   9.441   4.103  10.200 -0.1349 -0.4304 -0.0836
  217MOL0     C29165   9.498   4.239  10.204 -0.2786  0.3456 -0.9329
  217MOL0     C29166   9.570   4.283  10.316  0.4429 -0.3752 -0.1354
  217MOL0     C29167   9.590   4.201  10.428  0.1081  1.6778  0.3114
  217MOL0     O29168   9.663   4.225  10.546  0.3518 -0.2818 -0.0121
  217MOL0     C29169   9.719   4.356  10.561  0.9444 -0.0048 -0.3791
  217MOL0     C29170   9.793   4.364  10.693  0.1122  0.6867 -0.8532
  217MOL0     C29171   9.833   4.507  10.738 -0.5549 -0.3140 -0.0583
  217MOL0     C29172   9.938   4.527  10.857 -0.5149 -0.1699 -0.2357
  217MOL0     C29173   9.939   4.404  10.953  0.2614 -0.4478  1.1446
  217MOL0     C29174   9.827   4.391  11.050  0.6740  0.2776  0.7058
  217MOL0     C29175   9.815   4.249  11.094  0.1359  0.2709  0.7842
  217MOL0     C29176   9.744   4.151  11.001 -0.0537 -0.6048  0.7069
  217MOL0     N29177   9.601   4.174  10.977 -0.0340  0.3315  0.2365
  217MOL0     C29178   9.535   4.099  10.874 -0.9989 -0.8372 -0.7889
  217MOL0     C29179   9.411   4.165  10.863 -1.1103  0.2836  0.3466
  217MOL0     C29180   9.298   4.134  10.761  0.1058  0.2721  0.2092
  217MOL0     C29181   9.227   4.248  10.696  0.1639  0.2370 -0.1058
  217MOL0     C29182   9.327   4.337  10.620  0.6752  0.2696 -0.4236
  217MOL0     C29183   9.283   4.351  10.475  0.7482 -0.3010  0.6236
  217MOL0     O29184   9.167   4.439  10.470  0.5341  0.1562  0.8417
  217MOL0     C29185   9.062   4.394  10.388 -0.7270  0.0674 -0.3626
  217MOL0     C29186   8.931   4.425  10.414  1.0273 -0.4846 -0.2827
  217MOL0     C29187   8.823   4.381  10.335  0.6079 -0.2756  0.3386
  217MOL0     C29188   8.679   4.431  10.365  0.4145 -0.4085  0.3159
  217MOL0     C29189   8.851   4.285  10.224 -0.1683 -0.2137  0.0711
  217MOL0     C29190   8.744   4.240  10.136 -0.7661  0.9442  0.5250
  217MOL0     O29191   8.770   4.245  10.000  0.8883 -0.1861  0.3124
  217MOL0     C29192   8.742   4.139   9.918  0.1041  0.0656  0.5561
  217MOL0     C29193   8.664   4.156   9.803 -1.0465 -0.4973  0.2250
  217MOL0     C29194   8.629   4.042   9.730  0.8308 -0.1126  0.0177
  217MOL0     C29195   8.658   3.916   9.778  0.0694 -0.5629  0.9150
  217MOL0     O29196   8.606   3.796   9.731 -0.0128 -0.6325 -0.3231
  217MOL0     C29197   8.495   3.804   9.636 -0.4622 -0.2455 -0.0615
  217MOL0     C29198   8.564   3.812   9.493  0.2322  0.8592 -0.9018
  217MOL0     C29199   8.469   3.826   9.380 -0.2494  0.1878 -0.3897
  217MOL0     C29200   8.388   3.702   9.359 -0.0237  0.1070  0.9427
  217MOL0     C29201   8.312   3.711   9.211  0.5054 -0.3354 -0.3723
  217MOL0     C29202   8.192   3.612   9.200 -0.3181 -0.9378 -0.6746
  217MOL0     C29203   8.151   3.581   9.056 -0.4189  0.1574  0.2364
  217MOL0     C29204   8.209   3.451   9.008 -0.1786  0.7426 -0.0016
  217MOL0    Cl29205   8.124   3.394   8.858  0.3228  0.1324  0.2091
  217MOL0     C29206   8.742   3.900   9.890  0.0243  0.4800  0.0589
  217MOL0     C29207   8.781   4.013   9.953  0.1143  0.6248 -1.2583
  217MOL0     O29208   8.645   4.188  10.185  0.7164  0.1225  0.9443
  217MOL0     C29209   8.985   4.250  10.193 -1.1603  0.2376  0.4255
  217MOL0     C29210   9.085   4.314  10.268 -0.6126 -0.3867  0.2880
  217MOL0     N29211   9.413   4.255  10.972 -0.3088 -0.7368 -0.2735
  217MOL0     N29212   9.514   4.252  11.047  0.0422  0.0311 -0.1983
  217MOL0     C29213   9.528   4.074  10.418  0.1951 -1.1780 -0.4476
  217MOL0     C29214   9.449   4.022  10.315  0.2979  0.8459 -0.5873
  217MOL0     C29215   9.352   3.928   9.895 -0.3284 -0.0124  0.3522
  217MOL0     C29216   9.411   3.851   9.792 -0.1332 -0.1732 -0.4207
  217MOL0     C29217   9.327   3.802   9.696  0.2082  0.2793  0.4586
  217MOL0     C29218   9.185   3.810   9.708 -1.4195 -0.5234 -0.2811
  217MOL0     O29219   9.104   3.753   9.619  0.4810 -0.0331 -0.0202
  217MOL0     C29220   8.967   3.719   9.653 -0.8317 -0.2967  0.4460
  217MOL0     C29221   8.956   3.636   9.782  0.2280  0.6236 -0.5616
  217MOL0     C29222   9.010   3.496   9.772  0.2944  0.2934 -0.3391
  217MOL0     C29223   8.946   3.407   9.870  0.8417 -0.5534  0.3602
  217MOL0     C29224   9.050   3.328   9.937 -0.2507  0.9727 -0.5873
  217MOL0     C29225   9.132   3.261   9.994 -0.1219 -0.3337  0.2388
  217MOL0     C29226   9.135   3.901   9.803 -0.1863  0.2082  0.2155
  217MOL0     C29227   9.217   3.949   9.900  0.2088 -0.0797 -0.1346
  217MOL0     H29228   9.480   4.305  10.119 -1.1608 -1.1366 -1.9575
  217MOL0     H29229   9.623   4.377  10.325  1.4149 -0.9947  0.9531
  217MOL0     H29230   9.780   4.380  10.473  0.5636 -0.6789 -0.8429
  217MOL0     H29231   9.636   4.427  10.570  0.3535 -0.6051 -0.9344
  217MOL0     H29232   9.715   4.327  10.759 -0.2059 -1.8300 -2.4792
  217MOL0     H29233   9.879   4.296  10.695  0.4508  1.0792 -1.5238
  217MOL0     H29234   9.878   4.568  10.659  0.6795  1.1333  1.6795
  217MOL0     H29235   9.743   4.567  10.754 -0.2557  0.2116 -0.2820
  217MOL0     H29236  10.036   4.524  10.808  0.0845 -3.6336  0.8970
  217MOL0     H29237   9.921   4.622  10.908 -0.2444  0.3413 -1.0905
  217MOL0     H29238   9.953   4.321  10.884 -2.6307 -0.7333  0.7924
  217MOL0     H29239  10.030   4.412  11.013  3.0915  1.9074 -2.9434
  217MOL0     H29240   9.830   4.460  11.135 -2.6985 -1.0623  2.1132
  217MOL0     H29241   9.737   4.424  10.997  0.8652 -1.9030 -1.1436
  217MOL0     H29242   9.915   4.213  11.117  0.3586 -0.1508 -0.7220
  217MOL0     H29243   9.765   4.254  11.191  1.1379 -0.2150  1.3416
  217MOL0     H29244   9.745   4.050  11.042  1.5875 -1.1648 -0.6071
  217MOL0     H29245   9.801   4.154  10.908 -0.4735 -3.6200  0.2630
  217MOL0     H29246   9.574   4.020  10.810 -4.6591 -2.1188 -1.6983
  217MOL0     H29247   9.336   4.065  10.685  0.3829  1.0837 -0.3916
  217MOL0     H29248   9.218   4.085  10.817  0.0175  0.8018  0.5519
  217MOL0     H29249   9.180   4.309  10.774  0.5444  0.3779  0.0117
  217MOL0     H29250   9.144   4.225  10.629 -0.5467  2.2936 -0.0160
  217MOL0     H29251   9.432   4.309  10.632  0.6003 -1.9760 -3.6848
  217MOL0     H29252   9.321   4.435  10.668 -0.2573 -1.1881  2.6683
  217MOL0     H29253   9.270   4.253  10.427  2.5838 -1.0151  1.4794
  217MOL0     H29254   9.359   4.407  10.420 -0.3101 -0.1396 -0.7269
  217MOL0     H29255   8.905   4.489  10.497 -2.1040 -1.2103 -0.6053
  217MOL0     H29256   8.684   4.524  10.424  0.8233  0.6840 -1.3701
  217MOL0     H29257   8.624   4.447  10.271 -0.1124  1.0850  0.8391
  217MOL0     H29258   8.634   4.354  10.428  1.0602 -2.1796 -1.3104
  217MOL0     H29259   8.615   4.245   9.766  1.1656  0.1758 -1.2807
  217MOL0     H29260   8.570   4.056   9.640 -3.8950 -2.4629  2.4096
  217MOL0     H29261   8.437   3.712   9.644 -0.2949 -0.4418 -1.0315
  217MOL0     H29262   8.423   3.882   9.663  2.1356  2.0300  0.7958
  217MOL0     H29263   8.624   3.903   9.501 -1.5832  1.9793  1.9860
  217MOL0     H29264   8.632   3.727   9.492  1.2625  1.3559  3.4651
  217MOL0     H29265   8.536   3.823   9.294  0.6824 -1.0272  0.3420
  217MOL0     H29266   8.412   3.919   9.383 -0.6319 -0.0405 -0.4940
  217MOL0     H29267   8.445   3.608   9.369  1.8428  1.1015  0.1606
  217MOL0     H29268   8.308   3.689   9.433  0.1572 -0.9641  0.9669
  217MOL0     H29269   8.381   3.704   9.127 -0.2015 -1.3888 -0.8930
  217MOL0     H29270   8.277   3.813   9.195  2.6512  0.6986  1.1732
  217MOL0     H29271   8.208   3.518   9.255  1.4003  0.6461  1.7194
  217MOL0     H29272   8.102   3.664   9.232 -1.5412 -0.9551 -3.7122
  217MOL0     H29273   8.195   3.654   8.988 -3.2143 -0.3883 -2.3351
  217MOL0     H29274   8.043   3.590   9.055 -0.2671  2.3468 -0.3421
  217MOL0     H29275   8.203   3.379   9.090  3.2165  0.4831  0.1301
  217MOL0     H29276   8.315   3.471   8.989 -0.0813  0.8815  0.6707
  217MOL0     H29277   8.781   3.804   9.922  0.5019 -0.3594 -2.7204
  217MOL0     H29278   8.843   3.990  10.040  0.6957 -0.7949 -2.0153
  217MOL0     H29279   9.005   4.174  10.117  1.6940  0.8467  0.4333
  217MOL0     H29280   9.183   4.291  10.229 -1.8688  0.2788 -3.7550
  217MOL0     H29281   9.537   4.018  10.510  0.4337 -1.7336 -0.8076
  217MOL0     H29282   9.416   3.919  10.311  0.0937  0.9415 -1.6676
  217MOL0     H29283   9.518   3.830   9.793  0.1043  0.8908  1.7558
  217MOL0     H29284   9.366   3.744   9.613 -1.3056  0.6324 -0.5363
  217MOL0     H29285   8.918   3.814   9.676 -0.5164 -0.7137  3.2732
  217MOL0     H29286   8.922   3.676   9.564 -1.0762  0.3678  0.2403
  217MOL0     H29287   8.849   3.624   9.796 -0.1489  0.3370 -3.1748
  217MOL0     H29288   8.997   3.690   9.868 -2.1956 -0.1039  1.1569
  217MOL0     H29289   9.119   3.496   9.773  0.3875 -3.0918 -0.9700
  217MOL0     H29290   8.976   3.460   9.674 -1.9260 -3.7421  1.6879
  217MOL0     H29291   8.872   3.347   9.816 -1.8951  2.9721 -0.1989
  217MOL0     H29292   8.890   3.459   9.948 -3.3655 -3.4890 -0.3198
  217MOL0     H29293   9.205   3.220  10.061 -2.1595 -1.9984  1.5834
  217MOL0     H29294   9.033   3.936   9.803  0.5845  2.6665  0.1918
  217MOL0     H29295   9.180   4.018   9.976  2.4576  2.1787 -0.9471
  218MOL0     O29296   3.994   8.780   1.420  0.6535  0.3101  0.7356
  218MOL0     C29297   4.079   8.694   1.389  0.5133  0.3849  0.2414
  218MOL0     O29298   4.216   8.721   1.359  0.1389  0.3220  0.1236
  218MOL0     C29299   4.243   8.852   1.329 -0.6479  0.0232 -0.1655
  218MOL0     C29300   4.350   8.918   1.390  1.7331  0.0731  0.4822
  218MOL0     C29301   4.388   9.043   1.354  0.2281  0.1497  0.2426
  218MOL0     C29302   4.336   9.107   1.238 -0.3728 -0.4860 -0.5519
  218MOL0     O29303   4.390   9.229   1.209  0.0061 -0.3664 -0.1421
  218MOL0     C29304   4.302   9.320   1.150 -0.1196 -0.0573 -0.8020
  218MOL0     C29305   4.350   9.456   1.152 -1.1654  0.4234 -0.3058
  218MOL0     C29306   4.504   9.464   1.124 -0.0244 -0.1232 -0.1824
  218MOL0     C29307   4.601   9.450   1.242  0.6470 -0.5186  0.5347
  218MOL0     C29308   4.733   9.500   1.198 -0.1559  0.1524  0.4413
  218MOL0     C29309   4.786   9.425   1.073 -0.2067  0.0182 -1.1124
  218MOL0     C29310   4.795   9.273   1.087  0.7469  0.3230 -0.7800
  218MOL0     C29311   4.853   9.218   0.959  0.0191 -0.2568 -0.1944
  218MOL0     N29312   4.772   9.241   0.841  0.2702 -0.1252  0.3669
  218MOL0     C29313   4.650   9.178   0.822  0.1043  0.3336 -0.0505
  218MOL0     C29314   4.632   9.186   0.692 -0.1303  0.5305  0.6505
  218MOL0     C29315   4.519   9.126   0.610  0.6104  0.4573  0.2990
  218MOL0     C29316   4.401   9.080   0.695  0.4185  0.1968 -0.0212
  218MOL0     C29317   4.288   9.008   0.626  0.1922  0.0514  0.8714
  218MOL0     C29318   4.156   8.989   0.707 -0.4888 -0.1795 -1.0529
  218MOL0     O29319   4.193   8.924   0.825 -0.7382  0.2655 -0.4878
  218MOL0     C29320   4.179   8.787   0.842  0.4745 -0.2692  0.0363
  218MOL0     C29321   4.269   8.724   0.926  0.3774  0.1598  0.3622
  218MOL0     C29322   4.265   8.586   0.944 -0.5306  0.2825 -0.8632
  218MOL0     C29323   4.378   8.530   1.022  0.9161  1.1547 -1.0003
  218MOL0     C29324   4.162   8.503   0.878  0.3651  0.7043 -0.0523
  218MOL0     C29325   4.141   8.355   0.895 -0.6879 -0.1696 -0.8828
  218MOL0     O29326   4.097   8.286   0.785 -0.9399  0.3321  0.0629
  218MOL0     C29327   4.098   8.146   0.781 -0.0973  0.3495  0.1716
  218MOL0     C29328   4.118   8.081   0.653  0.1072  0.1624 -0.1620
  218MOL0     C29329   4.117   7.940   0.647  0.3325  1.1082 -0.9699
  218MOL0     C29330   4.102   7.860   0.761  0.8971  0.2120  0.2307
  218MOL0     O29331   4.081   7.726   0.737 -0.7440 -0.7693 -0.6272
  218MOL0     C29332   3.945   7.701   0.734  0.6543 -0.0862 -0.7513
  218MOL0     C29333   3.934   7.552   0.781  0.1312  0.0624  0.3789
  218MOL0     C29334   3.820   7.461   0.716 -0.6689 -1.2267  0.0683
  218MOL0     C29335   3.868   7.414   0.581  0.2128  0.2197  0.4887
  218MOL0     C29336   3.771   7.311   0.520  0.2728  0.6659  0.5589
  218MOL0     C29337   3.640   7.359   0.463  0.1109  0.4590  0.3861
  218MOL0     C29338   3.614   7.309   0.321 -0.2296 -0.0403  0.6533
  218MOL0     C29339   3.505   7.385   0.245 -0.4937  0.0840 -0.1551
  218MOL0    Cl29340   3.492   7.321   0.075 -0.0754  0.2997 -0.3377
  218MOL0     C29341   4.083   7.919   0.887 -0.2296  0.7602  0.0150
  218MOL0     C29342   4.083   8.064   0.894 -0.2200 -1.1528  0.0807
  218MOL0     O29343   4.169   8.305   1.008  0.5448 -0.0772  0.4111
  218MOL0     C29344   4.072   8.570   0.793 -0.6744  0.0293  0.5191
  218MOL0     C29345   4.079   8.708   0.778  0.2867 -0.5445 -0.1257
  218MOL0     N29346   4.742   9.247   0.637  0.0581  0.1905  0.6720
  218MOL0     N29347   4.826   9.280   0.727  0.7637  1.2426  0.8842
  218MOL0     C29348   4.240   9.032   1.163  0.5195 -0.2152  0.6615
  218MOL0     C29349   4.200   8.895   1.208 -0.2862  0.2214 -0.6433
  218MOL0     C29350   4.032   8.553   1.390  0.3017  0.6099 -0.4043
  218MOL0     C29351   3.924   8.519   1.478  1.3156 -1.4670  0.1412
  218MOL0     C29352   3.874   8.384   1.481 -0.1597  0.9330 -0.5344
  218MOL0     C29353   3.930   8.288   1.404 -0.7866 -0.6295  0.1310
  218MOL0     O29354   3.889   8.157   1.432 -0.1323  0.1174  0.1415
  218MOL0     C29355   3.973   8.047   1.389  1.5811 -0.3475  0.1220
  218MOL0     C29356   4.102   8.046   1.462 -0.7306 -0.8815  0.7183
  218MOL0     C29357   4.207   7.984   1.372 -0.4815 -0.0189 -0.7261
  218MOL0     C29358   4.329   7.972   1.465 -0.3284  0.1133  0.5625
  218MOL0     C29359   4.438   7.877   1.406  0.9438 -0.2512  0.1615
  218MOL0     C29360   4.507   7.795   1.355  0.5246 -0.5661 -0.9009
  218MOL0     C29361   4.032   8.326   1.321 -0.1276  0.7861 -0.2257
  218MOL0     C29362   4.083   8.455   1.304 -0.7128 -0.5810  0.5083
  218MOL0     H29363   4.401   8.865   1.469  1.5069 -0.9577 -0.0470
  218MOL0     H29364   4.454   9.098   1.420 -1.4122  1.7881  0.6026
  218MOL0     H29365   4.271   9.290   1.049  2.2349  1.0914 -1.9600
  218MOL0     H29366   4.206   9.322   1.202  0.6035  2.6774  0.6205
  218MOL0     H29367   4.313   9.518   1.070 -0.5883 -0.1117 -0.9885
  218MOL0     H29368   4.336   9.498   1.252  1.8751 -1.8285  1.2471
  218MOL0     H29369   4.517   9.391   1.043  1.9506 -0.5437  0.4777
  218MOL0     H29370   4.518   9.565   1.083  1.0644  1.3828  3.4763
  218MOL0     H29371   4.564   9.516   1.321 -0.7329 -1.3766  0.6502
  218MOL0     H29372   4.599   9.348   1.283  4.5580 -0.3839  1.4558
  218MOL0     H29373   4.729   9.607   1.175  4.8895  0.1531 -1.8204
  218MOL0     H29374   4.809   9.491   1.276  1.6626 -1.9855 -1.4145
  218MOL0     H29375   4.736   9.445   0.978 -0.0002 -2.1117 -1.7431
  218MOL0     H29376   4.885   9.468   1.056  1.4632 -2.9552  0.2544
  218MOL0     H29377   4.860   9.256   1.173 -2.7280  0.0128  2.0565
  218MOL0     H29378   4.695   9.230   1.104  0.5068  0.4183 -1.8875
  218MOL0     H29379   4.876   9.112   0.967  1.3922 -0.0100 -0.6882
  218MOL0     H29380   4.950   9.266   0.947  0.4161 -0.2660  2.4513
  218MOL0     H29381   4.588   9.128   0.897  1.0151  0.1423  0.5956
  218MOL0     H29382   4.488   9.193   0.529  0.5884 -2.5917 -2.4379
  218MOL0     H29383   4.567   9.035   0.573  4.9272  1.5802  2.4928
  218MOL0     H29384   4.361   9.167   0.749  0.3088  0.2120 -0.1284
  218MOL0     H29385   4.438   9.008   0.769  2.5016 -1.9955 -2.9836
  218MOL0     H29386   4.325   8.909   0.599  1.4095  0.0530  2.4038
  218MOL0     H29387   4.259   9.069   0.540 -0.2109 -1.7554 -0.3322
  218MOL0     H29388   4.086   8.939   0.638 -1.0195  1.8666 -2.0562
  218MOL0     H29389   4.121   9.089   0.733  0.0024  1.2355 -5.1387
  218MOL0     H29390   4.347   8.786   0.969 -1.5178  2.4628  0.6835
  218MOL0     H29391   4.468   8.536   0.960  0.5405  0.4890 -1.6286
  218MOL0     H29392   4.404   8.591   1.109 -2.2154 -1.2456  1.9125
  218MOL0     H29393   4.375   8.428   1.061  2.0313  1.1876 -0.8014
  218MOL0     H29394   4.137   8.136   0.562 -3.6769 -1.6906 -2.3047
  218MOL0     H29395   4.145   7.890   0.555  1.6878 -1.2757  0.6342
  218MOL0     H29396   3.889   7.752   0.813  2.0130 -0.7016  0.6565
  218MOL0     H29397   3.906   7.702   0.632 -2.0782 -1.7363  0.1722
  218MOL0     H29398   4.025   7.495   0.765 -0.0049  0.6081 -3.6205
  218MOL0     H29399   3.918   7.572   0.887 -1.2773  2.2248 -0.1546
  218MOL0     H29400   3.728   7.520   0.707 -1.0547 -1.7942  0.2806
  218MOL0     H29401   3.799   7.373   0.777  1.3484 -0.7210  1.5868
  218MOL0     H29402   3.876   7.488   0.501 -2.7253  0.1177 -0.0205
  218MOL0     H29403   3.965   7.368   0.604  0.2254  0.1815  0.3597
  218MOL0     H29404   3.740   7.246   0.603 -1.0059  0.3107 -0.1730
  218MOL0     H29405   3.824   7.251   0.446  0.2495  0.0030  1.0638
  218MOL0     H29406   3.558   7.329   0.529 -2.4168  0.8610 -2.3655
  218MOL0     H29407   3.634   7.468   0.450 -1.4441  0.6834  2.5346
  218MOL0     H29408   3.586   7.204   0.337  1.7641 -0.8645 -0.7522
  218MOL0     H29409   3.708   7.314   0.264 -0.4341  1.2965  0.4007
  218MOL0     H29410   3.508   7.495   0.241 -1.3524  0.1162 -0.0661
  218MOL0     H29411   3.419   7.360   0.307 -0.6436  4.9052  2.0854
  218MOL0     H29412   4.057   7.869   0.980  0.2964  0.7889  0.1838
  218MOL0     H29413   4.043   8.109   0.983 -3.0192  1.9412 -2.5026
  218MOL0     H29414   4.008   8.502   0.737  0.2368 -0.2714 -0.1719
  218MOL0     H29415   4.014   8.765   0.712  0.4909 -2.1953 -1.8557
  218MOL0     H29416   4.201   9.061   1.066 -0.0282  2.2387  1.5439
  218MOL0     H29417   4.129   8.836   1.152 -0.7619  0.1231  0.0503
  218MOL0     H29418   3.879   8.593   1.543  1.8190 -1.6103  0.6648
  218MOL0     H29419   3.789   8.369   1.547  1.6039  0.4427  1.7672
  218MOL0     H29420   3.907   7.960   1.395 -0.5960  1.1320 -0.9475
  218MOL0     H29421   3.999   8.059   1.283  5.1771  0.3380  0.9501
  218MOL0     H29422   4.084   7.998   1.559 -3.0250  0.1540  0.8741
  218MOL0     H29423   4.139   8.148   1.477 -0.7687 -0.2303 -2.7802
  218MOL0     H29424   4.228   8.042   1.282  2.5021 -0.8746 -0.7127
  218MOL0     H29425   4.161   7.888   1.347 -1.3887  0.1748  0.1773
  218MOL0     H29426   4.302   7.926   1.561  2.3957 -3.9470 -0.3319
  218MOL0     H29427   4.378   8.069   1.474  0.4643 -0.3827  1.8987
  218MOL0     H29428   4.569   7.725   1.303 -1.9713 -0.2751 -4.6847
  218MOL0     H29429   4.076   8.264   1.245 -2.2254 -0.7290 -0.2832
  218MOL0     H29430   4.160   8.477   1.231 -1.3109  0.6517  0.2237
  219MOL0     O29431   8.012   7.964   0.413  0.1451  1.0714 -0.1251
  219MOL0     C29432   7.950   8.008   0.509  0.1671  0.5019  0.1346
  219MOL0     O29433   7.898   7.938   0.607  0.4344  0.1392 -0.9220
  219MOL0     C29434   7.893   7.799   0.614  0.4817  0.3744  1.1176
  219MOL0     C29435   8.004   7.716   0.596 -0.1020  0.1398  0.5576
  219MOL0     C29436   7.987   7.579   0.614  0.4206 -0.0062 -0.2701
  219MOL0     C29437   7.868   7.519   0.658  0.1037 -0.6824 -0.2794
  219MOL0     O29438   7.873   7.382   0.686 -0.4041  0.2038  0.3322
  219MOL0     C29439   7.800   7.325   0.798  0.7575 -0.4669  0.0670
  219MOL0     C29440   7.668   7.261   0.771  0.4304  0.8366  0.2463
  219MOL0     C29441   7.690   7.159   0.659  0.3846  0.1931  0.3745
  219MOL0     C29442   7.549   7.104   0.604  0.1470 -0.2769 -0.4974
  219MOL0     C29443   7.477   7.017   0.701 -0.1644  0.4771  0.3801
  219MOL0     C29444   7.325   6.994   0.664  0.1607 -0.6922  0.2623
  219MOL0     C29445   7.255   6.912   0.774 -0.3569 -0.1304  0.4194
  219MOL0     C29446   7.230   6.974   0.911  0.1430 -0.7191  0.2772
  219MOL0     N29447   7.285   7.110   0.945 -0.6899 -0.4304  0.0353
  219MOL0     C29448   7.244   7.228   0.890 -0.0799  0.0384  0.4728
  219MOL0     C29449   7.281   7.319   0.984  1.2111  0.2987  0.6203
  219MOL0     C29450   7.237   7.456   0.968  0.0162  0.0731 -0.4850
  219MOL0     C29451   7.318   7.557   1.056  0.6500 -0.5519 -0.2383
  219MOL0     C29452   7.458   7.576   0.985  0.6660  0.9029 -0.5842
  219MOL0     C29453   7.531   7.683   1.064 -0.3764  0.6186 -0.1684
  219MOL0     O29454   7.671   7.699   1.017  0.0194 -0.0698 -0.4695
  219MOL0     C29455   7.765   7.609   1.046  1.1965  0.3048  0.3339
  219MOL0     C29456   7.740   7.495   1.120 -0.7865 -0.5838 -0.4009
  219MOL0     C29457   7.842   7.397   1.149  0.2611  1.1683 -0.1732
  219MOL0     C29458   7.789   7.273   1.222  0.1933 -0.2544 -0.2079
  219MOL0     C29459   7.971   7.431   1.101 -0.8122  0.4846 -0.1105
  219MOL0     C29460   8.079   7.331   1.098 -0.3377  0.4368  0.1788
  219MOL0     O29461   8.201   7.379   1.077 -0.4556 -0.2654  0.4964
  219MOL0     C29462   8.314   7.302   1.095  0.4088 -0.3459 -0.2117
  219MOL0     C29463   8.394   7.247   0.993  0.2961  0.5591 -0.0682
  219MOL0     C29464   8.520   7.189   1.014  0.5117  0.5858 -0.8529
  219MOL0     C29465   8.564   7.176   1.148 -0.7125  0.2553 -0.2910
  219MOL0     O29466   8.685   7.119   1.168  0.7768 -0.7074  0.1411
  219MOL0     C29467   8.708   7.072   1.307 -0.3990 -1.3666  0.3807
  219MOL0     C29468   8.779   7.179   1.401 -0.3324 -0.0891 -0.1854
  219MOL0     C29469   8.883   7.260   1.323 -0.2077  0.0371 -0.0316
  219MOL0     C29470   8.984   7.169   1.226  0.8873 -0.6138 -0.2998
  219MOL0     C29471   9.093   7.245   1.161 -0.0034  0.4094 -0.3669
  219MOL0     C29472   9.173   7.142   1.080 -0.1685  0.4286 -0.2724
  219MOL0     C29473   9.280   7.200   0.986  0.4199  0.6604  0.3474
  219MOL0     C29474   9.242   7.280   0.859 -0.1398  0.3024 -1.1319
  219MOL0    Cl29475   9.382   7.259   0.728  0.0253  0.0083 -0.3470
  219MOL0     C29476   8.481   7.232   1.242  0.7026 -0.2173 -0.3889
  219MOL0     C29477   8.360   7.291   1.217  0.2474  0.4988 -0.7697
  219MOL0     O29478   8.060   7.210   1.125  0.3945 -0.1736  0.8658
  219MOL0     C29479   7.989   7.544   1.023 -0.1006 -0.1837 -0.3491
  219MOL0     C29480   7.886   7.627   0.992 -0.2650  0.2403 -0.0719
  219MOL0     N29481   7.344   7.256   1.091  0.1600  0.0618 -0.6730
  219MOL0     N29482   7.358   7.132   1.062  1.5655 -0.3456  0.3056
  219MOL0     C29483   7.753   7.603   0.672  0.3051  0.0609 -0.2835
  219MOL0     C29484   7.767   7.737   0.646  0.3328  0.3195 -0.2260
  219MOL0     C29485   7.934   8.148   0.512 -0.0840  0.3049  0.6222
  219MOL0     C29486   7.927   8.211   0.640  0.3805 -0.2089 -0.6198
  219MOL0     C29487   7.923   8.351   0.652 -0.2789  1.0717  0.7745
  219MOL0     C29488   7.943   8.424   0.533  0.0916  0.3208 -0.1766
  219MOL0     O29489   7.946   8.561   0.547 -0.0288 -0.8101 -0.0641
  219MOL0     C29490   8.029   8.640   0.460  1.0315 -0.2652 -0.3648
  219MOL0     C29491   7.930   8.729   0.372 -0.0030 -0.1571 -0.5616
  219MOL0     C29492   8.011   8.857   0.316  0.8119  0.0110  0.2241
  219MOL0     C29493   7.945   8.911   0.184 -0.0933 -1.2704 -0.2662
  219MOL0     C29494   7.804   8.942   0.212  0.3928 -0.1218 -0.6586
  219MOL0     C29495   7.694   8.969   0.251  0.9719 -0.0968 -0.3048
  219MOL0     C29496   7.948   8.366   0.405 -0.4132  0.9576 -0.7807
  219MOL0     C29497   7.932   8.225   0.398 -0.5023  0.1667 -1.1435
  219MOL0     H29498   8.097   7.763   0.568 -0.9366  2.9966  2.2164
  219MOL0     H29499   8.078   7.522   0.595  1.5428 -0.2551  4.4159
  219MOL0     H29500   7.862   7.248   0.845  1.5291  0.4753  0.6151
  219MOL0     H29501   7.788   7.411   0.865 -1.9974 -1.1607  0.6262
  219MOL0     H29502   7.651   7.195   0.857 -1.3738 -1.1777 -1.5396
  219MOL0     H29503   7.584   7.329   0.755 -0.9444 -0.5724  1.2091
  219MOL0     H29504   7.736   7.205   0.571 -2.3936 -0.1936 -1.4255
  219MOL0     H29505   7.752   7.086   0.711 -1.4104  1.2339  4.3733
  219MOL0     H29506   7.492   7.190   0.568  0.5746 -0.5940 -1.9664
  219MOL0     H29507   7.571   7.043   0.516 -2.7189 -1.1465 -0.7219
  219MOL0     H29508   7.540   6.928   0.701  1.8030  1.8212  0.7327
  219MOL0     H29509   7.480   7.051   0.805 -1.4663 -3.4723  1.8949
  219MOL0     H29510   7.270   7.087   0.655 -1.2208 -1.3647  1.4698
  219MOL0     H29511   7.323   6.947   0.565 -2.4600 -3.3717  1.4442
  219MOL0     H29512   7.151   6.898   0.742 -0.5360  0.1217  0.8951
  219MOL0     H29513   7.309   6.817   0.785  4.0814  1.9552 -1.0606
  219MOL0     H29514   7.261   6.902   0.987  1.3384 -0.7668 -0.2454
  219MOL0     H29515   7.121   6.980   0.922 -0.3708  1.4713 -3.9547
  219MOL0     H29516   7.177   7.246   0.807  0.7292 -1.3787 -0.5398
  219MOL0     H29517   7.253   7.492   0.866  2.0314  0.0323 -0.2086
  219MOL0     H29518   7.132   7.467   0.997 -0.4357  0.4696 -2.1276
  219MOL0     H29519   7.330   7.524   1.159  0.3135  2.1999  0.7597
  219MOL0     H29520   7.261   7.651   1.057  3.3382  1.1774  0.0403
  219MOL0     H29521   7.445   7.602   0.880 -1.1886 -3.4169 -1.6619
  219MOL0     H29522   7.500   7.475   0.989 -4.3092 -1.4695 -0.4654
  219MOL0     H29523   7.524   7.642   1.165 -4.1883 -0.3034 -0.6649
  219MOL0     H29524   7.473   7.775   1.056 -1.4863 -0.2296 -3.7864
  219MOL0     H29525   7.643   7.461   1.156 -0.7081 -0.9205 -0.5021
  219MOL0     H29526   7.752   7.209   1.141  2.5901 -0.5945 -1.1070
  219MOL0     H29527   7.866   7.207   1.264 -3.3376 -3.0481  2.5713
  219MOL0     H29528   7.717   7.283   1.304  1.1374 -1.4263  0.8058
  219MOL0     H29529   8.339   7.244   0.899  1.1771 -1.0888 -0.5713
  219MOL0     H29530   8.579   7.142   0.936 -0.9293  0.2168 -1.7711
  219MOL0     H29531   8.618   7.044   1.363 -1.6927  0.2467 -0.7882
  219MOL0     H29532   8.756   6.974   1.298 -1.1324 -1.4940 -3.5873
  219MOL0     H29533   8.708   7.252   1.440 -2.1707 -1.4239 -0.8877
  219MOL0     H29534   8.837   7.133   1.482 -0.2121 -0.6071 -0.5592
  219MOL0     H29535   8.929   7.319   1.403 -5.1173 -0.8846  3.9429
  219MOL0     H29536   8.833   7.336   1.263 -0.7996 -0.3554 -0.0472
  219MOL0     H29537   9.024   7.093   1.293 -0.3118 -1.6557 -0.7300
  219MOL0     H29538   8.918   7.118   1.155  3.3851 -1.5792 -2.0402
  219MOL0     H29539   9.146   7.299   1.240  1.1626  1.1692 -1.6301
  219MOL0     H29540   9.053   7.315   1.086  0.8079 -1.5076 -2.7167
  219MOL0     H29541   9.212   7.066   1.148  0.5940  2.4536  1.6951
  219MOL0     H29542   9.100   7.100   1.011 -1.2105  0.1295  0.9723
  219MOL0     H29543   9.322   7.107   0.946 -0.6028 -0.0926  0.9766
  219MOL0     H29544   9.356   7.253   1.045  1.4863  2.3787 -2.3779
  219MOL0     H29545   9.235   7.386   0.882  2.1611  0.4600 -0.9123
  219MOL0     H29546   9.141   7.252   0.828 -0.0419 -0.7754 -0.5564
  219MOL0     H29547   8.498   7.235   1.350 -2.0642  3.4925  0.1270
  219MOL0     H29548   8.295   7.323   1.298  0.0678 -1.3975 -0.1104
  219MOL0     H29549   8.086   7.575   0.987  0.1188 -1.7200 -1.1578
  219MOL0     H29550   7.905   7.711   0.927 -0.7613  0.9324  0.6645
  219MOL0     H29551   7.658   7.560   0.701 -0.7002 -0.5940 -4.0048
  219MOL0     H29552   7.682   7.805   0.654  0.3859  0.4675 -0.8606
  219MOL0     H29553   7.932   8.147   0.728  0.7331 -1.8355 -1.7903
  219MOL0     H29554   7.917   8.400   0.748  3.7283 -0.6359  2.1157
  219MOL0     H29555   8.089   8.708   0.521  0.8466 -1.6457  1.4347
  219MOL0     H29556   8.101   8.589   0.395  3.6885  0.4740  1.8110
  219MOL0     H29557   7.839   8.758   0.426 -2.9866 -3.0670 -3.5661
  219MOL0     H29558   7.908   8.670   0.283  0.5848  1.8153 -2.0878
  219MOL0     H29559   8.119   8.845   0.304  1.0423 -0.8522  2.6317
  219MOL0     H29560   7.993   8.932   0.393 -0.3435  0.5048 -0.5024
  219MOL0     H29561   7.957   8.836   0.105  1.1372 -1.3313 -0.0532
  219MOL0     H29562   7.993   9.001   0.144 -1.8445 -0.7563 -1.2920
  219MOL0     H29563   7.599   8.973   0.299  0.9065 -0.7175 -0.3726
  219MOL0     H29564   7.948   8.416   0.309  2.7081 -2.8905 -3.0930
  219MOL0     H29565   7.956   8.176   0.304  2.8715 -1.6573  0.4911
  220MOL0     O29566   7.233   2.508   0.872  1.2175 -0.2597 -0.1541
  220MOL0     C29567   7.116   2.550   0.888  0.8271  1.0142  0.5230
  220MOL0     O29568   7.013   2.519   0.808 -0.4077  0.1391 -0.5605
  220MOL0     C29569   7.039   2.430   0.705 -0.1924  0.4348 -1.0580
  220MOL0     C29570   7.116   2.464   0.589  0.0469  0.2179  0.4558
  220MOL0     C29571   7.117   2.366   0.488  0.1700 -0.2290 -0.7160
  220MOL0     C29572   7.055   2.242   0.508  0.7752 -0.2477 -0.0353
  220MOL0     O29573   7.068   2.157   0.402  0.5387 -0.2320 -0.3760
  220MOL0     C29574   7.029   2.014   0.408 -0.1478  0.0733 -0.7366
  220MOL0     C29575   6.877   2.007   0.370  0.0561  0.2009  0.0291
  220MOL0     C29576   6.827   1.865   0.322 -0.4163  0.1218 -0.7130
  220MOL0     C29577   6.741   1.861   0.190 -0.1596  0.5855 -0.3473
  220MOL0     C29578   6.812   1.930   0.076  0.1994 -0.1777  0.1400
  220MOL0     C29579   6.939   1.853   0.021  0.4641  0.1115  0.2038
  220MOL0     C29580   7.030   1.928  -0.082  0.1071 -0.2652  0.5178
  220MOL0     C29581   7.101   2.050  -0.037  0.7594 -0.0486 -0.4523
  220MOL0     N29582   7.243   2.026   0.009 -0.1620  0.4488  0.4438
  220MOL0     C29583   7.278   2.055   0.140  0.2075  0.9067 -0.4827
  220MOL0     C29584   7.419   2.047   0.147  0.8241  0.5319 -0.2121
  220MOL0     C29585   7.511   2.065   0.270  0.2010 -0.0906  1.1955
  220MOL0     C29586   7.428   2.061   0.398  0.6936  0.5817  0.2723
  220MOL0     C29587   7.519   2.094   0.515 -0.7057 -0.7526 -0.3487
  220MOL0     C29588   7.437   2.135   0.640  0.3700 -0.2901  1.2555
  220MOL0     O29589   7.348   2.024   0.669 -0.0890 -1.3594 -0.2327
  220MOL0     C29590   7.271   2.034   0.778 -0.4547  0.7652  0.0731
  220MOL0     C29591   7.266   2.145   0.865 -0.4021  1.2818  0.4672
  220MOL0     C29592   7.180   2.132   0.975  0.2441  0.2558  0.1655
  220MOL0     C29593   7.174   2.246   1.061 -0.4843  0.1158 -0.8116
  220MOL0     C29594   7.100   2.017   1.003  0.6755 -0.5413 -0.3244
  220MOL0     C29595   7.026   1.994   1.130  1.0027 -0.0839 -0.0172
  220MOL0     O29596   7.004   1.863   1.168  0.2922 -0.2955  0.1051
  220MOL0     C29597   6.888   1.826   1.235  0.0098 -1.1774  0.6793
  220MOL0     C29598   6.879   1.707   1.313  0.5460  0.4176  0.4371
  220MOL0     C29599   6.766   1.671   1.378 -0.3823  0.0466  0.4048
  220MOL0     C29600   6.644   1.729   1.351  0.4740  0.0752 -0.3844
  220MOL0     O29601   6.524   1.698   1.404  0.2273  0.6955  0.5423
  220MOL0     C29602   6.439   1.620   1.316  0.2131 -0.8692 -1.4028
  220MOL0     C29603   6.445   1.476   1.348 -0.1902 -0.4863  0.0273
  220MOL0     C29604   6.390   1.464   1.491 -1.3591 -0.2920 -0.4661
  220MOL0     C29605   6.349   1.316   1.518  0.8551  0.1696 -0.7911
  220MOL0     C29606   6.480   1.229   1.534 -0.2939  0.2617  0.0125
  220MOL0     C29607   6.439   1.086   1.566 -0.0977 -0.0859 -0.4316
  220MOL0     C29608   6.556   1.015   1.617 -0.3953 -0.1800 -0.3393
  220MOL0     C29609   6.530   0.866   1.656 -0.7175  0.5660 -0.6858
  220MOL0    Cl29610   6.689   0.805   1.723 -0.0466  0.1822  0.1398
  220MOL0     C29611   6.649   1.847   1.278 -0.3259  0.2775  0.1463
  220MOL0     C29612   6.765   1.894   1.220  0.0056 -0.2681 -1.1513
  220MOL0     O29613   6.979   2.091   1.184 -0.1844 -0.6525  0.0715
  220MOL0     C29614   7.113   1.916   0.900  0.1237 -0.8723  0.6966
  220MOL0     C29615   7.201   1.923   0.792 -0.4761 -0.1075 -0.6449
  220MOL0     N29616   7.459   2.018   0.017 -0.5328  1.5287  0.4473
  220MOL0     N29617   7.357   2.012  -0.066  0.9950 -0.2909  0.5285
  220MOL0     C29618   6.983   2.209   0.629 -0.7771 -0.2611  0.4989
  220MOL0     C29619   6.980   2.306   0.726  0.6131 -0.5074 -0.5074
  220MOL0     C29620   7.092   2.617   1.018 -0.7512 -0.0465 -0.5278
  220MOL0     C29621   6.964   2.666   1.040  0.7124 -0.0594  0.2734
  220MOL0     C29622   6.931   2.738   1.153  0.7128 -0.1745  0.3254
  220MOL0     C29623   7.013   2.754   1.261  0.0271 -0.6093 -0.6736
  220MOL0     O29624   6.995   2.849   1.357 -0.0874  0.5668  0.3641
  220MOL0     C29625   6.868   2.863   1.409 -0.1238 -0.5257  1.3749
  220MOL0     C29626   6.874   2.873   1.556  0.3435  0.9090  0.3866
  220MOL0     C29627   6.952   2.999   1.606  0.5733  0.1836  0.1257
  220MOL0     C29628   6.962   2.998   1.761 -0.9020 -1.3340 -0.3952
  220MOL0     C29629   7.043   3.113   1.806 -0.4893 -0.0319 -0.0672
  220MOL0     C29630   7.111   3.207   1.844  0.3869 -0.5997 -0.7692
  220MOL0     C29631   7.143   2.706   1.238 -0.9465  1.0445  0.5799
  220MOL0     C29632   7.187   2.637   1.123  0.2357 -0.6906 -1.0810
  220MOL0     H29633   7.169   2.558   0.593 -2.2476  1.6455 -0.6805
  220MOL0     H29634   7.169   2.389   0.396 -0.0405 -0.5181 -0.9117
  220MOL0     H29635   7.094   1.959   0.339  0.6396 -0.0877  0.1155
  220MOL0     H29636   7.048   1.966   0.505 -2.9146 -0.9754 -0.6112
  220MOL0     H29637   6.824   2.031   0.463 -1.0379 -1.0304 -0.2324
  220MOL0     H29638   6.850   2.085   0.299 -0.6606  2.4068  2.5785
  220MOL0     H29639   6.920   1.811   0.306  1.2528  2.7601 -0.4544
  220MOL0     H29640   6.763   1.818   0.398 -2.3516 -0.2363 -2.4645
  220MOL0     H29641   6.719   1.756   0.172 -1.0310  0.7090 -0.0798
  220MOL0     H29642   6.655   1.926   0.210 -3.5671 -4.2780  3.0866
  220MOL0     H29643   6.734   1.938  -0.001  0.0316  3.0666  0.5354
  220MOL0     H29644   6.839   2.029   0.112 -2.8044  0.9580 -0.4019
  220MOL0     H29645   7.011   1.831   0.100  1.1684 -2.2359 -0.9864
  220MOL0     H29646   6.903   1.758  -0.020  1.4339 -0.7673  1.3052
  220MOL0     H29647   7.103   1.861  -0.129  2.8445  1.8079  1.5776
  220MOL0     H29648   6.962   1.963  -0.160 -0.3141  0.8602  1.3637
  220MOL0     H29649   7.048   2.101   0.044  2.7904 -1.2984  1.8097
  220MOL0     H29650   7.112   2.128  -0.113  2.8714  2.3154  2.0264
  220MOL0     H29651   7.201   2.073   0.214 -0.9082 -3.1583 -0.3912
  220MOL0     H29652   7.597   1.996   0.273  1.1899  1.0257 -0.1195
  220MOL0     H29653   7.549   2.166   0.252 -2.8630  0.9664 -0.0180
  220MOL0     H29654   7.392   1.958   0.403  1.9059  0.1073 -0.2754
  220MOL0     H29655   7.345   2.132   0.399  0.1238 -0.0708  0.5635
  220MOL0     H29656   7.583   2.182   0.498 -0.6915 -0.2962  1.8475
  220MOL0     H29657   7.581   2.007   0.536  1.0768  0.2289 -1.3068
  220MOL0     H29658   7.377   2.224   0.618  1.6408  0.9566  2.5666
  220MOL0     H29659   7.510   2.163   0.717 -0.4061 -1.0969  2.3071
  220MOL0     H29660   7.328   2.232   0.846  2.0701 -0.8008 -1.9102
  220MOL0     H29661   7.244   2.321   1.022  0.6946  0.0026  0.9693
  220MOL0     H29662   7.074   2.290   1.056 -1.6224 -1.7184  2.6705
  220MOL0     H29663   7.193   2.213   1.164 -1.5895 -1.0351 -0.9511
  220MOL0     H29664   6.973   1.653   1.309 -1.0704 -2.6290 -3.5951
  220MOL0     H29665   6.772   1.572   1.423 -0.8487 -1.9448 -3.4553
  220MOL0     H29666   6.334   1.649   1.329  0.3771 -1.1666  1.3223
  220MOL0     H29667   6.441   1.641   1.209 -0.6017  0.4173 -1.1881
  220MOL0     H29668   6.383   1.424   1.275 -2.8750  1.6748  0.5818
  220MOL0     H29669   6.546   1.440   1.332 -0.6067 -1.1828 -1.1626
  220MOL0     H29670   6.313   1.537   1.516 -0.0270  2.4538 -3.6418
  220MOL0     H29671   6.477   1.487   1.553 -0.4214 -0.5758 -1.6149
  220MOL0     H29672   6.278   1.313   1.601 -1.9887  1.7151 -2.9643
  220MOL0     H29673   6.277   1.276   1.445 -0.0716 -2.0335  1.2144
  220MOL0     H29674   6.540   1.272   1.615  0.3618 -2.8778  1.3126
  220MOL0     H29675   6.544   1.240   1.446  1.0544  1.0292  1.0367
  220MOL0     H29676   6.376   1.098   1.655 -1.2460  0.5225 -1.3032
  220MOL0     H29677   6.381   1.040   1.486  2.0694 -0.9141 -1.6278
  220MOL0     H29678   6.588   1.069   1.707  0.1329 -0.9583 -0.0458
  220MOL0     H29679   6.628   1.008   1.535 -0.9987  1.3555 -1.0487
  220MOL0     H29680   6.508   0.804   1.569  0.0176  1.9912 -1.9362
  220MOL0     H29681   6.446   0.861   1.725 -1.1282 -1.9032 -1.2839
  220MOL0     H29682   6.555   1.899   1.295 -0.3038  1.2581 -2.3684
  220MOL0     H29683   6.756   1.988   1.166 -0.9732 -0.7100 -1.8014
  220MOL0     H29684   7.043   1.833   0.896  1.7885 -2.2925 -0.3093
  220MOL0     H29685   7.209   1.845   0.717 -2.3322 -1.4032  0.4244
  220MOL0     H29686   6.924   2.119   0.641 -4.1770  1.7669  0.1910
  220MOL0     H29687   6.932   2.289   0.822  0.7127  2.1812  0.0908
  220MOL0     H29688   6.888   2.658   0.964  0.6810 -1.5974  0.4347
  220MOL0     H29689   6.839   2.796   1.158  1.2815  0.6828  4.6519
  220MOL0     H29690   6.821   2.950   1.363  3.6822 -0.5079 -3.2222
  220MOL0     H29691   6.813   2.771   1.385 -0.1546 -0.2427  0.3401
  220MOL0     H29692   6.926   2.790   1.604 -1.3389  1.5076  3.5147
  220MOL0     H29693   6.770   2.870   1.591  0.2236  0.0844 -0.0055
  220MOL0     H29694   6.888   3.085   1.584 -0.9198 -1.0728 -0.7369
  220MOL0     H29695   7.050   3.019   1.563 -1.2639  0.3370 -4.5527
  220MOL0     H29696   7.014   2.910   1.801 -0.6873 -0.4277  1.3980
  220MOL0     H29697   6.864   3.004   1.811 -0.3260  2.0101  0.5939
  220MOL0     H29698   7.158   3.289   1.893  0.7040  0.9628 -3.4809
  220MOL0     H29699   7.212   2.718   1.321 -0.8637 -1.6821  1.0192
  220MOL0     H29700   7.288   2.599   1.115  1.3386  1.8624 -0.3179
  221MOL0     O29701   5.630   7.063   0.389  0.0704 -0.5514  0.8558
  221MOL0     C29702   5.551   6.971   0.383 -0.1608 -0.7576 -0.7309
  221MOL0     O29703   5.465   6.934   0.489 -0.3638 -0.5121 -0.2248
  221MOL0     C29704   5.501   6.977   0.622  0.3241 -0.8338 -0.0835
  221MOL0     C29705   5.401   7.043   0.698  0.4457 -0.4298  0.0469
  221MOL0     C29706   5.422   7.083   0.834 -0.3295 -0.1106  0.6046
  221MOL0     C29707   5.550   7.060   0.889 -0.8046  0.0213  0.2357
  221MOL0     O29708   5.589   7.091   1.022 -0.4202 -0.4759  0.4601
  221MOL0     C29709   5.487   7.160   1.101 -0.1560  0.5439  0.7960
  221MOL0     C29710   5.508   7.119   1.249  0.2186 -1.3118 -0.1152
  221MOL0     C29711   5.448   7.220   1.352 -0.4466  0.7872  1.1065
  221MOL0     C29712   5.486   7.167   1.486  0.7985 -0.6700  0.2093
  221MOL0     C29713   5.407   7.252   1.587  0.2251 -0.4473 -0.1816
  221MOL0     C29714   5.463   7.207   1.723  0.8994 -0.2374  0.9067
  221MOL0     C29715   5.394   7.272   1.837  0.1437 -0.1450 -0.3255
  221MOL0     C29716   5.424   7.210   1.968 -0.1046 -0.2890  0.9359
  221MOL0     N29717   5.327   7.236   2.072  0.2443  0.0963  0.2115
  221MOL0     C29718   5.336   7.187   2.205 -0.2265 -1.4424 -0.0235
  221MOL0     C29719   5.221   7.232   2.257  0.3967 -0.8207 -0.1785
  221MOL0     C29720   5.151   7.221   2.388 -0.8586  0.2269 -0.6174
  221MOL0     C29721   5.242   7.207   2.505 -1.3347  0.5553  0.6924
  221MOL0     C29722   5.316   7.333   2.554 -0.0809 -0.7560  0.3902
  221MOL0     C29723   5.222   7.444   2.603  0.6489 -0.2760  0.1084
  221MOL0     O29724   5.176   7.414   2.738 -0.5554  0.5904  0.2731
  221MOL0     C29725   5.101   7.504   2.803  0.3927 -0.6728  0.0716
  221MOL0     C29726   5.030   7.461   2.913  1.0989 -0.4834 -0.0814
  221MOL0     C29727   4.955   7.543   2.998 -1.0073 -0.2726 -0.3670
  221MOL0     C29728   4.878   7.478   3.109 -0.4686 -0.2744  0.3061
  221MOL0     C29729   4.949   7.677   2.950 -0.0350 -0.9910  0.7932
  221MOL0     C29730   4.870   7.782   3.016  0.2843 -0.0844  0.4024
  221MOL0     O29731   4.889   7.915   2.974  0.1985 -0.7518  0.4040
  221MOL0     C29732   4.795   8.003   3.024 -0.3783  0.1306 -0.7214
  221MOL0     C29733   4.833   8.122   3.083  0.1225 -0.1924 -0.5689
  221MOL0     C29734   4.742   8.205   3.151  1.6636  0.5802  0.1310
  221MOL0     C29735   4.610   8.168   3.159 -0.1750 -0.0538 -0.2008
  221MOL0     O29736   4.534   8.243   3.238 -0.0355  0.6075  0.1847
  221MOL0     C29737   4.396   8.258   3.210 -0.0486 -0.2945  0.1763
  221MOL0     C29738   4.318   8.361   3.294  0.4639 -0.8023 -0.1817
  221MOL0     C29739   4.376   8.370   3.441 -0.0977  0.4613 -0.5805
  221MOL0     C29740   4.270   8.446   3.537  1.1127  0.8283  0.8603
  221MOL0     C29741   4.191   8.568   3.479 -0.2651 -0.3743 -0.8307
  221MOL0     C29742   4.119   8.641   3.592  0.2024  0.3343 -0.1287
  221MOL0     C29743   4.203   8.759   3.650 -0.0246 -0.1443 -0.2882
  221MOL0     C29744   4.125   8.874   3.706  1.0055 -0.4103 -0.4151
  221MOL0    Cl29745   4.020   8.848   3.858  0.1403 -0.2651  0.0540
  221MOL0     C29746   4.563   8.052   3.099 -1.1808 -0.3721  0.1391
  221MOL0     C29747   4.653   7.969   3.027 -0.0614 -0.3913 -0.3803
  221MOL0     O29748   4.807   7.756   3.119 -0.5040  0.3045  0.4994
  221MOL0     C29749   5.018   7.725   2.837 -0.7059 -0.1012  0.0261
  221MOL0     C29750   5.099   7.640   2.768 -0.8407 -0.2331  0.6893
  221MOL0     N29751   5.142   7.274   2.155 -0.1982 -0.5018 -0.1329
  221MOL0     N29752   5.201   7.283   2.045 -0.1376 -0.3470  0.8344
  221MOL0     C29753   5.650   6.998   0.812  0.4238 -0.0911  0.8551
  221MOL0     C29754   5.623   6.958   0.681 -1.1178  0.2282 -0.6885
  221MOL0     C29755   5.554   6.901   0.257  0.3277 -0.3207  0.8727
  221MOL0     C29756   5.470   6.788   0.239  0.1109 -0.7329 -0.0728
  221MOL0     C29757   5.456   6.723   0.116  0.5415  0.1050  0.2167
  221MOL0     C29758   5.549   6.749   0.014  0.4659 -0.0594 -0.6964
  221MOL0     O29759   5.568   6.677  -0.104 -0.0762 -0.0666  0.4213
  221MOL0     C29760   5.471   6.571  -0.133 -0.5269 -0.2584  0.9481
  221MOL0     C29761   5.512   6.499  -0.252  0.0387 -0.1354  0.4017
  221MOL0     C29762   5.651   6.427  -0.264  0.2915 -0.0386 -0.7169
  221MOL0     C29763   5.659   6.286  -0.195 -0.1168 -0.1277  0.0747
  221MOL0     C29764   5.652   6.296  -0.045 -0.2112  0.0756 -0.2582
  221MOL0     C29765   5.652   6.295   0.076 -0.1973 -0.7493  0.0542
  221MOL0     C29766   5.635   6.863   0.028 -0.2709 -0.2246 -0.7307
  221MOL0     C29767   5.641   6.940   0.146 -0.0576  1.0756  0.8874
  221MOL0     H29768   5.303   7.063   0.657 -0.0769 -1.8224  0.5683
  221MOL0     H29769   5.339   7.131   0.883  0.0643 -2.0579  3.4297
  221MOL0     H29770   5.499   7.267   1.086 -1.7369  0.8123  1.2522
  221MOL0     H29771   5.379   7.144   1.093 -0.3594 -0.4000  3.8687
  221MOL0     H29772   5.483   7.015   1.271  1.4771 -2.1312 -2.2910
  221MOL0     H29773   5.616   7.126   1.265  0.1489 -2.4368  1.0227
  221MOL0     H29774   5.473   7.323   1.325  0.7594  1.4601  4.3512
  221MOL0     H29775   5.339   7.226   1.344 -0.4561 -0.0229  0.4036
  221MOL0     H29776   5.455   7.064   1.507 -3.1606  0.5905  1.5800
  221MOL0     H29777   5.594   7.186   1.491  0.1838  3.9614  0.9102
  221MOL0     H29778   5.417   7.361   1.579 -1.7430 -0.1490  0.7839
  221MOL0     H29779   5.301   7.227   1.578 -0.2644  1.3199  0.1919
  221MOL0     H29780   5.450   7.099   1.736  0.5807  0.0531  3.3771
  221MOL0     H29781   5.566   7.242   1.730  1.3936 -0.8406 -1.9833
  221MOL0     H29782   5.416   7.379   1.832  1.2576 -0.3898 -0.9638
  221MOL0     H29783   5.285   7.268   1.824 -0.2074  2.0246  1.3043
  221MOL0     H29784   5.524   7.243   1.996 -0.8026  1.5259  1.4357
  221MOL0     H29785   5.425   7.102   1.950  0.9653 -0.6076  2.6750
  221MOL0     H29786   5.415   7.125   2.247  0.3045  0.8478  2.6593
  221MOL0     H29787   5.077   7.300   2.406 -1.2212  0.0531 -1.3418
  221MOL0     H29788   5.095   7.128   2.391 -2.2765  1.0654  0.4230
  221MOL0     H29789   5.323   7.134   2.493 -1.8191  0.2735 -1.0508
  221MOL0     H29790   5.180   7.162   2.584  1.1266 -1.3714  1.7000
  221MOL0     H29791   5.378   7.365   2.470 -1.7541 -1.3890 -1.1382
  221MOL0     H29792   5.394   7.313   2.629  1.6538 -0.9098 -1.3838
  221MOL0     H29793   5.132   7.467   2.546  0.1170  1.8574  1.6925
  221MOL0     H29794   5.280   7.536   2.594 -0.0602  0.0477 -1.4906
  221MOL0     H29795   5.044   7.356   2.935  1.7987 -0.0280  1.8965
  221MOL0     H29796   4.771   7.492   3.090 -1.0713 -2.7594  1.5257
  221MOL0     H29797   4.891   7.371   3.124 -0.2248 -0.3274 -0.2636
  221MOL0     H29798   4.912   7.529   3.200 -1.5346  0.3514  0.3803
  221MOL0     H29799   4.938   8.143   3.064  0.0297  0.2058 -0.6641
  221MOL0     H29800   4.773   8.293   3.207  2.3312  1.7437 -1.9496
  221MOL0     H29801   4.376   8.284   3.106 -2.1518 -1.9011  0.1013
  221MOL0     H29802   4.343   8.164   3.226  2.5399 -1.6518  1.2890
  221MOL0     H29803   4.337   8.456   3.244  3.6104 -1.4655 -0.4632
  221MOL0     H29804   4.210   8.342   3.285  0.5183 -1.4057  0.3378
  221MOL0     H29805   4.472   8.419   3.422 -1.1301  2.1428 -1.6991
  221MOL0     H29806   4.393   8.274   3.490  0.3549  1.0644  0.4650
  221MOL0     H29807   4.196   8.371   3.567 -0.6001  2.0494 -0.1329
  221MOL0     H29808   4.320   8.473   3.630 -1.9053  1.0896  2.5546
  221MOL0     H29809   4.118   8.521   3.412  0.1109 -1.3134 -0.6025
  221MOL0     H29810   4.249   8.643   3.423  1.3640  1.2537  2.7245
  221MOL0     H29811   4.030   8.687   3.548  0.5130  2.6317  1.4215
  221MOL0     H29812   4.074   8.579   3.670 -3.1477  1.1680 -1.2402
  221MOL0     H29813   4.264   8.806   3.572 -2.2821  1.7408 -1.0437
  221MOL0     H29814   4.273   8.707   3.716 -0.2202 -1.0677 -0.7886
  221MOL0     H29815   4.057   8.918   3.632 -2.1879  2.2801  3.6733
  221MOL0     H29816   4.205   8.944   3.735  0.4346 -0.3949  1.1984
  221MOL0     H29817   4.457   8.029   3.095 -1.7041  1.9449 -3.3806
  221MOL0     H29818   4.599   7.881   2.994 -1.9918  0.5171  0.2191
  221MOL0     H29819   5.002   7.824   2.797 -3.1645 -0.3560  0.2053
  221MOL0     H29820   5.145   7.695   2.686  0.4117  2.7430  3.1897
  221MOL0     H29821   5.747   6.978   0.856  1.5426  1.1382 -0.8994
  221MOL0     H29822   5.700   6.909   0.623  0.3521  2.5039 -0.7558
  221MOL0     H29823   5.395   6.775   0.316  3.0542  0.2750  3.2480
  221MOL0     H29824   5.378   6.648   0.112  0.6420 -0.1032  1.6740
  221MOL0     H29825   5.462   6.507  -0.046  0.8508  0.7291  1.8565
  221MOL0     H29826   5.378   6.625  -0.156  0.2415  0.3361 -1.0252
  221MOL0     H29827   5.519   6.577  -0.328  2.8369  2.4106  3.0242
  221MOL0     H29828   5.435   6.429  -0.288  0.2499 -0.4954  0.6524
  221MOL0     H29829   5.729   6.495  -0.230 -0.9208 -0.1335  2.6763
  221MOL0     H29830   5.671   6.415  -0.371 -2.7947  1.7148 -1.6028
  221MOL0     H29831   5.752   6.240  -0.231  0.9778 -0.2750  2.8252
  221MOL0     H29832   5.580   6.214  -0.219 -1.4684  0.8519  1.4582
  221MOL0     H29833   5.668   6.283   0.181  1.3498 -2.6427 -0.3298
  221MOL0     H29834   5.716   6.872  -0.044  1.4396 -0.3199  1.0831
  221MOL0     H29835   5.712   7.017   0.173  1.1363 -0.7288  3.2883
  222MOL0     O29836  10.460   2.507   0.846 -0.1078 -0.3806 -0.1675
  222MOL0     C29837  10.512   2.410   0.799 -0.3751 -0.6368  0.2620
  222MOL0     O29838  10.620   2.421   0.720 -0.1253  0.5088  0.1240
  222MOL0     C29839  10.633   2.532   0.642 -0.0544 -0.2624  0.0846
  222MOL0     C29840  10.748   2.614   0.651 -0.9395 -0.6124 -1.4124
  222MOL0     C29841  10.762   2.728   0.568  0.4246  0.6639 -0.2783
  222MOL0     C29842  10.664   2.756   0.477  0.3670  0.4754 -0.4291
  222MOL0     O29843  10.682   2.851   0.378 -0.4712  0.3625  1.0095
  222MOL0     C29844  10.614   2.977   0.394  0.4841 -0.5014 -0.5196
  222MOL0     C29845  10.652   3.094   0.313 -0.9464  0.4007 -0.0667
  222MOL0     C29846  10.613   3.225   0.378  0.1128  0.3499 -0.0208
  222MOL0     C29847  10.628   3.352   0.282  0.0093 -0.2301 -0.6636
  222MOL0     C29848  10.588   3.464   0.360  0.1318 -0.0519  1.5181
  222MOL0     C29849  10.593   3.605   0.296  0.1123  0.1466  0.1683
  222MOL0     C29850  10.518   3.619   0.166  0.1754  0.4592  0.1410
  222MOL0     C29851  10.359   3.622   0.172  0.3261 -0.8662  0.0855
  222MOL0     N29852  10.310   3.738   0.245 -0.0825  0.4836 -0.1110
  222MOL0     C29853  10.278   3.752   0.382 -0.7774 -0.9122 -1.1614
  222MOL0     C29854  10.251   3.879   0.396  0.0905 -0.3185 -0.4417
  222MOL0     C29855  10.239   3.938   0.534  0.5799 -0.5505 -0.3818
  222MOL0     C29856  10.344   3.922   0.635 -0.8608 -0.6472  0.1461
  222MOL0     C29857  10.482   3.971   0.585  0.3094  0.4399  0.4440
  222MOL0     C29858  10.589   3.942   0.690 -0.0959 -0.1964 -0.1940
  222MOL0     O29859  10.718   3.984   0.636 -0.3442  0.0290  0.5383
  222MOL0     C29860  10.808   4.054   0.720 -0.1454  0.8780  1.0019
  222MOL0     C29861  10.908   4.139   0.661  1.1256  0.3622 -0.5687
  222MOL0     C29862  11.022   4.197   0.726 -0.3826 -1.0047 -0.1750
  222MOL0     C29863  11.120   4.282   0.643 -0.4729  0.6790 -0.4508
  222MOL0     C29864  11.045   4.157   0.860 -0.2320 -0.0846 -0.0821
  222MOL0     C29865  11.163   4.186   0.939 -0.2021 -0.1968  0.8595
  222MOL0     O29866  11.243   4.292   0.889 -0.1972  0.8102 -0.5065
  222MOL0     C29867  11.370   4.302   0.940  0.5544 -0.4970  0.3934
  222MOL0     C29868  11.406   4.407   1.016  0.3290 -0.0236  0.4152
  222MOL0     C29869  11.538   4.425   1.053 -0.2437 -0.8376  0.1222
  222MOL0     C29870  11.638   4.356   0.992 -0.2872  0.6575  0.6096
  222MOL0     O29871  11.763   4.399   1.009  0.0683  0.0116  0.6715
  222MOL0     C29872  11.869   4.343   0.921 -0.0931 -0.1742  0.1837
  222MOL0     C29873  11.970   4.270   1.004 -0.1711 -0.4502  0.1180
  222MOL0     C29874  12.005   4.348   1.137 -0.0049  0.5441 -0.4154
  222MOL0     C29875  12.122   4.297   1.219  0.0004 -0.0685 -1.0485
  222MOL0     C29876  12.099   4.164   1.296 -0.1761 -0.6888 -0.0655
  222MOL0     C29877  12.237   4.095   1.331 -0.3820 -0.2684  0.2417
  222MOL0     C29878  12.303   4.172   1.446 -0.5096  0.7257 -0.4131
  222MOL0     C29879  12.463   4.172   1.434  0.3885  0.0722 -0.5267
  222MOL0    Cl29880  12.514   4.257   1.578 -0.1083 -0.3512 -0.0910
  222MOL0     C29881  11.594   4.233   0.924 -1.3582  0.1063 -0.2362
  222MOL0     C29882  11.462   4.209   0.898 -0.1524  0.5142  0.0677
  222MOL0     O29883  11.185   4.127   1.043 -0.1504  0.2894 -0.6110
  222MOL0     C29884  10.944   4.080   0.924  0.1597  0.3377  0.2373
  222MOL0     C29885  10.833   4.030   0.857 -0.2357  0.1124 -0.0734
  222MOL0     N29886  10.297   3.949   0.287  0.4189 -0.4604 -0.2400
  222MOL0     N29887  10.321   3.859   0.192 -0.2298  0.0137 -0.7168
  222MOL0     C29888  10.547   2.683   0.473  0.6543 -0.6123  0.5699
  222MOL0     C29889  10.531   2.573   0.559 -0.0324  0.4952 -0.6084
  222MOL0     C29890  10.455   2.276   0.827 -0.4474  0.1588  0.8992
  222MOL0     C29891  10.333   2.254   0.891  0.2290 -0.1865 -0.1245
  222MOL0     C29892  10.288   2.120   0.909  0.3547  0.1704 -0.5361
  222MOL0     C29893  10.367   2.016   0.868  0.3824  0.5071 -0.0635
  222MOL0     O29894  10.317   1.893   0.914  0.0766  0.1439 -0.5739
  222MOL0     C29895  10.396   1.774   0.901 -0.2264  0.6845 -0.3045
  222MOL0     C29896  10.404   1.712   0.756  0.9949  0.2431 -0.5397
  222MOL0     C29897  10.516   1.606   0.727  1.2220 -0.0336 -1.1010
  222MOL0     C29898  10.497   1.477   0.801 -0.0338 -1.1934  0.5232
  222MOL0     C29899  10.560   1.473   0.928 -0.1837  0.3688 -1.2691
  222MOL0     C29900  10.633   1.465   1.027  0.8165 -0.3179 -0.5193
  222MOL0     C29901  10.488   2.042   0.810  0.2144  0.2863 -0.4359
  222MOL0     C29902  10.530   2.166   0.786  0.2208  0.4971 -0.0912
  222MOL0     H29903  10.830   2.577   0.712 -1.3961 -1.4946 -1.3094
  222MOL0     H29904  10.855   2.785   0.569  2.1137 -1.9487 -0.5815
  222MOL0     H29905  10.505   2.972   0.380  0.0590 -2.6058  2.5161
  222MOL0     H29906  10.618   2.996   0.501  0.7774  3.2652 -1.0449
  222MOL0     H29907  10.760   3.098   0.328 -0.7329  0.5400 -1.5093
  222MOL0     H29908  10.608   3.095   0.213 -1.3218  0.6360  0.0980
  222MOL0     H29909  10.509   3.217   0.411  0.9514  0.9896  3.0930
  222MOL0     H29910  10.672   3.225   0.470  1.4793  0.3478 -0.8682
  222MOL0     H29911  10.731   3.366   0.248 -0.0263 -0.9442 -1.0926
  222MOL0     H29912  10.570   3.332   0.191 -2.2632  3.1994 -0.1364
  222MOL0     H29913  10.485   3.453   0.395 -0.7400 -0.1948 -0.9084
  222MOL0     H29914  10.656   3.473   0.446  1.8739  1.3568  0.0698
  222MOL0     H29915  10.546   3.670   0.370  0.8253  1.1276 -0.2197
  222MOL0     H29916  10.695   3.644   0.289  2.4703 -5.1296  0.7191
  222MOL0     H29917  10.548   3.713   0.117  2.9306  0.1395  1.0124
  222MOL0     H29918  10.554   3.533   0.109  0.2534  0.7685 -0.2817
  222MOL0     H29919  10.335   3.522   0.210  3.1626 -1.8820 -0.5614
  222MOL0     H29920  10.320   3.628   0.070 -0.8092 -0.4220  0.5198
  222MOL0     H29921  10.266   3.674   0.456 -3.4400  1.1651  0.7923
  222MOL0     H29922  10.222   4.045   0.517  0.1086 -0.7187 -1.0269
  222MOL0     H29923  10.144   3.899   0.571 -0.8146  0.2522 -2.8560
  222MOL0     H29924  10.351   3.816   0.660  1.7680 -0.7294 -0.6706
  222MOL0     H29925  10.318   3.987   0.719 -1.2640  0.2199 -0.6289
  222MOL0     H29926  10.483   4.079   0.570  2.0742  0.6238  1.6926
  222MOL0     H29927  10.513   3.913   0.498  0.0518 -3.4539  2.7318
  222MOL0     H29928  10.595   3.835   0.712 -1.8226 -0.3977 -0.5049
  222MOL0     H29929  10.551   3.989   0.781  0.3255  0.7372 -0.4901
  222MOL0     H29930  10.898   4.157   0.555  0.5625 -0.8872 -0.7451
  222MOL0     H29931  11.111   4.378   0.695 -3.0691  0.5177 -0.4908
  222MOL0     H29932  11.223   4.246   0.633 -1.2295 -1.6209 -0.3375
  222MOL0     H29933  11.074   4.298   0.545 -0.1662 -0.4987 -0.8010
  222MOL0     H29934  11.332   4.472   1.060  1.9122  0.3259  2.7356
  222MOL0     H29935  11.556   4.506   1.123  1.4264 -0.4602 -0.6905
  222MOL0     H29936  11.844   4.272   0.841 -0.9327 -1.6089  1.6440
  222MOL0     H29937  11.915   4.430   0.874 -2.1262  1.1593  0.5363
  222MOL0     H29938  11.921   4.175   1.025 -0.9312 -0.6010 -2.1375
  222MOL0     H29939  12.062   4.262   0.945 -1.1395  0.6248 -1.6215
  222MOL0     H29940  11.914   4.344   1.197 -1.4910  2.3635 -2.4117
  222MOL0     H29941  12.029   4.450   1.108  1.9987  0.5228  0.9554
  222MOL0     H29942  12.215   4.287   1.162  2.0603  1.8629  1.6991
  222MOL0     H29943  12.148   4.366   1.300  0.4570 -0.1437 -1.1263
  222MOL0     H29944  12.042   4.090   1.239  1.3236  0.3844 -3.2152
  222MOL0     H29945  12.033   4.185   1.381 -1.0653  1.3269 -1.1817
  222MOL0     H29946  12.225   3.990   1.359 -0.8869 -0.4161 -0.4890
  222MOL0     H29947  12.309   4.083   1.250 -0.0262 -0.0655  0.5249
  222MOL0     H29948  12.277   4.118   1.538  3.4624 -1.0943 -0.1370
  222MOL0     H29949  12.271   4.276   1.448  1.4937  1.4126 -1.4723
  222MOL0     H29950  12.495   4.244   1.358 -2.2042  1.5085 -0.3968
  222MOL0     H29951  12.503   4.070   1.429 -2.1326 -1.0483  0.0947
  222MOL0     H29952  11.675   4.174   0.882  1.6392  3.2868  0.5989
  222MOL0     H29953  11.427   4.130   0.832 -0.0148  2.7067 -2.8035
  222MOL0     H29954  10.953   4.043   1.026 -0.7705 -1.2893 -0.2440
  222MOL0     H29955  10.761   3.967   0.909 -1.5953  1.9814  0.4379
  222MOL0     H29956  10.459   2.712   0.418 -1.3719 -0.5950  3.5661
  222MOL0     H29957  10.440   2.515   0.562  0.6438 -0.5575  1.4014
  222MOL0     H29958  10.262   2.332   0.918 -0.6531 -0.9630 -0.1155
  222MOL0     H29959  10.197   2.091   0.960 -0.2205  1.7310 -0.6068
  222MOL0     H29960  10.498   1.802   0.930  0.2953 -0.2911 -1.1151
  222MOL0     H29961  10.352   1.715   0.981 -1.2680  4.2882  2.0062
  222MOL0     H29962  10.429   1.795   0.690 -0.8544  0.1407 -1.4210
  222MOL0     H29963  10.307   1.676   0.722  1.4262 -0.3116 -1.2321
  222MOL0     H29964  10.614   1.646   0.755  1.0333  0.6324 -1.3689
  222MOL0     H29965  10.507   1.595   0.619 -3.2871 -1.1907 -0.8102
  222MOL0     H29966  10.549   1.402   0.740  0.9348  1.0551 -1.5668
  222MOL0     H29967  10.392   1.445   0.801 -0.8475  0.8491 -3.3776
  222MOL0     H29968  10.713   1.463   1.098  1.8672  0.6682 -1.6223
  222MOL0     H29969  10.549   1.955   0.786 -0.9797 -0.8782  0.5885
  222MOL0     H29970  10.630   2.179   0.746  0.7950  1.7091  1.6397
  223MOL0     O29971   7.503   7.853   6.388 -0.0460 -0.2316  0.6172
  223MOL0     C29972   7.540   7.738   6.413 -0.1161 -1.1270 -0.0389
  223MOL0     O29973   7.603   7.662   6.326 -0.1989 -0.4576  0.0228
  223MOL0     C29974   7.614   7.698   6.196 -0.2985 -0.1946 -0.0866
  223MOL0     C29975   7.509   7.724   6.110 -0.5428  0.4960  0.5819
  223MOL0     C29976   7.520   7.745   5.973 -0.5366  0.4842  0.1328
  223MOL0     C29977   7.642   7.736   5.916 -1.0272 -0.1497  0.2300
  223MOL0     O29978   7.661   7.768   5.780 -0.6667  0.4686 -0.1464
  223MOL0     C29979   7.775   7.869   5.760 -0.5360 -0.2445 -0.9342
  223MOL0     C29980   7.775   7.922   5.621 -0.1795 -0.6871  0.6867
  223MOL0     C29981   7.898   8.024   5.597  0.5339  0.5695  0.4263
  223MOL0     C29982   7.899   8.144   5.695 -0.0573  0.2876 -0.3204
  223MOL0     C29983   8.028   8.232   5.693  0.6616  0.0400  0.4656
  223MOL0     C29984   8.139   8.160   5.767  0.4760  0.8705 -1.1859
  223MOL0     C29985   8.238   8.279   5.812 -0.3542  0.5866 -1.3633
  223MOL0     C29986   8.299   8.357   5.699 -0.6423  0.3258  0.1239
  223MOL0     N29987   8.384   8.278   5.605  0.4667  0.3369  0.2687
  223MOL0     C29988   8.526   8.285   5.601  0.5117 -0.4572 -0.2232
  223MOL0     C29989   8.558   8.219   5.483 -0.8049  0.0457 -0.0227
  223MOL0     C29990   8.691   8.206   5.426  0.3516 -0.0703 -0.4822
  223MOL0     C29991   8.763   8.347   5.412 -0.5090 -0.9666  0.4896
  223MOL0     C29992   8.907   8.318   5.362  0.3409  0.2413 -0.3497
  223MOL0     C29993   8.904   8.260   5.218 -0.2291 -0.2354 -0.2133
  223MOL0     O29994   9.034   8.231   5.170 -0.1192  0.3848 -0.2030
  223MOL0     C29995   9.091   8.110   5.195  0.3719 -0.5299  0.7124
  223MOL0     C29996   9.217   8.089   5.136  0.6776 -1.6943 -0.2450
  223MOL0     C29997   9.288   7.976   5.154  0.1748  1.2336 -0.9137
  223MOL0     C29998   9.433   7.980   5.101 -0.3239 -0.4808  0.0400
  223MOL0     C29999   9.229   7.864   5.223  0.3037  0.5932 -0.1283
  223MOL0     C30000   9.299   7.730   5.237  0.0024  0.1817 -0.1867
  223MOL0     O30001   9.229   7.621   5.289 -0.0514 -0.3370  0.4621
  223MOL0     C30002   9.307   7.505   5.289  0.1310  0.1072 -0.3811
  223MOL0     C30003   9.279   7.397   5.205  0.3257  0.1048  0.6712
  223MOL0     C30004   9.356   7.282   5.204 -0.2061  0.8991 -0.2271
  223MOL0     C30005   9.476   7.279   5.279  0.9318 -1.1240 -0.4636
  223MOL0     O30006   9.556   7.162   5.278  0.8581 -0.8656  0.0302
  223MOL0     C30007   9.693   7.161   5.331 -1.0335 -0.5560 -0.0035
  223MOL0     C30008   9.746   7.016   5.307  0.9666  1.2524 -0.0238
  223MOL0     C30009   9.896   7.012   5.339 -0.1763 -0.4130 -0.1489
  223MOL0     C30010   9.938   7.017   5.487  0.3900  0.0310  0.7762
  223MOL0     C30011  10.068   6.955   5.505 -0.4644 -0.1958  0.1354
  223MOL0     C30012  10.148   7.014   5.613 -0.9024 -0.3486 -1.1747
  223MOL0     C30013  10.272   6.928   5.651  0.5999  0.6791 -0.3236
  223MOL0     C30014  10.315   6.924   5.801  0.5028  0.4079  0.5158
  223MOL0    Cl30015  10.348   7.093   5.839 -0.1549 -0.4854 -0.2761
  223MOL0     C30016   9.496   7.393   5.368 -0.7622  1.1832 -0.5559
  223MOL0     C30017   9.415   7.503   5.378 -0.6349  0.3791 -0.0653
  223MOL0     O30018   9.413   7.717   5.188  0.0681  0.2565  0.1233
  223MOL0     C30019   9.102   7.882   5.273  0.6589 -0.2034  0.1548
  223MOL0     C30020   9.036   8.008   5.265 -0.5154 -0.4388 -0.4967
  223MOL0     N30021   8.441   8.165   5.428 -0.0346  0.5509  0.2852
  223MOL0     N30022   8.336   8.204   5.500  0.6378  0.2216 -0.5163
  223MOL0     C30023   7.760   7.720   5.999 -0.3906  1.0910 -0.2752
  223MOL0     C30024   7.741   7.697   6.137 -0.3764  0.3324 -0.0444
  223MOL0     C30025   7.519   7.686   6.551 -1.1452  0.1710  0.6698
  223MOL0     C30026   7.466   7.762   6.656 -0.6843 -0.0283  0.5383
  223MOL0     C30027   7.419   7.708   6.775 -0.2337  0.3185 -0.0630
  223MOL0     C30028   7.431   7.569   6.795  0.0405 -0.2827 -0.5997
  223MOL0     O30029   7.409   7.502   6.915  0.0167  0.2051  0.0364
  223MOL0     C30030   7.364   7.577   7.032  0.3728  0.5090 -0.9567
  223MOL0     C30031   7.358   7.511   7.171  0.2064 -0.3651  0.5058
  223MOL0     C30032   7.241   7.405   7.187 -0.6853 -0.0142  0.0213
  223MOL0     C30033   7.277   7.284   7.262 -0.6421  0.6038  0.5311
  223MOL0     C30034   7.346   7.190   7.179 -0.8719  0.6705 -0.0263
  223MOL0     C30035   7.419   7.109   7.128  1.1028 -0.5005  1.0865
  223MOL0     C30036   7.487   7.487   6.693  0.8216  0.0231  0.2377
  223MOL0     C30037   7.535   7.548   6.571 -0.0012  0.9544  0.5803
  223MOL0     H30038   7.412   7.709   6.157 -2.0629 -3.3654 -3.1812
  223MOL0     H30039   7.439   7.755   5.902 -0.1055 -0.8452 -0.5994
  223MOL0     H30040   7.765   7.953   5.829 -0.1107 -0.6457 -0.3773
  223MOL0     H30041   7.871   7.819   5.776 -1.0152 -1.0712 -0.5777
  223MOL0     H30042   7.779   7.842   5.547  0.1962  2.4502 -3.0324
  223MOL0     H30043   7.686   7.982   5.597 -0.2344 -0.5908  1.1288
  223MOL0     H30044   7.994   7.973   5.606  1.0837  1.3858 -0.5923
  223MOL0     H30045   7.886   8.057   5.494  0.3809  0.2812  0.3512
  223MOL0     H30046   7.815   8.214   5.688 -0.1982  0.0031 -2.1575
  223MOL0     H30047   7.889   8.121   5.801  0.5893  0.5166 -0.2044
  223MOL0     H30048   8.054   8.248   5.588  1.7236  1.8270  0.9702
  223MOL0     H30049   8.005   8.322   5.751  0.0911 -0.6050  1.2737
  223MOL0     H30050   8.103   8.108   5.856  2.1925 -1.3854 -1.7106
  223MOL0     H30051   8.190   8.079   5.713  1.2372  1.0729 -0.7915
  223MOL0     H30052   8.181   8.346   5.876  0.7191  0.0088  0.2792
  223MOL0     H30053   8.318   8.244   5.878 -0.9695  1.4776 -0.1110
  223MOL0     H30054   8.356   8.434   5.752  0.9227 -0.4656 -0.3588
  223MOL0     H30055   8.225   8.409   5.638  1.3480  0.8869 -1.9664
  223MOL0     H30056   8.588   8.348   5.664  2.0047 -3.6213  1.7652
  223MOL0     H30057   8.741   8.125   5.479 -1.3629 -0.4052  0.7365
  223MOL0     H30058   8.672   8.174   5.323  2.6662  1.1294 -1.3461
  223MOL0     H30059   8.770   8.405   5.504 -1.5532 -0.5310  0.3011
  223MOL0     H30060   8.704   8.414   5.349 -0.5302  1.5747  3.0265
  223MOL0     H30061   8.950   8.243   5.429  1.2682  0.1875 -0.9848
  223MOL0     H30062   8.981   8.398   5.361 -0.1814  0.7410 -1.4734
  223MOL0     H30063   8.863   8.334   5.149  0.4114  0.3194 -0.0049
  223MOL0     H30064   8.835   8.176   5.206 -0.9500 -0.1277  2.5384
  223MOL0     H30065   9.247   8.180   5.084 -3.6126 -1.2277 -2.3487
  223MOL0     H30066   9.509   7.963   5.177  2.9136  1.9794 -2.3706
  223MOL0     H30067   9.456   7.921   5.012  3.5066 -0.2214  0.6969
  223MOL0     H30068   9.464   8.082   5.074 -2.2618  1.4662  4.2500
  223MOL0     H30069   9.191   7.402   5.141 -0.1673 -1.6345  1.1783
  223MOL0     H30070   9.332   7.200   5.137 -0.3256 -0.5210  1.4744
  223MOL0     H30071   9.753   7.230   5.273 -0.1246 -0.1180  1.4016
  223MOL0     H30072   9.688   7.189   5.437  2.5424  1.6977 -0.2799
  223MOL0     H30073   9.689   6.948   5.371  1.1519  1.8526  0.8053
  223MOL0     H30074   9.744   6.993   5.200 -1.5806  2.4669 -0.3090
  223MOL0     H30075   9.943   7.088   5.277 -0.4812  0.8306  1.0827
  223MOL0     H30076   9.933   6.914   5.310  1.7229 -0.0330  0.7756
  223MOL0     H30077   9.935   7.121   5.524 -1.0418  0.4197 -0.3506
  223MOL0     H30078   9.861   6.961   5.541 -0.4697  0.3641 -0.0809
  223MOL0     H30079  10.132   6.971   5.418  1.1970 -1.3601  1.0795
  223MOL0     H30080  10.053   6.848   5.526 -3.2188  0.3237  1.3018
  223MOL0     H30081  10.187   7.111   5.582  0.1924 -0.6852 -0.8809
  223MOL0     H30082  10.089   7.038   5.702  0.1033  0.0642 -0.6055
  223MOL0     H30083  10.353   6.963   5.586  0.8781 -1.8830 -1.4733
  223MOL0     H30084  10.264   6.822   5.623 -0.6354  0.1369  1.8534
  223MOL0     H30085  10.408   6.867   5.807  1.5816  2.1828  1.4616
  223MOL0     H30086  10.235   6.877   5.860 -0.4250 -0.2301 -1.1874
  223MOL0     H30087   9.583   7.402   5.434 -2.4035  0.8503  1.7813
  223MOL0     H30088   9.429   7.586   5.447  2.2825 -0.2432  0.1954
  223MOL0     H30089   9.053   7.805   5.332  1.5934 -2.5928 -2.0237
  223MOL0     H30090   8.947   8.014   5.328 -1.2112 -2.4622 -1.2224
  223MOL0     H30091   7.859   7.717   5.953  1.5555 -0.3099  3.5304
  223MOL0     H30092   7.833   7.682   6.193 -0.5902 -1.4384 -0.0940
  223MOL0     H30093   7.437   7.863   6.629 -1.0187 -0.2165  0.1774
  223MOL0     H30094   7.373   7.769   6.852 -2.4708 -2.1991  0.7387
  223MOL0     H30095   7.421   7.669   7.050 -3.1281  3.0570 -1.8623
  223MOL0     H30096   7.265   7.610   7.001  0.4370 -0.1651 -1.9224
  223MOL0     H30097   7.338   7.597   7.235 -1.1296 -0.4667  0.2647
  223MOL0     H30098   7.457   7.469   7.189  1.0195  0.2219 -2.1253
  223MOL0     H30099   7.209   7.379   7.086  0.6560 -1.5461 -0.0341
  223MOL0     H30100   7.166   7.464   7.241 -0.6263 -0.4250  0.5585
  223MOL0     H30101   7.182   7.239   7.294 -0.0951 -1.0827 -0.0848
  223MOL0     H30102   7.339   7.323   7.344  0.5291  2.2790 -1.0790
  223MOL0     H30103   7.490   7.061   7.064  0.3127  0.3891 -0.5015
  223MOL0     H30104   7.498   7.380   6.704 -1.1009 -0.2500 -0.1362
  223MOL0     H30105   7.572   7.480   6.496  1.3437  2.8317 -0.5468
  224MOL0     O30106   3.310   6.452   6.994  0.6196  0.6170  0.2577
  224MOL0     C30107   3.271   6.561   6.963 -0.4103  0.2607 -0.0767
  224MOL0     O30108   3.218   6.662   7.043 -0.2893 -0.0850  0.5426
  224MOL0     C30109   3.213   6.636   7.174  0.0001  0.9793  0.2071
  224MOL0     C30110   3.326   6.669   7.247  0.3793  0.7665  0.3134
  224MOL0     C30111   3.314   6.643   7.385 -0.2508 -0.0761 -0.1114
  224MOL0     C30112   3.203   6.582   7.454 -0.7127 -0.6578  0.8779
  224MOL0     O30113   3.208   6.533   7.584 -0.2449  0.2886  0.2488
  224MOL0     C30114   3.136   6.614   7.685  0.4385  0.8038 -0.5911
  224MOL0     C30115   3.202   6.607   7.815  0.7919  0.3554 -0.6582
  224MOL0     C30116   3.331   6.686   7.801 -0.1007  0.7958  0.4287
  224MOL0     C30117   3.425   6.705   7.925 -0.3617 -0.5932  0.0841
  224MOL0     C30118   3.491   6.570   7.976  0.2294 -0.1129  0.9178
  224MOL0     C30119   3.589   6.500   7.872 -0.7226  0.1487 -0.8548
  224MOL0     C30120   3.723   6.570   7.861 -0.1324  0.0694  0.7900
  224MOL0     C30121   3.814   6.490   7.774 -0.5123  0.0663  0.3392
  224MOL0     N30122   3.821   6.558   7.639  0.3585  0.2486  0.5008
  224MOL0     C30123   3.719   6.619   7.571  1.0565  1.3393  0.1576
  224MOL0     C30124   3.783   6.689   7.475  0.8267 -0.2580 -0.7615
  224MOL0     C30125   3.719   6.778   7.376 -0.6190 -0.5524 -0.0509
  224MOL0     C30126   3.732   6.719   7.239 -0.4618 -0.2531  0.1528
  224MOL0     C30127   3.666   6.585   7.222  0.2214  0.0838 -0.4733
  224MOL0     C30128   3.716   6.526   7.085  0.0918 -0.2048 -0.5365
  224MOL0     O30129   3.656   6.395   7.057 -0.4217  0.7261  0.1340
  224MOL0     C30130   3.648   6.364   6.923 -0.9039 -0.0637  0.0969
  224MOL0     C30131   3.562   6.255   6.886  0.9540 -0.2504 -0.9074
  224MOL0     C30132   3.533   6.213   6.749  0.0752  0.5372  0.7833
  224MOL0     C30133   3.433   6.096   6.737 -0.7292  0.3979 -0.4542
  224MOL0     C30134   3.603   6.282   6.645 -0.2285 -1.2787 -0.7174
  224MOL0     C30135   3.572   6.265   6.503 -0.4997 -0.4096 -0.4778
  224MOL0     O30136   3.453   6.211   6.474  0.2464  0.3835 -0.3223
  224MOL0     C30137   3.435   6.184   6.341  0.1760 -0.0829  0.8644
  224MOL0     C30138   3.370   6.283   6.267 -0.0112 -1.0968  0.2637
  224MOL0     C30139   3.340   6.257   6.131  0.3688 -0.8093 -0.2394
  224MOL0     C30140   3.388   6.145   6.075  0.2343 -0.3594  1.0087
  224MOL0     O30141   3.354   6.135   5.949 -0.0561  0.6231  0.3449
  224MOL0     C30142   3.355   6.004   5.885  1.0095 -0.0008 -0.0495
  224MOL0     C30143   3.315   6.023   5.738  0.0023 -0.3111 -1.1646
  224MOL0     C30144   3.257   5.893   5.673  0.2422 -0.5407  0.2869
  224MOL0     C30145   3.188   5.927   5.536  0.6663  0.2483 -0.8062
  224MOL0     C30146   3.133   5.801   5.463  0.7261 -0.5172  0.0162
  224MOL0     C30147   3.003   5.757   5.547 -0.1068  0.6416  0.0803
  224MOL0     C30148   2.925   5.641   5.484  0.5942 -0.4801 -0.1158
  224MOL0     C30149   2.807   5.582   5.566  0.3054 -0.7050  0.0569
  224MOL0    Cl30150   2.749   5.450   5.470 -0.2088  0.1885 -0.2711
  224MOL0     C30151   3.461   6.051   6.151 -0.2482  1.2727  0.0402
  224MOL0     C30152   3.485   6.073   6.291  0.3162 -0.0887  0.2101
  224MOL0     O30153   3.655   6.301   6.420 -0.0470 -0.1325 -1.0382
  224MOL0     C30154   3.687   6.387   6.682 -0.9824 -0.8672 -0.0164
  224MOL0     C30155   3.721   6.426   6.817  0.4272  0.2125 -1.0881
  224MOL0     N30156   3.915   6.695   7.491  0.6358 -0.3367  0.1914
  224MOL0     N30157   3.933   6.603   7.582  0.1053 -0.2047 -0.6903
  224MOL0     C30158   3.095   6.546   7.371 -0.2780  0.0513 -0.6131
  224MOL0     C30159   3.094   6.575   7.235 -0.6663  1.0801  0.1284
  224MOL0     C30160   3.268   6.606   6.818  0.1373 -0.0113 -1.3504
  224MOL0     C30161   3.320   6.521   6.719 -0.4190 -0.3926 -0.1932
  224MOL0     C30162   3.323   6.555   6.584 -0.4353 -0.3634 -0.2343
  224MOL0     C30163   3.252   6.660   6.546 -0.0149  1.0692 -0.0518
  224MOL0     O30164   3.237   6.679   6.414 -0.0319  0.5160  0.3481
  224MOL0     C30165   3.130   6.753   6.354  0.4700 -0.2969  0.2306
  224MOL0     C30166   3.136   6.707   6.199 -0.6551  0.0453 -0.0101
  224MOL0     C30167   3.261   6.755   6.134  0.1876 -0.3614 -0.2986
  224MOL0     C30168   3.277   6.711   5.989  0.3286 -1.1758  0.5529
  224MOL0     C30169   3.200   6.799   5.901  0.7097 -1.0744  0.2286
  224MOL0     C30170   3.146   6.863   5.817 -0.8255 -0.8254  0.0031
  224MOL0     C30171   3.194   6.751   6.638 -0.5158  0.1234 -0.1222
  224MOL0     C30172   3.197   6.723   6.774  0.0226  1.0379 -0.2156
  224MOL0     H30173   3.400   6.723   7.189 -0.7882 -0.2445 -2.3090
  224MOL0     H30174   3.400   6.678   7.442 -1.3365 -0.5493  1.9067
  224MOL0     H30175   3.121   6.718   7.656  0.6182  1.2245  0.7763
  224MOL0     H30176   3.036   6.572   7.700 -0.5501  4.2637  5.9310
  224MOL0     H30177   3.137   6.649   7.893  0.9782 -0.2146 -0.1855
  224MOL0     H30178   3.231   6.504   7.839  0.4682  0.3755 -0.1569
  224MOL0     H30179   3.396   6.656   7.718  0.8488  1.9033  0.7450
  224MOL0     H30180   3.299   6.783   7.763  0.2071  0.3293 -1.0727
  224MOL0     H30181   3.486   6.791   7.896 -1.0272 -0.3902 -0.7486
  224MOL0     H30182   3.368   6.738   8.013  1.0415 -2.7910  1.9319
  224MOL0     H30183   3.547   6.582   8.069  1.0392  1.0442  0.3067
  224MOL0     H30184   3.407   6.501   7.986  0.6129 -0.7067  0.1374
  224MOL0     H30185   3.610   6.398   7.907  2.9580  1.1149  0.1899
  224MOL0     H30186   3.536   6.489   7.777 -2.0334 -0.4629 -0.0844
  224MOL0     H30187   3.706   6.670   7.819  0.7509 -0.0499  0.1117
  224MOL0     H30188   3.770   6.577   7.959 -0.4171 -0.5677  0.9723
  224MOL0     H30189   3.781   6.390   7.743 -0.4295  0.6606 -1.8288
  224MOL0     H30190   3.916   6.484   7.814 -0.2157 -0.0474 -0.4108
  224MOL0     H30191   3.615   6.600   7.596  0.7083  1.8694 -0.8165
  224MOL0     H30192   3.614   6.799   7.395 -1.4012 -1.6454 -2.7339
  224MOL0     H30193   3.777   6.872   7.374  0.2870 -1.0830  0.6208
  224MOL0     H30194   3.841   6.708   7.230  0.4542  5.0799  1.6374
  224MOL0     H30195   3.698   6.797   7.171  1.3115  1.0679  0.7130
  224MOL0     H30196   3.557   6.597   7.215  0.0614 -0.2386  1.0998
  224MOL0     H30197   3.678   6.508   7.299  2.0901 -1.5450 -2.2464
  224MOL0     H30198   3.823   6.503   7.095 -0.6681 -3.0961  2.8500
  224MOL0     H30199   3.688   6.603   7.013  1.1243 -0.4642 -1.2385
  224MOL0     H30200   3.500   6.211   6.963  1.3978  1.3740  0.4388
  224MOL0     H30201   3.340   6.135   6.695 -0.2469  2.0077 -0.0910
  224MOL0     H30202   3.476   6.022   6.668  0.9804 -1.4084  2.3257
  224MOL0     H30203   3.403   6.043   6.827 -0.2326  3.7808  1.8767
  224MOL0     H30204   3.332   6.366   6.325  2.1757 -0.2673  0.6159
  224MOL0     H30205   3.263   6.317   6.082  0.4566  0.7887  1.4723
  224MOL0     H30206   3.456   5.962   5.883  0.8681 -0.3349 -2.3005
  224MOL0     H30207   3.274   5.944   5.929  0.4704  1.0059  0.3709
  224MOL0     H30208   3.242   6.103   5.729  1.7995  1.4190 -1.1821
  224MOL0     H30209   3.400   6.053   5.675  0.5705  1.9994  0.5733
  224MOL0     H30210   3.181   5.851   5.740  0.4545 -6.5233 -2.5672
  224MOL0     H30211   3.319   5.804   5.659 -1.8266 -2.6206  3.1289
  224MOL0     H30212   3.107   5.999   5.549  0.1280 -0.6837  1.5113
  224MOL0     H30213   3.266   5.971   5.474 -0.4292 -0.4882 -2.7777
  224MOL0     H30214   3.207   5.721   5.456 -0.8940 -1.9556 -3.0796
  224MOL0     H30215   3.105   5.833   5.362  1.6342  4.6412  1.1086
  224MOL0     H30216   3.042   5.720   5.642  2.0053  1.2206 -0.4892
  224MOL0     H30217   2.935   5.842   5.556 -1.7557 -0.6462  0.2114
  224MOL0     H30218   3.000   5.562   5.473  0.8060 -0.3284  0.2137
  224MOL0     H30219   2.890   5.657   5.382  2.2256  3.2837 -0.2580
  224MOL0     H30220   2.730   5.659   5.577  0.2177 -0.0967 -3.4920
  224MOL0     H30221   2.838   5.541   5.662  0.3453 -0.5662  0.1040
  224MOL0     H30222   3.496   5.963   6.098 -0.7701  1.9041 -1.4037
  224MOL0     H30223   3.557   6.014   6.346  2.2009  1.7489 -0.1270
  224MOL0     H30224   3.744   6.441   6.607  0.4970 -0.9917  0.9557
  224MOL0     H30225   3.797   6.499   6.842 -0.4538  0.3496  1.5657
  224MOL0     H30226   3.022   6.490   7.428  0.3530 -0.0850  0.0753
  224MOL0     H30227   3.019   6.549   7.162  0.4420  0.9823 -1.0168
  224MOL0     H30228   3.358   6.420   6.735  2.7257  0.3026 -2.3785
  224MOL0     H30229   3.368   6.491   6.509 -1.4337 -1.7784  0.3299
  224MOL0     H30230   3.035   6.724   6.399 -0.5595  2.1452 -0.2070
  224MOL0     H30231   3.158   6.859   6.355  0.0083 -0.1724  0.0703
  224MOL0     H30232   3.054   6.757   6.147 -2.0679  0.0391  2.0727
  224MOL0     H30233   3.132   6.598   6.192  2.3314 -0.0199 -3.4343
  224MOL0     H30234   3.346   6.727   6.198  0.3779  3.0549  1.1765
  224MOL0     H30235   3.259   6.864   6.138 -4.6795 -0.2398  1.2341
  224MOL0     H30236   3.236   6.609   5.993 -0.4277 -0.8489  2.2675
  224MOL0     H30237   3.378   6.699   5.950  0.7900  1.3569  0.8186
  224MOL0     H30238   3.109   6.929   5.741 -0.1317 -0.5437 -0.0937
  224MOL0     H30239   3.135   6.840   6.615  0.2867  1.1037  1.4103
  224MOL0     H30240   3.134   6.786   6.836 -1.7509 -1.2331  0.4431
  225MOL0     O30241   9.022   4.962   8.904  0.4675 -0.5246 -0.4094
  225MOL0     C30242   9.064   4.881   8.984 -0.2293  0.5634 -0.3937
  225MOL0     O30243   9.149   4.913   9.096 -0.9168 -0.4474  0.3197
  225MOL0     C30244   9.147   5.042   9.147 -0.0695 -0.3132 -0.3761
  225MOL0     C30245   9.042   5.127   9.153 -0.8868 -0.1691  0.0023
  225MOL0     C30246   9.042   5.259   9.208 -0.1844  0.0463  0.0927
  225MOL0     C30247   9.160   5.316   9.258  1.2666  0.0320 -0.8993
  225MOL0     O30248   9.165   5.442   9.319  0.0001 -0.5041  0.4737
  225MOL0     C30249   9.120   5.546   9.238 -0.4324  0.5381  0.0479
  225MOL0     C30250   9.126   5.674   9.312  0.2330 -1.6144 -1.5422
  225MOL0     C30251   9.084   5.674   9.464  0.3891 -0.6430 -0.1521
  225MOL0     C30252   8.956   5.760   9.494 -0.9337 -0.0487 -0.1881
  225MOL0     C30253   8.897   5.718   9.623  1.6585  0.0264  0.0400
  225MOL0     C30254   8.765   5.802   9.653  0.2934  0.4015  0.3100
  225MOL0     C30255   8.698   5.776   9.794 -0.2264  0.4137  0.2430
  225MOL0     C30256   8.577   5.686   9.788  1.1305 -0.0917 -1.2048
  225MOL0     N30257   8.532   5.632   9.916  0.2292  0.5724 -0.0166
  225MOL0     C30258   8.523   5.703  10.036 -0.2282 -0.0635  0.0964
  225MOL0     C30259   8.496   5.613  10.128 -0.1821  0.3992  0.0706
  225MOL0     C30260   8.455   5.647  10.269 -0.1197 -0.2091  0.4710
  225MOL0     C30261   8.573   5.686  10.356  0.5532 -0.2390 -0.0613
  225MOL0     C30262   8.519   5.721  10.501 -0.0339 -0.5323 -0.3290
  225MOL0     C30263   8.639   5.760  10.579  0.0637  0.0936  0.4788
  225MOL0     O30264   8.700   5.637  10.613 -0.1560 -0.0132  0.7387
  225MOL0     C30265   8.757   5.625  10.739 -0.6277  0.1615  0.5870
  225MOL0     C30266   8.734   5.509  10.805 -0.5233 -0.1547  0.7526
  225MOL0     C30267   8.772   5.492  10.933 -0.0305  0.5566 -0.5040
  225MOL0     C30268   8.718   5.365  11.000  0.7342  0.3017 -0.8740
  225MOL0     C30269   8.872   5.575  10.994 -0.2878  0.0463 -0.1689
  225MOL0     C30270   8.926   5.558  11.135 -0.1172 -0.0473 -0.8274
  225MOL0     O30271   8.897   5.449  11.209 -0.8477  0.5272 -0.3520
  225MOL0     C30272   8.918   5.427  11.338  0.9961  0.1679 -0.4361
  225MOL0     C30273   8.929   5.283  11.368  1.2210 -0.8605 -0.4926
  225MOL0     C30274   8.936   5.246  11.498  0.6645  0.4771  0.4453
  225MOL0     C30275   8.944   5.340  11.600 -0.7025 -0.4910 -0.7400
  225MOL0     O30276   8.954   5.322  11.736  0.5710  0.7674  0.5520
  225MOL0     C30277   9.012   5.199  11.790 -0.2212  0.5532  0.0705
  225MOL0     C30278   9.046   5.216  11.939  0.6191  0.6644  0.7625
  225MOL0     C30279   8.901   5.217  12.017 -0.3078 -0.8595 -0.2275
  225MOL0     C30280   8.909   5.189  12.166 -0.7919  0.3068  0.5154
  225MOL0     C30281   8.783   5.128  12.212 -0.0471  0.2842  0.0193
  225MOL0     C30282   8.772   5.146  12.363 -0.7633  0.1892  0.4685
  225MOL0     C30283   8.638   5.096  12.421  0.0930  0.1240  0.1072
  225MOL0     C30284   8.604   5.132  12.559 -0.8339  0.9607 -0.1966
  225MOL0    Cl30285   8.514   5.005  12.640  0.3965 -0.0067 -0.1800
  225MOL0     C30286   8.936   5.481  11.569  0.0416  0.0976  0.0576
  225MOL0     C30287   8.918   5.522  11.445 -0.6403 -0.7176 -0.0398
  225MOL0     O30288   9.012   5.630  11.173  0.1582 -0.1284 -0.2593
  225MOL0     C30289   8.910   5.690  10.920 -0.7736 -0.1998 -0.2846
  225MOL0     C30290   8.851   5.712  10.790  0.1163 -0.4452 -0.3551
  225MOL0     N30291   8.499   5.489  10.065  0.7856  0.5597 -0.6674
  225MOL0     N30292   8.514   5.498   9.942 -0.6623 -0.6214  0.1240
  225MOL0     C30293   9.268   5.233   9.259 -0.0916  0.4337 -0.9841
  225MOL0     C30294   9.260   5.098   9.207 -0.1733  0.9660  0.0196
  225MOL0     C30295   9.047   4.733   8.946  0.7168 -0.4308  0.9505
  225MOL0     C30296   9.129   4.633   8.998 -0.8802 -0.0153  0.1292
  225MOL0     C30297   9.125   4.499   8.957  0.3861  0.6875  0.7102
  225MOL0     C30298   9.033   4.467   8.850 -0.7821  0.6441 -0.6901
  225MOL0     O30299   9.048   4.341   8.796  0.0311  0.0588 -0.5563
  225MOL0     C30300   8.988   4.297   8.678  0.5871 -0.0428  0.0661
  225MOL0     C30301   8.840   4.251   8.693 -0.2133 -0.5148 -0.0443
  225MOL0     C30302   8.781   4.166   8.579  0.0743  0.9107  0.4029
  225MOL0     C30303   8.823   4.024   8.566  0.0368 -0.0719  0.0242
  225MOL0     C30304   8.755   3.941   8.468  0.8271  0.0132 -1.0346
  225MOL0     C30305   8.685   3.872   8.394  0.5260  0.6149 -0.3586
  225MOL0     C30306   8.952   4.566   8.799 -0.5465 -0.3537  0.8240
  225MOL0     C30307   8.953   4.700   8.847  0.3258 -0.1082  0.0855
  225MOL0     H30308   8.950   5.075   9.126 -1.4131  0.1259  1.1776
  225MOL0     H30309   8.948   5.314   9.210  0.9256  1.9967  1.0309
  225MOL0     H30310   9.187   5.551   9.152  1.1484 -0.8130  1.1290
  225MOL0     H30311   9.022   5.517   9.198 -0.6689  0.7751  0.4448
  225MOL0     H30312   9.229   5.710   9.317 -0.9127  1.9687 -0.3560
  225MOL0     H30313   9.065   5.739   9.249 -1.9073 -3.2104 -1.2357
  225MOL0     H30314   9.076   5.570   9.496 -2.1798 -1.1257 -2.0758
  225MOL0     H30315   9.158   5.727   9.525  1.0625  0.5821 -1.9293
  225MOL0     H30316   8.998   5.862   9.494  0.7214 -0.7013 -0.7782
  225MOL0     H30317   8.887   5.740   9.412 -2.1598  1.7169  0.3421
  225MOL0     H30318   8.867   5.614   9.634  0.1881  0.5388  1.3804
  225MOL0     H30319   8.968   5.745   9.702  0.3659 -2.7294  2.2907
  225MOL0     H30320   8.781   5.908   9.632  0.5897  0.6922  1.8751
  225MOL0     H30321   8.695   5.770   9.575 -0.7813  0.3420  1.2683
  225MOL0     H30322   8.777   5.727   9.852 -0.8112 -0.4399  0.3519
  225MOL0     H30323   8.669   5.859   9.858 -2.0501 -2.7816  4.0362
  225MOL0     H30324   8.588   5.602   9.718 -1.0556 -1.0202 -0.5130
  225MOL0     H30325   8.490   5.736   9.744  0.4386  0.1213  0.3428
  225MOL0     H30326   8.542   5.810  10.041 -0.2885 -0.0636  0.3245
  225MOL0     H30327   8.385   5.731  10.269 -0.7932 -0.7610 -0.0422
  225MOL0     H30328   8.398   5.566  10.316  0.8717 -0.0090  2.1138
  225MOL0     H30329   8.623   5.773  10.314  0.2185  1.6227  3.0499
  225MOL0     H30330   8.644   5.603  10.368  0.8505  0.0794  0.4302
  225MOL0     H30331   8.470   5.632  10.544  1.7312 -1.0514  0.7056
  225MOL0     H30332   8.441   5.798  10.499  2.6076  2.4193  1.1527
  225MOL0     H30333   8.600   5.826  10.657  1.7361  1.1470  0.4712
  225MOL0     H30334   8.710   5.827  10.529 -0.3665  1.2047  1.3095
  225MOL0     H30335   8.668   5.446  10.746  0.5244  1.5751 -2.5271
  225MOL0     H30336   8.681   5.398  11.097  0.1732 -1.2967 -0.5134
  225MOL0     H30337   8.628   5.334  10.947  0.1243  1.6411 -0.6815
  225MOL0     H30338   8.790   5.284  11.012 -0.1523 -0.2090  1.5086
  225MOL0     H30339   8.903   5.214  11.287 -2.5302 -1.4146  0.9635
  225MOL0     H30340   8.930   5.137  11.504 -2.4229  0.5232  0.0146
  225MOL0     H30341   8.950   5.109  11.787 -2.0401  1.4568  3.7719
  225MOL0     H30342   9.103   5.186  11.733 -1.7748 -0.3039 -2.3620
  225MOL0     H30343   9.096   5.132  11.988 -0.3451  1.2320  2.8745
  225MOL0     H30344   9.114   5.298  11.965  2.5909 -0.9045  0.7655
  225MOL0     H30345   8.831   5.150  11.965 -3.3092  1.4974  0.5020
  225MOL0     H30346   8.856   5.316  12.009  1.1766  0.1466  2.7130
  225MOL0     H30347   8.997   5.128  12.186 -0.3922  0.5288 -0.5005
  225MOL0     H30348   8.928   5.282  12.220 -0.0147 -0.6815  2.0130
  225MOL0     H30349   8.762   5.034  12.159  3.5349 -0.1920 -0.8646
  225MOL0     H30350   8.702   5.193  12.181 -1.7167 -1.1858  1.1124
  225MOL0     H30351   8.850   5.083  12.406 -0.6754  1.3648  2.1375
  225MOL0     H30352   8.789   5.250  12.392  0.3164  0.3999 -0.8252
  225MOL0     H30353   8.635   4.987  12.415 -1.0941  0.1692 -0.2410
  225MOL0     H30354   8.557   5.128  12.356  2.8668  0.7391 -3.3949
  225MOL0     H30355   8.568   5.232  12.582 -2.4215  0.6233 -1.0823
  225MOL0     H30356   8.695   5.120  12.620 -2.0108  0.4797  1.5446
  225MOL0     H30357   8.936   5.544  11.658 -3.7491 -1.8446  1.6243
  225MOL0     H30358   8.900   5.629  11.440 -1.9187 -0.7402  2.5798
  225MOL0     H30359   8.981   5.760  10.965  2.1693 -0.5977 -3.8025
  225MOL0     H30360   8.883   5.798  10.731 -1.6548 -0.6966 -1.7742
  225MOL0     H30361   9.363   5.266   9.301 -0.1673 -0.8624  0.2947
  225MOL0     H30362   9.336   5.022   9.219 -1.1841  0.2634  2.6893
  225MOL0     H30363   9.203   4.649   9.076  0.0204 -1.7085 -0.3222
  225MOL0     H30364   9.202   4.426   8.979 -0.1352 -0.8667 -2.0740
  225MOL0     H30365   9.009   4.357   8.589  2.6345 -0.4261  0.2218
  225MOL0     H30366   9.030   4.201   8.648 -0.6344  0.3806 -3.4091
  225MOL0     H30367   8.779   4.342   8.702 -0.7480 -0.6809 -1.6278
  225MOL0     H30368   8.826   4.193   8.784  2.6433  0.3799  1.0494
  225MOL0     H30369   8.779   4.224   8.486  0.6674  2.1456  1.1295
  225MOL0     H30370   8.676   4.162   8.611 -1.0048 -1.3788 -2.9248
  225MOL0     H30371   8.814   3.960   8.655  1.7224  0.2737  0.4868
  225MOL0     H30372   8.924   4.030   8.522  0.0764  5.2890  0.2775
  225MOL0     H30373   8.619   3.827   8.323 -2.6051  5.2284 -0.7955
  225MOL0     H30374   8.894   4.536   8.712  0.9055 -2.8468  0.6077
  225MOL0     H30375   8.876   4.766   8.810 -0.3266 -0.4863  0.7498
  226MOL0     O30376   8.307   9.365  11.003 -0.5289  0.3652 -0.7849
  226MOL0     C30377   8.203   9.400  11.053 -0.4856  0.3822 -0.5640
  226MOL0     O30378   8.145   9.527  11.049  0.9257  0.1910 -0.1033
  226MOL0     C30379   8.210   9.629  10.977 -0.2388 -0.3750  0.1111
  226MOL0     C30380   8.217   9.767  11.019  1.2040  0.7331  0.1724
  226MOL0     C30381   8.253   9.860  10.925  0.0528 -0.7019 -0.0312
  226MOL0     C30382   8.307   9.835  10.799 -0.0266 -0.3382  0.0402
  226MOL0     O30383   8.351   9.932  10.712 -0.3445  0.0674 -0.1423
  226MOL0     C30384   8.354   9.912  10.570  0.0019  0.0101 -0.1485
  226MOL0     C30385   8.210   9.947  10.520  0.0878  0.1011 -0.6610
  226MOL0     C30386   8.175  10.097  10.532 -0.1065 -0.4084 -0.1241
  226MOL0     C30387   8.150  10.153  10.390 -0.0151 -0.8100 -0.0740
  226MOL0     C30388   8.135  10.309  10.388 -0.5297 -0.6279  0.3340
  226MOL0     C30389   8.097  10.363  10.245  0.7845  0.5331 -0.7422
  226MOL0     C30390   8.088  10.509  10.245 -0.0124 -0.0412  0.5586
  226MOL0     C30391   7.965  10.558  10.325 -0.5468  0.0819  0.4037
  226MOL0     N30392   7.912  10.682  10.279 -0.2414 -0.0565  0.8566
  226MOL0     C30393   7.981  10.802  10.294  0.6203 -0.4565 -0.4680
  226MOL0     C30394   7.896  10.891  10.249 -0.6381  0.4761  0.0585
  226MOL0     C30395   7.926  11.039  10.249  0.7122  0.2142 -0.4756
  226MOL0     C30396   7.906  11.107  10.107 -0.2186 -0.2431 -0.2385
  226MOL0     C30397   7.760  11.128  10.069 -0.3941 -0.7118  0.4898
  226MOL0     C30398   7.742  11.193   9.931 -1.1912  0.2098 -0.8108
  226MOL0     O30399   7.722  11.082   9.835 -0.2094 -0.0443 -0.6184
  226MOL0     C30400   7.596  11.028   9.820 -0.0190 -0.4747 -0.3578
  226MOL0     C30401   7.477  11.044   9.895  0.3952 -0.1650  0.7634
  226MOL0     C30402   7.363  10.959   9.879 -0.3606 -0.6682 -0.2316
  226MOL0     C30403   7.240  10.986   9.975 -0.0682 -0.9717  0.4390
  226MOL0     C30404   7.371  10.847   9.785 -0.2155 -0.6046  0.2776
  226MOL0     C30405   7.267  10.757   9.742  0.2017 -0.3299  0.2494
  226MOL0     O30406   7.292  10.656   9.657  0.0130 -0.4946  0.4517
  226MOL0     C30407   7.203  10.551   9.659 -0.7585 -0.5866  1.3548
  226MOL0     C30408   7.098  10.512   9.742  0.2963 -0.4591  0.8951
  226MOL0     C30409   7.036  10.389   9.734 -0.5681  0.4149 -0.9763
  226MOL0     C30410   7.079  10.301   9.635 -0.4948  0.1965  0.3919
  226MOL0     O30411   7.046  10.170   9.614 -0.0945 -0.7205 -0.2468
  226MOL0     C30412   6.962  10.108   9.711 -0.0194  0.1799 -0.0524
  226MOL0     C30413   6.924   9.962   9.678 -0.1615 -0.7064 -0.1554
  226MOL0     C30414   6.796   9.914   9.743  0.0591  0.2432  0.4145
  226MOL0     C30415   6.797   9.938   9.886 -0.3334 -0.1016 -1.0588
  226MOL0     C30416   6.709   9.842   9.972 -0.2379  0.1550  0.5026
  226MOL0     C30417   6.566   9.857   9.935 -1.1266 -0.2148  0.0875
  226MOL0     C30418   6.484   9.751  10.022 -0.3423  0.1777 -0.4740
  226MOL0     C30419   6.345   9.721   9.963 -0.3949  0.8468 -0.2024
  226MOL0    Cl30420   6.327   9.682   9.796  0.6627 -0.1185 -0.1618
  226MOL0     C30421   7.183  10.341   9.551 -0.0675  0.0822 -0.1702
  226MOL0     C30422   7.251  10.466   9.561 -0.0218  0.3962  0.0182
  226MOL0     O30423   7.160  10.783   9.794  0.5564  0.5939  0.2494
  226MOL0     C30424   7.489  10.839   9.718 -0.1825  0.9137  0.5021
  226MOL0     C30425   7.601  10.925   9.729  0.7677 -0.0106 -0.1626
  226MOL0     N30426   7.787  10.823  10.201 -0.1180 -0.1404 -0.7170
  226MOL0     N30427   7.797  10.700  10.212 -0.3154 -0.0711  0.2612
  226MOL0     C30428   8.306   9.699  10.768  0.6931  0.7241  0.0103
  226MOL0     C30429   8.259   9.599  10.851  0.1093  0.1097 -0.4017
  226MOL0     C30430   8.127   9.296  11.126  0.0012  0.2585  0.1365
  226MOL0     C30431   8.178   9.169  11.133  0.0781  0.2425 -0.3123
  226MOL0     C30432   8.104   9.059  11.185  1.1603 -0.0865 -0.5969
  226MOL0     C30433   7.974   9.070  11.246 -0.1392 -0.5331  0.0338
  226MOL0     O30434   7.908   8.955  11.302  0.2739  0.0642  0.3597
  226MOL0     C30435   7.770   8.969  11.354 -0.3348 -0.0282  0.9846
  226MOL0     C30436   7.666   9.006  11.237  0.2782 -0.4539  0.4619
  226MOL0     C30437   7.517   9.047  11.296 -0.2680 -0.0345  0.1266
  226MOL0     C30438   7.521   9.181  11.376 -0.3393 -0.0147 -0.0656
  226MOL0     C30439   7.563   9.304  11.307  1.2442 -0.3151 -0.2755
  226MOL0     C30440   7.608   9.400  11.252  0.8361 -0.0654  0.0542
  226MOL0     C30441   7.934   9.208  11.256  0.1311 -0.0513 -0.0536
  226MOL0     C30442   8.004   9.314  11.194 -0.1764 -0.1457 -0.2205
  226MOL0     H30443   8.181   9.791  11.119 -2.3370 -0.2705 -0.6913
  226MOL0     H30444   8.225   9.962  10.951 -2.8509 -1.0120 -1.5042
  226MOL0     H30445   8.421   9.985  10.525 -0.5888 -0.8480 -2.5642
  226MOL0     H30446   8.388   9.814  10.535  0.6165  0.3997 -0.6654
  226MOL0     H30447   8.186   9.927  10.416 -4.6929  1.0445  0.0428
  226MOL0     H30448   8.145   9.882  10.579  0.0765 -2.1647 -3.0161
  226MOL0     H30449   8.092  10.127  10.597  0.7846 -1.8089  1.7704
  226MOL0     H30450   8.265  10.142  10.575  0.5423 -0.7147 -1.1331
  226MOL0     H30451   8.241  10.128  10.335  0.8217  1.0971  0.3565
  226MOL0     H30452   8.060  10.111  10.343 -1.0466  2.9138 -1.7835
  226MOL0     H30453   8.062  10.347  10.460  2.1564  2.4692  1.6536
  226MOL0     H30454   8.231  10.343  10.427  0.1182 -1.8317 -0.1394
  226MOL0     H30455   8.166  10.319  10.172  1.8811  0.5017  0.2901
  226MOL0     H30456   7.996  10.331  10.215  1.1106 -2.2784  0.7728
  226MOL0     H30457   8.182  10.537  10.293  0.5576 -0.3171 -0.3835
  226MOL0     H30458   8.082  10.552  10.145  0.3716  1.8119  1.3015
  226MOL0     H30459   8.000  10.576  10.426 -1.2565  1.6331  0.4076
  226MOL0     H30460   7.886  10.482  10.328  1.5683 -2.2088  0.7619
  226MOL0     H30461   8.079  10.822  10.336  1.2583  0.6709 -2.3544
  226MOL0     H30462   7.864  11.088  10.324  3.3396  1.3531  1.0769
  226MOL0     H30463   8.028  11.055  10.284  0.8712  0.3098 -0.9639
  226MOL0     H30464   7.954  11.047  10.030  2.6964  0.3473  0.9991
  226MOL0     H30465   7.953  11.206  10.106 -1.2926  0.2908 -1.1699
  226MOL0     H30466   7.711  11.201  10.134  0.3993 -2.0941  2.7338
  226MOL0     H30467   7.695  11.040  10.072 -1.0620 -0.2164  0.9467
  226MOL0     H30468   7.834  11.248   9.910  0.5965 -2.9033 -1.8358
  226MOL0     H30469   7.654  11.259   9.933  1.1299  3.7320 -3.0333
  226MOL0     H30470   7.473  11.118   9.974 -0.1891  2.7385 -1.7719
  226MOL0     H30471   7.229  10.899  10.040  3.7536 -0.6785  1.7199
  226MOL0     H30472   7.261  11.077  10.032 -0.0638 -0.9410  0.3886
  226MOL0     H30473   7.147  10.999   9.919  0.0403 -1.9302  0.0278
  226MOL0     H30474   7.060  10.578   9.819 -1.2827  1.8021 -1.6407
  226MOL0     H30475   6.960  10.360   9.806  0.3866 -0.7596 -0.4151
  226MOL0     H30476   7.006  10.124   9.810 -2.9568  1.1955  1.2224
  226MOL0     H30477   6.869  10.164   9.722 -0.9513 -0.9175 -1.8971
  226MOL0     H30478   6.924   9.960   9.569  0.1983  5.4043 -0.6456
  226MOL0     H30479   7.006   9.899   9.714  0.4387  0.9764  1.5986
  226MOL0     H30480   6.793   9.807   9.718  1.2598  0.7404 -2.1770
  226MOL0     H30481   6.706   9.964   9.705 -0.7749 -0.7009  1.0604
  226MOL0     H30482   6.897   9.913   9.925 -1.1291  0.7883  1.8636
  226MOL0     H30483   6.767  10.042   9.904  0.1381  0.1878 -1.8788
  226MOL0     H30484   6.716   9.860  10.080 -1.6334  0.3262  0.5873
  226MOL0     H30485   6.750   9.745   9.944  0.6344  1.3846 -2.9846
  226MOL0     H30486   6.535   9.959   9.961  2.1127  0.4567  1.9577
  226MOL0     H30487   6.551   9.827   9.831 -3.4271 -2.5222  0.9829
  226MOL0     H30488   6.474   9.794  10.122  0.4440  0.8862 -0.6891
  226MOL0     H30489   6.529   9.652  10.039  3.0296  1.8622  1.4594
  226MOL0     H30490   6.286   9.813   9.973  0.4949  1.4652 -0.4678
  226MOL0     H30491   6.287   9.646  10.016  1.3587  0.8012  1.8144
  226MOL0     H30492   7.211  10.267   9.476  0.0941  1.2298 -1.2672
  226MOL0     H30493   7.334  10.483   9.494 -0.6058 -1.4725 -1.2566
  226MOL0     H30494   7.496  10.751   9.654  0.6663 -1.7232  3.9283
  226MOL0     H30495   7.693  10.905   9.675  2.4202  0.4583  2.3088
  226MOL0     H30496   8.345   9.659  10.674 -1.8276 -0.8783 -0.4638
  226MOL0     H30497   8.251   9.494  10.824 -0.0734 -0.9607  3.1969
  226MOL0     H30498   8.274   9.132  11.098 -0.2043  1.0900 -2.1035
  226MOL0     H30499   8.154   8.963  11.172 -2.1384 -2.0333 -0.1613
  226MOL0     H30500   7.745   8.872  11.398 -3.2267  0.5839  0.8944
  226MOL0     H30501   7.764   9.052  11.425 -1.2032  0.1941  0.6722
  226MOL0     H30502   7.664   8.917  11.172 -2.1628  1.5044 -2.4177
  226MOL0     H30503   7.710   9.080  11.169  2.0287 -1.9420 -0.1130
  226MOL0     H30504   7.479   8.962  11.354  3.0685 -3.1849 -1.9277
  226MOL0     H30505   7.441   9.058  11.218 -1.1491 -0.2013  0.9375
  226MOL0     H30506   7.584   9.161  11.464 -1.4791  2.1215  1.3135
  226MOL0     H30507   7.423   9.194  11.421 -1.4382 -3.1738 -1.2386
  226MOL0     H30508   7.651   9.475  11.188 -0.2159 -1.8536 -2.9223
  226MOL0     H30509   7.836   9.234  11.294 -0.0858  1.0532 -1.3011
  226MOL0     H30510   7.958   9.412  11.206 -0.5027 -0.5206  2.0270
  227MOL0     O30511   2.966   2.777   0.038  0.1246 -0.8214  0.2647
  227MOL0     C30512   2.992   2.839  -0.059  0.3601  0.3242  0.8845
  227MOL0     O30513   2.964   2.793  -0.191  0.1418 -0.2281  0.1445
  227MOL0     C30514   2.935   2.655  -0.201  1.0715 -0.5098  1.0261
  227MOL0     C30515   3.027   2.568  -0.263  0.5436 -0.3823 -0.7191
  227MOL0     C30516   3.003   2.435  -0.268 -0.3680  0.8631 -0.8982
  227MOL0     C30517   2.885   2.363  -0.223 -0.2765 -0.9168  0.0207
  227MOL0     O30518   2.848   2.231  -0.236 -0.4446 -0.3882 -0.5248
  227MOL0     C30519   2.894   2.164  -0.356 -0.0632 -0.0196  0.7247
  227MOL0     C30520   2.857   2.015  -0.359 -0.2586  0.3736  0.3362
  227MOL0     C30521   2.862   1.954  -0.502 -0.4099 -0.4945 -0.5590
  227MOL0     C30522   3.003   1.978  -0.563 -0.7426 -0.2555 -0.2130
  227MOL0     C30523   3.035   1.873  -0.679  0.9283  1.0262 -0.2820
  227MOL0     C30524   2.939   1.886  -0.798 -0.4479 -0.0548 -0.3098
  227MOL0     C30525   3.012   1.820  -0.923  0.4212  0.3783 -0.4640
  227MOL0     C30526   2.914   1.799  -1.035  1.4024 -0.7053 -0.3729
  227MOL0     N30527   2.882   1.918  -1.113  0.2185 -0.2045 -0.0291
  227MOL0     C30528   2.758   1.986  -1.112 -0.2744  0.9436 -0.5923
  227MOL0     C30529   2.780   2.089  -1.200  0.7991  0.1177 -0.6339
  227MOL0     C30530   2.661   2.174  -1.246 -0.8178  0.2382  0.2163
  227MOL0     C30531   2.699   2.299  -1.323 -0.1117  0.1378 -0.4418
  227MOL0     C30532   2.577   2.381  -1.361  0.2795 -0.3150 -0.5671
  227MOL0     C30533   2.532   2.455  -1.246  0.5005 -0.1944  0.5926
  227MOL0     O30534   2.469   2.579  -1.295  1.0901 -0.3340 -0.5654
  227MOL0     C30535   2.337   2.593  -1.320  0.7435 -0.0404 -1.1048
  227MOL0     C30536   2.286   2.722  -1.337 -0.1648  0.0024 -0.1696
  227MOL0     C30537   2.149   2.750  -1.336  0.1647 -0.0046 -0.3678
  227MOL0     C30538   2.113   2.894  -1.378  0.2468  0.2601 -0.0754
  227MOL0     C30539   2.060   2.639  -1.343 -0.3930 -0.2809 -0.2690
  227MOL0     C30540   1.906   2.653  -1.348  0.1038  0.0845  0.5673
  227MOL0     O30541   1.840   2.529  -1.338  0.2213 -0.0050 -0.2254
  227MOL0     C30542   1.719   2.500  -1.269  0.5993  0.3232  0.0924
  227MOL0     C30543   1.663   2.373  -1.290 -0.1493 -0.4100  0.2785
  227MOL0     C30544   1.540   2.344  -1.228 -0.1789 -0.2826  1.0446
  227MOL0     C30545   1.465   2.444  -1.162  0.9522 -0.1621 -0.2826
  227MOL0     O30546   1.339   2.419  -1.116  0.5571 -0.3222  0.0786
  227MOL0     C30547   1.327   2.339  -1.000  0.4061 -0.1188  0.4056
  227MOL0     C30548   1.189   2.342  -0.941  0.5885 -1.0014 -0.5601
  227MOL0     C30549   1.180   2.255  -0.819 -0.1581  0.3788  0.0601
  227MOL0     C30550   1.173   2.104  -0.855 -0.6516 -0.2909  0.0567
  227MOL0     C30551   1.187   2.019  -0.727  0.0885  0.6613 -0.1839
  227MOL0     C30552   1.166   1.868  -0.759  0.3608 -1.2273 -0.4934
  227MOL0     C30553   1.174   1.795  -0.627 -0.1309 -0.0580 -0.1437
  227MOL0     C30554   1.184   1.649  -0.653  0.3764  0.2013  0.2722
  227MOL0    Cl30555   1.003   1.592  -0.680 -0.2543  0.0018 -0.1504
  227MOL0     C30556   1.517   2.570  -1.143  0.5509  0.3814 -0.0704
  227MOL0     C30557   1.644   2.599  -1.198  0.3217 -0.0957  0.3927
  227MOL0     O30558   1.844   2.764  -1.348 -0.4081  0.4490 -0.2408
  227MOL0     C30559   2.115   2.509  -1.341 -0.8931  0.4698  0.0543
  227MOL0     C30560   2.253   2.489  -1.327  0.3793  0.6284 -0.4431
  227MOL0     N30561   2.913   2.083  -1.245  0.1193  0.4115 -0.6986
  227MOL0     N30562   2.964   1.981  -1.193 -0.4419  0.6700 -0.3555
  227MOL0     C30563   2.797   2.453  -0.151 -0.4500 -0.2701  0.6667
  227MOL0     C30564   2.820   2.592  -0.152  0.6525  0.4031 -0.1568
  227MOL0     C30565   3.052   2.966  -0.036 -0.4038 -1.2599 -0.1632
  227MOL0     C30566   3.136   3.008   0.076  1.1017  0.4115  0.5107
  227MOL0     C30567   3.177   3.143   0.096 -1.3470  0.5689 -0.1709
  227MOL0     C30568   3.165   3.240  -0.003 -0.9852 -0.5248 -0.1586
  227MOL0     O30569   3.216   3.365  -0.005 -0.3496 -0.1187  0.2663
  227MOL0     C30570   3.249   3.428   0.122  0.4061  0.4317  0.8129
  227MOL0     C30571   3.342   3.547   0.091  0.1468 -0.4251 -0.4491
  227MOL0     C30572   3.328   3.664   0.196 -0.1718 -0.1367 -0.3698
  227MOL0     C30573   3.432   3.769   0.168 -0.5843 -0.0505  0.2566
  227MOL0     C30574   3.436   3.868   0.277  0.0071  0.0035 -0.3619
  227MOL0     C30575   3.452   3.957   0.355 -0.1814 -0.0344 -0.1545
  227MOL0     C30576   3.111   3.195  -0.117 -0.3492  0.9196 -0.1181
  227MOL0     C30577   3.042   3.070  -0.139 -0.5392  0.1208  0.0300
  227MOL0     H30578   3.124   2.606  -0.297  1.5130 -0.3822  1.8706
  227MOL0     H30579   3.084   2.372  -0.305  0.1615  0.2577  1.1844
  227MOL0     H30580   2.858   2.215  -0.446  1.5266 -2.4185 -1.4330
  227MOL0     H30581   3.003   2.168  -0.351 -0.0185  0.2830 -0.2862
  227MOL0     H30582   2.939   1.974  -0.299 -0.3180 -2.5860 -1.4335
  227MOL0     H30583   2.762   1.985  -0.314 -0.2170 -4.3612 -2.1105
  227MOL0     H30584   2.840   1.847  -0.492 -0.7397 -0.2530  2.0432
  227MOL0     H30585   2.792   2.008  -0.567  0.7166  1.1049 -0.5178
  227MOL0     H30586   3.009   2.075  -0.611  0.7682 -1.6603 -3.1258
  227MOL0     H30587   3.081   1.972  -0.486 -0.5867 -0.9183 -0.4148
  227MOL0     H30588   3.138   1.890  -0.710  1.5204 -0.7209  0.6234
  227MOL0     H30589   3.025   1.769  -0.646 -1.6500  0.0741 -3.5891
  227MOL0     H30590   2.846   1.830  -0.782  0.8214 -2.4979 -0.9950
  227MOL0     H30591   2.914   1.992  -0.811  0.7833  0.2258 -0.4917
  227MOL0     H30592   3.093   1.877  -0.970  2.7666 -2.5985 -0.3323
  227MOL0     H30593   3.059   1.727  -0.891  0.2263  0.9855  1.7526
  227MOL0     H30594   2.825   1.754  -0.989  0.2849  1.1489 -0.5934
  227MOL0     H30595   2.956   1.729  -1.107 -2.9808 -1.7826 -2.2300
  227MOL0     H30596   2.671   1.940  -1.068  0.5390 -0.9962 -0.9063
  227MOL0     H30597   2.591   2.114  -1.305  0.7468 -0.8654 -0.5850
  227MOL0     H30598   2.613   2.199  -1.151  0.4182  0.0750  0.9040
  227MOL0     H30599   2.752   2.273  -1.415 -1.1995  1.6864 -1.5511
  227MOL0     H30600   2.779   2.357  -1.276 -0.1968 -0.3472  0.3118
  227MOL0     H30601   2.503   2.307  -1.393 -1.7244  2.1836 -2.0274
  227MOL0     H30602   2.591   2.446  -1.448 -3.3154  2.1658  0.5043
  227MOL0     H30603   2.611   2.477  -1.175 -0.1348  2.8441  0.5001
  227MOL0     H30604   2.463   2.393  -1.188  1.2181  0.0035  1.6836
  227MOL0     H30605   2.363   2.798  -1.340  0.7287 -0.8958 -3.2341
  227MOL0     H30606   2.053   2.944  -1.301 -2.0998  1.4761 -2.4871
  227MOL0     H30607   2.201   2.956  -1.398  1.3051 -1.2471 -0.2369
  227MOL0     H30608   2.053   2.882  -1.469  0.6981 -0.0191 -0.3372
  227MOL0     H30609   1.725   2.312  -1.354 -1.8233  1.7578 -3.7756
  227MOL0     H30610   1.506   2.241  -1.240  0.3068 -0.1097 -4.7429
  227MOL0     H30611   1.361   2.244  -1.040  0.6093  0.1398 -0.0449
  227MOL0     H30612   1.401   2.369  -0.925  4.3625  0.1487 -3.2795
  227MOL0     H30613   1.155   2.444  -0.919  2.7761 -0.6946  1.7232
  227MOL0     H30614   1.124   2.310  -1.024 -2.9963  1.9454  0.7851
  227MOL0     H30615   1.099   2.265  -0.746  0.5344 -2.8777  1.4880
  227MOL0     H30616   1.274   2.274  -0.766  1.0212 -1.2317 -1.3352
  227MOL0     H30617   1.087   2.074  -0.916 -1.7435  0.8350  0.9894
  227MOL0     H30618   1.255   2.086  -0.926  1.6158 -3.2904  3.1366
  227MOL0     H30619   1.129   2.046  -0.639  0.3238  2.8026 -0.6181
  227MOL0     H30620   1.289   2.032  -0.690 -0.2860 -1.3868  1.7670
  227MOL0     H30621   1.066   1.858  -0.804  1.4740  0.7422 -3.7390
  227MOL0     H30622   1.241   1.833  -0.830 -1.6307 -2.2970 -2.2011
  227MOL0     H30623   1.083   1.812  -0.569 -0.1331 -0.4514 -0.0315
  227MOL0     H30624   1.262   1.826  -0.570  0.3559  0.6083 -1.2121
  227MOL0     H30625   1.224   1.591  -0.570  1.3774  0.2249 -0.1818
  227MOL0     H30626   1.234   1.628  -0.748 -0.0895  2.6837 -0.5931
  227MOL0     H30627   1.457   2.644  -1.090 -0.9684 -0.6256 -0.3382
  227MOL0     H30628   1.683   2.700  -1.185  2.3224 -0.7798  0.0660
  227MOL0     H30629   2.056   2.419  -1.352 -1.9208  1.1673 -0.2518
  227MOL0     H30630   2.285   2.388  -1.307 -0.8991  0.0907 -0.9639
  227MOL0     H30631   2.708   2.417  -0.100 -0.2523 -0.3337  0.9702
  227MOL0     H30632   2.750   2.647  -0.090 -1.3598 -1.8443 -0.3095
  227MOL0     H30633   3.149   2.941   0.160 -0.8169 -1.3491 -0.5257
  227MOL0     H30634   3.219   3.177   0.191  0.9105 -1.4665 -0.3610
  227MOL0     H30635   3.156   3.467   0.165  0.2927  1.9244 -0.6654
  227MOL0     H30636   3.307   3.367   0.192  0.4817  0.7384  1.0163
  227MOL0     H30637   3.298   3.596   0.004  2.4245  2.5261 -0.1432
  227MOL0     H30638   3.446   3.514   0.080  0.6343 -0.0854  2.3295
  227MOL0     H30639   3.336   3.621   0.296 -3.3944 -3.1228 -1.2149
  227MOL0     H30640   3.234   3.718   0.187  0.7429  1.8750  1.2545
  227MOL0     H30641   3.409   3.817   0.073  0.5429  3.7323  1.7087
  227MOL0     H30642   3.530   3.719   0.164 -1.0744 -0.9827 -3.1827
  227MOL0     H30643   3.451   4.044   0.418  2.3499  0.5402 -0.8103
  227MOL0     H30644   3.108   3.266  -0.199  0.9588 -1.5320 -2.4658
  227MOL0     H30645   2.990   3.048  -0.232 -0.4482 -0.1913  0.0515
  228MOL0     O30646   6.279   4.258   5.150  0.2971  0.5203  0.0074
  228MOL0     C30647   6.241   4.147   5.116 -0.2850  0.2922  0.4608
  228MOL0     O30648   6.253   4.034   5.194  0.0315 -1.2853 -0.0530
  228MOL0     C30649   6.302   4.027   5.319  0.7719 -0.9336  1.1514
  228MOL0     C30650   6.258   4.105   5.423  0.0319  1.3579  0.6810
  228MOL0     C30651   6.311   4.085   5.551 -0.2653 -0.1593 -0.5764
  228MOL0     C30652   6.409   3.983   5.576 -0.2298 -0.6544 -0.0872
  228MOL0     O30653   6.444   3.949   5.703  0.0698  0.4683 -0.6289
  228MOL0     C30654   6.532   3.834   5.712  0.0189  0.5439  0.0480
  228MOL0     C30655   6.520   3.775   5.855 -0.2698 -0.0126 -0.7074
  228MOL0     C30656   6.580   3.852   5.976  0.3780 -0.1240  0.6975
  228MOL0     C30657   6.572   3.772   6.111 -0.0432 -0.1670 -0.5649
  228MOL0     C30658   6.708   3.792   6.192  0.1552  0.2776 -0.1906
  228MOL0     C30659   6.725   3.935   6.246 -0.1667 -0.3108 -0.5143
  228MOL0     C30660   6.623   3.964   6.362 -0.4342 -0.2782 -0.0267
  228MOL0     C30661   6.673   4.092   6.437 -0.1102  0.2469 -0.2769
  228MOL0     N30662   6.570   4.138   6.531  0.2161 -0.3268 -0.3167
  228MOL0     C30663   6.572   4.145   6.664 -0.2336  1.8026 -0.1245
  228MOL0     C30664   6.490   4.246   6.698  0.7293 -0.8249  0.0849
  228MOL0     C30665   6.452   4.297   6.838 -0.2385 -0.5417  0.2046
  228MOL0     C30666   6.518   4.432   6.857 -0.2423 -0.0340 -0.4399
  228MOL0     C30667   6.669   4.431   6.827  0.3964 -0.0494 -0.2086
  228MOL0     C30668   6.741   4.345   6.920  0.0703  0.4491 -0.5149
  228MOL0     O30669   6.727   4.406   7.055  0.3017 -0.1297 -0.3564
  228MOL0     C30670   6.803   4.370   7.171 -0.2201 -0.7175  0.2962
  228MOL0     C30671   6.746   4.427   7.283  0.2809  0.3545 -0.4182
  228MOL0     C30672   6.793   4.401   7.415  0.1534 -0.0412 -0.9147
  228MOL0     C30673   6.712   4.458   7.534 -0.6179 -0.1752  0.6331
  228MOL0     C30674   6.912   4.322   7.424  0.6716  0.9514  0.1440
  228MOL0     C30675   6.977   4.291   7.554 -0.5706 -0.6278  0.0027
  228MOL0     O30676   6.948   4.388   7.651 -0.3966  0.1699 -0.3223
  228MOL0     C30677   7.033   4.392   7.757  0.2749  1.0464  0.9401
  228MOL0     C30678   7.001   4.326   7.874  0.3872 -0.2111  0.6483
  228MOL0     C30679   7.091   4.308   7.979  0.2774  0.4028  0.3503
  228MOL0     C30680   7.216   4.364   7.978  0.3354  1.2550  0.9747
  228MOL0     O30681   7.309   4.333   8.069  0.0330  0.1174 -0.6349
  228MOL0     C30682   7.450   4.321   8.020 -0.3518  0.1217 -0.2874
  228MOL0     C30683   7.534   4.240   8.108  0.1465  0.2148 -0.9728
  228MOL0     C30684   7.480   4.096   8.113 -0.2561  0.3622 -0.9551
  228MOL0     C30685   7.569   3.980   8.159 -0.6255  1.0145  0.3744
  228MOL0     C30686   7.495   3.841   8.142 -0.0228  0.7032  0.5734
  228MOL0     C30687   7.396   3.811   8.245 -0.4838  1.1347 -0.7751
  228MOL0     C30688   7.324   3.680   8.233 -0.0071  0.0307  0.2845
  228MOL0     C30689   7.245   3.659   8.098  0.6090  0.8455  0.2011
  228MOL0    Cl30690   7.098   3.780   8.085  0.1603  0.4353  0.5003
  228MOL0     C30691   7.247   4.444   7.854 -1.0507 -0.6315 -0.1003
  228MOL0     C30692   7.158   4.444   7.743  0.0641  0.5820  0.2820
  228MOL0     O30693   7.063   4.200   7.561 -0.7363  0.0145  0.0728
  228MOL0     C30694   6.954   4.257   7.305  0.1329  0.0382  0.1130
  228MOL0     C30695   6.904   4.284   7.178  0.0454  0.4211  0.7274
  228MOL0     N30696   6.436   4.297   6.582 -1.5228 -0.7900  0.9635
  228MOL0     N30697   6.480   4.229   6.490  0.0690  0.0925 -0.4152
  228MOL0     C30698   6.448   3.909   5.461  0.0408  0.1378 -0.7129
  228MOL0     C30699   6.395   3.930   5.340  0.2350 -0.2419  0.2501
  228MOL0     C30700   6.198   4.133   4.981  0.0709  0.8127 -0.4873
  228MOL0     C30701   6.140   4.244   4.907 -0.4061  0.1661 -0.4407
  228MOL0     C30702   6.097   4.229   4.776 -0.3881  0.4922 -0.8600
  228MOL0     C30703   6.098   4.108   4.707  0.1388  0.5131 -0.4552
  228MOL0     O30704   6.058   4.096   4.579 -0.1542 -0.0749  0.2712
  228MOL0     C30705   5.967   3.993   4.539  0.4510 -0.4924  0.5093
  228MOL0     C30706   5.826   4.019   4.581  1.0787 -0.0974  0.6200
  228MOL0     C30707   5.789   4.175   4.554  0.3583  0.6417 -1.1483
  228MOL0     C30708   5.816   4.230   4.414  0.1434  0.2833  0.4252
  228MOL0     C30709   5.722   4.160   4.317 -0.1816 -0.4950  0.0832
  228MOL0     C30710   5.670   4.086   4.237  0.0424 -0.3751 -0.7261
  228MOL0     C30711   6.157   4.001   4.779 -0.0658  0.3597  0.6436
  228MOL0     C30712   6.205   4.010   4.917 -0.1188  0.0997  0.8485
  228MOL0     H30713   6.182   4.182   5.408 -0.3094  0.5696 -2.3755
  228MOL0     H30714   6.283   4.147   5.636 -2.0495 -2.8635  0.9703
  228MOL0     H30715   6.509   3.750   5.645 -1.6833  0.7998  0.2464
  228MOL0     H30716   6.632   3.863   5.679  1.1504 -1.5955  1.3918
  228MOL0     H30717   6.412   3.766   5.872  0.0395  0.7904  2.2964
  228MOL0     H30718   6.567   3.677   5.862  2.3928  1.2933  1.8847
  228MOL0     H30719   6.685   3.865   5.948  0.2385  0.4203  0.4215
  228MOL0     H30720   6.536   3.951   5.987 -1.1703 -0.8851  1.5880
  228MOL0     H30721   6.487   3.813   6.167  0.5856  1.4697 -0.7608
  228MOL0     H30722   6.558   3.664   6.099 -2.5741  0.1276 -0.9689
  228MOL0     H30723   6.706   3.717   6.272  2.6357 -1.0257 -1.2412
  228MOL0     H30724   6.795   3.764   6.132 -1.1473 -1.5581 -1.3254
  228MOL0     H30725   6.831   3.934   6.272  0.3227 -0.3946 -2.3745
  228MOL0     H30726   6.708   3.999   6.159 -2.8088 -0.6430 -0.3063
  228MOL0     H30727   6.516   3.971   6.341 -0.3485  0.2543 -0.3196
  228MOL0     H30728   6.642   3.881   6.430 -1.7364  1.6168  2.8234
  228MOL0     H30729   6.685   4.170   6.362 -0.1842 -1.9713 -2.7371
  228MOL0     H30730   6.770   4.089   6.488 -1.1233 -0.2442  1.7658
  228MOL0     H30731   6.621   4.086   6.740 -2.4262 -0.6112 -0.4743
  228MOL0     H30732   6.344   4.307   6.850  0.1138  2.0574  2.2383
  228MOL0     H30733   6.489   4.229   6.915 -1.5341  0.2703  1.5922
  228MOL0     H30734   6.512   4.462   6.962 -0.4316  2.6527 -1.1467
  228MOL0     H30735   6.469   4.508   6.795 -1.1219 -0.5562 -0.4016
  228MOL0     H30736   6.712   4.528   6.854 -2.6010  0.6466  2.7893
  228MOL0     H30737   6.682   4.400   6.723 -0.1236  1.6170 -0.8085
  228MOL0     H30738   6.848   4.347   6.896 -0.0159  2.0205 -0.8718
  228MOL0     H30739   6.728   4.236   6.921  4.1547 -0.2362 -2.1932
  228MOL0     H30740   6.652   4.481   7.275  0.4986  1.1115  1.4643
  228MOL0     H30741   6.759   4.554   7.556  0.9215 -1.0184  1.1287
  228MOL0     H30742   6.606   4.466   7.509 -0.2911 -3.4729 -2.5808
  228MOL0     H30743   6.721   4.401   7.626  1.2679  3.4284  2.9100
  228MOL0     H30744   6.897   4.296   7.887  0.4997  0.0419  2.2639
  228MOL0     H30745   7.047   4.257   8.065 -1.7448  0.9034 -0.3273
  228MOL0     H30746   7.452   4.287   7.917  1.4477  0.2490 -0.3202
  228MOL0     H30747   7.493   4.422   8.021 -2.9389  1.3651  2.4734
  228MOL0     H30748   7.640   4.250   8.085  0.5736 -1.9463 -0.1454
  228MOL0     H30749   7.517   4.283   8.207  1.6599 -2.2593  0.4727
  228MOL0     H30750   7.432   4.056   8.023 -0.1509  0.5715 -1.1054
  228MOL0     H30751   7.394   4.106   8.179  2.4082 -0.4647  3.0108
  228MOL0     H30752   7.662   3.991   8.103  0.9609  1.3696  2.9244
  228MOL0     H30753   7.596   3.991   8.265  0.8767  2.2312 -0.1006
  228MOL0     H30754   7.579   3.772   8.152 -0.6662  0.1286  2.3974
  228MOL0     H30755   7.441   3.838   8.047 -0.3217  0.8756  0.7339
  228MOL0     H30756   7.457   3.814   8.336  1.1731  2.8403 -1.8759
  228MOL0     H30757   7.318   3.887   8.257 -2.0387 -0.7633  3.3162
  228MOL0     H30758   7.241   3.673   8.303 -0.6565  0.8283 -0.3871
  228MOL0     H30759   7.399   3.602   8.249  1.6742  1.5716  0.2611
  228MOL0     H30760   7.203   3.558   8.097 -1.0960  1.4835  1.8649
  228MOL0     H30761   7.309   3.675   8.011 -0.7480  2.6626 -0.5186
  228MOL0     H30762   7.347   4.485   7.853 -0.4236 -1.7996  3.0826
  228MOL0     H30763   7.194   4.492   7.652  0.2070  2.4905  1.2969
  228MOL0     H30764   7.033   4.183   7.312  1.1713  1.1725  0.9363
  228MOL0     H30765   6.940   4.239   7.086  1.2768  2.8267 -0.0345
  228MOL0     H30766   6.519   3.826   5.465  0.7187  0.7356 -0.1195
  228MOL0     H30767   6.439   3.852   5.278  1.7174  1.0036 -0.3305
  228MOL0     H30768   6.136   4.335   4.966  2.3782 -0.7833  1.3745
  228MOL0     H30769   6.043   4.305   4.720 -2.1337 -0.7690 -0.9582
  228MOL0     H30770   5.952   3.981   4.431  2.7812  1.8902 -0.1766
  228MOL0     H30771   5.995   3.891   4.565 -2.9315 -1.5731  0.4030
  228MOL0     H30772   5.793   4.003   4.684 -0.2283  0.0844  0.2447
  228MOL0     H30773   5.772   3.943   4.524 -0.1919  0.0615  1.5682
  228MOL0     H30774   5.852   4.241   4.614  0.5577 -0.7281  0.2382
  228MOL0     H30775   5.682   4.188   4.569  0.3334 -0.1056 -0.5701
  228MOL0     H30776   5.920   4.226   4.381  0.8144  0.5179  2.3586
  228MOL0     H30777   5.792   4.337   4.413 -1.0885  0.2321 -4.6947
  228MOL0     H30778   5.632   4.009   4.172 -0.2790 -0.9770  0.1541
  228MOL0     H30779   6.168   3.905   4.732 -0.5623  1.0194 -0.8778
  228MOL0     H30780   6.228   3.924   4.978 -1.2239 -0.8497 -0.0320
  229MOL0     O30781   7.802   1.446   3.996  0.1427 -0.3103  0.2595
  229MOL0     C30782   7.889   1.469   4.081 -0.3313 -0.3276  1.7279
  229MOL0     O30783   8.023   1.419   4.079  0.9775 -0.4224 -0.2737
  229MOL0     C30784   8.080   1.374   3.966  0.5093 -0.6625  1.3186
  229MOL0     C30785   8.044   1.411   3.833  0.3313  0.3973 -0.7223
  229MOL0     C30786   8.128   1.370   3.726  0.9517 -0.4416  0.5383
  229MOL0     C30787   8.237   1.286   3.747  0.2943  0.9864 -0.0277
  229MOL0     O30788   8.301   1.233   3.633 -0.0924 -0.3255 -0.5876
  229MOL0     C30789   8.446   1.253   3.627 -0.4391 -0.2426 -0.0780
  229MOL0     C30790   8.465   1.384   3.550 -0.3329 -0.3547  0.9959
  229MOL0     C30791   8.615   1.407   3.500  0.5012  0.1879 -1.2547
  229MOL0     C30792   8.612   1.517   3.393 -0.5631  0.0062 -0.7506
  229MOL0     C30793   8.752   1.502   3.323  0.2682 -1.2373 -0.3905
  229MOL0     C30794   8.787   1.624   3.235 -0.2770  0.7668  0.7574
  229MOL0     C30795   8.851   1.738   3.308 -0.3284 -0.4743  0.1615
  229MOL0     C30796   8.996   1.722   3.355 -0.2232 -0.0236 -0.8547
  229MOL0     N30797   9.031   1.620   3.457  0.7986 -0.9407  0.1798
  229MOL0     C30798   9.013   1.634   3.590  0.1302  0.0720 -0.8136
  229MOL0     C30799   9.041   1.518   3.644  0.3782  0.9359  0.3280
  229MOL0     C30800   9.030   1.469   3.787  0.8954  1.1552  0.1291
  229MOL0     C30801   8.906   1.520   3.853  1.4968  0.2697  0.6677
  229MOL0     C30802   8.805   1.411   3.911 -0.3356 -0.0658 -0.2359
  229MOL0     C30803   8.672   1.456   3.942  0.9957 -0.3659 -0.2221
  229MOL0     O30804   8.594   1.340   3.984  0.1746  0.6610  0.0310
  229MOL0     C30805   8.519   1.356   4.097  0.2849 -0.2340 -0.3588
  229MOL0     C30806   8.528   1.269   4.199 -0.5516 -0.0781 -0.0489
  229MOL0     C30807   8.474   1.295   4.327 -0.4551 -0.2702  0.6796
  229MOL0     C30808   8.494   1.200   4.446 -0.0654 -0.2771  0.7740
  229MOL0     C30809   8.379   1.408   4.338  0.5166  0.3972 -0.5586
  229MOL0     C30810   8.284   1.437   4.455 -0.5470 -0.2905  0.4795
  229MOL0     O30811   8.283   1.351   4.550  0.0136 -0.0814 -0.2540
  229MOL0     C30812   8.166   1.333   4.618  0.3260  0.2290 -0.1146
  229MOL0     C30813   8.042   1.330   4.551 -0.9013  0.3314  0.7508
  229MOL0     C30814   7.930   1.300   4.632 -0.0372  0.2743  0.6221
  229MOL0     C30815   7.938   1.237   4.758  0.6583 -0.0171 -0.4148
  229MOL0     O30816   7.836   1.170   4.819 -0.5472  0.4315  0.3555
  229MOL0     C30817   7.723   1.129   4.747  0.7946 -0.0061  0.4864
  229MOL0     C30818   7.660   1.021   4.829  1.1799 -0.2942 -0.7368
  229MOL0     C30819   7.560   1.060   4.943 -0.1489 -0.1775 -0.0551
  229MOL0     C30820   7.519   0.943   5.044  0.4516  0.2923 -0.0649
  229MOL0     C30821   7.429   0.991   5.161  0.0028  1.0623  0.3453
  229MOL0     C30822   7.289   1.028   5.113 -0.0776 -0.4918  0.5402
  229MOL0     C30823   7.225   1.140   5.191 -0.1094  0.3198  0.0757
  229MOL0     C30824   7.111   1.206   5.112  0.8486 -0.0550  0.5220
  229MOL0    Cl30825   6.975   1.089   5.107 -0.2292 -0.1554 -0.1975
  229MOL0     C30826   8.069   1.229   4.811 -0.3867 -0.6440  0.2959
  229MOL0     C30827   8.177   1.276   4.742 -0.4995 -0.4360 -0.0701
  229MOL0     O30828   8.220   1.541   4.451  0.0518 -0.6183  0.9158
  229MOL0     C30829   8.361   1.495   4.228 -0.1276 -0.9852 -0.7991
  229MOL0     C30830   8.431   1.471   4.105 -0.0336  0.8707 -0.2409
  229MOL0     N30831   9.099   1.435   3.552  0.7259 -0.1941  0.2243
  229MOL0     N30832   9.086   1.496   3.434 -0.0507  0.8548  0.0252
  229MOL0     C30833   8.276   1.264   3.881  0.7262  0.3446  0.0887
  229MOL0     C30834   8.193   1.302   3.985 -0.2638  0.4968  0.1319
  229MOL0     C30835   7.842   1.539   4.203  0.1818 -0.0872  0.2346
  229MOL0     C30836   7.932   1.599   4.295 -0.3528  0.5301  0.3471
  229MOL0     C30837   7.879   1.651   4.413 -0.1748  1.3171  0.9571
  229MOL0     C30838   7.749   1.648   4.449  0.4267 -0.1612  0.0096
  229MOL0     O30839   7.716   1.719   4.561 -0.2916  0.2664 -0.1702
  229MOL0     C30840   7.586   1.770   4.580 -0.1829 -0.0948  0.9283
  229MOL0     C30841   7.540   1.878   4.470 -0.1293 -0.5116  0.0669
  229MOL0     C30842   7.401   1.937   4.503  0.6591  0.6665 -0.0119
  229MOL0     C30843   7.414   2.050   4.604  0.3862  0.3635  0.0556
  229MOL0     C30844   7.391   2.172   4.538  0.6199  0.9226 -0.8285
  229MOL0     C30845   7.371   2.283   4.488  0.1701 -0.5629 -0.2955
  229MOL0     C30846   7.658   1.589   4.355 -0.9318  0.9116  0.6243
  229MOL0     C30847   7.705   1.534   4.242  0.3651  0.4023 -0.0512
  229MOL0     H30848   7.961   1.480   3.818  1.2888  2.6763  3.1091
  229MOL0     H30849   8.087   1.394   3.628 -4.4956 -2.3276  1.9854
  229MOL0     H30850   8.507   1.255   3.717 -0.3410  1.5812 -0.1462
  229MOL0     H30851   8.490   1.169   3.572  1.9624  0.3305  0.8273
  229MOL0     H30852   8.396   1.396   3.466  0.1184 -1.4590  0.4505
  229MOL0     H30853   8.439   1.466   3.618  4.1422  1.7555  0.5038
  229MOL0     H30854   8.687   1.428   3.580  0.1887 -3.1159  0.0509
  229MOL0     H30855   8.651   1.313   3.456 -0.2293 -2.0690  2.4928
  229MOL0     H30856   8.529   1.506   3.323  0.3808 -2.4002 -1.6204
  229MOL0     H30857   8.609   1.607   3.455  0.6763 -0.1196 -0.4926
  229MOL0     H30858   8.834   1.473   3.389 -1.3560 -2.0059  1.3665
  229MOL0     H30859   8.727   1.422   3.253 -2.1834 -0.3186 -0.6605
  229MOL0     H30860   8.854   1.589   3.156 -0.1087  0.7228  0.9178
  229MOL0     H30861   8.702   1.648   3.172 -0.6541  0.6398  1.2132
  229MOL0     H30862   8.857   1.823   3.239 -0.0407 -1.9469 -1.7018
  229MOL0     H30863   8.790   1.777   3.390 -0.2575  2.7075 -1.1185
  229MOL0     H30864   9.028   1.817   3.399 -1.2545 -0.5912  1.2570
  229MOL0     H30865   9.073   1.721   3.278  0.0552  4.2421 -0.9040
  229MOL0     H30866   8.978   1.721   3.644 -0.0306  0.2467 -1.1929
  229MOL0     H30867   9.026   1.360   3.785 -1.5985  1.1840 -1.1792
  229MOL0     H30868   9.117   1.506   3.842 -0.5402  2.3378  1.7678
  229MOL0     H30869   8.851   1.577   3.778 -1.1736 -2.0776  0.7052
  229MOL0     H30870   8.941   1.588   3.931  2.1267  0.7810 -0.0409
  229MOL0     H30871   8.834   1.355   4.000 -1.6663 -0.6294 -0.1277
  229MOL0     H30872   8.776   1.340   3.833  0.8009 -1.5249  0.6169
  229MOL0     H30873   8.610   1.495   3.861  0.7051 -0.3720 -0.0050
  229MOL0     H30874   8.670   1.539   4.014  0.3595  0.2690 -0.9472
  229MOL0     H30875   8.589   1.180   4.191 -0.5869 -0.0782 -0.3536
  229MOL0     H30876   8.405   1.138   4.456 -1.0757  0.8137 -0.8347
  229MOL0     H30877   8.583   1.140   4.430 -1.2213 -1.4014 -2.0449
  229MOL0     H30878   8.514   1.262   4.534  2.5765  0.8976 -0.5361
  229MOL0     H30879   8.030   1.351   4.446  1.3519 -0.5715  0.2493
  229MOL0     H30880   7.838   1.322   4.580  2.0294  3.7538 -2.0301
  229MOL0     H30881   7.646   1.205   4.728  0.1054 -0.1128  2.5787
  229MOL0     H30882   7.745   1.084   4.650  0.7761 -0.9874  0.9251
  229MOL0     H30883   7.607   0.946   4.769  0.1140  0.3624 -0.6363
  229MOL0     H30884   7.733   0.956   4.880 -1.9916 -2.3480  1.5694
  229MOL0     H30885   7.475   1.115   4.902  0.4235  1.8125  1.2991
  229MOL0     H30886   7.609   1.135   5.005  0.9573 -0.6638 -0.3304
  229MOL0     H30887   7.476   0.862   4.983  0.3658  1.6599 -1.8949
  229MOL0     H30888   7.611   0.908   5.093  0.9559  1.8664  0.1728
  229MOL0     H30889   7.476   1.069   5.220 -2.4124  0.9672  2.5802
  229MOL0     H30890   7.413   0.901   5.222 -0.1191 -0.9981 -2.4738
  229MOL0     H30891   7.296   1.055   5.008 -4.4465  0.8782  0.4190
  229MOL0     H30892   7.221   0.942   5.112  2.6977 -2.8467  1.0204
  229MOL0     H30893   7.299   1.213   5.226 -1.9736  2.5823 -0.3883
  229MOL0     H30894   7.180   1.089   5.276 -0.7900 -2.4011 -1.8009
  229MOL0     H30895   7.137   1.231   5.008 -2.5720 -2.2650 -1.0450
  229MOL0     H30896   7.069   1.293   5.163  0.5857  0.1585 -0.0471
  229MOL0     H30897   8.087   1.196   4.913  0.2311 -0.7494  0.1537
  229MOL0     H30898   8.274   1.252   4.786 -0.9805  1.7139  2.4345
  229MOL0     H30899   8.289   1.575   4.233  1.5488  0.5079  3.4891
  229MOL0     H30900   8.424   1.537   4.019 -0.4995 -2.0703 -2.6462
  229MOL0     H30901   8.365   1.205   3.902 -0.7350 -0.7424  4.1668
  229MOL0     H30902   8.236   1.285   4.083  1.3925 -0.6832 -0.7463
  229MOL0     H30903   8.039   1.609   4.282  0.4908 -0.1631  5.0275
  229MOL0     H30904   7.955   1.696   4.477  0.1821 -0.9146  2.2231
  229MOL0     H30905   7.516   1.686   4.582 -1.4814  0.9565  1.1038
  229MOL0     H30906   7.577   1.822   4.676  1.3964  3.7825 -0.8156
  229MOL0     H30907   7.534   1.822   4.376 -0.2528 -0.2843 -0.0607
  229MOL0     H30908   7.619   1.953   4.461 -0.2595 -0.5175 -1.3541
  229MOL0     H30909   7.337   1.858   4.543 -0.7030  1.1247 -1.1839
  229MOL0     H30910   7.359   1.984   4.414  1.7189  0.1042 -0.8306
  229MOL0     H30911   7.512   2.064   4.649  0.9889  0.0997 -1.1489
  229MOL0     H30912   7.330   2.050   4.675 -2.2714  3.0152 -2.7340
  229MOL0     H30913   7.381   2.383   4.450 -0.5898  1.2732  3.7688
  229MOL0     H30914   7.551   1.586   4.377 -0.9579  0.0558  0.4461
  229MOL0     H30915   7.632   1.490   4.175 -0.2769  0.0510  0.8619
  230MOL0     O30916   2.789   4.033  10.029 -0.9128 -0.0033 -0.0700
  230MOL0     C30917   2.812   3.935  10.103 -0.7939  0.5584  0.5382
  230MOL0     O30918   2.840   3.805  10.072 -0.2361  0.4825  0.3135
  230MOL0     C30919   2.895   3.758   9.958 -0.4135  0.1183  0.8906
  230MOL0     C30920   2.853   3.773   9.827  0.2201  0.2757 -1.3725
  230MOL0     C30921   2.932   3.737   9.716 -0.1983 -1.4155 -0.6635
  230MOL0     C30922   3.069   3.694   9.733 -0.1755 -0.3735 -0.2530
  230MOL0     O30923   3.154   3.666   9.627 -0.0122  0.1932  0.1094
  230MOL0     C30924   3.097   3.584   9.521  0.3503 -0.7975  0.1279
  230MOL0     C30925   3.159   3.437   9.532 -0.0469 -1.2315 -0.6624
  230MOL0     C30926   3.110   3.377   9.664 -0.0997 -0.3974 -1.4524
  230MOL0     C30927   3.124   3.225   9.676  0.2870 -0.8507 -0.3690
  230MOL0     C30928   3.012   3.154   9.764  0.1398  0.6415 -0.6017
  230MOL0     C30929   3.040   3.161   9.918 -0.2058 -0.1961 -0.8199
  230MOL0     C30930   3.159   3.084   9.965 -0.4238  0.0348 -0.6057
  230MOL0     C30931   3.235   3.168  10.065 -0.3276 -0.0146 -0.4976
  230MOL0     N30932   3.190   3.126  10.197  0.6357 -0.6187 -0.3282
  230MOL0     C30933   3.242   3.024  10.268  0.1376  0.2182  0.8535
  230MOL0     C30934   3.183   3.028  10.389  0.0562 -0.0476  0.2628
  230MOL0     C30935   3.216   2.936  10.501  0.4002  0.6751  1.3095
  230MOL0     C30936   3.129   2.803  10.498  0.3830  0.9098 -0.8682
  230MOL0     C30937   2.983   2.834  10.461 -0.7880 -0.1142  0.0790
  230MOL0     C30938   2.896   2.706  10.485  0.1603 -1.0281 -0.9657
  230MOL0     O30939   2.916   2.604  10.386 -0.0532 -0.0342  0.2618
  230MOL0     C30940   2.910   2.636  10.254 -0.2519  0.2776 -0.2097
  230MOL0     C30941   2.822   2.730  10.201  0.6787 -0.5362  0.0969
  230MOL0     C30942   2.824   2.773  10.064  0.0677 -0.1482  0.0969
  230MOL0     C30943   2.713   2.868  10.015 -0.3888  0.2678 -0.0791
  230MOL0     C30944   2.930   2.733   9.978  0.2526  0.2865  0.3314
  230MOL0     C30945   2.955   2.784   9.840 -0.7221  0.6666  0.0641
  230MOL0     O30946   3.087   2.796   9.810 -0.0105 -0.5122 -0.1363
  230MOL0     C30947   3.127   2.784   9.678 -0.0994  0.7308  0.0091
  230MOL0     C30948   3.241   2.860   9.639 -0.0729  0.5655 -0.2474
  230MOL0     C30949   3.291   2.858   9.507 -0.3869  0.6693 -0.0601
  230MOL0     C30950   3.219   2.805   9.405  0.8843  0.5800  0.0018
  230MOL0     O30951   3.266   2.834   9.280 -0.3682  0.0407  0.4419
  230MOL0     C30952   3.161   2.878   9.187 -0.1909 -0.5780  0.2094
  230MOL0     C30953   3.197   2.835   9.043 -0.0096 -0.0836 -0.1400
  230MOL0     C30954   3.128   2.913   8.937 -0.1019 -0.1244 -0.2042
  230MOL0     C30955   2.975   2.880   8.931 -0.8130  0.5715  0.6555
  230MOL0     C30956   2.897   2.966   8.843 -0.5810  0.9041  0.6865
  230MOL0     C30957   2.872   3.112   8.888 -0.2231  0.4422  0.0465
  230MOL0     C30958   2.785   3.181   8.781  0.0054 -0.3183 -0.0809
  230MOL0     C30959   2.757   3.324   8.815 -0.4517 -0.4889 -0.0008
  230MOL0    Cl30960   2.905   3.422   8.816 -0.0914 -0.2770 -0.1409
  230MOL0     C30961   3.109   2.718   9.447 -0.1950 -1.1601  0.9955
  230MOL0     C30962   3.069   2.708   9.578  0.0269  0.0267  0.4472
  230MOL0     O30963   2.861   2.821   9.765 -0.2006  0.0875 -0.3160
  230MOL0     C30964   3.016   2.644  10.039 -0.6574 -0.5452  0.0817
  230MOL0     C30965   3.012   2.590  10.167  0.2894  0.1149  0.5460
  230MOL0     N30966   3.092   3.127  10.386  0.9937 -0.1705 -0.0659
  230MOL0     N30967   3.091   3.181  10.273 -0.5743 -0.3930  0.9079
  230MOL0     C30968   3.111   3.671   9.864 -1.1633 -0.7902 -0.2835
  230MOL0     C30969   3.028   3.701   9.973 -0.2078 -0.0576 -0.1675
  230MOL0     C30970   2.814   3.967  10.248 -0.1684 -0.2403  0.1915
  230MOL0     C30971   2.898   3.899  10.342 -0.3728 -0.4130  0.0891
  230MOL0     C30972   2.907   3.940  10.468 -0.7607 -0.4910  0.5599
  230MOL0     C30973   2.832   4.043  10.516  0.0182  0.3962 -0.9057
  230MOL0     O30974   2.842   4.084  10.643 -0.2008 -0.2465 -0.2473
  230MOL0     C30975   2.757   4.014  10.740  0.6702  0.1574 -0.3968
  230MOL0     C30976   2.647   4.107  10.790  1.2350  0.0696 -0.0860
  230MOL0     C30977   2.700   4.217  10.891  0.6282  0.4916  0.2903
  230MOL0     C30978   2.587   4.285  10.973  0.3419 -0.2821 -0.7433
  230MOL0     C30979   2.496   4.357  10.876 -0.2040 -0.1368 -0.3958
  230MOL0     C30980   2.438   4.410  10.790  1.0947  0.3125  0.3148
  230MOL0     C30981   2.752   4.110  10.428 -0.5684  0.3354 -0.0812
  230MOL0     C30982   2.740   4.073  10.297  0.1785 -1.3173  0.6421
  230MOL0     H30983   2.765   3.834   9.812  1.4658  2.7626  0.7577
  230MOL0     H30984   2.893   3.764   9.619  0.2518 -4.1193 -1.6672
  230MOL0     H30985   2.987   3.579   9.518  0.3492 -0.1431 -1.5785
  230MOL0     H30986   3.118   3.636   9.428  0.8629 -1.0024  0.1242
  230MOL0     H30987   3.137   3.380   9.442  0.6230  0.2986 -1.8405
  230MOL0     H30988   3.268   3.451   9.530 -0.4068  2.8218 -1.6949
  230MOL0     H30989   3.173   3.421   9.741 -2.2414  2.0668 -0.9658
  230MOL0     H30990   3.006   3.412   9.671  0.7451  2.1500 -0.7193
  230MOL0     H30991   3.118   3.186   9.574 -0.1431 -0.6242 -0.4333
  230MOL0     H30992   3.222   3.192   9.712 -0.8259 -0.4170  3.4010
  230MOL0     H30993   2.910   3.185   9.741 -0.0555 -0.1594 -0.8239
  230MOL0     H30994   3.022   3.050   9.731  0.6798  0.7556 -0.8079
  230MOL0     H30995   3.048   3.269   9.936  3.8441 -0.7445  2.0514
  230MOL0     H30996   2.951   3.123   9.969  0.4711 -3.0881 -1.6591
  230MOL0     H30997   3.136   2.983  10.000  0.2613  0.2531  0.5061
  230MOL0     H30998   3.227   3.057   9.883 -0.3623 -3.7048  0.5145
  230MOL0     H30999   3.228   3.276  10.050 -2.0822 -0.2288 -1.5201
  230MOL0     H31000   3.342   3.157  10.050  0.3281  3.6354  0.5795
  230MOL0     H31001   3.319   2.962  10.224  1.8694  2.0254  1.2053
  230MOL0     H31002   3.325   2.924  10.509  0.5814  0.1874 -1.2233
  230MOL0     H31003   3.178   2.974  10.597  1.5793 -0.3591  2.2229
  230MOL0     H31004   3.134   2.762  10.599 -1.5882 -0.3350 -1.2250
  230MOL0     H31005   3.173   2.727  10.432 -0.9743 -0.1968 -0.5411
  230MOL0     H31006   2.971   2.872  10.359 -3.5445 -1.9743 -0.3973
  230MOL0     H31007   2.958   2.914  10.530  3.0590 -0.5022  2.2318
  230MOL0     H31008   2.788   2.724  10.494  0.1841 -1.0134 -0.6711
  230MOL0     H31009   2.919   2.666  10.584 -2.9722  1.7940  1.1310
  230MOL0     H31010   2.755   2.779  10.270  0.8039 -0.4101  0.1302
  230MOL0     H31011   2.738   2.972  10.039  0.2409  0.7793 -2.6582
  230MOL0     H31012   2.686   2.861   9.909  0.7534  0.5677 -0.3995
  230MOL0     H31013   2.625   2.833  10.070 -0.3286 -1.2849 -0.9282
  230MOL0     H31014   3.294   2.924   9.710 -1.4471  0.8331  0.5706
  230MOL0     H31015   3.376   2.919   9.479  0.8378 -2.5091 -4.2664
  230MOL0     H31016   3.064   2.831   9.206  1.4803 -4.2871  0.5785
  230MOL0     H31017   3.153   2.987   9.186  3.0952 -0.2279 -1.3306
  230MOL0     H31018   3.304   2.849   9.027  0.9767 -4.5508  1.0903
  230MOL0     H31019   3.175   2.729   9.024 -3.6819  0.8398 -1.9773
  230MOL0     H31020   3.188   2.884   8.850 -0.2823  0.2079 -0.4420
  230MOL0     H31021   3.145   3.020   8.953  0.4709 -0.5244  2.1661
  230MOL0     H31022   2.962   2.775   8.904  1.6595 -0.9833  4.6124
  230MOL0     H31023   2.929   2.897   9.029 -0.4835  5.9929  0.2040
  230MOL0     H31024   2.804   2.912   8.823  0.2840  0.0897 -1.4400
  230MOL0     H31025   2.947   2.962   8.745  1.3154 -0.2643  1.6398
  230MOL0     H31026   2.827   3.124   8.987  1.7949  0.8472  0.9719
  230MOL0     H31027   2.967   3.167   8.887  0.2628 -0.3878 -0.1456
  230MOL0     H31028   2.689   3.129   8.775 -0.8921  1.4034 -1.9490
  230MOL0     H31029   2.832   3.170   8.683 -0.9114 -2.2894 -0.3423
  230MOL0     H31030   2.716   3.316   8.916 -0.7084  2.1265  0.1704
  230MOL0     H31031   2.678   3.363   8.751 -1.8122 -0.3752  1.6755
  230MOL0     H31032   3.054   2.661   9.374  0.2232  1.0391 -1.1782
  230MOL0     H31033   2.982   2.644   9.588  1.1105 -1.8781 -1.4402
  230MOL0     H31034   3.097   2.611   9.975 -1.5915  0.0971 -1.4806
  230MOL0     H31035   3.066   2.502  10.201  0.8888  0.0658 -0.4727
  230MOL0     H31036   3.211   3.628   9.867 -0.6447 -0.2448 -4.2398
  230MOL0     H31037   3.059   3.680  10.075 -0.9071  2.2906  0.6101
  230MOL0     H31038   2.968   3.821  10.314 -1.2430 -1.2691  0.2405
  230MOL0     H31039   2.979   3.897  10.536  1.5010  1.6595 -0.3184
  230MOL0     H31040   2.707   3.930  10.692 -2.3714  1.7153 -0.1407
  230MOL0     H31041   2.811   3.979  10.829 -1.7031  0.1191  1.1039
  230MOL0     H31042   2.566   4.052  10.840  1.5281  0.2024  0.5532
  230MOL0     H31043   2.611   4.164  10.704  0.3789  1.2096  0.9842
  230MOL0     H31044   2.760   4.294  10.843  4.5039  0.0003  3.8157
  230MOL0     H31045   2.777   4.175  10.956  1.0222 -0.9491 -1.0542
  230MOL0     H31046   2.628   4.345  11.055 -1.0426  0.7968 -0.8027
  230MOL0     H31047   2.530   4.201  11.013  0.2460 -0.4103 -1.1430
  230MOL0     H31048   2.382   4.439  10.704  0.8377 -0.0140  0.3693
  230MOL0     H31049   2.692   4.193  10.465  0.7524  0.3571  2.1422
  230MOL0     H31050   2.660   4.120  10.240  1.2992 -1.3900 -1.0453
  231MOL0     O31051   9.921   2.743  10.331 -1.8360 -0.1724 -0.1962
  231MOL0     C31052   9.827   2.795  10.270  0.6040 -0.5561 -0.2278
  231MOL0     O31053   9.776   2.760  10.148  0.1474 -0.1147  0.1538
  231MOL0     C31054   9.857   2.682  10.078  0.1030 -0.2568  0.0786
  231MOL0     C31055   9.990   2.713  10.036  0.5261  1.1525  0.0197
  231MOL0     C31056  10.076   2.608   9.979 -0.0938  0.6914 -0.0945
  231MOL0     C31057  10.020   2.481   9.948 -1.0485 -0.2163 -1.4723
  231MOL0     O31058  10.078   2.382   9.877  0.0787  0.0089  0.5170
  231MOL0     C31059  10.120   2.423   9.746 -0.4485  0.6736  0.7363
  231MOL0     C31060  10.135   2.295   9.663 -0.3280 -0.1057  0.6428
  231MOL0     C31061  10.275   2.230   9.700 -0.0743 -0.1177  0.6036
  231MOL0     C31062  10.289   2.082   9.644 -0.6332 -0.4629  0.4585
  231MOL0     C31063  10.433   2.017   9.661  0.1681  0.2104  0.2202
  231MOL0     C31064  10.473   2.003   9.804 -0.7648 -0.2572 -0.1966
  231MOL0     C31065  10.615   1.952   9.823 -0.6357 -0.7303  0.1239
  231MOL0     C31066  10.657   1.925   9.966 -0.2534  0.4616  0.1144
  231MOL0     N31067  10.578   1.816  10.029 -0.3821 -0.5992 -0.1617
  231MOL0     C31068  10.455   1.826  10.095 -1.4322 -0.0137 -0.3965
  231MOL0     C31069  10.410   1.711  10.145 -1.1378 -0.7957 -0.1440
  231MOL0     C31070  10.302   1.679  10.244  0.6751 -0.5346 -0.1321
  231MOL0     C31071  10.286   1.784  10.354 -0.2208  0.2098 -0.2529
  231MOL0     C31072  10.154   1.777  10.433 -0.5966  0.8028 -0.4680
  231MOL0     C31073  10.067   1.890  10.404  0.6828 -0.1281 -0.4305
  231MOL0     O31074   9.936   1.848  10.356 -0.1167  0.3148  0.7034
  231MOL0     C31075   9.854   1.938  10.292  0.1584  0.5781 -0.5015
  231MOL0     C31076   9.770   1.890  10.182 -0.3094 -0.1603 -0.0175
  231MOL0     C31077   9.685   1.977  10.108 -1.4768 -0.2562 -0.7594
  231MOL0     C31078   9.592   1.924  10.006 -0.0029  0.2458  0.5801
  231MOL0     C31079   9.681   2.112  10.153  0.3707  0.0289  0.4183
  231MOL0     C31080   9.587   2.204  10.092  0.5724 -0.4309  0.3587
  231MOL0     O31081   9.517   2.295  10.165 -0.0340 -0.3010  0.0630
  231MOL0     C31082   9.392   2.338  10.115  0.8627  0.0398 -0.0173
  231MOL0     C31083   9.379   2.415   9.997  0.4365  0.1003 -0.0924
  231MOL0     C31084   9.253   2.434   9.942 -0.5423  0.0289 -0.0114
  231MOL0     C31085   9.135   2.381   9.997  0.3296  0.6108  0.7137
  231MOL0     O31086   9.015   2.402   9.928 -0.5298  0.7367 -0.0786
  231MOL0     C31087   8.895   2.449   9.998 -0.2272 -0.0375  0.3584
  231MOL0     C31088   8.908   2.603  10.012 -0.0051  0.2230 -0.5928
  231MOL0     C31089   8.912   2.681   9.878  0.1204 -0.2351 -0.8492
  231MOL0     C31090   8.997   2.807   9.895 -0.4896  0.0212 -0.2137
  231MOL0     C31091   9.000   2.902   9.771  0.3985 -0.3267 -0.2784
  231MOL0     C31092   9.069   2.843   9.650  0.1263  0.3535 -0.0409
  231MOL0     C31093   9.028   2.921   9.522  1.0892 -0.4983  0.2902
  231MOL0     C31094   9.143   2.921   9.417 -0.2989  0.3729 -0.5911
  231MOL0    Cl31095   9.083   3.024   9.281  0.3256 -0.1794  0.0637
  231MOL0     C31096   9.143   2.331  10.125 -0.0911 -0.2423 -1.2883
  231MOL0     C31097   9.273   2.290  10.174 -0.4104  0.8036 -0.8925
  231MOL0     O31098   9.587   2.197   9.967 -0.3489 -0.0161 -0.5733
  231MOL0     C31099   9.757   2.155  10.261 -0.7941 -0.7624 -0.4764
  231MOL0     C31100   9.852   2.075  10.320  0.2523 -0.5267  0.0934
  231MOL0     N31101  10.510   1.624  10.104  0.2268 -0.7772 -0.6745
  231MOL0     N31102  10.611   1.684  10.041  0.8360 -0.3535 -0.1128
  231MOL0     C31103   9.886   2.467   9.983 -0.2399 -0.2131 -0.0473
  231MOL0     C31104   9.808   2.554  10.067 -0.0546  0.3122  0.2542
  231MOL0     C31105   9.745   2.901  10.331  0.1918  0.1921  0.3066
  231MOL0     C31106   9.737   2.911  10.475  0.2506  0.6719  0.3370
  231MOL0     C31107   9.677   3.018  10.535 -0.0854 -0.3720  0.7647
  231MOL0     C31108   9.631   3.123  10.460 -0.0471 -1.1960  0.0852
  231MOL0     O31109   9.595   3.236  10.528 -0.6077 -0.2325 -0.2914
  231MOL0     C31110   9.512   3.340  10.469 -0.8651  0.4768  0.1808
  231MOL0     C31111   9.365   3.295  10.463  0.1760  0.1281 -0.3595
  231MOL0     C31112   9.322   3.265  10.608 -0.7155 -0.2003  0.8865
  231MOL0     C31113   9.312   3.122  10.640 -0.0890  0.0198 -0.0606
  231MOL0     C31114   9.194   3.073  10.562 -0.6244 -0.5762  1.0040
  231MOL0     C31115   9.092   3.037  10.505 -0.8727 -0.3450  0.0893
  231MOL0     C31116   9.624   3.119  10.316 -0.3371 -0.0590  0.1886
  231MOL0     C31117   9.679   3.002  10.256  0.1709  0.6673 -0.7360
  231MOL0     H31118  10.015   2.817  10.056 -1.3003  2.4002 -3.2968
  231MOL0     H31119  10.181   2.613   9.950 -0.2721 -1.8027 -1.4302
  231MOL0     H31120  10.050   2.486   9.690 -0.7752  0.2812  0.6975
  231MOL0     H31121  10.222   2.461   9.758 -0.7918  2.9636 -2.2292
  231MOL0     H31122  10.044   2.236   9.675 -2.5454  2.8051 -0.4178
  231MOL0     H31123  10.137   2.325   9.557 -3.4545 -1.3079  0.1489
  231MOL0     H31124  10.352   2.296   9.659  2.1967 -0.2363  4.1870
  231MOL0     H31125  10.299   2.237   9.807  0.3524 -0.9008  0.5707
  231MOL0     H31126  10.213   2.031   9.704 -3.0742  1.5364 -0.6837
  231MOL0     H31127  10.261   2.086   9.538 -1.4150 -4.0620  0.4172
  231MOL0     H31128  10.447   1.927   9.601 -1.5316 -1.8323  2.6575
  231MOL0     H31129  10.493   2.094   9.613 -1.6605  1.5714  0.0074
  231MOL0     H31130  10.467   2.100   9.853  0.0224 -0.3382  0.0695
  231MOL0     H31131  10.407   1.935   9.858 -1.5353  0.6087 -0.0254
  231MOL0     H31132  10.621   1.856   9.771 -4.3098 -0.7702 -0.5365
  231MOL0     H31133  10.677   2.031   9.778 -1.1106 -0.9476 -0.9525
  231MOL0     H31134  10.634   2.017  10.021 -0.1174  1.4190 -1.3761
  231MOL0     H31135  10.764   1.905   9.974  0.1221  1.8583 -1.0313
  231MOL0     H31136  10.401   1.920  10.101  0.6785  1.2542 -0.2154
  231MOL0     H31137  10.204   1.680  10.194  0.5964 -0.8407  0.0119
  231MOL0     H31138  10.325   1.580  10.283  0.5719 -0.0582  1.1719
  231MOL0     H31139  10.297   1.886  10.316 -0.2924  0.3993  0.2362
  231MOL0     H31140  10.369   1.771  10.423 -0.6796  0.9922  0.4677
  231MOL0     H31141  10.183   1.788  10.537 -4.0737 -1.2583  0.9156
  231MOL0     H31142  10.099   1.683  10.418 -1.1125  1.3311 -2.1682
  231MOL0     H31143  10.102   1.968  10.336 -2.4620  4.4557  2.6274
  231MOL0     H31144  10.047   1.942  10.499  0.9699 -0.0142 -0.4311
  231MOL0     H31145   9.782   1.785  10.157 -2.7483 -0.5148  0.0715
  231MOL0     H31146   9.615   1.817  10.015  2.4937  0.6236 -0.4114
  231MOL0     H31147   9.488   1.953  10.022  0.5854  3.3308 -0.5478
  231MOL0     H31148   9.610   1.952   9.902  1.5717 -1.2907  0.3905
  231MOL0     H31149   9.467   2.445   9.942 -0.8796  1.6234 -1.4888
  231MOL0     H31150   9.257   2.462   9.837  2.1536  2.1444  0.5727
  231MOL0     H31151   8.800   2.426   9.949 -0.4362 -0.9408  1.1521
  231MOL0     H31152   8.888   2.422  10.104  1.8377  2.0147  1.1138
  231MOL0     H31153   8.808   2.610  10.057  0.0032  0.1904 -0.5682
  231MOL0     H31154   8.982   2.633  10.087  1.4920  1.1067 -2.3452
  231MOL0     H31155   8.809   2.696   9.845 -0.7690 -0.6432  1.5611
  231MOL0     H31156   8.954   2.627   9.792  2.3278 -1.5118  0.9078
  231MOL0     H31157   8.946   2.864   9.973  0.0114 -1.1544  0.9977
  231MOL0     H31158   9.100   2.783   9.922  0.4468  0.3356 -3.1078
  231MOL0     H31159   9.043   3.000   9.792  1.6257 -0.3693 -2.2914
  231MOL0     H31160   8.896   2.910   9.738  0.5939 -0.0233 -0.8405
  231MOL0     H31161   9.178   2.828   9.648  0.4289  2.2909 -0.4919
  231MOL0     H31162   9.037   2.740   9.637  3.2551 -1.4139  3.8049
  231MOL0     H31163   9.006   3.021   9.562  1.1924 -0.7791  1.0692
  231MOL0     H31164   8.935   2.886   9.476  1.3846  2.0235 -2.5332
  231MOL0     H31165   9.171   2.821   9.382 -0.8425  0.8035 -2.3558
  231MOL0     H31166   9.232   2.957   9.469 -0.9489  0.3058  0.5983
  231MOL0     H31167   9.054   2.305  10.181 -0.0908  1.5080 -0.4066
  231MOL0     H31168   9.276   2.244  10.272 -3.4238  0.3812 -0.9301
  231MOL0     H31169   9.738   2.254  10.301  1.5538 -1.2015  1.9796
  231MOL0     H31170   9.908   2.117  10.402  0.6150 -2.7975  1.0809
  231MOL0     H31171   9.839   2.374   9.955  2.0837 -1.3036 -0.5572
  231MOL0     H31172   9.709   2.521  10.098  1.3203 -2.8251  1.8122
  231MOL0     H31173   9.789   2.831  10.526 -1.9051 -2.3208 -1.8069
  231MOL0     H31174   9.655   3.034  10.640 -2.2799 -3.3424  0.8966
  231MOL0     H31175   9.519   3.430  10.533 -1.6479 -1.2396  2.8648
  231MOL0     H31176   9.540   3.373  10.369 -0.2779  1.4411  0.6459
  231MOL0     H31177   9.346   3.216  10.390 -2.4945 -0.0539  0.4240
  231MOL0     H31178   9.301   3.379  10.436 -1.6093 -1.5195 -1.4780
  231MOL0     H31179   9.222   3.306  10.622 -0.7472 -0.4618  1.4638
  231MOL0     H31180   9.394   3.306  10.680  0.2919 -0.3086 -0.0264
  231MOL0     H31181   9.310   3.095  10.746  0.0783  0.8020  0.1410
  231MOL0     H31182   9.405   3.073  10.608 -0.2691 -2.6259  3.0170
  231MOL0     H31183   8.998   3.007  10.463 -2.6675  2.2114  1.9731
  231MOL0     H31184   9.583   3.193  10.248 -1.7890 -0.7646  0.2637
  231MOL0     H31185   9.684   3.001  10.148  2.5412  1.2388 -0.7041
  232MOL0     O31186  10.399   0.218   2.057 -0.0292  0.7366 -0.3842
  232MOL0     C31187  10.279   0.214   2.034 -0.2834 -1.1426 -0.6650
  232MOL0     O31188  10.185   0.130   2.093 -0.5822  0.1782 -0.2110
  232MOL0     C31189  10.223   0.043   2.196  0.8536 -0.2976  0.4424
  232MOL0     C31190  10.166  -0.088   2.182 -0.0845 -0.3111 -0.3872
  232MOL0     C31191  10.207  -0.192   2.267  0.6464  0.3084  0.4968
  232MOL0     C31192  10.286  -0.161   2.371 -0.1558 -0.0890 -0.6804
  232MOL0     O31193  10.304  -0.262   2.465  0.8551 -0.1376 -0.1933
  232MOL0     C31194  10.418  -0.267   2.555 -0.1261 -0.4738 -0.0608
  232MOL0     C31195  10.514  -0.374   2.512  0.3940 -0.4945  0.4414
  232MOL0     C31196  10.463  -0.515   2.509 -0.0532  0.8694 -0.1238
  232MOL0     C31197  10.575  -0.617   2.487  0.2859 -0.4355  0.3034
  232MOL0     C31198  10.540  -0.756   2.538  0.2685 -0.4972  0.1143
  232MOL0     C31199  10.661  -0.855   2.513  0.3055  0.2695 -0.3308
  232MOL0     C31200  10.616  -0.992   2.565 -0.0891  0.6580 -0.5284
  232MOL0     C31201  10.731  -1.094   2.575 -0.2418  0.1612 -0.2708
  232MOL0     N31202  10.745  -1.158   2.447  0.7757 -0.4292  0.1165
  232MOL0     C31203  10.648  -1.245   2.398 -0.0817 -0.5845  0.1816
  232MOL0     C31204  10.698  -1.324   2.300 -0.3465  0.1459 -0.1781
  232MOL0     C31205  10.646  -1.451   2.239 -0.6402 -0.0951  0.3509
  232MOL0     C31206  10.707  -1.575   2.302 -0.3651 -0.1292  0.0319
  232MOL0     C31207  10.595  -1.663   2.356  0.2440 -0.7356 -0.1246
  232MOL0     C31208  10.511  -1.607   2.474 -0.2501  0.3770 -1.2061
  232MOL0     O31209  10.398  -1.522   2.427  0.2022  0.8149 -0.1213
  232MOL0     C31210  10.356  -1.416   2.507  0.4413 -0.6141 -0.3501
  232MOL0     C31211  10.390  -1.389   2.640 -0.4158 -0.3410  0.2899
  232MOL0     C31212  10.333  -1.285   2.714  0.3652 -1.0400 -0.0053
  232MOL0     C31213  10.353  -1.297   2.871  0.6310 -0.2693  0.2869
  232MOL0     C31214  10.243  -1.194   2.645 -0.3800  0.1997 -0.4359
  232MOL0     C31215  10.188  -1.070   2.708  0.1007  0.5193  0.0538
  232MOL0     O31216  10.110  -1.004   2.623  0.2091 -0.0083 -0.1298
  232MOL0     C31217  10.074  -0.882   2.667  0.6047  0.0508 -0.0633
  232MOL0     C31218   9.958  -0.850   2.743 -0.5630 -1.1758 -0.4524
  232MOL0     C31219   9.919  -0.712   2.776 -0.1704  0.3374 -0.9854
  232MOL0     C31220   9.996  -0.606   2.740  0.4997 -0.3039 -0.1786
  232MOL0     O31221   9.948  -0.477   2.765  0.2622  1.1407 -0.3698
  232MOL0     C31222  10.011  -0.365   2.700  0.9285  0.6147 -0.6610
  232MOL0     C31223   9.925  -0.236   2.707  0.9434  0.1102 -1.9109
  232MOL0     C31224   9.816  -0.265   2.606 -0.5677  0.2573  0.8343
  232MOL0     C31225   9.856  -0.255   2.458 -0.3794 -0.2921  0.1739
  232MOL0     C31226   9.748  -0.188   2.376 -0.3630  1.0237  0.3086
  232MOL0     C31227   9.777  -0.190   2.223 -0.0868  0.1764  0.0441
  232MOL0     C31228   9.675  -0.117   2.140  0.8563  0.4662  0.3388
  232MOL0     C31229   9.687   0.033   2.167 -0.2906 -0.1962 -0.6885
  232MOL0    Cl31230   9.583   0.126   2.050  0.0898 -0.3665 -0.2971
  232MOL0     C31231  10.120  -0.637   2.681 -0.6790  1.2226  0.1420
  232MOL0     C31232  10.159  -0.769   2.646 -0.6058 -0.2883  0.7557
  232MOL0     O31233  10.218  -1.044   2.825  0.1625  0.4169  0.5008
  232MOL0     C31234  10.220  -1.218   2.513 -0.7379 -0.0393  0.2326
  232MOL0     C31235  10.276  -1.321   2.440 -0.4940 -0.0869  0.0644
  232MOL0     N31236  10.836  -1.284   2.296 -0.2780 -0.4790  0.5320
  232MOL0     N31237  10.857  -1.190   2.378  0.3032 -0.2580 -0.2116
  232MOL0     C31238  10.347  -0.028   2.382  0.2929  0.7283 -1.4449
  232MOL0     C31239  10.312   0.067   2.296  0.8424 -0.5831  0.2426
  232MOL0     C31240  10.226   0.319   1.945  0.0947  0.5054  0.5708
  232MOL0     C31241  10.105   0.386   1.977 -0.1420 -0.1251 -0.4440
  232MOL0     C31242  10.044   0.477   1.884 -0.2353 -0.2445 -0.5030
  232MOL0     C31243  10.117   0.508   1.767  0.2504  0.4195  0.2777
  232MOL0     O31244  10.069   0.606   1.686 -0.0900 -0.4598  0.2882
  232MOL0     C31245  10.005   0.559   1.568 -0.2551 -0.2910  0.4713
  232MOL0     C31246  10.052   0.641   1.447 -0.1364 -0.1822 -0.4141
  232MOL0     C31247   9.967   0.771   1.419 -0.0413  0.3874 -0.4157
  232MOL0     C31248  10.026   0.850   1.303  0.7189 -0.1789 -0.8393
  232MOL0     C31249  10.159   0.911   1.336  0.2792 -0.7039  0.2857
  232MOL0     C31250  10.267   0.952   1.377  0.3591  0.3448  0.2740
  232MOL0     C31251  10.241   0.449   1.743 -1.0677  0.4161 -0.6197
  232MOL0     C31252  10.294   0.349   1.824 -0.3453  0.8641 -0.3833
  232MOL0     H31253  10.102  -0.104   2.095  1.2850 -2.5206 -1.0772
  232MOL0     H31254  10.148  -0.282   2.255  1.2593  0.2215 -2.9043
  232MOL0     H31255  10.469  -0.171   2.567 -0.9630  0.2789 -2.0111
  232MOL0     H31256  10.376  -0.289   2.653 -1.3133  3.3643  0.4636
  232MOL0     H31257  10.545  -0.358   2.408  0.1595 -3.3855 -0.1511
  232MOL0     H31258  10.604  -0.363   2.573  1.6741 -1.0221 -1.2727
  232MOL0     H31259  10.418  -0.535   2.607 -0.4727  1.3560 -0.2164
  232MOL0     H31260  10.395  -0.536   2.426  1.5178 -1.1881 -0.9981
  232MOL0     H31261  10.605  -0.621   2.382 -1.1846  2.4427 -0.3284
  232MOL0     H31262  10.666  -0.581   2.537  2.6193 -0.0495 -3.7766
  232MOL0     H31263  10.523  -0.749   2.646  3.0721  0.3760  0.5929
  232MOL0     H31264  10.449  -0.781   2.483  0.8921  2.3933 -2.5299
  232MOL0     H31265  10.701  -0.858   2.412 -0.6352  0.7108 -0.7313
  232MOL0     H31266  10.746  -0.827   2.576 -0.2500  0.5295  0.3142
  232MOL0     H31267  10.559  -0.991   2.659 -2.3774  1.4270 -1.8396
  232MOL0     H31268  10.545  -1.033   2.493 -0.0956 -2.7205  1.2256
  232MOL0     H31269  10.705  -1.162   2.657  2.3085  2.2391  2.4891
  232MOL0     H31270  10.823  -1.045   2.608  0.3985  0.5681 -2.5340
  232MOL0     H31271  10.552  -1.241   2.449  0.1117  1.4684  0.4935
  232MOL0     H31272  10.537  -1.454   2.245 -0.5433 -0.9591  3.8683
  232MOL0     H31273  10.674  -1.444   2.133  2.9411  1.0124  1.2305
  232MOL0     H31274  10.777  -1.563   2.386 -0.8850 -3.4485  1.0761
  232MOL0     H31275  10.761  -1.632   2.226  2.3914 -1.3158  2.6642
  232MOL0     H31276  10.642  -1.752   2.398 -0.8410 -0.5283  1.6466
  232MOL0     H31277  10.521  -1.692   2.281  1.8420  0.7977 -2.4398
  232MOL0     H31278  10.573  -1.548   2.542 -2.8240  3.5114 -1.3196
  232MOL0     H31279  10.468  -1.694   2.525  2.8799 -1.3953 -1.3011
  232MOL0     H31280  10.461  -1.451   2.693  0.2602  1.9473  2.2056
  232MOL0     H31281  10.401  -1.210   2.917 -3.9417  1.6939  1.9557
  232MOL0     H31282  10.261  -1.309   2.929 -0.8427 -3.5445 -2.3597
  232MOL0     H31283  10.406  -1.388   2.899  0.0547 -0.6108  0.2927
  232MOL0     H31284   9.891  -0.930   2.772 -4.0115  1.3488 -0.7036
  232MOL0     H31285   9.829  -0.696   2.836  1.7687 -0.0480  2.2887
  232MOL0     H31286  10.113  -0.346   2.737  0.8810  1.0973 -0.7760
  232MOL0     H31287  10.028  -0.392   2.596  0.7029 -0.7935 -0.3541
  232MOL0     H31288   9.885  -0.222   2.808  2.6316  0.5641 -1.2734
  232MOL0     H31289   9.984  -0.145   2.695  1.5203  0.5974  2.8338
  232MOL0     H31290   9.740  -0.187   2.619  1.5216  2.2907  1.4620
  232MOL0     H31291   9.774  -0.364   2.625 -1.0591  0.2686 -0.1303
  232MOL0     H31292   9.950  -0.199   2.459 -0.6550  0.2038 -0.3143
  232MOL0     H31293   9.880  -0.358   2.431  0.3448 -1.4250  4.4193
  232MOL0     H31294   9.735  -0.086   2.412 -2.1066  0.4373  1.5039
  232MOL0     H31295   9.652  -0.241   2.384  1.2065 -2.3655 -1.0474
  232MOL0     H31296   9.874  -0.140   2.210 -0.2315  0.5698  0.4268
  232MOL0     H31297   9.792  -0.293   2.192  3.7464  0.3297  0.9540
  232MOL0     H31298   9.573  -0.155   2.149  0.9098  0.1198 -0.4798
  232MOL0     H31299   9.707  -0.136   2.037 -0.6928 -2.3858  0.2867
  232MOL0     H31300   9.784   0.083   2.163 -1.3100  2.1060  0.8857
  232MOL0     H31301   9.663   0.054   2.272  2.7673  0.5832 -0.0345
  232MOL0     H31302  10.195  -0.560   2.667 -0.4187  1.0432  0.5596
  232MOL0     H31303  10.255  -0.785   2.598 -0.2282 -2.3219  2.0967
  232MOL0     H31304  10.165  -1.157   2.441 -0.8029 -2.7158 -2.1568
  232MOL0     H31305  10.235  -1.340   2.341 -2.6815  0.1458  0.8707
  232MOL0     H31306  10.421  -0.015   2.459  0.0390 -1.9834 -0.6093
  232MOL0     H31307  10.366   0.161   2.297 -0.9574  0.4954 -0.5549
  232MOL0     H31308  10.059   0.374   2.075 -1.1200 -1.6599 -1.0711
  232MOL0     H31309   9.949   0.528   1.900  0.7025  1.7556 -1.0058
  232MOL0     H31310  10.031   0.455   1.548 -3.3933 -1.4387  1.6897
  232MOL0     H31311   9.896   0.550   1.573 -0.2544 -1.2462 -0.6566
  232MOL0     H31312  10.058   0.581   1.356  0.5172 -0.4721 -0.1842
  232MOL0     H31313  10.157   0.661   1.467 -0.7787  1.3329  1.8131
  232MOL0     H31314   9.964   0.832   1.510  2.5156 -3.1296  2.3152
  232MOL0     H31315   9.862   0.746   1.407 -0.0023  0.1043 -0.1819
  232MOL0     H31316   9.950   0.923   1.272  1.1549 -0.1761 -1.9591
  232MOL0     H31317  10.036   0.780   1.219  0.1995 -1.6525  0.2887
  232MOL0     H31318  10.366   0.985   1.401  0.4291  0.0797  0.3519
  232MOL0     H31319  10.303   0.481   1.660  2.0182  0.7599  1.6612
  232MOL0     H31320  10.381   0.289   1.799 -0.8501  0.6498 -1.6590
  233MOL0     O31321   6.034   7.758   7.047  0.9043  0.0565 -0.2364
  233MOL0     C31322   6.087   7.787   7.154  0.0701  0.1830 -0.0700
  233MOL0     O31323   6.128   7.910   7.196 -0.7326  0.3528  0.1501
  233MOL0     C31324   6.110   8.014   7.110  0.4964 -0.0591 -0.8138
  233MOL0     C31325   5.979   8.055   7.083 -1.0253 -0.5959  0.2851
  233MOL0     C31326   5.944   8.169   7.005 -0.0574 -1.0061  0.4699
  233MOL0     C31327   6.050   8.251   6.945 -0.0913 -0.6614 -0.7268
  233MOL0     O31328   6.037   8.355   6.854 -0.4962 -0.7248 -0.2112
  233MOL0     C31329   5.954   8.465   6.903  0.7019 -0.6739  0.8503
  233MOL0     C31330   5.856   8.512   6.790 -1.0269  0.8939  0.1335
  233MOL0     C31331   5.735   8.413   6.760  0.4333  0.0399  0.6547
  233MOL0     C31332   5.629   8.471   6.665 -0.7308 -0.6684 -0.4413
  233MOL0     C31333   5.543   8.592   6.711 -0.3144 -0.7326 -0.6292
  233MOL0     C31334   5.416   8.620   6.630  0.4495  0.8099  0.1799
  233MOL0     C31335   5.306   8.514   6.645 -0.3389  0.1022 -0.3682
  233MOL0     C31336   5.188   8.531   6.544  0.2563  0.6343  0.3684
  233MOL0     N31337   5.103   8.640   6.590  0.4000 -0.0082  0.1409
  233MOL0     C31338   5.092   8.769   6.553 -0.2296  0.5353  0.1441
  233MOL0     C31339   4.980   8.814   6.611  0.0533 -0.4787  0.1347
  233MOL0     C31340   4.918   8.951   6.587 -0.8889 -0.8639 -1.0044
  233MOL0     C31341   4.995   9.050   6.675 -0.4733 -0.2588 -0.5287
  233MOL0     C31342   4.951   9.193   6.641 -0.0102 -0.5065  0.7252
  233MOL0     C31343   5.011   9.263   6.512  0.4886  0.0429 -0.1616
  233MOL0     O31344   5.152   9.291   6.540  0.1139  0.7860 -0.6117
  233MOL0     C31345   5.243   9.186   6.515 -0.2901 -0.0123 -0.6037
  233MOL0     C31346   5.326   9.151   6.619  0.4130 -0.7936 -0.3912
  233MOL0     C31347   5.434   9.051   6.613 -0.7530  0.5471  0.2210
  233MOL0     C31348   5.525   9.025   6.727  0.1816  0.1672  0.1125
  233MOL0     C31349   5.442   8.987   6.484  0.5587  0.5026  0.2668
  233MOL0     C31350   5.547   8.889   6.434  0.3376 -0.9168 -0.4748
  233MOL0     O31351   5.669   8.908   6.497  0.8568  0.7263 -0.6767
  233MOL0     C31352   5.781   8.830   6.470 -0.1388  0.2926  0.4511
  233MOL0     C31353   5.897   8.896   6.505  1.3222 -0.3280  0.3492
  233MOL0     C31354   6.019   8.831   6.471  0.1114  0.3529 -0.3828
  233MOL0     C31355   6.031   8.704   6.423 -0.2829  0.6477  0.4792
  233MOL0     O31356   6.154   8.644   6.393  0.2201 -0.0582  0.1076
  233MOL0     C31357   6.166   8.503   6.355  0.0029  0.2101 -1.0256
  233MOL0     C31358   6.176   8.412   6.476  0.0476 -0.2369 -0.9458
  233MOL0     C31359   6.319   8.374   6.505 -0.7776 -0.8884  0.1291
  233MOL0     C31360   6.323   8.314   6.655 -0.2984 -0.0400  0.3228
  233MOL0     C31361   6.436   8.203   6.672 -0.4352  0.9085  0.7057
  233MOL0     C31362   6.577   8.238   6.628 -0.1614 -0.2189  0.0159
  233MOL0     C31363   6.673   8.142   6.688  0.1367 -0.6729  0.2602
  233MOL0     C31364   6.817   8.164   6.645 -0.0219 -0.1359 -0.3244
  233MOL0    Cl31365   6.881   8.314   6.719 -0.1692  0.2144 -0.1875
  233MOL0     C31366   5.910   8.642   6.393 -0.1089 -1.4476 -0.3148
  233MOL0     C31367   5.788   8.703   6.417  0.0530  0.2398  0.4712
  233MOL0     O31368   5.527   8.808   6.344  0.5287 -0.3897  0.4127
  233MOL0     C31369   5.350   9.022   6.382  0.1552  0.1155  0.2141
  233MOL0     C31370   5.242   9.107   6.401  0.2387 -0.5529  0.0150
  233MOL0     N31371   4.932   8.712   6.701  0.2831 -0.1053 -0.3520
  233MOL0     N31372   5.011   8.612   6.687 -0.3159 -0.2603 -0.4190
  233MOL0     C31373   6.188   8.215   6.980  0.3365  0.1291  0.0313
  233MOL0     C31374   6.215   8.092   7.054  0.5386  0.2309 -0.2131
  233MOL0     C31375   6.123   7.678   7.244 -0.5685  0.6859  0.1339
  233MOL0     C31376   6.154   7.555   7.189 -0.2037  0.5947 -0.4587
  233MOL0     C31377   6.209   7.449   7.264 -0.1915 -0.3408  0.2017
  233MOL0     C31378   6.249   7.471   7.401  0.2698  0.8690  0.8609
  233MOL0     O31379   6.313   7.367   7.451 -0.4499  0.4768  0.1732
  233MOL0     C31380   6.380   7.378   7.576  0.8562 -0.0496  0.6661
  233MOL0     C31381   6.457   7.244   7.591  0.4022 -0.0303  0.6570
  233MOL0     C31382   6.387   7.111   7.569 -0.2734  0.2264  0.6737
  233MOL0     C31383   6.270   7.098   7.661 -0.2609  0.7612 -0.3999
  233MOL0     C31384   6.269   6.963   7.720 -0.0309 -0.1459 -0.2087
  233MOL0     C31385   6.257   6.860   7.784  0.6651 -1.0624 -0.5930
  233MOL0     C31386   6.211   7.592   7.460  0.9567 -0.0070 -0.0428
  233MOL0     C31387   6.156   7.688   7.381  0.8240 -0.1444  0.4090
  233MOL0     H31388   5.901   7.987   7.116 -5.1198  3.2732 -0.3973
  233MOL0     H31389   5.840   8.195   6.985  0.4326  1.5916  0.8261
  233MOL0     H31390   5.893   8.431   6.987  0.4609 -0.6038  0.7062
  233MOL0     H31391   6.021   8.543   6.941  0.2998  0.8428 -1.3576
  233MOL0     H31392   5.820   8.612   6.815 -2.6608  0.6949 -1.2027
  233MOL0     H31393   5.915   8.511   6.698  0.2978  1.3714  0.9487
  233MOL0     H31394   5.771   8.321   6.713  1.2693  0.5609  0.2373
  233MOL0     H31395   5.677   8.382   6.847  0.1637 -2.0144 -0.1990
  233MOL0     H31396   5.672   8.481   6.564  0.1535 -0.9199 -0.1020
  233MOL0     H31397   5.559   8.388   6.653 -1.2228 -0.2904 -0.2081
  233MOL0     H31398   5.505   8.582   6.814 -4.4643  3.8569 -1.3241
  233MOL0     H31399   5.605   8.682   6.708 -0.5426 -0.6023 -1.4544
  233MOL0     H31400   5.378   8.716   6.665  3.3357  1.9722  0.3594
  233MOL0     H31401   5.457   8.628   6.529  1.4106  0.4631  0.5339
  233MOL0     H31402   5.349   8.414   6.640  2.2294  0.6110  4.8463
  233MOL0     H31403   5.280   8.520   6.751  2.9673 -0.0987  0.5390
  233MOL0     H31404   5.131   8.438   6.543 -0.4516  1.0141  2.1836
  233MOL0     H31405   5.235   8.565   6.451  3.2093  0.4126  1.6809
  233MOL0     H31406   5.144   8.826   6.477  0.1235  0.1620  0.1034
  233MOL0     H31407   4.944   8.987   6.487 -0.8968  0.9943 -0.3714
  233MOL0     H31408   4.812   8.951   6.613 -0.1892 -1.6446  2.3069
  233MOL0     H31409   5.100   9.034   6.651 -0.4398  1.9838 -2.1726
  233MOL0     H31410   4.984   9.035   6.783 -2.4505  0.3048 -0.6159
  233MOL0     H31411   4.970   9.266   6.721  3.0422 -2.1453  1.6604
  233MOL0     H31412   4.844   9.187   6.618 -0.2187 -1.5765  1.8553
  233MOL0     H31413   4.956   9.354   6.487 -0.4850 -0.0945  1.3412
  233MOL0     H31414   4.990   9.195   6.429 -3.3611  0.1146  0.5796
  233MOL0     H31415   5.322   9.190   6.721  1.4735  2.1051 -1.3579
  233MOL0     H31416   5.604   9.100   6.739 -0.9543  1.4234  0.0283
  233MOL0     H31417   5.467   9.034   6.820  2.4614  0.5784  1.5786
  233MOL0     H31418   5.556   8.921   6.732 -1.7728 -0.4198  1.5127
  233MOL0     H31419   5.891   9.000   6.534 -0.5238  0.3229 -2.0243
  233MOL0     H31420   6.108   8.886   6.501 -1.8412  3.0189  1.0274
  233MOL0     H31421   6.082   8.457   6.303 -0.1433 -5.1305  3.0646
  233MOL0     H31422   6.260   8.485   6.301 -0.0272 -2.9207 -0.2031
  233MOL0     H31423   6.142   8.465   6.566  1.9034 -0.3832 -0.0975
  233MOL0     H31424   6.120   8.319   6.467  0.9271 -1.0039  0.8711
  233MOL0     H31425   6.390   8.456   6.493  0.7085 -2.5045 -3.7941
  233MOL0     H31426   6.349   8.294   6.437 -0.1025  0.9548 -1.8803
  233MOL0     H31427   6.359   8.404   6.705  0.5387  2.4480 -4.2012
  233MOL0     H31428   6.219   8.284   6.669  0.2043 -1.4154  1.4278
  233MOL0     H31429   6.407   8.121   6.606 -2.7491  0.9708  1.5451
  233MOL0     H31430   6.435   8.181   6.779  0.1921 -1.8242  0.2222
  233MOL0     H31431   6.571   8.243   6.519 -1.2593  4.2136  0.0562
  233MOL0     H31432   6.589   8.342   6.661 -1.3051  0.2515 -0.9646
  233MOL0     H31433   6.656   8.039   6.654 -3.4753  0.1501 -0.8481
  233MOL0     H31434   6.664   8.143   6.797 -1.9948 -1.2097  0.1238
  233MOL0     H31435   6.816   8.177   6.537 -0.1880 -0.6825 -0.3913
  233MOL0     H31436   6.886   8.087   6.682 -2.2371 -1.2556  1.8122
  233MOL0     H31437   5.899   8.549   6.338 -0.6532 -1.4587 -0.1917
  233MOL0     H31438   5.696   8.654   6.387 -0.3238  0.9962  0.3586
  233MOL0     H31439   5.352   8.979   6.282  0.5570  0.3991  0.0956
  233MOL0     H31440   5.174   9.131   6.320  0.9019 -0.5192 -0.5445
  233MOL0     H31441   6.261   8.290   6.952  0.4849 -0.2722 -0.6966
  233MOL0     H31442   6.317   8.062   7.074  1.4139  2.3220 -1.2410
  233MOL0     H31443   6.131   7.526   7.086 -0.1783 -0.1372 -0.2668
  233MOL0     H31444   6.241   7.354   7.221  0.6898  0.4399 -0.9255
  233MOL0     H31445   6.450   7.463   7.576 -0.6597  1.2513  0.0375
  233MOL0     H31446   6.311   7.397   7.658  2.2313  0.8168  1.6864
  233MOL0     H31447   6.515   7.247   7.684  3.2868  1.8323 -1.0276
  233MOL0     H31448   6.537   7.251   7.516 -0.0921 -1.3438 -0.0230
  233MOL0     H31449   6.451   7.023   7.570  0.0337  0.4106 -0.4634
  233MOL0     H31450   6.353   7.105   7.465  0.6168 -2.0710  0.4621
  233MOL0     H31451   6.175   7.111   7.607 -0.6640  0.4435  0.2129
  233MOL0     H31452   6.271   7.173   7.741  2.4950  0.2776  0.1068
  233MOL0     H31453   6.247   6.777   7.850  0.0249  1.1980  2.4025
  233MOL0     H31454   6.224   7.633   7.560 -1.9888  1.9043 -0.3114
  233MOL0     H31455   6.136   7.787   7.421  3.8698  1.4661 -1.6437
  234MOL0     O31456   7.521   2.693   6.008 -0.4255  0.2450 -0.5318
  234MOL0     C31457   7.488   2.807   6.026  0.0959  0.4112 -0.6500
  234MOL0     O31458   7.547   2.887   6.123  0.3887 -0.2547  0.4266
  234MOL0     C31459   7.624   2.833   6.219  0.3948  0.0799 -0.2547
  234MOL0     C31460   7.583   2.813   6.357 -0.4904 -0.7300  0.8281
  234MOL0     C31461   7.674   2.741   6.445 -0.7305  0.2387  0.5735
  234MOL0     C31462   7.804   2.709   6.400  0.3421  0.7460 -0.5216
  234MOL0     O31463   7.904   2.653   6.474  0.1292  0.4350  0.1603
  234MOL0     C31464   7.880   2.617   6.617  0.3147  1.1543  0.0533
  234MOL0     C31465   7.999   2.538   6.669  0.4531  0.2684  0.2512
  234MOL0     C31466   7.960   2.433   6.782 -0.1054  0.1308 -0.3884
  234MOL0     C31467   8.088   2.353   6.832  0.4969 -0.0218  0.3761
  234MOL0     C31468   8.065   2.250   6.937 -0.2920  0.2025 -0.5379
  234MOL0     C31469   8.200   2.197   7.000 -1.3853  1.2095  0.0792
  234MOL0     C31470   8.169   2.101   7.112 -0.5160 -0.5294  0.4156
  234MOL0     C31471   8.295   2.063   7.195 -0.2507 -0.0722  0.2269
  234MOL0     N31472   8.270   2.067   7.340 -0.1298 -0.2889 -0.0400
  234MOL0     C31473   8.317   2.161   7.431 -0.0607  0.4137 -0.6297
  234MOL0     C31474   8.273   2.106   7.549  0.1672 -0.5252  0.8595
  234MOL0     C31475   8.311   2.161   7.686 -0.5088  0.3172  0.5378
  234MOL0     C31476   8.206   2.136   7.789  0.7305 -0.1015  1.1629
  234MOL0     C31477   8.255   2.185   7.925 -0.0235 -0.2142 -0.4834
  234MOL0     C31478   8.143   2.223   8.017  0.2537 -0.6905 -0.6772
  234MOL0     O31479   8.205   2.242   8.149  0.5754  0.4277 -0.5279
  234MOL0     C31480   8.113   2.245   8.255 -0.2111 -0.9797  0.7076
  234MOL0     C31481   8.129   2.151   8.361 -0.4936  0.4017 -0.0949
  234MOL0     C31482   8.030   2.150   8.463 -0.5150 -0.4764 -1.3578
  234MOL0     C31483   8.059   2.051   8.571 -0.0760  0.8841 -0.7081
  234MOL0     C31484   7.927   2.243   8.462 -0.7284  0.7561 -0.0220
  234MOL0     C31485   7.827   2.253   8.562  0.1645  0.7466 -0.4369
  234MOL0     O31486   7.754   2.369   8.547 -0.6487 -0.0105  0.6365
  234MOL0     C31487   7.674   2.418   8.645  1.0853  0.0938 -1.1279
  234MOL0     C31488   7.688   2.556   8.680  0.5416 -0.5722 -0.6770
  234MOL0     C31489   7.607   2.626   8.767  0.0175 -0.2330 -0.1596
  234MOL0     C31490   7.491   2.564   8.814  0.5473 -0.0564  0.2356
  234MOL0     O31491   7.384   2.639   8.872 -0.1772  0.1167  0.8079
  234MOL0     C31492   7.416   2.758   8.947  0.5230 -0.5665  0.3688
  234MOL0     C31493   7.303   2.832   9.009  0.7354 -0.4430 -0.9010
  234MOL0     C31494   7.349   2.973   9.049  0.0448 -0.4316 -0.3463
  234MOL0     C31495   7.464   2.970   9.154  0.4024  0.5204 -0.3801
  234MOL0     C31496   7.430   2.897   9.280  0.0477 -0.6267 -0.0156
  234MOL0     C31497   7.561   2.839   9.348  0.7116 -0.6214  0.0702
  234MOL0     C31498   7.520   2.779   9.481 -0.2659  1.2699 -0.1761
  234MOL0     C31499   7.647   2.751   9.563 -0.6624  0.3601  0.0051
  234MOL0    Cl31500   7.630   2.631   9.701  0.4512  0.1467  0.2566
  234MOL0     C31501   7.471   2.427   8.778  0.6245 -0.3443 -0.5893
  234MOL0     C31502   7.555   2.353   8.703 -0.0780  0.4730 -0.4545
  234MOL0     O31503   7.810   2.173   8.652  0.5432 -0.5822  0.0670
  234MOL0     C31504   7.923   2.337   8.357  1.0217 -0.3793  0.3781
  234MOL0     C31505   8.014   2.339   8.255  0.9054  0.0635  0.2558
  234MOL0     N31506   8.206   1.993   7.527 -0.2061  0.7082 -0.1565
  234MOL0     N31507   8.207   1.970   7.400 -0.0137  0.4703  0.1319
  234MOL0     C31508   7.837   2.743   6.265  0.3658  0.0736 -1.3905
  234MOL0     C31509   7.758   2.801   6.180  0.7022 -0.6827 -0.0172
  234MOL0     C31510   7.395   2.872   5.938  0.9773  0.4510 -0.5703
  234MOL0     C31511   7.360   3.008   5.961 -0.0691 -0.4514 -0.2428
  234MOL0     C31512   7.275   3.080   5.866 -0.3606 -0.4991  0.3391
  234MOL0     C31513   7.225   3.022   5.751 -0.9707  0.4342  0.9800
  234MOL0     O31514   7.140   3.084   5.673 -0.1172 -1.7529 -0.0678
  234MOL0     C31515   7.031   3.020   5.605  0.3168  0.1957  0.5357
  234MOL0     C31516   6.962   3.124   5.519  0.9205 -0.4890  0.2312
  234MOL0     C31517   6.829   3.167   5.583  0.1730  0.1593 -0.2512
  234MOL0     C31518   6.856   3.241   5.724  0.3696 -1.0728  0.3215
  234MOL0     C31519   6.743   3.336   5.755 -0.0898 -0.4114 -0.5542
  234MOL0     C31520   6.656   3.420   5.779 -0.2399  0.2743  0.3361
  234MOL0     C31521   7.255   2.885   5.738 -0.1858  0.0108 -0.6650
  234MOL0     C31522   7.335   2.810   5.829 -0.1708  0.2496  0.6721
  234MOL0     H31523   7.481   2.825   6.392  0.0216 -2.2472  3.0349
  234MOL0     H31524   7.644   2.721   6.548 -1.9803 -1.1437 -0.0325
  234MOL0     H31525   7.869   2.711   6.671  1.5142  1.1626  0.2933
  234MOL0     H31526   7.786   2.560   6.618  1.2151 -0.6465 -3.1886
  234MOL0     H31527   8.052   2.485   6.590  0.4765 -1.3063  1.2688
  234MOL0     H31528   8.077   2.601   6.714 -0.4889  3.8634 -2.6594
  234MOL0     H31529   7.904   2.491   6.856 -1.3579  0.6742 -1.7175
  234MOL0     H31530   7.886   2.363   6.742  1.4021 -1.6019 -0.2626
  234MOL0     H31531   8.128   2.306   6.741  2.2338  0.2952  0.9309
  234MOL0     H31532   8.167   2.418   6.870  0.1937  0.7467 -0.2763
  234MOL0     H31533   8.003   2.285   7.020 -3.1542 -1.4598 -1.7973
  234MOL0     H31534   8.007   2.169   6.891 -0.2241 -0.1840  0.0322
  234MOL0     H31535   8.259   2.149   6.921 -0.1756  1.0296  1.0619
  234MOL0     H31536   8.259   2.277   7.045 -1.3240  0.4552  1.3868
  234MOL0     H31537   8.090   2.145   7.173 -4.5537 -1.6448 -3.4516
  234MOL0     H31538   8.128   2.005   7.078 -2.7717  0.1212  1.1133
  234MOL0     H31539   8.381   2.126   7.169  1.7444 -2.1569  1.3464
  234MOL0     H31540   8.311   1.960   7.160 -1.4381 -0.4424  0.7263
  234MOL0     H31541   8.369   2.253   7.408 -2.3033  1.8884 -0.0813
  234MOL0     H31542   8.416   2.137   7.708 -0.7191 -4.2567 -2.1674
  234MOL0     H31543   8.324   2.266   7.659 -0.7838 -0.4955 -3.3453
  234MOL0     H31544   8.175   2.032   7.794 -0.8385  0.0475 -2.3010
  234MOL0     H31545   8.120   2.195   7.755  1.3262  1.0247  1.5493
  234MOL0     H31546   8.315   2.269   7.890  3.3443 -2.3327 -0.2422
  234MOL0     H31547   8.318   2.104   7.966 -0.0587  0.3154  0.6697
  234MOL0     H31548   8.061   2.152   8.029 -1.7939  1.8836  1.8988
  234MOL0     H31549   8.105   2.314   7.970 -0.0486 -1.5341 -2.1107
  234MOL0     H31550   8.214   2.083   8.360  0.1816  1.1985 -1.9838
  234MOL0     H31551   8.162   2.057   8.608 -0.0782  0.3049 -0.5994
  234MOL0     H31552   7.994   2.054   8.659 -0.1258 -0.0176 -0.7113
  234MOL0     H31553   8.052   1.951   8.527  0.2231  0.0675  1.0220
  234MOL0     H31554   7.776   2.604   8.637  0.1868  1.8557  1.0600
  234MOL0     H31555   7.616   2.734   8.777  2.6608 -0.5602  2.4710
  234MOL0     H31556   7.465   2.730   9.040 -1.8262  0.6146  2.0726
  234MOL0     H31557   7.478   2.825   8.887 -0.1454 -2.2764 -2.4152
  234MOL0     H31558   7.226   2.838   8.931 -2.4075 -0.5084  1.9951
  234MOL0     H31559   7.257   2.774   9.088  0.5582  4.5266  3.1400
  234MOL0     H31560   7.259   3.024   9.084  0.9741 -0.3743  2.1767
  234MOL0     H31561   7.383   3.026   8.960 -1.0073  1.7514  0.4713
  234MOL0     H31562   7.558   2.923   9.125  1.2333 -1.0375  4.0464
  234MOL0     H31563   7.495   3.068   9.190  1.9065 -0.3856  0.9222
  234MOL0     H31564   7.349   2.824   9.266 -0.9337  0.2987  0.6337
  234MOL0     H31565   7.394   2.980   9.342 -0.3303 -0.5225 -0.3711
  234MOL0     H31566   7.612   2.778   9.273  2.8014  0.7742  0.2735
  234MOL0     H31567   7.628   2.920   9.379 -3.0979  1.8954  2.6632
  234MOL0     H31568   7.479   2.679   9.469  0.1511  1.0405  0.2773
  234MOL0     H31569   7.452   2.848   9.533  0.5456  2.3338 -0.4798
  234MOL0     H31570   7.668   2.844   9.616  1.7864  0.7586 -1.4840
  234MOL0     H31571   7.722   2.731   9.485 -0.7503  1.1325 -0.2802
  234MOL0     H31572   7.380   2.375   8.807  1.5587 -1.1529  1.0865
  234MOL0     H31573   7.539   2.247   8.688  0.3577  0.2301  0.6923
  234MOL0     H31574   7.845   2.412   8.346  0.8430 -0.3532  1.7245
  234MOL0     H31575   8.008   2.407   8.171  0.7739 -2.7110 -2.1090
  234MOL0     H31576   7.932   2.706   6.226 -0.9112 -3.2969 -1.6065
  234MOL0     H31577   7.782   2.820   6.076 -2.5814  1.7511 -0.5168
  234MOL0     H31578   7.400   3.063   6.045 -0.3755 -0.4868 -0.0727
  234MOL0     H31579   7.232   3.177   5.887 -0.0469  0.7686 -3.8612
  234MOL0     H31580   7.068   2.945   5.534  1.0433  2.2271 -1.3277
  234MOL0     H31581   6.973   2.974   5.686  2.0647  2.1794  3.0920
  234MOL0     H31582   6.956   3.072   5.423 -1.9013  0.2073 -0.0445
  234MOL0     H31583   7.024   3.214   5.507  0.0907  0.0903  0.2373
  234MOL0     H31584   6.764   3.079   5.590  1.9469 -1.3392 -1.7504
  234MOL0     H31585   6.778   3.235   5.515 -1.7695 -1.6539 -0.7182
  234MOL0     H31586   6.948   3.300   5.718 -1.1418  1.3934  0.3671
  234MOL0     H31587   6.870   3.166   5.803  1.4553 -1.5963 -0.3414
  234MOL0     H31588   6.575   3.485   5.805 -1.6982 -2.0056  1.8329
  234MOL0     H31589   7.217   2.826   5.656  2.5928 -1.5091 -0.9664
  234MOL0     H31590   7.344   2.704   5.808  0.3704  0.5782 -0.9210
  235MOL0     O31591   3.388   0.995   6.307  0.6064 -0.4808  0.6135
  235MOL0     C31592   3.484   1.067   6.307 -0.5549 -0.4060 -0.0440
  235MOL0     O31593   3.603   1.038   6.375 -0.5710  0.3013  0.6074
  235MOL0     C31594   3.603   0.927   6.463 -0.7252  0.2049 -0.0443
  235MOL0     C31595   3.495   0.893   6.554 -0.1407 -0.3855 -0.1578
  235MOL0     C31596   3.517   0.783   6.635 -0.4986 -0.4758  0.1441
  235MOL0     C31597   3.634   0.704   6.643  0.2689  1.2013  0.1876
  235MOL0     O31598   3.636   0.616   6.750 -0.2537  0.3678 -0.3662
  235MOL0     C31599   3.742   0.532   6.790 -0.1523  0.6025 -0.3902
  235MOL0     C31600   3.706   0.433   6.904  0.4375 -0.2279 -0.0554
  235MOL0     C31601   3.723   0.284   6.869 -0.1042 -0.4502  0.2991
  235MOL0     C31602   3.686   0.190   6.974 -0.5076 -0.3247 -0.5145
  235MOL0     C31603   3.703   0.051   6.932 -0.2434 -0.4484 -0.4124
  235MOL0     C31604   3.665  -0.047   7.049 -0.4835 -0.2353  1.1336
  235MOL0     C31605   3.717  -0.191   7.017  0.2624  0.3299  0.3008
  235MOL0     C31606   3.637  -0.268   6.913  0.1778 -0.0664  1.1784
  235MOL0     N31607   3.712  -0.392   6.871  0.7801 -0.0186  1.2482
  235MOL0     C31608   3.708  -0.508   6.933  0.0199  0.6292  0.0429
  235MOL0     C31609   3.791  -0.588   6.866 -0.0518  0.7191  0.0778
  235MOL0     C31610   3.822  -0.734   6.892  0.3670  0.2429 -0.2382
  235MOL0     C31611   3.695  -0.817   6.884 -0.1409  0.0011 -0.3801
  235MOL0     C31612   3.643  -0.804   6.739 -0.0615 -0.2287  0.0899
  235MOL0     C31613   3.509  -0.888   6.751 -0.4743 -0.8311  0.3541
  235MOL0     O31614   3.459  -0.914   6.622 -0.8325 -0.0109 -0.5626
  235MOL0     C31615   3.376  -1.020   6.608  0.1914 -0.2845 -0.5849
  235MOL0     C31616   3.370  -1.078   6.489 -0.4662  0.7997 -0.3169
  235MOL0     C31617   3.321  -1.207   6.455 -0.2557  0.3393 -0.2928
  235MOL0     C31618   3.355  -1.281   6.331  0.4648 -0.1030 -1.4104
  235MOL0     C31619   3.233  -1.252   6.554  0.0786  0.1210 -0.4654
  235MOL0     C31620   3.129  -1.365   6.533 -0.3222 -0.7870  0.2777
  235MOL0     O31621   3.085  -1.419   6.652  0.7819 -0.1313  0.1005
  235MOL0     C31622   2.984  -1.518   6.651  0.5015  0.1108 -0.2328
  235MOL0     C31623   2.981  -1.596   6.770  0.2403  0.4758  0.2933
  235MOL0     C31624   2.878  -1.681   6.802 -0.0309  0.3481  0.3581
  235MOL0     C31625   2.768  -1.693   6.711  0.7312  0.5464  0.2459
  235MOL0     O31626   2.660  -1.779   6.722  0.5772  0.1501  0.2293
  235MOL0     C31627   2.665  -1.902   6.799 -0.8428  0.0887 -0.2707
  235MOL0     C31628   2.537  -1.927   6.878 -0.3442 -0.8313  0.5394
  235MOL0     C31629   2.539  -2.053   6.969 -0.3888  0.9857 -0.3845
  235MOL0     C31630   2.416  -2.080   7.060 -0.2993  0.5125 -0.1001
  235MOL0     C31631   2.376  -2.224   7.038  1.3567 -0.2915 -1.0407
  235MOL0     C31632   2.323  -2.278   7.175 -0.3906 -0.1031  0.6212
  235MOL0     C31633   2.275  -2.418   7.140  0.2793  0.4050 -0.7910
  235MOL0     C31634   2.259  -2.508   7.257  0.0286 -0.5614  0.4597
  235MOL0    Cl31635   2.186  -2.673   7.211 -0.4712  0.1745  0.3066
  235MOL0     C31636   2.764  -1.621   6.592 -0.3172 -0.6146 -0.3751
  235MOL0     C31637   2.870  -1.529   6.564  0.2383  0.8913 -0.3445
  235MOL0     O31638   3.096  -1.388   6.423 -0.0447 -0.5198  0.4479
  235MOL0     C31639   3.212  -1.179   6.677 -0.8720 -0.5035  0.3311
  235MOL0     C31640   3.289  -1.066   6.708 -1.0280 -0.1067  0.1943
  235MOL0     N31641   3.843  -0.514   6.759  0.9839  0.4992  0.5802
  235MOL0     N31642   3.786  -0.403   6.759 -1.0327  0.1120  0.1681
  235MOL0     C31643   3.741   0.730   6.558  0.2160  0.6035 -0.3826
  235MOL0     C31644   3.725   0.841   6.471  0.7813 -0.3971 -0.0863
  235MOL0     C31645   3.476   1.192   6.234  0.2020  0.3414  0.4274
  235MOL0     C31646   3.356   1.249   6.187  0.2500  0.2785 -0.0506
  235MOL0     C31647   3.357   1.363   6.116  0.9288 -0.1814  0.0814
  235MOL0     C31648   3.476   1.437   6.101  0.2622 -0.0637 -0.1149
  235MOL0     O31649   3.456   1.561   6.040 -1.0914  0.0850  0.3038
  235MOL0     C31650   3.569   1.639   6.012  0.3989 -0.4407 -0.0505
  235MOL0     C31651   3.506   1.770   5.966 -0.2388 -0.5372  0.0663
  235MOL0     C31652   3.597   1.888   5.927  0.8822  0.3702  0.8534
  235MOL0     C31653   3.657   1.964   6.045  0.5436 -0.4287 -0.0994
  235MOL0     C31654   3.542   2.037   6.112 -1.3372  0.3488  0.0876
  235MOL0     C31655   3.441   2.060   6.165 -0.3508 -0.5289  0.1496
  235MOL0     C31656   3.594   1.385   6.138 -0.7548 -0.0174  0.4224
  235MOL0     C31657   3.592   1.271   6.214  1.2738  0.9299  1.1121
  235MOL0     H31658   3.402   0.950   6.554 -0.3677 -0.7049  1.5004
  235MOL0     H31659   3.446   0.758   6.713  0.4138 -2.5934  0.3592
  235MOL0     H31660   3.766   0.486   6.693 -1.4286 -6.1688  1.9670
  235MOL0     H31661   3.832   0.587   6.818 -0.4272 -0.1148  2.1664
  235MOL0     H31662   3.772   0.469   6.983 -0.3317  1.0777  0.0378
  235MOL0     H31663   3.602   0.467   6.914  1.0915  2.7592 -1.9478
  235MOL0     H31664   3.671   0.264   6.776  1.7908  0.0575 -0.9354
  235MOL0     H31665   3.831   0.269   6.857 -0.1339 -1.8437  1.5071
  235MOL0     H31666   3.747   0.209   7.063  1.9183 -5.0250 -0.8656
  235MOL0     H31667   3.583   0.210   7.003 -0.1375 -0.4500  0.9698
  235MOL0     H31668   3.650   0.026   6.840  0.7390 -3.3319 -0.2886
  235MOL0     H31669   3.805   0.036   6.894  0.0095 -2.0035  0.7690
  235MOL0     H31670   3.702  -0.003   7.142 -0.5774  0.5220  0.8233
  235MOL0     H31671   3.557  -0.056   7.062 -0.8365 -0.6533 -1.4835
  235MOL0     H31672   3.821  -0.180   6.985 -0.0623  1.9300 -0.3296
  235MOL0     H31673   3.711  -0.252   7.107  1.8406  1.3276  1.1377
  235MOL0     H31674   3.636  -0.199   6.829  2.3008  1.6356  2.4409
  235MOL0     H31675   3.537  -0.288   6.953 -2.3909  3.0817 -2.9444
  235MOL0     H31676   3.636  -0.538   7.010  1.3748  2.4493  2.1352
  235MOL0     H31677   3.892  -0.766   6.815 -1.1572  0.5597 -1.8230
  235MOL0     H31678   3.871  -0.739   6.990  2.1410 -2.2534 -1.1581
  235MOL0     H31679   3.625  -0.782   6.961  0.3889 -2.2079  1.2045
  235MOL0     H31680   3.710  -0.923   6.905 -2.6029 -1.0831 -3.2491
  235MOL0     H31681   3.711  -0.854   6.669 -1.2225 -0.6591 -0.7717
  235MOL0     H31682   3.604  -0.706   6.711 -2.4052 -1.6463 -2.0993
  235MOL0     H31683   3.436  -0.826   6.802 -2.1573 -0.4862 -2.2936
  235MOL0     H31684   3.515  -0.972   6.821  0.7456 -0.5709  0.5912
  235MOL0     H31685   3.430  -1.045   6.404 -2.1551 -2.4267 -3.0522
  235MOL0     H31686   3.441  -1.235   6.281 -0.8940  4.1257 -0.3288
  235MOL0     H31687   3.387  -1.383   6.351  3.3831  0.4465 -2.8034
  235MOL0     H31688   3.271  -1.278   6.261 -0.8458  3.0876  0.0605
  235MOL0     H31689   3.061  -1.596   6.844  0.2202  0.6120  0.3148
  235MOL0     H31690   2.882  -1.740   6.893  0.9568  2.8145  2.0338
  235MOL0     H31691   2.683  -1.994   6.742 -0.5260 -0.5820  0.8597
  235MOL0     H31692   2.752  -1.901   6.866  1.2441  1.0047 -2.8373
  235MOL0     H31693   2.529  -1.834   6.934  2.4174  0.3972 -0.9208
  235MOL0     H31694   2.454  -1.941   6.808  2.0991 -0.5252 -2.6026
  235MOL0     H31695   2.622  -2.038   7.038 -0.7141  0.6738  0.0809
  235MOL0     H31696   2.563  -2.139   6.905 -2.3763 -2.0978  2.6447
  235MOL0     H31697   2.447  -2.055   7.162 -1.1998  0.4371  0.1991
  235MOL0     H31698   2.326  -2.022   7.039  0.9477  1.8334 -2.1856
  235MOL0     H31699   2.459  -2.285   7.001  0.1352 -0.8298 -3.0595
  235MOL0     H31700   2.290  -2.217   6.971  2.2566 -1.3607 -2.3677
  235MOL0     H31701   2.392  -2.281   7.259  0.5580 -0.4783 -0.1504
  235MOL0     H31702   2.239  -2.213   7.201 -3.8499 -2.2790 -3.6811
  235MOL0     H31703   2.342  -2.466   7.068 -0.8449 -0.3844 -1.3378
  235MOL0     H31704   2.178  -2.409   7.090 -0.5493 -0.1176  0.6623
  235MOL0     H31705   2.183  -2.459   7.319  0.0646 -0.2740  0.2814
  235MOL0     H31706   2.357  -2.528   7.300 -0.1311 -1.7742  0.2992
  235MOL0     H31707   2.688  -1.631   6.515  1.0427  1.8017 -2.1767
  235MOL0     H31708   2.859  -1.470   6.473 -3.8952 -2.1039 -2.1201
  235MOL0     H31709   3.130  -1.196   6.746 -3.5577  2.4771 -1.7998
  235MOL0     H31710   3.285  -1.021   6.807 -2.5531 -0.0534  0.1342
  235MOL0     H31711   3.821   0.657   6.555 -0.5631 -0.3072  0.1623
  235MOL0     H31712   3.792   0.857   6.388  0.9926 -3.5867 -0.6396
  235MOL0     H31713   3.260   1.207   6.216 -0.0010  1.9669  1.8089
  235MOL0     H31714   3.266   1.412   6.081 -0.0598 -0.4505  2.1264
  235MOL0     H31715   3.616   1.667   6.107 -0.6238 -1.0967  0.6727
  235MOL0     H31716   3.639   1.603   5.936 -0.0850  0.3484 -0.8792
  235MOL0     H31717   3.437   1.804   6.044 -0.5636  1.8429 -1.1697
  235MOL0     H31718   3.449   1.740   5.877  1.7909  1.0548 -1.8806
  235MOL0     H31719   3.548   1.957   5.858 -0.4253 -2.7283 -1.5657
  235MOL0     H31720   3.674   1.833   5.872 -0.9637 -0.1078 -1.3971
  235MOL0     H31721   3.731   2.031   6.002  0.7428  0.6854  1.8635
  235MOL0     H31722   3.700   1.892   6.115 -0.1849 -1.7417 -0.9493
  235MOL0     H31723   3.343   2.066   6.209  0.7662 -1.9036  3.1561
  235MOL0     H31724   3.687   1.434   6.113  0.4081 -2.2055  0.2111
  235MOL0     H31725   3.694   1.236   6.228  1.9086  0.6632 -2.9368
  236MOL0     O31726  10.124   3.774   8.458  0.2036  0.3611 -0.1508
  236MOL0     C31727  10.201   3.833   8.388 -0.3223  0.8818  0.6609
  236MOL0     O31728  10.328   3.867   8.412 -0.5471  0.5383  0.6612
  236MOL0     C31729  10.368   3.843   8.542  0.3558  0.3069  0.3402
  236MOL0     C31730  10.361   3.956   8.629  0.2996  0.8630 -0.0652
  236MOL0     C31731  10.412   3.939   8.752 -0.2363  0.6908 -0.4126
  236MOL0     C31732  10.472   3.826   8.791  0.2814 -0.3609 -0.5513
  236MOL0     O31733  10.505   3.831   8.929  0.7462 -0.8702  0.4351
  236MOL0     C31734  10.575   3.725   8.987  0.3574  0.6352  1.1932
  236MOL0     C31735  10.609   3.743   9.133  0.8786  0.5501  0.2804
  236MOL0     C31736  10.702   3.637   9.190  0.5689 -0.5810 -0.7832
  236MOL0     C31737  10.661   3.484   9.175  0.2288 -0.1408 -0.0675
  236MOL0     C31738  10.768   3.393   9.229 -0.8007  1.4781 -0.4913
  236MOL0     C31739  10.732   3.250   9.177  0.2919 -0.1706 -0.8512
  236MOL0     C31740  10.738   3.147   9.295  0.4778  1.3334 -0.9584
  236MOL0     C31741  10.739   2.999   9.267 -0.3768  0.1945  0.1979
  236MOL0     N31742  10.749   2.909   9.382 -0.1845  0.0396  0.2277
  236MOL0     C31743  10.652   2.868   9.471  0.4377  0.1622  0.8580
  236MOL0     C31744  10.712   2.786   9.557 -0.6088 -0.3196  0.0267
  236MOL0     C31745  10.632   2.707   9.654 -0.3619 -0.2490  0.1220
  236MOL0     C31746  10.591   2.798   9.758 -0.3731 -0.0870 -0.7306
  236MOL0     C31747  10.503   2.726   9.868  0.6776 -0.3772  0.5372
  236MOL0     C31748  10.573   2.621   9.958 -0.4643 -0.2357 -0.6406
  236MOL0     O31749  10.468   2.569  10.039 -0.2070  0.3963 -0.4753
  236MOL0     C31750  10.486   2.441  10.089 -0.4600 -0.1163 -0.1679
  236MOL0     C31751  10.362   2.377  10.131 -0.1718 -0.7177  0.0793
  236MOL0     C31752  10.363   2.254  10.186 -0.1233 -0.7189  0.3546
  236MOL0     C31753  10.227   2.199  10.224  0.5407  0.2566  0.1929
  236MOL0     C31754  10.492   2.188  10.211 -0.5035 -0.6806 -0.4040
  236MOL0     C31755  10.510   2.080  10.311 -0.3887  0.2191 -0.1449
  236MOL0     O31756  10.623   2.003  10.317 -0.9317 -0.7266  0.0918
  236MOL0     C31757  10.666   1.925  10.420 -0.0365 -0.3126 -0.0562
  236MOL0     C31758  10.750   1.818  10.388 -0.6468 -0.2019 -0.0796
  236MOL0     C31759  10.783   1.726  10.490  0.2066  0.2982  0.7113
  236MOL0     C31760  10.747   1.748  10.621 -0.7942 -0.0565 -0.0493
  236MOL0     O31761  10.779   1.666  10.721 -0.6769  0.8127  0.0126
  236MOL0     C31762  10.853   1.543  10.694 -0.6546  0.0036  0.2535
  236MOL0     C31763  10.823   1.456  10.817 -0.9984  0.3649 -0.1456
  236MOL0     C31764  10.934   1.341  10.823  0.2726 -0.0123  0.3068
  236MOL0     C31765  10.895   1.254  10.945 -0.5427 -0.3432 -0.4683
  236MOL0     C31766  10.821   1.135  10.897 -0.1955 -0.7586 -0.4884
  236MOL0     C31767  10.749   1.062  11.014 -0.5918  0.2626 -0.2817
  236MOL0     C31768  10.683   0.940  10.956  0.8692 -0.2306 -0.5779
  236MOL0     C31769  10.609   0.855  11.066 -0.2205 -0.7633  0.7041
  236MOL0    Cl31770  10.517   0.959  11.176 -0.3946 -0.3673 -0.1803
  236MOL0     C31771  10.678   1.860  10.650  0.5670  0.1812  0.7419
  236MOL0     C31772  10.635   1.947  10.554  0.6322  0.0556  0.2608
  236MOL0     O31773  10.423   2.083  10.403 -0.0028  0.5573  0.4297
  236MOL0     C31774  10.615   2.255  10.170  1.5245  0.9916 -0.1628
  236MOL0     C31775  10.606   2.379  10.103  1.1008  0.1487  0.1641
  236MOL0     N31776  10.847   2.793   9.530 -1.0026 -0.5066  0.0798
  236MOL0     N31777  10.873   2.859   9.417 -0.4953  0.1589 -0.4975
  236MOL0     C31778  10.482   3.714   8.710 -0.6686  0.2278 -0.0336
  236MOL0     C31779  10.427   3.725   8.579 -1.2209  0.6671 -0.5698
  236MOL0     C31780  10.156   3.875   8.250  0.4393  0.8620  0.5878
  236MOL0     C31781  10.017   3.868   8.220 -0.3580 -0.0108  0.2891
  236MOL0     C31782   9.974   3.896   8.094  0.8308  0.1820  0.0750
  236MOL0     C31783  10.056   3.934   7.989  0.4907  0.0418  1.3511
  236MOL0     O31784   9.999   3.953   7.862 -0.1696  0.1278 -0.1791
  236MOL0     C31785  10.090   3.947   7.752 -0.3439 -0.3913 -0.7864
  236MOL0     C31786  10.021   3.860   7.651 -0.2987  0.2486 -0.4742
  236MOL0     C31787   9.896   3.919   7.588 -0.0998 -0.0427  0.0942
  236MOL0     C31788   9.846   3.821   7.474 -0.6664 -0.1408 -1.4201
  236MOL0     C31789   9.928   3.834   7.353  0.5555 -0.5800 -0.1498
  236MOL0     C31790   9.984   3.833   7.244 -0.4424  0.1564  1.0704
  236MOL0     C31791  10.183   3.964   8.024 -0.7975 -0.4648  0.3935
  236MOL0     C31792  10.233   3.928   8.147 -0.4331  0.4539 -0.1008
  236MOL0     H31793  10.308   4.042   8.589 -0.7538 -0.9523 -2.9246
  236MOL0     H31794  10.403   4.019   8.824 -2.8559  0.0542  0.0680
  236MOL0     H31795  10.511   3.637   8.973 -1.6389  1.9733  1.4315
  236MOL0     H31796  10.664   3.702   8.927 -0.2624  1.3965 -0.0715
  236MOL0     H31797  10.660   3.839   9.141  1.2544  0.4352 -0.5581
  236MOL0     H31798  10.513   3.741   9.184 -0.0495  0.7796 -1.3658
  236MOL0     H31799  10.803   3.650   9.150  0.9519 -0.2053  0.2447
  236MOL0     H31800  10.710   3.655   9.298  2.3355 -0.3015 -0.9280
  236MOL0     H31801  10.566   3.465   9.225 -0.0192  1.7605  0.2515
  236MOL0     H31802  10.651   3.459   9.069  0.2056 -2.9555  0.5062
  236MOL0     H31803  10.870   3.414   9.195 -0.0139  1.3892  1.6288
  236MOL0     H31804  10.759   3.387   9.338 -0.2593 -1.1040 -0.5229
  236MOL0     H31805  10.627   3.251   9.146 -0.4340 -0.0790  1.4040
  236MOL0     H31806  10.797   3.206   9.101  0.2293  0.5626 -1.3300
  236MOL0     H31807  10.825   3.171   9.358 -0.4244  1.4651  0.2897
  236MOL0     H31808  10.647   3.164   9.353  0.9340 -2.4318  1.1792
  236MOL0     H31809  10.829   2.991   9.205 -2.2115 -0.7930 -2.5195
  236MOL0     H31810  10.653   2.974   9.204 -1.2532  0.5434  1.2460
  236MOL0     H31811  10.547   2.894   9.482  0.5170  0.6606  0.4814
  236MOL0     H31812  10.539   2.668   9.611  0.7213 -1.2121 -1.4799
  236MOL0     H31813  10.694   2.629   9.698 -1.3488 -2.6390 -2.4468
  236MOL0     H31814  10.542   2.893   9.734  1.7144  1.7407  1.7702
  236MOL0     H31815  10.682   2.834   9.805  1.2165  0.1010 -3.7042
  236MOL0     H31816  10.423   2.676   9.812 -1.1991  1.6679  1.2663
  236MOL0     H31817  10.466   2.809   9.929 -0.7106  1.7624 -2.9351
  236MOL0     H31818  10.636   2.675  10.030 -1.1471 -2.3224  1.6500
  236MOL0     H31819  10.636   2.545   9.912 -0.6548 -1.5063  1.0792
  236MOL0     H31820  10.268   2.430  10.120  0.2989  0.3317  1.0082
  236MOL0     H31821  10.212   2.101  10.179 -1.1749  2.0044 -3.4703
  236MOL0     H31822  10.225   2.191  10.334 -1.6111 -1.1302  0.1072
  236MOL0     H31823  10.149   2.271  10.198  3.1270  2.9915 -0.4779
  236MOL0     H31824  10.775   1.784  10.288  1.5074 -1.1089  0.7021
  236MOL0     H31825  10.838   1.639  10.455 -0.7160  0.2257 -0.6487
  236MOL0     H31826  10.827   1.483  10.607  1.0956 -1.6773  0.8392
  236MOL0     H31827  10.958   1.572  10.681 -0.7667  0.7768  0.9611
  236MOL0     H31828  10.809   1.516  10.907  1.4230 -1.9494  1.9604
  236MOL0     H31829  10.729   1.407  10.791 -0.5342 -1.5489  1.5000
  236MOL0     H31830  11.032   1.386  10.835  0.5752 -0.0044 -1.8336
  236MOL0     H31831  10.958   1.283  10.733  2.5898  1.8492 -0.3494
  236MOL0     H31832  10.980   1.227  11.008 -0.3860  0.7546 -0.1932
  236MOL0     H31833  10.830   1.318  11.005  1.4727  0.3805  1.0640
  236MOL0     H31834  10.885   1.058  10.852  1.0285 -0.2805  0.3599
  236MOL0     H31835  10.754   1.167  10.817  1.6869  0.5975 -1.6139
  236MOL0     H31836  10.818   1.028  11.092 -0.2655 -0.2355 -0.7803
  236MOL0     H31837  10.675   1.131  11.054 -0.5926 -0.7226  1.5146
  236MOL0     H31838  10.756   0.871  10.912 -0.9550 -1.6161 -1.5732
  236MOL0     H31839  10.606   0.972  10.885 -0.2646  0.7258  1.0031
  236MOL0     H31840  10.685   0.801  11.123  2.2533 -0.1191 -1.7534
  236MOL0     H31841  10.539   0.783  11.024 -0.9109  0.1558  0.2479
  236MOL0     H31842  10.652   1.892  10.751  0.5238 -0.3428  0.8986
  236MOL0     H31843  10.578   2.036  10.581  0.9956  0.4719 -0.3093
  236MOL0     H31844  10.711   2.218  10.204 -0.2006 -1.6584  2.2554
  236MOL0     H31845  10.698   2.432  10.081  0.1145  1.5221 -0.8377
  236MOL0     H31846  10.512   3.615   8.745 -1.9858 -0.6381 -1.2316
  236MOL0     H31847  10.418   3.648   8.504 -2.2026 -0.8217  1.0136
  236MOL0     H31848   9.942   3.846   8.294 -1.4265 -2.0567 -1.3051
  236MOL0     H31849   9.867   3.884   8.080  0.8076 -0.1871  0.5459
  236MOL0     H31850  10.102   4.051   7.722 -1.3040  0.1690  0.7003
  236MOL0     H31851  10.184   3.896   7.772  0.7391  1.0769 -1.9334
  236MOL0     H31852  10.000   3.762   7.696  0.0340  1.6056  2.9303
  236MOL0     H31853  10.096   3.851   7.572  2.1863  2.4557  1.4596
  236MOL0     H31854   9.904   4.021   7.551 -0.4836  0.2147  0.7014
  236MOL0     H31855   9.819   3.916   7.667 -0.9875  1.1399 -0.6969
  236MOL0     H31856   9.742   3.846   7.448 -1.6951 -1.2344  1.2353
  236MOL0     H31857   9.857   3.720   7.514  2.4183  0.9224  0.7308
  236MOL0     H31858  10.031   3.838   7.148 -2.2844  0.3576  0.1181
  236MOL0     H31859  10.247   4.012   7.950  0.2912 -2.2584  0.1323
  236MOL0     H31860  10.335   3.964   8.157 -0.6015  1.4486 -1.6578
  237MOL0     O31861  11.302   3.614   3.894 -0.8241  0.1935 -0.4923
  237MOL0     C31862  11.234   3.580   3.797 -0.5987  0.4154 -0.0299
  237MOL0     O31863  11.107   3.600   3.770 -0.0599  0.2406 -0.4008
  237MOL0     C31864  11.019   3.658   3.858 -0.3848 -0.3185  0.5855
  237MOL0     C31865  10.900   3.709   3.804  0.0212  0.0318 -0.0130
  237MOL0     C31866  10.795   3.769   3.886 -0.2629 -0.0915  0.8141
  237MOL0     C31867  10.812   3.780   4.023 -0.4412 -0.5936 -0.1772
  237MOL0     O31868  10.720   3.840   4.105 -0.3633 -0.3186 -0.0949
  237MOL0     C31869  10.773   3.903   4.220  0.3788  0.4824 -0.2401
  237MOL0     C31870  10.871   4.013   4.194 -0.2017  0.4076  0.6536
  237MOL0     C31871  10.829   4.118   4.089  0.3676  0.0578  0.5005
  237MOL0     C31872  10.937   4.236   4.080  0.1699  0.3522 -0.1329
  237MOL0     C31873  10.910   4.346   3.970  0.2868 -0.2055  1.3487
  237MOL0     C31874  11.044   4.425   3.947 -0.7518 -0.0137 -0.4250
  237MOL0     C31875  11.035   4.524   3.836 -0.0112 -0.9381  0.0673
  237MOL0     C31876  11.163   4.591   3.807  0.3919 -0.0928  0.4801
  237MOL0     N31877  11.135   4.704   3.718  0.2995 -0.3887 -0.1435
  237MOL0     C31878  11.156   4.698   3.577  0.6358  1.5776 -0.3777
  237MOL0     C31879  11.098   4.816   3.538  0.8805  0.1030 -0.2869
  237MOL0     C31880  11.097   4.866   3.392  0.9484 -0.1781 -0.0636
  237MOL0     C31881  11.201   4.976   3.375 -0.9117 -0.3097 -0.4528
  237MOL0     C31882  11.218   5.021   3.229 -0.2360 -0.2791 -0.0614
  237MOL0     C31883  11.096   5.099   3.170  0.4620  0.1872  0.4437
  237MOL0     O31884  11.065   5.227   3.233 -0.2230  0.4660  0.1699
  237MOL0     C31885  10.984   5.315   3.162 -0.5363 -0.0869 -0.2466
  237MOL0     C31886  10.977   5.438   3.217 -0.2327 -0.3862  0.7318
  237MOL0     C31887  10.884   5.535   3.172  0.0948  0.4043  0.6037
  237MOL0     C31888  10.893   5.667   3.244  0.1585  0.2535 -0.4120
  237MOL0     C31889  10.798   5.503   3.057  0.7329  0.5322  0.3155
  237MOL0     C31890  10.681   5.589   3.018 -0.7209 -1.0133  0.0494
  237MOL0     O31891  10.656   5.704   3.083 -0.3512  0.4355 -0.0417
  237MOL0     C31892  10.593   5.813   3.034  0.2221 -0.1993 -0.1222
  237MOL0     C31893  10.521   5.831   2.915 -0.7509 -1.7418  0.4643
  237MOL0     C31894  10.465   5.953   2.889  0.4028 -1.3252 -0.0132
  237MOL0     C31895  10.476   6.064   2.972 -0.3622  0.6161 -0.2109
  237MOL0     O31896  10.422   6.176   2.917 -1.0001 -0.1913  0.3975
  237MOL0     C31897  10.431   6.295   2.985 -0.7564 -0.4349 -0.5542
  237MOL0     C31898  10.381   6.408   2.890 -0.6971 -0.0659  0.0764
  237MOL0     C31899  10.350   6.529   2.967 -0.5896 -0.5665  0.5588
  237MOL0     C31900  10.321   6.641   2.869 -0.8085 -0.6117 -0.0488
  237MOL0     C31901  10.249   6.756   2.936  0.1348  0.2018  0.2785
  237MOL0     C31902  10.210   6.860   2.833 -0.5119 -0.1581 -0.3298
  237MOL0     C31903  10.104   6.963   2.881  0.0116 -0.3298 -0.7375
  237MOL0     C31904  10.003   7.006   2.779 -0.0242  0.0888  0.5753
  237MOL0    Cl31905   9.902   7.134   2.832  0.3832  0.3836 -1.2680
  237MOL0     C31906  10.545   6.050   3.094 -0.6639 -0.2348  0.4077
  237MOL0     C31907  10.598   5.919   3.129 -0.0001 -0.3229 -0.7669
  237MOL0     O31908  10.626   5.553   2.909  0.3385 -0.0565 -0.3011
  237MOL0     C31909  10.811   5.381   2.993 -0.0592 -0.5041 -0.4476
  237MOL0     C31910  10.910   5.288   3.049  0.3598 -1.1654  0.1238
  237MOL0     N31911  11.061   4.893   3.655 -0.3114 -0.1599  0.0260
  237MOL0     N31912  11.070   4.815   3.766 -0.0909  0.4643  0.2286
  237MOL0     C31913  10.932   3.714   4.075  0.3391  0.5560 -0.3848
  237MOL0     C31914  11.034   3.663   3.996 -0.1910  0.0622 -0.8102
  237MOL0     C31915  11.308   3.517   3.692 -0.0529  0.1096 -0.1108
  237MOL0     C31916  11.453   3.490   3.699  0.4169 -0.1729  0.7579
  237MOL0     C31917  11.517   3.426   3.599 -1.2879 -0.2370  0.1157
  237MOL0     C31918  11.458   3.394   3.480  0.3823 -0.8679 -0.1597
  237MOL0     O31919  11.530   3.332   3.377  0.4276  0.1675 -0.0905
  237MOL0     C31920  11.673   3.320   3.389 -0.2113 -0.7898 -0.3528
  237MOL0     C31921  11.743   3.298   3.251  0.6942 -0.7419 -0.6217
  237MOL0     C31922  11.730   3.424   3.166  0.0399 -0.4666 -0.4543
  237MOL0     C31923  11.848   3.513   3.189  0.3260 -0.4817  0.0804
  237MOL0     C31924  11.858   3.637   3.108 -0.0287  0.0790  1.0392
  237MOL0     C31925  11.859   3.733   3.032 -0.1365  0.5100  0.4230
  237MOL0     C31926  11.316   3.413   3.474 -0.6433  1.0010 -0.6614
  237MOL0     C31927  11.247   3.482   3.576  0.4592  0.3943  0.0905
  237MOL0     H31928  10.875   3.704   3.698 -2.1463  1.4683  0.3674
  237MOL0     H31929  10.698   3.784   3.840 -1.0291 -2.9642  1.2699
  237MOL0     H31930  10.687   3.940   4.275 -1.6619 -2.9045 -0.8450
  237MOL0     H31931  10.819   3.826   4.284  0.5132 -0.6726 -1.6646
  237MOL0     H31932  10.892   4.072   4.284 -3.2520  0.2233  1.6153
  237MOL0     H31933  10.965   3.972   4.157  0.2471 -0.5613  2.7175
  237MOL0     H31934  10.809   4.079   3.989  1.2892 -1.8699  1.0178
  237MOL0     H31935  10.740   4.170   4.128  0.8348 -0.1579  1.8942
  237MOL0     H31936  10.941   4.286   4.177 -2.6314 -2.9583  1.9144
  237MOL0     H31937  11.033   4.185   4.067  0.3242  0.7867 -0.7995
  237MOL0     H31938  10.883   4.287   3.882  2.7677 -2.5362  2.0346
  237MOL0     H31939  10.821   4.401   4.003 -3.6999 -4.8278 -0.4806
  237MOL0     H31940  11.078   4.481   4.035  1.4153 -2.4644  0.4099
  237MOL0     H31941  11.127   4.355   3.934  0.4554  1.4379 -0.8298
  237MOL0     H31942  11.001   4.473   3.745  0.4657 -2.8554  0.9229
  237MOL0     H31943  10.953   4.595   3.850 -2.8204 -3.6370 -1.3388
  237MOL0     H31944  11.235   4.521   3.764 -0.3079 -0.5673  0.0442
  237MOL0     H31945  11.213   4.627   3.897 -1.9214  1.4248  1.2466
  237MOL0     H31946  11.212   4.628   3.515 -0.4396 -0.0975  0.4785
  237MOL0     H31947  11.115   4.780   3.328  3.0524 -0.7059  1.1516
  237MOL0     H31948  10.999   4.910   3.369  1.6226  0.7637 -1.3018
  237MOL0     H31949  11.294   4.941   3.419 -0.3597  1.8354  0.1998
  237MOL0     H31950  11.183   5.069   3.429 -3.1087 -0.5067 -0.7547
  237MOL0     H31951  11.234   4.930   3.170 -1.0482 -0.5073  0.0565
  237MOL0     H31952  11.307   5.084   3.221 -1.1325  1.5492  2.8970
  237MOL0     H31953  11.013   5.028   3.177  1.5417 -1.3090 -1.2996
  237MOL0     H31954  11.111   5.131   3.067 -1.4603  3.8027  1.0981
  237MOL0     H31955  11.023   5.455   3.314 -1.4121 -2.2112  1.6811
  237MOL0     H31956  10.899   5.750   3.173 -2.6640 -0.4560 -1.6030
  237MOL0     H31957  10.797   5.675   3.296 -0.0850 -0.2578 -0.7756
  237MOL0     H31958  10.975   5.671   3.317  1.5601  1.7168 -1.9670
  237MOL0     H31959  10.510   5.746   2.849 -1.0384 -0.8993 -0.5927
  237MOL0     H31960  10.410   5.966   2.797  1.3572 -0.9520 -0.5544
  237MOL0     H31961  10.395   6.291   3.088 -0.5554 -2.4228 -0.5312
  237MOL0     H31962  10.540   6.306   2.997 -0.7751 -2.6442  3.1032
  237MOL0     H31963  10.465   6.423   2.822 -0.9781  0.2232 -0.2081
  237MOL0     H31964  10.286   6.385   2.840 -0.9470  1.3447 -0.1402
  237MOL0     H31965  10.431   6.554   3.037  1.3650  2.2930 -2.4527
  237MOL0     H31966  10.254   6.505   3.015 -0.8038  0.8914  0.8854
  237MOL0     H31967  10.419   6.679   2.839  0.4210 -2.4580  1.3838
  237MOL0     H31968  10.278   6.601   2.777 -2.0903 -0.8543  0.6403
  237MOL0     H31969  10.306   6.808   3.014 -0.2095  1.2540 -0.1542
  237MOL0     H31970  10.159   6.715   2.983 -0.3977  1.1948  0.1637
  237MOL0     H31971  10.300   6.914   2.800 -1.8034  2.3430  0.0231
  237MOL0     H31972  10.177   6.817   2.738 -1.1849 -0.2943 -0.0371
  237MOL0     H31973  10.141   7.058   2.921 -3.3110  0.9743 -0.4324
  237MOL0     H31974  10.044   6.919   2.962 -0.5581 -0.4477 -1.2201
  237MOL0     H31975   9.931   6.932   2.743  0.3201 -0.3247  0.7213
  237MOL0     H31976  10.061   7.039   2.692  1.1783 -0.0026  1.3136
  237MOL0     H31977  10.570   6.136   3.155 -1.2153  0.1021  0.1770
  237MOL0     H31978  10.649   5.915   3.224 -0.4153  2.3162 -0.3466
  237MOL0     H31979  10.737   5.339   2.926 -2.0956  1.4919  0.4312
  237MOL0     H31980  10.913   5.198   2.989 -0.8683 -1.6458  0.7713
  237MOL0     H31981  10.939   3.704   4.183 -3.2555 -0.0309 -0.0866
  237MOL0     H31982  11.118   3.626   4.053  0.2931  2.2697  0.0026
  237MOL0     H31983  11.518   3.507   3.784 -0.5581 -1.8142  1.8876
  237MOL0     H31984  11.623   3.401   3.605 -0.8118  0.9741 -1.9282
  237MOL0     H31985  11.703   3.417   3.431 -3.0852 -0.3645  0.9193
  237MOL0     H31986  11.702   3.237   3.453  1.5431 -1.2511 -1.6556
  237MOL0     H31987  11.693   3.220   3.194 -0.1275 -2.3662  2.1281
  237MOL0     H31988  11.848   3.269   3.261  1.2371 -1.6242 -5.8706
  237MOL0     H31989  11.636   3.476   3.189 -0.0629  0.0021 -1.8597
  237MOL0     H31990  11.724   3.395   3.061  2.0639 -2.4450 -0.0904
  237MOL0     H31991  11.938   3.451   3.179  0.9392  0.0720  1.6998
  237MOL0     H31992  11.846   3.546   3.294 -1.8654  3.1363 -0.9047
  237MOL0     H31993  11.847   3.821   2.972  0.9694  1.5649  1.6823
  237MOL0     H31994  11.262   3.374   3.389 -1.0945 -1.2971  0.6014
  237MOL0     H31995  11.142   3.499   3.557  0.7135  1.8064 -0.1752
  238MOL0     O31996   8.496   5.197   2.890  0.4792  0.6286 -0.0653
  238MOL0     C31997   8.476   5.310   2.935 -0.7359  0.1094 -0.2346
  238MOL0     O31998   8.544   5.366   3.044  0.7914  0.3045 -0.7407
  238MOL0     C31999   8.613   5.294   3.143 -0.0752  0.3269  0.0685
  238MOL0     C32000   8.683   5.380   3.239  0.4193 -0.4313 -0.2908
  238MOL0     C32001   8.745   5.326   3.348  0.5127  0.0031  0.0513
  238MOL0     C32002   8.755   5.182   3.363 -0.5428 -0.1211 -0.5541
  238MOL0     O32003   8.829   5.136   3.462  1.0140 -0.3640  0.3982
  238MOL0     C32004   8.956   5.074   3.425  1.1600 -0.6387  0.4905
  238MOL0     C32005   9.067   5.178   3.436 -0.5779  1.0449  0.3868
  238MOL0     C32006   9.168   5.153   3.547  0.6408 -0.2653 -0.1521
  238MOL0     C32007   9.143   5.259   3.649 -1.2153  0.8049  0.4875
  238MOL0     C32008   9.262   5.256   3.745  0.8123  0.0147 -0.4397
  238MOL0     C32009   9.254   5.119   3.832  0.0460  0.1836 -0.0105
  238MOL0     C32010   9.362   5.129   3.947 -0.1266 -0.3545  0.2390
  238MOL0     C32011   9.380   4.991   4.024  0.4503 -0.3555  1.0152
  238MOL0     N32012   9.485   4.998   4.130 -0.3318  0.1879 -0.3515
  238MOL0     C32013   9.625   5.001   4.103  2.0096  1.1144 -0.2472
  238MOL0     C32014   9.682   5.065   4.206 -0.9219 -1.2753 -0.1396
  238MOL0     C32015   9.832   5.077   4.205 -0.8194 -0.0811 -0.2214
  238MOL0     C32016   9.881   4.993   4.332  1.1542 -0.5982 -0.4149
  238MOL0     C32017  10.036   4.987   4.348  0.2235 -0.6879 -0.0474
  238MOL0     C32018  10.111   5.124   4.312  0.1981  0.2192  0.3464
  238MOL0     O32019  10.070   5.219   4.413 -0.4178  1.0296 -0.4422
  238MOL0     C32020  10.148   5.242   4.524 -0.0522 -0.5843 -0.1251
  238MOL0     C32021  10.280   5.209   4.552  0.1487  0.0236 -0.4458
  238MOL0     C32022  10.346   5.240   4.673 -0.0936 -1.1234 -0.4942
  238MOL0     C32023  10.491   5.206   4.663  0.3487 -0.0944 -0.5459
  238MOL0     C32024  10.273   5.317   4.774 -0.8227 -0.0462 -0.0153
  238MOL0     C32025  10.333   5.360   4.898  0.7892 -0.2577 -0.9638
  238MOL0     O32026  10.462   5.402   4.887  0.0162 -0.5003 -1.0357
  238MOL0     C32027  10.534   5.446   5.001 -0.0226  0.2483 -0.3735
  238MOL0     C32028  10.643   5.381   5.042 -0.2805  0.3053 -0.8731
  238MOL0     C32029  10.721   5.423   5.154 -0.1462  0.1090  0.5535
  238MOL0     C32030  10.684   5.534   5.223  0.5716 -0.1423 -0.0576
  238MOL0     O32031  10.753   5.580   5.330 -0.3100  0.1570  0.4138
  238MOL0     C32032  10.898   5.613   5.314 -0.4569 -0.5709 -0.1375
  238MOL0     C32033  10.954   5.631   5.450 -0.2690  0.1797  0.5185
  238MOL0     C32034  11.086   5.714   5.454  0.7998 -0.3874  1.0488
  238MOL0     C32035  11.170   5.694   5.582 -0.0602 -0.5872  0.9773
  238MOL0     C32036  11.096   5.713   5.717  0.3398 -0.0475 -0.4121
  238MOL0     C32037  11.177   5.668   5.837  0.7081  0.6001 -0.3511
  238MOL0     C32038  11.129   5.723   5.973  0.3836 -0.1500  0.4832
  238MOL0     C32039  11.121   5.878   5.983  0.1757  0.9212  0.0333
  238MOL0    Cl32040  11.211   5.949   6.121 -0.1913  0.3549  0.1063
  238MOL0     C32041  10.563   5.609   5.187 -0.3648  0.1754  0.7935
  238MOL0     C32042  10.496   5.562   5.069  0.2079 -0.2627 -0.1591
  238MOL0     O32043  10.267   5.351   5.002  0.2840  0.3811 -0.3573
  238MOL0     C32044  10.138   5.357   4.745 -0.0458  0.6660  0.5289
  238MOL0     C32045  10.078   5.321   4.625 -0.5405  0.3829  1.0959
  238MOL0     N32046   9.581   5.094   4.302 -0.5353 -0.8311 -0.4087
  238MOL0     N32047   9.466   5.078   4.240  0.4017  0.2516  0.1838
  238MOL0     C32048   8.692   5.099   3.268 -0.4583  0.3909 -0.0254
  238MOL0     C32049   8.622   5.157   3.162 -0.1621  0.0181 -0.6508
  238MOL0     C32050   8.397   5.397   2.862  0.2120  0.2465  0.4603
  238MOL0     C32051   8.404   5.538   2.869  0.5431 -0.2063  0.6320
  238MOL0     C32052   8.324   5.614   2.771 -1.2629 -0.1001  0.1935
  238MOL0     C32053   8.229   5.556   2.687 -0.2481 -0.4500  0.5632
  238MOL0     O32054   8.153   5.622   2.590  0.4199 -0.5178 -0.5531
  238MOL0     C32055   8.111   5.757   2.626 -0.0091 -0.2670 -0.8129
  238MOL0     C32056   8.004   5.815   2.531  0.4468 -0.9288 -0.1040
  238MOL0     C32057   7.871   5.794   2.608  0.2305  0.5621  0.4264
  238MOL0     C32058   7.749   5.798   2.512 -0.4995  0.0112 -0.3911
  238MOL0     C32059   7.727   5.933   2.464  0.1199  0.2098 -1.0125
  238MOL0     C32060   7.704   6.035   2.415 -0.0284 -0.3229 -0.7632
  238MOL0     C32061   8.227   5.416   2.683  0.4720 -0.4161  0.2544
  238MOL0     C32062   8.302   5.338   2.765  0.8883 -0.4452 -0.1187
  238MOL0     H32063   8.674   5.488   3.231  2.3124 -0.2902 -0.9739
  238MOL0     H32064   8.795   5.385   3.424  1.8995 -0.9160 -0.0985
  238MOL0     H32065   8.988   4.992   3.490  3.9439  2.0587  2.8128
  238MOL0     H32066   8.945   5.035   3.323  3.8427  2.0984 -1.0085
  238MOL0     H32067   9.125   5.171   3.344 -0.7777 -1.7904  0.3843
  238MOL0     H32068   9.019   5.277   3.436 -1.3107  0.6954  0.6363
  238MOL0     H32069   9.148   5.052   3.585 -1.2973 -0.3181 -1.1604
  238MOL0     H32070   9.272   5.144   3.514  0.9430 -1.6930  1.0547
  238MOL0     H32071   9.143   5.353   3.594 -1.0091 -0.7217 -2.3001
  238MOL0     H32072   9.045   5.247   3.696 -1.3682  0.0607  0.0075
  238MOL0     H32073   9.356   5.272   3.691 -0.5140  1.7596 -2.3385
  238MOL0     H32074   9.246   5.346   3.805 -1.0448 -0.1899 -0.5727
  238MOL0     H32075   9.158   5.114   3.884  1.6537  0.3903  3.1792
  238MOL0     H32076   9.274   5.031   3.771 -2.3853 -0.5207  0.0948
  238MOL0     H32077   9.452   5.154   3.888 -0.1799  0.3643  0.4590
  238MOL0     H32078   9.358   5.207   4.024 -1.1871  0.9144 -1.0382
  238MOL0     H32079   9.409   4.919   3.946  0.9804 -0.1818  1.0482
  238MOL0     H32080   9.292   4.945   4.069 -0.5328  1.7589  1.3712
  238MOL0     H32081   9.671   4.957   4.016 -1.2557 -1.1196 -1.0584
  238MOL0     H32082   9.867   5.039   4.109 -2.2226  1.2278 -1.2989
  238MOL0     H32083   9.867   5.179   4.226 -3.3390  0.2506  3.3741
  238MOL0     H32084   9.847   4.889   4.326 -1.6548  0.1239  1.1560
  238MOL0     H32085   9.835   5.020   4.428  0.8934 -1.2930 -0.3367
  238MOL0     H32086  10.080   4.906   4.289 -2.4243 -3.2588  1.2981
  238MOL0     H32087  10.065   4.958   4.450  5.0219 -0.0296 -0.9594
  238MOL0     H32088  10.109   5.158   4.208 -1.3281 -1.3862 -0.1981
  238MOL0     H32089  10.219   5.109   4.324  0.3216  0.4771 -0.3830
  238MOL0     H32090  10.334   5.161   4.472 -2.2724 -0.0308 -2.1645
  238MOL0     H32091  10.536   5.297   4.622  1.8515  0.2290  1.6788
  238MOL0     H32092  10.547   5.186   4.755 -1.2236  1.4382  0.7948
  238MOL0     H32093  10.507   5.127   4.588  0.3419 -0.2631 -0.3715
  238MOL0     H32094  10.665   5.295   4.980  0.1881  0.6912 -1.2452
  238MOL0     H32095  10.798   5.355   5.186  0.5846  1.1886  1.1619
  238MOL0     H32096  10.951   5.534   5.260 -1.3493 -1.1339 -0.2165
  238MOL0     H32097  10.904   5.709   5.261  0.5566 -1.5889 -1.9652
  238MOL0     H32098  10.885   5.670   5.525  0.5880  1.8462  0.4959
  238MOL0     H32099  10.976   5.531   5.490 -0.8429 -0.6989 -1.2423
  238MOL0     H32100  11.065   5.821   5.446 -1.9579 -0.9637 -3.1254
  238MOL0     H32101  11.138   5.688   5.361  2.1577 -1.1100  1.9864
  238MOL0     H32102  11.214   5.594   5.573  3.0001  0.7029  0.4985
  238MOL0     H32103  11.261   5.753   5.575  1.4407 -2.5668  2.4102
  238MOL0     H32104  11.006   5.651   5.720 -1.1691  1.9774 -0.8800
  238MOL0     H32105  11.070   5.819   5.730  0.3821 -0.1718  0.7260
  238MOL0     H32106  11.176   5.558   5.835  1.6778  0.5803 -0.3600
  238MOL0     H32107  11.278   5.708   5.826  1.6416 -1.5432 -0.1814
  238MOL0     H32108  11.189   5.682   6.055 -1.5062  2.4289  3.3451
  238MOL0     H32109  11.028   5.682   5.987  0.9754 -1.1032  2.2118
  238MOL0     H32110  11.018   5.911   5.995  0.1714  0.6366  0.8956
  238MOL0     H32111  11.167   5.923   5.895  0.8669 -0.7468 -0.4962
  238MOL0     H32112  10.527   5.698   5.238  0.1797  0.7764  0.1602
  238MOL0     H32113  10.403   5.610   5.039  0.7424  1.1978  0.4291
  238MOL0     H32114  10.075   5.413   4.813 -0.4452 -0.0444  0.7540
  238MOL0     H32115   9.977   5.356   4.604 -0.7394 -0.5961  0.3752
  238MOL0     H32116   8.678   4.995   3.293 -0.4205  0.3683 -0.0981
  238MOL0     H32117   8.573   5.095   3.087  2.4799 -0.5537 -2.0095
  238MOL0     H32118   8.475   5.591   2.933 -0.9516  3.8643 -0.7630
  238MOL0     H32119   8.341   5.720   2.786  2.4055 -0.3315 -1.2195
  238MOL0     H32120   8.075   5.758   2.730  0.3182  0.6694 -0.6974
  238MOL0     H32121   8.200   5.820   2.621 -1.1118  1.6273  1.3963
  238MOL0     H32122   7.994   5.764   2.435 -1.5152 -0.6107 -0.1186
  238MOL0     H32123   8.018   5.923   2.516  0.9397 -1.1708 -1.4482
  238MOL0     H32124   7.869   5.861   2.694 -0.6623 -1.7014  2.2573
  238MOL0     H32125   7.876   5.696   2.654  0.3197  0.1592 -0.4136
  238MOL0     H32126   7.665   5.776   2.579  0.8761 -0.9451  1.0868
  238MOL0     H32127   7.748   5.726   2.429  0.7414 -0.5310  0.0425
  238MOL0     H32128   7.689   6.128   2.365 -1.2055  0.3030  0.6601
  238MOL0     H32129   8.152   5.380   2.613 -0.2301  1.1002  0.1923
  238MOL0     H32130   8.288   5.231   2.762  2.0794 -0.6739  1.1764
  239MOL0     O32131  10.313   5.702   2.001  0.2885  0.5806  0.6873
  239MOL0     C32132  10.214   5.634   1.989 -0.4678  0.0045  0.0702
  239MOL0     O32133  10.168   5.542   2.083 -0.2788 -0.1116  0.8913
  239MOL0     C32134  10.253   5.493   2.182  0.2517  0.2974 -0.2017
  239MOL0     C32135  10.253   5.355   2.209 -0.3923 -0.6576  0.4908
  239MOL0     C32136  10.322   5.300   2.313  0.5474 -0.3611 -0.1898
  239MOL0     C32137  10.404   5.377   2.391  0.0816 -0.5650 -0.0985
  239MOL0     O32138  10.457   5.303   2.499  1.0384 -0.8443  0.4456
  239MOL0     C32139  10.533   5.370   2.601  0.4679 -0.0155  0.3082
  239MOL0     C32140  10.581   5.255   2.703 -0.1398 -0.0000  0.2719
  239MOL0     C32141  10.504   5.246   2.837 -0.6210  0.1274  0.2986
  239MOL0     C32142  10.548   5.124   2.921 -0.1286 -0.0031  1.0264
  239MOL0     C32143  10.494   5.107   3.060 -0.6926 -0.4807  0.2116
  239MOL0     C32144  10.572   4.986   3.124 -0.6560  0.3425 -1.2687
  239MOL0     C32145  10.520   4.958   3.267 -0.8325  0.5425  0.3528
  239MOL0     C32146  10.575   4.823   3.334 -0.5426  0.4022 -0.1675
  239MOL0     N32147  10.488   4.712   3.317  0.0243 -0.0125  0.2314
  239MOL0     C32148  10.470   4.631   3.200  0.3687  0.4063 -0.3773
  239MOL0     C32149  10.339   4.586   3.216  0.2147 -0.0803  0.4609
  239MOL0     C32150  10.252   4.518   3.119  0.4611 -0.4876  0.1468
  239MOL0     C32151  10.179   4.402   3.182  0.4030 -1.4231 -0.5532
  239MOL0     C32152  10.285   4.293   3.220  0.3891  0.5320  0.2739
  239MOL0     C32153  10.220   4.160   3.222  0.3353 -0.0314  0.3585
  239MOL0     O32154  10.113   4.164   3.313  0.3952  0.3183 -0.0793
  239MOL0     C32155  10.002   4.079   3.283  0.0140 -0.3015 -0.3765
  239MOL0     C32156  10.002   3.973   3.192  0.3686 -0.0680 -0.1397
  239MOL0     C32157   9.884   3.903   3.167  0.5229 -0.2446  0.4754
  239MOL0     C32158   9.908   3.780   3.075 -0.8786  0.6861 -0.1988
  239MOL0     C32159   9.764   3.937   3.230  0.2750  0.9008  0.1185
  239MOL0     C32160   9.632   3.857   3.213 -0.2335  0.7573  0.0177
  239MOL0     O32161   9.531   3.883   3.301 -0.2714 -0.6826  0.1788
  239MOL0     C32162   9.420   3.801   3.313  0.1990  0.7847 -0.6218
  239MOL0     C32163   9.316   3.856   3.391  0.5722  0.6597  0.6367
  239MOL0     C32164   9.191   3.789   3.408 -1.2578 -0.3047  0.6338
  239MOL0     C32165   9.168   3.660   3.348  0.2147 -0.1362 -0.1330
  239MOL0     O32166   9.053   3.579   3.353 -0.0222  0.0314 -0.1336
  239MOL0     C32167   8.942   3.639   3.414  0.0032 -0.3851  0.7998
  239MOL0     C32168   8.934   3.608   3.557 -0.2954  0.0222 -0.1326
  239MOL0     C32169   8.892   3.468   3.581  1.1549  0.5576  0.0681
  239MOL0     C32170   8.831   3.445   3.725  0.0276 -0.1664  0.6762
  239MOL0     C32171   8.801   3.298   3.743  0.2316  0.6419  0.6292
  239MOL0     C32172   8.791   3.256   3.890  0.3685 -0.6768  0.4581
  239MOL0     C32173   8.649   3.296   3.955 -0.7097 -0.1702  0.5359
  239MOL0     C32174   8.657   3.271   4.100  0.9302 -0.3172  0.2327
  239MOL0    Cl32175   8.499   3.320   4.161  0.4319 -0.2937  0.4961
  239MOL0     C32176   9.276   3.608   3.271 -0.3343 -0.4740 -0.9248
  239MOL0     C32177   9.395   3.675   3.251 -0.1176  0.0256  0.0096
  239MOL0     O32178   9.624   3.787   3.119  0.1570 -0.1386  0.3081
  239MOL0     C32179   9.771   4.041   3.321  0.9849 -0.7750 -0.1359
  239MOL0     C32180   9.886   4.112   3.350  0.7116  0.2688  0.1968
  239MOL0     N32181  10.294   4.632   3.334 -1.3527  0.1986 -0.4184
  239MOL0     N32182  10.381   4.704   3.395 -0.2941  0.5953 -0.2076
  239MOL0     C32183  10.413   5.515   2.369 -0.4274 -0.2479 -0.0821
  239MOL0     C32184  10.335   5.571   2.265  0.3556 -0.0573  0.0617
  239MOL0     C32185  10.152   5.644   1.860 -0.4537  0.5789  0.4738
  239MOL0     C32186  10.199   5.729   1.753  0.5814  0.0183  0.0137
  239MOL0     C32187  10.144   5.725   1.621 -0.2813  0.2045  0.0325
  239MOL0     C32188  10.043   5.635   1.598 -0.6196  0.6072 -0.5527
  239MOL0     O32189   9.971   5.627   1.478  0.2902 -0.3982 -0.4894
  239MOL0     C32190  10.042   5.680   1.359  0.3559  0.2501  0.6840
  239MOL0     C32191   9.964   5.626   1.233 -0.1799  0.6196  0.1687
  239MOL0     C32192   9.848   5.713   1.193  0.2000 -0.0897 -0.3516
  239MOL0     C32193   9.715   5.635   1.157  0.7702 -0.7242 -0.2312
  239MOL0     C32194   9.736   5.558   1.035 -0.2864 -0.3464 -0.3332
  239MOL0     C32195   9.757   5.490   0.935 -0.0408  0.2177  0.7730
  239MOL0     C32196   9.991   5.553   1.697 -0.0646  0.3217 -1.4603
  239MOL0     C32197  10.046   5.562   1.828  0.1764  0.8366 -0.0102
  239MOL0     H32198  10.201   5.285   2.144  1.5474 -0.2623 -1.5878
  239MOL0     H32199  10.325   5.193   2.330  1.8458 -0.0457  1.8368
  239MOL0     H32200  10.629   5.406   2.562  0.4113 -1.2282 -1.0467
  239MOL0     H32201  10.476   5.448   2.652 -0.1127 -0.4224  0.2963
  239MOL0     H32202  10.566   5.159   2.653 -4.3221  1.3048 -1.4310
  239MOL0     H32203  10.687   5.279   2.716  0.1635 -0.5958 -0.9830
  239MOL0     H32204  10.533   5.330   2.901  4.4214 -1.4917  0.6141
  239MOL0     H32205  10.398   5.241   2.810 -0.0802 -3.8002 -1.7740
  239MOL0     H32206  10.507   5.038   2.867 -0.5678  1.0173 -0.3204
  239MOL0     H32207  10.657   5.117   2.916 -0.0586  0.6242  1.5499
  239MOL0     H32208  10.524   5.191   3.124 -0.3734  0.3273 -0.9661
  239MOL0     H32209  10.387   5.087   3.054 -1.5017  3.2801 -0.3602
  239MOL0     H32210  10.562   4.896   3.063 -0.5262  2.0686 -3.9905
  239MOL0     H32211  10.679   5.002   3.114 -0.5055 -0.5673 -1.1725
  239MOL0     H32212  10.549   5.046   3.324  2.9622 -0.8254  0.8718
  239MOL0     H32213  10.414   4.932   3.257 -0.1809 -2.7567  0.5968
  239MOL0     H32214  10.584   4.847   3.441  1.8397 -0.0605 -0.2214
  239MOL0     H32215  10.672   4.787   3.300 -1.2691 -3.1550  1.0935
  239MOL0     H32216  10.533   4.620   3.112  1.9495 -1.5128  0.8956
  239MOL0     H32217  10.179   4.585   3.073 -0.5066 -1.6591 -0.0895
  239MOL0     H32218  10.316   4.475   3.042 -0.8948 -2.7035  0.1438
  239MOL0     H32219  10.111   4.360   3.108  0.3039  1.9034 -2.5648
  239MOL0     H32220  10.122   4.446   3.264 -1.0944 -1.6414 -1.4554
  239MOL0     H32221  10.343   4.329   3.306 -0.1487  1.4373  0.2704
  239MOL0     H32222  10.353   4.281   3.136 -0.2664 -0.2392 -0.1594
  239MOL0     H32223  10.296   4.088   3.252 -0.1980 -0.7402  0.0401
  239MOL0     H32224  10.190   4.138   3.119 -0.1609  1.3486  0.1852
  239MOL0     H32225  10.091   3.943   3.137  0.7281  0.9030 -0.1055
  239MOL0     H32226  10.009   3.741   3.084 -1.7958 -1.4418  2.1130
  239MOL0     H32227   9.843   3.700   3.113  3.8822 -1.5317  4.4701
  239MOL0     H32228   9.895   3.808   2.970 -1.7281 -0.5350 -0.4316
  239MOL0     H32229   9.338   3.948   3.445  0.3711  1.6848 -0.9495
  239MOL0     H32230   9.111   3.839   3.461 -1.8661 -0.7721  0.1746
  239MOL0     H32231   8.936   3.748   3.406 -1.8640 -0.4988  0.0625
  239MOL0     H32232   8.857   3.600   3.357 -0.9033  1.5517  0.7304
  239MOL0     H32233   9.028   3.626   3.612 -0.8080  3.0028 -0.0822
  239MOL0     H32234   8.853   3.673   3.592 -0.4059 -0.3128  0.2371
  239MOL0     H32235   8.974   3.396   3.579 -0.9325 -1.9444  0.2823
  239MOL0     H32236   8.826   3.430   3.503  2.7315 -4.4435  0.8037
  239MOL0     H32237   8.901   3.480   3.802 -1.5343 -3.1008  3.6691
  239MOL0     H32238   8.741   3.504   3.748 -2.1749 -3.0610  0.0544
  239MOL0     H32239   8.876   3.232   3.698 -0.8437 -0.8856  1.0208
  239MOL0     H32240   8.707   3.275   3.693  2.4246 -0.3825 -3.5237
  239MOL0     H32241   8.804   3.147   3.881  0.6741 -0.9013  2.9824
  239MOL0     H32242   8.876   3.297   3.945  0.3677 -0.0695  0.0158
  239MOL0     H32243   8.562   3.238   3.922 -2.6003  0.9255  3.2461
  239MOL0     H32244   8.620   3.399   3.935 -0.4222 -0.3257 -0.7808
  239MOL0     H32245   8.740   3.329   4.142 -0.4598  2.9585 -1.2354
  239MOL0     H32246   8.682   3.167   4.122  1.6596  0.2238  2.1499
  239MOL0     H32247   9.256   3.518   3.214 -0.6060 -1.5750  0.8476
  239MOL0     H32248   9.473   3.628   3.192 -0.0877 -0.0292  0.0936
  239MOL0     H32249   9.688   4.085   3.375  1.0605  0.6103 -1.0886
  239MOL0     H32250   9.885   4.203   3.409  2.8597  0.7456 -0.3933
  239MOL0     H32251  10.481   5.578   2.425 -0.5571  0.4055 -0.6442
  239MOL0     H32252  10.330   5.679   2.265  0.6782  0.0110  2.1969
  239MOL0     H32253  10.265   5.814   1.765  0.1295  0.7159 -1.9842
  239MOL0     H32254  10.181   5.806   1.559  1.3253  0.1594  0.8640
  239MOL0     H32255  10.044   5.789   1.361  1.3140  0.2803 -0.6887
  239MOL0     H32256  10.145   5.641   1.359 -0.4559 -2.1683  2.5029
  239MOL0     H32257   9.926   5.529   1.266 -2.7952  0.9939 -1.4356
  239MOL0     H32258  10.034   5.619   1.149  1.4441 -1.9403  1.6088
  239MOL0     H32259   9.883   5.774   1.109 -0.4518  0.5286 -0.1824
  239MOL0     H32260   9.836   5.776   1.281 -0.0647 -0.1206 -0.3647
  239MOL0     H32261   9.635   5.705   1.130  0.1040 -2.0127 -1.7107
  239MOL0     H32262   9.675   5.574   1.239  1.4743 -4.0662 -2.2233
  239MOL0     H32263   9.784   5.408   0.873 -2.2618 -0.0934  0.1329
  239MOL0     H32264   9.901   5.498   1.672 -2.1844  1.4732  2.7258
  239MOL0     H32265  10.000   5.504   1.907 -0.3002  1.2563  0.0223
  240MOL0     O32266   7.111   7.550   0.625  0.2165 -0.0842  0.0701
  240MOL0     C32267   7.138   7.619   0.521 -0.0109 -0.5052  0.2780
  240MOL0     O32268   7.108   7.587   0.393  0.2460  0.4197 -0.1642
  240MOL0     C32269   6.985   7.544   0.370  0.3031  0.1490 -0.9103
  240MOL0     C32270   6.873   7.602   0.441  0.3739 -0.4613  0.0533
  240MOL0     C32271   6.742   7.557   0.422  0.1669  0.7357  1.3539
  240MOL0     C32272   6.721   7.447   0.342 -0.8488  0.8192 -0.1679
  240MOL0     O32273   6.594   7.414   0.322  0.0809 -0.6890  0.0449
  240MOL0     C32274   6.567   7.275   0.279 -0.5712 -0.2497  0.1041
  240MOL0     C32275   6.418   7.240   0.310 -0.1835 -0.8675  0.5070
  240MOL0     C32276   6.395   7.241   0.458  0.7749  0.0129  0.2721
  240MOL0     C32277   6.456   7.108   0.524 -0.6367  0.1402  0.7467
  240MOL0     C32278   6.419   7.097   0.669 -0.5060  0.7076  0.6958
  240MOL0     C32279   6.424   7.224   0.763 -0.5545  1.7817  0.1234
  240MOL0     C32280   6.382   7.181   0.903 -0.3742 -0.2174 -1.0540
  240MOL0     C32281   6.445   7.260   1.014 -0.8011  0.8072  0.2607
  240MOL0     N32282   6.388   7.394   1.025  0.3419 -0.6971  0.0457
  240MOL0     C32283   6.420   7.506   0.945  0.1751 -0.0742  0.6995
  240MOL0     C32284   6.329   7.605   0.981  0.8585  0.0259  0.3592
  240MOL0     C32285   6.314   7.745   0.938  0.0501 -0.8833 -0.5109
  240MOL0     C32286   6.444   7.826   0.966  0.2398  0.0050  0.4957
  240MOL0     C32287   6.556   7.791   0.870 -0.4632  0.3820  0.1596
  240MOL0     C32288   6.531   7.825   0.724 -0.4456 -0.2611  0.1175
  240MOL0     O32289   6.466   7.728   0.648 -0.6196  0.6727  0.1339
  240MOL0     C32290   6.449   7.745   0.515  0.0503  0.7459  0.3149
  240MOL0     C32291   6.477   7.858   0.448 -0.3383 -0.2432  0.8826
  240MOL0     C32292   6.443   7.877   0.315 -0.0063  0.7162  0.4362
  240MOL0     C32293   6.472   8.015   0.257 -0.4443 -0.8609 -0.1284
  240MOL0     C32294   6.366   7.782   0.246  0.8852  0.5138  0.5369
  240MOL0     C32295   6.315   7.813   0.110 -0.8822  0.3824 -0.4506
  240MOL0     O32296   6.318   7.710   0.011 -0.3174 -0.0277  0.0152
  240MOL0     C32297   6.265   7.731  -0.110  0.7857  0.1046  0.3025
  240MOL0     C32298   6.338   7.777  -0.219  0.1581 -1.0682  0.3980
  240MOL0     C32299   6.268   7.813  -0.342  0.2867 -0.1570  0.2092
  240MOL0     C32300   6.135   7.775  -0.366  0.0496 -0.3346 -0.7078
  240MOL0     O32301   6.080   7.789  -0.488 -0.2993  0.1027  1.2290
  240MOL0     C32302   5.967   7.712  -0.522 -0.1978  0.2099 -0.2760
  240MOL0     C32303   5.905   7.743  -0.661  0.9067  0.1389 -1.3194
  240MOL0     C32304   5.771   7.676  -0.666 -0.4969  0.6436  0.1609
  240MOL0     C32305   5.736   7.644  -0.815  0.3879  0.3929  0.4171
  240MOL0     C32306   5.593   7.584  -0.840  1.1723  0.4738 -0.6014
  240MOL0     C32307   5.484   7.692  -0.840  0.7054  0.5806  0.9749
  240MOL0     C32308   5.340   7.665  -0.899 -0.2009  0.3845 -0.1382
  240MOL0     C32309   5.251   7.572  -0.813 -0.0578 -0.4707  0.0408
  240MOL0    Cl32310   5.262   7.396  -0.874 -0.4886  0.0587  0.3271
  240MOL0     C32311   6.074   7.715  -0.253  0.4937  0.6465  0.6705
  240MOL0     C32312   6.139   7.704  -0.130  0.2818  0.9480  0.0858
  240MOL0     O32313   6.257   7.917   0.100  0.3593 -1.1588  0.0344
  240MOL0     C32314   6.330   7.661   0.317 -0.1538 -0.3817  0.5289
  240MOL0     C32315   6.384   7.643   0.446 -0.5202 -1.0117  0.1962
  240MOL0     N32316   6.249   7.546   1.088 -0.9065 -0.4224  0.6514
  240MOL0     N32317   6.289   7.432   1.106  0.8631 -0.7286  0.0765
  240MOL0     C32318   6.828   7.378   0.290 -0.5091  1.1507  0.1499
  240MOL0     C32319   6.960   7.420   0.305 -0.7785 -0.7035 -0.4552
  240MOL0     C32320   7.230   7.736   0.539 -0.1221 -0.1757 -0.9893
  240MOL0     C32321   7.309   7.743   0.658  0.1706 -0.0495 -0.2987
  240MOL0     C32322   7.412   7.835   0.674 -0.2934 -0.4142  0.0671
  240MOL0     C32323   7.431   7.938   0.584  0.0338  0.3876 -0.1167
  240MOL0     O32324   7.532   8.033   0.616 -0.3435 -0.2744 -0.4238
  240MOL0     C32325   7.566   8.145   0.539 -0.8209  0.6456  0.1671
  240MOL0     C32326   7.470   8.268   0.549  0.6335 -0.4111 -0.0676
  240MOL0     C32327   7.535   8.381   0.473  0.1480  0.0548 -0.1395
  240MOL0     C32328   7.508   8.392   0.328  0.3617 -0.0438  0.0174
  240MOL0     C32329   7.583   8.501   0.278  0.4227 -0.4837  0.3222
  240MOL0     C32330   7.655   8.587   0.236 -0.7010 -0.1627 -0.3275
  240MOL0     C32331   7.349   7.945   0.469  0.2731  0.5700  0.0810
  240MOL0     C32332   7.254   7.839   0.444  1.1165 -0.8515  0.1670
  240MOL0     H32333   6.893   7.699   0.484 -1.4323  0.5305 -1.2094
  240MOL0     H32334   6.654   7.596   0.472 -1.5166  0.1900 -1.0112
  240MOL0     H32335   6.596   7.270   0.173  3.1189  0.5540  0.9462
  240MOL0     H32336   6.637   7.204   0.324 -2.3176 -2.8310 -1.0220
  240MOL0     H32337   6.361   7.316   0.257  1.3848  0.1022  0.1604
  240MOL0     H32338   6.401   7.139   0.271  0.6571 -1.1302  0.7902
  240MOL0     H32339   6.436   7.334   0.500 -0.8542  0.8018  0.1762
  240MOL0     H32340   6.286   7.245   0.468  0.8167  1.9687  0.4444
  240MOL0     H32341   6.405   7.022   0.478 -0.3093  0.9002 -1.1398
  240MOL0     H32342   6.564   7.099   0.506 -1.1427 -0.4544 -2.7506
  240MOL0     H32343   6.318   7.058   0.666 -0.4128 -0.0431  3.8549
  240MOL0     H32344   6.477   7.013   0.708  0.3177  0.7353 -0.4143
  240MOL0     H32345   6.527   7.261   0.764 -0.3313  1.2901 -1.5546
  240MOL0     H32346   6.365   7.308   0.724  0.0909  2.6627  0.9911
  240MOL0     H32347   6.274   7.188   0.923 -0.4701 -0.5762 -1.4347
  240MOL0     H32348   6.409   7.076   0.918 -1.9653 -0.5604 -0.4198
  240MOL0     H32349   6.554   7.257   0.998 -1.1492  0.0481 -2.4533
  240MOL0     H32350   6.433   7.212   1.111  5.6803  1.7627  2.0327
  240MOL0     H32351   6.504   7.515   0.876 -2.6235  1.8989 -2.7695
  240MOL0     H32352   6.279   7.752   0.835  2.1667  3.6386 -1.1863
  240MOL0     H32353   6.236   7.786   1.004  1.1801  3.0065 -1.3214
  240MOL0     H32354   6.478   7.795   1.066  1.1390  2.8802  1.1587
  240MOL0     H32355   6.426   7.933   0.963  2.6025  0.4342 -0.8236
  240MOL0     H32356   6.605   7.693   0.869  3.3836  2.0957  0.2369
  240MOL0     H32357   6.634   7.860   0.906 -1.5237  1.5607  0.2687
  240MOL0     H32358   6.629   7.851   0.682  1.2924 -1.2345  3.2294
  240MOL0     H32359   6.477   7.919   0.711  2.4428  2.1545  3.4336
  240MOL0     H32360   6.539   7.936   0.490 -0.4432  0.5042 -0.3128
  240MOL0     H32361   6.488   8.010   0.149 -0.4755  3.4502 -0.5242
  240MOL0     H32362   6.386   8.076   0.287 -0.8086 -2.2644  1.8967
  240MOL0     H32363   6.565   8.063   0.288 -1.4680 -0.6215  2.9355
  240MOL0     H32364   6.445   7.796  -0.210 -0.0253  1.0752 -1.0633
  240MOL0     H32365   6.332   7.861  -0.415  1.9650 -1.9026  0.4304
  240MOL0     H32366   5.995   7.606  -0.524  2.2779  0.8166 -0.7200
  240MOL0     H32367   5.892   7.733  -0.446 -0.5426 -0.5637 -0.3879
  240MOL0     H32368   5.895   7.852  -0.667 -0.6902  0.0429 -0.9454
  240MOL0     H32369   5.968   7.707  -0.742 -0.8124 -2.2339 -1.7004
  240MOL0     H32370   5.698   7.741  -0.618 -3.8637 -0.7049 -2.6967
  240MOL0     H32371   5.791   7.576  -0.626  0.8294 -0.9695 -3.9882
  240MOL0     H32372   5.741   7.736  -0.874 -1.4212  1.3581  1.6632
  240MOL0     H32373   5.809   7.572  -0.853 -0.7384 -2.2169  2.8148
  240MOL0     H32374   5.573   7.508  -0.765 -0.0696  3.2901  2.1674
  240MOL0     H32375   5.588   7.531  -0.935  2.1919  0.6289 -0.7517
  240MOL0     H32376   5.461   7.727  -0.739 -3.9515  0.7365  0.1102
  240MOL0     H32377   5.510   7.783  -0.895 -4.4754  2.2144  0.6715
  240MOL0     H32378   5.346   7.627  -1.002  1.4278  1.2177 -0.3871
  240MOL0     H32379   5.295   7.764  -0.910  0.4245  0.7686  0.6226
  240MOL0     H32380   5.147   7.597  -0.840 -0.3548 -1.5186  0.1744
  240MOL0     H32381   5.271   7.594  -0.708  0.3210 -1.9167  0.2811
  240MOL0     H32382   5.971   7.680  -0.253  0.2643  1.1620 -1.6251
  240MOL0     H32383   6.073   7.671  -0.050 -4.2841  1.1873 -3.2133
  240MOL0     H32384   6.268   7.583   0.275 -0.1464 -0.2536  0.2809
  240MOL0     H32385   6.367   7.546   0.492 -1.8869 -3.0139 -3.9739
  240MOL0     H32386   6.809   7.283   0.242 -0.4833  0.6158  1.1631
  240MOL0     H32387   7.053   7.370   0.282  2.2955  3.3732  1.8568
  240MOL0     H32388   7.291   7.679   0.743 -1.2816 -2.6703 -2.4447
  240MOL0     H32389   7.456   7.836   0.773 -2.2888 -1.3953  1.0245
  240MOL0     H32390   7.668   8.176   0.563 -0.8249  0.8354 -0.0540
  240MOL0     H32391   7.574   8.114   0.435 -2.1964  2.2415 -0.4620
  240MOL0     H32392   7.464   8.298   0.655 -0.7134  2.0632 -0.7671
  240MOL0     H32393   7.369   8.258   0.509  0.4092  1.9323 -0.2717
  240MOL0     H32394   7.643   8.389   0.486  0.1185  0.5926 -0.2142
  240MOL0     H32395   7.489   8.470   0.518  1.5269  0.1186  1.2141
  240MOL0     H32396   7.400   8.408   0.327  0.2982 -0.4076  0.6927
  240MOL0     H32397   7.530   8.300   0.274  0.1397 -0.8830  1.3207
  240MOL0     H32398   7.736   8.648   0.201  1.8140 -0.9058  3.6026
  240MOL0     H32399   7.340   8.031   0.404 -2.9361  1.3031  1.3087
  240MOL0     H32400   7.190   7.833   0.357  2.4996 -3.5599 -0.7760
  241MOL0     O32401   6.907   8.859  11.133 -0.0789 -0.3456  1.0669
  241MOL0     C32402   6.818   8.937  11.105  0.4667 -0.6414 -0.5998
  241MOL0     O32403   6.844   9.060  11.043 -0.8035  0.1291 -0.2211
  241MOL0     C32404   6.975   9.110  11.017  0.5579  0.1485 -0.3575
  241MOL0     C32405   7.069   9.124  11.121 -0.2121  0.2398  0.2309
  241MOL0     C32406   7.193   9.190  11.105  0.5923  0.0321 -0.6274
  241MOL0     C32407   7.225   9.246  10.992 -0.3331  0.4743 -0.3048
  241MOL0     O32408   7.347   9.316  10.991 -0.4090  0.3044 -0.0894
  241MOL0     C32409   7.418   9.366  10.872  1.2111 -0.0234 -0.1154
  241MOL0     C32410   7.553   9.423  10.914  0.2367 -0.4427 -0.0015
  241MOL0     C32411   7.652   9.296  10.926 -0.1291 -0.5543 -0.7617
  241MOL0     C32412   7.753   9.312  10.810  0.9334  0.1053 -0.1316
  241MOL0     C32413   7.866   9.211  10.830  1.0477 -0.3982 -0.1854
  241MOL0     C32414   7.993   9.285  10.783  0.6400  0.1618  0.0327
  241MOL0     C32415   8.123   9.202  10.781  1.1014  0.6051  0.2319
  241MOL0     C32416   8.097   9.063  10.710 -0.2083 -0.3189  0.7785
  241MOL0     N32417   8.072   8.944  10.803 -0.2060 -0.8129 -0.4826
  241MOL0     C32418   7.952   8.890  10.842 -0.2308  0.4709 -0.2892
  241MOL0     C32419   7.974   8.804  10.939  0.2365  0.7288 -0.7780
  241MOL0     C32420   7.866   8.719  11.012 -0.1847  0.4068 -0.4811
  241MOL0     C32421   7.835   8.574  10.953 -0.7715  0.4677 -0.8445
  241MOL0     C32422   7.783   8.476  11.062 -0.0590 -0.1730  0.4545
  241MOL0     C32423   7.636   8.452  11.049 -0.9274 -1.0260 -0.0531
  241MOL0     O32424   7.602   8.410  10.926  1.1562  0.2381 -0.5556
  241MOL0     C32425   7.464   8.394  10.906 -0.3671  0.6762  0.7614
  241MOL0     C32426   7.353   8.421  10.986 -0.3381 -0.6506 -0.4383
  241MOL0     C32427   7.220   8.385  10.950  0.2995  0.9732  1.2416
  241MOL0     C32428   7.113   8.410  11.050  0.4802  0.0821  0.2336
  241MOL0     C32429   7.197   8.317  10.830 -0.6360 -0.8729  0.5655
  241MOL0     C32430   7.066   8.267  10.788  0.6049 -0.5089 -0.6108
  241MOL0     O32431   6.956   8.343  10.828  0.1999 -0.1649  0.4282
  241MOL0     C32432   6.828   8.302  10.816  0.2071  0.1269 -0.5909
  241MOL0     C32433   6.790   8.178  10.866 -0.1677  1.0841 -0.2226
  241MOL0     C32434   6.657   8.137  10.846  0.9286  0.3382  0.2130
  241MOL0     C32435   6.570   8.218  10.776  0.0124 -0.7106  0.3011
  241MOL0     O32436   6.448   8.166  10.740  0.4573  0.5932 -0.0173
  241MOL0     C32437   6.336   8.249  10.699  0.0140  0.4855  0.5700
  241MOL0     C32438   6.200   8.174  10.717  0.1031 -0.8273 -0.5853
  241MOL0     C32439   6.090   8.265  10.690  0.2598 -0.7627  0.4324
  241MOL0     C32440   5.960   8.227  10.759  1.1950 -1.1049 -0.7986
  241MOL0     C32441   5.839   8.295  10.710  0.1943  0.5763  0.4846
  241MOL0     C32442   5.730   8.254  10.805 -0.0433  0.3402  0.0127
  241MOL0     C32443   5.621   8.357  10.816 -0.0699 -0.8294 -0.5746
  241MOL0     C32444   5.528   8.378  10.704  0.8760  0.7296 -0.0330
  241MOL0    Cl32445   5.417   8.231  10.697 -0.3973  0.0275 -0.0712
  241MOL0     C32446   6.618   8.339  10.713 -0.0772  0.0590  0.7181
  241MOL0     C32447   6.744   8.384  10.742  0.2912 -0.4482 -0.6397
  241MOL0     O32448   7.055   8.159  10.728  0.3852  0.5426 -0.4357
  241MOL0     C32449   7.303   8.302  10.739  0.3269 -0.3351 -0.0542
  241MOL0     C32450   7.433   8.335  10.780  0.7034 -0.4634  0.1115
  241MOL0     N32451   8.112   8.790  10.954  0.3744 -0.0066 -0.4075
  241MOL0     N32452   8.167   8.877  10.875 -0.0018  0.3830 -0.1642
  241MOL0     C32453   7.138   9.232  10.879  0.1701 -0.6824  1.1561
  241MOL0     C32454   7.014   9.169  10.894 -0.0908  0.7820 -0.2933
  241MOL0     C32455   6.682   8.907  11.144  0.0858  0.4020  0.2573
  241MOL0     C32456   6.570   8.961  11.087  0.4120 -0.3169  0.5630
  241MOL0     C32457   6.431   8.945  11.133 -0.6005 -0.2882 -0.6489
  241MOL0     C32458   6.415   8.845  11.233  0.1037  0.4104 -0.4532
  241MOL0     O32459   6.288   8.815  11.278  0.0742 -0.8911  0.6292
  241MOL0     C32460   6.264   8.688  11.341 -0.3855 -0.0117  0.5829
  241MOL0     C32461   6.116   8.688  11.398  0.3415 -0.4760  0.3684
  241MOL0     C32462   6.075   8.579  11.498 -0.1733  0.5213 -0.0977
  241MOL0     C32463   5.967   8.488  11.439 -0.8551 -1.1013  1.0556
  241MOL0     C32464   5.840   8.564  11.434 -0.2089 -0.1617  0.2522
  241MOL0     C32465   5.721   8.604  11.437  0.3174  0.7590 -0.8631
  241MOL0     C32466   6.534   8.781  11.279 -0.3631 -0.8358 -0.1786
  241MOL0     C32467   6.658   8.811  11.241  0.3602 -0.3018  0.7321
  241MOL0     H32468   7.052   9.094  11.224  0.7231 -1.4961 -0.0797
  241MOL0     H32469   7.246   9.189  11.200 -0.8516 -0.1375  0.1950
  241MOL0     H32470   7.427   9.282  10.802  0.9801  0.4881 -0.7757
  241MOL0     H32471   7.349   9.435  10.822  3.2914  2.3952  0.1890
  241MOL0     H32472   7.587   9.501  10.845 -1.5879  0.1451 -0.2900
  241MOL0     H32473   7.542   9.467  11.014  1.3026 -0.1793  0.0195
  241MOL0     H32474   7.692   9.285  11.028 -1.4220  0.2774 -0.1325
  241MOL0     H32475   7.603   9.200  10.912  2.6603 -1.8616 -2.3849
  241MOL0     H32476   7.699   9.299  10.716  0.3055 -2.2334  0.4867
  241MOL0     H32477   7.798   9.412  10.801 -1.0528  1.2103  1.3111
  241MOL0     H32478   7.876   9.177  10.933 -2.0394 -0.8748  0.0498
  241MOL0     H32479   7.852   9.122  10.768  1.4012 -0.4989 -0.1272
  241MOL0     H32480   7.981   9.319  10.680  0.6655  0.6277  0.1817
  241MOL0     H32481   8.001   9.377  10.842 -1.5542  1.4656 -1.5517
  241MOL0     H32482   8.196   9.259  10.722  0.4491  0.9748 -0.2283
  241MOL0     H32483   8.156   9.174  10.882  0.1890  0.1879  0.4235
  241MOL0     H32484   8.185   9.031  10.654  0.4232 -2.0219  2.5802
  241MOL0     H32485   8.013   9.083  10.644  1.4296  3.0755 -0.5102
  241MOL0     H32486   7.858   8.918  10.796 -1.0035  1.2152  1.6460
  241MOL0     H32487   7.891   8.723  11.119 -1.4401  0.8524 -0.1853
  241MOL0     H32488   7.769   8.768  11.006 -0.7743 -0.8580 -1.7844
  241MOL0     H32489   7.927   8.536  10.907 -0.1705  1.3256 -0.3928
  241MOL0     H32490   7.764   8.574  10.869 -2.2728 -3.9366  0.1462
  241MOL0     H32491   7.799   8.512  11.164  0.5838 -0.7927  0.5751
  241MOL0     H32492   7.824   8.375  11.062 -1.6678 -0.8946 -1.2792
  241MOL0     H32493   7.597   8.552  11.066  1.2558  0.2166 -1.7895
  241MOL0     H32494   7.591   8.382  11.120  0.9272 -1.6526  0.5722
  241MOL0     H32495   7.368   8.476  11.078  1.3913  0.4782 -1.3415
  241MOL0     H32496   7.150   8.443  11.147 -1.0791 -0.3473  0.9943
  241MOL0     H32497   7.047   8.487  11.009  2.5009  1.2467 -1.0160
  241MOL0     H32498   7.056   8.320  11.073  3.4887 -1.8078  0.9128
  241MOL0     H32499   6.863   8.119  10.919 -0.6025  1.9377  1.3890
  241MOL0     H32500   6.623   8.039  10.875  1.9708 -1.9682 -5.1733
  241MOL0     H32501   6.343   8.340  10.759  3.1091  1.1892 -0.6401
  241MOL0     H32502   6.331   8.267  10.591 -1.8776  0.4824  0.6238
  241MOL0     H32503   6.202   8.091  10.645 -0.4485 -1.3261 -0.0310
  241MOL0     H32504   6.202   8.140  10.821 -0.5276 -0.0634 -0.3207
  241MOL0     H32505   6.090   8.265  10.581 -0.3842  0.0736  0.4177
  241MOL0     H32506   6.104   8.371  10.714 -0.1175 -0.4159 -0.8409
  241MOL0     H32507   5.946   8.119  10.755 -1.0979 -0.9201  0.3160
  241MOL0     H32508   5.972   8.253  10.865 -1.9552 -1.6266 -0.2083
  241MOL0     H32509   5.814   8.269  10.607 -0.2172 -1.5264  1.0739
  241MOL0     H32510   5.867   8.401  10.709  2.1878  0.0838 -0.6747
  241MOL0     H32511   5.694   8.156  10.772 -1.1898  1.2360 -1.5414
  241MOL0     H32512   5.771   8.236  10.905 -0.4233 -0.1454  0.0837
  241MOL0     H32513   5.677   8.450  10.828 -0.3575 -0.7402  0.1396
  241MOL0     H32514   5.563   8.343  10.908  2.2655 -0.9662  0.9724
  241MOL0     H32515   5.583   8.415  10.616 -1.0870  0.1948 -1.5650
  241MOL0     H32516   5.470   8.468  10.724  1.3661  1.0064  0.1659
  241MOL0     H32517   6.551   8.404  10.659 -2.2228 -2.7422 -0.2708
  241MOL0     H32518   6.783   8.480  10.708 -1.5318  0.3413 -0.6452
  241MOL0     H32519   7.287   8.250  10.645  1.6809  0.5346 -0.7883
  241MOL0     H32520   7.520   8.321  10.716  1.1143  4.5794 -0.8525
  241MOL0     H32521   7.163   9.276  10.783 -1.4999 -0.1745  0.9225
  241MOL0     H32522   6.951   9.163  10.806 -0.4303 -0.0048 -0.0074
  241MOL0     H32523   6.583   9.020  10.996  0.2593  0.3664  0.9808
  241MOL0     H32524   6.353   9.000  11.081 -1.5630 -2.3370 -1.5131
  241MOL0     H32525   6.267   8.609  11.265 -2.0655  0.4453  0.0065
  241MOL0     H32526   6.343   8.670  11.416 -0.9219 -1.7399  0.7751
  241MOL0     H32527   6.045   8.702  11.316  1.5529 -0.6473 -0.7392
  241MOL0     H32528   6.115   8.786  11.447 -2.6570 -0.1498 -0.1417
  241MOL0     H32529   6.017   8.630  11.576  0.6399 -0.8728  1.4909
  241MOL0     H32530   6.169   8.539  11.538  1.4218  3.3276 -0.7563
  241MOL0     H32531   5.973   8.396  11.497  2.7615  0.6504  3.8475
  241MOL0     H32532   5.987   8.461  11.334  0.5036 -0.9400  1.2574
  241MOL0     H32533   5.625   8.651  11.447 -1.5712 -2.8486 -0.5564
  241MOL0     H32534   6.535   8.708  11.359 -0.3398 -1.9643 -1.1776
  241MOL0     H32535   6.742   8.767  11.295  0.5898  0.8473  1.3629
  242MOL0     O32536   1.276   9.290   3.647 -0.5419 -0.3598 -0.3406
  242MOL0     C32537   1.279   9.227   3.542  0.1781 -0.1490 -0.2291
  242MOL0     O32538   1.253   9.284   3.419 -0.1351 -0.1210 -0.0733
  242MOL0     C32539   1.321   9.397   3.421 -0.1438  0.5057  0.3320
  242MOL0     C32540   1.276   9.525   3.446  0.6014 -0.3246  0.3244
  242MOL0     C32541   1.351   9.643   3.427 -0.5036 -0.5327 -0.2538
  242MOL0     C32542   1.488   9.634   3.388 -1.0690  0.4156 -0.9157
  242MOL0     O32543   1.565   9.747   3.388  0.6263  0.1898 -0.7622
  242MOL0     C32544   1.709   9.754   3.350 -0.1283  0.3839  0.5666
  242MOL0     C32545   1.764   9.902   3.389 -0.2688 -0.3787 -0.0586
  242MOL0     C32546   1.914   9.884   3.385  0.3882 -0.0882  0.1673
  242MOL0     C32547   1.985  10.010   3.415  0.3349 -0.5246 -0.0718
  242MOL0     C32548   2.136  10.016   3.379 -0.2950  0.3641 -0.3890
  242MOL0     C32549   2.220  10.117   3.462  0.9728 -0.3161  0.9901
  242MOL0     C32550   2.150  10.256   3.457  0.0300  0.5613 -0.1152
  242MOL0     C32551   2.160  10.320   3.314 -0.5461 -0.7972 -0.2770
  242MOL0     N32552   2.298  10.360   3.282 -0.1939 -0.1287 -0.2330
  242MOL0     C32553   2.385  10.431   3.353 -0.6020 -0.8517 -1.1155
  242MOL0     C32554   2.501  10.422   3.282  0.1250 -0.3940 -0.5271
  242MOL0     C32555   2.623  10.487   3.323 -0.5143  0.0558 -0.3482
  242MOL0     C32556   2.625  10.618   3.253 -0.0677  0.3758  0.2612
  242MOL0     C32557   2.757  10.692   3.279 -0.5355 -0.7431  0.1079
  242MOL0     C32558   2.756  10.826   3.216  0.5073  0.4856  0.7119
  242MOL0     O32559   2.674  10.925   3.283 -0.1628  0.8113 -0.0908
  242MOL0     C32560   2.754  10.991   3.378  0.5914 -0.6305  0.0223
  242MOL0     C32561   2.842  11.093   3.334  0.0900  0.4791 -0.4327
  242MOL0     C32562   2.916  11.167   3.426 -1.0320 -0.1152  0.3014
  242MOL0     C32563   3.008  11.279   3.376  0.6667  0.2837  0.7111
  242MOL0     C32564   2.899  11.147   3.567  0.1532  1.0847  0.5152
  242MOL0     C32565   2.963  11.228   3.679  0.0752  0.0915 -0.5200
  242MOL0     O32566   3.014  11.349   3.651 -0.6264  0.0034  0.2083
  242MOL0     C32567   3.099  11.410   3.739  1.0006  1.6309 -0.7481
  242MOL0     C32568   3.202  11.345   3.804 -0.0968 -0.3824  0.6643
  242MOL0     C32569   3.280  11.413   3.899 -0.0704 -0.0437  0.7769
  242MOL0     C32570   3.239  11.546   3.924  0.6909  0.6447  0.3009
  242MOL0     O32571   3.317  11.596   4.021 -1.0139 -0.0199 -0.1545
  242MOL0     C32572   3.274  11.715   4.090 -0.6225  0.8428 -0.1865
  242MOL0     C32573   3.376  11.726   4.211  0.3950 -0.2706  0.3536
  242MOL0     C32574   3.321  11.821   4.315  0.6722 -0.6805 -0.5681
  242MOL0     C32575   3.428  11.866   4.410  0.2670 -0.1270 -0.3363
  242MOL0     C32576   3.366  11.969   4.515 -0.2052 -0.6210  0.5361
  242MOL0     C32577   3.454  11.994   4.631 -0.0009  0.4805  0.3267
  242MOL0     C32578   3.598  12.035   4.586 -0.4465 -0.8198 -0.0578
  242MOL0     C32579   3.689  12.073   4.700  0.8852  0.3568  1.0718
  242MOL0    Cl32580   3.721  11.911   4.777  0.6408  0.0717  0.3383
  242MOL0     C32581   3.136  11.605   3.860  0.4878 -0.1335  0.8229
  242MOL0     C32582   3.068  11.545   3.759  0.3975 -1.3165 -1.1017
  242MOL0     O32583   2.968  11.173   3.793  0.2554 -0.2490  0.0759
  242MOL0     C32584   2.817  11.034   3.611 -1.5587 -0.1910  0.4359
  242MOL0     C32585   2.745  10.955   3.515 -0.1060  0.3914  0.6594
  242MOL0     N32586   2.480  10.352   3.167 -0.7506  0.8617 -0.2197
  242MOL0     N32587   2.361  10.309   3.172 -0.9779  0.6628 -0.2089
  242MOL0     C32588   1.537   9.505   3.370 -1.1538 -0.4952  0.1457
  242MOL0     C32589   1.455   9.392   3.383  0.5809 -0.8176  0.8375
  242MOL0     C32590   1.306   9.081   3.531  0.3228 -0.0900  0.8941
  242MOL0     C32591   1.308   9.017   3.404  0.4395 -0.5760  0.6210
  242MOL0     C32592   1.310   8.880   3.396  0.0021 -0.2893 -0.3077
  242MOL0     C32593   1.331   8.799   3.503 -0.1799 -0.4453 -0.2069
  242MOL0     O32594   1.354   8.659   3.509 -0.3428 -0.3434  0.3867
  242MOL0     C32595   1.311   8.570   3.408 -0.0900 -0.0603  0.0240
  242MOL0     C32596   1.159   8.557   3.406 -0.3683  0.9346  0.1104
  242MOL0     C32597   1.094   8.441   3.474  0.3958  0.1696 -0.6398
  242MOL0     C32598   0.945   8.448   3.513  0.1091 -1.1294 -0.5040
  242MOL0     C32599   0.891   8.322   3.537 -0.0858  0.4431 -0.0036
  242MOL0     C32600   0.839   8.213   3.570  0.0075 -0.8574  0.1665
  242MOL0     C32601   1.350   8.864   3.630  0.4866 -0.2430  0.4352
  242MOL0     C32602   1.330   9.001   3.642  0.0359  0.5204 -0.3549
  242MOL0     H32603   1.170   9.528   3.469 -0.3043  1.9122 -3.2521
  242MOL0     H32604   1.304   9.736   3.457 -1.2808 -0.8193 -0.5517
  242MOL0     H32605   1.759   9.669   3.398  0.9384 -0.4497 -1.8367
  242MOL0     H32606   1.704   9.757   3.241  3.9295 -4.4153 -0.1117
  242MOL0     H32607   1.728   9.981   3.323 -1.9282  1.3404  2.7209
  242MOL0     H32608   1.731   9.934   3.488 -0.6402 -0.7924 -0.0469
  242MOL0     H32609   1.950   9.815   3.462  1.6850 -2.7187 -2.6255
  242MOL0     H32610   1.947   9.850   3.287 -2.2374  2.9384 -1.9516
  242MOL0     H32611   1.942  10.081   3.344  0.6107 -2.0937 -1.8966
  242MOL0     H32612   1.983  10.034   3.521  3.9088 -0.7203  0.1501
  242MOL0     H32613   2.175   9.915   3.393  0.6384  0.1883 -3.6407
  242MOL0     H32614   2.143  10.044   3.274 -1.0269 -0.9705 -0.8157
  242MOL0     H32615   2.219  10.079   3.564 -2.2203  1.0205  1.5754
  242MOL0     H32616   2.318  10.130   3.416  0.9504  0.8694  1.2648
  242MOL0     H32617   2.044  10.242   3.479 -0.3010 -0.3958 -2.0503
  242MOL0     H32618   2.202  10.312   3.534 -1.0176  1.2746  0.0925
  242MOL0     H32619   2.105  10.415   3.310 -2.2266 -1.6899  0.6594
  242MOL0     H32620   2.121  10.252   3.238  0.4629 -1.8714  0.1440
  242MOL0     H32621   2.366  10.489   3.442  0.1893 -0.6115 -1.0962
  242MOL0     H32622   2.642  10.504   3.429  2.1568  1.3508 -0.9364
  242MOL0     H32623   2.711  10.431   3.291 -1.0316 -0.2033 -1.3708
  242MOL0     H32624   2.537  10.674   3.284  0.7427  1.0660  1.4081
  242MOL0     H32625   2.626  10.586   3.148 -0.7417 -0.7409  0.5766
  242MOL0     H32626   2.843  10.632   3.248  1.1320  1.1099  0.8660
  242MOL0     H32627   2.770  10.704   3.387  2.4227 -0.8742 -0.1346
  242MOL0     H32628   2.724  10.813   3.112 -2.0000 -1.7278  1.6293
  242MOL0     H32629   2.854  10.871   3.198 -1.4323  4.1928 -2.0823
  242MOL0     H32630   2.863  11.106   3.228 -1.4848  1.3476 -0.6534
  242MOL0     H32631   3.026  11.272   3.268 -0.6886  0.5674  0.4480
  242MOL0     H32632   2.950  11.371   3.389  0.4397  0.1525  0.6446
  242MOL0     H32633   3.097  11.272   3.439  0.9420  0.3468  0.3363
  242MOL0     H32634   3.226  11.240   3.793 -2.0750 -0.6280 -2.9884
  242MOL0     H32635   3.354  11.359   3.957  0.3980  0.1519  0.3636
  242MOL0     H32636   3.277  11.807   4.031  1.5912  1.8198  1.2976
  242MOL0     H32637   3.176  11.694   4.133 -0.0166 -0.4171  0.6224
  242MOL0     H32638   3.401  11.636   4.269 -1.8353  0.5344  2.8000
  242MOL0     H32639   3.471  11.761   4.170  0.7384 -0.4255  1.0003
  242MOL0     H32640   3.231  11.781   4.364 -0.1909  3.2337  1.4123
  242MOL0     H32641   3.299  11.916   4.268 -0.1511  0.5132  2.0409
  242MOL0     H32642   3.450  11.776   4.468 -1.7889 -1.1070 -0.9599
  242MOL0     H32643   3.513  11.904   4.353 -0.6227  1.8981 -0.3750
  242MOL0     H32644   3.277  11.931   4.565 -0.5263  2.5399  2.6385
  242MOL0     H32645   3.337  12.051   4.449 -0.4162 -1.8479 -0.9529
  242MOL0     H32646   3.411  12.080   4.684  0.7111  0.7660  0.4445
  242MOL0     H32647   3.439  11.906   4.693 -0.4751 -0.9844 -1.7824
  242MOL0     H32648   3.602  12.124   4.523  3.1473  0.5465  1.7810
  242MOL0     H32649   3.641  11.960   4.518  2.3116  1.4785 -1.0481
  242MOL0     H32650   3.635  12.144   4.763 -0.5213  0.0329  0.2538
  242MOL0     H32651   3.779  12.114   4.652 -1.1307  2.2797 -1.3015
  242MOL0     H32652   3.115  11.710   3.877 -0.4252 -0.1747  0.0528
  242MOL0     H32653   2.989  11.593   3.703  2.1852  3.9573  0.2836
  242MOL0     H32654   2.820  10.995   3.712  0.1048 -2.1832 -0.3050
  242MOL0     H32655   2.689  10.865   3.536 -0.0836 -0.0529 -1.0421
  242MOL0     H32656   1.637   9.480   3.337 -1.3245 -1.4692  0.3423
  242MOL0     H32657   1.507   9.299   3.361  3.0491  1.2480 -3.1392
  242MOL0     H32658   1.302   9.068   3.309  0.2336  0.1298  1.0094
  242MOL0     H32659   1.325   8.839   3.296  0.8308  1.3873 -0.9070
  242MOL0     H32660   1.345   8.606   3.311 -4.9188  0.1295 -1.8249
  242MOL0     H32661   1.346   8.469   3.432  0.3464 -0.2890 -1.4684
  242MOL0     H32662   1.122   8.548   3.304 -2.8899  0.0411  1.0272
  242MOL0     H32663   1.112   8.648   3.446  0.1645  2.2152 -1.9969
  242MOL0     H32664   1.158   8.426   3.562  0.9691  1.2234 -0.8515
  242MOL0     H32665   1.101   8.358   3.404 -0.5982 -0.4076 -0.0707
  242MOL0     H32666   0.888   8.483   3.426  0.4323  0.3979 -0.1316
  242MOL0     H32667   0.945   8.521   3.595  0.6238  0.1403 -1.6025
  242MOL0     H32668   0.800   8.114   3.590  0.0161 -1.1806 -1.2924
  242MOL0     H32669   1.354   8.805   3.721 -3.1517 -0.8240  0.3440
  242MOL0     H32670   1.321   9.045   3.741 -1.6330  3.4803 -1.6681
  243MOL0     O32671   4.478   1.017   1.085  0.7356  0.9459 -0.1721
  243MOL0     C32672   4.521   1.106   1.152 -0.5924  0.0294  0.4576
  243MOL0     O32673   4.448   1.172   1.249 -0.2188  0.3628 -0.0072
  243MOL0     C32674   4.318   1.150   1.278  0.3523 -0.0374 -1.3661
  243MOL0     C32675   4.251   1.259   1.330 -0.4898 -0.1498  0.1692
  243MOL0     C32676   4.112   1.254   1.348 -0.0398  0.3671 -0.2247
  243MOL0     C32677   4.043   1.131   1.319  1.0628 -0.1651 -0.2171
  243MOL0     O32678   3.905   1.107   1.336  0.0227  0.0302 -0.3727
  243MOL0     C32679   3.827   1.113   1.223  0.4673 -0.1660  0.7886
  243MOL0     C32680   3.835   1.262   1.161 -0.6607  0.1484  0.3015
  243MOL0     C32681   3.766   1.370   1.246  0.5042 -0.1563  0.7955
  243MOL0     C32682   3.616   1.369   1.220 -0.2126 -0.3539  0.1561
  243MOL0     C32683   3.524   1.460   1.303 -0.6731  0.3459 -0.2007
  243MOL0     C32684   3.513   1.400   1.450  0.1510 -0.0473  0.8897
  243MOL0     C32685   3.429   1.482   1.552 -0.6981 -0.8096  0.3067
  243MOL0     C32686   3.472   1.438   1.690  1.1019 -0.2946  0.9210
  243MOL0     N32687   3.428   1.537   1.794  0.5713  0.4895 -0.2126
  243MOL0     C32688   3.300   1.569   1.827 -0.2529  0.3060  0.3182
  243MOL0     C32689   3.309   1.683   1.892  0.1457 -0.2818  0.2107
  243MOL0     C32690   3.205   1.752   1.968 -0.5669  0.0400  0.8169
  243MOL0     C32691   3.251   1.835   2.092  0.0447 -0.7800  0.1749
  243MOL0     C32692   3.142   1.867   2.195  1.7655  0.4353  0.8926
  243MOL0     C32693   3.198   1.938   2.321 -0.2146  0.5120 -0.6140
  243MOL0     O32694   3.256   1.860   2.426  0.0133 -0.5244 -0.3759
  243MOL0     C32695   3.374   1.901   2.472 -0.3559 -0.0525 -0.5541
  243MOL0     C32696   3.461   1.801   2.503  0.1923  0.5269 -0.5118
  243MOL0     C32697   3.590   1.820   2.552 -0.7085 -1.4146 -0.2033
  243MOL0     C32698   3.666   1.701   2.588 -0.1827  0.1505 -0.2051
  243MOL0     C32699   3.640   1.951   2.557 -0.0087 -0.7350 -0.3016
  243MOL0     C32700   3.783   1.986   2.601  0.1484 -0.5445  0.2763
  243MOL0     O32701   3.804   2.120   2.651  0.5387 -0.3391  0.2814
  243MOL0     C32702   3.930   2.141   2.700  0.4237  0.3133 -1.4130
  243MOL0     C32703   4.032   2.205   2.631  0.9944  0.9287 -0.3647
  243MOL0     C32704   4.147   2.255   2.695 -0.4397  0.6808  0.7743
  243MOL0     C32705   4.162   2.241   2.831 -0.1104  0.5364 -0.9467
  243MOL0     O32706   4.266   2.302   2.900  0.5428 -0.0785  0.4754
  243MOL0     C32707   4.402   2.255   2.857 -0.7102 -0.3044  0.2319
  243MOL0     C32708   4.448   2.131   2.939 -0.6694 -0.1659 -0.3870
  243MOL0     C32709   4.461   2.172   3.092 -0.0581  0.4061  0.1490
  243MOL0     C32710   4.501   2.046   3.174  0.8091 -0.2405 -0.0070
  243MOL0     C32711   4.478   2.081   3.320  0.7647  0.5258 -0.5217
  243MOL0     C32712   4.484   1.961   3.427 -0.0125 -1.4720  0.3913
  243MOL0     C32713   4.617   1.883   3.438  0.5578  0.9902  0.7983
  243MOL0     C32714   4.585   1.780   3.550  0.6030 -0.2441 -0.3826
  243MOL0    Cl32715   4.726   1.683   3.572  0.4592 -0.5527  0.0441
  243MOL0     C32716   4.072   2.171   2.905  0.6901 -0.6916 -0.3441
  243MOL0     C32717   3.952   2.122   2.840 -0.7139  0.0798 -0.1341
  243MOL0     O32718   3.877   1.909   2.588 -0.1239 -0.1398  0.5773
  243MOL0     C32719   3.551   2.063   2.521 -1.2094  0.4331  0.3039
  243MOL0     C32720   3.418   2.037   2.475  0.6480 -0.6817  0.0442
  243MOL0     N32721   3.435   1.728   1.895 -1.3873 -0.4884 -0.1837
  243MOL0     N32722   3.509   1.639   1.841 -0.2506  0.6058 -0.2423
  243MOL0     C32723   4.117   1.023   1.254  0.7728 -1.0820 -0.2822
  243MOL0     C32724   4.250   1.029   1.251 -0.9521 -0.0340 -0.3601
  243MOL0     C32725   4.653   1.156   1.118  0.3867  0.5365 -0.4762
  243MOL0     C32726   4.704   1.153   0.985 -0.0355 -0.0525  0.0891
  243MOL0     C32727   4.831   1.196   0.950 -0.0941  0.4238  0.2840
  243MOL0     C32728   4.921   1.233   1.059 -0.5160  0.7623 -0.2505
  243MOL0     O32729   5.051   1.264   1.041  0.0359 -0.2180  0.0351
  243MOL0     C32730   5.121   1.189   0.941 -0.2475  1.0139 -0.1369
  243MOL0     C32731   5.146   1.041   0.987  0.0688  0.0029  0.6274
  243MOL0     C32732   5.204   0.970   0.858 -0.9532 -0.0236 -0.0987
  243MOL0     C32733   5.342   1.017   0.814 -0.5905  0.2015  0.3456
  243MOL0     C32734   5.441   1.005   0.925  0.2186  0.3694 -0.2800
  243MOL0     C32735   5.524   0.975   1.010  0.1144 -1.0726  0.9950
  243MOL0     C32736   4.864   1.249   1.189 -0.0272 -0.1919 -0.2473
  243MOL0     C32737   4.735   1.202   1.222  0.2912 -0.4428  0.4646
  243MOL0     H32738   4.303   1.346   1.368  1.1129 -0.9234 -0.1578
  243MOL0     H32739   4.059   1.338   1.393  1.5826  2.0226 -1.2601
  243MOL0     H32740   3.868   1.051   1.143 -2.0859 -1.1549  0.1691
  243MOL0     H32741   3.725   1.089   1.253 -0.6069  3.4433  0.5500
  243MOL0     H32742   3.939   1.293   1.146 -0.9843  2.3875  2.0429
  243MOL0     H32743   3.782   1.259   1.066 -1.6173 -2.2317  0.8523
  243MOL0     H32744   3.784   1.358   1.353  0.4162 -1.3012  0.6991
  243MOL0     H32745   3.807   1.467   1.216  0.1144 -0.3677 -0.5201
  243MOL0     H32746   3.601   1.380   1.112  0.8586  1.7094  0.1613
  243MOL0     H32747   3.574   1.270   1.241 -3.2953  0.3789 -1.9328
  243MOL0     H32748   3.570   1.560   1.305 -0.7236  0.3672  1.0800
  243MOL0     H32749   3.420   1.465   1.270 -1.5449  0.0539  2.2989
  243MOL0     H32750   3.476   1.297   1.450  2.3661 -0.9193  2.2296
  243MOL0     H32751   3.608   1.384   1.503  0.5173  0.2736  0.3450
  243MOL0     H32752   3.450   1.589   1.547 -1.5384 -0.5009  2.4191
  243MOL0     H32753   3.324   1.452   1.547 -1.3056  1.0484  1.0914
  243MOL0     H32754   3.580   1.429   1.704  1.1948 -0.4962  0.1382
  243MOL0     H32755   3.415   1.350   1.719 -2.4856  0.8970 -1.7334
  243MOL0     H32756   3.201   1.529   1.807 -0.1309 -1.9974  3.5226
  243MOL0     H32757   3.145   1.811   1.898  0.4760  0.4065  0.2138
  243MOL0     H32758   3.136   1.681   2.014  1.4998 -0.8419  2.7319
  243MOL0     H32759   3.293   1.925   2.044 -0.7995 -0.3494  0.2370
  243MOL0     H32760   3.323   1.773   2.147  1.9229 -0.7839 -2.1411
  243MOL0     H32761   3.092   1.780   2.238 -0.0081  1.5000  1.0510
  243MOL0     H32762   3.064   1.932   2.153  0.3534  0.8224  3.8429
  243MOL0     H32763   3.109   1.984   2.366 -1.5053  0.7790 -3.2431
  243MOL0     H32764   3.257   2.019   2.277 -1.6991  0.1381 -3.5967
  243MOL0     H32765   3.425   1.699   2.500  4.8669 -1.5069  1.5459
  243MOL0     H32766   3.722   1.664   2.501 -0.5237 -0.7031 -0.0758
  243MOL0     H32767   3.730   1.725   2.673 -3.4555  0.0742  2.4938
  243MOL0     H32768   3.600   1.621   2.622  0.4874 -0.1424  0.4459
  243MOL0     H32769   4.006   2.226   2.527 -1.1076 -1.6689 -0.4635
  243MOL0     H32770   4.218   2.311   2.635  1.5431 -0.2803  2.1393
  243MOL0     H32771   4.396   2.230   2.751  1.9281 -0.7656  0.1221
  243MOL0     H32772   4.473   2.338   2.865 -2.5026  1.3317 -0.1962
  243MOL0     H32773   4.371   2.055   2.921  0.3437 -1.0579 -1.1541
  243MOL0     H32774   4.543   2.105   2.892 -0.4924 -1.0714  0.4467
  243MOL0     H32775   4.364   2.216   3.119 -0.2466  0.5241 -0.7035
  243MOL0     H32776   4.535   2.250   3.110 -1.7271  2.1064 -0.0938
  243MOL0     H32777   4.443   1.960   3.141  1.6037 -0.4026 -1.0042
  243MOL0     H32778   4.606   2.018   3.167  1.0549  0.6231  0.0608
  243MOL0     H32779   4.377   2.122   3.318 -0.0400 -1.3678 -3.3016
  243MOL0     H32780   4.540   2.166   3.350 -1.4975  2.3225 -0.6804
  243MOL0     H32781   4.476   2.012   3.523  0.9959 -1.4329  0.4620
  243MOL0     H32782   4.401   1.891   3.415 -1.2425 -0.1884  1.1643
  243MOL0     H32783   4.698   1.948   3.472  0.3380  2.4317 -1.2729
  243MOL0     H32784   4.643   1.830   3.346 -1.3962  0.8289  0.2938
  243MOL0     H32785   4.503   1.719   3.512 -0.2907  0.0543  0.9828
  243MOL0     H32786   4.569   1.821   3.650 -0.6703  1.0887 -1.0932
  243MOL0     H32787   4.094   2.158   3.010  1.4446 -0.7025 -0.4998
  243MOL0     H32788   3.867   2.076   2.889 -0.5375  1.6703  1.8128
  243MOL0     H32789   3.588   2.165   2.524 -1.0375  0.5459 -2.4695
  243MOL0     H32790   3.346   2.116   2.459  0.1136 -1.3776 -1.1615
  243MOL0     H32791   4.054   0.939   1.230  0.5907 -1.6434  1.9390
  243MOL0     H32792   4.308   0.944   1.216  1.8321  2.2098 -1.6459
  243MOL0     H32793   4.640   1.114   0.907 -2.2017  4.1301 -0.5117
  243MOL0     H32794   4.867   1.174   0.851 -1.1372  0.4448 -0.1138
  243MOL0     H32795   5.068   1.210   0.848 -3.1574 -0.0480  1.1735
  243MOL0     H32796   5.219   1.237   0.934 -0.1291  0.7464 -0.2928
  243MOL0     H32797   5.048   1.008   1.023  0.2404 -2.4358 -0.9489
  243MOL0     H32798   5.217   1.043   1.070  0.6214 -3.0175  0.3504
  243MOL0     H32799   5.134   0.980   0.774 -0.3042  1.3071 -0.5034
  243MOL0     H32800   5.212   0.864   0.882 -2.1893 -0.6636 -2.2072
  243MOL0     H32801   5.348   1.116   0.767 -1.3156 -1.2538 -3.1724
  243MOL0     H32802   5.375   0.956   0.729  2.8253  0.6714  1.2032
  243MOL0     H32803   5.600   0.963   1.084 -1.1923 -1.7788  2.2729
  243MOL0     H32804   4.920   1.271   1.279  0.6255 -0.4210 -0.5957
  243MOL0     H32805   4.701   1.188   1.324 -1.8027 -2.5980 -0.4467
  244MOL0     O32806   1.047  10.839   9.140  0.1385 -0.4295  0.0749
  244MOL0     C32807   0.928  10.856   9.119 -0.2567  0.2149 -0.7224
  244MOL0     O32808   0.872  10.880   9.001  0.0923 -0.4932 -0.9236
  244MOL0     C32809   0.952  10.898   8.889  0.0466  0.4422 -0.0954
  244MOL0     C32810   0.932  11.015   8.820 -0.8158 -0.1199  0.4689
  244MOL0     C32811   0.999  11.046   8.699  1.0785  0.2698  0.5120
  244MOL0     C32812   1.093  10.963   8.654  0.3206 -0.3711 -0.0591
  244MOL0     O32813   1.149  10.993   8.538 -0.5632  0.4810  0.0285
  244MOL0     C32814   1.103  11.075   8.430 -0.8615  0.7792  0.1396
  244MOL0     C32815   1.110  11.003   8.295  0.2091 -0.4369 -0.0357
  244MOL0     C32816   1.245  10.978   8.244 -0.2627 -1.0045 -0.5358
  244MOL0     C32817   1.236  10.942   8.099 -0.1230  0.4065  0.2876
  244MOL0     C32818   1.376  10.953   8.032  0.2809 -0.1271 -0.0886
  244MOL0     C32819   1.437  11.085   8.018  0.3759 -0.2201 -0.2037
  244MOL0     C32820   1.563  11.090   7.930 -0.5866  0.4474 -0.2549
  244MOL0     C32821   1.646  11.224   7.932 -0.2249 -0.0909 -0.1765
  244MOL0     N32822   1.714  11.231   8.068 -0.5194 -0.0310  0.0881
  244MOL0     C32823   1.654  11.307   8.161 -0.7898 -0.3077  1.0872
  244MOL0     C32824   1.714  11.271   8.277 -0.5503 -0.2552  0.8095
  244MOL0     C32825   1.685  11.356   8.399 -0.4002 -0.3419  0.2229
  244MOL0     C32826   1.547  11.334   8.458 -1.1274  0.5871 -0.2924
  244MOL0     C32827   1.516  11.182   8.482  0.0970  0.0538 -0.1184
  244MOL0     C32828   1.611  11.117   8.576  0.3841 -0.2152 -0.0366
  244MOL0     O32829   1.547  10.986   8.610 -0.0010 -0.4474 -0.9272
  244MOL0     C32830   1.569  10.946   8.737  0.4841 -0.6031  0.7343
  244MOL0     C32831   1.466  10.883   8.817  0.2427 -0.0368  1.3092
  244MOL0     C32832   1.473  10.857   8.957  0.0447 -0.5006 -0.0829
  244MOL0     C32833   1.343  10.816   9.027 -0.2654  0.1008  0.5341
  244MOL0     C32834   1.599  10.889   9.019  0.2758 -0.1429 -0.6265
  244MOL0     C32835   1.633  10.851   9.157  0.4799 -0.8083 -1.2038
  244MOL0     O32836   1.726  10.918   9.228  0.2727  0.2543 -0.3269
  244MOL0     C32837   1.777  10.885   9.351  0.1577 -0.2087 -0.0939
  244MOL0     C32838   1.791  10.749   9.405  0.0977 -0.5331  0.1006
  244MOL0     C32839   1.856  10.738   9.533 -0.2780  0.7646  0.8227
  244MOL0     C32840   1.918  10.849   9.593 -0.1632 -0.2010 -0.7490
  244MOL0     O32841   1.960  10.847   9.723  0.0979 -0.6050 -0.5533
  244MOL0     C32842   1.925  10.753   9.821 -1.1731 -0.0222  0.4420
  244MOL0     C32843   2.012  10.778   9.952  0.0663 -0.2042  1.2539
  244MOL0     C32844   2.001  10.921  10.011 -0.5024  0.9442 -0.5743
  244MOL0     C32845   2.044  10.922  10.155  0.7717  0.8650  0.1407
  244MOL0     C32846   1.990  11.041  10.234  0.0917  0.3877  0.8904
  244MOL0     C32847   2.045  11.043  10.378  0.2940  0.1451  0.9685
  244MOL0     C32848   1.992  11.162  10.461  0.3576  0.0922  0.3893
  244MOL0     C32849   2.095  11.208  10.557 -0.9950 -0.7304 -0.0842
  244MOL0    Cl32850   2.104  11.088  10.704  0.1066  0.8258 -0.5859
  244MOL0     C32851   1.910  10.977   9.543 -0.6899  0.3114  0.5161
  244MOL0     C32852   1.840  10.997   9.418  0.2849  0.1587 -0.0433
  244MOL0     O32853   1.572  10.759   9.209  0.0438 -0.0317  0.6387
  244MOL0     C32854   1.694  10.949   8.942  0.5467  0.2724 -0.1550
  244MOL0     C32855   1.688  10.969   8.803 -0.3314  0.3477 -0.4885
  244MOL0     N32856   1.802  11.171   8.248 -0.0762  0.1391 -0.0447
  244MOL0     N32857   1.804  11.144   8.126 -0.3484  0.2005  0.4221
  244MOL0     C32858   1.115  10.840   8.721 -0.3377 -1.1569  0.0751
  244MOL0     C32859   1.047  10.805   8.836  0.2950  0.9193  0.4118
  244MOL0     C32860   0.843  10.835   9.231 -0.0585  0.1182 -0.1674
  244MOL0     C32861   0.707  10.867   9.229 -0.5531 -0.0151  0.1359
  244MOL0     C32862   0.619  10.843   9.333 -0.2359  0.3567 -1.1134
  244MOL0     C32863   0.659  10.777   9.448  0.1556  1.2914 -0.0705
  244MOL0     O32864   0.584  10.756   9.563  0.4523  0.0685 -0.2493
  244MOL0     C32865   0.447  10.782   9.557 -0.6799 -0.0645  0.2097
  244MOL0     C32866   0.364  10.691   9.461  0.6744 -0.7170 -0.7910
  244MOL0     C32867   0.215  10.736   9.457 -0.7582  0.8197  0.0970
  244MOL0     C32868   0.127  10.666   9.349 -0.3116 -0.8411 -0.3004
  244MOL0     C32869  -0.004  10.726   9.363  0.7161 -0.5418 -0.2066
  244MOL0     C32870  -0.119  10.767   9.371 -0.0819 -0.2040 -0.4058
  244MOL0     C32871   0.795  10.737   9.450 -0.2870 -1.0606 -0.6589
  244MOL0     C32872   0.892  10.776   9.351  0.0519  0.1821 -0.0824
  244MOL0     H32873   0.861  11.091   8.853 -1.0543  0.2235 -0.7937
  244MOL0     H32874   0.964  11.138   8.655 -0.8906 -0.1317  1.1543
  244MOL0     H32875   1.000  11.110   8.435 -0.2683  2.8000 -0.6905
  244MOL0     H32876   1.170  11.161   8.424  0.4196 -0.2758 -1.3291
  244MOL0     H32877   1.057  10.908   8.304 -2.3958  0.8598 -0.5936
  244MOL0     H32878   1.047  11.066   8.231 -0.8287 -0.3135  1.0744
  244MOL0     H32879   1.301  11.071   8.258  0.8030 -2.0815  4.5166
  244MOL0     H32880   1.287  10.903   8.311 -1.0420 -0.6941  0.3271
  244MOL0     H32881   1.205  10.837   8.090  2.7573 -0.5035 -0.1044
  244MOL0     H32882   1.169  11.005   8.040  1.2617  2.2923  0.6592
  244MOL0     H32883   1.444  10.884   8.082 -0.6407 -0.9888  0.0040
  244MOL0     H32884   1.360  10.927   7.927  0.9484  3.2247 -1.1685
  244MOL0     H32885   1.357  11.155   7.993 -0.5341 -1.4820 -0.8919
  244MOL0     H32886   1.471  11.105   8.120 -3.7394  3.3897  0.7785
  244MOL0     H32887   1.635  11.010   7.947 -1.4245 -0.6437 -1.6108
  244MOL0     H32888   1.529  11.075   7.827 -1.2908 -0.1955  0.0657
  244MOL0     H32889   1.571  11.303   7.925 -0.5652  0.1441  3.6709
  244MOL0     H32890   1.724  11.233   7.856 -1.6442 -0.9602 -1.8006
  244MOL0     H32891   1.576  11.383   8.160  0.4795  1.0851 -1.1516
  244MOL0     H32892   1.767  11.352   8.472 -0.3372  4.1638  0.6977
  244MOL0     H32893   1.696  11.460   8.367  2.6708 -0.6562 -0.0656
  244MOL0     H32894   1.468  11.364   8.389  1.2388 -0.4458 -3.6826
  244MOL0     H32895   1.543  11.397   8.547 -1.3072 -0.0042  0.1303
  244MOL0     H32896   1.514  11.132   8.385  0.5813 -1.8589  0.8089
  244MOL0     H32897   1.420  11.187   8.534  0.1612  4.3691 -0.0802
  244MOL0     H32898   1.634  11.181   8.661  2.2737  0.0255 -0.6807
  244MOL0     H32899   1.704  11.089   8.527  1.1814  3.3943 -0.8780
  244MOL0     H32900   1.369  10.863   8.773  0.5691 -2.1388  1.4217
  244MOL0     H32901   1.327  10.708   9.017 -1.2029  0.1971  0.8452
  244MOL0     H32902   1.334  10.862   9.126 -0.3805  4.4608 -1.2477
  244MOL0     H32903   1.263  10.871   8.975  0.1346 -1.0231 -1.3537
  244MOL0     H32904   1.745  10.665   9.355 -0.5048  1.2885 -2.6179
  244MOL0     H32905   1.853  10.635   9.567 -1.0855  0.1749 -0.8798
  244MOL0     H32906   1.821  10.775   9.849 -0.0918  1.9068  3.3449
  244MOL0     H32907   1.943  10.654   9.778 -2.5617  0.4482 -1.3615
  244MOL0     H32908   1.978  10.695  10.014  2.2909 -1.5476  0.7576
  244MOL0     H32909   2.116  10.762   9.923  0.1550 -0.6063  1.7801
  244MOL0     H32910   1.894  10.946  10.011 -0.5736  0.6358 -0.0843
  244MOL0     H32911   2.068  10.980   9.947 -0.5693  0.6387 -0.9301
  244MOL0     H32912   2.010  10.825  10.191  2.1934  0.2620 -0.0839
  244MOL0     H32913   2.153  10.922  10.155  0.8135 -0.8154 -0.9366
  244MOL0     H32914   1.882  11.026  10.225  0.5227 -3.2743  0.6515
  244MOL0     H32915   2.013  11.132  10.177 -2.9122 -0.8407 -2.6855
  244MOL0     H32916   2.016  10.946  10.420 -1.1957 -0.5743 -1.5013
  244MOL0     H32917   2.153  11.055  10.367  0.1817  1.0447  0.8042
  244MOL0     H32918   1.899  11.138  10.513 -0.6187  0.0792 -1.3077
  244MOL0     H32919   1.974  11.246  10.393 -1.1987  1.6806  2.6113
  244MOL0     H32920   2.077  11.310  10.594  1.5106 -0.6988  1.2689
  244MOL0     H32921   2.190  11.220  10.505 -0.4019 -0.1386  1.0890
  244MOL0     H32922   1.954  11.064   9.590 -0.8325  1.2425 -1.0047
  244MOL0     H32923   1.836  11.095   9.372 -3.3286 -0.0045 -0.3116
  244MOL0     H32924   1.781  10.980   8.998  0.7592  0.7350 -0.7217
  244MOL0     H32925   1.766  11.033   8.763 -1.6154  1.9479 -0.5154
  244MOL0     H32926   1.180  10.767   8.675 -0.3798 -0.8037 -0.5555
  244MOL0     H32927   1.053  10.713   8.894  0.1649  2.0093  2.2233
  244MOL0     H32928   0.666  10.902   9.136 -1.2804 -3.1416 -0.8542
  244MOL0     H32929   0.521  10.888   9.324 -0.3581  0.2395 -0.4483
  244MOL0     H32930   0.419  10.737   9.652 -2.1642 -0.7305 -0.5171
  244MOL0     H32931   0.425  10.884   9.525  1.5774  0.5874  0.5982
  244MOL0     H32932   0.366  10.590   9.502  0.2780 -1.5931 -2.7970
  244MOL0     H32933   0.411  10.676   9.364 -0.2601  3.8892 -2.2042
  244MOL0     H32934   0.213  10.845   9.441  0.1452  0.7404 -0.6739
  244MOL0     H32935   0.173  10.704   9.552 -0.6858  0.8653  0.1446
  244MOL0     H32936   0.135  10.558   9.357  0.7987 -0.7920 -0.6536
  244MOL0     H32937   0.162  10.690   9.248  0.2693 -0.7778 -0.0839
  244MOL0     H32938  -0.212  10.821   9.374  0.6867  1.3696 -2.3386
  244MOL0     H32939   0.828  10.688   9.541  0.1450 -0.8891 -0.7159
  244MOL0     H32940   0.997  10.751   9.354  0.5692  1.2196 -3.9400
  245MOL0     O32941   4.128   0.185  10.964  0.1901  0.0863  0.6853
  245MOL0     C32942   4.020   0.165  11.023 -0.6766 -0.0917  0.2396
  245MOL0     O32943   3.944   0.053  11.012 -0.0810 -1.0272  0.2036
  245MOL0     C32944   4.006  -0.049  10.940  0.3465  1.3283  0.4933
  245MOL0     C32945   4.003  -0.047  10.798 -0.1673  0.5338  0.1447
  245MOL0     C32946   4.049  -0.150  10.721  0.7379  0.2044 -0.9532
  245MOL0     C32947   4.083  -0.270  10.786  0.4087 -0.2253 -0.5937
  245MOL0     O32948   4.117  -0.365  10.695 -0.2840  0.5450  0.8541
  245MOL0     C32949   4.030  -0.480  10.711  0.5314 -0.6191 -0.5411
  245MOL0     C32950   4.045  -0.576  10.597 -1.6577  0.7670 -0.8707
  245MOL0     C32951   3.935  -0.681  10.606  0.1020  0.2164  0.1499
  245MOL0     C32952   3.939  -0.771  10.476  0.0111 -0.0636 -0.0091
  245MOL0     C32953   3.818  -0.862  10.466 -0.4355 -0.7360  0.9172
  245MOL0     C32954   3.811  -0.944  10.337  0.4562 -0.3913  0.7161
  245MOL0     C32955   3.661  -1.001  10.318  0.1467  0.7208  0.2103
  245MOL0     C32956   3.640  -1.014  10.164  0.0774  0.1867 -1.0857
  245MOL0     N32957   3.548  -1.128  10.126 -0.0955 -0.0737 -0.8149
  245MOL0     C32958   3.579  -1.256  10.098  0.4657  1.0721  0.5705
  245MOL0     C32959   3.470  -1.308  10.043 -0.4158 -0.6385  0.2552
  245MOL0     C32960   3.464  -1.448  10.028 -0.1461 -0.3203  0.2013
  245MOL0     C32961   3.476  -1.515  10.165 -0.5429 -0.3417 -0.4659
  245MOL0     C32962   3.440  -1.665  10.169  0.5970 -0.0375 -0.6171
  245MOL0     C32963   3.543  -1.757  10.110 -0.5977  0.5460 -0.5094
  245MOL0     O32964   3.541  -1.889  10.159 -0.4138  0.1464  0.3946
  245MOL0     C32965   3.624  -1.986  10.105  0.2806 -0.6825  0.6518
  245MOL0     C32966   3.703  -1.973   9.987  0.8596  0.1086 -0.5520
  245MOL0     C32967   3.788  -2.076   9.944  0.6210  0.4497 -0.2572
  245MOL0     C32968   3.860  -2.053   9.814  0.2225 -0.1046  0.0037
  245MOL0     C32969   3.785  -2.200  10.006 -0.6229 -0.1963  0.3652
  245MOL0     C32970   3.870  -2.321   9.965 -0.2502  0.7650 -0.2582
  245MOL0     O32971   3.857  -2.429  10.052  0.9821  0.1012 -0.9305
  245MOL0     C32972   3.901  -2.556  10.011  0.3666 -0.2692  0.1346
  245MOL0     C32973   3.919  -2.637  10.121  0.5363 -0.0989 -0.1305
  245MOL0     C32974   3.957  -2.764  10.111  0.3018  0.4144  0.6081
  245MOL0     C32975   4.020  -2.817   9.994 -0.1511 -0.2124 -0.7291
  245MOL0     O32976   4.071  -2.946  10.003  0.2537  0.4502  0.4578
  245MOL0     C32977   4.179  -2.990   9.918  0.2875 -0.2631  0.0580
  245MOL0     C32978   4.242  -3.112   9.991  0.4742  0.6251 -0.6815
  245MOL0     C32979   4.154  -3.237  10.013  0.9160  0.7098 -0.3694
  245MOL0     C32980   4.225  -3.363  10.058 -0.3229  0.0152  0.1718
  245MOL0     C32981   4.135  -3.483  10.080  0.0074  0.0583 -0.0004
  245MOL0     C32982   4.199  -3.609  10.126  0.2684  0.4287 -0.5223
  245MOL0     C32983   4.087  -3.722  10.124 -0.2720 -0.0192 -1.2554
  245MOL0     C32984   4.128  -3.858  10.200 -0.4830 -0.5605  0.7888
  245MOL0    Cl32985   3.971  -3.952  10.202  0.0545  0.0647  0.7238
  245MOL0     C32986   4.021  -2.729   9.886 -0.0436 -0.4730 -0.5425
  245MOL0     C32987   3.954  -2.609   9.893  1.0095 -0.5349 -0.1234
  245MOL0     O32988   3.944  -2.321   9.865  0.3173  0.6145  0.1414
  245MOL0     C32989   3.705  -2.208  10.128  0.5507  0.2486  0.2800
  245MOL0     C32990   3.629  -2.103  10.172  0.3530 -0.4960 -0.2716
  245MOL0     N32991   3.370  -1.220  10.045  0.2601  0.2930  1.1063
  245MOL0     N32992   3.417  -1.109  10.092 -0.1982  0.1128  0.4588
  245MOL0     C32993   4.069  -0.291  10.925 -0.1646  0.3904  0.6332
  245MOL0     C32994   4.032  -0.173  10.997  0.1718  0.0674 -0.7980
  245MOL0     C32995   3.965   0.264  11.120 -0.8573 -0.7426 -0.0307
  245MOL0     C32996   4.023   0.395  11.135  0.5160 -0.3148  0.2030
  245MOL0     C32997   3.951   0.496  11.209  0.0075 -0.2359  0.8515
  245MOL0     C32998   3.831   0.459  11.276 -0.1692 -0.1001 -0.5767
  245MOL0     O32999   3.775   0.562  11.351  0.2422  0.4383  0.3276
  245MOL0     C33000   3.682   0.523  11.448  0.0518  0.2326 -0.4844
  245MOL0     C33001   3.681   0.630  11.556  0.3866  0.2717  0.2165
  245MOL0     C33002   3.817   0.669  11.632  0.3132  0.2045 -0.6943
  245MOL0     C33003   3.886   0.560  11.713 -0.3139  0.7125 -1.1916
  245MOL0     C33004   3.950   0.455  11.628  0.2684  0.4395 -0.3581
  245MOL0     C33005   3.986   0.366  11.553  0.1765  0.1853 -0.0726
  245MOL0     C33006   3.784   0.329  11.270 -0.2585  1.3879 -0.6098
  245MOL0     C33007   3.844   0.235  11.189  0.6667  0.2660 -0.5699
  245MOL0     H33008   3.972   0.051  10.764  2.3679  1.7973  1.2271
  245MOL0     H33009   4.031  -0.149  10.614 -2.9429 -0.8943 -0.5066
  245MOL0     H33010   4.057  -0.536  10.801  0.9160  0.7981  0.2566
  245MOL0     H33011   3.928  -0.440  10.708  0.9823  0.5383 -2.6039
  245MOL0     H33012   4.023  -0.519  10.506 -1.9043  1.7157 -0.2260
  245MOL0     H33013   4.149  -0.611  10.599 -2.0780 -0.4905  0.1889
  245MOL0     H33014   3.943  -0.745  10.694 -0.2528  0.1901  0.1668
  245MOL0     H33015   3.843  -0.622  10.612  1.3352  2.2742 -0.2425
  245MOL0     H33016   3.945  -0.713  10.384  3.2626 -1.8818 -1.0847
  245MOL0     H33017   4.027  -0.836  10.474 -1.1028 -1.6324 -0.0731
  245MOL0     H33018   3.816  -0.935  10.547 -1.2303 -2.1175 -0.3196
  245MOL0     H33019   3.726  -0.807  10.487  0.2597 -0.2333  2.8238
  245MOL0     H33020   3.831  -0.886  10.246 -1.3705 -0.3690  0.2785
  245MOL0     H33021   3.880  -1.028  10.337  0.7937 -0.1331  2.1661
  245MOL0     H33022   3.653  -1.085  10.387  2.5619  0.0598 -0.1899
  245MOL0     H33023   3.586  -0.929  10.351  0.2769  0.5010  0.9893
  245MOL0     H33024   3.735  -1.033  10.114  0.1550  0.9508 -1.2343
  245MOL0     H33025   3.604  -0.919  10.124  1.6460 -0.0341 -3.1782
  245MOL0     H33026   3.675  -1.297  10.127  0.5651  1.0975  0.2855
  245MOL0     H33027   3.365  -1.470   9.988 -0.0735  0.1454 -0.2449
  245MOL0     H33028   3.538  -1.480   9.954 -1.3804 -0.7844 -0.8660
  245MOL0     H33029   3.422  -1.451  10.235 -0.4992  0.1866 -0.9089
  245MOL0     H33030   3.576  -1.509  10.207 -0.4896 -3.1518  0.0365
  245MOL0     H33031   3.343  -1.696  10.128  0.5882 -1.1346  0.2013
  245MOL0     H33032   3.442  -1.688  10.276  1.9437  0.2315 -0.5675
  245MOL0     H33033   3.644  -1.721  10.132 -0.8464  2.8838 -2.7352
  245MOL0     H33034   3.539  -1.753  10.001 -0.9549  1.4779 -0.4700
  245MOL0     H33035   3.698  -1.892   9.914  2.9126 -0.2556 -1.1428
  245MOL0     H33036   3.968  -2.041   9.831  0.7477 -1.0065 -2.3304
  245MOL0     H33037   3.836  -2.133   9.744 -2.3017  0.3120  0.3076
  245MOL0     H33038   3.823  -1.961   9.769 -0.9826 -0.8261 -0.5128
  245MOL0     H33039   3.872  -2.613  10.216 -0.8697  2.5966 -1.3906
  245MOL0     H33040   3.943  -2.831  10.195  0.6706  0.4626  0.7061
  245MOL0     H33041   4.150  -3.018   9.816  1.8859  1.5254 -0.9551
  245MOL0     H33042   4.246  -2.904   9.906 -3.6557  3.2356  0.5881
  245MOL0     H33043   4.335  -3.144   9.944  0.6249 -0.8430  0.5288
  245MOL0     H33044   4.265  -3.088  10.095  1.9140 -1.4406 -0.4671
  245MOL0     H33045   4.103  -3.256   9.917 -0.1404  3.0155 -0.3375
  245MOL0     H33046   4.079  -3.218  10.090  2.1565 -1.1126  1.3833
  245MOL0     H33047   4.302  -3.394   9.985 -3.2245 -0.2937 -3.0120
  245MOL0     H33048   4.273  -3.320  10.146 -0.6967  2.1732 -0.6164
  245MOL0     H33049   4.101  -3.500   9.977 -1.8670  1.0754  0.4123
  245MOL0     H33050   4.063  -3.452  10.156  0.7816 -2.0125  1.6985
  245MOL0     H33051   4.286  -3.628  10.062 -0.3385  1.9524 -1.8606
  245MOL0     H33052   4.227  -3.607  10.232 -1.5145  0.6523 -0.0253
  245MOL0     H33053   4.058  -3.736  10.019 -2.0778  1.1490 -0.9571
  245MOL0     H33054   4.002  -3.678  10.177  0.8790  2.6840 -1.5141
  245MOL0     H33055   4.174  -3.844  10.299  1.6314 -1.9611  0.0749
  245MOL0     H33056   4.201  -3.906  10.134 -0.1706  0.8177  0.1038
  245MOL0     H33057   4.067  -2.752   9.790  0.6867 -1.8166  0.1069
  245MOL0     H33058   3.950  -2.556   9.798 -0.4460 -2.8452 -1.4507
  245MOL0     H33059   3.699  -2.295  10.192  2.6609 -0.9401 -1.0031
  245MOL0     H33060   3.570  -2.110  10.263  1.2513  4.6797  1.0610
  245MOL0     H33061   4.078  -0.387  10.974 -1.0256 -0.8241 -1.4331
  245MOL0     H33062   4.008  -0.179  11.102 -0.1607 -1.9487 -0.9505
  245MOL0     H33063   4.121   0.422  11.095  0.7059  2.4275  2.1725
  245MOL0     H33064   3.989   0.598  11.210 -3.1448  1.3772 -4.0865
  245MOL0     H33065   3.580   0.521  11.409 -0.1995  3.3920 -0.2600
  245MOL0     H33066   3.722   0.430  11.489 -1.4368  0.2941  1.2445
  245MOL0     H33067   3.610   0.597  11.632 -0.8076 -2.5878 -2.0062
  245MOL0     H33068   3.639   0.726  11.522  0.7776  0.7660  1.0688
  245MOL0     H33069   3.784   0.743  11.704 -1.1998 -2.1352  1.1705
  245MOL0     H33070   3.876   0.708  11.548 -1.4933 -0.3713 -2.3084
  245MOL0     H33071   3.813   0.507  11.775  2.1286 -2.2805 -0.6413
  245MOL0     H33072   3.966   0.611  11.768  1.3134 -0.7834 -2.0670
  245MOL0     H33073   3.999   0.311  11.463  2.0547 -0.1176  0.3452
  245MOL0     H33074   3.694   0.296  11.321 -1.1024  0.4609 -2.5882
  245MOL0     H33075   3.802   0.136  11.176  1.1962  0.1127 -1.1962
  246MOL0     O33076   5.028   8.437  10.479  0.2593  0.2116  0.3470
  246MOL0     C33077   4.933   8.360  10.470  0.4311 -0.4604  0.9241
  246MOL0     O33078   4.797   8.401  10.458 -0.8259 -0.4414 -0.2832
  246MOL0     C33079   4.769   8.538  10.446  0.4847 -0.0678  0.2443
  246MOL0     C33080   4.673   8.595  10.528 -0.3118 -0.6016  0.4526
  246MOL0     C33081   4.625   8.727  10.509 -0.3807  0.7453  0.4062
  246MOL0     C33082   4.691   8.806  10.413  0.2609  0.0517  0.7535
  246MOL0     O33083   4.654   8.937  10.385  0.5580  0.2952  0.1696
  246MOL0     C33084   4.640   9.016  10.499  1.0210  0.1247  0.2439
  246MOL0     C33085   4.640   9.164  10.453  0.2492  0.1086 -0.2618
  246MOL0     C33086   4.558   9.257  10.548 -0.5530  0.4957  0.2954
  246MOL0     C33087   4.446   9.334  10.482  0.0229 -0.3847 -0.3142
  246MOL0     C33088   4.355   9.420  10.573  0.8450 -0.4537 -0.6711
  246MOL0     C33089   4.435   9.511  10.664  0.2670 -0.7858  0.7310
  246MOL0     C33090   4.488   9.626  10.584  0.3943 -0.1770 -0.5642
  246MOL0     C33091   4.434   9.763  10.613  0.1926  0.4873  0.3431
  246MOL0     N33092   4.493   9.793  10.746 -0.7105  0.1457  0.0392
  246MOL0     C33093   4.611   9.855  10.786  0.2873 -0.1268  0.3217
  246MOL0     C33094   4.613   9.855  10.921 -0.4702 -0.0868  0.3931
  246MOL0     C33095   4.715   9.892  11.020 -0.3264 -0.0164 -1.1604
  246MOL0     C33096   4.840   9.954  10.962 -1.0056 -0.2045 -0.4039
  246MOL0     C33097   4.942   9.985  11.083 -0.6055  0.2154  1.0818
  246MOL0     C33098   5.058  10.072  11.029  0.9378  1.0308 -0.3398
  246MOL0     O33099   5.151   9.994  10.949  0.7210 -0.1875  0.4301
  246MOL0     C33100   5.229  10.062  10.863 -0.2256  0.6163  0.0589
  246MOL0     C33101   5.185  10.072  10.735  0.5055 -0.2211  0.3422
  246MOL0     C33102   5.243  10.168  10.643  0.5380 -0.2354  0.2283
  246MOL0     C33103   5.177  10.181  10.510 -0.3507 -0.3653  0.8645
  246MOL0     C33104   5.354  10.238  10.699 -0.3654  0.7075  0.9585
  246MOL0     C33105   5.446  10.330  10.615 -0.0373 -0.1906  0.8170
  246MOL0     O33106   5.580  10.329  10.638 -0.0089 -0.3405  0.2191
  246MOL0     C33107   5.674  10.354  10.538  1.4674 -0.2541  0.1027
  246MOL0     C33108   5.785  10.437  10.557  0.1514 -0.2612 -0.6895
  246MOL0     C33109   5.869  10.456  10.447 -0.2373 -0.1431 -0.0877
  246MOL0     C33110   5.858  10.390  10.327  0.1725 -0.3121  0.6284
  246MOL0     O33111   5.942  10.438  10.223  0.6678 -1.0596 -0.1556
  246MOL0     C33112   5.914  10.411  10.085  0.0383 -0.0048 -0.2970
  246MOL0     C33113   5.984  10.504   9.991  0.1725  0.1920  0.3839
  246MOL0     C33114   5.981  10.452   9.855  0.4350 -0.2949 -0.6310
  246MOL0     C33115   5.842  10.429   9.795 -0.0570  0.3667  0.0905
  246MOL0     C33116   5.868  10.381   9.656 -0.3946 -0.1715 -0.7015
  246MOL0     C33117   5.887  10.225   9.653 -0.3692  0.2350  0.1034
  246MOL0     C33118   5.921  10.192   9.513 -0.6480  0.6291  0.3818
  246MOL0     C33119   5.896  10.037   9.479  0.0176 -0.4725 -0.2558
  246MOL0    Cl33120   5.719  10.025   9.439 -0.3431  0.1777 -0.5615
  246MOL0     C33121   5.747  10.309  10.311  0.0230  0.0289  0.4362
  246MOL0     C33122   5.654  10.285  10.417 -0.9250  0.8168 -0.5679
  246MOL0     O33123   5.398  10.390  10.516  0.2346  0.7952  0.8752
  246MOL0     C33124   5.404  10.211  10.819 -0.7477 -0.0678 -0.3954
  246MOL0     C33125   5.342  10.125  10.905 -0.4847  0.0936 -1.2537
  246MOL0     N33126   4.501   9.792  10.961 -1.0906  0.3159  0.0443
  246MOL0     N33127   4.423   9.774  10.859  0.3144  0.3998  1.0329
  246MOL0     C33128   4.785   8.751  10.330  0.2022 -0.0169  0.0562
  246MOL0     C33129   4.819   8.617  10.346 -0.3427  1.0489 -0.1307
  246MOL0     C33130   4.963   8.224  10.517 -0.2682 -0.3271 -0.0528
  246MOL0     C33131   4.853   8.151  10.562 -0.7175  0.6307 -0.0122
  246MOL0     C33132   4.871   8.022  10.599  0.4388 -0.3447  0.5604
  246MOL0     C33133   4.996   7.962  10.589  0.1361  0.4628 -0.3688
  246MOL0     O33134   5.021   7.837  10.642  0.0916 -0.2716 -0.5591
  246MOL0     C33135   4.917   7.759  10.703 -1.0088 -0.3856 -0.0391
  246MOL0     C33136   4.833   7.692  10.590  0.1937 -0.6879  0.5398
  246MOL0     C33137   4.726   7.607  10.662  0.8963 -0.3766 -1.1175
  246MOL0     C33138   4.578   7.645  10.628 -0.8686  0.0307 -0.1946
  246MOL0     C33139   4.566   7.783  10.667  0.8710 -0.0233 -0.9820
  246MOL0     C33140   4.546   7.891  10.718 -0.1977 -0.2852  0.1515
  246MOL0     C33141   5.110   8.046  10.552  0.8326  0.9657  0.7489
  246MOL0     C33142   5.090   8.172  10.511 -0.2418 -0.6340  0.3480
  246MOL0     H33143   4.616   8.546  10.607 -1.0735 -0.1382  0.1970
  246MOL0     H33144   4.552   8.778  10.572 -0.6252  1.5232 -0.4726
  246MOL0     H33145   4.544   8.989  10.544  1.2811 -2.5147 -0.6423
  246MOL0     H33146   4.725   9.011  10.567  2.3730  0.7740 -1.3373
  246MOL0     H33147   4.747   9.186  10.456  0.5614 -1.4396  1.4778
  246MOL0     H33148   4.615   9.186  10.349  0.8292  1.6426 -0.1095
  246MOL0     H33149   4.515   9.204  10.633 -3.5095 -2.4400 -2.7312
  246MOL0     H33150   4.623   9.342  10.573 -2.7852  2.9946 -1.8215
  246MOL0     H33151   4.492   9.389  10.400  1.2538 -2.0446 -0.7963
  246MOL0     H33152   4.382   9.258  10.437 -0.0199 -0.9914  0.7323
  246MOL0     H33153   4.283   9.471  10.509 -0.8410 -1.0426  0.6909
  246MOL0     H33154   4.311   9.353  10.648  1.7415 -0.1679  0.1308
  246MOL0     H33155   4.368   9.554  10.738 -1.9369 -0.0589 -1.5489
  246MOL0     H33156   4.517   9.457  10.713  0.7566 -1.1730 -0.4658
  246MOL0     H33157   4.595   9.624  10.604  0.0789  0.2426  1.4826
  246MOL0     H33158   4.476   9.602  10.479 -1.0113 -1.3389 -0.1713
  246MOL0     H33159   4.325   9.765  10.616 -0.0048 -0.4513 -2.6972
  246MOL0     H33160   4.475   9.816  10.527  3.2668 -0.9790  0.7648
  246MOL0     H33161   4.693   9.892  10.726 -0.9473 -1.0831 -2.0950
  246MOL0     H33162   4.669   9.964  11.088 -0.5103 -1.3891  0.2191
  246MOL0     H33163   4.749   9.802  11.072 -2.6407 -0.8293 -0.9279
  246MOL0     H33164   4.815  10.049  10.915 -0.7610  1.3261  2.3605
  246MOL0     H33165   4.886   9.895  10.882 -1.6116 -1.4656  0.1435
  246MOL0     H33166   4.997   9.900  11.126  0.7800  1.0588  1.0346
  246MOL0     H33167   4.889  10.042  11.160 -0.9374  2.3877 -0.6613
  246MOL0     H33168   5.086  10.120  11.123 -2.0098 -3.1684  3.0384
  246MOL0     H33169   5.008  10.146  10.965 -0.2677 -0.3635 -1.0816
  246MOL0     H33170   5.102  10.016  10.694  1.0626  0.5910 -2.0645
  246MOL0     H33171   5.232  10.118  10.439 -0.8907  0.9665 -0.8031
  246MOL0     H33172   5.070  10.157  10.516 -0.1529 -2.3989 -1.6972
  246MOL0     H33173   5.188  10.283  10.473 -1.1172 -0.2139  1.0408
  246MOL0     H33174   5.801  10.491  10.649  0.1111  1.0209 -1.4173
  246MOL0     H33175   5.941  10.537  10.442  0.5982 -0.7621  1.2445
  246MOL0     H33176   5.952  10.315  10.051  0.5376  0.2883 -0.5856
  246MOL0     H33177   5.807  10.419  10.065  0.3039 -1.0535 -2.5089
  246MOL0     H33178   5.934  10.601   9.997  0.0878  0.1703  0.0116
  246MOL0     H33179   6.089  10.511  10.021  0.2340 -1.1010  0.5294
  246MOL0     H33180   6.031  10.355   9.862 -1.1753 -1.2586 -1.9103
  246MOL0     H33181   6.034  10.525   9.794 -3.0069  0.2291 -3.2869
  246MOL0     H33182   5.791  10.363   9.865  0.1156 -0.3787 -0.4798
  246MOL0     H33183   5.787  10.524   9.792  2.1262  1.6962 -2.1525
  246MOL0     H33184   5.956  10.434   9.616  1.2383 -1.5752  0.8442
  246MOL0     H33185   5.794  10.427   9.589  1.5542  3.3340 -0.6953
  246MOL0     H33186   5.970  10.187   9.713 -0.0933  1.2116  0.3564
  246MOL0     H33187   5.800  10.169   9.689  1.5639 -3.0907  0.0276
  246MOL0     H33188   6.026  10.219   9.498 -0.4933 -0.7321 -1.1926
  246MOL0     H33189   5.854  10.246   9.445 -1.5721 -2.2342 -1.1440
  246MOL0     H33190   5.932   9.991   9.572 -0.7434 -3.3122 -1.2820
  246MOL0     H33191   5.943  10.004   9.386 -0.6961 -0.4269 -0.6394
  246MOL0     H33192   5.721  10.261  10.217 -1.1144  1.2149  0.1160
  246MOL0     H33193   5.569  10.219  10.405 -1.2270  0.7567  1.4964
  246MOL0     H33194   5.485  10.271  10.859  0.2552 -2.6760  1.8199
  246MOL0     H33195   5.383  10.116  11.005 -0.2897  1.7802 -1.1630
  246MOL0     H33196   4.836   8.808  10.252  0.9824 -1.2023 -0.3356
  246MOL0     H33197   4.892   8.586  10.272  2.0061  3.2768  1.0846
  246MOL0     H33198   4.751   8.187  10.564 -1.7641 -2.1137  0.8219
  246MOL0     H33199   4.778   7.976  10.632 -0.7824  1.1553 -0.6277
  246MOL0     H33200   4.977   7.686  10.759  0.5190  0.5287 -0.4372
  246MOL0     H33201   4.852   7.822  10.764  1.0281 -1.4798  3.5161
  246MOL0     H33202   4.902   7.620  10.544  1.9441  1.3312 -0.1529
  246MOL0     H33203   4.783   7.757  10.518  1.1401  1.3894  1.6893
  246MOL0     H33204   4.727   7.627  10.769 -0.5730 -1.7438 -0.8042
  246MOL0     H33205   4.751   7.502  10.646  0.7567 -0.1308 -3.4291
  246MOL0     H33206   4.496   7.592  10.678 -0.3494 -0.6514 -0.0414
  246MOL0     H33207   4.565   7.629  10.520  1.0842  1.2490 -0.6555
  246MOL0     H33208   4.522   7.984  10.765  1.3400 -0.4255  1.2981
  246MOL0     H33209   5.206   7.999  10.571  0.1890 -0.6420  0.2054
  246MOL0     H33210   5.179   8.233  10.497 -1.7104  1.4317 -0.4621
  247MOL0     O33211   6.059   5.714   1.515 -0.2707 -0.3181  0.2299
  247MOL0     C33212   6.132   5.773   1.435 -0.2776 -0.1389  0.2684
  247MOL0     O33213   6.209   5.887   1.460  0.8002  0.4196 -0.3348
  247MOL0     C33214   6.195   5.947   1.584  0.0269  0.3695  0.4587
  247MOL0     C33215   6.240   5.892   1.704  0.5987  0.1913 -0.5379
  247MOL0     C33216   6.228   5.966   1.822 -1.1731  1.1857 -0.1643
  247MOL0     C33217   6.194   6.098   1.830 -0.1963 -0.4737 -0.0237
  247MOL0     O33218   6.201   6.157   1.947  0.2196  0.4333  0.0850
  247MOL0     C33219   6.259   6.285   1.959 -0.5945  0.3907 -0.0405
  247MOL0     C33220   6.319   6.297   2.099  0.7153 -0.1728  0.0417
  247MOL0     C33221   6.393   6.427   2.102  0.4698 -0.4789  0.0922
  247MOL0     C33222   6.376   6.508   2.231  0.2833  0.0278 -0.3528
  247MOL0     C33223   6.458   6.450   2.356 -0.0514  0.4655 -0.9067
  247MOL0     C33224   6.608   6.471   2.326  0.1956 -0.0992  1.0150
  247MOL0     C33225   6.696   6.433   2.440  0.7942 -0.2215  0.7894
  247MOL0     C33226   6.674   6.519   2.569 -0.7534  0.8906  0.6524
  247MOL0     N33227   6.777   6.499   2.675 -0.4058  0.1666  0.1532
  247MOL0     C33228   6.884   6.414   2.664  0.6734 -0.5741  0.0556
  247MOL0     C33229   6.912   6.387   2.797 -0.2172  0.7163 -0.8717
  247MOL0     C33230   7.033   6.310   2.847 -0.4726  0.1030  0.4121
  247MOL0     C33231   6.985   6.180   2.920  0.3559 -0.0051  0.4630
  247MOL0     C33232   6.936   6.085   2.807 -0.0583  0.2079  0.1855
  247MOL0     C33233   6.788   6.080   2.786 -1.1967  0.1797 -0.4693
  247MOL0     O33234   6.713   6.018   2.895  0.4552  0.3273  0.1489
  247MOL0     C33235   6.578   6.009   2.879 -0.7214  0.9104  0.2268
  247MOL0     C33236   6.503   5.915   2.950  0.5414  0.5461  0.1238
  247MOL0     C33237   6.362   5.902   2.939  0.2409 -0.3336 -0.0991
  247MOL0     C33238   6.297   5.786   3.024 -0.6850 -0.1242 -0.5638
  247MOL0     C33239   6.292   5.988   2.852  0.0192 -0.2876  0.7797
  247MOL0     C33240   6.143   5.978   2.832 -0.5588  0.4474  0.8076
  247MOL0     O33241   6.078   5.853   2.827 -0.0318 -0.3767 -0.0018
  247MOL0     C33242   5.942   5.846   2.839  0.8423 -0.3325 -0.5582
  247MOL0     C33243   5.895   5.809   2.963  0.1777 -0.3907  0.1029
  247MOL0     C33244   5.756   5.807   2.988  0.1809  0.1765 -0.1426
  247MOL0     C33245   5.663   5.834   2.884 -0.0122  0.3819  0.5021
  247MOL0     O33246   5.530   5.830   2.924  0.8152 -0.0330 -0.0106
  247MOL0     C33247   5.456   5.732   2.857 -0.1424  0.0311  0.9772
  247MOL0     C33248   5.315   5.712   2.920  0.1206 -0.3642  0.6603
  247MOL0     C33249   5.214   5.828   2.886  0.0376  0.5830 -0.5945
  247MOL0     C33250   5.070   5.797   2.894  0.0962  0.3073 -0.3361
  247MOL0     C33251   5.017   5.778   3.042 -0.6708  0.6710  0.4818
  247MOL0     C33252   4.870   5.726   3.067  0.2188 -0.8480  0.0001
  247MOL0     C33253   4.839   5.581   3.027 -0.5560  0.5910 -0.1587
  247MOL0     C33254   4.706   5.520   3.094 -1.0883  0.4041 -0.2589
  247MOL0    Cl33255   4.578   5.592   3.004 -0.6026  0.3525 -0.1895
  247MOL0     C33256   5.712   5.858   2.754 -0.4353  0.0106 -0.1007
  247MOL0     C33257   5.850   5.866   2.736  1.2064 -0.5939 -0.1382
  247MOL0     O33258   6.081   6.084   2.811 -0.4432  0.1196 -0.2405
  247MOL0     C33259   6.359   6.084   2.791 -1.2807 -0.4492 -0.7222
  247MOL0     C33260   6.496   6.098   2.801 -1.1727  0.8546  1.0592
  247MOL0     N33261   6.808   6.437   2.876 -0.5728  0.1305 -0.6224
  247MOL0     N33262   6.740   6.509   2.805  1.2527 -0.3829 -0.2368
  247MOL0     C33263   6.166   6.160   1.710 -0.5199  0.4139  0.2384
  247MOL0     C33264   6.168   6.086   1.585 -0.1084 -1.0416  0.1105
  247MOL0     C33265   6.157   5.710   1.305  0.6889 -0.2760 -0.4305
  247MOL0     C33266   6.269   5.751   1.227  0.1439  0.2173  0.6281
  247MOL0     C33267   6.284   5.696   1.100 -0.5793 -0.6060  0.6082
  247MOL0     C33268   6.196   5.600   1.048  0.0012 -0.0686 -0.5434
  247MOL0     O33269   6.192   5.536   0.926  0.2631  0.7359  0.2290
  247MOL0     C33270   6.300   5.560   0.837 -0.0503 -0.0305  1.3287
  247MOL0     C33271   6.270   5.484   0.713  0.1510 -0.9186 -0.3136
  247MOL0     C33272   6.162   5.530   0.619 -1.1184 -0.4103  0.7069
  247MOL0     C33273   6.164   5.452   0.487 -0.0295 -0.3481 -0.4421
  247MOL0     C33274   6.050   5.493   0.405  0.0131  0.3439 -0.8497
  247MOL0     C33275   5.944   5.508   0.356 -0.6745 -0.3900  0.1494
  247MOL0     C33276   6.096   5.559   1.135  0.4130 -0.6238 -0.6049
  247MOL0     C33277   6.079   5.609   1.265  0.2479  0.1875  0.6107
  247MOL0     H33278   6.277   5.790   1.701  0.1713  0.0605 -1.9160
  247MOL0     H33279   6.250   5.905   1.909 -1.7787 -2.6187 -2.4205
  247MOL0     H33280   6.326   6.312   1.877  0.5481 -1.8965  0.0522
  247MOL0     H33281   6.182   6.363   1.957  1.2466  2.3590  1.1239
  247MOL0     H33282   6.236   6.303   2.170  0.6010  0.7184 -0.1489
  247MOL0     H33283   6.379   6.210   2.126  0.1131 -0.5525  0.1863
  247MOL0     H33284   6.492   6.384   2.085  1.6763  0.6450  3.4064
  247MOL0     H33285   6.369   6.497   2.021  0.1782 -0.0287  0.5590
  247MOL0     H33286   6.402   6.610   2.204 -2.3501 -0.0885 -4.0546
  247MOL0     H33287   6.269   6.502   2.257  0.4542  4.8228  2.8086
  247MOL0     H33288   6.434   6.504   2.448 -1.4571  0.1957 -1.0879
  247MOL0     H33289   6.431   6.348   2.382 -2.8747  1.0426 -1.2634
  247MOL0     H33290   6.632   6.409   2.239 -2.0258  0.9375 -0.4379
  247MOL0     H33291   6.631   6.573   2.294  0.1175 -0.3652  0.0777
  247MOL0     H33292   6.676   6.329   2.466 -0.6024 -1.2520 -3.5007
  247MOL0     H33293   6.797   6.443   2.397 -0.2863  1.6313 -1.5839
  247MOL0     H33294   6.591   6.478   2.628  0.9102 -1.6941  1.3287
  247MOL0     H33295   6.662   6.623   2.537  1.6605  0.2660 -2.8687
  247MOL0     H33296   6.925   6.387   2.567  2.4507  0.3907  0.4901
  247MOL0     H33297   7.103   6.297   2.765  1.7126  3.2071  1.5861
  247MOL0     H33298   7.094   6.371   2.914  1.0712  2.7926 -3.1211
  247MOL0     H33299   6.906   6.188   2.995  0.5803 -3.0036  1.1445
  247MOL0     H33300   7.073   6.135   2.966  1.6969  2.2648  0.2740
  247MOL0     H33301   6.977   5.989   2.840  2.0957  1.4138  1.2724
  247MOL0     H33302   6.981   6.119   2.713 -1.3325 -1.6979 -1.1691
  247MOL0     H33303   6.778   6.025   2.692  1.8220 -1.1264 -0.1519
  247MOL0     H33304   6.747   6.181   2.784 -1.9640 -0.1016  0.2702
  247MOL0     H33305   6.561   5.863   3.026  2.1463  2.8726  0.5850
  247MOL0     H33306   6.360   5.762   3.110 -0.7258 -0.8923 -0.7406
  247MOL0     H33307   6.201   5.825   3.057 -0.7750 -0.5552 -0.2994
  247MOL0     H33308   6.285   5.688   2.976  2.4444 -1.0922  0.3996
  247MOL0     H33309   5.965   5.775   3.039  1.8545  1.1784 -0.6574
  247MOL0     H33310   5.724   5.796   3.091  2.5272  3.6361  1.1197
  247MOL0     H33311   5.431   5.759   2.755 -0.9978 -0.2422  1.1085
  247MOL0     H33312   5.502   5.633   2.871 -0.9751 -0.7254 -1.2778
  247MOL0     H33313   5.279   5.613   2.891 -1.6436  0.2854  0.4530
  247MOL0     H33314   5.317   5.704   3.030 -2.1048  3.8454  1.2165
  247MOL0     H33315   5.231   5.861   2.783  1.9425  1.2010 -0.1210
  247MOL0     H33316   5.244   5.911   2.950  0.7802 -1.4882  1.9026
  247MOL0     H33317   5.006   5.873   2.848 -0.5523  0.3912  0.6594
  247MOL0     H33318   5.046   5.703   2.843  0.2035 -1.5577  2.7286
  247MOL0     H33319   5.039   5.868   3.100  1.9100  0.0656  0.5734
  247MOL0     H33320   5.089   5.706   3.083  1.7174  2.2181 -0.7289
  247MOL0     H33321   4.873   5.721   3.176 -0.6154  1.1070  0.1367
  247MOL0     H33322   4.801   5.804   3.036  3.7592  2.5619 -0.1649
  247MOL0     H33323   4.924   5.517   3.055 -0.3183  0.5867 -0.8650
  247MOL0     H33324   4.830   5.575   2.918  0.0484 -2.6661 -0.1398
  247MOL0     H33325   4.699   5.570   3.190  0.1211  0.9214 -0.4264
  247MOL0     H33326   4.705   5.410   3.097 -4.1080  0.2659 -2.0150
  247MOL0     H33327   5.639   5.864   2.673 -0.0053 -2.3245 -0.7321
  247MOL0     H33328   5.888   5.893   2.638 -0.7514  0.7233 -0.5990
  247MOL0     H33329   6.319   6.164   2.729  3.6263  3.8615  1.0147
  247MOL0     H33330   6.555   6.161   2.734 -1.8071 -0.3459 -0.7056
  247MOL0     H33331   6.146   6.266   1.709 -0.3284  0.4735 -1.6296
  247MOL0     H33332   6.141   6.139   1.494  2.5141  0.2097 -0.0187
  247MOL0     H33333   6.339   5.827   1.261 -1.0340  1.2530  0.8184
  247MOL0     H33334   6.365   5.731   1.035 -0.1332 -2.4533  0.1145
  247MOL0     H33335   6.317   5.666   0.814  2.8471  0.0061  3.0912
  247MOL0     H33336   6.397   5.528   0.876  2.3556  0.0967 -3.7561
  247MOL0     H33337   6.252   5.380   0.743  2.7589 -1.0713  1.0471
  247MOL0     H33338   6.359   5.482   0.648 -0.9319 -0.0006 -1.9125
  247MOL0     H33339   6.169   5.637   0.600  1.3567 -0.1280  2.6100
  247MOL0     H33340   6.065   5.525   0.670  0.0203 -1.3043  2.8922
  247MOL0     H33341   6.149   5.346   0.509  2.5153 -1.1841 -2.3088
  247MOL0     H33342   6.262   5.467   0.441 -0.8039  4.4406 -1.0868
  247MOL0     H33343   5.862   5.532   0.291  2.4178 -0.8263 -4.4548
  247MOL0     H33344   6.015   5.492   1.107 -2.3531  0.8941  2.9039
  247MOL0     H33345   5.993   5.585   1.327 -1.2688  0.9280 -1.1317
  248MOL0     O33346   9.406   6.234   0.792  1.0630  0.7344 -0.0723
  248MOL0     C33347   9.453   6.339   0.829 -0.1663  0.4966  0.5012
  248MOL0     O33348   9.389   6.458   0.815  0.2706 -0.1659 -0.2427
  248MOL0     C33349   9.266   6.448   0.762  0.3571 -0.4067  0.3288
  248MOL0     C33350   9.156   6.414   0.842 -0.9762 -0.4623 -0.1054
  248MOL0     C33351   9.028   6.427   0.796  0.0743 -0.1327 -0.0378
  248MOL0     C33352   8.999   6.452   0.665 -0.0297 -1.1092  0.6344
  248MOL0     O33353   8.875   6.461   0.614  0.6698  0.6834  0.4186
  248MOL0     C33354   8.768   6.399   0.681 -0.4188 -0.9866 -0.2355
  248MOL0     C33355   8.676   6.381   0.560  0.5002 -1.0954 -0.4670
  248MOL0     C33356   8.550   6.304   0.588 -0.6063  0.5172 -1.3587
  248MOL0     C33357   8.568   6.155   0.638  0.1590  0.0789 -0.3908
  248MOL0     C33358   8.427   6.084   0.638 -0.8710  0.1918 -0.3053
  248MOL0     C33359   8.434   5.947   0.709 -0.5276  0.2257  0.5084
  248MOL0     C33360   8.298   5.882   0.727 -0.5344 -0.6829 -0.1029
  248MOL0     C33361   8.321   5.751   0.815  0.4546  0.6857  0.7113
  248MOL0     N33362   8.326   5.767   0.958  0.7397 -0.1743 -0.4715
  248MOL0     C33363   8.273   5.688   1.060 -0.2306 -0.3624  0.3199
  248MOL0     C33364   8.329   5.730   1.175 -0.3527 -0.0998  0.1584
  248MOL0     C33365   8.290   5.665   1.305 -0.6595 -0.9995 -0.7630
  248MOL0     C33366   8.164   5.732   1.365  0.2686 -0.0173  0.3603
  248MOL0     C33367   8.145   5.696   1.502 -0.3825  0.8126 -0.6798
  248MOL0     C33368   8.255   5.732   1.603  0.3302 -1.1169 -0.5921
  248MOL0     O33369   8.201   5.711   1.737  0.0140 -0.9030 -0.1991
  248MOL0     C33370   8.273   5.761   1.843 -0.2235  0.0412 -0.7451
  248MOL0     C33371   8.378   5.855   1.852  0.3678  0.5946 -0.5184
  248MOL0     C33372   8.439   5.880   1.974  0.2446 -0.2116 -0.4067
  248MOL0     C33373   8.545   5.994   1.956  0.2861  0.0956 -0.3326
  248MOL0     C33374   8.409   5.812   2.097 -0.3213 -0.3281  0.5863
  248MOL0     C33375   8.472   5.834   2.223  0.3977  0.0477 -0.1995
  248MOL0     O33376   8.385   5.809   2.334  1.0793 -0.0740 -0.6081
  248MOL0     C33377   8.434   5.854   2.447 -0.2300  0.2804 -0.0799
  248MOL0     C33378   8.513   5.766   2.519  0.3644 -0.5572 -0.2178
  248MOL0     C33379   8.576   5.819   2.629  0.3050 -0.4138  0.1022
  248MOL0     C33380   8.552   5.949   2.680 -0.6787 -0.0599  1.0269
  248MOL0     O33381   8.618   6.013   2.776 -0.0185  0.1754 -1.3246
  248MOL0     C33382   8.756   6.042   2.773  0.5182  0.0089 -0.0996
  248MOL0     C33383   8.783   6.192   2.732 -0.4707  0.1418  0.8459
  248MOL0     C33384   8.842   6.187   2.589  0.6092 -0.2255 -0.5398
  248MOL0     C33385   8.831   6.319   2.515 -0.4055 -0.6225  0.2746
  248MOL0     C33386   8.880   6.303   2.372  0.8133 -1.1345 -0.2628
  248MOL0     C33387   9.022   6.259   2.348  0.3575  0.0477 -0.1213
  248MOL0     C33388   9.120   6.379   2.373  0.7024  0.5341 -0.3573
  248MOL0     C33389   9.261   6.328   2.347 -0.5473 -0.0110  0.7536
  248MOL0    Cl33390   9.305   6.242   2.198  0.1041  0.8197  0.0986
  248MOL0     C33391   8.464   6.026   2.603  1.0430 -0.2102  0.1283
  248MOL0     C33392   8.412   5.986   2.482 -0.4152 -0.4501 -0.8369
  248MOL0     O33393   8.596   5.851   2.226  0.6012 -0.1273 -0.1498
  248MOL0     C33394   8.300   5.728   2.088 -0.1858  0.9920  0.8374
  248MOL0     C33395   8.228   5.712   1.970 -0.2901 -0.0485  1.2843
  248MOL0     N33396   8.415   5.839   1.144 -0.4241 -0.7246  0.3269
  248MOL0     N33397   8.401   5.861   1.018  0.4905  0.3406 -0.0107
  248MOL0     C33398   9.106   6.482   0.581  0.6505 -0.3479  0.1204
  248MOL0     C33399   9.241   6.494   0.630  0.4949 -0.0060 -0.2273
  248MOL0     C33400   9.583   6.353   0.880 -0.0195 -0.5392  0.1867
  248MOL0     C33401   9.610   6.471   0.950 -0.0555 -0.3201  0.1911
  248MOL0     C33402   9.737   6.495   0.999  0.7726 -0.8685  0.1905
  248MOL0     C33403   9.839   6.399   0.998 -0.2966 -1.0163 -0.2366
  248MOL0     O33404   9.969   6.438   1.037  0.7696 -0.0477  0.2106
  248MOL0     C33405   9.987   6.451   1.183 -0.8903  1.1952  0.3216
  248MOL0     C33406  10.084   6.555   1.235  0.5193 -0.2950  0.1045
  248MOL0     C33407  10.231   6.544   1.178  0.1919 -0.1277 -0.9963
  248MOL0     C33408  10.322   6.663   1.239  0.9008  0.3658 -0.2000
  248MOL0     C33409  10.343   6.633   1.379 -0.1455  0.0451 -0.6723
  248MOL0     C33410  10.353   6.627   1.503 -0.3515  0.3100 -0.5320
  248MOL0     C33411   9.816   6.277   0.929 -0.3923 -0.3262  0.6095
  248MOL0     C33412   9.691   6.256   0.867  0.0537 -0.4429 -0.5486
  248MOL0     H33413   9.177   6.416   0.948 -0.6740 -1.5028 -0.1421
  248MOL0     H33414   8.954   6.420   0.874 -0.3867 -0.9322 -0.5409
  248MOL0     H33415   8.786   6.299   0.720 -5.2894 -1.2606  2.0125
  248MOL0     H33416   8.737   6.463   0.764  3.0490  0.3953  0.1844
  248MOL0     H33417   8.649   6.479   0.518  2.3935  0.0749  0.8688
  248MOL0     H33418   8.727   6.322   0.484 -2.6022 -1.5110 -2.3851
  248MOL0     H33419   8.488   6.356   0.661  1.9724 -1.1040  2.3138
  248MOL0     H33420   8.500   6.302   0.491 -0.2396  0.0014 -1.5491
  248MOL0     H33421   8.633   6.097   0.571  0.1102  2.4584 -2.6601
  248MOL0     H33422   8.602   6.156   0.742  0.5770  1.7349 -0.5131
  248MOL0     H33423   8.351   6.147   0.686  0.5364  1.7480 -0.0311
  248MOL0     H33424   8.412   6.070   0.531  0.1156 -0.8426 -0.3273
  248MOL0     H33425   8.493   5.876   0.650 -0.7972  1.0486 -0.7924
  248MOL0     H33426   8.492   5.973   0.798  0.7561 -2.7116  0.6442
  248MOL0     H33427   8.236   5.952   0.785 -0.9870 -0.3686 -0.9499
  248MOL0     H33428   8.251   5.860   0.631  1.8946 -0.0860 -1.5031
  248MOL0     H33429   8.413   5.694   0.800 -0.6518 -0.6564 -1.3679
  248MOL0     H33430   8.240   5.682   0.791 -0.8948  2.7185 -0.9180
  248MOL0     H33431   8.213   5.603   1.029  0.0687 -0.3409 -0.3402
  248MOL0     H33432   8.266   5.559   1.293  0.9489 -1.6881  1.4425
  248MOL0     H33433   8.375   5.669   1.374  0.1790 -0.1602 -1.7959
  248MOL0     H33434   8.082   5.694   1.302 -0.8481 -0.4838  2.0437
  248MOL0     H33435   8.165   5.840   1.349 -0.7633 -0.1822 -1.1094
  248MOL0     H33436   8.132   5.589   1.519  1.7983  0.2927 -1.9727
  248MOL0     H33437   8.057   5.748   1.542  1.2479  1.5460  2.2681
  248MOL0     H33438   8.282   5.838   1.591  0.7738 -1.2295 -0.6194
  248MOL0     H33439   8.349   5.679   1.586  0.5266 -0.7177 -0.7785
  248MOL0     H33440   8.429   5.890   1.763 -0.1344  2.7505 -0.0165
  248MOL0     H33441   8.629   5.959   1.895  1.7688  4.9961 -1.5932
  248MOL0     H33442   8.495   6.078   1.907 -1.7993 -0.5859  0.5198
  248MOL0     H33443   8.579   6.045   2.047 -0.0787 -0.1085 -0.0804
  248MOL0     H33444   8.533   5.664   2.488 -0.1523 -0.1357 -2.0810
  248MOL0     H33445   8.653   5.763   2.682  1.2951  2.0239  1.4355
  248MOL0     H33446   8.790   6.036   2.877  0.9500  4.8148  0.2644
  248MOL0     H33447   8.810   5.962   2.720 -3.6782 -3.2517  0.0139
  248MOL0     H33448   8.694   6.255   2.744  0.6490  1.5093  2.4217
  248MOL0     H33449   8.864   6.227   2.797 -0.3609  1.8610 -0.1619
  248MOL0     H33450   8.783   6.116   2.530 -1.3869 -0.2344  1.3232
  248MOL0     H33451   8.944   6.148   2.591  0.6155 -0.2016  0.8276
  248MOL0     H33452   8.724   6.339   2.515 -0.7479 -2.1521  1.7902
  248MOL0     H33453   8.889   6.397   2.565 -0.7161  1.4806 -2.4322
  248MOL0     H33454   8.865   6.402   2.328 -1.2369 -0.2370  2.1960
  248MOL0     H33455   8.813   6.235   2.319  0.3047 -0.0805 -1.0075
  248MOL0     H33456   9.048   6.179   2.418 -1.2666  1.5671  2.3904
  248MOL0     H33457   9.015   6.231   2.243 -3.2470  0.0220  0.0306
  248MOL0     H33458   9.107   6.399   2.480 -1.0887 -1.5462 -0.1119
  248MOL0     H33459   9.100   6.463   2.307 -0.4272 -0.0612 -0.8098
  248MOL0     H33460   9.279   6.258   2.430 -1.5908  1.0935  1.9588
  248MOL0     H33461   9.327   6.413   2.367 -0.9460 -0.2648  3.7406
  248MOL0     H33462   8.453   6.132   2.620  0.6515 -0.2428  0.0825
  248MOL0     H33463   8.365   6.051   2.409  0.9096  1.4650 -0.0553
  248MOL0     H33464   8.273   5.676   2.179  2.1920  1.7051  2.0227
  248MOL0     H33465   8.148   5.640   1.980  0.5883 -1.2451  0.0529
  248MOL0     H33466   9.084   6.488   0.475 -0.0097 -1.6475  0.1691
  248MOL0     H33467   9.317   6.535   0.563 -0.5391  0.3619 -1.2130
  248MOL0     H33468   9.535   6.547   0.969  0.5917  0.1644  0.8677
  248MOL0     H33469   9.747   6.591   1.047 -1.1613  1.5570 -3.6782
  248MOL0     H33470   9.887   6.469   1.225 -1.1007  0.9425 -0.0660
  248MOL0     H33471  10.032   6.362   1.228 -4.0847 -1.0117 -0.4721
  248MOL0     H33472  10.087   6.541   1.343 -2.2539 -0.4534  0.2348
  248MOL0     H33473  10.045   6.655   1.212 -0.4740 -1.1559 -2.3030
  248MOL0     H33474  10.221   6.549   1.069 -0.2208  1.9200 -0.9007
  248MOL0     H33475  10.274   6.449   1.210  1.6770  1.0987  0.8129
  248MOL0     H33476  10.269   6.756   1.222  0.9079  0.0084 -2.5100
  248MOL0     H33477  10.420   6.676   1.191  1.1767 -0.6659  0.0348
  248MOL0     H33478  10.358   6.623   1.610  0.2025  1.3598 -0.5004
  248MOL0     H33479   9.898   6.209   0.910  0.5450  1.2053 -1.0857
  248MOL0     H33480   9.687   6.163   0.811 -0.5398  1.3966 -3.8869
  249MOL0     O33481   7.176   7.126   0.255  0.6366 -0.7934  0.5726
  249MOL0     C33482   7.291   7.117   0.232 -0.1632 -0.2627 -0.1329
  249MOL0     O33483   7.344   7.011   0.168  0.8002 -0.8647 -0.1148
  249MOL0     C33484   7.264   6.899   0.133  0.0156  0.5076  0.4304
  249MOL0     C33485   7.271   6.788   0.215  0.1908 -0.3182  0.3910
  249MOL0     C33486   7.177   6.680   0.195 -0.1702 -1.0926  0.0463
  249MOL0     C33487   7.097   6.688   0.073  0.1750  0.7321  0.5337
  249MOL0     O33488   7.019   6.581   0.034 -0.6148 -0.2089  0.4091
  249MOL0     C33489   7.010   6.465   0.129  0.0373  0.4171  0.1510
  249MOL0     C33490   6.933   6.362   0.053  0.3658 -0.0288 -0.3877
  249MOL0     C33491   6.790   6.401   0.022  0.4353  0.5114 -0.9571
  249MOL0     C33492   6.716   6.297  -0.074 -0.1883  0.3375  0.2837
  249MOL0     C33493   6.594   6.359  -0.132  0.6604  0.2969 -1.1394
  249MOL0     C33494   6.484   6.393  -0.031 -0.6438  1.0548  0.2095
  249MOL0     C33495   6.500   6.537   0.020 -0.5603 -0.2287 -0.1220
  249MOL0     C33496   6.493   6.543   0.176 -1.1366  0.9794 -0.1956
  249MOL0     N33497   6.557   6.659   0.234 -0.4792  1.0629 -0.0188
  249MOL0     C33498   6.686   6.697   0.205 -0.3334  0.0027 -0.5705
  249MOL0     C33499   6.692   6.826   0.249  0.5573  0.4009  0.4166
  249MOL0     C33500   6.814   6.910   0.255  0.0165 -0.9221  0.6506
  249MOL0     C33501   6.919   6.844   0.344 -0.3701  0.1946 -1.1779
  249MOL0     C33502   6.891   6.872   0.496 -0.2543 -0.4491 -0.7270
  249MOL0     C33503   6.883   7.019   0.533 -0.0528  0.0741 -0.7928
  249MOL0     O33504   6.863   7.024   0.672  0.2833 -0.0914 -1.0972
  249MOL0     C33505   6.866   7.151   0.725  0.0448  0.8391  0.6308
  249MOL0     C33506   6.880   7.147   0.864 -0.2902 -0.0168  0.1540
  249MOL0     C33507   6.876   7.264   0.935 -0.3511 -0.3424  0.3053
  249MOL0     C33508   6.903   7.254   1.084  0.2110 -0.3355 -0.3329
  249MOL0     C33509   6.848   7.383   0.866  0.1448 -0.6560  0.1931
  249MOL0     C33510   6.824   7.514   0.927  0.8663 -0.4940 -0.1445
  249MOL0     O33511   6.886   7.625   0.866 -1.0614  0.6949  0.1821
  249MOL0     C33512   6.929   7.743   0.927 -0.9298  0.1683 -0.6029
  249MOL0     C33513   6.902   7.776   1.064 -0.6122  0.5655 -0.1461
  249MOL0     C33514   6.966   7.876   1.125  0.5081  0.2097  0.2431
  249MOL0     C33515   7.066   7.948   1.053 -0.3586  0.0686  0.2938
  249MOL0     O33516   7.136   8.045   1.126  0.2156  0.4640 -0.1192
  249MOL0     C33517   7.268   8.082   1.077  0.1273 -0.0004  1.1725
  249MOL0     C33518   7.363   8.155   1.175 -0.4066  0.3611  0.3763
  249MOL0     C33519   7.415   8.064   1.288  0.2056  0.3593  0.2285
  249MOL0     C33520   7.445   8.123   1.419  0.8682  0.6727 -1.0846
  249MOL0     C33521   7.327   8.111   1.525 -0.5497 -0.4490 -0.5278
  249MOL0     C33522   7.202   8.182   1.478 -1.1472  0.2062 -1.2365
  249MOL0     C33523   7.077   8.161   1.574  0.0863  0.2576 -0.4798
  249MOL0     C33524   6.986   8.045   1.516 -0.6117 -0.3233 -0.0923
  249MOL0    Cl33525   6.904   8.109   1.362 -0.1153  0.3667 -0.1374
  249MOL0     C33526   7.091   7.917   0.916  0.3540  0.1278 -0.0675
  249MOL0     C33527   7.014   7.826   0.849 -0.6978  0.1024 -1.7066
  249MOL0     O33528   6.764   7.520   1.029  0.2092  0.8568  0.1800
  249MOL0     C33529   6.837   7.389   0.728  0.0653 -0.1661 -0.4383
  249MOL0     C33530   6.847   7.272   0.659 -0.4208 -0.3517 -0.3728
  249MOL0     N33531   6.571   6.864   0.297  0.2460  0.9117 -1.0172
  249MOL0     N33532   6.494   6.755   0.306  0.1235  0.3635  0.4941
  249MOL0     C33533   7.103   6.798  -0.014  0.0870 -0.3316  0.7834
  249MOL0     C33534   7.175   6.906   0.022 -0.4687 -1.0217 -0.0686
  249MOL0     C33535   7.376   7.226   0.287  0.0764  0.4702 -0.2157
  249MOL0     C33536   7.515   7.219   0.246  0.6856 -1.2023 -0.5866
  249MOL0     C33537   7.602   7.327   0.269  1.1498 -0.3037  0.7764
  249MOL0     C33538   7.551   7.446   0.336 -1.4590  0.6913  0.0693
  249MOL0     O33539   7.643   7.545   0.356 -0.4344  0.0650 -0.0991
  249MOL0     C33540   7.596   7.675   0.331 -0.0070 -0.1156  0.6088
  249MOL0     C33541   7.716   7.761   0.292  0.6932  0.7201 -0.1204
  249MOL0     C33542   7.669   7.900   0.241 -0.7598  0.0144  0.0932
  249MOL0     C33543   7.771   7.960   0.145 -0.5314 -0.9406 -0.3628
  249MOL0     C33544   7.742   8.102   0.111  0.3854  0.3568  0.4012
  249MOL0     C33545   7.712   8.212   0.066 -0.3058 -0.1918 -0.0066
  249MOL0     C33546   7.420   7.441   0.389 -0.2471 -0.5531  0.5152
  249MOL0     C33547   7.332   7.334   0.371 -0.7809 -0.0374  1.0985
  249MOL0     H33548   7.343   6.787   0.296  1.2364 -2.4088 -0.4921
  249MOL0     H33549   7.182   6.599   0.267  2.6251 -0.8705  0.2000
  249MOL0     H33550   7.114   6.433   0.141  1.6010  5.1056  1.2146
  249MOL0     H33551   6.952   6.486   0.220 -1.5032 -3.9880  0.3990
  249MOL0     H33552   6.998   6.345  -0.034  1.9592  2.1464  0.2892
  249MOL0     H33553   6.930   6.278   0.122  2.2217  0.4174  0.2938
  249MOL0     H33554   6.735   6.409   0.116 -1.2214  1.0969 -1.9471
  249MOL0     H33555   6.799   6.500  -0.024  4.0622 -0.1623 -2.0167
  249MOL0     H33556   6.775   6.274  -0.163 -2.3789  3.5720 -2.2658
  249MOL0     H33557   6.690   6.202  -0.027  1.1230 -1.0314 -1.6119
  249MOL0     H33558   6.616   6.447  -0.193 -0.3444  1.7301  0.4787
  249MOL0     H33559   6.564   6.274  -0.193  1.9135 -2.4991  1.8021
  249MOL0     H33560   6.388   6.373  -0.080  0.4431 -1.7105 -0.9796
  249MOL0     H33561   6.487   6.337   0.063  2.5588  4.6514  2.5431
  249MOL0     H33562   6.586   6.592  -0.018 -0.5717 -0.8972 -1.1424
  249MOL0     H33563   6.409   6.587  -0.012 -0.7603 -0.9277 -0.6545
  249MOL0     H33564   6.555   6.463   0.219 -1.8386 -0.1129 -1.1618
  249MOL0     H33565   6.393   6.547   0.219 -0.6622  1.8757  0.8784
  249MOL0     H33566   6.762   6.634   0.159 -1.1547 -0.8824 -0.7426
  249MOL0     H33567   6.856   6.907   0.154 -0.8646  0.0109  0.2464
  249MOL0     H33568   6.787   7.013   0.278 -0.0722 -0.8908  0.4073
  249MOL0     H33569   7.022   6.876   0.324 -0.6563  0.9601 -1.4836
  249MOL0     H33570   6.918   6.737   0.321 -0.8827  0.3344 -1.8202
  249MOL0     H33571   6.968   6.814   0.548 -0.9632 -1.4085 -0.7196
  249MOL0     H33572   6.803   6.817   0.531 -0.3474  0.0559 -0.1536
  249MOL0     H33573   6.802   7.062   0.474 -2.1946 -0.4166  1.6480
  249MOL0     H33574   6.974   7.077   0.515  0.6422  0.0799  2.2306
  249MOL0     H33575   6.880   7.051   0.915 -1.1734  0.1164  0.4214
  249MOL0     H33576   6.997   7.198   1.093  0.1158 -0.5116 -0.4382
  249MOL0     H33577   6.909   7.350   1.136 -1.5306 -0.2279 -0.2960
  249MOL0     H33578   6.822   7.204   1.137 -2.5513  2.5343 -1.5122
  249MOL0     H33579   6.819   7.723   1.110 -1.4446 -0.2372 -2.4576
  249MOL0     H33580   6.954   7.893   1.231  0.8579  1.7195  0.0587
  249MOL0     H33581   7.325   7.995   1.042 -0.8293  0.0347 -0.5557
  249MOL0     H33582   7.251   8.141   0.987 -1.9432 -0.7053  1.0478
  249MOL0     H33583   7.452   8.188   1.121  0.0328  1.0400  1.4678
  249MOL0     H33584   7.311   8.239   1.222  1.0251  1.3963  0.1750
  249MOL0     H33585   7.511   8.023   1.255  0.1009  1.6709 -1.9107
  249MOL0     H33586   7.351   7.977   1.303  0.5436 -0.1002 -0.8741
  249MOL0     H33587   7.531   8.071   1.462  1.3932  0.8599 -1.8816
  249MOL0     H33588   7.479   8.227   1.412 -0.0443  0.9362 -1.7964
  249MOL0     H33589   7.348   8.156   1.622 -0.6458 -0.7055 -0.3857
  249MOL0     H33590   7.308   8.004   1.542  1.8104 -1.2699 -2.4049
  249MOL0     H33591   7.223   8.289   1.470  0.8706 -0.1992 -2.0912
  249MOL0     H33592   7.189   8.146   1.375  0.5664 -1.5902 -0.8871
  249MOL0     H33593   7.023   8.255   1.572 -1.8031 -0.7995 -0.9161
  249MOL0     H33594   7.116   8.132   1.672  1.8126  1.5193 -0.7424
  249MOL0     H33595   6.917   8.001   1.588 -0.9493 -0.9784 -0.7992
  249MOL0     H33596   7.049   7.961   1.487 -0.0190  0.8486 -2.4199
  249MOL0     H33597   7.154   7.973   0.848 -0.0655 -2.2723 -2.6294
  249MOL0     H33598   7.032   7.811   0.743 -1.3263 -0.2708 -1.7652
  249MOL0     H33599   6.814   7.484   0.681 -1.4034  0.0467  0.6505
  249MOL0     H33600   6.830   7.274   0.552 -2.5683 -3.1610 -0.2210
  249MOL0     H33601   7.044   6.814  -0.103  0.6313  0.8985  0.6336
  249MOL0     H33602   7.153   6.995  -0.037 -3.2420 -3.7365 -3.5556
  249MOL0     H33603   7.541   7.138   0.178 -0.2253 -0.1061 -2.3144
  249MOL0     H33604   7.700   7.312   0.227  0.0997  0.6466 -2.2548
  249MOL0     H33605   7.519   7.674   0.253  1.5110  0.0933 -0.9513
  249MOL0     H33606   7.548   7.718   0.419  2.0551 -0.2562  1.8720
  249MOL0     H33607   7.773   7.717   0.210  2.9009  2.3312  0.4683
  249MOL0     H33608   7.778   7.778   0.380 -2.9889 -0.3285  2.9737
  249MOL0     H33609   7.683   7.964   0.328  2.3237 -0.2557 -0.0593
  249MOL0     H33610   7.566   7.905   0.205 -1.4504  0.1259  1.9566
  249MOL0     H33611   7.778   7.906   0.050 -0.0869 -0.9365 -0.3330
  249MOL0     H33612   7.875   7.951   0.175  0.5190 -0.8169 -3.5317
  249MOL0     H33613   7.674   8.310   0.046  1.1848  0.7256  1.4065
  249MOL0     H33614   7.391   7.529   0.446  0.4463  0.2814 -0.3815
  249MOL0     H33615   7.233   7.339   0.415  0.8795  0.0877  5.2126
  250MOL0     O33616   1.782  10.768   0.408 -0.2727 -0.9298  0.4405
  250MOL0     C33617   1.813  10.877   0.460 -0.0504  0.4521 -0.3305
  250MOL0     O33618   1.938  10.932   0.472 -0.2769  0.2145 -0.8759
  250MOL0     C33619   2.039  10.858   0.425  0.6743  0.6583 -0.0985
  250MOL0     C33620   2.121  10.790   0.518 -0.4393 -0.1685  0.0135
  250MOL0     C33621   2.235  10.717   0.462  0.2438  0.2301 -0.3634
  250MOL0     C33622   2.254  10.701   0.322  0.6444 -0.0443 -0.4268
  250MOL0     O33623   2.351  10.631   0.260  0.2042 -0.4844  0.1053
  250MOL0     C33624   2.491  10.644   0.310 -0.3450 -0.7258 -0.5004
  250MOL0     C33625   2.577  10.564   0.208 -0.0764  0.0895  0.9375
  250MOL0     C33626   2.609  10.633   0.069 -0.4322  0.3347 -0.2530
  250MOL0     C33627   2.707  10.543  -0.010 -0.5043  0.8765  0.1391
  250MOL0     C33628   2.711  10.555  -0.163 -0.8036 -0.1989  0.3020
  250MOL0     C33629   2.725  10.698  -0.217 -0.4207  0.0547  0.0757
  250MOL0     C33630   2.755  10.717  -0.371  0.5342 -0.3531  0.0470
  250MOL0     C33631   2.642  10.675  -0.456  0.6491  0.3145  0.7335
  250MOL0     N33632   2.539  10.779  -0.483 -0.4025 -0.5803 -0.6625
  250MOL0     C33633   2.554  10.908  -0.518 -0.3894 -0.0335 -0.3288
  250MOL0     C33634   2.428  10.966  -0.517  0.0508 -0.1195  0.6687
  250MOL0     C33635   2.393  11.112  -0.547 -0.5718  0.7535 -0.2756
  250MOL0     C33636   2.494  11.208  -0.493  0.0779  0.5810 -0.5036
  250MOL0     C33637   2.487  11.213  -0.339 -0.0218 -0.3714 -0.0345
  250MOL0     C33638   2.572  11.332  -0.287 -0.5260 -1.1028 -0.3825
  250MOL0     O33639   2.702  11.280  -0.310 -0.6450 -0.2720  0.0342
  250MOL0     C33640   2.796  11.374  -0.283 -0.0003 -0.6844  0.3758
  250MOL0     C33641   2.901  11.350  -0.190 -0.0632  0.3031 -0.1052
  250MOL0     C33642   3.001  11.444  -0.166  0.3992  0.7556 -0.1986
  250MOL0     C33643   3.111  11.393  -0.080 -0.0736 -0.4603 -0.1664
  250MOL0     C33644   2.995  11.566  -0.232  1.2728  0.0479 -0.1381
  250MOL0     C33645   3.106  11.661  -0.236 -0.0427 -0.0973 -0.0453
  250MOL0     O33646   3.121  11.730  -0.354  1.2787 -0.9828  0.0149
  250MOL0     C33647   3.209  11.835  -0.345 -0.6910  0.7270 -1.0588
  250MOL0     C33648   3.170  11.961  -0.306 -0.0299 -0.4804 -0.0007
  250MOL0     C33649   3.262  12.069  -0.295  0.2910  0.0862  0.2967
  250MOL0     C33650   3.400  12.042  -0.317  0.3978 -0.0084 -0.1349
  250MOL0     O33651   3.504  12.128  -0.311 -0.5509  0.5714  0.3876
  250MOL0     C33652   3.469  12.257  -0.271 -0.6523 -0.4508 -0.5902
  250MOL0     C33653   3.574  12.362  -0.275  0.2275 -0.5454  0.4387
  250MOL0     C33654   3.705  12.339  -0.198 -0.1425 -0.7497  1.6954
  250MOL0     C33655   3.789  12.471  -0.223  0.6161 -0.6457 -0.8870
  250MOL0     C33656   3.940  12.439  -0.200  0.4714  0.3312 -0.9144
  250MOL0     C33657   3.976  12.383  -0.058  0.5070  0.6034  0.1266
  250MOL0     C33658   4.133  12.375  -0.056 -0.2111 -0.4936 -0.4595
  250MOL0     C33659   4.181  12.289   0.067  0.7958 -0.3125 -0.1768
  250MOL0    Cl33660   4.162  12.390   0.208 -0.4056 -0.1268 -0.5209
  250MOL0     C33661   3.437  11.912  -0.355 -0.1619  0.0518  0.2690
  250MOL0     C33662   3.347  11.807  -0.366 -0.8954  0.4429  0.0569
  250MOL0     O33663   3.167  11.689  -0.131  0.0986  0.5100  0.4023
  250MOL0     C33664   2.896  11.595  -0.322  0.1198  0.0833  0.5825
  250MOL0     C33665   2.799  11.497  -0.347  0.2157  0.2986  0.3850
  250MOL0     N33666   2.339  10.864  -0.488 -0.6456 -0.3948 -0.1479
  250MOL0     N33667   2.407  10.756  -0.468  0.3330  0.3051 -1.2064
  250MOL0     C33668   2.148  10.751   0.244 -0.3329  0.2363 -0.0566
  250MOL0     C33669   2.056  10.847   0.288  0.4464  0.1221  0.0175
  250MOL0     C33670   1.713  10.953   0.530 -0.8332  0.7997  0.1285
  250MOL0     C33671   1.578  10.927   0.501  0.0987  0.3527 -0.2548
  250MOL0     C33672   1.475  10.974   0.575  0.5844 -0.5957 -0.6968
  250MOL0     C33673   1.499  11.052   0.685 -0.5708 -0.4469  0.0180
  250MOL0     O33674   1.412  11.128   0.760  0.7577  0.2083  0.7739
  250MOL0     C33675   1.270  11.151   0.734  0.4717  0.5575 -0.0833
  250MOL0     C33676   1.228  11.281   0.652  0.2275 -0.4546 -0.7305
  250MOL0     C33677   1.080  11.315   0.689  0.5030  0.4509  1.0120
  250MOL0     C33678   1.022  11.437   0.628 -0.2660 -0.2180  0.3242
  250MOL0     C33679   0.996  11.419   0.484 -0.2599 -0.4846  0.1394
  250MOL0     C33680   0.943  11.414   0.377  1.0847  0.8820  0.4614
  250MOL0     C33681   1.632  11.067   0.714 -0.3227 -0.7064  0.1283
  250MOL0     C33682   1.742  11.030   0.630  0.2324 -0.3010 -0.1836
  250MOL0     H33683   2.110  10.790   0.626  2.2242  2.1072  0.3924
  250MOL0     H33684   2.310  10.668   0.523  0.5565  2.4761  1.1542
  250MOL0     H33685   2.529  10.746   0.315  0.0745 -0.9378  2.0202
  250MOL0     H33686   2.494  10.598   0.409 -3.0666  0.4340  0.2194
  250MOL0     H33687   2.670  10.543   0.261 -0.3019 -0.0778  1.2651
  250MOL0     H33688   2.528  10.473   0.173 -0.3833  0.5377  0.1608
  250MOL0     H33689   2.521  10.651   0.007 -0.5610 -1.4625 -0.6446
  250MOL0     H33690   2.646  10.733   0.094 -0.8430 -0.0999  2.4998
  250MOL0     H33691   2.808  10.568   0.027  0.6003 -0.8346 -1.5340
  250MOL0     H33692   2.685  10.437   0.002 -1.0479  0.8633 -0.8642
  250MOL0     H33693   2.784  10.490  -0.210 -0.6070  0.7388 -0.7278
  250MOL0     H33694   2.614  10.524  -0.203 -0.2675  2.0221 -3.1858
  250MOL0     H33695   2.631  10.751  -0.198 -2.8816 -1.2784 -5.8878
  250MOL0     H33696   2.806  10.736  -0.154  0.0332 -0.4615 -0.1862
  250MOL0     H33697   2.781  10.821  -0.391 -1.7275  0.3801  0.6599
  250MOL0     H33698   2.847  10.662  -0.394  1.2412  1.6679 -2.3583
  250MOL0     H33699   2.585  10.587  -0.426  0.4835 -0.0178 -0.5076
  250MOL0     H33700   2.693  10.654  -0.550 -0.1668  2.8565 -0.3905
  250MOL0     H33701   2.655  10.948  -0.529 -0.6539  0.6448 -0.2911
  250MOL0     H33702   2.394  11.127  -0.655  2.0797  0.0272 -0.4239
  250MOL0     H33703   2.295  11.140  -0.507 -1.4078 -2.1087 -0.0547
  250MOL0     H33704   2.467  11.307  -0.530 -0.9908  0.4307 -0.1434
  250MOL0     H33705   2.591  11.174  -0.530 -1.0462  0.2758 -3.3881
  250MOL0     H33706   2.517  11.116  -0.298 -0.2634 -0.4897 -0.1358
  250MOL0     H33707   2.386  11.232  -0.300 -0.0112  1.0453 -0.6272
  250MOL0     H33708   2.559  11.357  -0.181  1.7003 -0.8207 -0.1219
  250MOL0     H33709   2.555  11.413  -0.358 -0.4113 -0.5575  0.2097
  250MOL0     H33710   2.906  11.255  -0.138  3.4040  0.8515  0.7701
  250MOL0     H33711   3.208  11.441  -0.092  0.1821 -1.4347 -2.3260
  250MOL0     H33712   3.083  11.399   0.026 -2.2598 -2.5669 -0.5499
  250MOL0     H33713   3.124  11.288  -0.105  3.0061  0.6051 -4.0713
  250MOL0     H33714   3.063  11.972  -0.288 -0.3935 -0.1602 -2.0790
  250MOL0     H33715   3.227  12.168  -0.268 -0.2370 -0.3244  1.1558
  250MOL0     H33716   3.385  12.303  -0.324  0.8022  0.6183 -2.0613
  250MOL0     H33717   3.430  12.257  -0.168  0.6181 -1.9893 -0.0718
  250MOL0     H33718   3.590  12.381  -0.382  2.0374  1.5529  1.0196
  250MOL0     H33719   3.531  12.456  -0.238  2.2276  1.6107 -2.2889
  250MOL0     H33720   3.757  12.255  -0.244 -2.1289 -0.0212 -2.4336
  250MOL0     H33721   3.695  12.327  -0.090 -1.0883 -1.8139  1.5106
  250MOL0     H33722   3.772  12.501  -0.327 -0.6272  0.1676 -0.4737
  250MOL0     H33723   3.748  12.545  -0.153  1.1835 -1.9783  0.9232
  250MOL0     H33724   3.991  12.536  -0.196 -2.4805  1.9922 -1.3044
  250MOL0     H33725   3.983  12.374  -0.277  3.9291 -2.5286  2.9774
  250MOL0     H33726   3.943  12.447   0.024 -0.3743  1.9444 -1.2224
  250MOL0     H33727   3.918  12.291  -0.047 -0.1695  0.6221 -2.5835
  250MOL0     H33728   4.174  12.475  -0.044 -1.5351  0.0159 -0.0060
  250MOL0     H33729   4.186  12.344  -0.147  2.8949  0.3972  0.8911
  250MOL0     H33730   4.282  12.247   0.068  0.7761 -0.3451  0.3426
  250MOL0     H33731   4.111  12.205   0.073 -1.2159  1.2239 -1.0374
  250MOL0     H33732   3.541  11.884  -0.371  0.1496  1.5362 -0.5029
  250MOL0     H33733   3.389  11.708  -0.383 -0.6429  0.3366  1.2023
  250MOL0     H33734   2.890  11.691  -0.373 -3.3974 -1.3208 -1.9828
  250MOL0     H33735   2.717  11.509  -0.417 -0.9638  1.6380  1.9082
  250MOL0     H33736   2.147  10.731   0.138  0.7613  0.3625 -0.1074
  250MOL0     H33737   1.987  10.911   0.233  0.7937  0.7300  0.2808
  250MOL0     H33738   1.551  10.858   0.422  1.1251 -0.0976 -0.2350
  250MOL0     H33739   1.372  10.965   0.543  0.6745 -0.1390 -1.1355
  250MOL0     H33740   1.234  11.066   0.676  0.2902 -0.9304  2.1048
  250MOL0     H33741   1.219  11.146   0.830  1.5464  1.0957  0.5383
  250MOL0     H33742   1.249  11.263   0.546  1.4675  0.7610 -0.7125
  250MOL0     H33743   1.289  11.368   0.678 -0.5913  0.2705 -1.1529
  250MOL0     H33744   1.085  11.319   0.799  2.0794 -0.9181  1.0248
  250MOL0     H33745   1.011  11.232   0.670  1.9156 -0.7333  0.8273
  250MOL0     H33746   1.090  11.521   0.648 -1.4723  0.7931  0.2585
  250MOL0     H33747   0.921  11.450   0.667 -1.7429 -1.4894 -2.6935
  250MOL0     H33748   0.877  11.425   0.294  2.4431 -3.5490 -1.5593
  250MOL0     H33749   1.647  11.133   0.799 -1.5148  1.7509 -1.4572
  250MOL0     H33750   1.846  11.051   0.654 -0.2169 -0.3811  2.0329
  251MOL0     O33751  10.343   7.088   6.672  1.3830 -0.8708 -0.6804
  251MOL0     C33752  10.410   7.168   6.741 -0.6145  0.1970  0.2881
  251MOL0     O33753  10.365   7.258   6.827  0.1102  0.0871 -0.0862
  251MOL0     C33754  10.233   7.287   6.844 -0.2096  0.1686  0.1831
  251MOL0     C33755  10.151   7.191   6.901  0.2650 -0.9171  0.4722
  251MOL0     C33756  10.014   7.211   6.925 -0.6689 -0.7243  0.2896
  251MOL0     C33757   9.959   7.329   6.862  0.5379  0.0637 -0.4592
  251MOL0     O33758   9.824   7.346   6.850  0.0351  0.0491 -0.1323
  251MOL0     C33759   9.745   7.337   6.972 -0.3214 -1.0559 -0.1602
  251MOL0     C33760   9.609   7.389   6.944 -0.0254 -0.4755  0.2998
  251MOL0     C33761   9.608   7.530   6.896  0.0927  0.1741  0.1886
  251MOL0     C33762   9.464   7.586   6.881 -0.4013  0.2465  0.2456
  251MOL0     C33763   9.404   7.635   7.009  0.0123 -0.0396 -0.1323
  251MOL0     C33764   9.452   7.781   7.041  0.1738 -0.3274  0.1973
  251MOL0     C33765   9.384   7.880   6.952  0.1312 -0.1784  0.2544
  251MOL0     C33766   9.396   8.025   6.997  0.2814 -0.4069 -0.5659
  251MOL0     N33767   9.307   8.055   7.109  0.0664 -0.5322  0.7309
  251MOL0     C33768   9.292   8.187   7.143  0.7015  0.1841  0.2030
  251MOL0     C33769   9.174   8.184   7.215  0.1023 -0.0774 -0.0469
  251MOL0     C33770   9.128   8.325   7.254  0.3267  0.4626 -0.0889
  251MOL0     C33771   9.023   8.387   7.158  0.3376 -0.2579 -1.6180
  251MOL0     C33772   8.942   8.496   7.229  0.4024 -0.3193  0.7066
  251MOL0     C33773   9.007   8.627   7.253  0.4397 -0.2686  0.1015
  251MOL0     O33774   9.088   8.604   7.376  0.5229 -0.2609  0.0923
  251MOL0     C33775   9.148   8.711   7.428  0.4993 -0.1623  0.2466
  251MOL0     C33776   9.213   8.690   7.548 -1.1494 -0.1472 -0.1654
  251MOL0     C33777   9.280   8.787   7.615  0.1433  0.4881 -0.6216
  251MOL0     C33778   9.328   8.746   7.755 -0.8147  0.2170  0.5010
  251MOL0     C33779   9.299   8.916   7.558  0.5185 -0.2716  0.4752
  251MOL0     C33780   9.370   9.031   7.621 -0.5279 -0.9599 -0.9442
  251MOL0     O33781   9.462   9.001   7.713 -0.0902 -0.0124  0.6405
  251MOL0     C33782   9.519   9.092   7.790 -1.0721  0.9425 -0.0959
  251MOL0     C33783   9.493   9.093   7.921  0.6620  0.0936  0.4180
  251MOL0     C33784   9.555   9.189   8.007 -0.4728 -0.2998  0.1588
  251MOL0     C33785   9.655   9.277   7.950 -0.8473  0.0414 -1.4402
  251MOL0     O33786   9.729   9.361   8.033 -0.1858  0.0688  0.0118
  251MOL0     C33787   9.707   9.361   8.174 -0.5835 -0.1438  0.1062
  251MOL0     C33788   9.826   9.434   8.238 -0.8791 -0.1037  0.4496
  251MOL0     C33789   9.814   9.424   8.389  0.0419  0.1882  0.6849
  251MOL0     C33790   9.923   9.514   8.451 -0.8445  0.3642 -0.2464
  251MOL0     C33791  10.061   9.450   8.446  0.0351 -0.0563  1.1945
  251MOL0     C33792  10.184   9.523   8.505 -0.6287  0.2904  0.4744
  251MOL0     C33793  10.323   9.458   8.463  0.5894  0.2859  0.1040
  251MOL0     C33794  10.441   9.530   8.528 -0.3541  0.0647 -0.3263
  251MOL0    Cl33795  10.588   9.443   8.503 -0.1070 -0.0690 -0.2654
  251MOL0     C33796   9.697   9.261   7.822 -0.5519 -0.7171 -0.0436
  251MOL0     C33797   9.621   9.168   7.746 -0.5053  0.2338 -0.2417
  251MOL0     O33798   9.334   9.148   7.604  0.6338  0.1826  0.2591
  251MOL0     C33799   9.238   8.942   7.434  0.2185  0.3518  0.2445
  251MOL0     C33800   9.172   8.838   7.358 -0.3236 -0.3224 -0.2094
  251MOL0     N33801   9.126   8.055   7.225 -0.0057 -0.0987  0.1511
  251MOL0     N33802   9.203   7.985   7.158 -0.4229  0.0720  0.0176
  251MOL0     C33803  10.042   7.419   6.789  1.1995  0.1879 -0.2931
  251MOL0     C33804  10.180   7.398   6.780 -0.1633 -0.1738  0.6083
  251MOL0     C33805  10.555   7.156   6.745  0.1183  0.7138 -0.5346
  251MOL0     C33806  10.635   7.209   6.845 -1.1189  0.5306 -0.1492
  251MOL0     C33807  10.771   7.225   6.830  0.0935  0.0414  0.2170
  251MOL0     C33808  10.836   7.195   6.708 -0.5084  1.0720 -0.0834
  251MOL0     O33809  10.968   7.208   6.703 -0.1995  0.2572 -0.7068
  251MOL0     C33810  11.054   7.165   6.811  0.1528 -0.4745  0.6960
  251MOL0     C33811  11.106   7.281   6.893  0.1540 -1.0434  0.7068
  251MOL0     C33812  11.189   7.222   7.014  0.3438 -0.0793 -0.0038
  251MOL0     C33813  11.129   7.192   7.147 -0.7643  1.4361  0.8110
  251MOL0     C33814  11.015   7.275   7.171  0.6394 -0.2983 -0.4716
  251MOL0     C33815  10.917   7.354   7.191 -0.2946  0.4125  0.4551
  251MOL0     C33816  10.759   7.144   6.608  0.2513 -0.4643 -0.3192
  251MOL0     C33817  10.619   7.121   6.622  0.8750 -0.0840 -1.0393
  251MOL0     H33818  10.217   7.109   6.926  1.7161  0.5244  1.5565
  251MOL0     H33819   9.948   7.141   6.974  1.7236 -0.8728  3.6813
  251MOL0     H33820   9.744   7.231   6.999 -1.4955 -0.9100  0.4218
  251MOL0     H33821   9.793   7.405   7.043 -1.7120  3.1842 -2.8968
  251MOL0     H33822   9.561   7.338   6.860  1.0244 -0.4794 -0.3062
  251MOL0     H33823   9.548   7.387   7.035 -2.3602  3.9120 -0.8743
  251MOL0     H33824   9.662   7.596   6.964  0.5219  1.2656 -1.1701
  251MOL0     H33825   9.653   7.539   6.797 -2.3637  2.5116 -0.8454
  251MOL0     H33826   9.456   7.653   6.794  0.4963  2.4036  1.7362
  251MOL0     H33827   9.398   7.505   6.849  0.3380 -0.6616  0.9785
  251MOL0     H33828   9.295   7.633   7.015  0.0569  0.4464  3.9211
  251MOL0     H33829   9.436   7.568   7.090 -0.6060 -1.1683 -0.8058
  251MOL0     H33830   9.420   7.803   7.143 -0.4743 -0.0610 -0.0609
  251MOL0     H33831   9.561   7.789   7.046  0.1998 -0.3861 -0.2356
  251MOL0     H33832   9.429   7.872   6.853 -1.0092  1.3051 -0.4087
  251MOL0     H33833   9.278   7.853   6.953 -0.9375  3.5310  1.1827
  251MOL0     H33834   9.385   8.092   6.911  0.9783 -0.6846 -0.8793
  251MOL0     H33835   9.496   8.035   7.042  0.6757  0.0813 -1.5207
  251MOL0     H33836   9.359   8.273   7.141 -2.4443  2.9013  1.5648
  251MOL0     H33837   9.077   8.305   7.348 -0.5101 -0.9062 -0.7993
  251MOL0     H33838   9.216   8.388   7.271  0.0136  1.2118 -1.1032
  251MOL0     H33839   8.955   8.308   7.124 -0.8917  1.0206 -2.2323
  251MOL0     H33840   9.067   8.432   7.068  0.3542 -0.4577 -1.7118
  251MOL0     H33841   8.904   8.445   7.317 -1.6335 -0.3989 -0.1698
  251MOL0     H33842   8.851   8.514   7.171  0.1875 -1.8793  0.5148
  251MOL0     H33843   8.932   8.705   7.273  0.8551 -0.4056  2.6095
  251MOL0     H33844   9.064   8.659   7.166 -1.0702 -1.5165 -1.4086
  251MOL0     H33845   9.206   8.591   7.591 -2.2239 -0.6942 -1.5091
  251MOL0     H33846   9.335   8.638   7.768 -3.4265  0.0716  1.3989
  251MOL0     H33847   9.432   8.774   7.770 -0.4736 -1.3233  1.1840
  251MOL0     H33848   9.265   8.783   7.837 -0.2092  0.7131  0.7479
  251MOL0     H33849   9.417   9.024   7.956 -2.3425  3.2272  0.6279
  251MOL0     H33850   9.535   9.196   8.113 -0.9068  0.8189  0.0188
  251MOL0     H33851   9.610   9.404   8.203  0.1631 -0.2895  3.2206
  251MOL0     H33852   9.706   9.260   8.214  2.3896  0.8055  3.0152
  251MOL0     H33853   9.919   9.385   8.207 -1.9915 -1.7743 -0.4371
  251MOL0     H33854   9.818   9.539   8.208 -0.8318 -0.4101 -0.6937
  251MOL0     H33855   9.827   9.323   8.429  4.6321  0.1314 -0.3469
  251MOL0     H33856   9.716   9.464   8.415 -0.9764 -1.1719 -0.8377
  251MOL0     H33857   9.920   9.609   8.397  0.0030 -0.6867 -2.2454
  251MOL0     H33858   9.890   9.535   8.553  0.4808  3.4463 -0.3397
  251MOL0     H33859  10.083   9.429   8.341 -0.0547 -0.6014  1.2811
  251MOL0     H33860  10.053   9.356   8.501 -1.9472  0.0318  1.1630
  251MOL0     H33861  10.184   9.631   8.488 -0.9010 -0.1311 -2.8714
  251MOL0     H33862  10.187   9.508   8.613  1.7002  0.2066  0.4652
  251MOL0     H33863  10.337   9.453   8.354  2.5460 -0.5412  0.3553
  251MOL0     H33864  10.323   9.354   8.498  1.1327  0.3952  0.4364
  251MOL0     H33865  10.431   9.527   8.637 -0.1727 -4.5018 -0.2386
  251MOL0     H33866  10.442   9.631   8.488  2.3037  1.1293  2.0532
  251MOL0     H33867   9.788   9.316   7.799 -1.0882  0.1042 -0.2406
  251MOL0     H33868   9.665   9.177   7.648  0.9244 -1.9483  0.1184
  251MOL0     H33869   9.246   9.031   7.374  3.9105 -0.8510 -1.3452
  251MOL0     H33870   9.135   8.862   7.259 -0.1961  2.1148  0.2682
  251MOL0     H33871   9.984   7.499   6.743 -2.7984 -1.6361  1.2237
  251MOL0     H33872  10.245   7.461   6.720  4.1157 -1.7784  3.1294
  251MOL0     H33873  10.608   7.237   6.946 -0.8391  3.5945 -0.7993
  251MOL0     H33874  10.831   7.280   6.901 -0.7238  1.6116 -0.2737
  251MOL0     H33875  10.998   7.095   6.874 -3.0268  0.9153 -0.3893
  251MOL0     H33876  11.126   7.095   6.767 -0.4838 -0.4787 -0.3685
  251MOL0     H33877  11.030   7.346   6.937  0.0348 -2.8468  3.4497
  251MOL0     H33878  11.170   7.349   6.837 -2.6329 -0.5847 -2.2705
  251MOL0     H33879  11.263   7.300   7.032 -0.7260  0.7925  0.7208
  251MOL0     H33880  11.243   7.139   6.967  1.6673  0.0419  1.2428
  251MOL0     H33881  11.206   7.209   7.223  0.3942 -0.4375  0.1251
  251MOL0     H33882  11.111   7.084   7.152  3.4844  0.4757 -0.6544
  251MOL0     H33883  10.836   7.420   7.214  0.5109  0.7492  2.6838
  251MOL0     H33884  10.807   7.092   6.525 -0.4722  1.9173 -2.3848
  251MOL0     H33885  10.572   7.085   6.531 -0.6415  0.2112 -0.4003
  252MOL0     O33886   0.805   5.418   5.542  0.2837 -0.3678 -0.2689
  252MOL0     C33887   0.803   5.290   5.555 -0.0478 -1.0841  0.1708
  252MOL0     O33888   0.691   5.209   5.533  0.2101  0.5082 -0.5309
  252MOL0     C33889   0.571   5.273   5.498  0.5576  0.0468 -0.2615
  252MOL0     C33890   0.532   5.314   5.370  0.0596 -0.0477  0.3565
  252MOL0     C33891   0.402   5.371   5.348  0.1916  0.5640 -0.8648
  252MOL0     C33892   0.317   5.392   5.455  1.2845 -0.6973  0.5332
  252MOL0     O33893   0.186   5.447   5.445  0.2317 -0.1695  0.1123
  252MOL0     C33894   0.128   5.443   5.312 -0.6068 -0.8714 -0.5945
  252MOL0     C33895  -0.018   5.459   5.298  0.4891 -1.0697  0.7608
  252MOL0     C33896  -0.059   5.410   5.154  0.1706 -0.4769  0.2421
  252MOL0     C33897  -0.213   5.430   5.151  0.1544  0.2849 -0.2897
  252MOL0     C33898  -0.288   5.340   5.048  0.3961 -0.5212 -0.0498
  252MOL0     C33899  -0.271   5.363   4.906 -0.4777  0.1382  0.2018
  252MOL0     C33900  -0.352   5.263   4.828  0.5847 -0.3494  0.7693
  252MOL0     C33901  -0.507   5.293   4.806  0.3746 -0.1783 -0.3377
  252MOL0     N33902  -0.523   5.425   4.757 -0.2749 -0.5432  0.0932
  252MOL0     C33903  -0.557   5.535   4.836 -0.0050  0.2316  0.0501
  252MOL0     C33904  -0.616   5.628   4.758  0.3796  1.1406  0.1809
  252MOL0     C33905  -0.660   5.763   4.800  0.3657 -0.0959  0.1188
  252MOL0     C33906  -0.629   5.804   4.949  0.5983  0.8994  0.8702
  252MOL0     C33907  -0.648   5.957   4.977 -0.7354 -0.2168  0.1098
  252MOL0     C33908  -0.791   5.993   4.953 -0.0999 -0.6926  0.8937
  252MOL0     O33909  -0.883   5.943   5.057  0.0830  0.4969  0.1281
  252MOL0     C33910  -0.918   6.005   5.173  0.1750  0.0274 -0.1407
  252MOL0     C33911  -0.865   6.127   5.220  0.1722 -0.4471 -0.3616
  252MOL0     C33912  -0.906   6.192   5.334  0.5148  1.2715  0.1456
  252MOL0     C33913  -0.832   6.323   5.367 -0.5295  0.1399  0.4091
  252MOL0     C33914  -1.017   6.140   5.416 -0.1599  0.0343  0.4201
  252MOL0     C33915  -1.084   6.218   5.533 -0.4377  0.6673  0.2189
  252MOL0     O33916  -1.013   6.323   5.587 -0.4697  0.1542  0.0250
  252MOL0     C33917  -1.081   6.402   5.677  0.0638 -0.4087 -0.2941
  252MOL0     C33918  -1.023   6.415   5.802  0.3350  0.0412  0.8821
  252MOL0     C33919  -1.076   6.494   5.903  0.7469 -0.2134  0.4605
  252MOL0     C33920  -1.186   6.576   5.872  0.1890  0.3633 -0.4972
  252MOL0     O33921  -1.260   6.663   5.955  0.4910 -0.0904  0.5959
  252MOL0     C33922  -1.245   6.645   6.098 -0.4602 -0.3537 -0.6047
  252MOL0     C33923  -1.353   6.728   6.177 -0.4527  0.1811 -0.2674
  252MOL0     C33924  -1.302   6.874   6.166  0.1064 -0.3104  0.2273
  252MOL0     C33925  -1.380   6.967   6.256 -0.0861  1.0208  0.2886
  252MOL0     C33926  -1.314   7.102   6.278  0.0235  0.1668 -0.7260
  252MOL0     C33927  -1.358   7.193   6.166  0.9291 -0.5934  0.5775
  252MOL0     C33928  -1.295   7.334   6.186  0.2255 -0.3404  1.1850
  252MOL0     C33929  -1.314   7.398   6.322 -0.5801  0.3848  0.6022
  252MOL0    Cl33930  -1.478   7.409   6.378  0.1053 -0.7367  0.0447
  252MOL0     C33931  -1.241   6.561   5.745  0.0663 -0.3496 -0.0431
  252MOL0     C33932  -1.189   6.486   5.645  0.2409  0.4147  0.5056
  252MOL0     O33933  -1.182   6.163   5.590  0.2074  0.3208  1.3721
  252MOL0     C33934  -1.070   6.012   5.374  0.0468  0.0195  0.5499
  252MOL0     C33935  -1.016   5.949   5.258  0.3507  0.7459 -0.2359
  252MOL0     N33936  -0.628   5.572   4.630 -1.1147 -0.6394 -0.0622
  252MOL0     N33937  -0.570   5.448   4.629  0.5155  0.4296  0.1363
  252MOL0     C33938   0.355   5.355   5.584 -0.0399 -0.0880 -0.1057
  252MOL0     C33939   0.482   5.287   5.602  0.1047  0.1995 -0.6925
  252MOL0     C33940   0.915   5.228   5.620 -0.0039  0.7018  0.4349
  252MOL0     C33941   0.921   5.091   5.626 -0.0695 -0.2071  0.2232
  252MOL0     C33942   1.033   5.027   5.685  0.7716 -0.7469  0.5662
  252MOL0     C33943   1.133   5.106   5.737 -0.4657 -0.9393 -0.9472
  252MOL0     O33944   1.231   5.051   5.817 -0.0080 -0.3056 -0.9258
  252MOL0     C33945   1.373   5.081   5.788  0.5834  0.0012  0.3473
  252MOL0     C33946   1.448   5.143   5.909  0.1182 -0.0555  0.4057
  252MOL0     C33947   1.562   5.231   5.863  0.6155  0.3873 -0.1644
  252MOL0     C33948   1.632   5.299   5.974  0.2041  0.2598 -0.2282
  252MOL0     C33949   1.745   5.372   5.911  0.4404 -0.6727  1.6250
  252MOL0     C33950   1.840   5.412   5.857 -1.1101 -0.0121  0.2964
  252MOL0     C33951   1.118   5.244   5.734  0.3747 -0.1092 -0.6792
  252MOL0     C33952   1.017   5.313   5.673 -0.5708 -0.3035  0.5927
  252MOL0     H33953   0.601   5.297   5.289 -2.0732 -1.1556 -1.3288
  252MOL0     H33954   0.379   5.393   5.244 -1.7664  0.6414 -0.4627
  252MOL0     H33955   0.176   5.525   5.258 -1.6973  0.2613  0.1233
  252MOL0     H33956   0.149   5.344   5.270  0.4671 -1.1332  0.5010
  252MOL0     H33957  -0.066   5.410   5.383 -1.5025  0.6954  0.7196
  252MOL0     H33958  -0.041   5.562   5.324 -2.1998 -1.5127  0.3878
  252MOL0     H33959  -0.008   5.469   5.077 -1.0701  1.0749  0.5710
  252MOL0     H33960  -0.037   5.303   5.151  0.5118 -0.3962 -2.4390
  252MOL0     H33961  -0.263   5.404   5.245  0.0970 -1.2409 -0.7169
  252MOL0     H33962  -0.232   5.536   5.131  1.1333  0.2141 -1.7900
  252MOL0     H33963  -0.267   5.233   5.061 -0.1244 -0.5999  0.1802
  252MOL0     H33964  -0.396   5.348   5.064 -0.2768 -1.2435 -3.5524
  252MOL0     H33965  -0.285   5.468   4.880 -1.2727 -0.1648 -0.6207
  252MOL0     H33966  -0.164   5.344   4.890 -0.7108 -1.1371  0.0874
  252MOL0     H33967  -0.323   5.270   4.723 -5.5083 -0.2546 -1.3005
  252MOL0     H33968  -0.355   5.159   4.862  2.4989 -0.5735  0.3872
  252MOL0     H33969  -0.570   5.275   4.893 -0.5068  0.5360 -0.8012
  252MOL0     H33970  -0.533   5.224   4.725 -0.8547  1.3381 -1.2944
  252MOL0     H33971  -0.557   5.547   4.944 -1.2404 -0.9430  0.2068
  252MOL0     H33972  -0.629   5.835   4.723  0.7675 -1.2438 -0.8409
  252MOL0     H33973  -0.768   5.759   4.790  0.3135  2.0738 -0.7365
  252MOL0     H33974  -0.529   5.769   4.975 -0.6284 -4.0169 -0.0057
  252MOL0     H33975  -0.695   5.746   5.014 -2.2416  1.3508 -1.4081
  252MOL0     H33976  -0.584   6.026   4.921  1.9145 -0.1040  2.9910
  252MOL0     H33977  -0.637   5.978   5.084  1.1829 -1.2626  0.1775
  252MOL0     H33978  -0.822   5.961   4.853  2.9418  1.7005 -0.9960
  252MOL0     H33979  -0.790   6.102   4.956  0.1777 -0.6708  0.2146
  252MOL0     H33980  -0.779   6.176   5.175  0.7855  0.8415  2.0211
  252MOL0     H33981  -0.896   6.412   5.357  0.8542  0.8815 -3.0779
  252MOL0     H33982  -0.797   6.314   5.470 -1.3672 -2.9621  0.5290
  252MOL0     H33983  -0.742   6.327   5.306 -1.5114  0.8156 -1.0729
  252MOL0     H33984  -0.924   6.373   5.819  1.6722  2.2771 -0.7984
  252MOL0     H33985  -1.029   6.501   6.001 -0.1829 -0.8161  0.9762
  252MOL0     H33986  -1.272   6.542   6.125 -0.1445 -0.6628 -1.4381
  252MOL0     H33987  -1.147   6.668   6.140 -0.3684 -1.7583  0.0322
  252MOL0     H33988  -1.451   6.706   6.134 -0.0277 -0.7634 -0.7933
  252MOL0     H33989  -1.349   6.694   6.281 -0.7079  0.6240 -0.1073
  252MOL0     H33990  -1.328   6.903   6.063  0.9230  2.3638  0.6853
  252MOL0     H33991  -1.194   6.883   6.178 -0.3199  0.9594  4.9925
  252MOL0     H33992  -1.483   6.981   6.222 -0.6028 -2.2676  0.1498
  252MOL0     H33993  -1.390   6.925   6.357  0.0492  2.3106  0.8563
  252MOL0     H33994  -1.205   7.088   6.278 -0.0455 -0.4188 -0.6946
  252MOL0     H33995  -1.337   7.132   6.381 -1.1859 -1.4631 -0.4735
  252MOL0     H33996  -1.330   7.155   6.067 -0.6999 -0.8364  0.1861
  252MOL0     H33997  -1.464   7.213   6.151  0.3148 -3.5207  0.4813
  252MOL0     H33998  -1.333   7.409   6.115  3.0527  0.6187  0.5400
  252MOL0     H33999  -1.187   7.317   6.178  0.2377 -0.5171  1.6799
  252MOL0     H34000  -1.279   7.501   6.320 -1.4178  0.6674 -1.3458
  252MOL0     H34001  -1.255   7.331   6.385 -0.5302 -2.4180 -2.2059
  252MOL0     H34002  -1.320   6.628   5.713 -0.1216  1.4357  3.5920
  252MOL0     H34003  -1.234   6.490   5.547 -2.0433 -0.5937  1.4572
  252MOL0     H34004  -1.150   5.959   5.423 -0.5903  0.9187  0.5084
  252MOL0     H34005  -1.065   5.857   5.227 -1.0137  1.0674  0.8478
  252MOL0     H34006   0.292   5.369   5.671  0.2014  0.1719  0.0332
  252MOL0     H34007   0.528   5.247   5.692  2.0030 -1.4960 -2.3013
  252MOL0     H34008   0.831   5.042   5.590  0.2253  1.0355 -2.4671
  252MOL0     H34009   1.056   4.921   5.685  1.8655 -0.5342  1.7902
  252MOL0     H34010   1.417   4.987   5.752  0.1086 -0.1818  0.2410
  252MOL0     H34011   1.374   5.151   5.704 -1.1045 -2.5413 -1.9592
  252MOL0     H34012   1.486   5.057   5.965 -0.5965 -0.2512  0.6111
  252MOL0     H34013   1.367   5.189   5.966 -2.4063 -2.1303 -1.2648
  252MOL0     H34014   1.523   5.315   5.804 -2.6848  0.0253  1.2696
  252MOL0     H34015   1.635   5.167   5.812  1.9840  1.9138 -0.2194
  252MOL0     H34016   1.655   5.219   6.045 -0.4382  0.9435  0.7791
  252MOL0     H34017   1.563   5.365   6.026 -2.0032 -0.9316 -1.4848
  252MOL0     H34018   1.924   5.453   5.805 -1.7817  0.8633 -0.1261
  252MOL0     H34019   1.192   5.302   5.788  0.3071 -3.1451  3.0000
  252MOL0     H34020   1.022   5.421   5.661  0.3780 -0.5055 -1.0830
  253MOL0     O34021   3.987   0.254   7.766 -0.2516 -0.3961 -0.4573
  253MOL0     C34022   4.042   0.266   7.654  0.6359 -0.4723 -0.9745
  253MOL0     O34023   3.982   0.279   7.533  0.9154 -0.0894  0.0608
  253MOL0     C34024   3.855   0.240   7.503  0.4697 -0.7335  0.1361
  253MOL0     C34025   3.783   0.149   7.579 -1.0931  0.7925  0.3179
  253MOL0     C34026   3.652   0.107   7.544  0.8336  0.1682  0.2042
  253MOL0     C34027   3.595   0.157   7.430  0.6818  0.0942 -0.3995
  253MOL0     O34028   3.479   0.094   7.398  0.2397 -1.2378  0.2461
  253MOL0     C34029   3.412   0.122   7.265 -0.2614  0.0989  0.2226
  253MOL0     C34030   3.266   0.156   7.288 -0.0578  1.1372  0.7403
  253MOL0     C34031   3.247   0.302   7.352  0.2806  0.2519 -0.5873
  253MOL0     C34032   3.221   0.287   7.497  0.2222  0.0537  0.3887
  253MOL0     C34033   3.155   0.414   7.550 -0.3665  0.0512 -0.1348
  253MOL0     C34034   3.109   0.383   7.698 -0.8768  0.0278  0.8140
  253MOL0     C34035   3.038   0.500   7.768  0.5600 -0.5267 -0.1598
  253MOL0     C34036   3.123   0.625   7.793  0.3918  1.6152 -0.7254
  253MOL0     N34037   3.114   0.728   7.697  0.2772  0.3510  0.4559
  253MOL0     C34038   3.002   0.774   7.636  0.1192 -0.5776  1.3199
  253MOL0     C34039   3.045   0.876   7.563  0.3141  0.2893 -0.5148
  253MOL0     C34040   2.962   0.964   7.477  0.2662 -0.1102  0.9782
  253MOL0     C34041   2.848   1.031   7.559 -0.2147  0.0505  0.3244
  253MOL0     C34042   2.836   1.178   7.533  0.7342 -0.3106 -1.1152
  253MOL0     C34043   2.706   1.253   7.562 -0.0632  0.3618  0.5775
  253MOL0     O34044   2.627   1.192   7.661 -0.1587  0.1104 -0.1881
  253MOL0     C34045   2.520   1.269   7.711  0.2755 -0.0052  0.4341
  253MOL0     C34046   2.455   1.374   7.650 -0.2118  0.1018 -0.9172
  253MOL0     C34047   2.358   1.454   7.720  0.5019 -0.5284 -0.7831
  253MOL0     C34048   2.293   1.558   7.635 -0.1176 -0.3758 -0.3043
  253MOL0     C34049   2.325   1.428   7.857 -0.0122  0.5429 -0.3074
  253MOL0     C34050   2.216   1.480   7.939 -0.4784  0.0254 -0.6671
  253MOL0     O34051   2.213   1.447   8.066 -0.7168  0.2672  0.1599
  253MOL0     C34052   2.144   1.520   8.161  0.7749  1.1251  0.0329
  253MOL0     C34053   2.213   1.539   8.283  0.0533  1.0097 -0.0191
  253MOL0     C34054   2.151   1.602   8.392 -0.4358  0.6254  0.6372
  253MOL0     C34055   2.015   1.655   8.383 -1.2911  0.3166 -0.1989
  253MOL0     O34056   1.936   1.702   8.485 -0.2241 -0.0860  0.2940
  253MOL0     C34057   1.998   1.755   8.604  0.1491  0.2168  0.0072
  253MOL0     C34058   2.024   1.649   8.717  0.2043 -0.5998 -0.1187
  253MOL0     C34059   2.100   1.716   8.830  0.5623 -0.2824  0.0369
  253MOL0     C34060   2.105   1.627   8.955  0.1426 -0.0917  0.1945
  253MOL0     C34061   2.229   1.651   9.039 -0.5019  0.7064 -0.0633
  253MOL0     C34062   2.234   1.560   9.161  0.2901 -0.4665 -0.5118
  253MOL0     C34063   2.109   1.585   9.251 -0.0558  0.2955 -0.2208
  253MOL0     C34064   2.018   1.456   9.264  0.4062  0.6651  0.2519
  253MOL0    Cl34065   1.918   1.461   9.407 -0.3439 -0.4434 -0.5798
  253MOL0     C34066   1.950   1.624   8.259 -0.4970 -0.0503  0.1273
  253MOL0     C34067   2.009   1.560   8.148 -0.1970 -1.0942 -0.0091
  253MOL0     O34068   2.141   1.557   7.885  0.7671 -0.3097 -0.0867
  253MOL0     C34069   2.396   1.326   7.919  0.2310 -0.0497  0.0901
  253MOL0     C34070   2.491   1.257   7.846  0.9718  0.8286 -0.1563
  253MOL0     N34071   3.180   0.888   7.581 -0.6282  0.7497  0.0667
  253MOL0     N34072   3.224   0.808   7.665 -0.7918 -0.3455 -0.0270
  253MOL0     C34073   3.669   0.254   7.350  0.1978  0.4649  0.5096
  253MOL0     C34074   3.796   0.290   7.387  0.0577  1.0212 -0.6606
  253MOL0     C34075   4.188   0.278   7.645  0.1877 -0.3446  0.2390
  253MOL0     C34076   4.255   0.257   7.523 -0.6400 -0.7551 -0.0689
  253MOL0     C34077   4.391   0.266   7.520  0.1165  0.6088  0.0376
  253MOL0     C34078   4.466   0.306   7.630  0.2791  0.1393 -0.7948
  253MOL0     O34079   4.598   0.309   7.631  0.3187 -0.1231 -0.6657
  253MOL0     C34080   4.682   0.218   7.551 -0.7072 -0.1064 -0.0433
  253MOL0     C34081   4.758   0.310   7.453  0.4452  0.2470 -0.0369
  253MOL0     C34082   4.809   0.224   7.339  0.2015 -0.3643  0.0035
  253MOL0     C34083   4.914   0.289   7.243  0.3823 -0.1425 -0.0433
  253MOL0     C34084   5.046   0.287   7.312 -0.0104 -0.1675 -0.3579
  253MOL0     C34085   5.158   0.286   7.363  0.0190  0.5695 -0.2243
  253MOL0     C34086   4.406   0.320   7.754 -0.1971  0.2602 -0.2041
  253MOL0     C34087   4.267   0.302   7.760  0.6209 -1.1109 -0.4209
  253MOL0     H34088   3.807   0.091   7.668  0.5990  0.0996 -0.5526
  253MOL0     H34089   3.598   0.028   7.596 -2.0790  2.4359  0.9105
  253MOL0     H34090   3.460   0.201   7.206  2.6282 -1.7268 -0.0619
  253MOL0     H34091   3.421   0.024   7.217  0.5618  0.3577 -0.1577
  253MOL0     H34092   3.209   0.136   7.197 -0.0020 -1.3731  1.1744
  253MOL0     H34093   3.214   0.087   7.355  0.5588  0.2830  0.3715
  253MOL0     H34094   3.334   0.365   7.332  0.3003  0.3521 -0.1871
  253MOL0     H34095   3.157   0.350   7.312  0.4390  0.2751 -0.9168
  253MOL0     H34096   3.158   0.199   7.514  3.6203 -2.9570 -1.1093
  253MOL0     H34097   3.316   0.282   7.551  0.0323  3.7086  1.2920
  253MOL0     H34098   3.224   0.496   7.532 -0.3969 -0.4964 -3.2061
  253MOL0     H34099   3.064   0.443   7.496 -0.3030  1.6532  0.5501
  253MOL0     H34100   3.033   0.304   7.696 -1.4355  0.2606  4.5830
  253MOL0     H34101   3.196   0.345   7.753 -0.7707 -2.5035 -0.9501
  253MOL0     H34102   2.953   0.519   7.703  0.1999  0.5967  0.6159
  253MOL0     H34103   2.993   0.467   7.862  0.2385 -0.9244 -0.4471
  253MOL0     H34104   3.228   0.593   7.799 -0.8091 -2.6159  1.4395
  253MOL0     H34105   3.103   0.664   7.893  0.7789  0.5995 -0.2396
  253MOL0     H34106   2.896   0.751   7.638  0.0754 -0.3567  2.9698
  253MOL0     H34107   3.040   1.033   7.441  1.9464 -0.8156  3.0540
  253MOL0     H34108   2.924   0.908   7.391  0.8495  0.2456  0.4735
  253MOL0     H34109   2.877   1.028   7.665  0.1857  0.6940  0.2359
  253MOL0     H34110   2.754   0.976   7.546 -0.1921  0.1071 -0.0990
  253MOL0     H34111   2.852   1.201   7.428 -2.1139 -0.9682 -1.7771
  253MOL0     H34112   2.907   1.231   7.597 -0.7164 -0.5821  0.8128
  253MOL0     H34113   2.666   1.237   7.461  0.8970  1.5322 -0.0204
  253MOL0     H34114   2.728   1.357   7.585  0.0670  0.2473  0.9728
  253MOL0     H34115   2.473   1.390   7.544 -3.8159 -1.9378 -2.0238
  253MOL0     H34116   2.330   1.556   7.532 -0.9215 -0.3728 -0.5998
  253MOL0     H34117   2.184   1.549   7.641 -0.0585 -0.7180  0.3636
  253MOL0     H34118   2.325   1.648   7.689  2.3369 -0.0498 -2.1113
  253MOL0     H34119   2.303   1.479   8.287 -1.0853 -0.8198 -0.6080
  253MOL0     H34120   2.210   1.613   8.483  3.8329  2.6219 -2.0620
  253MOL0     H34121   2.088   1.809   8.574 -0.7895  0.9302 -1.6304
  253MOL0     H34122   1.926   1.826   8.646 -1.3905 -1.1689 -0.1637
  253MOL0     H34123   1.937   1.590   8.746  1.1146 -2.4034 -0.8845
  253MOL0     H34124   2.082   1.563   8.684 -0.5502 -1.2270  0.1543
  253MOL0     H34125   2.069   1.819   8.854  3.1562  0.8364 -1.0369
  253MOL0     H34126   2.201   1.720   8.790  0.3429 -2.1161 -0.7955
  253MOL0     H34127   2.013   1.643   9.012  0.5024 -0.6822  0.9588
  253MOL0     H34128   2.101   1.519   8.935 -0.5318  0.3319 -2.3753
  253MOL0     H34129   2.249   1.754   9.069  0.7167  0.5431 -0.2553
  253MOL0     H34130   2.318   1.616   8.985 -1.1154 -2.2910  0.6979
  253MOL0     H34131   2.234   1.457   9.126 -3.8966 -0.1425 -2.0166
  253MOL0     H34132   2.324   1.589   9.217 -0.2732  6.0951 -2.1746
  253MOL0     H34133   2.048   1.670   9.218  0.5777  1.8400  2.2851
  253MOL0     H34134   2.152   1.604   9.350  0.2477  4.0638 -0.9140
  253MOL0     H34135   2.088   1.372   9.260  0.7858  0.8319  2.3136
  253MOL0     H34136   1.952   1.460   9.177 -1.9191  1.2372  1.9369
  253MOL0     H34137   1.848   1.661   8.249  0.2625  1.9889 -0.5969
  253MOL0     H34138   1.956   1.541   8.055  4.1768 -0.1595 -2.9724
  253MOL0     H34139   2.366   1.306   8.021 -2.8848 -0.1575 -0.7555
  253MOL0     H34140   2.557   1.185   7.893  2.4386  0.2111 -2.8983
  253MOL0     H34141   3.617   0.315   7.276  0.6466 -0.8348 -0.9362
  253MOL0     H34142   3.846   0.361   7.322  0.4140  0.0747 -1.4556
  253MOL0     H34143   4.206   0.223   7.432  0.5251  0.0156 -1.0306
  253MOL0     H34144   4.443   0.255   7.425 -2.6806  0.0224 -1.5347
  253MOL0     H34145   4.754   0.185   7.626  2.4910  2.4067 -1.7626
  253MOL0     H34146   4.624   0.135   7.510  0.1589  0.3585 -2.3577
  253MOL0     H34147   4.839   0.372   7.493  2.2031 -0.4286 -2.3366
  253MOL0     H34148   4.681   0.384   7.426 -2.4071 -1.7221  2.0876
  253MOL0     H34149   4.724   0.189   7.280  0.9179 -1.2077 -0.5642
  253MOL0     H34150   4.855   0.133   7.378 -2.3359 -0.6034  2.7914
  253MOL0     H34151   4.889   0.392   7.217  1.1016  0.8286  2.8244
  253MOL0     H34152   4.922   0.223   7.156 -0.0758 -2.7492  1.7804
  253MOL0     H34153   5.252   0.279   7.415  0.4531 -1.9108 -1.1738
  253MOL0     H34154   4.470   0.347   7.837 -1.8839  1.7753  0.6508
  253MOL0     H34155   4.216   0.311   7.855 -3.1390  0.4773 -2.3440
  254MOL0     O34156   3.805   7.109   2.665 -0.3314  0.5585 -0.3607
  254MOL0     C34157   3.908   7.164   2.705 -0.4918 -0.0651  0.7912
  254MOL0     O34158   3.952   7.168   2.839  0.2793  0.3488  0.7518
  254MOL0     C34159   3.874   7.097   2.936  0.1536 -0.4729  0.9136
  254MOL0     C34160   3.790   7.172   3.021  0.2940 -0.4221  0.2491
  254MOL0     C34161   3.697   7.108   3.106 -0.2710  0.8122 -0.3963
  254MOL0     C34162   3.692   6.967   3.104  0.9246  0.5438 -0.3305
  254MOL0     O34163   3.586   6.897   3.156 -0.4984 -0.3086 -0.0326
  254MOL0     C34164   3.554   6.928   3.292 -0.1363 -0.1707  1.1265
  254MOL0     C34165   3.463   6.819   3.339  0.1869 -0.1870 -0.5995
  254MOL0     C34166   3.535   6.688   3.381  0.1817 -1.0749  0.7650
  254MOL0     C34167   3.565   6.605   3.256 -0.1282 -0.6465 -0.1911
  254MOL0     C34168   3.622   6.465   3.280 -0.2278 -0.1230  0.1552
  254MOL0     C34169   3.615   6.370   3.151 -0.6334  0.2318  0.3983
  254MOL0     C34170   3.667   6.228   3.169 -0.9999  1.0243  0.1611
  254MOL0     C34171   3.633   6.154   3.300 -0.3695  0.2333  0.6315
  254MOL0     N34172   3.495   6.121   3.323 -0.6579  0.7852 -0.0235
  254MOL0     C34173   3.411   6.056   3.238 -0.4076 -0.1263  0.3460
  254MOL0     C34174   3.301   6.033   3.303  0.0066  0.2704 -0.5942
  254MOL0     C34175   3.175   5.962   3.257  0.0219  0.2089 -0.6594
  254MOL0     C34176   3.152   5.816   3.317 -0.3554  1.1473  0.6489
  254MOL0     C34177   3.227   5.695   3.241  0.8558  0.2929  0.4914
  254MOL0     C34178   3.205   5.564   3.314 -0.5688  0.3194  0.3176
  254MOL0     O34179   3.213   5.439   3.235 -0.2696 -0.7587 -0.1858
  254MOL0     C34180   3.166   5.317   3.280 -0.4575  0.3630  0.1832
  254MOL0     C34181   3.138   5.219   3.187 -0.9348 -0.5900  0.6039
  254MOL0     C34182   3.113   5.087   3.233  0.0306  0.7262  0.1944
  254MOL0     C34183   3.092   4.991   3.124  0.2274 -0.4356 -0.4680
  254MOL0     C34184   3.100   5.052   3.373 -0.3825 -0.0851  0.4049
  254MOL0     C34185   3.077   4.913   3.435 -0.1432  0.3030  0.1066
  254MOL0     O34186   3.041   4.907   3.566 -0.1635 -0.3406  0.3311
  254MOL0     C34187   3.094   4.812   3.651 -0.6531 -0.4933 -0.4589
  254MOL0     C34188   3.206   4.738   3.632 -1.4870  0.3849  0.4076
  254MOL0     C34189   3.268   4.657   3.726  0.6526  0.4398 -0.3344
  254MOL0     C34190   3.203   4.642   3.848  0.2810  0.6869 -0.1069
  254MOL0     O34191   3.262   4.545   3.927  0.0229  0.4138  0.6066
  254MOL0     C34192   3.236   4.544   4.064  0.8442  0.2934  0.3250
  254MOL0     C34193   3.281   4.650   4.160  0.1197 -0.2188  0.0167
  254MOL0     C34194   3.433   4.651   4.180  0.8413 -0.4534 -0.0912
  254MOL0     C34195   3.491   4.774   4.096 -0.2712  0.8806 -0.4964
  254MOL0     C34196   3.637   4.771   4.126  0.4019  0.5189 -0.3259
  254MOL0     C34197   3.703   4.896   4.063  0.1586  0.6809  0.2419
  254MOL0     C34198   3.848   4.920   4.099 -0.2352 -1.0394 -0.5847
  254MOL0     C34199   3.928   4.788   4.116 -0.1899  0.0517  0.1278
  254MOL0    Cl34200   4.090   4.828   4.168 -0.1585 -0.6386 -0.4357
  254MOL0     C34201   3.093   4.720   3.881  0.4820  0.1662  0.7393
  254MOL0     C34202   3.037   4.800   3.777 -0.5206 -1.1076 -0.3929
  254MOL0     O34203   3.067   4.821   3.359  0.1820  0.9121  0.3505
  254MOL0     C34204   3.126   5.159   3.466 -0.3733 -0.0638 -0.4403
  254MOL0     C34205   3.161   5.287   3.419  0.0681 -0.5703 -0.2431
  254MOL0     N34206   3.311   6.092   3.429  0.3044 -0.6078 -0.2044
  254MOL0     N34207   3.428   6.130   3.439 -0.8314 -0.7469 -0.2974
  254MOL0     C34208   3.777   6.892   3.019  0.7402  0.5330 -0.7688
  254MOL0     C34209   3.872   6.958   2.941  0.1795  1.0410 -0.5410
  254MOL0     C34210   3.993   7.224   2.603 -0.5300 -0.7966 -0.3326
  254MOL0     C34211   4.112   7.290   2.643 -0.2294  0.7417  1.3294
  254MOL0     C34212   4.204   7.346   2.556  0.2107  0.3453 -0.8019
  254MOL0     C34213   4.172   7.342   2.418  0.6764  0.1492  0.1443
  254MOL0     O34214   4.262   7.377   2.330  0.4908 -0.0723  0.3306
  254MOL0     C34215   4.250   7.347   2.189  0.7873  0.5987 -0.4378
  254MOL0     C34216   4.385   7.286   2.136 -0.5764 -0.8869  0.4446
  254MOL0     C34217   4.482   7.402   2.118 -0.7130 -0.6982 -0.0329
  254MOL0     C34218   4.625   7.368   2.074 -0.5601  0.5631  0.2727
  254MOL0     C34219   4.702   7.296   2.178  0.9989  1.0928 -0.2848
  254MOL0     C34220   4.752   7.226   2.258  0.0449  0.1391 -0.0507
  254MOL0     C34221   4.057   7.277   2.377 -0.3768  0.5236 -0.1502
  254MOL0     C34222   3.967   7.224   2.469 -0.6154  0.0541 -0.0757
  254MOL0     H34223   3.792   7.280   3.007 -0.8433 -0.4233 -0.0722
  254MOL0     H34224   3.619   7.164   3.157 -0.0700 -0.1022  0.9416
  254MOL0     H34225   3.641   6.947   3.356 -1.5132  3.3733  2.1527
  254MOL0     H34226   3.503   7.025   3.295 -0.7765 -0.5263  1.9152
  254MOL0     H34227   3.411   6.853   3.428 -0.7824 -0.2818 -1.1125
  254MOL0     H34228   3.391   6.790   3.261  0.8322 -1.0561 -0.8953
  254MOL0     H34229   3.626   6.711   3.437  0.8672 -0.5746 -0.5157
  254MOL0     H34230   3.474   6.634   3.455  2.6048 -0.4785  3.3519
  254MOL0     H34231   3.479   6.593   3.190 -0.1833  1.2033 -0.4907
  254MOL0     H34232   3.638   6.651   3.188 -0.5851 -0.3138 -0.4572
  254MOL0     H34233   3.726   6.469   3.314  0.2788 -0.2230 -1.3042
  254MOL0     H34234   3.562   6.424   3.362 -1.8144  1.9454  0.1013
  254MOL0     H34235   3.509   6.354   3.130 -0.4362 -1.4471  0.5338
  254MOL0     H34236   3.655   6.423   3.065 -4.8091  1.4094 -1.0797
  254MOL0     H34237   3.632   6.157   3.093  0.1669 -1.7405  2.0740
  254MOL0     H34238   3.776   6.234   3.159 -1.1777  2.0527 -1.9281
  254MOL0     H34239   3.661   6.210   3.389  1.6343 -0.7072  0.6286
  254MOL0     H34240   3.686   6.058   3.298 -2.0837 -0.7608 -0.0198
  254MOL0     H34241   3.442   6.016   3.142  0.5951  0.0403  0.5828
  254MOL0     H34242   3.089   6.023   3.282 -0.3836 -0.6593  0.1357
  254MOL0     H34243   3.183   5.950   3.149 -1.7710  0.2678 -0.8239
  254MOL0     H34244   3.044   5.810   3.330 -0.5166 -0.6358 -1.0049
  254MOL0     H34245   3.194   5.813   3.418  0.8364  0.8857  0.1701
  254MOL0     H34246   3.331   5.718   3.219 -0.0331  1.0945 -3.6001
  254MOL0     H34247   3.177   5.683   3.145  0.3994  1.7674  0.5307
  254MOL0     H34248   3.107   5.576   3.360  0.3873  1.3279  2.1942
  254MOL0     H34249   3.277   5.556   3.395  0.5836  2.4937 -0.4016
  254MOL0     H34250   3.152   5.245   3.083 -1.2629 -0.0834  0.6787
  254MOL0     H34251   3.183   4.931   3.125  0.1129 -0.6445 -1.5335
  254MOL0     H34252   2.997   4.944   3.154 -1.2683  1.6085 -1.7241
  254MOL0     H34253   3.083   5.048   3.032  1.1864  2.6609  1.2091
  254MOL0     H34254   3.257   4.756   3.538 -0.6642  1.5663  1.0430
  254MOL0     H34255   3.357   4.606   3.690  0.4805 -2.1715  2.5787
  254MOL0     H34256   3.129   4.563   4.061  0.6941 -0.4520  0.6925
  254MOL0     H34257   3.239   4.447   4.115 -3.1682  0.9148  2.1111
  254MOL0     H34258   3.244   4.749   4.131  2.4734 -0.1043 -3.1983
  254MOL0     H34259   3.242   4.618   4.257  0.9445  2.3322  1.2860
  254MOL0     H34260   3.478   4.558   4.145  0.9381 -0.6775  0.6065
  254MOL0     H34261   3.451   4.668   4.287  0.2080 -1.9103  0.2706
  254MOL0     H34262   3.487   4.769   3.987 -0.4130  1.5307 -0.5255
  254MOL0     H34263   3.453   4.873   4.124  2.5797  1.7641  0.6719
  254MOL0     H34264   3.672   4.673   4.091  0.0032 -0.2716  1.3846
  254MOL0     H34265   3.651   4.776   4.234  0.0382 -1.0290 -0.1884
  254MOL0     H34266   3.697   4.881   3.955 -0.2070  1.8812  0.0878
  254MOL0     H34267   3.655   4.991   4.086 -1.0035  0.5813 -1.5598
  254MOL0     H34268   3.835   4.973   4.194  2.3153  1.1323 -1.3174
  254MOL0     H34269   3.899   4.980   4.023  0.2751  2.2447  2.1284
  254MOL0     H34270   3.938   4.734   4.021 -0.1651  1.6697 -0.8346
  254MOL0     H34271   3.892   4.722   4.195  0.5072  0.2740  0.6445
  254MOL0     H34272   3.034   4.723   3.972 -0.5736  2.0567  0.0599
  254MOL0     H34273   2.967   4.876   3.809 -0.4737 -1.4677  0.6025
  254MOL0     H34274   3.118   5.139   3.573 -1.3877  3.0757  0.1964
  254MOL0     H34275   3.184   5.358   3.498  2.6336 -1.3989 -0.1689
  254MOL0     H34276   3.763   6.785   3.027  0.3454  0.6425  0.1837
  254MOL0     H34277   3.928   6.887   2.881 -1.7079 -1.9452  0.9651
  254MOL0     H34278   4.138   7.284   2.748 -0.9189  0.7526  1.5066
  254MOL0     H34279   4.300   7.388   2.585 -0.0039 -1.7692  3.9486
  254MOL0     H34280   4.165   7.286   2.158 -1.0976  2.3950  0.9101
  254MOL0     H34281   4.236   7.442   2.137 -0.8497  0.3638 -0.4864
  254MOL0     H34282   4.366   7.241   2.038  0.1895 -3.3335  1.3326
  254MOL0     H34283   4.436   7.212   2.199  4.1183  0.8389 -0.9244
  254MOL0     H34284   4.499   7.463   2.207  1.7178 -2.4024  0.7721
  254MOL0     H34285   4.448   7.477   2.045  1.6632  0.6716  0.1597
  254MOL0     H34286   4.679   7.462   2.059  0.0625  0.2311  0.3933
  254MOL0     H34287   4.647   7.315   1.981  4.3775 -0.3387  1.6352
  254MOL0     H34288   4.798   7.173   2.339 -1.2544 -0.5014  0.2972
  254MOL0     H34289   4.019   7.264   2.277 -2.3294 -2.0175  0.8337
  254MOL0     H34290   3.872   7.179   2.440  1.3002 -2.9392 -2.3343
  255MOL0     O34291   4.675  10.233   3.384  0.1078 -0.5161 -0.7586
  255MOL0     C34292   4.630  10.279   3.483  0.9799 -0.4200 -0.6635
  255MOL0     O34293   4.489  10.300   3.514 -0.6794  0.2408  0.6069
  255MOL0     C34294   4.393  10.239   3.430 -0.2571 -0.5197  0.3932
  255MOL0     C34295   4.273  10.187   3.481  0.3803 -1.2005 -0.2130
  255MOL0     C34296   4.169  10.135   3.412 -0.3601 -0.2953 -0.2919
  255MOL0     C34297   4.182  10.124   3.271 -0.8227 -0.5850 -0.0120
  255MOL0     O34298   4.077  10.059   3.205  0.2945  0.5016 -0.2686
  255MOL0     C34299   4.110  10.010   3.074 -0.5188 -0.5294 -0.1347
  255MOL0     C34300   3.978   9.999   3.002  0.0258  0.2432 -0.1873
  255MOL0     C34301   3.975   9.902   2.884 -0.1370 -0.2947  0.7001
  255MOL0     C34302   4.024   9.958   2.755  0.0054 -0.6420 -0.4814
  255MOL0     C34303   4.076   9.855   2.652 -0.3193 -1.0424 -0.5966
  255MOL0     C34304   4.240   9.844   2.661  0.5770  0.4814  0.0429
  255MOL0     C34305   4.327   9.957   2.594  0.0535  1.2452  0.3876
  255MOL0     C34306   4.480   9.945   2.632  0.2144  1.0201  0.4919
  255MOL0     N34307   4.523   9.970   2.772 -0.4728  0.0759  0.6146
  255MOL0     C34308   4.653   9.958   2.818 -0.2590 -1.2233 -0.1191
  255MOL0     C34309   4.648  10.026   2.940 -0.0819 -0.2932  0.4464
  255MOL0     C34310   4.765  10.046   3.025 -0.4479  0.0224 -0.4691
  255MOL0     C34311   4.850  10.162   2.971  0.8396  0.6633  0.1585
  255MOL0     C34312   4.964  10.178   3.076  0.0870  0.5098 -0.5372
  255MOL0     C34313   5.072  10.278   3.034  0.5098  0.3225 -0.4485
  255MOL0     O34314   5.158  10.298   3.145 -0.2323  0.0816  0.1658
  255MOL0     C34315   5.142  10.426   3.215  0.3315  1.2269  0.4229
  255MOL0     C34316   5.258  10.476   3.279  0.1511  0.7933 -0.2291
  255MOL0     C34317   5.248  10.586   3.366 -0.4518 -0.4323 -0.1825
  255MOL0     C34318   5.375  10.631   3.447 -1.4184 -0.1054  0.8054
  255MOL0     C34319   5.132  10.662   3.376  0.0131  0.4969  0.8819
  255MOL0     C34320   5.109  10.769   3.470  0.0743 -0.8047  0.3640
  255MOL0     O34321   4.980  10.793   3.495 -0.5141 -0.1633  0.2347
  255MOL0     C34322   4.956  10.876   3.604 -0.4415  0.4650  0.3785
  255MOL0     C34323   4.971  11.014   3.590  0.2632  0.5503  0.4176
  255MOL0     C34324   4.980  11.090   3.706 -0.2939 -0.3131  0.6546
  255MOL0     C34325   4.961  11.029   3.826 -0.6765  0.9127 -1.0494
  255MOL0     O34326   4.947  11.082   3.952 -0.0779 -0.1863  0.1170
  255MOL0     C34327   4.987  11.211   3.981  0.2148 -0.1979 -0.2549
  255MOL0     C34328   5.084  11.204   4.097 -0.2160 -0.5159 -0.5960
  255MOL0     C34329   5.120  11.339   4.161  0.7411  0.7889  0.3646
  255MOL0     C34330   5.243  11.341   4.253 -1.0520  0.9853  0.9508
  255MOL0     C34331   5.232  11.274   4.396 -0.2473  1.0910  0.3139
  255MOL0     C34332   5.118  11.329   4.481 -0.2494 -0.1629  0.3005
  255MOL0     C34333   5.156  11.477   4.524  0.9111  0.0759 -0.4910
  255MOL0     C34334   5.083  11.532   4.650 -0.0703 -1.2248 -0.0287
  255MOL0    Cl34335   5.145  11.470   4.814 -0.2711  0.0651  0.4056
  255MOL0     C34336   4.933  10.895   3.835  0.9034 -0.3005 -0.5059
  255MOL0     C34337   4.936  10.817   3.723 -0.4232 -0.9136 -0.2057
  255MOL0     O34338   5.204  10.840   3.497 -0.2295  0.5095 -0.3206
  255MOL0     C34339   5.017  10.620   3.298 -0.1757  0.2419  0.2755
  255MOL0     C34340   5.020  10.506   3.218 -0.1053 -0.2944  0.5104
  255MOL0     N34341   4.510  10.058   2.963 -0.4597  0.2323  0.9814
  255MOL0     N34342   4.436  10.025   2.861  0.4685  0.3869 -0.3821
  255MOL0     C34343   4.307  10.167   3.213 -0.1891 -1.0694  0.5479
  255MOL0     C34344   4.397  10.232   3.295  0.1151 -0.7784  0.8593
  255MOL0     C34345   4.722  10.334   3.590  0.9983 -0.3462  0.5963
  255MOL0     C34346   4.852  10.382   3.558  0.1946  0.6283 -0.1681
  255MOL0     C34347   4.938  10.442   3.656  0.0900 -0.0513  0.2393
  255MOL0     C34348   4.894  10.446   3.791  0.0141  0.3037  0.2752
  255MOL0     O34349   4.967  10.510   3.889 -0.7027 -0.1485 -0.0684
  255MOL0     C34350   5.115  10.507   3.874  0.1076 -0.7435  0.9092
  255MOL0     C34351   5.178  10.550   4.009 -2.0650  0.5861  0.5061
  255MOL0     C34352   5.143  10.689   4.051  0.1365 -0.1744 -0.4243
  255MOL0     C34353   5.203  10.708   4.190  0.5167 -0.2714  0.2793
  255MOL0     C34354   5.286  10.829   4.217  0.0698  0.3336  0.4020
  255MOL0     C34355   5.369  10.922   4.235  0.1957  0.3543 -0.6955
  255MOL0     C34356   4.761  10.412   3.819 -0.7194 -0.1923 -0.0075
  255MOL0     C34357   4.679  10.352   3.723  0.1307  0.6938 -0.0425
  255MOL0     H34358   4.248  10.204   3.585  0.5890  0.8748 -0.4714
  255MOL0     H34359   4.087  10.088   3.466 -0.4219 -0.6287 -0.6697
  255MOL0     H34360   4.175  10.077   3.016 -1.2667  1.2255  0.9709
  255MOL0     H34361   4.160   9.914   3.083  0.6111 -0.0628 -1.1519
  255MOL0     H34362   3.909   9.954   3.074  3.4512 -2.7235  1.5399
  255MOL0     H34363   3.932  10.094   2.973 -2.3856 -0.9197 -0.4742
  255MOL0     H34364   4.039   9.815   2.903 -0.5377 -0.6886  0.2814
  255MOL0     H34365   3.873   9.866   2.866 -1.6737  3.4828  0.9090
  255MOL0     H34366   3.931   9.995   2.710  0.1382  0.8937  0.4592
  255MOL0     H34367   4.094  10.040   2.776 -0.9515  0.8249 -2.6473
  255MOL0     H34368   4.027   9.759   2.672  0.4956 -1.2331  0.5730
  255MOL0     H34369   4.046   9.881   2.550  2.8899 -1.9605 -1.9239
  255MOL0     H34370   4.256   9.831   2.768 -1.1958  1.5358  0.4894
  255MOL0     H34371   4.262   9.755   2.601  1.0386  0.4262  0.2957
  255MOL0     H34372   4.326   9.950   2.485  0.5318 -3.2210  0.4785
  255MOL0     H34373   4.291  10.048   2.642 -1.2348 -0.2894  2.5101
  255MOL0     H34374   4.527  10.030   2.582 -2.4130  3.8489  2.4852
  255MOL0     H34375   4.529   9.855   2.593 -0.4356  0.7463  0.2909
  255MOL0     H34376   4.739   9.917   2.767  1.9873  1.3630  1.2863
  255MOL0     H34377   4.729  10.055   3.128 -0.0166 -2.2574 -0.0725
  255MOL0     H34378   4.817   9.950   3.015 -0.4851 -0.4393  2.6666
  255MOL0     H34379   4.794  10.255   2.963  0.8792  0.5776 -1.5706
  255MOL0     H34380   4.894  10.125   2.878  0.7364  0.3380  0.2363
  255MOL0     H34381   5.020  10.085   3.093  0.3931  0.9820  1.3687
  255MOL0     H34382   4.917  10.196   3.173  2.1103 -1.4244  0.9078
  255MOL0     H34383   5.026  10.370   2.996 -0.8583 -0.0707  0.1917
  255MOL0     H34384   5.133  10.242   2.951 -2.4668 -1.4427 -2.0319
  255MOL0     H34385   5.343  10.410   3.266 -1.3985 -1.7569  1.6573
  255MOL0     H34386   5.362  10.622   3.555  1.4479 -1.3845  1.1224
  255MOL0     H34387   5.464  10.571   3.431  0.2586  2.4029  0.1036
  255MOL0     H34388   5.395  10.735   3.420  0.9025 -1.0164 -1.3411
  255MOL0     H34389   4.990  11.056   3.492 -0.5514  2.5895  1.0840
  255MOL0     H34390   5.016  11.192   3.699 -2.4245  0.3668 -1.9904
  255MOL0     H34391   5.034  11.263   3.897 -1.3217 -0.1486 -1.1077
  255MOL0     H34392   4.897  11.263   4.015  1.0785  1.7710 -0.8193
  255MOL0     H34393   5.034  11.143   4.173  2.5145  0.5381  2.2686
  255MOL0     H34394   5.179  11.154   4.076  1.9297  2.2021  1.8126
  255MOL0     H34395   5.028  11.369   4.213 -0.8909 -3.4646  0.2941
  255MOL0     H34396   5.143  11.400   4.073  0.5233 -3.5458 -2.9756
  255MOL0     H34397   5.327  11.295   4.200 -2.1157 -0.7907  0.7015
  255MOL0     H34398   5.274  11.444   4.271  2.7502 -0.1106  1.4725
  255MOL0     H34399   5.327  11.286   4.449  1.0074 -4.6629  0.0587
  255MOL0     H34400   5.211  11.168   4.380  1.4345  1.1493 -3.3031
  255MOL0     H34401   5.020  11.340   4.433 -0.3727  0.2744  0.6475
  255MOL0     H34402   5.103  11.261   4.565  0.3084 -2.2564 -1.2128
  255MOL0     H34403   5.125  11.537   4.438  2.9260  0.2911 -1.1297
  255MOL0     H34404   5.264  11.494   4.525  0.8556  0.7406  2.0376
  255MOL0     H34405   4.980  11.502   4.632  0.1310 -3.3042  1.8478
  255MOL0     H34406   5.086  11.641   4.658  2.6536 -1.3184  1.7696
  255MOL0     H34407   4.894  10.849   3.925  1.0226  2.0092  0.8163
  255MOL0     H34408   4.909  10.712   3.726  1.4081 -1.4982 -1.9494
  255MOL0     H34409   4.920  10.666   3.289 -1.0529 -1.8165 -2.2134
  255MOL0     H34410   4.924  10.488   3.170 -0.3473  1.0499  0.4589
  255MOL0     H34411   4.332  10.162   3.108  2.3131 -1.8494  1.1150
  255MOL0     H34412   4.488  10.268   3.247 -0.8916  0.9112  0.1270
  255MOL0     H34413   4.895  10.385   3.458 -0.4136  2.1104 -0.4095
  255MOL0     H34414   5.040  10.470   3.628 -0.2691 -0.7575 -1.9115
  255MOL0     H34415   5.145  10.402   3.861  2.4224 -0.4886  3.4059
  255MOL0     H34416   5.137  10.581   3.796  1.2210  0.3685  2.2342
  255MOL0     H34417   5.285  10.533   3.994 -1.8909  0.5467  1.6768
  255MOL0     H34418   5.148  10.475   4.084  1.0317 -0.1224  1.1975
  255MOL0     H34419   5.037  10.714   4.046 -0.3567 -2.0561 -0.1253
  255MOL0     H34420   5.194  10.754   3.979 -0.0178  0.2902 -0.1224
  255MOL0     H34421   5.267  10.622   4.212 -1.7159 -1.3052  3.5005
  255MOL0     H34422   5.123  10.701   4.264 -0.2865 -0.1605 -0.5615
  255MOL0     H34423   5.454  10.979   4.266  0.7039 -1.6295  1.9513
  255MOL0     H34424   4.732  10.427   3.923  0.0324  1.1253  0.0317
  255MOL0     H34425   4.576  10.329   3.749  0.1776  0.2639 -0.2411
  256MOL0     O34426   5.337   0.776   7.683 -0.7463 -0.4125  0.0109
  256MOL0     C34427   5.338   0.654   7.675 -0.3906  0.1300  0.2029
  256MOL0     O34428   5.227   0.575   7.663  0.5169  0.2230 -1.3552
  256MOL0     C34429   5.100   0.609   7.694  0.8123 -0.6483  0.0283
  256MOL0     C34430   4.995   0.512   7.670 -1.5330  1.0334  0.2520
  256MOL0     C34431   4.865   0.536   7.704 -1.1929  0.4892 -0.2764
  256MOL0     C34432   4.830   0.659   7.759 -0.3961  0.3032 -0.5195
  256MOL0     O34433   4.700   0.692   7.803 -0.3465 -0.0102  0.0456
  256MOL0     C34434   4.602   0.591   7.837 -0.0260 -0.3666 -0.1299
  256MOL0     C34435   4.476   0.673   7.874  0.2164 -0.5393  0.2788
  256MOL0     C34436   4.428   0.755   7.744  0.0484  0.8360  0.6434
  256MOL0     C34437   4.352   0.653   7.645  0.7490 -0.6169 -0.2725
  256MOL0     C34438   4.281   0.722   7.522 -0.0789  0.7663 -0.8074
  256MOL0     C34439   4.218   0.612   7.437 -0.7176  0.2737  1.0706
  256MOL0     C34440   4.118   0.679   7.336 -0.1199 -0.5720  0.1125
  256MOL0     C34441   3.970   0.630   7.362 -0.6525  0.2186  0.2929
  256MOL0     N34442   3.873   0.723   7.296  0.2938  1.0013  0.6860
  256MOL0     C34443   3.851   0.853   7.322  0.6618 -0.3318  0.6394
  256MOL0     C34444   3.777   0.895   7.213  1.2575  0.7458  0.3700
  256MOL0     C34445   3.746   1.037   7.200 -0.7910 -0.2935 -0.8141
  256MOL0     C34446   3.597   1.057   7.243  0.2963  0.2421 -0.4969
  256MOL0     C34447   3.544   1.193   7.207  0.0598  0.4145  0.4318
  256MOL0     C34448   3.403   1.193   7.248  0.4488  0.3521  0.0557
  256MOL0     O34449   3.321   1.304   7.196  0.0755  0.3254 -0.0137
  256MOL0     C34450   3.301   1.322   7.062  0.4431 -0.0240 -0.4917
  256MOL0     C34451   3.330   1.224   6.970 -0.8389 -0.0838  1.3708
  256MOL0     C34452   3.309   1.240   6.832  0.3297  0.0700  1.2034
  256MOL0     C34453   3.365   1.135   6.739 -0.0507 -0.2007  0.7068
  256MOL0     C34454   3.237   1.350   6.781  0.4954 -0.4581 -0.7700
  256MOL0     C34455   3.196   1.378   6.629 -0.3307 -1.0492  0.3881
  256MOL0     O34456   3.143   1.507   6.614 -0.9563  0.5379 -0.4089
  256MOL0     C34457   3.116   1.530   6.489  0.0204 -0.9032  0.6626
  256MOL0     C34458   2.975   1.533   6.450 -0.1341 -0.2466  0.4792
  256MOL0     C34459   2.950   1.564   6.314 -0.1396 -0.3741 -0.6797
  256MOL0     C34460   3.049   1.609   6.228  0.0006 -0.4649 -0.4031
  256MOL0     O34461   3.008   1.664   6.109  0.3486  0.3254  0.1915
  256MOL0     C34462   3.090   1.764   6.050 -0.7954 -0.3696  0.0681
  256MOL0     C34463   3.014   1.868   5.965  0.4155 -0.3425 -0.2401
  256MOL0     C34464   2.887   1.918   6.042 -0.3295 -0.4404 -0.2276
  256MOL0     C34465   2.803   2.001   5.948  0.1997 -0.6109  0.0634
  256MOL0     C34466   2.689   2.077   6.018 -0.8546  0.4100  0.8993
  256MOL0     C34467   2.621   2.171   5.925  0.2088 -0.5244 -0.3220
  256MOL0     C34468   2.482   2.194   5.980  0.3278 -0.7804  0.1766
  256MOL0     C34469   2.418   2.295   5.888 -0.5735 -0.4943 -0.4759
  256MOL0    Cl34470   2.321   2.223   5.758 -0.5565 -0.2864  0.3049
  256MOL0     C34471   3.181   1.626   6.273  0.6369 -0.1331  0.2853
  256MOL0     C34472   3.216   1.573   6.399 -0.0900  0.5803  0.7191
  256MOL0     O34473   3.199   1.286   6.547  0.6298 -0.5318 -0.6660
  256MOL0     C34474   3.220   1.450   6.878 -0.3894 -0.8194  0.3653
  256MOL0     C34475   3.253   1.434   7.014  0.4382 -0.1268  0.0154
  256MOL0     N34476   3.760   0.787   7.121 -0.4937 -1.3134  0.0082
  256MOL0     N34477   3.814   0.686   7.175  0.1105 -0.3250  0.3617
  256MOL0     C34478   4.929   0.756   7.785  0.2341  0.4954  0.3253
  256MOL0     C34479   5.059   0.725   7.753  0.1448  0.4007  0.0734
  256MOL0     C34480   5.463   0.590   7.693 -0.1867 -0.2933 -0.8369
  256MOL0     C34481   5.581   0.666   7.736  0.0351  0.7275 -0.4077
  256MOL0     C34482   5.698   0.591   7.770  0.1712 -0.4276  0.4572
  256MOL0     C34483   5.711   0.455   7.750  0.4569  1.1446  0.4850
  256MOL0     O34484   5.820   0.386   7.787 -0.4205  0.2463  0.4783
  256MOL0     C34485   5.941   0.463   7.826 -0.0408  0.6572 -0.1761
  256MOL0     C34486   6.055   0.361   7.828 -1.2168  1.0052 -0.3368
  256MOL0     C34487   6.201   0.418   7.850  0.3098  0.2993  0.1126
  256MOL0     C34488   6.311   0.328   7.796 -0.7056  0.4735  0.5262
  256MOL0     C34489   6.319   0.196   7.860 -0.1164 -0.3137  0.8395
  256MOL0     C34490   6.324   0.082   7.890  0.1716  1.1152  0.2718
  256MOL0     C34491   5.605   0.386   7.691  0.5746  0.2547 -0.0278
  256MOL0     C34492   5.483   0.451   7.673  0.3295  0.2058 -0.1576
  256MOL0     H34493   5.019   0.418   7.622 -1.2218  0.4334  1.5565
  256MOL0     H34494   4.787   0.464   7.683 -0.7784  0.2426 -1.0205
  256MOL0     H34495   4.587   0.524   7.751  1.8273  1.6549 -2.1828
  256MOL0     H34496   4.617   0.531   7.927 -0.6940 -1.2640 -0.5992
  256MOL0     H34497   4.410   0.596   7.915  0.9234 -1.7724 -0.8364
  256MOL0     H34498   4.493   0.754   7.946 -2.1568  0.1258  0.1672
  256MOL0     H34499   4.357   0.834   7.769  0.4795  1.9872 -1.5445
  256MOL0     H34500   4.521   0.797   7.703 -0.2071  1.6824  0.9116
  256MOL0     H34501   4.424   0.576   7.617  2.0087  0.7729 -0.9968
  256MOL0     H34502   4.277   0.604   7.709  2.6954 -0.5936  2.1558
  256MOL0     H34503   4.209   0.800   7.547 -1.2202 -0.1327 -1.2342
  256MOL0     H34504   4.361   0.772   7.466  0.8012  0.7652  0.3823
  256MOL0     H34505   4.297   0.559   7.384  2.1437  3.5613  1.7225
  256MOL0     H34506   4.169   0.532   7.494  0.0875  0.9156  2.7388
  256MOL0     H34507   4.139   0.786   7.336  1.4200 -0.7739 -2.4478
  256MOL0     H34508   4.141   0.650   7.233  2.2096  1.8184 -0.1452
  256MOL0     H34509   3.952   0.629   7.470  3.1059 -0.6863  1.0402
  256MOL0     H34510   3.962   0.530   7.320  0.9241  0.5422 -0.9032
  256MOL0     H34511   3.893   0.915   7.401  1.4009  0.5583 -0.4236
  256MOL0     H34512   3.792   1.104   7.273  0.1144  0.6093 -2.1668
  256MOL0     H34513   3.787   1.068   7.103 -0.4590  0.8769 -0.3182
  256MOL0     H34514   3.588   1.057   7.352  1.1242  2.7899 -0.3603
  256MOL0     H34515   3.527   0.979   7.211 -0.1712  0.3980  0.1269
  256MOL0     H34516   3.557   1.205   7.099 -0.4858 -1.5394  0.1185
  256MOL0     H34517   3.599   1.276   7.253  0.6152  0.3004 -0.0165
  256MOL0     H34518   3.409   1.208   7.356  0.7299 -1.8553  0.4035
  256MOL0     H34519   3.357   1.101   7.209  2.6599 -0.5076 -0.6779
  256MOL0     H34520   3.370   1.126   6.995  1.2986  0.4172  0.1140
  256MOL0     H34521   3.275   1.090   6.697  0.3509 -0.8578  0.5456
  256MOL0     H34522   3.427   1.169   6.656  0.0797 -1.5647  0.2222
  256MOL0     H34523   3.423   1.063   6.797  0.8990  0.2245  0.3070
  256MOL0     H34524   2.902   1.504   6.525  2.8992 -0.6769  3.5339
  256MOL0     H34525   2.843   1.568   6.299 -0.4120 -0.4447  1.0339
  256MOL0     H34526   3.134   1.827   6.128  1.9537 -2.8274  0.6919
  256MOL0     H34527   3.167   1.720   5.986 -0.0290  0.7538  0.1873
  256MOL0     H34528   3.078   1.956   5.956  1.9502 -1.1890  1.6920
  256MOL0     H34529   2.992   1.821   5.868  0.9837 -1.9168  0.3682
  256MOL0     H34530   2.909   1.995   6.115  0.2752 -0.9146  0.0963
  256MOL0     H34531   2.827   1.835   6.079  1.9081 -2.0115  0.1000
  256MOL0     H34532   2.866   2.068   5.889  1.1108  0.1549  1.8197
  256MOL0     H34533   2.759   1.937   5.871 -0.3639  1.6226 -1.5760
  256MOL0     H34534   2.716   2.129   6.110 -2.4033 -1.1687  2.3257
  256MOL0     H34535   2.612   2.008   6.056 -1.1110  1.6292  2.6531
  256MOL0     H34536   2.677   2.265   5.921 -3.0026  1.6008  0.5409
  256MOL0     H34537   2.620   2.121   5.827  4.1379  0.3074 -0.9730
  256MOL0     H34538   2.492   2.243   6.077 -1.6401 -1.3554  0.7138
  256MOL0     H34539   2.416   2.109   6.001 -2.0469  0.8394 -0.3438
  256MOL0     H34540   2.498   2.357   5.847 -0.5397 -0.9834 -1.1724
  256MOL0     H34541   2.345   2.353   5.946 -0.5247 -0.6402 -0.2684
  256MOL0     H34542   3.257   1.666   6.207  1.0980 -1.7082 -0.1878
  256MOL0     H34543   3.321   1.577   6.424  0.3858  3.5283 -1.3411
  256MOL0     H34544   3.181   1.546   6.846  2.1766 -0.2728 -1.4234
  256MOL0     H34545   3.223   1.510   7.085  0.7148 -0.5383  0.5809
  256MOL0     H34546   4.901   0.850   7.830  0.0792  1.3386 -1.4444
  256MOL0     H34547   5.130   0.800   7.785 -0.6191  0.1309  2.6985
  256MOL0     H34548   5.569   0.773   7.751  2.1596  0.9054  0.4215
  256MOL0     H34549   5.773   0.655   7.815 -1.7935  1.9793  0.5471
  256MOL0     H34550   5.962   0.550   7.764 -0.2294 -1.0306 -2.7897
  256MOL0     H34551   5.920   0.506   7.924 -0.6515 -0.5798  0.2602
  256MOL0     H34552   6.047   0.302   7.736 -0.5430  0.4808 -0.0655
  256MOL0     H34553   6.036   0.293   7.912 -1.9678  1.0458 -0.4665
  256MOL0     H34554   6.215   0.446   7.955  0.7013  1.5764 -0.2516
  256MOL0     H34555   6.217   0.514   7.800 -1.2831  0.8042  0.5217
  256MOL0     H34556   6.407   0.379   7.811 -0.6553  0.2364  1.0429
  256MOL0     H34557   6.289   0.321   7.690 -1.8678  1.9152  0.6527
  256MOL0     H34558   6.314  -0.024   7.903 -0.2868  1.1713  0.3559
  256MOL0     H34559   5.615   0.281   7.665 -1.6034  0.1647 -0.6989
  256MOL0     H34560   5.399   0.396   7.632 -0.0817  0.1845  0.6763
  257MOL0     O34561   2.330   2.444   2.757  0.6047 -0.0105  0.1569
  257MOL0     C34562   2.220   2.404   2.726 -0.4245  0.0218  0.6942
  257MOL0     O34563   2.113   2.482   2.685 -0.0194  0.0661 -0.4493
  257MOL0     C34564   2.112   2.617   2.704  0.4573  0.2405 -0.9563
  257MOL0     C34565   2.153   2.687   2.820 -0.3177  1.0186 -0.0659
  257MOL0     C34566   2.130   2.828   2.829 -0.2474 -0.1138  0.2388
  257MOL0     C34567   2.062   2.896   2.725  0.7267  0.1844 -0.2989
  257MOL0     O34568   2.011   3.025   2.735  0.9305 -0.2838 -0.2048
  257MOL0     C34569   1.911   3.036   2.844 -0.5365 -0.0233  0.3938
  257MOL0     C34570   1.777   3.077   2.794  1.1759 -0.2319  0.6411
  257MOL0     C34571   1.781   3.225   2.755  0.2753 -0.0858  0.7618
  257MOL0     C34572   1.634   3.277   2.737  0.1707  0.6916  0.5870
  257MOL0     C34573   1.624   3.388   2.634 -1.0444  0.6323  0.0845
  257MOL0     C34574   1.495   3.480   2.634  0.8235  0.2796  0.1556
  257MOL0     C34575   1.490   3.538   2.779 -0.7647  0.2095  1.6128
  257MOL0     C34576   1.410   3.664   2.791 -0.2035  0.0554  0.1603
  257MOL0     N34577   1.369   3.689   2.934 -0.2515 -0.4557  0.8325
  257MOL0     C34578   1.287   3.605   3.007 -0.6703  0.3675  0.9295
  257MOL0     C34579   1.293   3.654   3.129 -0.2825 -0.1032 -0.0847
  257MOL0     C34580   1.218   3.586   3.239 -0.4387 -0.6278 -0.5390
  257MOL0     C34581   1.301   3.589   3.374  1.2650 -0.6118  0.3080
  257MOL0     C34582   1.210   3.536   3.484  0.1560  0.2683  0.0125
  257MOL0     C34583   1.267   3.555   3.628 -0.6231 -0.3080 -0.1620
  257MOL0     O34584   1.190   3.496   3.719 -0.7910  0.5858 -0.2972
  257MOL0     C34585   1.096   3.568   3.796  0.0160  0.5000  0.7139
  257MOL0     C34586   0.996   3.487   3.859 -0.7257 -0.4590  0.6602
  257MOL0     C34587   0.903   3.556   3.942 -0.4309 -0.5128 -0.8905
  257MOL0     C34588   0.806   3.446   3.982  0.2716 -0.3793  0.5283
  257MOL0     C34589   0.898   3.696   3.955  0.2568  0.0875  0.2979
  257MOL0     C34590   0.789   3.754   4.032 -1.1133 -0.7006 -1.4605
  257MOL0     O34591   0.780   3.894   4.020  0.3278 -0.0552 -0.1338
  257MOL0     C34592   0.693   3.969   4.093 -0.1462 -0.4416 -0.0806
  257MOL0     C34593   0.716   4.109   4.073  0.4606  0.7257 -0.9057
  257MOL0     C34594   0.635   4.213   4.122 -0.2748 -0.6159 -0.1094
  257MOL0     C34595   0.542   4.185   4.219 -0.5893  0.5114  0.1958
  257MOL0     O34596   0.454   4.274   4.268  0.2780 -0.0066  1.3755
  257MOL0     C34597   0.499   4.408   4.292  1.3178 -0.0143 -1.1782
  257MOL0     C34598   0.443   4.442   4.434 -0.6564  0.5874 -0.7001
  257MOL0     C34599   0.290   4.458   4.421  0.6769  0.0380 -0.3660
  257MOL0     C34600   0.234   4.485   4.562  0.0474 -0.2918 -0.4465
  257MOL0     C34601   0.097   4.546   4.571  0.7055 -0.2726 -0.2956
  257MOL0     C34602  -0.028   4.462   4.511  0.1809 -0.4208  0.1911
  257MOL0     C34603  -0.159   4.535   4.535  0.5356 -0.4806  0.7211
  257MOL0     C34604  -0.257   4.530   4.417 -0.3177 -0.0922  0.1457
  257MOL0    Cl34605  -0.294   4.374   4.346 -0.3967 -0.1801 -0.4348
  257MOL0     C34606   0.511   4.051   4.233  0.8383 -0.1104 -0.0545
  257MOL0     C34607   0.580   3.942   4.178  0.1582 -0.3607  0.5872
  257MOL0     O34608   0.717   3.684   4.104 -0.1110  0.1468 -0.3095
  257MOL0     C34609   0.997   3.770   3.887 -0.4730 -0.3227 -0.2379
  257MOL0     C34610   1.105   3.707   3.817  0.1342 -0.9467  1.1236
  257MOL0     N34611   1.374   3.762   3.128 -0.8417 -0.5590 -0.5347
  257MOL0     N34612   1.430   3.782   3.014  0.0902  0.6106 -0.2713
  257MOL0     C34613   2.035   2.822   2.607 -0.0920 -0.4332 -0.4398
  257MOL0     C34614   2.048   2.690   2.600  0.2881  0.1374 -0.0732
  257MOL0     C34615   2.201   2.267   2.689 -0.3543 -0.0874  0.6661
  257MOL0     C34616   2.310   2.176   2.670 -0.2164 -0.6125  0.7170
  257MOL0     C34617   2.291   2.048   2.615 -0.1026 -0.4871  0.5411
  257MOL0     C34618   2.162   1.998   2.573  0.1298 -0.4780  0.0793
  257MOL0     O34619   2.126   1.880   2.508  0.4057  0.4749 -0.8225
  257MOL0     C34620   2.237   1.788   2.479 -0.3841 -0.3450 -0.3638
  257MOL0     C34621   2.183   1.651   2.432  0.7701 -1.0677  0.4122
  257MOL0     C34622   2.061   1.608   2.515  0.4369 -0.4445 -0.1661
  257MOL0     C34623   2.033   1.457   2.509 -0.5223  0.9958  0.2404
  257MOL0     C34624   2.114   1.368   2.593 -0.4783  0.4775 -0.4217
  257MOL0     C34625   2.175   1.288   2.659 -0.1057  0.4822 -0.3142
  257MOL0     C34626   2.054   2.086   2.598 -0.1557  0.3828  1.1327
  257MOL0     C34627   2.070   2.210   2.668 -0.7084 -0.0803  0.0361
  257MOL0     H34628   2.199   2.624   2.896  0.9935 -0.3347 -1.8992
  257MOL0     H34629   2.164   2.878   2.920 -0.9500 -1.8838  1.5450
  257MOL0     H34630   1.918   2.946   2.906 -0.6629  2.9689  5.3509
  257MOL0     H34631   1.934   3.123   2.907 -1.5213  1.1530 -0.8309
  257MOL0     H34632   1.747   3.012   2.712 -0.1958 -0.1904  1.0831
  257MOL0     H34633   1.705   3.065   2.876  1.8088  3.2184  1.8817
  257MOL0     H34634   1.831   3.286   2.831  0.5266  0.0969  0.4540
  257MOL0     H34635   1.843   3.245   2.667 -1.4988  2.8670  0.0523
  257MOL0     H34636   1.569   3.198   2.699  1.7310 -0.1718 -0.3778
  257MOL0     H34637   1.599   3.303   2.838 -1.8987  0.5183 -0.0271
  257MOL0     H34638   1.714   3.446   2.655  1.0294 -0.3484 -4.5694
  257MOL0     H34639   1.634   3.340   2.536  3.3341 -1.9950  1.5108
  257MOL0     H34640   1.503   3.573   2.576 -2.3884  3.0239  3.5820
  257MOL0     H34641   1.401   3.428   2.617  2.4445 -3.7296  2.0293
  257MOL0     H34642   1.436   3.462   2.835  1.7530 -2.3896  0.7896
  257MOL0     H34643   1.586   3.557   2.828  0.9735  2.2880 -2.1474
  257MOL0     H34644   1.316   3.659   2.737 -0.4100 -2.9448  0.6118
  257MOL0     H34645   1.468   3.751   2.758  1.2149  0.0998  2.4881
  257MOL0     H34646   1.234   3.523   2.959  1.7006 -0.4646 -0.3920
  257MOL0     H34647   1.129   3.649   3.253 -1.9157 -2.9792  1.3254
  257MOL0     H34648   1.190   3.484   3.213 -0.8520 -1.3455  2.3738
  257MOL0     H34649   1.331   3.689   3.408  2.1977 -1.8520  3.5001
  257MOL0     H34650   1.391   3.527   3.377  2.5795  1.2174  0.4570
  257MOL0     H34651   1.190   3.430   3.466  2.7683 -0.2899 -0.0257
  257MOL0     H34652   1.116   3.592   3.482  2.3396  4.2273 -1.9336
  257MOL0     H34653   1.294   3.659   3.652 -0.4507  0.3427 -2.8072
  257MOL0     H34654   1.362   3.502   3.619  0.2444  1.5528 -4.5093
  257MOL0     H34655   0.997   3.380   3.839  0.0399 -0.3186 -0.1709
  257MOL0     H34656   0.705   3.475   3.948  1.5446  3.7457 -0.3594
  257MOL0     H34657   0.841   3.349   3.947 -0.1339 -0.6252  0.7985
  257MOL0     H34658   0.799   3.449   4.091 -1.0016 -0.1423  0.4638
  257MOL0     H34659   0.789   4.130   3.996  0.4461 -0.5447 -1.2822
  257MOL0     H34660   0.665   4.310   4.083 -2.6081 -0.7156 -2.3951
  257MOL0     H34661   0.608   4.417   4.286  1.6757 -3.3047 -1.5764
  257MOL0     H34662   0.460   4.476   4.216 -3.5299 -0.5643  0.4816
  257MOL0     H34663   0.473   4.358   4.497 -0.5176  2.0464  1.2796
  257MOL0     H34664   0.501   4.530   4.461  0.1437  1.4035 -4.5156
  257MOL0     H34665   0.246   4.367   4.377  0.5740  1.1972 -2.8079
  257MOL0     H34666   0.267   4.537   4.350  2.2658  2.2922  1.4787
  257MOL0     H34667   0.238   4.394   4.623  0.6009 -0.6390 -0.9775
  257MOL0     H34668   0.297   4.558   4.613 -0.3617  0.1039 -0.5046
  257MOL0     H34669   0.098   4.636   4.510 -0.4067 -1.3484 -1.9745
  257MOL0     H34670   0.079   4.568   4.677 -0.6579 -1.5586 -0.2202
  257MOL0     H34671  -0.028   4.455   4.402  1.6649 -0.1801  0.1627
  257MOL0     H34672  -0.023   4.360   4.551  0.5550 -0.7805 -0.7477
  257MOL0     H34673  -0.145   4.639   4.566 -1.6241 -0.8233  3.1910
  257MOL0     H34674  -0.212   4.487   4.617  4.1511  1.8086  4.7887
  257MOL0     H34675  -0.219   4.601   4.343 -0.7942 -0.5754 -0.5710
  257MOL0     H34676  -0.350   4.575   4.452  0.4132  2.2396 -0.7386
  257MOL0     H34677   0.439   4.016   4.306  0.8819 -0.7524 -0.3133
  257MOL0     H34678   0.532   3.845   4.192  0.0629 -0.5329 -0.7592
  257MOL0     H34679   0.996   3.878   3.900 -3.6356 -0.2509 -0.1977
  257MOL0     H34680   1.182   3.767   3.770 -0.8221  0.2175  0.9775
  257MOL0     H34681   1.998   2.879   2.522  3.5732  1.0574 -1.2269
  257MOL0     H34682   2.023   2.646   2.504 -0.7421  0.0504  0.2268
  257MOL0     H34683   2.413   2.201   2.694  0.3236 -0.0707 -1.8590
  257MOL0     H34684   2.379   1.985   2.606 -1.2228 -1.9316 -0.7099
  257MOL0     H34685   2.304   1.830   2.404  2.2333 -0.8589  1.5383
  257MOL0     H34686   2.299   1.774   2.568  1.0361  0.6891 -1.1366
  257MOL0     H34687   2.269   1.584   2.433  2.2117  0.6380 -1.6681
  257MOL0     H34688   2.160   1.664   2.326 -1.0116 -0.6394  0.8129
  257MOL0     H34689   1.969   1.663   2.493 -0.1093 -1.0723  0.4855
  257MOL0     H34690   2.080   1.634   2.620  0.1837  0.6553 -0.3872
  257MOL0     H34691   2.029   1.420   2.406  0.1268 -0.0352  0.5607
  257MOL0     H34692   1.932   1.446   2.549 -0.9907  2.6024 -0.4227
  257MOL0     H34693   2.223   1.205   2.707 -0.8864 -0.1809 -0.6506
  257MOL0     H34694   1.955   2.055   2.564  1.5513  0.0645 -4.4477
  257MOL0     H34695   1.994   2.283   2.693  0.9977  1.5467  0.7199
  258MOL0     O34696   2.692   9.184   6.070  0.0170  0.4659  0.6830
  258MOL0     C34697   2.738   9.147   5.957  0.8387 -0.1915  0.0989
  258MOL0     O34698   2.866   9.150   5.912 -0.1519  0.4619 -0.3548
  258MOL0     C34699   2.961   9.180   6.000 -0.2053 -0.1274 -0.8106
  258MOL0     C34700   3.037   9.297   5.981 -0.2228 -0.2845 -0.1566
  258MOL0     C34701   3.154   9.313   6.048 -0.4624  0.5092 -0.5787
  258MOL0     C34702   3.186   9.214   6.150 -0.2121 -1.0085 -0.9137
  258MOL0     O34703   3.301   9.232   6.224 -0.8297  0.5355  0.7062
  258MOL0     C34704   3.316   9.165   6.351  0.6675  0.4987 -0.5787
  258MOL0     C34705   3.433   9.222   6.431  0.4060 -0.5550  0.1469
  258MOL0     C34706   3.563   9.220   6.348 -0.9828  0.0865 -0.0023
  258MOL0     C34707   3.671   9.260   6.448 -0.5100  0.3234  0.8041
  258MOL0     C34708   3.811   9.237   6.388 -1.1164 -0.0047  0.1782
  258MOL0     C34709   3.928   9.260   6.483 -0.0598 -0.6041 -0.7129
  258MOL0     C34710   4.073   9.222   6.441 -0.3156 -0.1023 -0.1108
  258MOL0     C34711   4.080   9.068   6.437  0.2531 -0.8601  0.2397
  258MOL0     N34712   4.072   9.014   6.575 -0.3660  0.0998 -0.2217
  258MOL0     C34713   4.170   9.022   6.661  0.8763 -0.6479 -0.2998
  258MOL0     C34714   4.131   8.942   6.776 -0.2734 -0.4063 -0.1851
  258MOL0     C34715   4.195   8.913   6.909 -0.2163  0.4486  0.0106
  258MOL0     C34716   4.179   9.027   7.009  0.0586  0.4944  0.2269
  258MOL0     C34717   4.045   9.029   7.084 -0.2026  0.6210  1.1769
  258MOL0     C34718   4.054   9.093   7.226 -0.0691  0.5932  0.1419
  258MOL0     O34719   4.124   9.214   7.213 -0.0086  0.6459  0.1672
  258MOL0     C34720   4.199   9.256   7.320 -0.8985 -0.3092 -0.4704
  258MOL0     C34721   4.295   9.350   7.288 -0.2723 -0.1299 -0.0667
  258MOL0     C34722   4.383   9.410   7.390 -0.7248  0.2241  1.9779
  258MOL0     C34723   4.473   9.521   7.339 -0.2297 -1.2640  0.5180
  258MOL0     C34724   4.382   9.355   7.520  0.7567  0.2341 -0.0400
  258MOL0     C34725   4.478   9.382   7.628  0.5658  0.3713  0.5813
  258MOL0     O34726   4.490   9.285   7.727  0.3023  0.0706 -0.3837
  258MOL0     C34727   4.589   9.313   7.814  0.2092 -0.8849  0.1922
  258MOL0     C34728   4.722   9.293   7.774  0.1305 -0.0899 -0.6122
  258MOL0     C34729   4.823   9.311   7.871 -0.9663 -0.0803 -0.2986
  258MOL0     C34730   4.799   9.387   7.985 -0.4212  0.0406 -0.5480
  258MOL0     O34731   4.906   9.412   8.068  0.1984  0.8303  0.0942
  258MOL0     C34732   4.868   9.411   8.205  0.4161 -0.0555  0.0408
  258MOL0     C34733   4.987   9.372   8.289 -0.0219  0.1654 -0.2474
  258MOL0     C34734   4.953   9.365   8.434  0.2730  0.4325 -0.7940
  258MOL0     C34735   5.066   9.348   8.527 -0.3019  0.2123  0.0557
  258MOL0     C34736   5.023   9.343   8.679  0.9691  0.6332  0.2054
  258MOL0     C34737   5.144   9.352   8.779 -0.7203  0.3803  0.1478
  258MOL0     C34738   5.256   9.247   8.783  0.3183  0.5857  1.0487
  258MOL0     C34739   5.204   9.111   8.814  0.8655 -0.4635 -0.1423
  258MOL0    Cl34740   5.342   8.999   8.852 -0.3285  0.2991 -0.5371
  258MOL0     C34741   4.664   9.419   8.009 -0.2479 -0.6520 -0.0894
  258MOL0     C34742   4.563   9.390   7.927 -0.0459  0.4246 -0.3800
  258MOL0     O34743   4.519   9.496   7.647 -0.3553  0.1357  0.9596
  258MOL0     C34744   4.277   9.262   7.549 -0.3929  0.1711 -0.3621
  258MOL0     C34745   4.191   9.216   7.449 -0.0084  0.8962 -0.6655
  258MOL0     N34746   4.005   8.884   6.746 -0.8064  0.2545  0.1573
  258MOL0     N34747   3.976   8.927   6.628  0.5876 -0.3787  0.0029
  258MOL0     C34748   3.113   9.104   6.172 -0.1950  0.3580  0.1849
  258MOL0     C34749   2.997   9.087   6.101 -0.6810  0.1535  1.0238
  258MOL0     C34750   2.619   9.128   5.870  0.0202  0.4052 -0.0232
  258MOL0     C34751   2.490   9.160   5.905 -0.6733  0.0903 -0.5982
  258MOL0     C34752   2.394   9.150   5.812 -0.3773 -0.4560  0.1514
  258MOL0     C34753   2.429   9.134   5.672  0.8345  0.8675 -0.3269
  258MOL0     O34754   2.329   9.154   5.578  0.9208 -0.2326 -0.3769
  258MOL0     C34755   2.268   9.030   5.530  0.4772 -0.9464  0.3388
  258MOL0     C34756   2.114   9.029   5.552 -0.7711 -0.0110 -0.8157
  258MOL0     C34757   2.050   8.908   5.500 -0.5525 -0.3124 -0.6787
  258MOL0     C34758   1.897   8.927   5.513 -0.1360  0.1451 -1.4256
  258MOL0     C34759   1.819   8.816   5.455 -0.3927  0.6045 -0.2803
  258MOL0     C34760   1.745   8.727   5.419 -0.0309 -0.1706  0.0197
  258MOL0     C34761   2.561   9.092   5.641 -0.4330  0.1338 -0.6178
  258MOL0     C34762   2.657   9.093   5.744  0.8009 -0.2511  0.2594
  258MOL0     H34763   2.990   9.362   5.908 -1.8489 -0.1825  0.9163
  258MOL0     H34764   3.219   9.400   6.041 -0.2024  0.4600  0.9782
  258MOL0     H34765   3.222   9.166   6.408  2.3543  0.3988  2.4038
  258MOL0     H34766   3.348   9.061   6.334 -1.1298 -0.2815  0.4593
  258MOL0     H34767   3.417   9.329   6.448 -3.0801 -0.8917 -0.2609
  258MOL0     H34768   3.438   9.167   6.525 -2.5043 -0.9851  0.1344
  258MOL0     H34769   3.595   9.129   6.296  1.7952  1.9937 -1.8757
  258MOL0     H34770   3.559   9.303   6.277 -0.5573 -0.3378 -0.5193
  258MOL0     H34771   3.660   9.365   6.479 -1.8600  0.5154 -0.2328
  258MOL0     H34772   3.668   9.210   6.545  3.1382  3.3609  2.7464
  258MOL0     H34773   3.813   9.131   6.361  2.8408 -0.9211  3.1392
  258MOL0     H34774   3.835   9.296   6.299  0.6451 -1.7090 -0.5343
  258MOL0     H34775   3.937   9.368   6.496  3.6687 -0.8818  0.1772
  258MOL0     H34776   3.909   9.209   6.578  2.2917  0.9377  0.6800
  258MOL0     H34777   4.076   9.267   6.341 -2.4728 -0.3431 -0.3248
  258MOL0     H34778   4.145   9.273   6.505 -0.7711  0.0498  0.2870
  258MOL0     H34779   4.174   9.032   6.394 -0.7157 -1.1188 -1.7617
  258MOL0     H34780   3.999   9.018   6.384 -1.6286  0.7521  1.4471
  258MOL0     H34781   4.258   9.086   6.659 -1.1160  2.3587  1.1137
  258MOL0     H34782   4.156   8.817   6.944  1.3755 -0.3173 -0.2692
  258MOL0     H34783   4.299   8.897   6.879 -0.1407  0.6606  0.1579
  258MOL0     H34784   4.192   9.127   6.966  0.4627 -0.3190 -1.6155
  258MOL0     H34785   4.255   9.004   7.084 -1.1397 -2.0038  0.7929
  258MOL0     H34786   4.016   8.924   7.098 -0.4426  0.6458  0.8640
  258MOL0     H34787   3.966   9.077   7.026 -0.7712 -1.5145  0.0673
  258MOL0     H34788   4.108   9.024   7.292 -2.8864 -0.9454  1.0113
  258MOL0     H34789   3.953   9.114   7.263 -0.8566 -1.7528 -0.4915
  258MOL0     H34790   4.299   9.377   7.183  1.7954 -1.3096 -0.3526
  258MOL0     H34791   4.448   9.617   7.386  1.0163  0.0335 -1.3638
  258MOL0     H34792   4.580   9.508   7.356  0.1492  1.2643  0.3985
  258MOL0     H34793   4.451   9.542   7.234 -3.8299  0.1412  1.3816
  258MOL0     H34794   4.745   9.230   7.688 -0.0226  0.7792 -1.3059
  258MOL0     H34795   4.926   9.283   7.850 -1.2221 -0.6232 -0.8440
  258MOL0     H34796   4.840   9.510   8.242 -2.4235 -0.8052  0.1107
  258MOL0     H34797   4.785   9.346   8.234  0.1131  0.3881  0.1730
  258MOL0     H34798   5.021   9.274   8.253  1.0796  1.3510 -2.6910
  258MOL0     H34799   5.072   9.441   8.284 -0.4028  0.8756  2.1785
  258MOL0     H34800   4.873   9.292   8.451  2.0310 -1.4523 -0.1686
  258MOL0     H34801   4.912   9.463   8.460  1.2271  0.6620 -0.0778
  258MOL0     H34802   5.096   9.246   8.504 -4.9834 -1.4535  0.2113
  258MOL0     H34803   5.156   9.409   8.511 -0.2309  0.1618  0.2605
  258MOL0     H34804   4.980   9.243   8.690 -1.2420  1.0768 -3.0236
  258MOL0     H34805   4.939   9.410   8.695  0.3438 -0.3433  1.2238
  258MOL0     H34806   5.197   9.442   8.745 -1.9348  1.1763  0.3016
  258MOL0     H34807   5.108   9.375   8.880  1.4172  1.1006  0.7951
  258MOL0     H34808   5.320   9.279   8.865  1.6302  0.2701  0.1823
  258MOL0     H34809   5.317   9.244   8.692 -0.8553  2.0187  0.1615
  258MOL0     H34810   5.140   9.072   8.735  0.8171  0.8061 -0.7565
  258MOL0     H34811   5.134   9.105   8.898 -0.6718 -2.3401 -1.4728
  258MOL0     H34812   4.639   9.481   8.094  2.8779  0.2791  0.2875
  258MOL0     H34813   4.458   9.411   7.945 -0.2374  0.6884 -1.7122
  258MOL0     H34814   4.272   9.227   7.651  0.4859  1.1680  0.0320
  258MOL0     H34815   4.114   9.142   7.468  0.8583 -0.2877 -1.6125
  258MOL0     H34816   3.137   9.030   6.248 -1.2050  0.1270  0.2980
  258MOL0     H34817   2.936   9.000   6.124 -1.5901  0.8319  1.2164
  258MOL0     H34818   2.461   9.162   6.010  1.6730  2.7392  0.1359
  258MOL0     H34819   2.290   9.169   5.835  0.5242  0.7748  3.8302
  258MOL0     H34820   2.281   9.023   5.421 -2.1624  4.2006 -0.5973
  258MOL0     H34821   2.316   8.945   5.579  1.2081  0.3613  2.0192
  258MOL0     H34822   2.069   9.122   5.517 -4.5481 -1.6477 -0.7855
  258MOL0     H34823   2.096   9.024   5.660 -3.3267 -0.1291 -1.1804
  258MOL0     H34824   2.083   8.826   5.565 -1.4560 -0.4178 -0.3394
  258MOL0     H34825   2.074   8.887   5.396  1.2800 -0.2472 -0.3157
  258MOL0     H34826   1.864   9.021   5.468  0.5638  1.3006  0.3845
  258MOL0     H34827   1.876   8.919   5.620 -0.1647 -2.5952 -1.5491
  258MOL0     H34828   1.676   8.660   5.374  0.0985  0.1092 -0.6024
  258MOL0     H34829   2.597   9.057   5.545  2.0275 -1.5533  0.7987
  258MOL0     H34830   2.754   9.058   5.711 -0.3651 -0.8215 -2.9549
  259MOL0     O34831   4.621   3.188   1.714 -0.9815 -1.1758 -0.2486
  259MOL0     C34832   4.552   3.181   1.811 -0.2338  0.2576  0.0027
  259MOL0     O34833   4.480   3.074   1.834  0.7510 -0.1866  0.1075
  259MOL0     C34834   4.457   2.971   1.746  0.0176 -0.2985  0.1697
  259MOL0     C34835   4.426   3.001   1.611 -0.5358  0.0152 -0.6536
  259MOL0     C34836   4.431   2.898   1.511  0.0614  0.4149  0.3871
  259MOL0     C34837   4.458   2.770   1.545 -0.4002 -0.1710 -0.3632
  259MOL0     O34838   4.501   2.693   1.439  0.2562  0.6179  0.5689
  259MOL0     C34839   4.539   2.561   1.469  0.3839  0.0418 -0.3654
  259MOL0     C34840   4.564   2.499   1.331 -0.0591 -1.1406  0.6848
  259MOL0     C34841   4.439   2.465   1.243  0.3307  1.4982 -0.3685
  259MOL0     C34842   4.476   2.377   1.127 -0.0402  0.7457  0.0833
  259MOL0     C34843   4.349   2.342   1.054 -0.4964 -0.0881 -0.6346
  259MOL0     C34844   4.371   2.252   0.934 -0.4199  1.2254 -0.7703
  259MOL0     C34845   4.446   2.328   0.825  0.0811  0.1941 -0.1103
  259MOL0     C34846   4.450   2.251   0.690 -0.1315 -0.2555  0.5536
  259MOL0     N34847   4.327   2.238   0.613 -0.3666 -0.3292 -0.5785
  259MOL0     C34848   4.217   2.169   0.652 -0.4420 -0.0770  0.7270
  259MOL0     C34849   4.117   2.202   0.564  0.4645  0.5985  0.1895
  259MOL0     C34850   3.980   2.156   0.575  0.0224  0.3303  0.0013
  259MOL0     C34851   3.928   2.082   0.450 -0.3172  0.3551  0.1719
  259MOL0     C34852   3.781   2.052   0.469 -0.0664  0.8686  0.0783
  259MOL0     C34853   3.735   1.948   0.373  0.2821 -0.4837 -0.0339
  259MOL0     O34854   3.604   1.965   0.325 -0.2849 -0.0723  0.1011
  259MOL0     C34855   3.504   1.868   0.325 -1.0085  0.3602 -0.1314
  259MOL0     C34856   3.412   1.837   0.224 -0.0364 -0.0113 -0.7495
  259MOL0     C34857   3.329   1.722   0.225  0.1575  0.0189 -0.4058
  259MOL0     C34858   3.257   1.687   0.092  0.5951  0.1310  0.3974
  259MOL0     C34859   3.316   1.641   0.344  0.4429  0.3622 -0.3644
  259MOL0     C34860   3.211   1.540   0.364  0.3144 -0.3014 -0.5289
  259MOL0     O34861   3.210   1.478   0.478 -0.4413  0.8323 -0.0085
  259MOL0     C34862   3.133   1.366   0.508 -0.8816 -0.3648 -0.0177
  259MOL0     C34863   3.067   1.283   0.415 -0.2426  0.9169 -0.3628
  259MOL0     C34864   2.996   1.168   0.452 -0.9529  0.1078 -0.4835
  259MOL0     C34865   2.973   1.144   0.586 -1.0754  0.1248 -0.7477
  259MOL0     O34866   2.906   1.051   0.643  1.0463  0.1891 -0.1677
  259MOL0     C34867   2.800   0.992   0.571  0.1056 -1.5910 -0.0089
  259MOL0     C34868   2.676   1.085   0.528 -0.4751 -0.0954  0.0475
  259MOL0     C34869   2.554   0.994   0.489  0.2665  0.8615 -0.3627
  259MOL0     C34870   2.421   1.063   0.515 -0.6090 -0.1851  0.1443
  259MOL0     C34871   2.302   0.969   0.496  0.3488  0.3449 -0.0910
  259MOL0     C34872   2.173   1.041   0.535  0.8606 -0.1469 -0.4378
  259MOL0     C34873   2.058   0.949   0.493  0.2594  0.1115 -0.2791
  259MOL0     C34874   1.922   1.017   0.492 -0.2288  0.2272  0.0687
  259MOL0    Cl34875   1.812   0.925   0.387  0.2864  0.3528  0.4336
  259MOL0     C34876   3.046   1.216   0.683  0.2807  0.1247  0.2287
  259MOL0     C34877   3.126   1.339   0.644 -0.1404 -0.3189 -0.3435
  259MOL0     O34878   3.113   1.535   0.282  0.5874 -0.3671  0.1930
  259MOL0     C34879   3.404   1.677   0.452 -0.6214  0.1853  0.4616
  259MOL0     C34880   3.497   1.784   0.432 -0.0453  0.0533 -0.0223
  259MOL0     N34881   4.168   2.284   0.468  0.1441  0.1739 -0.4365
  259MOL0     N34882   4.290   2.305   0.500 -0.5514  0.0212 -0.0406
  259MOL0     C34883   4.467   2.741   1.686  0.0006 -0.0599  0.7399
  259MOL0     C34884   4.456   2.836   1.779  0.0548  1.0031  0.2917
  259MOL0     C34885   4.562   3.291   1.911  0.0568  0.1156  0.4643
  259MOL0     C34886   4.658   3.379   1.897 -0.4986 -0.4586 -0.2452
  259MOL0     C34887   4.685   3.477   1.990 -0.2994  0.1085  0.7877
  259MOL0     C34888   4.589   3.502   2.096  0.9546  0.1228  0.3260
  259MOL0     O34889   4.583   3.596   2.188  0.2834  0.5789 -0.1302
  259MOL0     C34890   4.672   3.697   2.186 -0.3551  0.1370  0.3137
  259MOL0     C34891   4.632   3.788   2.299  0.7649  0.3519 -1.5193
  259MOL0     C34892   4.731   3.891   2.341  1.0240  0.8279  0.2758
  259MOL0     C34893   4.648   4.000   2.418  0.6730  0.0382 -0.3713
  259MOL0     C34894   4.741   4.097   2.479  0.5041  0.5014 -0.0284
  259MOL0     C34895   4.828   4.173   2.508  0.3632  0.5000  0.0995
  259MOL0     C34896   4.488   3.411   2.107  0.2487  0.1386  0.5274
  259MOL0     C34897   4.472   3.301   2.019 -0.0257  0.3231  0.1133
  259MOL0     H34898   4.420   3.106   1.584  1.8602  0.6018  0.8069
  259MOL0     H34899   4.427   2.930   1.408  0.2593 -0.0151  0.2425
  259MOL0     H34900   4.631   2.552   1.527  1.0976 -4.3375 -1.8214
  259MOL0     H34901   4.448   2.518   1.513 -0.4920  0.6435 -1.5210
  259MOL0     H34902   4.623   2.575   1.281 -0.9075 -0.6640  0.3875
  259MOL0     H34903   4.626   2.409   1.344  0.7168 -0.5218  1.3291
  259MOL0     H34904   4.365   2.414   1.306 -0.8418 -0.4193 -3.0711
  259MOL0     H34905   4.401   2.555   1.195 -1.6306  1.0011  0.1788
  259MOL0     H34906   4.552   2.421   1.063 -0.6953  0.0158 -1.2368
  259MOL0     H34907   4.509   2.286   1.178  0.5080  1.2373  0.6179
  259MOL0     H34908   4.282   2.283   1.118 -1.4791  1.5963 -0.0047
  259MOL0     H34909   4.290   2.433   1.038 -0.1125  0.3135  0.1912
  259MOL0     H34910   4.422   2.159   0.962 -0.5411  1.0240 -1.2071
  259MOL0     H34911   4.268   2.233   0.904 -1.0856  1.6197  1.1793
  259MOL0     H34912   4.400   2.426   0.811  1.0035  0.6486 -0.1017
  259MOL0     H34913   4.552   2.351   0.841  0.6554  0.9187 -3.9289
  259MOL0     H34914   4.493   2.150   0.691  0.8010  0.1391  1.4320
  259MOL0     H34915   4.513   2.310   0.623 -1.5735 -0.0939 -0.7154
  259MOL0     H34916   4.196   2.094   0.728 -1.6196  1.0011  1.5114
  259MOL0     H34917   3.971   2.100   0.668  2.0353  2.7738  1.7964
  259MOL0     H34918   3.927   2.250   0.590  0.2362  0.5452 -0.5349
  259MOL0     H34919   3.981   1.987   0.459  0.1617  0.1781 -3.2196
  259MOL0     H34920   3.954   2.131   0.355  0.6724  1.4966  0.9944
  259MOL0     H34921   3.720   2.142   0.459  1.7811  2.0751 -0.9433
  259MOL0     H34922   3.752   2.010   0.566 -1.8461  1.0910 -0.3165
  259MOL0     H34923   3.755   1.849   0.415  0.2678  0.4488  2.2701
  259MOL0     H34924   3.794   1.955   0.281 -1.4632  0.4242 -1.1423
  259MOL0     H34925   3.425   1.871   0.122 -0.6184 -2.5917 -1.7737
  259MOL0     H34926   3.156   1.728   0.105 -0.0216 -0.9565 -0.7045
  259MOL0     H34927   3.313   1.729   0.007  1.3546 -0.0118  0.8212
  259MOL0     H34928   3.241   1.581   0.072 -0.1031  0.0595  1.2748
  259MOL0     H34929   3.082   1.289   0.307  1.3830 -1.2779 -0.3280
  259MOL0     H34930   2.948   1.106   0.378  2.1639 -0.9836 -1.7671
  259MOL0     H34931   2.843   0.933   0.489  0.4141 -1.5185  0.0984
  259MOL0     H34932   2.757   0.917   0.638 -1.5465 -0.7720 -0.1157
  259MOL0     H34933   2.651   1.150   0.612  0.7095  2.1749 -1.2748
  259MOL0     H34934   2.709   1.156   0.452 -2.3714  1.5608  0.6823
  259MOL0     H34935   2.566   0.909   0.556  2.9182  1.3888 -0.0406
  259MOL0     H34936   2.548   0.964   0.384 -0.7025  0.3818 -0.1778
  259MOL0     H34937   2.424   1.109   0.615 -1.4279 -1.1725  0.6483
  259MOL0     H34938   2.424   1.141   0.438 -1.7689 -0.9962 -0.7438
  259MOL0     H34939   2.311   0.885   0.565  2.7485 -0.9442 -1.8242
  259MOL0     H34940   2.296   0.930   0.394 -0.0381  2.7167 -1.0498
  259MOL0     H34941   2.173   1.062   0.642 -3.2800 -1.7139  0.0790
  259MOL0     H34942   2.163   1.138   0.485 -3.3132 -2.3460 -4.7334
  259MOL0     H34943   2.050   0.865   0.563 -3.7718  1.1847  0.8227
  259MOL0     H34944   2.080   0.899   0.399  0.3532 -0.8590  0.2402
  259MOL0     H34945   1.940   1.120   0.460 -2.4435  1.0579  1.2530
  259MOL0     H34946   1.875   1.034   0.589  1.6068  2.2855  0.6815
  259MOL0     H34947   3.034   1.184   0.786  1.3645 -0.4384  0.1915
  259MOL0     H34948   3.180   1.395   0.719 -2.1139 -1.0047  1.7051
  259MOL0     H34949   3.414   1.615   0.540  0.7210 -0.8948 -0.4055
  259MOL0     H34950   3.557   1.824   0.513  0.8006 -1.9876  0.4124
  259MOL0     H34951   4.473   2.636   1.713 -3.1597 -0.2796  1.0031
  259MOL0     H34952   4.459   2.805   1.883 -1.3623 -1.1920 -0.2553
  259MOL0     H34953   4.726   3.377   1.812  0.0217  0.0276  0.1454
  259MOL0     H34954   4.766   3.547   1.974 -0.2573  0.6035  2.9146
  259MOL0     H34955   4.767   3.643   2.199  0.8264  1.4635 -1.9989
  259MOL0     H34956   4.684   3.752   2.092  0.0149  0.0537  0.3085
  259MOL0     H34957   4.599   3.727   2.383  0.2234 -1.7590 -3.1652
  259MOL0     H34958   4.552   3.850   2.259  0.2607  2.8727  2.7958
  259MOL0     H34959   4.775   3.944   2.257  1.6050  2.0088  1.2905
  259MOL0     H34960   4.817   3.851   2.395  2.0079  2.6652  0.1128
  259MOL0     H34961   4.585   3.953   2.494 -0.6267 -1.2802 -2.1788
  259MOL0     H34962   4.581   4.054   2.351 -0.0007 -1.1269 -0.6715
  259MOL0     H34963   4.910   4.237   2.534 -1.7536  4.1494 -1.4206
  259MOL0     H34964   4.430   3.419   2.199  0.0001  1.3787  0.2857
  259MOL0     H34965   4.395   3.228   2.040 -0.5992  0.9301  0.1463
  260MOL0     O34966   1.869   3.649   5.529 -0.5027 -0.3681 -1.4653
  260MOL0     C34967   1.906   3.572   5.436 -0.5113 -0.3067  0.3875
  260MOL0     O34968   1.934   3.624   5.308  0.5517 -0.7087 -0.0539
  260MOL0     C34969   1.907   3.757   5.277 -0.3345  0.3558 -0.0808
  260MOL0     C34970   2.019   3.812   5.210  0.1514  0.6208 -0.2869
  260MOL0     C34971   2.018   3.937   5.148 -0.0577 -0.2751  0.2334
  260MOL0     C34972   1.902   4.016   5.173  0.0018  0.3107 -0.2543
  260MOL0     O34973   1.885   4.137   5.123 -0.7568 -0.1091  0.0708
  260MOL0     C34974   1.988   4.231   5.153 -0.8556  0.3323 -0.9290
  260MOL0     C34975   1.918   4.369   5.153  0.0984 -0.2080 -0.2436
  260MOL0     C34976   1.862   4.405   5.019 -0.0651  0.3977 -0.2433
  260MOL0     C34977   1.806   4.557   5.020 -0.5776 -0.2127 -1.0160
  260MOL0     C34978   1.778   4.593   4.880 -0.8860 -0.0642 -0.4145
  260MOL0     C34979   1.734   4.746   4.878 -1.4024  0.4169 -0.1967
  260MOL0     C34980   1.635   4.769   4.751  0.0650 -0.2256  0.9900
  260MOL0     C34981   1.710   4.746   4.622  0.8564  0.3751 -0.3317
  260MOL0     N34982   1.642   4.797   4.500  0.2194  0.1241 -0.5681
  260MOL0     C34983   1.685   4.909   4.431  0.4662 -1.1437 -0.0070
  260MOL0     C34984   1.599   4.924   4.327  0.1047  0.7233  0.3142
  260MOL0     C34985   1.599   5.030   4.220  0.0294  0.2133 -0.4253
  260MOL0     C34986   1.731   5.003   4.132 -0.1901  0.6023 -0.7210
  260MOL0     C34987   1.702   4.933   3.997  0.3121  0.5648  0.2595
  260MOL0     C34988   1.638   4.804   4.007 -0.5205 -0.5801 -0.2903
  260MOL0     O34989   1.633   4.730   3.883 -1.5693 -0.5126 -0.6719
  260MOL0     C34990   1.531   4.742   3.796  0.0650 -0.1156 -0.4344
  260MOL0     C34991   1.405   4.733   3.852  0.4261  0.1538  0.6666
  260MOL0     C34992   1.288   4.740   3.772 -0.2990  0.3630  0.4276
  260MOL0     C34993   1.156   4.723   3.840  0.1011  1.3179 -0.0673
  260MOL0     C34994   1.299   4.755   3.627 -1.0888 -0.0456  0.1239
  260MOL0     C34995   1.190   4.767   3.525  0.7550  0.1095 -0.3869
  260MOL0     O34996   1.217   4.792   3.397 -0.0588  0.4364 -0.3787
  260MOL0     C34997   1.112   4.812   3.312  0.9376 -0.4985  0.6076
  260MOL0     C34998   1.140   4.782   3.176 -0.3479 -0.1364 -0.2458
  260MOL0     C34999   1.047   4.794   3.074  0.0626  0.3422  0.7288
  260MOL0     C35000   0.913   4.841   3.098  0.2892 -0.5204 -0.8955
  260MOL0     O35001   0.823   4.858   2.990  0.4823  0.5109  0.1149
  260MOL0     C35002   0.706   4.933   3.025 -0.1921  0.1384  0.3269
  260MOL0     C35003   0.643   4.946   2.890  0.6474  0.4681  0.6253
  260MOL0     C35004   0.553   5.065   2.876  0.7380  0.3086  0.0731
  260MOL0     C35005   0.467   5.044   2.743 -0.4821 -0.3381 -0.7636
  260MOL0     C35006   0.402   5.180   2.697  0.6519  0.9132 -0.5027
  260MOL0     C35007   0.310   5.248   2.799 -0.7851 -0.2788 -0.4312
  260MOL0     C35008   0.169   5.200   2.781  0.6308  0.0679  0.1543
  260MOL0     C35009   0.089   5.228   2.916  0.2099 -0.4144  0.6910
  260MOL0    Cl35010   0.128   5.136   3.068  0.0359 -0.4806 -0.1425
  260MOL0     C35011   0.886   4.863   3.230  0.7951 -0.5646 -0.5782
  260MOL0     C35012   0.980   4.854   3.337 -0.1280  0.7034  0.0842
  260MOL0     O35013   1.081   4.735   3.567 -0.1750  0.3587  0.1607
  260MOL0     C35014   1.429   4.761   3.576  0.4525 -0.1571 -1.0902
  260MOL0     C35015   1.540   4.756   3.658 -0.0497  0.6289  0.5891
  260MOL0     N35016   1.507   4.815   4.344  0.7240 -0.6643  0.1226
  260MOL0     N35017   1.523   4.756   4.456  0.2614  0.6180  0.2428
  260MOL0     C35018   1.788   3.957   5.240 -0.1207 -0.3855 -0.3155
  260MOL0     C35019   1.790   3.825   5.290 -0.6542 -0.2346 -0.3891
  260MOL0     C35020   1.922   3.417   5.453  0.4630 -0.4237  0.3602
  260MOL0     C35021   1.902   3.350   5.577  0.4132  1.1603  0.4574
  260MOL0     C35022   1.925   3.211   5.586  0.0290  0.6072  0.3837
  260MOL0     C35023   1.936   3.130   5.475 -0.5228  0.0851  0.2968
  260MOL0     O35024   1.933   2.998   5.497 -0.5501 -0.1414  0.0088
  260MOL0     C35025   1.931   2.904   5.388  0.2269 -0.1102 -0.3407
  260MOL0     C35026   1.908   2.764   5.417 -0.3920 -0.0557 -0.2228
  260MOL0     C35027   1.969   2.711   5.554  0.6019  0.3104  0.1314
  260MOL0     C35028   2.025   2.571   5.543  0.0201  0.7898 -0.2144
  260MOL0     C35029   2.054   2.517   5.681 -0.8647 -0.2607  0.4756
  260MOL0     C35030   2.069   2.486   5.796 -1.0253  0.2969  0.2661
  260MOL0     C35031   1.946   3.199   5.347  0.0826 -0.3107 -0.2284
  260MOL0     C35032   1.954   3.342   5.335  0.6673  0.1703  0.3476
  260MOL0     H35033   2.105   3.747   5.221 -1.6282 -1.6195  1.3285
  260MOL0     H35034   2.107   3.982   5.105  0.3009  0.3546  1.5815
  260MOL0     H35035   2.044   4.213   5.245  1.6656  0.4815 -2.3717
  260MOL0     H35036   2.059   4.230   5.070 -0.2056 -3.2400 -0.4918
  260MOL0     H35037   1.829   4.354   5.215 -0.9230  0.1476 -1.5712
  260MOL0     H35038   1.981   4.450   5.189 -2.1687  0.7654  1.7582
  260MOL0     H35039   1.945   4.402   4.948  2.1508  0.8683  2.1802
  260MOL0     H35040   1.793   4.330   4.979  1.7595 -0.8689 -1.1588
  260MOL0     H35041   1.714   4.550   5.080  0.7964 -1.7619  1.0895
  260MOL0     H35042   1.875   4.627   5.067  1.2394 -2.3737 -0.2711
  260MOL0     H35043   1.864   4.586   4.813  0.5308  2.4472  1.0226
  260MOL0     H35044   1.702   4.527   4.838 -3.4719  3.6255 -2.0442
  260MOL0     H35045   1.683   4.764   4.972 -0.7818  1.3954 -0.0357
  260MOL0     H35046   1.824   4.807   4.867  0.1193 -1.6296  0.1752
  260MOL0     H35047   1.550   4.701   4.763  0.2371 -0.6314 -0.0022
  260MOL0     H35048   1.601   4.872   4.740 -2.1447 -0.9552  0.5635
  260MOL0     H35049   1.716   4.638   4.607 -0.5311  0.2502 -0.1479
  260MOL0     H35050   1.813   4.781   4.634  0.6361  1.3307 -1.1275
  260MOL0     H35051   1.765   4.979   4.452  1.4991 -2.3767  0.2723
  260MOL0     H35052   1.509   5.028   4.159  1.2046  2.6555 -2.4117
  260MOL0     H35053   1.626   5.126   4.263 -0.9006  0.2808  0.0408
  260MOL0     H35054   1.796   4.933   4.186  1.9460  1.6390 -1.8065
  260MOL0     H35055   1.786   5.096   4.120  3.5151 -1.4440 -1.0907
  260MOL0     H35056   1.798   4.924   3.945 -0.2539  0.2001 -0.7734
  260MOL0     H35057   1.644   5.003   3.936  2.9410  3.2625  0.6214
  260MOL0     H35058   1.539   4.814   4.052 -0.9979 -0.8148 -1.2539
  260MOL0     H35059   1.697   4.737   4.071  0.7046  1.1710  0.5054
  260MOL0     H35060   1.389   4.716   3.958 -3.4602 -1.3164  0.0212
  260MOL0     H35061   1.108   4.821   3.841 -0.3720  1.0882 -0.0054
  260MOL0     H35062   1.105   4.641   3.788 -3.3822  2.7484  0.8218
  260MOL0     H35063   1.167   4.679   3.940  0.5194  0.8425 -0.3176
  260MOL0     H35064   1.240   4.751   3.147  0.3864  0.0818  1.9008
  260MOL0     H35065   1.077   4.780   2.971 -2.1038 -0.0754  0.1130
  260MOL0     H35066   0.638   4.880   3.093 -2.1419  3.2181  0.9740
  260MOL0     H35067   0.734   5.032   3.063  3.3383 -1.0912  1.2743
  260MOL0     H35068   0.723   4.957   2.817  0.4786  2.0478  0.6488
  260MOL0     H35069   0.583   4.855   2.878 -0.7512  1.2860  1.0934
  260MOL0     H35070   0.616   5.155   2.871  1.7468 -0.4281 -0.7104
  260MOL0     H35071   0.491   5.072   2.966 -0.1332  0.6031 -0.5471
  260MOL0     H35072   0.542   5.009   2.671  1.9863  1.6283  0.6591
  260MOL0     H35073   0.381   4.979   2.758 -3.1194  3.0972  0.1362
  260MOL0     H35074   0.349   5.161   2.603 -0.3627  0.4539  0.1526
  260MOL0     H35075   0.490   5.238   2.665  1.1109 -0.8681 -2.7601
  260MOL0     H35076   0.331   5.233   2.905 -2.3586 -2.6170 -0.3824
  260MOL0     H35077   0.305   5.354   2.773  2.0669  0.2202  0.7841
  260MOL0     H35078   0.179   5.092   2.769 -1.1681 -0.0400 -0.6445
  260MOL0     H35079   0.129   5.249   2.692 -1.1119  0.2668  1.0115
  260MOL0     H35080  -0.014   5.203   2.889  0.9907 -2.7191 -0.4415
  260MOL0     H35081   0.105   5.334   2.938  2.5665 -0.5730  0.0056
  260MOL0     H35082   0.792   4.896   3.272  1.1400 -1.7280  1.2145
  260MOL0     H35083   0.946   4.882   3.436 -5.9480  0.3918 -1.4308
  260MOL0     H35084   1.454   4.776   3.472  0.7417 -2.7807 -1.4660
  260MOL0     H35085   1.643   4.767   3.626  0.3681 -0.3577  1.5237
  260MOL0     H35086   1.691   4.004   5.234 -0.7182 -1.6707 -1.5351
  260MOL0     H35087   1.697   3.789   5.332 -1.4018  2.2669  0.3050
  260MOL0     H35088   1.870   3.406   5.664 -3.1495  2.1205 -1.2589
  260MOL0     H35089   1.916   3.153   5.678  0.3223 -0.5269 -0.2878
  260MOL0     H35090   1.860   2.944   5.315 -1.0082 -0.2894  0.7238
  260MOL0     H35091   2.030   2.908   5.340  1.2304  0.2948  1.6651
  260MOL0     H35092   1.939   2.704   5.331  1.3081 -1.5347  1.3404
  260MOL0     H35093   1.801   2.744   5.429  0.0341 -2.9866 -0.4786
  260MOL0     H35094   1.900   2.702   5.639 -0.3487 -1.1591 -0.7585
  260MOL0     H35095   2.054   2.778   5.567 -0.9097  2.1680  1.0259
  260MOL0     H35096   2.117   2.554   5.486  0.6034  2.5748  0.1406
  260MOL0     H35097   1.946   2.511   5.497 -0.2644  1.4064 -0.5271
  260MOL0     H35098   2.072   2.470   5.902 -1.0461  2.0703  0.5566
  260MOL0     H35099   1.967   3.134   5.262  0.2340 -0.0449 -0.3949
  260MOL0     H35100   1.982   3.383   5.238  1.3112  0.0068  0.4563
  261MOL0     O35101  10.311   8.764   3.254 -0.8765 -0.1767  0.0138
  261MOL0     C35102  10.281   8.838   3.340  0.8166  0.4585 -0.7332
  261MOL0     O35103  10.201   8.795   3.453  1.0479 -0.0505  0.0849
  261MOL0     C35104  10.155   8.665   3.482 -0.7820  0.1903 -0.2127
  261MOL0     C35105  10.051   8.643   3.573  0.3488 -0.6951  0.0834
  261MOL0     C35106  10.000   8.510   3.599  0.3641 -0.6836  0.0633
  261MOL0     C35107  10.050   8.398   3.551 -0.3245  0.0138 -0.3868
  261MOL0     O35108   9.981   8.285   3.579 -0.7575 -0.8273 -0.0684
  261MOL0     C35109  10.043   8.151   3.547  0.5112  0.1294 -0.2524
  261MOL0     C35110  10.002   8.086   3.419 -0.1973 -0.4843  0.2370
  261MOL0     C35111   9.861   8.037   3.401 -0.4769  0.1207 -0.0374
  261MOL0     C35112   9.827   8.033   3.252 -0.6373 -0.2961  0.5146
  261MOL0     C35113   9.680   8.007   3.235  0.3037 -0.2910  0.1392
  261MOL0     C35114   9.642   8.001   3.086  0.5102 -0.5535  0.1924
  261MOL0     C35115   9.686   8.116   3.002 -1.7047  0.2532  0.3235
  261MOL0     C35116   9.636   8.114   2.860  0.3070  0.3475  0.7619
  261MOL0     N35117   9.506   8.186   2.841 -0.3088 -0.5299  0.0634
  261MOL0     C35118   9.386   8.146   2.899  0.4456  0.0897 -0.3032
  261MOL0     C35119   9.308   8.261   2.876 -1.1193  0.3502 -1.0430
  261MOL0     C35120   9.173   8.273   2.952  0.0028  0.8171  0.4054
  261MOL0     C35121   9.052   8.306   2.853  0.3259  0.6159 -0.2615
  261MOL0     C35122   9.071   8.429   2.768 -0.5074 -0.3602  0.0204
  261MOL0     C35123   8.956   8.442   2.671  0.8162  0.2112 -0.4527
  261MOL0     O35124   8.830   8.460   2.741 -0.0194 -0.0183 -0.6049
  261MOL0     C35125   8.781   8.581   2.779 -0.6952  0.5636  0.2034
  261MOL0     C35126   8.641   8.587   2.806  0.2627 -0.0834  1.2837
  261MOL0     C35127   8.584   8.704   2.847  0.0574 -0.2707  0.6021
  261MOL0     C35128   8.432   8.697   2.857  0.3276  0.1862  0.0549
  261MOL0     C35129   8.666   8.818   2.865 -0.6600  0.1928 -0.6583
  261MOL0     C35130   8.612   8.948   2.918  0.6141 -0.7022 -1.0966
  261MOL0     O35131   8.663   9.064   2.882  0.3698  0.1542  0.0257
  261MOL0     C35132   8.610   9.189   2.906  0.7326 -1.0191  0.1578
  261MOL0     C35133   8.702   9.296   2.915 -0.1166  0.6839 -1.2893
  261MOL0     C35134   8.659   9.431   2.928 -1.1192 -0.5600  0.0269
  261MOL0     C35135   8.528   9.456   2.960  0.1854 -0.3924  0.3240
  261MOL0     O35136   8.512   9.589   2.985  0.5468 -0.9679 -0.0432
  261MOL0     C35137   8.403   9.636   3.060 -0.8022 -0.4496 -1.2253
  261MOL0     C35138   8.304   9.724   2.983  0.4539  1.3709  0.4169
  261MOL0     C35139   8.204   9.647   2.893  0.3211  0.4600 -0.0246
  261MOL0     C35140   8.119   9.716   2.781 -0.2623 -0.1717  0.1328
  261MOL0     C35141   8.036   9.637   2.680  0.4362  0.7776  0.3637
  261MOL0     C35142   8.128   9.544   2.588  0.3268 -0.4533 -0.0354
  261MOL0     C35143   8.210   9.623   2.490  0.6526  0.5204 -0.3821
  261MOL0     C35144   8.142   9.733   2.417  0.2570 -0.9214  0.0965
  261MOL0    Cl35145   8.269   9.791   2.296 -0.0302  0.0540  0.1238
  261MOL0     C35146   8.434   9.351   2.960 -0.0731  0.2265 -0.5431
  261MOL0     C35147   8.475   9.220   2.936 -0.4822  0.2152 -0.1643
  261MOL0     O35148   8.520   8.948   3.002 -0.0893  0.2027  0.0443
  261MOL0     C35149   8.806   8.810   2.830  0.5202  0.5764 -0.1724
  261MOL0     C35150   8.855   8.695   2.782  0.0324  0.7601  0.0652
  261MOL0     N35151   9.375   8.359   2.814  1.3689 -0.0100 -0.6462
  261MOL0     N35152   9.492   8.318   2.796 -0.4574 -0.1147  0.3758
  261MOL0     C35153  10.161   8.417   3.459  0.6312  0.1421  0.9533
  261MOL0     C35154  10.214   8.549   3.430 -0.4145  0.0977  0.0999
  261MOL0     C35155  10.333   8.965   3.329 -0.0888 -0.9426  0.9751
  261MOL0     C35156  10.359   9.040   3.209 -0.9092  0.1205  0.0318
  261MOL0     C35157  10.439   9.155   3.194 -0.0805  0.4444  0.1362
  261MOL0     C35158  10.482   9.210   3.311  0.1403 -0.7162  0.8643
  261MOL0     O35159  10.557   9.324   3.291  0.4749  0.1097  0.2214
  261MOL0     C35160  10.517   9.436   3.360 -0.2991 -0.8241  0.0745
  261MOL0     C35161  10.615   9.554   3.346  0.0308  0.0309  0.6006
  261MOL0     C35162  10.667   9.589   3.207  0.6501  0.1089  0.0870
  261MOL0     C35163  10.790   9.681   3.217  0.3026  0.1583  0.0447
  261MOL0     C35164  10.901   9.614   3.283  0.4397 -0.9734 -0.0186
  261MOL0     C35165  10.988   9.555   3.343 -0.3427 -0.4350  0.1906
  261MOL0     C35166  10.455   9.152   3.434  0.2873 -0.7382  0.5129
  261MOL0     C35167  10.385   9.033   3.442 -0.5776 -0.4112  0.9031
  261MOL0     H35168  10.005   8.729   3.620 -0.8219 -1.0616 -0.3616
  261MOL0     H35169   9.928   8.491   3.678  1.7451 -0.8715  1.3358
  261MOL0     H35170  10.151   8.162   3.538  0.5604 -0.9237 -1.1502
  261MOL0     H35171  10.009   8.072   3.614  1.5357 -0.8536 -0.8501
  261MOL0     H35172  10.014   8.160   3.340 -2.2650 -2.7088 -2.4061
  261MOL0     H35173  10.065   8.001   3.391 -0.9991 -0.7054 -0.9808
  261MOL0     H35174   9.853   7.939   3.449  1.4753  0.2572  0.6513
  261MOL0     H35175   9.801   8.115   3.448 -0.6205  1.4703 -2.2717
  261MOL0     H35176   9.857   8.126   3.203 -1.5187  0.7534  1.8611
  261MOL0     H35177   9.887   7.950   3.214 -1.7275 -0.8086 -0.1215
  261MOL0     H35178   9.657   7.906   3.269 -3.3133  0.2148 -0.3913
  261MOL0     H35179   9.622   8.079   3.294  1.4786 -1.4954  2.9354
  261MOL0     H35180   9.706   7.921   3.046  0.7080 -1.6120  2.4733
  261MOL0     H35181   9.536   7.986   3.063  1.4137 -1.6762 -4.2987
  261MOL0     H35182   9.658   8.209   3.052 -1.0278  0.6038  0.0632
  261MOL0     H35183   9.795   8.112   2.995 -1.5373  1.6940  1.4595
  261MOL0     H35184   9.639   8.014   2.817 -4.4429 -1.1303  3.1700
  261MOL0     H35185   9.707   8.168   2.797 -0.9933  0.1266 -0.9561
  261MOL0     H35186   9.352   8.060   2.956  0.6323 -3.4267 -4.9448
  261MOL0     H35187   9.138   8.193   3.017 -2.4021  0.0884 -1.6275
  261MOL0     H35188   9.182   8.362   3.015  0.0175  1.4889 -0.5270
  261MOL0     H35189   8.960   8.325   2.908  1.1480  4.4985  0.0665
  261MOL0     H35190   9.046   8.222   2.783 -0.2811 -0.4826  1.0678
  261MOL0     H35191   9.165   8.428   2.711 -0.6142  0.8458 -0.2027
  261MOL0     H35192   9.073   8.520   2.828 -1.8349  0.4949 -1.1756
  261MOL0     H35193   8.947   8.349   2.615  2.6913  0.3013 -0.9648
  261MOL0     H35194   8.974   8.513   2.589  4.2504 -1.1462 -1.0460
  261MOL0     H35195   8.596   8.488   2.805 -0.7158  0.2967 -1.3355
  261MOL0     H35196   8.405   8.708   2.963  4.4910 -0.5600  1.3743
  261MOL0     H35197   8.388   8.783   2.804  0.8559  1.9071  2.2362
  261MOL0     H35198   8.390   8.599   2.832 -2.5040  0.7513  2.0337
  261MOL0     H35199   8.804   9.266   2.891  0.0286 -1.3175  1.3669
  261MOL0     H35200   8.726   9.516   2.918  0.3474 -1.7843 -1.1250
  261MOL0     H35201   8.345   9.555   3.104 -0.7830  0.4203  0.4832
  261MOL0     H35202   8.433   9.699   3.144 -0.3264  2.8389 -3.6438
  261MOL0     H35203   8.253   9.788   3.056  1.3339  1.5045  0.9344
  261MOL0     H35204   8.365   9.783   2.914 -0.5383  0.4269 -1.3401
  261MOL0     H35205   8.129   9.593   2.953 -2.7019  1.4936 -2.5800
  261MOL0     H35206   8.271   9.575   2.846 -1.0523 -0.9558  0.0801
  261MOL0     H35207   8.048   9.781   2.833 -0.8142  0.0131 -0.8311
  261MOL0     H35208   8.189   9.776   2.722  0.8589 -0.2016  1.3822
  261MOL0     H35209   7.977   9.702   2.614 -1.6575 -2.2006 -0.9399
  261MOL0     H35210   7.970   9.575   2.742 -1.8429  3.7924  1.1707
  261MOL0     H35211   8.194   9.486   2.654 -1.6883 -2.4355  0.3915
  261MOL0     H35212   8.085   9.462   2.530  0.0044  0.5580 -1.2496
  261MOL0     H35213   8.262   9.556   2.421  0.5454 -0.5059  0.5090
  261MOL0     H35214   8.295   9.670   2.540  3.5642 -2.7588 -1.7849
  261MOL0     H35215   8.118   9.816   2.484  0.2255  1.2075 -2.3812
  261MOL0     H35216   8.056   9.688   2.367  0.0403 -0.3430 -0.0620
  261MOL0     H35217   8.327   9.359   2.972 -0.0711 -1.1201  0.5212
  261MOL0     H35218   8.402   9.141   2.923 -2.4051  2.2050 -2.4374
  261MOL0     H35219   8.855   8.907   2.833  0.6927  0.4973  2.5632
  261MOL0     H35220   8.957   8.704   2.746  0.9502 -3.0666  1.2222
  261MOL0     H35221  10.212   8.341   3.401 -0.6101  1.2794 -1.8365
  261MOL0     H35222  10.311   8.557   3.382 -0.7249 -1.7407 -0.9032
  261MOL0     H35223  10.331   8.998   3.113  1.1371 -1.2492 -0.0313
  261MOL0     H35224  10.461   9.198   3.097  0.7955  2.2803  1.0905
  261MOL0     H35225  10.427   9.479   3.314  1.6446  2.9334 -0.6405
  261MOL0     H35226  10.504   9.422   3.468  0.6734  0.6913  0.4179
  261MOL0     H35227  10.696   9.524   3.414  0.0238  1.9811  1.5312
  261MOL0     H35228  10.557   9.633   3.394  1.0742  2.6973 -2.2582
  261MOL0     H35229  10.584   9.632   3.151  0.0168 -1.3428 -0.1328
  261MOL0     H35230  10.694   9.503   3.145  0.1514 -1.0651  1.4274
  261MOL0     H35231  10.778   9.779   3.263 -0.0747  0.4137 -0.5816
  261MOL0     H35232  10.830   9.693   3.115  1.0253 -3.1002 -0.1677
  261MOL0     H35233  11.068   9.493   3.377  2.7623  2.5320 -1.1095
  261MOL0     H35234  10.498   9.202   3.520  0.1502 -3.8253  2.5270
  261MOL0     H35235  10.385   8.979   3.536  0.6042  1.5453  2.0901
  262MOL0     O35236   3.594   5.672   8.194 -0.1762  0.6332  0.9323
  262MOL0     C35237   3.688   5.743   8.230 -0.4759 -0.3387 -0.5196
  262MOL0     O35238   3.792   5.791   8.151 -1.0806  0.4670  0.2337
  262MOL0     C35239   3.791   5.775   8.012 -1.1626  0.5199 -0.6891
  262MOL0     C35240   3.675   5.782   7.934  0.1402  0.4951  0.4836
  262MOL0     C35241   3.681   5.752   7.796 -0.6809 -0.4148  0.2739
  262MOL0     C35242   3.802   5.730   7.725  0.3337 -0.7890 -0.7985
  262MOL0     O35243   3.801   5.729   7.588  0.1042  0.5183  0.4971
  262MOL0     C35244   3.825   5.604   7.530 -0.0531  0.0637 -0.2626
  262MOL0     C35245   3.707   5.587   7.428 -0.1389  0.1675 -0.6273
  262MOL0     C35246   3.579   5.535   7.502 -0.0772  0.5785 -0.5617
  262MOL0     C35247   3.476   5.495   7.393 -0.4215 -0.1355  0.5510
  262MOL0     C35248   3.355   5.420   7.435  0.2495 -0.3010  0.1922
  262MOL0     C35249   3.265   5.394   7.304 -0.1590  0.6381 -0.1564
  262MOL0     C35250   3.115   5.379   7.338  0.5758  0.7662 -0.1174
  262MOL0     C35251   3.095   5.256   7.416 -0.7952  0.5551 -0.1596
  262MOL0     N35252   2.952   5.221   7.435 -0.0792 -0.0964 -0.2036
  262MOL0     C35253   2.905   5.207   7.566  0.1813  0.2650  0.4381
  262MOL0     C35254   2.775   5.184   7.542 -0.4831  0.2047 -0.1860
  262MOL0     C35255   2.686   5.156   7.647 -0.0661  0.2415  0.7582
  262MOL0     C35256   2.650   5.005   7.635  0.7804  0.0155 -1.0131
  262MOL0     C35257   2.523   4.987   7.732 -0.9225  0.5720 -0.4050
  262MOL0     C35258   2.498   4.845   7.751 -0.2968  0.1888  0.0094
  262MOL0     O35259   2.386   4.794   7.668 -0.0890  0.2427  0.4860
  262MOL0     C35260   2.308   4.700   7.731  0.0985  0.9454  0.3246
  262MOL0     C35261   2.183   4.722   7.779  0.9857  0.2074  1.0232
  262MOL0     C35262   2.105   4.634   7.855 -0.2386  0.0769  0.5070
  262MOL0     C35263   1.971   4.680   7.900 -0.3683  0.6320 -0.1884
  262MOL0     C35264   2.159   4.509   7.882  0.0377  0.4097 -1.2491
  262MOL0     C35265   2.093   4.401   7.966  0.3979  0.0743  0.8695
  262MOL0     O35266   2.010   4.433   8.070 -0.5725 -0.6109 -0.0547
  262MOL0     C35267   1.957   4.345   8.162  0.0628 -0.5267  0.9307
  262MOL0     C35268   1.901   4.405   8.266 -0.9862 -0.7832 -0.2265
  262MOL0     C35269   1.850   4.336   8.377 -0.4064 -1.2847 -0.0469
  262MOL0     C35270   1.844   4.197   8.386  0.0207 -0.1024  0.1598
  262MOL0     O35271   1.778   4.128   8.494 -0.2817  0.4836  0.4890
  262MOL0     C35272   1.710   4.203   8.598  0.2742 -0.7748  0.7367
  262MOL0     C35273   1.600   4.115   8.648  0.9151  1.0937  0.8460
  262MOL0     C35274   1.508   4.177   8.748 -0.1323  0.2421 -0.0163
  262MOL0     C35275   1.563   4.182   8.899  0.0374 -0.4619  0.4277
  262MOL0     C35276   1.438   4.203   8.982  0.0141  0.5069 -0.1400
  262MOL0     C35277   1.398   4.362   8.989 -0.0718  0.3750 -0.1113
  262MOL0     C35278   1.305   4.395   9.105  1.0522  0.3529 -0.4941
  262MOL0     C35279   1.168   4.328   9.067  1.2811 -0.2927 -0.3707
  262MOL0    Cl35280   1.047   4.349   9.202  0.6036  0.2635  0.1794
  262MOL0     C35281   1.918   4.135   8.281  0.5255  0.3974 -0.0412
  262MOL0     C35282   1.966   4.205   8.171  0.2668 -0.0485 -0.6137
  262MOL0     O35283   2.113   4.283   7.929 -0.8768 -0.4879 -0.3823
  262MOL0     C35284   2.289   4.485   7.839 -0.1603  0.2952 -0.7176
  262MOL0     C35285   2.362   4.574   7.761 -0.4179 -0.1948 -0.4568
  262MOL0     N35286   2.751   5.183   7.402  0.4498 -0.2147  0.2340
  262MOL0     N35287   2.852   5.212   7.339  0.1885 -0.0065 -0.6806
  262MOL0     C35288   3.924   5.726   7.809 -0.2597  0.7677 -0.1263
  262MOL0     C35289   3.913   5.740   7.954 -0.0401 -0.1643 -0.4862
  262MOL0     C35290   3.678   5.800   8.372  0.0974 -0.1310  0.2474
  262MOL0     C35291   3.559   5.783   8.448  0.1155  0.1514 -0.2100
  262MOL0     C35292   3.553   5.832   8.578  0.0108 -0.1831 -0.1680
  262MOL0     C35293   3.659   5.910   8.638 -0.2436 -0.0917  0.8058
  262MOL0     O35294   3.656   5.947   8.770 -0.1208  0.0846 -0.1166
  262MOL0     C35295   3.734   6.059   8.815  0.1128 -0.0377 -1.2206
  262MOL0     C35296   3.684   6.198   8.773  0.0100 -0.9195 -0.2223
  262MOL0     C35297   3.773   6.309   8.817  0.3275 -0.7499 -0.2922
  262MOL0     C35298   3.739   6.449   8.783  0.6173 -0.8902  0.4926
  262MOL0     C35299   3.840   6.548   8.823 -0.5874  1.0786 -0.1363
  262MOL0     C35300   3.913   6.642   8.855 -0.0814 -0.3254  0.0471
  262MOL0     C35301   3.779   5.916   8.564  1.7469  0.7777  0.2605
  262MOL0     C35302   3.788   5.852   8.441 -0.9157  0.5130  0.2553
  262MOL0     H35303   3.584   5.811   7.985  1.4203  0.3572  3.0172
  262MOL0     H35304   3.603   5.756   7.722  1.0252 -3.4046 -1.9070
  262MOL0     H35305   3.915   5.614   7.470 -0.6531  2.0755 -0.9015
  262MOL0     H35306   3.839   5.521   7.600 -2.8946 -1.5251 -1.4010
  262MOL0     H35307   3.686   5.673   7.365 -0.5700 -0.7958 -1.8480
  262MOL0     H35308   3.731   5.498   7.369 -1.7749 -1.5363  1.0852
  262MOL0     H35309   3.613   5.450   7.562 -1.1589  1.3011  1.1623
  262MOL0     H35310   3.541   5.612   7.570  1.0473  0.5870  0.0808
  262MOL0     H35311   3.436   5.587   7.349 -4.4012 -0.9719  2.0164
  262MOL0     H35312   3.538   5.432   7.328  0.2241 -1.3089  2.2293
  262MOL0     H35313   3.382   5.322   7.476  0.7256  0.4739  1.7881
  262MOL0     H35314   3.300   5.478   7.510  0.9784  2.2427 -1.1434
  262MOL0     H35315   3.266   5.467   7.223 -3.3347  1.8830  0.7829
  262MOL0     H35316   3.305   5.301   7.262 -1.2414  1.7828 -4.1552
  262MOL0     H35317   3.068   5.458   7.397 -1.4611 -2.4486  2.8983
  262MOL0     H35318   3.055   5.372   7.246 -0.3588  0.9565  0.4714
  262MOL0     H35319   3.139   5.270   7.516  2.0128  2.0446 -1.5071
  262MOL0     H35320   3.151   5.177   7.365  4.2746  4.0475 -0.7678
  262MOL0     H35321   2.950   5.203   7.665  1.1472 -0.6187 -0.0117
  262MOL0     H35322   2.730   5.177   7.745  0.5198  0.1106  0.5283
  262MOL0     H35323   2.601   5.224   7.640  0.6089  1.1422  1.0844
  262MOL0     H35324   2.739   4.951   7.668 -1.1162 -1.7392  1.6853
  262MOL0     H35325   2.618   4.985   7.533 -0.0964  3.5848 -1.5735
  262MOL0     H35326   2.430   5.033   7.697  1.2894  3.3385 -3.2656
  262MOL0     H35327   2.549   5.037   7.826  0.1625 -0.9015  0.1072
  262MOL0     H35328   2.479   4.843   7.859  0.0766 -2.8611  0.1090
  262MOL0     H35329   2.590   4.790   7.731 -0.9286 -1.1664  0.6924
  262MOL0     H35330   2.136   4.815   7.751  0.3254 -0.4135  0.0362
  262MOL0     H35331   1.950   4.779   7.859  0.7793  0.5096 -1.1167
  262MOL0     H35332   1.902   4.602   7.867  0.9838 -1.4759  1.6943
  262MOL0     H35333   1.960   4.700   8.007 -2.7702  2.6400 -0.7020
  262MOL0     H35334   1.892   4.513   8.270 -0.5293 -0.7718  0.6265
  262MOL0     H35335   1.799   4.404   8.444 -1.2870  0.9110 -2.7933
  262MOL0     H35336   1.785   4.236   8.671  2.8326 -2.1713 -1.0841
  262MOL0     H35337   1.654   4.285   8.553  2.4977 -0.2097 -1.2476
  262MOL0     H35338   1.545   4.064   8.568  1.4872 -3.5388  3.1069
  262MOL0     H35339   1.665   4.035   8.684 -0.0873 -1.6500 -2.8512
  262MOL0     H35340   1.421   4.111   8.754  0.1804 -0.0683  1.6566
  262MOL0     H35341   1.471   4.272   8.711  0.5059  1.3047  1.9013
  262MOL0     H35342   1.602   4.084   8.926 -2.6078 -1.5338  0.5978
  262MOL0     H35343   1.638   4.255   8.931  0.0172 -1.9491  4.3106
  262MOL0     H35344   1.454   4.179   9.087 -0.6712  1.9227  0.3018
  262MOL0     H35345   1.353   4.145   8.946  0.3963  0.2007 -0.5769
  262MOL0     H35346   1.490   4.420   8.991 -0.1385  0.5080 -0.7519
  262MOL0     H35347   1.360   4.398   8.893 -3.3157  2.9884  1.9012
  262MOL0     H35348   1.292   4.504   9.112 -1.0898  0.0594  1.5346
  262MOL0     H35349   1.337   4.362   9.204 -0.3360 -1.2778 -0.5392
  262MOL0     H35350   1.179   4.219   9.058  0.5211 -0.3178 -1.1180
  262MOL0     H35351   1.126   4.365   8.974 -2.9662 -1.6715  0.7702
  262MOL0     H35352   1.935   4.028   8.279 -2.6616 -0.1950 -1.6160
  262MOL0     H35353   2.021   4.151   8.094 -1.9289 -2.2944 -0.7498
  262MOL0     H35354   2.344   4.392   7.852  4.3860  2.6440 -0.8395
  262MOL0     H35355   2.464   4.546   7.734  0.8956  3.2474  0.4549
  262MOL0     H35356   4.018   5.714   7.755  0.6846  1.0161  1.4075
  262MOL0     H35357   4.004   5.738   8.013  0.1022  0.9814 -0.6322
  262MOL0     H35358   3.464   5.758   8.401  0.2556  0.0157 -0.4234
  262MOL0     H35359   3.461   5.812   8.632 -0.2109  1.1106 -0.0505
  262MOL0     H35360   3.716   6.060   8.923 -0.9940 -1.0923 -1.3778
  262MOL0     H35361   3.842   6.048   8.798  0.8507 -2.0796  3.2643
  262MOL0     H35362   3.593   6.207   8.833  2.4176  1.8903  3.4420
  262MOL0     H35363   3.677   6.202   8.664 -2.0598  3.0525 -0.1616
  262MOL0     H35364   3.872   6.281   8.780  1.2668 -1.2676  2.3665
  262MOL0     H35365   3.779   6.287   8.924 -1.7215 -1.5851 -0.3008
  262MOL0     H35366   3.644   6.468   8.835  0.2678 -3.6557  1.0491
  262MOL0     H35367   3.723   6.468   8.676 -1.8086 -1.4713  0.6896
  262MOL0     H35368   3.985   6.700   8.909  0.9742 -1.6555  0.1386
  262MOL0     H35369   3.869   5.947   8.617  0.9107 -0.7261  2.7254
  262MOL0     H35370   3.884   5.846   8.392 -0.7095 -0.2001  0.7266
  263MOL0     O35371   8.687   9.580   9.927 -0.6487  0.7652 -0.4861
  263MOL0     C35372   8.808   9.563   9.941 -0.0481 -0.5605 -0.0009
  263MOL0     O35373   8.897   9.658   9.925  0.3244  0.6528  0.2021
  263MOL0     C35374   8.877   9.792   9.898  1.2754  0.7205 -0.0362
  263MOL0     C35375   8.909   9.850   9.780 -0.2378  0.1890  0.4784
  263MOL0     C35376   8.864   9.974   9.737 -0.4429  0.3365  0.0185
  263MOL0     C35377   8.782  10.049   9.823 -0.0969  0.3705 -0.5362
  263MOL0     O35378   8.728  10.172   9.779 -0.6622 -0.2607  0.1925
  263MOL0     C35379   8.793  10.286   9.830 -0.1994  0.3373 -0.5534
  263MOL0     C35380   8.723  10.418   9.781  1.3389 -0.3503  0.4217
  263MOL0     C35381   8.800  10.500   9.682 -0.1748 -0.2558  1.6191
  263MOL0     C35382   8.732  10.629   9.630  0.7996  0.2698 -0.6174
  263MOL0     C35383   8.819  10.737   9.568 -0.4645  0.0670 -0.0790
  263MOL0     C35384   8.748  10.878   9.554 -0.1869 -0.0618  0.7272
  263MOL0     C35385   8.838  10.987   9.495 -0.0212 -0.4189 -0.3477
  263MOL0     C35386   8.801  11.125   9.522  0.8327 -0.5731  0.5812
  263MOL0     N35387   8.871  11.219   9.428  0.3651 -0.2609 -0.6472
  263MOL0     C35388   8.879  11.204   9.293  0.4656 -0.1818  0.5708
  263MOL0     C35389   8.963  11.302   9.243  0.2629 -1.0802  0.1950
  263MOL0     C35390   9.001  11.322   9.097 -0.3602 -0.5060  0.5557
  263MOL0     C35391   9.097  11.221   9.030 -0.9192  0.1191  0.4452
  263MOL0     C35392   9.028  11.093   8.971  0.2738 -0.0164 -0.5393
  263MOL0     C35393   9.126  11.006   8.901  1.2611 -0.3065 -0.3144
  263MOL0     O35394   9.059  10.913   8.820 -0.7511 -0.6110  0.2302
  263MOL0     C35395   9.026  10.792   8.865 -0.4012 -0.2016 -0.1710
  263MOL0     C35396   8.983  10.703   8.771 -0.0466 -0.6534 -0.0250
  263MOL0     C35397   8.949  10.572   8.808 -1.4475 -0.1177 -1.1185
  263MOL0     C35398   8.937  10.473   8.705  0.6960  0.6953 -0.1769
  263MOL0     C35399   8.932  10.538   8.940 -0.6108 -0.3046 -0.3836
  263MOL0     C35400   8.869  10.417   8.992  0.3216 -0.2210 -0.4486
  263MOL0     O35401   8.854  10.322   8.906  0.2023  0.6093 -0.2734
  263MOL0     C35402   8.790  10.209   8.946  0.2151  0.8671 -1.0928
  263MOL0     C35403   8.855  10.086   8.923 -0.5778  0.9110 -0.6357
  263MOL0     C35404   8.798   9.958   8.950  0.1300  0.0846  0.7934
  263MOL0     C35405   8.668   9.957   9.014 -0.7021 -0.5612  0.5808
  263MOL0     O35406   8.608   9.837   9.057 -1.5459 -0.5958  0.5587
  263MOL0     C35407   8.662   9.712   9.014 -0.2055  0.6039 -0.0706
  263MOL0     C35408   8.571   9.599   9.077 -0.0532  0.1375  0.0345
  263MOL0     C35409   8.620   9.455   9.036  0.4003 -0.5616 -0.6471
  263MOL0     C35410   8.750   9.416   9.124  1.0963 -0.3017  0.1975
  263MOL0     C35411   8.773   9.270   9.087  0.0384  0.6571  0.4223
  263MOL0     C35412   8.898   9.219   9.162 -0.4214  0.3199 -0.6074
  263MOL0     C35413   8.920   9.072   9.127 -0.0384  0.6194  0.7766
  263MOL0     C35414   8.870   8.978   9.230 -1.2017  0.4893  0.4536
  263MOL0    Cl35415   8.850   8.827   9.149 -0.0427 -0.5128  0.1397
  263MOL0     C35416   8.602  10.083   9.040  0.2277  1.1273 -0.2508
  263MOL0     C35417   8.661  10.207   9.001  0.3315  1.1178  0.5529
  263MOL0     O35418   8.835  10.413   9.113 -0.0410 -0.1590  0.7680
  263MOL0     C35419   8.982  10.632   9.032  0.0486 -0.6966 -0.3222
  263MOL0     C35420   9.023  10.759   9.003 -0.3776  0.1313 -0.7228
  263MOL0     N35421   9.009  11.373   9.355 -0.3340  0.1161 -0.1083
  263MOL0     N35422   8.962  11.319   9.462  0.0212  0.1161 -0.9082
  263MOL0     C35423   8.736   9.993   9.942  0.1480 -0.1238 -0.0559
  263MOL0     C35424   8.783   9.866   9.979  0.1483 -0.6328  0.8733
  263MOL0     C35425   8.859   9.434  10.006  0.1560  0.1571 -0.1326
  263MOL0     C35426   8.972   9.429  10.083 -0.5327 -0.4206 -0.3476
  263MOL0     C35427   9.026   9.316  10.140 -0.2693  0.3720  0.5072
  263MOL0     C35428   8.955   9.193  10.127 -1.2207  0.1611 -0.4295
  263MOL0     O35429   8.998   9.083  10.194  0.9546  0.8561 -0.6579
  263MOL0     C35430   9.134   9.053  10.212 -0.8689  0.1705  0.3056
  263MOL0     C35431   9.171   8.907  10.184  1.1461 -0.6010  0.3335
  263MOL0     C35432   9.201   8.879  10.037  0.6751 -0.4601  1.5246
  263MOL0     C35433   9.329   8.938   9.984  0.5216  0.7055  1.0116
  263MOL0     C35434   9.447   8.903  10.068 -0.0910 -0.8553  0.0564
  263MOL0     C35435   9.537   8.861  10.135 -0.4853  0.2391  0.4714
  263MOL0     C35436   8.836   9.196  10.056  0.5101 -0.3320 -0.0395
  263MOL0     C35437   8.786   9.310   9.995 -0.0704 -0.1630  0.2893
  263MOL0     H35438   8.966   9.798   9.704  0.4324  2.1873 -0.4728
  263MOL0     H35439   8.887  10.016   9.640  0.6069  2.1681  0.9937
  263MOL0     H35440   8.816  10.280   9.937  0.2350  2.6888 -0.4534
  263MOL0     H35441   8.894  10.286   9.788  0.3926  0.8117  0.7950
  263MOL0     H35442   8.625  10.382   9.750  1.0043  1.0271 -0.2036
  263MOL0     H35443   8.700  10.485   9.864  1.0602  1.1386 -0.8197
  263MOL0     H35444   8.897  10.523   9.728  0.6830  0.4813 -0.4167
  263MOL0     H35445   8.826  10.434   9.599  2.2308  3.8929 -1.2860
  263MOL0     H35446   8.649  10.608   9.562 -0.8072 -1.0415  1.6019
  263MOL0     H35447   8.694  10.674   9.723  0.5993  0.8241 -0.9638
  263MOL0     H35448   8.914  10.751   9.620  1.6638  0.8724 -3.8433
  263MOL0     H35449   8.841  10.709   9.465 -1.9568  0.3649 -0.5061
  263MOL0     H35450   8.654  10.869   9.500 -1.1431  0.3114  2.2913
  263MOL0     H35451   8.727  10.908   9.657 -2.1519 -2.2928  1.0581
  263MOL0     H35452   8.942  10.979   9.528  0.6512  0.5641 -2.0765
  263MOL0     H35453   8.842  10.982   9.385  0.8004  1.5850 -0.4382
  263MOL0     H35454   8.809  11.141   9.630 -0.2643  0.1354  0.5735
  263MOL0     H35455   8.696  11.142   9.497  0.9943 -0.4471 -0.0236
  263MOL0     H35456   8.827  11.129   9.233 -2.3349  2.7194 -0.9317
  263MOL0     H35457   8.912  11.340   9.037 -0.2227  0.9614  0.7453
  263MOL0     H35458   9.041  11.423   9.085  0.0562 -0.8875 -1.5484
  263MOL0     H35459   9.164  11.187   9.110  2.0669 -0.1388 -1.9701
  263MOL0     H35460   9.149  11.266   8.945  1.0413 -1.0288  0.9780
  263MOL0     H35461   8.943  11.117   8.906 -0.0977  1.8425  0.5572
  263MOL0     H35462   8.993  11.033   9.055  0.0442  0.5215 -0.2449
  263MOL0     H35463   9.196  10.958   8.970  0.0451 -3.2029 -0.9383
  263MOL0     H35464   9.183  11.068   8.831  1.9943 -1.7065 -1.0113
  263MOL0     H35465   8.974  10.740   8.669 -0.8875 -3.1027 -0.9202
  263MOL0     H35466   8.980  10.521   8.617 -2.9677 -0.1490 -2.6662
  263MOL0     H35467   8.999  10.385   8.725 -0.9895  0.1231  3.4429
  263MOL0     H35468   8.832  10.446   8.685 -0.2280  1.5780  2.9443
  263MOL0     H35469   8.955  10.085   8.881 -0.0030  1.1964  0.6805
  263MOL0     H35470   8.843   9.869   8.908  0.7970  1.3921 -1.3909
  263MOL0     H35471   8.669   9.695   8.906  0.3488 -2.9684  0.4007
  263MOL0     H35472   8.765   9.703   9.050 -0.0160 -0.3116 -0.7997
  263MOL0     H35473   8.553   9.613   9.184 -1.3678 -1.8982  0.1324
  263MOL0     H35474   8.470   9.613   9.039 -0.1695 -0.4209  0.1199
  263MOL0     H35475   8.628   9.445   8.928  1.1436 -2.2202 -0.4754
  263MOL0     H35476   8.535   9.388   9.053  0.2156 -0.3035 -0.5409
  263MOL0     H35477   8.839   9.477   9.103  0.9295  0.4094  1.4689
  263MOL0     H35478   8.739   9.425   9.232 -1.0246  0.5901 -0.0432
  263MOL0     H35479   8.769   9.255   8.978 -3.1621 -0.8919  0.6563
  263MOL0     H35480   8.691   9.207   9.121  1.3049 -1.5662 -0.3749
  263MOL0     H35481   8.981   9.268   9.110 -0.6497  2.5934  1.0511
  263MOL0     H35482   8.906   9.215   9.271  3.2298  0.4512 -0.7665
  263MOL0     H35483   9.028   9.068   9.108 -0.3401  1.8392 -1.4292
  263MOL0     H35484   8.868   9.048   9.034  0.4307  1.0106  0.4104
  263MOL0     H35485   8.776   9.009   9.275 -2.3593 -1.2079 -0.6839
  263MOL0     H35486   8.944   8.972   9.311 -1.1787  1.4365  0.5151
  263MOL0     H35487   8.500  10.077   9.076  0.1715  1.1884 -0.3953
  263MOL0     H35488   8.606  10.299   9.016 -2.3479 -0.5786  1.8922
  263MOL0     H35489   8.982  10.598   9.135  2.3587  0.7704  0.2422
  263MOL0     H35490   9.064  10.818   9.085 -1.4784 -2.3483  1.7848
  263MOL0     H35491   8.680  10.061  10.004  0.2534 -1.0485  1.0969
  263MOL0     H35492   8.747   9.825  10.073  0.9437  0.4287  1.6576
  263MOL0     H35493   9.021   9.523  10.107  1.2324 -0.7918 -2.2110
  263MOL0     H35494   9.111   9.323  10.208 -0.6192 -3.8999  1.6558
  263MOL0     H35495   9.198   9.115  10.149  2.0783 -0.2833  2.6021
  263MOL0     H35496   9.154   9.073  10.318  1.3643 -0.2054 -0.0064
  263MOL0     H35497   9.092   8.846  10.228  1.3244  0.2655  1.9183
  263MOL0     H35498   9.263   8.881  10.236  2.8887  2.7247 -0.8339
  263MOL0     H35499   9.123   8.893   9.962  1.9854 -1.0494 -0.0304
  263MOL0     H35500   9.216   8.771  10.029  0.2667 -0.4199 -3.7636
  263MOL0     H35501   9.315   9.046   9.988 -1.0789  0.6648 -1.2129
  263MOL0     H35502   9.340   8.894   9.884  0.2578 -1.0575  1.7164
  263MOL0     H35503   9.613   8.819  10.198  0.7455 -0.2575 -1.2601
  263MOL0     H35504   8.775   9.106  10.049  0.1581 -0.4383  3.1490
  263MOL0     H35505   8.697   9.297   9.935 -0.8288 -0.0900  1.3902
  264MOL0     O35506   6.917   6.745   4.105 -0.6625 -0.3383  0.4040
  264MOL0     C35507   6.803   6.699   4.129  0.6901  0.2202 -0.5737
  264MOL0     O35508   6.730   6.713   4.245  0.1576 -0.1075 -0.0762
  264MOL0     C35509   6.784   6.755   4.359  0.5085 -0.3324 -0.4843
  264MOL0     C35510   6.783   6.675   4.473  0.3689  0.1673  0.4524
  264MOL0     C35511   6.826   6.715   4.600  0.1503  0.1712 -0.3399
  264MOL0     C35512   6.879   6.834   4.617 -0.6384 -0.7026 -0.6873
  264MOL0     O35513   6.912   6.889   4.739  0.2227 -0.6606  0.4665
  264MOL0     C35514   6.871   6.823   4.861 -1.0337  0.6967 -0.0601
  264MOL0     C35515   6.924   6.923   4.962  0.2816  1.2771 -0.6984
  264MOL0     C35516   7.075   6.924   4.989  0.5389 -0.6683  0.0832
  264MOL0     C35517   7.134   7.051   4.925 -0.9373 -0.5340 -0.2585
  264MOL0     C35518   7.295   7.053   4.924  0.3128 -0.8043  0.1624
  264MOL0     C35519   7.351   7.029   5.066 -0.5143 -0.7452  0.2614
  264MOL0     C35520   7.500   7.042   5.093  0.1520 -0.2827  0.0270
  264MOL0     C35521   7.595   6.987   4.988 -0.1204  0.0741  0.0275
  264MOL0     N35522   7.733   7.003   5.024 -0.5952 -0.0686 -0.9093
  264MOL0     C35523   7.824   7.098   4.990  0.0558 -0.2962  0.0874
  264MOL0     C35524   7.953   7.064   5.015 -0.3864  0.6221  0.5245
  264MOL0     C35525   8.084   7.137   5.018 -0.4440 -0.5452 -0.5198
  264MOL0     C35526   8.106   7.241   5.129  0.0442  0.6754  0.9382
  264MOL0     C35527   8.080   7.188   5.272  0.1555  1.0653  1.0184
  264MOL0     C35528   8.153   7.062   5.324 -0.5188  0.0545 -1.2441
  264MOL0     O35529   8.127   7.051   5.466  0.2360  0.1130 -0.5182
  264MOL0     C35530   8.230   7.008   5.534 -0.6995  0.8418  0.3309
  264MOL0     C35531   8.222   6.892   5.606 -0.9212  0.5309  0.5674
  264MOL0     C35532   8.324   6.839   5.688  0.2183  0.5696  0.5609
  264MOL0     C35533   8.280   6.717   5.760  0.3929 -0.3400 -0.7714
  264MOL0     C35534   8.438   6.915   5.705  0.3149  0.2755 -1.1157
  264MOL0     C35535   8.549   6.868   5.791  0.8897  0.4625  0.4872
  264MOL0     O35536   8.672   6.921   5.765 -0.6195  0.3247 -0.1112
  264MOL0     C35537   8.782   6.846   5.809  0.0642  0.2355  0.7683
  264MOL0     C35538   8.853   6.880   5.916  0.8897  0.0447 -0.6094
  264MOL0     C35539   8.969   6.811   5.947  0.8024 -0.6590  0.6621
  264MOL0     C35540   9.015   6.716   5.867 -0.2276  0.4908 -0.2751
  264MOL0     O35541   9.137   6.670   5.895 -0.6497  1.1864 -0.4620
  264MOL0     C35542   9.234   6.657   5.790 -1.0098  0.0143 -0.0182
  264MOL0     C35543   9.348   6.570   5.848 -0.2219  0.9210 -0.0043
  264MOL0     C35544   9.338   6.420   5.842  0.8068 -0.2455  0.6139
  264MOL0     C35545   9.373   6.370   5.706  0.2179 -0.0114  0.1288
  264MOL0     C35546   9.357   6.224   5.682 -0.2429 -0.2453  0.7898
  264MOL0     C35547   9.387   6.182   5.539  0.0709 -0.0819  0.9282
  264MOL0     C35548   9.367   6.036   5.521  0.1876 -0.1007 -0.2025
  264MOL0     C35549   9.383   5.995   5.369  0.6481  0.0287 -0.1594
  264MOL0    Cl35550   9.559   6.015   5.337 -0.2325 -0.1812  0.1740
  264MOL0     C35551   8.948   6.687   5.746  0.5468  0.3541  0.5043
  264MOL0     C35552   8.830   6.747   5.728  0.7479 -0.5717  0.2507
  264MOL0     O35553   8.527   6.785   5.879  0.4604 -0.2579  1.1101
  264MOL0     C35554   8.452   7.027   5.625  0.1393  0.2468  0.3231
  264MOL0     C35555   8.352   7.076   5.547  0.5815 -0.2878 -0.3997
  264MOL0     N35556   7.935   6.939   5.077 -1.1573  0.4438  0.0619
  264MOL0     N35557   7.811   6.908   5.078  0.8116  0.5678 -0.5671
  264MOL0     C35558   6.895   6.919   4.514  0.5865 -0.4969  1.0552
  264MOL0     C35559   6.834   6.880   4.388  0.5476 -0.0163 -0.0569
  264MOL0     C35560   6.756   6.614   4.015 -0.2455  0.5189 -0.3252
  264MOL0     C35561   6.648   6.528   4.044  0.2041 -0.2131 -0.8939
  264MOL0     C35562   6.608   6.438   3.951 -0.3033 -0.0594  0.4405
  264MOL0     C35563   6.669   6.434   3.827 -0.1798  0.3665  0.7982
  264MOL0     O35564   6.630   6.342   3.740 -0.9898  0.6476  0.0103
  264MOL0     C35565   6.487   6.306   3.724 -0.3655  0.7592  0.4241
  264MOL0     C35566   6.455   6.212   3.611 -0.2954  0.2438 -0.6544
  264MOL0     C35567   6.474   6.270   3.484 -0.5179 -0.7511 -0.7437
  264MOL0     C35568   6.406   6.196   3.369  0.1624  0.5885 -0.1813
  264MOL0     C35569   6.493   6.204   3.249 -0.3433 -0.4355 -1.2270
  264MOL0     C35570   6.570   6.220   3.155 -0.4532  0.0330 -0.4959
  264MOL0     C35571   6.775   6.520   3.786  0.6154  0.3396  0.7357
  264MOL0     C35572   6.817   6.612   3.881 -0.0302 -0.2096 -0.0573
  264MOL0     H35573   6.749   6.574   4.453  0.5023  0.4457 -1.4263
  264MOL0     H35574   6.807   6.646   4.682  0.1598 -0.5626 -0.9419
  264MOL0     H35575   6.762   6.812   4.872 -0.8312  0.9173  3.3414
  264MOL0     H35576   6.908   6.720   4.871 -1.7057  0.6035  2.0401
  264MOL0     H35577   6.882   7.017   4.925 -0.6258  1.1813  0.0292
  264MOL0     H35578   6.882   6.900   5.061 -0.5714 -1.2250 -1.5697
  264MOL0     H35579   7.086   6.931   5.097  0.2693 -0.8960  0.1261
  264MOL0     H35580   7.117   6.831   4.948  3.7118  0.4360  0.5150
  264MOL0     H35581   7.101   7.066   4.822 -1.1238  0.9500  0.0040
  264MOL0     H35582   7.107   7.146   4.971  0.3801  0.8412 -2.1407
  264MOL0     H35583   7.335   6.984   4.849  2.6674  1.1417 -0.4988
  264MOL0     H35584   7.320   7.153   4.889 -1.3973  0.3587  2.0492
  264MOL0     H35585   7.287   7.093   5.127  0.2191 -1.5942  1.9851
  264MOL0     H35586   7.329   6.927   5.098 -2.3707 -0.9150 -1.3641
  264MOL0     H35587   7.524   7.149   5.089  0.9318 -0.4298  0.5848
  264MOL0     H35588   7.520   6.999   5.191 -2.7850  1.4167  1.5201
  264MOL0     H35589   7.584   7.033   4.890 -0.1010 -0.4043 -0.2027
  264MOL0     H35590   7.577   6.881   4.967  3.1299 -1.0025  1.8853
  264MOL0     H35591   7.805   7.199   4.955 -1.0672 -0.4800  0.1589
  264MOL0     H35592   8.163   7.063   5.033 -0.2697  0.0421  1.8407
  264MOL0     H35593   8.094   7.193   4.925  2.7499  0.2571  0.1589
  264MOL0     H35594   8.043   7.327   5.106  2.4232  1.5389 -3.3238
  264MOL0     H35595   8.206   7.285   5.119  0.6568 -0.8981 -0.2917
  264MOL0     H35596   7.972   7.186   5.290 -0.3084  1.7133 -1.3619
  264MOL0     H35597   8.109   7.271   5.336 -1.0654  1.4446  1.1145
  264MOL0     H35598   8.262   7.070   5.314 -0.2517  0.3089  1.2241
  264MOL0     H35599   8.121   6.965   5.283  4.9938 -2.3396 -0.7783
  264MOL0     H35600   8.132   6.835   5.587 -0.7417 -0.0846  1.4603
  264MOL0     H35601   8.180   6.681   5.734 -0.1896  2.1880 -2.3613
  264MOL0     H35602   8.352   6.639   5.733  0.6675  0.0123 -1.0571
  264MOL0     H35603   8.293   6.727   5.868  5.0811  1.1461 -1.2348
  264MOL0     H35604   8.814   6.963   5.972  2.4661 -0.2049  0.9517
  264MOL0     H35605   9.016   6.833   6.043  0.4698 -0.6343  0.8223
  264MOL0     H35606   9.197   6.600   5.704 -1.8098  1.4005 -0.6312
  264MOL0     H35607   9.269   6.756   5.760  0.3619 -0.1455  0.9642
  264MOL0     H35608   9.430   6.596   5.781  0.3332 -0.4418  0.1305
  264MOL0     H35609   9.374   6.597   5.951 -0.5399 -4.8926  1.9279
  264MOL0     H35610   9.231   6.407   5.859  0.9974 -0.2063  1.8738
  264MOL0     H35611   9.386   6.365   5.923 -1.6417  0.7863  2.8948
  264MOL0     H35612   9.317   6.428   5.632  2.5128  0.8923 -0.9952
  264MOL0     H35613   9.479   6.394   5.692 -0.5350  3.0445 -1.1669
  264MOL0     H35614   9.257   6.183   5.699 -1.2272  1.3447 -0.8767
  264MOL0     H35615   9.421   6.169   5.752  1.6824 -1.1764 -1.5519
  264MOL0     H35616   9.320   6.231   5.468  0.8109  1.8688  1.5146
  264MOL0     H35617   9.491   6.209   5.517 -1.1359  2.3658 -2.6055
  264MOL0     H35618   9.264   6.012   5.546 -0.3467  1.4121 -0.8538
  264MOL0     H35619   9.441   5.984   5.584  0.9126 -0.9919 -1.7102
  264MOL0     H35620   9.331   6.052   5.292  3.8268  1.6624 -1.2782
  264MOL0     H35621   9.364   5.888   5.359  2.4055 -0.3447  0.2127
  264MOL0     H35622   9.000   6.622   5.676 -1.6092 -3.2142  1.9509
  264MOL0     H35623   8.781   6.729   5.633  1.7005  0.5793 -0.5003
  264MOL0     H35624   8.539   7.091   5.620 -0.0792  0.6188  1.1637
  264MOL0     H35625   8.374   7.174   5.507  0.7292  0.4936  1.4988
  264MOL0     H35626   6.938   7.017   4.531 -0.3118  0.0312  0.3245
  264MOL0     H35627   6.848   6.961   4.316 -6.4246  0.8104 -1.1756
  264MOL0     H35628   6.586   6.529   4.133  0.8829 -3.4361 -0.2643
  264MOL0     H35629   6.527   6.373   3.982 -1.3681  1.7935  1.7704
  264MOL0     H35630   6.454   6.244   3.808 -0.3856 -4.8595 -3.1880
  264MOL0     H35631   6.421   6.393   3.731 -0.8058  0.2871  4.3616
  264MOL0     H35632   6.349   6.186   3.618 -0.5298  1.3119 -0.0656
  264MOL0     H35633   6.524   6.127   3.609  0.5648  0.9360 -1.2362
  264MOL0     H35634   6.580   6.288   3.463 -0.8989  2.2302 -0.5772
  264MOL0     H35635   6.421   6.365   3.488 -2.1158 -1.6707  1.4203
  264MOL0     H35636   6.303   6.228   3.351  1.2009  3.0253 -2.4608
  264MOL0     H35637   6.396   6.091   3.396  0.9526  0.1920 -1.3746
  264MOL0     H35638   6.649   6.228   3.083 -1.7088 -1.2925 -2.1014
  264MOL0     H35639   6.810   6.532   3.684  3.9537  2.1493  1.9369
  264MOL0     H35640   6.901   6.679   3.865  0.5620 -0.9683 -0.2231
  265MOL0     O35641   2.104   2.140   3.711  0.0267  0.0896 -0.4020
  265MOL0     C35642   2.065   2.228   3.635  0.5162 -0.9618  0.4777
  265MOL0     O35643   2.140   2.340   3.602  0.3809  0.0594 -0.7695
  265MOL0     C35644   2.268   2.342   3.647  1.0227 -0.3857 -0.3207
  265MOL0     C35645   2.372   2.257   3.600  0.6103 -0.5461  0.0274
  265MOL0     C35646   2.507   2.279   3.630  0.1681  0.7236 -0.8308
  265MOL0     C35647   2.541   2.399   3.699 -0.0299  0.1894 -0.3648
  265MOL0     O35648   2.666   2.452   3.727 -0.5068  0.2722  0.0168
  265MOL0     C35649   2.777   2.359   3.732  0.4086 -0.0352  0.6412
  265MOL0     C35650   2.909   2.438   3.718  0.9197  0.4833 -0.2348
  265MOL0     C35651   3.024   2.346   3.756 -0.0157 -0.5204 -0.4420
  265MOL0     C35652   3.147   2.433   3.767 -0.6345  0.5286 -0.7894
  265MOL0     C35653   3.278   2.346   3.778 -0.3387  0.5667 -0.2395
  265MOL0     C35654   3.316   2.278   3.648  0.9207  0.3326 -0.7146
  265MOL0     C35655   3.449   2.213   3.662 -0.3830  0.4140 -0.1761
  265MOL0     C35656   3.564   2.313   3.677  0.5759  0.1770  0.8332
  265MOL0     N35657   3.568   2.405   3.558  0.9124  0.1127  0.0092
  265MOL0     C35658   3.645   2.389   3.445  0.4906 -0.4885  0.6466
  265MOL0     C35659   3.609   2.489   3.364 -0.3220  0.1879  0.6875
  265MOL0     C35660   3.649   2.507   3.216 -0.1173  0.1604 -0.5041
  265MOL0     C35661   3.784   2.432   3.180 -0.2455 -0.7239  0.1858
  265MOL0     C35662   3.847   2.448   3.038 -0.0484  0.7937 -0.4540
  265MOL0     C35663   3.751   2.411   2.931  0.4460  0.0387  0.9139
  265MOL0     O35664   3.677   2.523   2.890 -0.2035  0.1607  0.7302
  265MOL0     C35665   3.576   2.513   2.794  0.0751  0.2557  0.4595
  265MOL0     C35666   3.477   2.607   2.796  0.3278 -0.5870  0.6644
  265MOL0     C35667   3.366   2.612   2.709  0.2207 -0.7191 -0.6267
  265MOL0     C35668   3.252   2.710   2.758 -0.6192 -0.4404 -0.6254
  265MOL0     C35669   3.345   2.507   2.620 -0.3119 -0.1597  0.5020
  265MOL0     C35670   3.217   2.488   2.545  0.2195  0.2745 -0.2159
  265MOL0     O35671   3.156   2.601   2.479 -0.0365 -0.5448  0.0933
  265MOL0     C35672   3.022   2.620   2.479 -0.6508  0.1021 -0.2196
  265MOL0     C35673   2.972   2.712   2.387  0.2713  0.5317 -0.2053
  265MOL0     C35674   2.835   2.730   2.375  0.2797  0.4025  0.0678
  265MOL0     C35675   2.742   2.643   2.442 -0.5320 -0.0763 -0.3981
  265MOL0     O35676   2.610   2.651   2.407 -0.7832  0.3549 -0.7111
  265MOL0     C35677   2.529   2.673   2.524 -0.7327  1.0013  0.1564
  265MOL0     C35678   2.408   2.750   2.475  0.0234 -0.6394  0.2289
  265MOL0     C35679   2.445   2.886   2.442 -0.4670  0.1289 -0.1325
  265MOL0     C35680   2.323   2.972   2.432 -0.0015  0.7097 -0.2384
  265MOL0     C35681   2.367   3.115   2.417 -0.1890 -0.5384  0.5259
  265MOL0     C35682   2.249   3.198   2.370 -0.1453  0.2311 -0.2903
  265MOL0     C35683   2.136   3.213   2.469 -0.3029  0.5966  0.3664
  265MOL0     C35684   2.015   3.283   2.398  0.3706 -0.1099  0.2236
  265MOL0    Cl35685   2.050   3.452   2.389 -0.2638 -0.4135  0.1473
  265MOL0     C35686   2.791   2.559   2.544  0.4761  0.1522 -0.1097
  265MOL0     C35687   2.931   2.539   2.549  0.4248  0.4098  0.4687
  265MOL0     O35688   3.186   2.373   2.531 -0.1249  0.0432  0.1697
  265MOL0     C35689   3.453   2.413   2.611  0.3044  0.2831 -0.0517
  265MOL0     C35690   3.564   2.417   2.696 -0.2824  0.2782  1.1345
  265MOL0     N35691   3.526   2.574   3.435  0.3675  0.1270  0.4698
  265MOL0     N35692   3.502   2.524   3.547 -0.3745 -0.0350  0.0802
  265MOL0     C35693   2.443   2.478   3.754  0.7356 -0.1585 -0.2590
  265MOL0     C35694   2.308   2.443   3.731 -0.9214 -0.0519  0.1906
  265MOL0     C35695   1.943   2.200   3.543  0.1714  0.5377 -0.1037
  265MOL0     C35696   1.878   2.071   3.538 -0.0818 -0.5429  0.1688
  265MOL0     C35697   1.760   2.049   3.450  0.8961  0.7325  0.1162
  265MOL0     C35698   1.712   2.143   3.359 -0.7011  0.7353  0.0752
  265MOL0     O35699   1.607   2.121   3.279  0.0310 -0.0085  0.2402
  265MOL0     C35700   1.581   2.217   3.161  0.4415 -0.2351  1.0350
  265MOL0     C35701   1.684   2.215   3.049 -0.0534 -0.1615  0.7768
  265MOL0     C35702   1.722   2.075   3.001  0.5693 -1.4677  0.4166
  265MOL0     C35703   1.827   2.062   2.887  0.3124 -0.4234 -0.8352
  265MOL0     C35704   1.820   1.935   2.808 -0.1244  0.0431  0.4832
  265MOL0     C35705   1.832   1.820   2.758  0.6926  0.1662 -0.1817
  265MOL0     C35706   1.780   2.279   3.362 -0.6534 -0.1538  0.2869
  265MOL0     C35707   1.894   2.297   3.449 -1.0484 -0.6282 -0.1201
  265MOL0     H35708   2.351   2.176   3.531 -1.4475  0.7591 -0.9585
  265MOL0     H35709   2.579   2.205   3.595 -2.6978 -1.7324 -1.9563
  265MOL0     H35710   2.768   2.323   3.834 -3.4132  2.6135  1.4919
  265MOL0     H35711   2.780   2.273   3.665  0.5479  0.2927  0.2131
  265MOL0     H35712   2.924   2.477   3.617  2.1641  0.1136 -0.2148
  265MOL0     H35713   2.893   2.523   3.785 -1.9902 -1.7029  2.1418
  265MOL0     H35714   3.004   2.311   3.858  0.4642  0.1096 -0.1218
  265MOL0     H35715   3.034   2.263   3.686 -1.1565 -0.8096 -0.2898
  265MOL0     H35716   3.154   2.511   3.690 -2.0971  0.2199 -1.2738
  265MOL0     H35717   3.125   2.495   3.854 -0.2736 -0.6537  0.1583
  265MOL0     H35718   3.358   2.411   3.816  1.9035  1.8613 -6.0644
  265MOL0     H35719   3.263   2.264   3.848 -2.2082 -1.0660 -2.4221
  265MOL0     H35720   3.235   2.207   3.628  0.8124  0.5819 -1.1887
  265MOL0     H35721   3.323   2.343   3.560  1.0022  2.1473  0.5803
  265MOL0     H35722   3.450   2.147   3.750 -0.5591  0.3814 -0.1987
  265MOL0     H35723   3.462   2.149   3.574 -1.3434  0.5936 -0.4612
  265MOL0     H35724   3.656   2.258   3.699 -1.6258 -5.2843 -1.6598
  265MOL0     H35725   3.547   2.365   3.771 -1.0956 -2.5416  2.1703
  265MOL0     H35726   3.698   2.299   3.414 -1.1131 -0.2671 -3.3835
  265MOL0     H35727   3.569   2.467   3.153 -2.3553  2.7497  0.4579
  265MOL0     H35728   3.661   2.615   3.205  2.0275  0.3042  2.1750
  265MOL0     H35729   3.765   2.329   3.210 -2.0746 -0.3793  0.3144
  265MOL0     H35730   3.862   2.467   3.248 -1.8200  0.2758  1.5371
  265MOL0     H35731   3.925   2.372   3.038 -0.4194  0.3989 -0.8370
  265MOL0     H35732   3.885   2.549   3.024 -1.1577  1.1998 -0.6330
  265MOL0     H35733   3.681   2.334   2.963  3.3291 -3.0200  0.4554
  265MOL0     H35734   3.797   2.372   2.839 -0.3170 -0.1059  0.5817
  265MOL0     H35735   3.487   2.689   2.867  3.5404 -0.1165 -0.1561
  265MOL0     H35736   3.277   2.734   2.862 -3.3652  1.8588 -0.4044
  265MOL0     H35737   3.238   2.797   2.695 -1.5363  0.7971  1.1974
  265MOL0     H35738   3.162   2.648   2.761 -0.1466 -1.1397  1.1231
  265MOL0     H35739   3.040   2.768   2.324 -0.3867  2.6965  0.9191
  265MOL0     H35740   2.798   2.793   2.295 -0.5258 -0.0307  0.0899
  265MOL0     H35741   2.514   2.575   2.570  1.3941  1.5477  2.1888
  265MOL0     H35742   2.591   2.730   2.594  0.9524  1.0793 -1.3220
  265MOL0     H35743   2.362   2.691   2.396  1.1639 -1.3924  0.1183
  265MOL0     H35744   2.341   2.767   2.561  1.0256  2.1579  0.5634
  265MOL0     H35745   2.511   2.886   2.354  2.1481  1.0634  1.7202
  265MOL0     H35746   2.508   2.919   2.525 -0.5914 -1.8370  0.7949
  265MOL0     H35747   2.272   2.936   2.343  1.7175  0.5327 -1.1797
  265MOL0     H35748   2.273   2.957   2.529 -0.1761 -1.1711 -0.5747
  265MOL0     H35749   2.458   3.128   2.356  0.3281 -0.1691  1.3617
  265MOL0     H35750   2.394   3.159   2.513  0.2941 -3.4992  1.8721
  265MOL0     H35751   2.270   3.302   2.345 -4.3879  1.5053  0.7540
  265MOL0     H35752   2.210   3.144   2.283 -0.1611 -0.3280  0.0576
  265MOL0     H35753   2.174   3.271   2.554  3.3363  1.3259 -1.5642
  265MOL0     H35754   2.107   3.118   2.514 -0.8953  0.7440  0.3042
  265MOL0     H35755   1.925   3.265   2.457 -0.2856 -1.6506 -1.1752
  265MOL0     H35756   1.993   3.238   2.300 -1.0969 -1.3475  1.0856
  265MOL0     H35757   2.719   2.509   2.607  0.6300  0.9121  0.6888
  265MOL0     H35758   2.972   2.459   2.609 -0.2713 -1.0260 -0.8887
  265MOL0     H35759   3.456   2.333   2.538 -0.2104 -1.1035  1.3836
  265MOL0     H35760   3.641   2.343   2.675 -0.7754  0.4525 -1.6357
  265MOL0     H35761   2.473   2.557   3.823  0.2917 -1.0636  1.0200
  265MOL0     H35762   2.234   2.503   3.783 -1.1582  0.1729 -0.4016
  265MOL0     H35763   1.897   1.993   3.610 -3.4928  1.2568  3.3742
  265MOL0     H35764   1.707   1.954   3.455 -1.8705  2.0384 -1.7801
  265MOL0     H35765   1.486   2.190   3.114  1.5474 -0.9194 -0.9342
  265MOL0     H35766   1.557   2.315   3.204 -2.5337  0.0885 -1.0221
  265MOL0     H35767   1.775   2.271   3.074 -0.9715  1.5546  0.3978
  265MOL0     H35768   1.648   2.261   2.957  0.7758 -2.5029 -0.8095
  265MOL0     H35769   1.636   2.012   2.980  1.5998 -2.8367  0.1604
  265MOL0     H35770   1.773   2.033   3.088 -0.3459  0.1039  1.7860
  265MOL0     H35771   1.928   2.083   2.922 -0.2994  1.5764 -0.1431
  265MOL0     H35772   1.807   2.154   2.831 -2.8059  2.8359  4.7111
  265MOL0     H35773   1.856   1.723   2.720 -2.7541 -0.8901  0.0502
  265MOL0     H35774   1.737   2.352   3.293  3.6638  1.4504 -0.9964
  265MOL0     H35775   1.928   2.400   3.454  0.0335 -0.9548 -0.4177
  266MOL0     O35776   8.164   1.301   5.687  0.1346 -0.8337 -0.2886
  266MOL0     C35777   8.179   1.416   5.677  0.3325 -0.0312 -0.2751
  266MOL0     O35778   8.125   1.510   5.756  0.6233  0.1416 -0.5655
  266MOL0     C35779   7.993   1.494   5.823 -1.2608  0.4706 -0.0484
  266MOL0     C35780   7.891   1.418   5.769 -0.2245  0.4376 -0.0414
  266MOL0     C35781   7.762   1.408   5.819 -0.8592  0.2901  0.2184
  266MOL0     C35782   7.729   1.480   5.933 -0.3339 -1.1881 -0.1745
  266MOL0     O35783   7.596   1.478   5.982  0.4366  0.6716  0.5517
  266MOL0     C35784   7.573   1.521   6.119  0.7506  1.0221 -0.0177
  266MOL0     C35785   7.449   1.442   6.163  0.2277  0.0091  0.4688
  266MOL0     C35786   7.462   1.421   6.310  0.9780  0.6145  1.3866
  266MOL0     C35787   7.455   1.553   6.396  0.4113  0.4016 -1.6221
  266MOL0     C35788   7.460   1.515   6.551 -0.1492  0.3528  0.6312
  266MOL0     C35789   7.591   1.444   6.598  0.2756 -1.0277 -1.0070
  266MOL0     C35790   7.721   1.503   6.536  0.1097  0.2743  0.1880
  266MOL0     C35791   7.778   1.629   6.616  0.9813 -0.4628 -0.4485
  266MOL0     N35792   7.689   1.742   6.581  0.7849 -0.3133 -0.4487
  266MOL0     C35793   7.692   1.810   6.465  0.0995  0.8669 -0.4385
  266MOL0     C35794   7.594   1.901   6.484  0.2445 -0.1802  0.6137
  266MOL0     C35795   7.566   2.011   6.382 -0.3605 -0.1274 -0.6170
  266MOL0     C35796   7.420   2.041   6.358 -0.2208  0.2859  0.0428
  266MOL0     C35797   7.367   1.957   6.243 -0.2665 -0.1850  0.2654
  266MOL0     C35798   7.218   1.986   6.203 -0.3040  0.5887 -1.2438
  266MOL0     O35799   7.212   2.124   6.173  0.2118  0.3029 -0.0102
  266MOL0     C35800   7.075   2.160   6.159  0.0115  0.1492 -0.4408
  266MOL0     C35801   7.007   2.122   6.047 -0.6937  0.4860  0.4663
  266MOL0     C35802   6.877   2.160   6.025  0.1016 -0.7251 -0.1516
  266MOL0     C35803   6.830   2.134   5.887  0.2888  0.1049  0.0816
  266MOL0     C35804   6.807   2.224   6.133 -0.0534 -0.6197 -0.5957
  266MOL0     C35805   6.665   2.248   6.112 -0.2085  0.3729 -0.5915
  266MOL0     O35806   6.602   2.347   6.189  0.1490  0.2435 -0.6398
  266MOL0     C35807   6.465   2.372   6.174  0.2236  0.1270  0.1994
  266MOL0     C35808   6.370   2.308   6.246  0.6182  0.4497 -1.5477
  266MOL0     C35809   6.242   2.351   6.243 -0.4076  0.5734 -0.0532
  266MOL0     C35810   6.200   2.458   6.156  0.0554  0.7090  0.7039
  266MOL0     O35811   6.060   2.476   6.139 -0.2344  0.0280 -0.4147
  266MOL0     C35812   6.011   2.613   6.105 -0.7429  0.3471  0.9873
  266MOL0     C35813   6.001   2.704   6.225 -0.0155 -0.1112  0.5433
  266MOL0     C35814   5.890   2.659   6.313  0.1044  0.3079 -0.1403
  266MOL0     C35815   5.829   2.766   6.406 -0.7712  0.1072 -0.3573
  266MOL0     C35816   5.701   2.730   6.473  0.1427  0.0701 -1.0419
  266MOL0     C35817   5.723   2.650   6.601  1.8023 -0.0263  0.6508
  266MOL0     C35818   5.579   2.594   6.645 -0.7354 -0.0070  0.1591
  266MOL0     C35819   5.576   2.496   6.767 -0.3093 -0.1976  0.1782
  266MOL0    Cl35820   5.414   2.426   6.783 -0.2974  0.4012 -0.2993
  266MOL0     C35821   6.306   2.516   6.079 -0.2590  1.4952  0.4921
  266MOL0     C35822   6.437   2.466   6.079 -0.2893 -0.7770  0.0977
  266MOL0     O35823   6.604   2.168   6.038  0.2184 -0.7398 -0.5101
  266MOL0     C35824   6.874   2.255   6.252  0.4799 -0.0855 -0.6725
  266MOL0     C35825   7.011   2.233   6.259  0.8882 -0.3836 -0.1351
  266MOL0     N35826   7.549   1.897   6.612  0.5890  0.3166 -0.2338
  266MOL0     N35827   7.613   1.804   6.672 -0.0567  0.6020  0.4742
  266MOL0     C35828   7.826   1.560   5.995  0.3561 -0.0909  0.3127
  266MOL0     C35829   7.960   1.565   5.940 -0.2335  0.3508  0.2429
  266MOL0     C35830   8.292   1.468   5.587 -0.5161 -0.0366 -1.5926
  266MOL0     C35831   8.318   1.608   5.569  0.5038  0.1692 -0.1138
  266MOL0     C35832   8.422   1.639   5.474  1.2287  0.6567 -0.6486
  266MOL0     C35833   8.500   1.538   5.407  0.1120 -0.9225 -0.8620
  266MOL0     O35834   8.595   1.589   5.323 -0.4271 -0.7559 -0.2113
  266MOL0     C35835   8.710   1.647   5.400 -0.0740 -0.1596  0.4244
  266MOL0     C35836   8.793   1.724   5.297 -0.3576  0.5533 -0.3823
  266MOL0     C35837   8.921   1.793   5.347  0.5025 -0.1022  0.5336
  266MOL0     C35838   8.907   1.877   5.478 -0.5194 -0.4591  0.1869
  266MOL0     C35839   8.777   1.945   5.503  0.2332 -0.0960  0.5858
  266MOL0     C35840   8.664   2.002   5.518  0.5131  0.7624 -0.2416
  266MOL0     C35841   8.481   1.406   5.436  0.3629 -0.1676 -0.2548
  266MOL0     C35842   8.380   1.369   5.526 -0.4923 -0.0237 -1.5956
  266MOL0     H35843   7.920   1.364   5.680 -1.5021 -1.5589  0.6905
  266MOL0     H35844   7.687   1.342   5.776 -1.9259  2.3055 -1.2111
  266MOL0     H35845   7.656   1.489   6.182 -1.2766  0.4977  2.5472
  266MOL0     H35846   7.551   1.628   6.129  0.5269  0.8910  0.9619
  266MOL0     H35847   7.362   1.502   6.135 -1.0975 -1.9364  0.2523
  266MOL0     H35848   7.447   1.350   6.105  0.2617 -0.7454  1.6305
  266MOL0     H35849   7.387   1.344   6.332  0.7343  0.3843 -0.1344
  266MOL0     H35850   7.558   1.371   6.324  0.8335  0.5781  2.3526
  266MOL0     H35851   7.528   1.625   6.358  1.1618  0.4373 -0.1670
  266MOL0     H35852   7.359   1.602   6.376 -0.2841 -0.9591 -1.7506
  266MOL0     H35853   7.438   1.607   6.607 -2.2834  1.7813 -2.2797
  266MOL0     H35854   7.372   1.451   6.564  1.1925 -1.3167  1.9679
  266MOL0     H35855   7.601   1.467   6.705  0.5323 -0.3284 -1.1767
  266MOL0     H35856   7.584   1.335   6.594  1.2793 -1.2781  1.8201
  266MOL0     H35857   7.792   1.420   6.528 -2.1252 -1.6939 -0.4643
  266MOL0     H35858   7.708   1.531   6.431  1.3473  2.9730  0.6870
  266MOL0     H35859   7.876   1.662   6.579  2.9436 -3.5271  1.6183
  266MOL0     H35860   7.766   1.611   6.723 -1.0527 -2.7895 -0.9801
  266MOL0     H35861   7.759   1.802   6.380 -0.0559 -0.0192 -0.4834
  266MOL0     H35862   7.613   2.100   6.425  1.1009 -0.0170 -2.3098
  266MOL0     H35863   7.615   2.005   6.284 -2.5857  0.7359 -1.8631
  266MOL0     H35864   7.424   2.147   6.330 -0.0713 -0.2897 -2.3606
  266MOL0     H35865   7.360   2.025   6.448 -0.9958  2.3168 -0.0528
  266MOL0     H35866   7.387   1.853   6.271  0.6651 -0.4770 -1.3496
  266MOL0     H35867   7.425   1.984   6.155  0.5901 -3.3418 -0.2722
  266MOL0     H35868   7.164   1.957   6.294  1.0567  0.4092 -0.4711
  266MOL0     H35869   7.179   1.931   6.116  1.3289  1.3481 -2.5193
  266MOL0     H35870   7.058   2.072   5.966 -0.8270  2.1112 -0.6717
  266MOL0     H35871   6.914   2.102   5.825  0.3937  0.8826 -0.1834
  266MOL0     H35872   6.753   2.058   5.871 -0.0132  0.4539 -0.1541
  266MOL0     H35873   6.796   2.228   5.842  3.9268  1.1815 -0.7015
  266MOL0     H35874   6.390   2.221   6.308  0.1335  1.3145 -0.1234
  266MOL0     H35875   6.168   2.294   6.298 -1.0698  2.9090  1.6547
  266MOL0     H35876   6.084   2.666   6.044  1.7588 -0.4424  3.1085
  266MOL0     H35877   5.915   2.600   6.053  1.0775  0.5828 -2.7616
  266MOL0     H35878   6.092   2.700   6.285 -0.3902 -2.0257  1.0468
  266MOL0     H35879   5.983   2.807   6.190 -1.0573 -1.5095 -3.6471
  266MOL0     H35880   5.901   2.565   6.368  1.3017 -0.7508 -2.0612
  266MOL0     H35881   5.803   2.639   6.249 -1.2055 -2.6793  2.3131
  266MOL0     H35882   5.904   2.776   6.485  1.0613  1.5453 -2.1507
  266MOL0     H35883   5.823   2.860   6.351  3.3968 -0.7919 -2.7966
  266MOL0     H35884   5.651   2.660   6.405 -3.8294  1.7354 -0.1025
  266MOL0     H35885   5.643   2.817   6.504 -2.1033 -1.7555  0.2805
  266MOL0     H35886   5.792   2.566   6.588 -1.4316 -2.5667 -1.7601
  266MOL0     H35887   5.761   2.731   6.664  0.2852  1.5600 -0.3795
  266MOL0     H35888   5.527   2.559   6.556  0.8014 -0.1914 -0.6978
  266MOL0     H35889   5.513   2.680   6.663 -2.8359 -1.4553 -0.3153
  266MOL0     H35890   5.607   2.559   6.851  2.1227  1.1322 -1.5946
  266MOL0     H35891   5.662   2.431   6.754  1.2108  1.7883 -0.2423
  266MOL0     H35892   6.280   2.580   5.995 -2.6230 -0.1382 -0.1276
  266MOL0     H35893   6.516   2.508   6.017 -1.1026  0.1333 -0.3635
  266MOL0     H35894   6.829   2.318   6.328  0.3050 -2.0175  0.9104
  266MOL0     H35895   7.065   2.270   6.346 -0.6579 -0.6389  0.9900
  266MOL0     H35896   7.800   1.618   6.083  0.7090 -0.4642  0.6613
  266MOL0     H35897   8.041   1.627   5.976  1.1231 -0.0558 -1.9308
  266MOL0     H35898   8.259   1.687   5.614 -0.8333 -1.1852  0.6136
  266MOL0     H35899   8.431   1.746   5.456  1.1826  0.9068  0.6510
  266MOL0     H35900   8.674   1.723   5.469 -3.2011  1.5925 -2.8024
  266MOL0     H35901   8.766   1.568   5.450 -0.3851 -0.9794 -0.4879
  266MOL0     H35902   8.738   1.804   5.246  3.6531  1.6906 -3.4910
  266MOL0     H35903   8.805   1.652   5.215 -0.4458 -2.5443  2.1564
  266MOL0     H35904   8.950   1.853   5.260 -2.3923 -1.5296 -1.5946
  266MOL0     H35905   9.003   1.721   5.344  1.7265  1.2739 -0.1587
  266MOL0     H35906   8.990   1.948   5.481  1.5153 -2.6591 -1.1811
  266MOL0     H35907   8.921   1.811   5.564 -0.2309 -1.5590 -0.6742
  266MOL0     H35908   8.571   2.055   5.507  0.1903  0.4053  0.7059
  266MOL0     H35909   8.553   1.339   5.390 -1.7332 -2.3486 -0.5446
  266MOL0     H35910   8.369   1.269   5.566  0.0762  1.5842  3.3857
  267MOL0     O35911   6.955  10.017   1.613 -0.4534  1.3729  0.3004
  267MOL0     C35912   7.011   9.940   1.694 -0.3357 -0.0784 -0.2974
  267MOL0     O35913   6.970   9.905   1.829 -0.1929 -0.5065  0.4001
  267MOL0     C35914   6.860   9.963   1.893 -0.2977 -0.1092 -0.2188
  267MOL0     C35915   6.805  10.080   1.845 -0.4755  0.0120  0.3645
  267MOL0     C35916   6.682  10.125   1.903  0.6199  0.7042 -0.1138
  267MOL0     C35917   6.622  10.049   2.008 -1.2242  0.4157  0.2663
  267MOL0     O35918   6.520  10.094   2.082 -0.8061  0.8260  0.3686
  267MOL0     C35919   6.406  10.141   2.021  1.2481 -0.7547  0.4739
  267MOL0     C35920   6.281  10.063   2.064 -0.1265  0.1563  0.4211
  267MOL0     C35921   6.167  10.112   1.988  0.8868  0.1853 -0.1291
  267MOL0     C35922   6.044  10.076   2.072 -1.2402  1.0659 -0.8191
  267MOL0     C35923   5.924  10.138   2.009  0.2249  0.8312 -0.3415
  267MOL0     C35924   5.796  10.070   2.072 -0.5960  0.3744 -0.2676
  267MOL0     C35925   5.681  10.144   2.008 -0.3628  0.5515 -0.8232
  267MOL0     C35926   5.653  10.127   1.855 -0.0365 -0.0979 -0.1074
  267MOL0     N35927   5.602  10.259   1.805  1.0974 -0.0526 -0.1041
  267MOL0     C35928   5.499  10.324   1.866  0.0256  0.7403  0.1749
  267MOL0     C35929   5.497  10.438   1.796 -0.9285 -0.8810  0.4283
  267MOL0     C35930   5.408  10.557   1.829  0.3874 -0.9597  0.5358
  267MOL0     C35931   5.502  10.681   1.865  0.5428  0.5793 -0.0637
  267MOL0     C35932   5.435  10.776   1.965  0.0493 -0.4108 -0.1494
  267MOL0     C35933   5.287  10.810   1.946  0.4315  0.7390  0.7959
  267MOL0     O35934   5.230  10.884   2.052  0.0403 -0.1054  0.0934
  267MOL0     C35935   5.117  10.962   2.042 -0.2476  0.8260  0.5183
  267MOL0     C35936   5.009  10.945   1.947 -0.5290  1.0796 -0.0466
  267MOL0     C35937   4.899  11.031   1.952  0.2761  0.8316 -0.7335
  267MOL0     C35938   4.786  10.980   1.855 -0.9964  0.1032  0.2001
  267MOL0     C35939   4.897  11.137   2.039 -1.1037 -0.3305  1.0926
  267MOL0     C35940   4.798  11.254   2.044 -1.0068  0.0578  0.2698
  267MOL0     O35941   4.685  11.249   1.958 -0.8078  0.0480 -0.6358
  267MOL0     C35942   4.603  11.355   1.992 -0.5641 -0.3255 -0.1004
  267MOL0     C35943   4.524  11.358   2.110  0.8197 -0.1989 -0.4348
  267MOL0     C35944   4.457  11.476   2.141 -0.1686 -0.2797  0.0141
  267MOL0     C35945   4.477  11.592   2.065  1.3967 -0.5872 -0.1988
  267MOL0     O35946   4.414  11.708   2.110 -0.1764  0.2971  0.0957
  267MOL0     C35947   4.424  11.836   2.050  0.5630  0.1587 -0.7322
  267MOL0     C35948   4.370  11.931   2.165 -0.5884  0.6335 -0.0077
  267MOL0     C35949   4.219  11.919   2.186  0.3032 -0.3201 -0.3634
  267MOL0     C35950   4.156  12.017   2.292 -0.3361  0.7161  0.9553
  267MOL0     C35951   4.012  11.990   2.312  0.0282 -0.1854  0.0975
  267MOL0     C35952   3.965  12.004   2.458  0.3058  1.3783 -0.1340
  267MOL0     C35953   3.951  12.155   2.488 -0.4163 -0.0471  0.3736
  267MOL0     C35954   3.842  12.209   2.408 -0.5163  0.3562 -0.0834
  267MOL0    Cl35955   3.757  12.354   2.473 -0.2237  0.0302  0.2419
  267MOL0     C35956   4.540  11.585   1.952  0.3019 -0.6308  0.3451
  267MOL0     C35957   4.614  11.469   1.916 -0.3539 -0.2348 -0.7654
  267MOL0     O35958   4.820  11.351   2.126 -0.2717  0.7629 -0.5134
  267MOL0     C35959   5.001  11.152   2.134 -0.1502  0.0065 -0.0303
  267MOL0     C35960   5.107  11.064   2.141  0.6938 -0.3858  0.1460
  267MOL0     N35961   5.586  10.439   1.690 -0.2594 -0.4443  0.0294
  267MOL0     N35962   5.649  10.325   1.689 -0.4773  1.0581 -0.1126
  267MOL0     C35963   6.684   9.943   2.062 -0.7229  1.5742  0.2757
  267MOL0     C35964   6.797   9.894   1.999 -0.4086  0.1370 -0.2699
  267MOL0     C35965   7.123   9.854   1.635  0.1970 -0.2178  0.0523
  267MOL0     C35966   7.228   9.786   1.705 -0.1814  0.3300  0.3441
  267MOL0     C35967   7.330   9.720   1.639 -0.1143  0.6090  0.4383
  267MOL0     C35968   7.339   9.715   1.497  0.4542 -0.7349 -0.6788
  267MOL0     O35969   7.448   9.648   1.446 -0.9233 -0.0076  0.4500
  267MOL0     C35970   7.492   9.669   1.308 -0.9945 -0.0345 -0.2400
  267MOL0     C35971   7.579   9.556   1.262  0.4056 -0.7372 -0.0225
  267MOL0     C35972   7.661   9.573   1.133 -0.0785  0.3218  0.8274
  267MOL0     C35973   7.782   9.489   1.136 -0.3744 -0.1553 -0.7115
  267MOL0     C35974   7.840   9.493   1.010 -0.6104 -0.6753  0.5923
  267MOL0     C35975   7.903   9.511   0.904 -0.8037  0.2336 -0.1808
  267MOL0     C35976   7.250   9.792   1.422 -0.1393  0.8323  0.0760
  267MOL0     C35977   7.143   9.859   1.493  0.2085 -0.0328 -0.6981
  267MOL0     H35978   6.832  10.150   1.767  0.4033 -0.2868  0.3994
  267MOL0     H35979   6.641  10.222   1.878 -0.2614  0.0881 -1.1568
  267MOL0     H35980   6.395  10.246   2.052  0.0888  0.0069 -2.1760
  267MOL0     H35981   6.415  10.146   1.912  1.2105  1.9840  0.5279
  267MOL0     H35982   6.285   9.955   2.048 -1.1848  0.0082  1.0709
  267MOL0     H35983   6.258  10.089   2.168  2.5656  1.4675  0.7848
  267MOL0     H35984   6.183  10.221   1.985  0.1999  0.2843 -0.4210
  267MOL0     H35985   6.176  10.082   1.883  0.4085  0.6995 -0.3217
  267MOL0     H35986   6.029   9.968   2.066  0.4675  0.7448  0.0558
  267MOL0     H35987   6.052  10.107   2.177  1.9468 -3.5018  0.6528
  267MOL0     H35988   5.933  10.246   2.027  2.7751  0.4600  1.2024
  267MOL0     H35989   5.928  10.117   1.902  0.1246 -2.7945  0.2417
  267MOL0     H35990   5.786   9.963   2.054 -2.1094  0.4806 -0.1876
  267MOL0     H35991   5.796  10.073   2.182 -1.7243 -2.8396 -0.0701
  267MOL0     H35992   5.588  10.114   2.059 -0.4148 -0.0759 -1.2674
  267MOL0     H35993   5.690  10.252   2.022  0.0181  0.6897 -2.0220
  267MOL0     H35994   5.575  10.051   1.841 -0.2118  0.1531 -0.5058
  267MOL0     H35995   5.738  10.088   1.799  1.5783  1.3442  1.2425
  267MOL0     H35996   5.435  10.303   1.952  1.9614 -0.3168  1.4493
  267MOL0     H35997   5.353  10.587   1.740  3.7225  0.4677 -1.1987
  267MOL0     H35998   5.336  10.533   1.908 -3.0523  1.9653 -1.4165
  267MOL0     H35999   5.529  10.730   1.771 -1.1739  1.1516 -0.2855
  267MOL0     H36000   5.597  10.641   1.902 -1.9948 -2.3315  4.1389
  267MOL0     H36001   5.488  10.871   1.966 -2.5079  1.2075 -2.6352
  267MOL0     H36002   5.433  10.744   2.070 -0.6956  1.7342  0.5501
  267MOL0     H36003   5.237  10.714   1.927  3.8746 -1.2215  0.7148
  267MOL0     H36004   5.281  10.862   1.849  0.1955  0.2541  0.5469
  267MOL0     H36005   5.005  10.861   1.878 -1.6463  1.0693  0.0092
  267MOL0     H36006   4.804  10.879   1.815  0.5281 -0.7955  2.9189
  267MOL0     H36007   4.686  10.979   1.900 -0.8281 -1.1216  0.5697
  267MOL0     H36008   4.778  11.044   1.766 -1.6617 -2.3100 -1.6196
  267MOL0     H36009   4.503  11.271   2.171 -0.2910 -0.8471 -1.6891
  267MOL0     H36010   4.403  11.479   2.235 -1.2502 -2.4031 -0.4907
  267MOL0     H36011   4.526  11.847   2.012  0.0855 -0.5326 -2.2535
  267MOL0     H36012   4.352  11.830   1.969 -3.1546 -2.6481  2.4273
  267MOL0     H36013   4.416  11.904   2.261 -3.6018  0.0321  1.3901
  267MOL0     H36014   4.382  12.033   2.126 -0.3391  0.0168 -1.5796
  267MOL0     H36015   4.190  11.817   2.214 -3.1137  1.0602  1.7908
  267MOL0     H36016   4.170  11.947   2.092  1.6726 -0.4445 -1.1407
  267MOL0     H36017   4.216  12.023   2.383 -0.4740  0.2227  1.0826
  267MOL0     H36018   4.172  12.115   2.246 -2.1853  0.7445  0.2998
  267MOL0     H36019   3.995  11.886   2.282 -1.3150  0.6302 -2.2605
  267MOL0     H36020   3.954  12.052   2.243 -2.3794  0.6243  2.6610
  267MOL0     H36021   3.874  11.949   2.485  1.3978 -0.5935 -0.3015
  267MOL0     H36022   4.037  11.963   2.529 -3.9657  1.2782  4.7758
  267MOL0     H36023   4.043  12.214   2.498 -2.3888  3.0250  2.1597
  267MOL0     H36024   3.903  12.159   2.587 -0.0800  4.4093  0.5696
  267MOL0     H36025   3.780  12.119   2.395  2.1479 -1.7574  0.8999
  267MOL0     H36026   3.877  12.238   2.309  1.5954  1.3616  0.9039
  267MOL0     H36027   4.555  11.666   1.880  0.8325 -0.2523  0.8718
  267MOL0     H36028   4.668  11.476   1.822  1.5655 -2.5263  0.0370
  267MOL0     H36029   5.004  11.229   2.210  0.2546  0.1134 -0.1510
  267MOL0     H36030   5.177  11.076   2.223 -0.6090  1.8809  1.0210
  267MOL0     H36031   6.649   9.891   2.151  0.1611  2.4669  1.1746
  267MOL0     H36032   6.840   9.800   2.032 -0.3325  1.0396  2.5021
  267MOL0     H36033   7.250   9.793   1.811  0.5568 -4.8531  0.7914
  267MOL0     H36034   7.405   9.667   1.696 -0.7675  0.8939  1.5861
  267MOL0     H36035   7.402   9.669   1.245 -1.5449 -1.8821  0.4760
  267MOL0     H36036   7.533   9.770   1.297 -1.7553  0.4033  0.7375
  267MOL0     H36037   7.511   9.470   1.253  1.3995 -1.7817  1.8551
  267MOL0     H36038   7.644   9.526   1.345 -2.4791 -3.4934  1.4740
  267MOL0     H36039   7.703   9.673   1.122  0.6667 -0.1762 -1.1138
  267MOL0     H36040   7.595   9.549   1.050  2.8184 -1.5857 -1.1090
  267MOL0     H36041   7.744   9.391   1.165 -1.2460  0.1945 -0.6382
  267MOL0     H36042   7.841   9.522   1.222 -1.9404 -1.4699  0.9287
  267MOL0     H36043   7.956   9.517   0.812  0.2745  0.1827  0.4296
  267MOL0     H36044   7.252   9.787   1.314  4.0035  1.6216 -0.0283
  267MOL0     H36045   7.070   9.915   1.435  0.1985  0.5236 -0.1512
  268MOL0     O36046   6.046   6.981   0.617  0.0496 -0.2963 -0.2249
  268MOL0     C36047   6.050   7.061   0.524 -0.4010  0.0993  0.0521
  268MOL0     O36048   6.031   7.196   0.529  0.2440  0.5096 -0.2770
  268MOL0     C36049   5.967   7.237   0.649  1.3911  0.1378  1.0101
  268MOL0     C36050   6.045   7.268   0.750 -0.2010 -0.7330  0.1556
  268MOL0     C36051   5.993   7.322   0.869 -0.1831 -0.0276 -0.3842
  268MOL0     C36052   5.855   7.346   0.886  0.7284  0.8902 -0.1682
  268MOL0     O36053   5.790   7.365   1.009  0.3203 -0.0281 -0.1742
  268MOL0     C36054   5.874   7.347   1.125 -0.7548 -0.3389  0.8217
  268MOL0     C36055   5.787   7.382   1.249  0.9016  0.1238  0.5269
  268MOL0     C36056   5.883   7.379   1.381  0.4628 -0.7640  0.0888
  268MOL0     C36057   5.812   7.429   1.506  0.4919  0.0211 -0.4626
  268MOL0     C36058   5.850   7.347   1.632  0.3768  0.7010  0.2857
  268MOL0     C36059   5.799   7.407   1.762 -0.7102 -0.1280 -0.0764
  268MOL0     C36060   5.876   7.532   1.804  0.3387 -0.0252  0.3305
  268MOL0     C36061   5.831   7.590   1.938 -0.3314  0.2592 -0.0968
  268MOL0     N36062   5.879   7.514   2.054 -0.4112  0.4718 -0.0016
  268MOL0     C36063   6.005   7.527   2.092 -0.3008 -0.5809  0.8880
  268MOL0     C36064   6.012   7.484   2.223 -0.7773 -0.3295 -0.2273
  268MOL0     C36065   6.120   7.485   2.324 -0.3481  0.8460  0.5179
  268MOL0     C36066   6.252   7.436   2.267  0.3547  0.1686  0.3147
  268MOL0     C36067   6.352   7.417   2.388  0.1936  0.3226  0.3064
  268MOL0     C36068   6.481   7.354   2.341 -0.2864  0.7268  0.2924
  268MOL0     O36069   6.574   7.447   2.276  0.7831 -0.3108  0.5261
  268MOL0     C36070   6.709   7.423   2.240 -0.3072 -0.1990  0.0795
  268MOL0     C36071   6.782   7.306   2.241  0.0203 -0.2647 -0.0215
  268MOL0     C36072   6.920   7.302   2.208 -0.0492 -0.7614 -0.1236
  268MOL0     C36073   6.980   7.168   2.213 -0.1383 -0.0885  0.8568
  268MOL0     C36074   6.983   7.427   2.157 -0.8969  0.0924 -0.9816
  268MOL0     C36075   7.126   7.444   2.108 -0.9534 -0.2960 -0.1445
  268MOL0     O36076   7.214   7.358   2.168  0.7015  0.2247 -0.3350
  268MOL0     C36077   7.345   7.373   2.155 -0.5982  0.2073 -0.6043
  268MOL0     C36078   7.413   7.244   2.160 -0.0340 -0.3857 -0.7035
  268MOL0     C36079   7.551   7.224   2.155 -0.7776  0.1162  0.2423
  268MOL0     C36080   7.627   7.341   2.130  0.1775 -0.4575  0.0765
  268MOL0     O36081   7.759   7.328   2.104 -0.1129  0.4185 -0.0188
  268MOL0     C36082   7.812   7.235   2.001  0.8492 -0.1011 -0.7160
  268MOL0     C36083   7.945   7.277   1.938  0.1428  0.5215  0.0992
  268MOL0     C36084   7.984   7.159   1.848 -0.3220 -0.2792  0.3889
  268MOL0     C36085   8.127   7.199   1.781  0.6097 -0.5080  0.5217
  268MOL0     C36086   8.186   7.089   1.691 -0.0616  0.9159  0.1573
  268MOL0     C36087   8.153   7.122   1.552  0.0875  1.5561  0.5818
  268MOL0     C36088   8.182   6.992   1.458 -0.1261  0.4067 -0.1559
  268MOL0     C36089   8.329   6.957   1.447 -0.5300 -0.4596  0.8242
  268MOL0    Cl36090   8.371   6.855   1.590  0.2085 -0.3755 -0.0014
  268MOL0     C36091   7.561   7.463   2.119 -0.1556 -1.4382  0.1746
  268MOL0     C36092   7.424   7.487   2.135  0.6251 -0.8364 -0.0089
  268MOL0     O36093   7.154   7.537   2.029  0.0135  0.0936 -0.3913
  268MOL0     C36094   6.901   7.541   2.155  0.0317 -0.3857  0.6150
  268MOL0     C36095   6.775   7.538   2.211 -0.3785 -0.4046  0.0298
  268MOL0     N36096   5.885   7.445   2.257  0.0434 -0.1264  0.5109
  268MOL0     N36097   5.804   7.459   2.152  0.3252 -0.3084 -0.5774
  268MOL0     C36098   5.768   7.316   0.769  0.6448 -0.7232  0.7352
  268MOL0     C36099   5.829   7.274   0.650  0.0599 -1.4271 -0.3791
  268MOL0     C36100   6.067   7.003   0.388 -0.2382 -1.0127 -0.4265
  268MOL0     C36101   6.146   6.887   0.353 -0.0243  0.4103 -0.4535
  268MOL0     C36102   6.151   6.836   0.224 -0.6298 -0.3811 -0.2031
  268MOL0     C36103   6.091   6.918   0.120 -0.8305  0.6407 -0.1271
  268MOL0     O36104   6.091   6.884  -0.011 -0.1996  0.7899 -0.5212
  268MOL0     C36105   6.207   6.835  -0.077  0.6123 -0.2497  0.0621
  268MOL0     C36106   6.325   6.934  -0.057  0.5407  0.2403 -0.0398
  268MOL0     C36107   6.303   7.067  -0.124  0.7971 -0.0729  0.9827
  268MOL0     C36108   6.407   7.182  -0.091 -0.5547 -0.3410  0.0273
  268MOL0     C36109   6.547   7.139  -0.088  1.1463  0.9774 -0.8117
  268MOL0     C36110   6.655   7.080  -0.081  1.3592 -0.0984 -0.2686
  268MOL0     C36111   6.035   7.037   0.149 -0.8745  0.2121  0.5004
  268MOL0     C36112   6.013   7.082   0.276  1.0610  0.1064  0.1848
  268MOL0     H36113   6.153   7.259   0.744 -0.2655 -1.7039 -6.1135
  268MOL0     H36114   6.075   7.346   0.936  1.3370  0.9440 -2.4599
  268MOL0     H36115   5.918   7.247   1.130 -2.1793 -1.2703 -2.4189
  268MOL0     H36116   5.963   7.411   1.119 -0.4600 -0.7922  0.2615
  268MOL0     H36117   5.737   7.479   1.237 -1.4222 -0.9568  1.0929
  268MOL0     H36118   5.710   7.305   1.251 -1.6270  2.4762  0.1070
  268MOL0     H36119   5.907   7.273   1.392 -0.0273 -0.6780  2.9067
  268MOL0     H36120   5.980   7.427   1.367  1.5530 -2.8057  0.2253
  268MOL0     H36121   5.832   7.536   1.510  2.8335 -0.3879  0.2991
  268MOL0     H36122   5.703   7.425   1.492  0.3748  4.0825 -1.8082
  268MOL0     H36123   5.804   7.248   1.624 -0.2482  0.9992  0.1272
  268MOL0     H36124   5.958   7.344   1.617  0.3329  1.4952 -0.2332
  268MOL0     H36125   5.695   7.440   1.757 -0.3146  1.0337 -3.0874
  268MOL0     H36126   5.822   7.324   1.829  2.9835 -0.3651 -1.3817
  268MOL0     H36127   5.982   7.507   1.809  0.6017  0.8820 -0.5201
  268MOL0     H36128   5.858   7.606   1.726 -2.1200 -3.0159 -2.2026
  268MOL0     H36129   5.722   7.592   1.952 -0.8831 -1.1624 -3.3747
  268MOL0     H36130   5.876   7.690   1.939 -1.2659  0.7542 -2.3123
  268MOL0     H36131   6.075   7.575   2.025 -2.2133 -0.7546 -1.3967
  268MOL0     H36132   6.120   7.573   2.390 -0.1103  0.8255  0.5450
  268MOL0     H36133   6.080   7.406   2.388  0.0863  0.2244  0.0190
  268MOL0     H36134   6.295   7.500   2.189  0.5664 -1.7766 -1.2457
  268MOL0     H36135   6.239   7.343   2.210  0.0791  0.8032 -0.6808
  268MOL0     H36136   6.319   7.353   2.470  1.5515 -1.0090 -0.1412
  268MOL0     H36137   6.360   7.516   2.434  0.2851  1.8791 -2.7604
  268MOL0     H36138   6.476   7.263   2.281  1.8052 -0.6375  2.0293
  268MOL0     H36139   6.534   7.313   2.427 -1.3762 -1.4166 -0.0046
  268MOL0     H36140   6.738   7.216   2.282 -0.3033 -0.4615 -0.7937
  268MOL0     H36141   6.900   7.095   2.198 -1.1707  1.1300  0.2011
  268MOL0     H36142   7.053   7.163   2.131  1.4300 -1.4967  2.2583
  268MOL0     H36143   7.032   7.153   2.308 -0.2265  0.0731  0.9303
  268MOL0     H36144   7.362   7.158   2.201  0.6135 -0.7516 -0.6582
  268MOL0     H36145   7.600   7.127   2.148  4.1151  2.4357 -2.8524
  268MOL0     H36146   7.829   7.135   2.041 -1.1936  0.3220  1.4402
  268MOL0     H36147   7.727   7.219   1.933 -1.4146 -1.4463  2.1843
  268MOL0     H36148   7.927   7.372   1.887 -3.0364  1.0138  1.8834
  268MOL0     H36149   8.022   7.305   2.011 -1.3634  3.7175  0.6465
  268MOL0     H36150   7.905   7.143   1.774 -0.6457 -0.4195  0.7549
  268MOL0     H36151   7.996   7.065   1.903  0.0233 -0.3557  0.1858
  268MOL0     H36152   8.113   7.295   1.729 -0.9828 -0.1095  1.6198
  268MOL0     H36153   8.193   7.230   1.862  0.9493 -0.0581  0.0829
  268MOL0     H36154   8.158   6.989   1.724  1.8340  0.5609  0.8063
  268MOL0     H36155   8.294   7.086   1.706  0.0133 -0.2892 -0.5008
  268MOL0     H36156   8.045   7.142   1.547 -0.0086  1.5313  2.1102
  268MOL0     H36157   8.215   7.206   1.518  3.1059 -0.3505  1.0747
  268MOL0     H36158   8.148   6.997   1.354 -0.8084  0.7322  0.0730
  268MOL0     H36159   8.130   6.901   1.489  1.0929 -1.9399 -4.2294
  268MOL0     H36160   8.387   7.050   1.442  0.3930 -1.0342  0.6303
  268MOL0     H36161   8.360   6.902   1.358 -3.9045  0.5340 -1.1598
  268MOL0     H36162   7.622   7.550   2.099 -2.4960  0.0176 -1.1148
  268MOL0     H36163   7.387   7.589   2.129 -0.3087 -0.9643  2.5244
  268MOL0     H36164   6.938   7.637   2.118 -1.3610  1.7070  4.1434
  268MOL0     H36165   6.711   7.626   2.208  2.5658  1.9515  1.5397
  268MOL0     H36166   5.661   7.333   0.764  0.9680  1.5631  0.6091
  268MOL0     H36167   5.765   7.272   0.562  1.3029 -2.0069 -1.3006
  268MOL0     H36168   6.197   6.834   0.433 -0.1516  1.9392  0.6867
  268MOL0     H36169   6.201   6.745   0.193  4.3074  2.6085 -2.3133
  268MOL0     H36170   6.242   6.735  -0.051  1.2628 -0.5801 -1.9048
  268MOL0     H36171   6.197   6.831  -0.186 -1.6928 -2.0706  0.2422
  268MOL0     H36172   6.419   6.890  -0.091  0.0653 -0.0362 -1.0112
  268MOL0     H36173   6.345   6.951   0.050  2.0033  3.1885 -0.6761
  268MOL0     H36174   6.201   7.103  -0.107 -0.1189 -1.7969 -0.4137
  268MOL0     H36175   6.310   7.061  -0.233  1.2641  1.7504  0.8927
  268MOL0     H36176   6.381   7.217   0.010  1.0252  2.2361 -0.3682
  268MOL0     H36177   6.398   7.255  -0.171  0.2683  1.0295  1.1224
  268MOL0     H36178   6.753   7.037  -0.078  1.1800 -0.5127  3.2737
  268MOL0     H36179   6.009   7.110   0.073  0.3422  1.9831  1.7176
  268MOL0     H36180   5.963   7.176   0.295  0.1300 -0.2229 -0.5436
  269MOL0     O36181   8.634   8.656   5.106  0.0399 -1.0970  0.4100
  269MOL0     C36182   8.572   8.573   5.054  1.0065  0.5587  0.2888
  269MOL0     O36183   8.444   8.535   5.078  0.2439  0.0770  0.4863
  269MOL0     C36184   8.381   8.584   5.182 -0.6251 -0.5817  0.7384
  269MOL0     C36185   8.368   8.723   5.191  0.2595 -0.6566  1.0361
  269MOL0     C36186   8.289   8.778   5.289 -0.6198  0.7984  0.5057
  269MOL0     C36187   8.219   8.699   5.384  0.7669 -0.5595 -0.1434
  269MOL0     O36188   8.122   8.758   5.465 -0.1546 -0.3279  0.0713
  269MOL0     C36189   7.983   8.702   5.480 -0.7754 -0.9428  0.9515
  269MOL0     C36190   7.952   8.646   5.615  0.0468 -0.2453  0.5759
  269MOL0     C36191   7.807   8.683   5.650  0.4964 -0.3991 -0.4023
  269MOL0     C36192   7.764   8.621   5.789 -0.4291  0.7243 -0.2767
  269MOL0     C36193   7.615   8.623   5.812 -0.7922  0.2149 -0.4043
  269MOL0     C36194   7.565   8.765   5.798  0.7596  0.8692 -0.2066
  269MOL0     C36195   7.639   8.867   5.894  0.2435  0.3871  0.2682
  269MOL0     C36196   7.585   9.009   5.887 -0.1462  0.6630  0.1996
  269MOL0     N36197   7.666   9.109   5.958  0.7412 -0.4156  0.7902
  269MOL0     C36198   7.706   9.104   6.094  0.2331  0.2096  0.0290
  269MOL0     C36199   7.750   9.228   6.103 -0.2803 -0.0628  0.3267
  269MOL0     C36200   7.804   9.290   6.229  0.4851 -0.0369 -0.6614
  269MOL0     C36201   7.950   9.228   6.250  0.1430  0.2784  0.5029
  269MOL0     C36202   8.043   9.305   6.346  0.2702  0.3567  0.9915
  269MOL0     C36203   8.155   9.213   6.409  0.0222 -0.4862 -0.9149
  269MOL0     O36204   8.102   9.107   6.488 -0.3855  0.2242 -0.8647
  269MOL0     C36205   8.178   9.032   6.567 -0.0529 -0.0042  0.4177
  269MOL0     C36206   8.313   9.051   6.584 -0.5108  0.1427 -0.0117
  269MOL0     C36207   8.398   8.973   6.669  0.3946 -0.1827 -0.1826
  269MOL0     C36208   8.544   9.021   6.660 -0.9754  0.0143  0.6519
  269MOL0     C36209   8.347   8.860   6.736  0.2842 -0.3063 -0.0559
  269MOL0     C36210   8.411   8.789   6.849  0.1210  0.3549 -0.5759
  269MOL0     O36211   8.367   8.659   6.869  0.1093  0.0640 -1.1646
  269MOL0     C36212   8.417   8.582   6.967 -0.6929 -0.1774 -0.6661
  269MOL0     C36213   8.540   8.522   6.939 -0.0387  0.4180 -0.8538
  269MOL0     C36214   8.608   8.452   7.047  0.5777  0.4499  0.0432
  269MOL0     C36215   8.546   8.449   7.172 -0.3810  0.4357  0.2987
  269MOL0     O36216   8.612   8.386   7.281  0.2053  0.2452  0.3130
  269MOL0     C36217   8.665   8.255   7.263  0.1774  0.4895 -0.9573
  269MOL0     C36218   8.556   8.150   7.233  0.1901 -0.2399  0.3319
  269MOL0     C36219   8.448   8.148   7.342  0.0485 -0.2613 -0.1781
  269MOL0     C36220   8.321   8.102   7.291  0.0748  0.1708  0.3221
  269MOL0     C36221   8.231   8.072   7.405  1.0350 -0.0087  0.1513
  269MOL0     C36222   8.091   8.019   7.356  0.0222 -0.4581  0.3685
  269MOL0     C36223   8.000   8.111   7.273  0.1502 -0.9199  0.0882
  269MOL0     C36224   7.975   8.245   7.347 -0.8775 -0.6600 -0.4391
  269MOL0    Cl36225   7.988   8.382   7.229 -0.1614 -0.1079 -0.5151
  269MOL0     C36226   8.425   8.513   7.205 -0.1137  0.6704  1.1085
  269MOL0     C36227   8.362   8.580   7.092 -0.2664  0.2031  0.3124
  269MOL0     O36228   8.505   8.836   6.902 -0.0435 -1.2463 -0.0010
  269MOL0     C36229   8.209   8.834   6.707 -0.2298 -0.2135 -0.5240
  269MOL0     C36230   8.126   8.921   6.632  0.2461 -0.2026 -0.0582
  269MOL0     N36231   7.738   9.312   5.997 -0.8322  0.1691 -0.0810
  269MOL0     N36232   7.685   9.237   5.903 -0.1422  0.4604  0.6125
  269MOL0     C36233   8.231   8.563   5.372  1.2001  0.8755 -0.1473
  269MOL0     C36234   8.312   8.500   5.272  0.6143 -0.6780  0.1237
  269MOL0     C36235   8.644   8.492   4.948  0.4755 -0.2075 -0.1220
  269MOL0     C36236   8.587   8.369   4.916 -0.4170  1.5977  0.2090
  269MOL0     C36237   8.660   8.277   4.828  0.5516 -0.2824 -0.0978
  269MOL0     C36238   8.783   8.315   4.772  0.3579 -0.6785  0.6112
  269MOL0     O36239   8.856   8.222   4.712  0.0109 -0.5051 -0.1347
  269MOL0     C36240   8.933   8.149   4.811  0.8593  0.5155 -0.3264
  269MOL0     C36241   8.951   8.012   4.749 -0.1825  0.7696  0.1125
  269MOL0     C36242   9.026   7.918   4.846  0.2069 -0.3968  0.0455
  269MOL0     C36243   8.989   7.766   4.820  0.9384 -0.6945  0.4704
  269MOL0     C36244   8.992   7.734   4.679 -0.1504  0.9781  0.0101
  269MOL0     C36245   9.015   7.711   4.565  0.5242  0.0271  0.9936
  269MOL0     C36246   8.821   8.452   4.784  0.1142 -0.4963  1.1842
  269MOL0     C36247   8.761   8.537   4.882 -0.1920 -0.8417 -0.2834
  269MOL0     H36248   8.419   8.792   5.124 -0.2529 -1.2805 -0.0134
  269MOL0     H36249   8.265   8.884   5.283 -1.7645  0.7060  2.6037
  269MOL0     H36250   7.912   8.781   5.458 -0.8629 -1.9477 -3.2766
  269MOL0     H36251   7.972   8.624   5.404 -1.5532  2.0359 -2.2502
  269MOL0     H36252   7.955   8.537   5.613 -1.2450 -0.3850  2.5278
  269MOL0     H36253   8.022   8.686   5.689 -0.6549  0.6565  0.7723
  269MOL0     H36254   7.801   8.792   5.650 -2.9382 -0.4742  0.5668
  269MOL0     H36255   7.738   8.659   5.568 -0.0339  2.1819 -0.7777
  269MOL0     H36256   7.814   8.524   5.794  1.1679  1.5734  3.4518
  269MOL0     H36257   7.813   8.681   5.866  1.2681  4.2207 -3.7456
  269MOL0     H36258   7.571   8.555   5.739  1.7872 -0.7817 -1.1437
  269MOL0     H36259   7.578   8.575   5.903 -2.2510 -2.5007 -2.2768
  269MOL0     H36260   7.559   8.807   5.697  0.5845  2.2223  0.3310
  269MOL0     H36261   7.463   8.756   5.837  0.3338 -0.9676 -1.6491
  269MOL0     H36262   7.638   8.837   5.999 -0.2241  2.1373  0.8029
  269MOL0     H36263   7.744   8.867   5.865  0.5964 -1.1199  1.4758
  269MOL0     H36264   7.486   9.017   5.932  0.5708 -1.8484  2.5202
  269MOL0     H36265   7.587   9.040   5.782  2.8988  0.9859  0.2570
  269MOL0     H36266   7.714   9.025   6.167  1.2128 -0.6507 -0.9585
  269MOL0     H36267   7.805   9.399   6.221  0.6195  0.1290  1.1706
  269MOL0     H36268   7.725   9.268   6.302 -3.1675  2.9370 -3.2839
  269MOL0     H36269   7.995   9.226   6.151 -3.1099  1.3871 -1.1716
  269MOL0     H36270   7.943   9.123   6.277 -1.4178  0.3651  0.5374
  269MOL0     H36271   7.978   9.355   6.419  0.2011 -1.8518  2.5492
  269MOL0     H36272   8.109   9.378   6.298  3.4485 -2.0707  1.3604
  269MOL0     H36273   8.211   9.280   6.474 -2.3794  0.3842  0.3540
  269MOL0     H36274   8.210   9.177   6.321 -1.7136 -0.5475 -2.0124
  269MOL0     H36275   8.358   9.139   6.540 -1.6019  1.5793  1.5736
  269MOL0     H36276   8.552   9.119   6.708  0.1832  1.0953 -1.5741
  269MOL0     H36277   8.615   8.947   6.698 -1.0648 -2.1727 -2.9580
  269MOL0     H36278   8.576   9.036   6.556  0.8137 -2.7708  0.6859
  269MOL0     H36279   8.585   8.545   6.844  2.8896 -0.4343  0.2216
  269MOL0     H36280   8.698   8.396   7.028  1.7162  1.1063  2.9927
  269MOL0     H36281   8.746   8.258   7.190  1.2435 -0.2201  0.1636
  269MOL0     H36282   8.713   8.239   7.360  0.0716  2.0130 -0.6283
  269MOL0     H36283   8.517   8.181   7.136 -1.0303 -1.8715  0.2621
  269MOL0     H36284   8.611   8.058   7.216  0.2660 -0.2021  0.3729
  269MOL0     H36285   8.434   8.246   7.388  0.9626  1.3096 -2.9926
  269MOL0     H36286   8.477   8.084   7.426  0.0847 -3.3712 -2.3761
  269MOL0     H36287   8.292   8.185   7.226  0.4540  1.7525  2.0491
  269MOL0     H36288   8.344   8.017   7.227 -0.2589  0.1992  0.1609
  269MOL0     H36289   8.215   8.170   7.449 -0.3096  0.2300 -0.7917
  269MOL0     H36290   8.268   7.996   7.475 -1.7167 -1.2766  0.3587
  269MOL0     H36291   8.103   7.927   7.298 -1.4113 -1.0785  0.9945
  269MOL0     H36292   8.036   7.981   7.443 -0.4729 -1.1523 -0.2388
  269MOL0     H36293   7.903   8.070   7.244 -1.8105  2.0627  1.9188
  269MOL0     H36294   8.056   8.127   7.181 -0.7907 -2.3203 -0.7622
  269MOL0     H36295   8.046   8.265   7.428  1.1284  0.0603 -2.2904
  269MOL0     H36296   7.882   8.230   7.404  1.3736 -1.7601  3.3390
  269MOL0     H36297   8.365   8.519   7.295 -1.7751  0.8267  0.0504
  269MOL0     H36298   8.266   8.627   7.108 -1.2449 -1.9883  1.3847
  269MOL0     H36299   8.153   8.759   6.762  2.0895 -2.4053 -0.9604
  269MOL0     H36300   8.020   8.898   6.629 -0.5758  3.1411 -1.1476
  269MOL0     H36301   8.168   8.495   5.430 -0.5948  1.3822 -1.4248
  269MOL0     H36302   8.304   8.391   5.270 -2.9546 -0.5728  1.4613
  269MOL0     H36303   8.505   8.334   4.977 -0.3270  3.8562  1.7585
  269MOL0     H36304   8.625   8.177   4.803  0.9607 -0.1170 -1.4091
  269MOL0     H36305   9.030   8.201   4.813  0.4053  1.3653 -0.0522
  269MOL0     H36306   8.901   8.146   4.916  2.2993 -1.2042  0.1228
  269MOL0     H36307   9.011   8.008   4.658 -0.6188 -2.1648 -0.1567
  269MOL0     H36308   8.851   7.975   4.726  0.2468 -0.5532  0.2222
  269MOL0     H36309   9.010   7.955   4.948  0.8119 -0.2978  0.1048
  269MOL0     H36310   9.134   7.933   4.839  0.4317 -1.8167  0.1362
  269MOL0     H36311   8.886   7.760   4.855  1.1668  2.8136  2.1521
  269MOL0     H36312   9.048   7.705   4.889 -1.7798 -1.4356  2.3020
  269MOL0     H36313   9.029   7.709   4.459 -3.0794 -0.4510  0.3925
  269MOL0     H36314   8.907   8.478   4.724 -0.6220 -3.1505 -1.2560
  269MOL0     H36315   8.813   8.625   4.917  2.4920 -1.8959 -1.3598
  270MOL0     O36316  11.286   0.924   9.940 -0.6961 -0.4814  0.0534
  270MOL0     C36317  11.170   0.889   9.946  0.6395 -0.5086  0.2289
  270MOL0     O36318  11.073   0.924   9.852  0.3543  0.5537 -0.2022
  270MOL0     C36319  11.111   1.018   9.761 -0.3290  0.3912  0.8827
  270MOL0     C36320  11.128   1.147   9.795 -0.0072 -0.0387  0.1536
  270MOL0     C36321  11.160   1.248   9.703  0.1411  0.9488 -0.2620
  270MOL0     C36322  11.172   1.212   9.564  0.0665  0.4409 -0.4594
  270MOL0     O36323  11.209   1.317   9.490  0.2447 -0.0369 -0.4044
  270MOL0     C36324  11.251   1.289   9.360 -0.9914  0.4077  0.0695
  270MOL0     C36325  11.322   1.421   9.304  0.8467  0.5002  0.9013
  270MOL0     C36326  11.451   1.447   9.370 -0.9902 -0.2716 -0.1853
  270MOL0     C36327  11.526   1.571   9.319 -0.0368  0.5317 -0.2396
  270MOL0     C36328  11.675   1.557   9.369  1.2457  0.2549  0.1858
  270MOL0     C36329  11.750   1.684   9.356  0.2452  0.1868  0.0259
  270MOL0     C36330  11.889   1.700   9.410  0.0770  0.8190 -0.0825
  270MOL0     C36331  11.986   1.590   9.355 -0.6139 -0.1371 -0.1363
  270MOL0     N36332  12.116   1.579   9.425 -0.4040  0.1810 -0.0575
  270MOL0     C36333  12.216   1.670   9.415 -0.1691  0.5136 -1.3828
  270MOL0     C36334  12.321   1.616   9.472  0.3704  0.0153 -0.4908
  270MOL0     C36335  12.461   1.664   9.505  0.6424  0.8489  0.0052
  270MOL0     C36336  12.455   1.731   9.645  0.1833 -0.6881 -0.1172
  270MOL0     C36337  12.585   1.771   9.704 -0.1570  0.0460 -0.3046
  270MOL0     C36338  12.663   1.882   9.632 -0.1929  0.2063  0.3409
  270MOL0     O36339  12.792   1.891   9.687 -0.9389 -0.6467 -0.6788
  270MOL0     C36340  12.888   1.940   9.600  0.0855 -0.3298 -1.0849
  270MOL0     C36341  13.008   1.875   9.605  0.0788 -0.6377 -0.0433
  270MOL0     C36342  13.113   1.905   9.522  0.0297  0.5319 -0.0168
  270MOL0     C36343  13.235   1.829   9.540 -0.7724  0.3323  0.0658
  270MOL0     C36344  13.099   2.004   9.424  0.4301 -0.1287  0.0698
  270MOL0     C36345  13.197   2.058   9.323 -0.2784 -0.0793 -0.8844
  270MOL0     O36346  13.146   2.072   9.199  0.5550 -0.1464 -0.3544
  270MOL0     C36347  13.231   2.074   9.102 -0.0105  0.1901  0.6066
  270MOL0     C36348  13.207   2.143   8.987  0.1825 -1.0119 -0.1242
  270MOL0     C36349  13.299   2.166   8.881 -0.2082  0.0535 -0.3966
  270MOL0     C36350  13.423   2.104   8.883  0.2983  0.5353  0.2709
  270MOL0     O36351  13.526   2.109   8.797  0.3022 -0.1238  0.1771
  270MOL0     C36352  13.513   2.201   8.684 -0.4383  0.4947  0.6091
  270MOL0     C36353  13.659   2.250   8.645 -0.5781  0.1771 -0.3534
  270MOL0     C36354  13.754   2.125   8.601 -0.7388 -0.2533  0.5627
  270MOL0     C36355  13.906   2.147   8.583 -0.4447  0.6816  0.7419
  270MOL0     C36356  13.980   2.020   8.538 -0.0538  0.2568 -0.1957
  270MOL0     C36357  13.997   1.925   8.661 -1.2748 -0.8030  0.3756
  270MOL0     C36358  14.068   1.790   8.643  0.0278  0.7238  0.8823
  270MOL0     C36359  14.203   1.801   8.561  0.3531 -0.0436  0.7617
  270MOL0    Cl36360  14.268   1.640   8.547 -0.2842  0.3653  0.8376
  270MOL0     C36361  13.442   2.011   8.988 -0.6304  0.8783 -0.7299
  270MOL0     C36362  13.353   1.998   9.094  0.1318 -0.3326  0.3613
  270MOL0     O36363  13.303   2.098   9.367 -0.7445  0.3956  0.7044
  270MOL0     C36364  12.962   2.058   9.403  0.0630  0.0732  0.6751
  270MOL0     C36365  12.870   2.032   9.498  0.0176 -0.2461 -0.4231
  270MOL0     N36366  12.288   1.484   9.525 -0.1959 -0.2043 -0.2567
  270MOL0     N36367  12.163   1.470   9.496 -0.1055  0.1440  0.0586
  270MOL0     C36368  11.159   1.077   9.521 -0.5841 -0.1625  0.0223
  270MOL0     C36369  11.137   0.979   9.618  0.4977  0.0765 -0.6701
  270MOL0     C36370  11.125   0.804  10.055  0.0786 -0.6579  0.7233
  270MOL0     C36371  10.999   0.770  10.075 -0.0514  0.8820  0.1157
  270MOL0     C36372  10.971   0.671  10.164 -0.0343 -0.9985  0.0660
  270MOL0     C36373  11.056   0.597  10.234 -0.0282  0.5387  0.7652
  270MOL0     O36374  11.006   0.493  10.315 -0.1120 -0.7205  0.0837
  270MOL0     C36375  11.095   0.419  10.401  0.2261 -0.6913 -0.0738
  270MOL0     C36376  11.030   0.302  10.467  1.4110 -0.7526  0.7285
  270MOL0     C36377  10.998   0.176  10.385 -0.4067 -0.3453  1.0586
  270MOL0     C36378  10.899   0.100  10.462  0.0306  0.4542 -0.0043
  270MOL0     C36379  10.766   0.169  10.449  0.4260 -0.7326  0.2397
  270MOL0     C36380  10.655   0.224  10.443  0.1999  0.0436  0.3938
  270MOL0     C36381  11.185   0.650  10.231  0.2326 -0.7115 -0.2886
  270MOL0     C36382  11.221   0.742  10.140  0.6703 -0.0303 -0.1736
  270MOL0     H36383  11.107   1.181   9.896  0.2811  1.2140 -0.1849
  270MOL0     H36384  11.157   1.348   9.745 -4.3830  0.1670  1.9741
  270MOL0     H36385  11.312   1.198   9.354  0.2846  1.0686  2.0864
  270MOL0     H36386  11.159   1.278   9.301 -1.7508  2.2841  0.8237
  270MOL0     H36387  11.326   1.405   9.195 -1.3543 -0.2180  0.8906
  270MOL0     H36388  11.249   1.501   9.315  0.0069 -0.3623  1.7502
  270MOL0     H36389  11.440   1.456   9.479  1.3144  0.5997  0.0346
  270MOL0     H36390  11.518   1.362   9.357  0.8284  0.3516  3.6851
  270MOL0     H36391  11.534   1.560   9.211  1.0818 -0.8583 -0.0464
  270MOL0     H36392  11.468   1.656   9.357 -2.3762 -0.9295 -0.3474
  270MOL0     H36393  11.672   1.522   9.472 -1.0636 -1.0343 -0.2457
  270MOL0     H36394  11.735   1.486   9.311 -0.3158 -2.1656  1.3475
  270MOL0     H36395  11.764   1.700   9.249 -0.0897  0.3021 -0.0042
  270MOL0     H36396  11.687   1.762   9.401  1.2467  0.2709  1.3325
  270MOL0     H36397  11.921   1.798   9.373 -1.2374  0.9198 -1.0235
  270MOL0     H36398  11.884   1.698   9.520  0.7164  1.3105 -0.0395
  270MOL0     H36399  11.998   1.598   9.246  0.1199 -0.0838 -0.0616
  270MOL0     H36400  11.946   1.489   9.361 -0.1478 -0.4314 -1.5458
  270MOL0     H36401  12.213   1.771   9.375  4.9408  0.3035 -2.9720
  270MOL0     H36402  12.530   1.579   9.507 -3.1902 -2.6874 -1.7331
  270MOL0     H36403  12.492   1.739   9.431 -1.7634 -1.5846 -3.8216
  270MOL0     H36404  12.397   1.662   9.707  0.9371 -0.4418  0.8881
  270MOL0     H36405  12.392   1.820   9.639 -0.5382 -1.1518  0.4364
  270MOL0     H36406  12.644   1.682   9.727  0.0083 -0.5377 -2.7397
  270MOL0     H36407  12.569   1.817   9.802  0.6040  0.7852 -0.5151
  270MOL0     H36408  12.606   1.974   9.643 -1.4199 -0.5178  0.1928
  270MOL0     H36409  12.669   1.861   9.524  1.7094 -2.5204  0.8821
  270MOL0     H36410  13.019   1.797   9.679 -1.0375  1.1651  2.1361
  270MOL0     H36411  13.278   1.794   9.446  1.6243 -1.2868  1.6499
  270MOL0     H36412  13.315   1.878   9.597 -1.9297  3.5206 -0.8684
  270MOL0     H36413  13.207   1.729   9.575  1.4091 -0.8608 -1.3147
  270MOL0     H36414  13.122   2.207   9.006  0.6918 -0.6870  1.1285
  270MOL0     H36415  13.271   2.239   8.805 -0.3758 -1.3672 -1.7627
  270MOL0     H36416  13.468   2.158   8.594 -2.7490  2.5441  0.6695
  270MOL0     H36417  13.457   2.290   8.714 -0.2092  2.0225 -3.0274
  270MOL0     H36418  13.652   2.328   8.568 -1.2720 -0.1914 -0.6853
  270MOL0     H36419  13.704   2.303   8.729  1.0590 -1.1632 -0.3538
  270MOL0     H36420  13.716   2.088   8.506 -0.3451  0.0087  0.3054
  270MOL0     H36421  13.739   2.035   8.662  4.0321 -2.8807 -1.6263
  270MOL0     H36422  13.915   2.224   8.505  0.8481  0.6634  0.8560
  270MOL0     H36423  13.945   2.185   8.678 -0.0504  0.9193  0.4863
  270MOL0     H36424  14.079   2.039   8.496  1.5481  1.7711  3.8352
  270MOL0     H36425  13.920   1.982   8.455  2.8055 -0.3041 -2.1551
  270MOL0     H36426  14.039   1.981   8.745 -3.0771 -2.5301  2.5342
  270MOL0     H36427  13.895   1.901   8.692 -1.4064  1.0302  1.4815
  270MOL0     H36428  14.002   1.716   8.595  0.4831 -1.3731  3.2780
  270MOL0     H36429  14.087   1.734   8.735  3.6948  2.5877  1.4347
  270MOL0     H36430  14.176   1.842   8.463 -0.0949 -0.3706  0.7508
  270MOL0     H36431  14.274   1.864   8.616 -1.5390  0.9409  2.1828
  270MOL0     H36432  13.540   1.968   9.006 -1.8710 -1.8129  0.2104
  270MOL0     H36433  13.372   1.927   9.174 -1.7977 -1.9706 -0.5357
  270MOL0     H36434  12.942   2.136   9.330  1.5225  0.6531  0.8574
  270MOL0     H36435  12.778   2.087   9.482  0.8258  1.6716  1.0418
  270MOL0     H36436  11.156   1.051   9.416  1.0003  2.9432 -0.8960
  270MOL0     H36437  11.115   0.878   9.584 -0.6199 -0.3067  1.0637
  270MOL0     H36438  10.913   0.821  10.033  0.3267  1.7169  0.3384
  270MOL0     H36439  10.865   0.649  10.173 -1.4065  4.0052 -0.7860
  270MOL0     H36440  11.186   0.396  10.345 -0.7013 -1.7665 -1.2103
  270MOL0     H36441  11.135   0.487  10.476  1.3033 -0.8312 -0.5052
  270MOL0     H36442  10.948   0.342  10.528  0.5905  0.2041 -0.9404
  270MOL0     H36443  11.103   0.267  10.541  1.8048 -0.0230  0.6987
  270MOL0     H36444  11.091   0.124  10.360 -0.7631 -0.7085  0.4878
  270MOL0     H36445  10.956   0.212  10.291  0.3108  1.5262  1.3949
  270MOL0     H36446  10.933   0.076  10.564 -0.5069 -2.3747 -0.3988
  270MOL0     H36447  10.887  -0.003  10.425 -1.0472  1.1693 -1.7507
  270MOL0     H36448  10.563   0.278  10.431 -0.1261 -0.8318 -1.3872
  270MOL0     H36449  11.260   0.619  10.304  2.4483  3.8893 -0.2909
  270MOL0     H36450  11.326   0.769  10.135  1.0019 -1.4380 -1.5490
  271MOL0     O36451   6.988   3.138   7.229 -0.3504  0.2274 -0.5121
  271MOL0     C36452   6.937   3.238   7.174 -1.4254  0.4838  0.4540
  271MOL0     O36453   6.994   3.295   7.061  0.4962  0.0161 -0.3970
  271MOL0     C36454   7.093   3.221   7.007 -0.7191  1.4263 -0.3096
  271MOL0     C36455   7.188   3.306   6.950  0.4104 -0.0635  0.3570
  271MOL0     C36456   7.295   3.263   6.876 -0.0732  1.0548  0.4031
  271MOL0     C36457   7.289   3.128   6.827 -0.1804  0.1489  0.7523
  271MOL0     O36458   7.387   3.092   6.728  0.1380  0.1651 -0.1462
  271MOL0     C36459   7.359   2.967   6.653 -0.6346 -0.0033  0.7751
  271MOL0     C36460   7.426   2.845   6.718 -0.7373  0.0221  0.8124
  271MOL0     C36461   7.351   2.714   6.685  0.5402  0.6263 -0.2609
  271MOL0     C36462   7.389   2.618   6.792 -0.4898  0.8648  0.7879
  271MOL0     C36463   7.542   2.582   6.794  0.5325  0.0522 -0.2722
  271MOL0     C36464   7.559   2.440   6.861 -0.7098 -0.7603 -0.1894
  271MOL0     C36465   7.544   2.320   6.766 -0.7370  0.0760  0.0492
  271MOL0     C36466   7.498   2.184   6.834 -0.4237 -0.7327  0.4106
  271MOL0     N36467   7.597   2.131   6.924  0.6175  0.3211 -0.8025
  271MOL0     C36468   7.684   2.034   6.882  0.8659  0.2035  0.2090
  271MOL0     C36469   7.762   2.006   6.986 -0.1704 -0.5285 -0.0394
  271MOL0     C36470   7.872   1.891   6.982  0.4552 -0.2475  0.2782
  271MOL0     C36471   7.899   1.819   7.115 -0.1576  1.2281 -0.3188
  271MOL0     C36472   8.019   1.727   7.114 -0.1050  0.4899 -0.0129
  271MOL0     C36473   8.075   1.651   7.246  0.0273 -0.0678  1.7049
  271MOL0     O36474   7.985   1.550   7.291  0.7548  0.6945  0.1749
  271MOL0     C36475   8.019   1.417   7.280 -0.0951 -0.8478  0.8481
  271MOL0     C36476   8.007   1.336   7.392  0.6733 -0.0750  0.2294
  271MOL0     C36477   8.030   1.204   7.389 -0.6204 -0.0852  0.3575
  271MOL0     C36478   7.995   1.127   7.514  0.2622 -0.0716 -0.0385
  271MOL0     C36479   8.082   1.149   7.270  0.3890 -0.1293 -0.5174
  271MOL0     C36480   8.123   1.003   7.264  0.1299 -0.4180 -0.2114
  271MOL0     O36481   8.224   0.982   7.171  0.4596  0.8194 -0.7488
  271MOL0     C36482   8.239   0.852   7.130 -1.0125 -0.2463 -0.4756
  271MOL0     C36483   8.365   0.781   7.128  0.4990 -0.8259 -1.4318
  271MOL0     C36484   8.375   0.651   7.069  0.1968 -0.7748  0.0861
  271MOL0     C36485   8.261   0.583   7.027 -0.2514 -0.1516 -0.7436
  271MOL0     O36486   8.273   0.463   6.966  0.0749  0.3466  0.3778
  271MOL0     C36487   8.287   0.366   7.065 -0.2874 -0.7013  0.4664
  271MOL0     C36488   8.144   0.315   7.114 -1.0446  0.1834 -0.7140
  271MOL0     C36489   8.066   0.260   6.991 -0.7671 -0.0583 -0.2102
  271MOL0     C36490   7.918   0.260   7.031 -0.4716 -0.6794 -0.0227
  271MOL0     C36491   7.819   0.199   6.940  1.5072 -0.1004  0.1246
  271MOL0     C36492   7.690   0.181   7.016  1.1032 -0.0054  0.2085
  271MOL0     C36493   7.631   0.297   7.106 -0.4401  0.5645 -0.0949
  271MOL0     C36494   7.590   0.420   7.028 -1.2978 -0.4995 -0.3387
  271MOL0    Cl36495   7.430   0.391   6.951  0.1248 -0.2416  0.0494
  271MOL0     C36496   8.141   0.657   7.018 -0.4127 -0.4958  0.5327
  271MOL0     C36497   8.129   0.790   7.069  0.9384 -1.3432  0.7746
  271MOL0     O36498   8.066   0.915   7.336  0.6939 -0.6694  0.8333
  271MOL0     C36499   8.098   1.233   7.159 -0.2053  0.3359  0.0363
  271MOL0     C36500   8.069   1.367   7.161 -0.3356  0.3047  0.1356
  271MOL0     N36501   7.732   2.089   7.087  0.3275 -0.7507 -0.3684
  271MOL0     N36502   7.637   2.168   7.049  0.6090  0.5535  0.1898
  271MOL0     C36503   7.193   3.040   6.880 -0.4155 -0.0470  0.1956
  271MOL0     C36504   7.091   3.082   6.972 -0.2123  0.8138  0.7026
  271MOL0     C36505   6.826   3.303   7.249  0.8548  0.4197  0.2891
  271MOL0     C36506   6.775   3.266   7.372 -0.0767  0.1225 -0.6746
  271MOL0     C36507   6.664   3.335   7.422  0.1065  0.1379 -0.4761
  271MOL0     C36508   6.610   3.447   7.363  1.2678  0.3700 -0.6739
  271MOL0     O36509   6.484   3.484   7.414 -0.5421 -0.1088  0.4236
  271MOL0     C36510   6.447   3.622   7.381  0.1372  0.0703  0.4050
  271MOL0     C36511   6.312   3.658   7.452 -0.4059 -0.4170  0.2900
  271MOL0     C36512   6.336   3.682   7.605  0.1182  0.2658 -0.4319
  271MOL0     C36513   6.377   3.554   7.669  0.0072  0.1855  0.0820
  271MOL0     C36514   6.344   3.565   7.806  0.1179  0.3318 -0.2138
  271MOL0     C36515   6.323   3.577   7.925 -0.5765 -0.4699 -0.8245
  271MOL0     C36516   6.670   3.491   7.241  0.9966  0.9452 -0.2973
  271MOL0     C36517   6.769   3.412   7.184 -0.7071  1.3522  0.2220
  271MOL0     H36518   7.192   3.408   6.989  2.2025 -0.7978  2.2813
  271MOL0     H36519   7.368   3.330   6.831 -1.0568  0.2559 -2.6533
  271MOL0     H36520   7.253   2.946   6.642 -1.7081  2.6342  4.1822
  271MOL0     H36521   7.388   2.961   6.548 -2.3511  1.8935  0.1389
  271MOL0     H36522   7.532   2.846   6.691 -0.2946  1.8458  2.4673
  271MOL0     H36523   7.436   2.861   6.826  1.7273  1.7884  0.3895
  271MOL0     H36524   7.243   2.729   6.690  0.3857 -0.0478 -1.2486
  271MOL0     H36525   7.364   2.662   6.589  0.2531 -1.1399  0.6188
  271MOL0     H36526   7.350   2.651   6.889 -2.3483 -3.8282  1.8786
  271MOL0     H36527   7.338   2.523   6.779  0.4217  0.1736  2.0396
  271MOL0     H36528   7.588   2.585   6.695 -1.5737  1.5128 -1.2841
  271MOL0     H36529   7.579   2.659   6.863 -2.9439  0.2304  1.6756
  271MOL0     H36530   7.657   2.444   6.909 -0.6117 -0.5309 -0.4032
  271MOL0     H36531   7.482   2.430   6.937  0.3262 -1.6713  0.7715
  271MOL0     H36532   7.478   2.343   6.681 -0.8532 -1.1616 -0.2185
  271MOL0     H36533   7.646   2.307   6.730 -0.8485  1.4819 -0.8865
  271MOL0     H36534   7.473   2.100   6.769 -0.5085 -2.3813  2.4553
  271MOL0     H36535   7.402   2.197   6.885 -0.9403 -0.0784 -0.6960
  271MOL0     H36536   7.696   1.995   6.782 -0.8564  0.0999  0.0081
  271MOL0     H36537   7.836   1.823   6.904  2.5068  1.1483 -2.0400
  271MOL0     H36538   7.965   1.936   6.946  0.7752  0.2679  1.6731
  271MOL0     H36539   7.805   1.769   7.141 -1.0627  2.9255 -0.1088
  271MOL0     H36540   7.925   1.890   7.194 -0.7328  0.0033  1.0153
  271MOL0     H36541   8.112   1.780   7.092 -0.4195  1.1533  0.2303
  271MOL0     H36542   7.998   1.658   7.031 -1.6240 -0.0040  0.7451
  271MOL0     H36543   8.081   1.724   7.327  1.8378  0.4393  1.1597
  271MOL0     H36544   8.175   1.609   7.229 -1.7607 -3.5144 -2.1639
  271MOL0     H36545   7.958   1.379   7.479 -0.1788 -1.3035  0.3816
  271MOL0     H36546   7.981   1.197   7.596 -1.6707 -0.6643  0.1742
  271MOL0     H36547   7.901   1.075   7.495 -0.1077  0.7491 -0.4890
  271MOL0     H36548   8.074   1.069   7.562  0.1538  1.4939  2.1819
  271MOL0     H36549   8.451   0.832   7.169  0.1475  0.3799 -2.1259
  271MOL0     H36550   8.467   0.595   7.080 -0.9088 -2.4702  1.0983
  271MOL0     H36551   8.340   0.277   7.030 -0.7850 -1.1407  0.8040
  271MOL0     H36552   8.341   0.396   7.156 -1.6328 -0.4252  1.1962
  271MOL0     H36553   8.157   0.232   7.184 -1.5033 -0.0465 -0.9009
  271MOL0     H36554   8.108   0.399   7.175  2.3507  2.1080 -1.0517
  271MOL0     H36555   8.105   0.159   6.975  0.8510  0.1731  1.8223
  271MOL0     H36556   8.076   0.330   6.907 -0.0795  0.0076 -0.0808
  271MOL0     H36557   7.906   0.209   7.127 -0.8566  0.5028  0.5822
  271MOL0     H36558   7.881   0.360   7.056 -1.4789 -0.9740 -0.3104
  271MOL0     H36559   7.845   0.099   6.902 -1.9993 -2.3563  2.9786
  271MOL0     H36560   7.815   0.264   6.852 -0.0301 -1.5535 -0.9331
  271MOL0     H36561   7.610   0.178   6.941 -1.1470  5.8970  1.8259
  271MOL0     H36562   7.705   0.094   7.080  0.0206 -1.3281 -1.2512
  271MOL0     H36563   7.692   0.311   7.196  0.8715  2.2382 -1.1753
  271MOL0     H36564   7.539   0.272   7.160  1.5685 -0.8173  2.9378
  271MOL0     H36565   7.668   0.444   6.956 -2.1908  0.3134 -1.0720
  271MOL0     H36566   7.575   0.509   7.090  0.4948  0.0131 -0.6036
  271MOL0     H36567   8.066   0.604   6.961 -0.4738 -0.5185  0.6342
  271MOL0     H36568   8.040   0.846   7.042 -0.2773 -3.0722  1.0339
  271MOL0     H36569   8.135   1.190   7.066 -1.6851 -1.0984  0.0693
  271MOL0     H36570   8.093   1.429   7.075 -0.1168  1.0613  0.7369
  271MOL0     H36571   7.188   2.938   6.843 -2.6091  0.6771 -1.7663
  271MOL0     H36572   7.013   3.012   6.999  2.3555 -2.1247  1.0886
  271MOL0     H36573   6.812   3.185   7.433  2.7730  2.2576  0.6414
  271MOL0     H36574   6.627   3.310   7.520 -3.7190 -0.8172 -1.9748
  271MOL0     H36575   6.530   3.685   7.412  0.1334  0.8247 -1.0344
  271MOL0     H36576   6.437   3.639   7.274 -0.3536 -0.6034  0.3330
  271MOL0     H36577   6.242   3.575   7.441  2.6480 -2.7908 -4.9976
  271MOL0     H36578   6.271   3.750   7.409  2.8855  1.6335  1.2080
  271MOL0     H36579   6.251   3.730   7.654 -0.3119  2.7859 -3.2922
  271MOL0     H36580   6.418   3.754   7.617  1.5887 -1.1017 -1.8512
  271MOL0     H36581   6.484   3.538   7.655  0.1026  0.1679  0.8168
  271MOL0     H36582   6.331   3.467   7.621  3.5860 -2.3034  0.7481
  271MOL0     H36583   6.321   3.593   8.031  2.7189  0.4912 -0.8127
  271MOL0     H36584   6.628   3.572   7.182 -2.3416  0.0533  0.6374
  271MOL0     H36585   6.805   3.443   7.087 -2.0159  0.0030 -0.7425
  272MOL0     O36586  10.589  10.861  11.281 -0.4185 -0.2153  0.3167
  272MOL0     C36587  10.559  10.820  11.166  0.3991  0.8892 -0.4650
  272MOL0     O36588  10.463  10.725  11.131  0.1964 -0.8462 -0.6258
  272MOL0     C36589  10.410  10.660  11.234 -0.7929  0.3026  0.4415
  272MOL0     C36590  10.487  10.592  11.333  0.0545 -0.3443 -0.2386
  272MOL0     C36591  10.420  10.527  11.439 -0.7460  0.4053  0.1025
  272MOL0     C36592  10.284  10.523  11.455 -0.3884  0.2111  0.6587
  272MOL0     O36593  10.237  10.446  11.556 -0.0074 -0.4043 -0.3199
  272MOL0     C36594  10.099  10.434  11.584  0.4655 -0.4094 -0.3802
  272MOL0     C36595  10.079  10.324  11.685  0.1281 -0.1551  0.2443
  272MOL0     C36596  10.135  10.364  11.821  0.9687 -0.1019  0.0208
  272MOL0     C36597  10.136  10.246  11.927  0.7130 -0.0037  0.6203
  272MOL0     C36598  10.186  10.310  12.059 -0.5329  0.5876  0.7273
  272MOL0     C36599  10.188  10.209  12.170 -0.3433  0.1212 -0.8520
  272MOL0     C36600  10.255  10.277  12.292 -0.3682  0.5033 -0.1182
  272MOL0     C36601  10.174  10.359  12.385  0.2077  0.4814  0.0271
  272MOL0     N36602  10.081  10.287  12.460  0.5624 -1.2273 -0.6628
  272MOL0     C36603   9.942  10.286  12.426 -0.7264 -1.8293 -0.6205
  272MOL0     C36604   9.892  10.221  12.531  0.3973 -0.1043 -0.6478
  272MOL0     C36605   9.744  10.191  12.543 -0.0570 -0.0009  0.6294
  272MOL0     C36606   9.662  10.314  12.569 -0.6636  0.4520 -0.5511
  272MOL0     C36607   9.509  10.291  12.578 -0.2393 -0.1867  0.3968
  272MOL0     C36608   9.428  10.305  12.448 -0.0260 -0.3466 -0.6836
  272MOL0     O36609   9.448  10.437  12.398 -0.5316 -0.2712  0.7101
  272MOL0     C36610   9.534  10.462  12.294 -0.2973  0.1229 -0.7777
  272MOL0     C36611   9.610  10.373  12.236 -0.4322 -0.1641 -0.1903
  272MOL0     C36612   9.694  10.404  12.124  0.8209 -0.0029 -0.3682
  272MOL0     C36613   9.790  10.309  12.073  0.0706  0.4087 -0.4699
  272MOL0     C36614   9.695  10.541  12.074 -0.4538 -0.1090 -0.2346
  272MOL0     C36615   9.771  10.581  11.958 -0.2279  0.0971  0.7724
  272MOL0     O36616   9.823  10.708  11.970 -0.1503  0.5687  0.1945
  272MOL0     C36617   9.863  10.782  11.865 -0.2662  0.2032  0.3041
  272MOL0     C36618   9.974  10.865  11.898 -0.4598  0.6029 -0.0910
  272MOL0     C36619  10.032  10.946  11.802 -0.9479  0.6269 -0.0284
  272MOL0     C36620   9.992  10.938  11.668 -0.0528  0.0151 -0.8027
  272MOL0     O36621  10.055  10.994  11.566  0.1893 -0.3851  0.2796
  272MOL0     C36622  10.182  10.942  11.560 -0.7385 -0.0936  0.6737
  272MOL0     C36623  10.298  11.050  11.567 -0.7405 -0.5310  0.0625
  272MOL0     C36624  10.434  10.977  11.579  0.7343  0.4282  0.0962
  272MOL0     C36625  10.537  11.089  11.593  0.3516  0.0123 -1.0484
  272MOL0     C36626  10.657  11.044  11.686 -0.3828 -0.5510  0.1408
  272MOL0     C36627  10.768  11.149  11.665 -1.0695 -0.0366  0.4311
  272MOL0     C36628  10.907  11.097  11.705 -0.3436 -0.5885  0.5058
  272MOL0     C36629  10.914  11.081  11.860 -0.3139  0.2281  1.2488
  272MOL0    Cl36630  11.081  10.997  11.883 -0.5247  0.0424  0.0763
  272MOL0     C36631   9.878  10.859  11.640  0.4651 -0.1662  0.4334
  272MOL0     C36632   9.809  10.783  11.735  0.0927 -0.0483  0.5265
  272MOL0     O36633   9.779  10.510  11.856  0.2155 -0.2677 -0.3039
  272MOL0     C36634   9.625  10.632  12.144 -0.4944 -0.1139  0.4039
  272MOL0     C36635   9.540  10.593  12.250 -0.1700 -1.2480 -0.4013
  272MOL0     N36636   9.991  10.169  12.609 -0.2167 -0.1048 -0.3272
  272MOL0     N36637  10.109  10.209  12.569  0.7433 -0.0291 -0.5119
  272MOL0     C36638  10.212  10.589  11.355 -0.4793 -0.8312 -0.4044
  272MOL0     C36639  10.272  10.649  11.241 -0.6122  0.0191 -0.0676
  272MOL0     C36640  10.639  10.869  11.053  0.1178 -0.2552 -0.7796
  272MOL0     C36641  10.597  10.841  10.915 -0.4205  0.0680  0.8105
  272MOL0     C36642  10.681  10.890  10.811 -0.4037  0.3155  0.3081
  272MOL0     C36643  10.792  10.969  10.828  0.2321  0.3754  0.0072
  272MOL0     O36644  10.874  11.017  10.735 -0.0493 -0.5312  0.0933
  272MOL0     C36645  10.897  10.934  10.623  0.6518 -0.3640  0.3765
  272MOL0     C36646  11.035  10.966  10.570  0.4119  0.7814 -1.0509
  272MOL0     C36647  11.066  11.116  10.545  0.0566 -0.4864 -0.4320
  272MOL0     C36648  11.141  11.142  10.413 -0.1318  0.4872  0.0260
  272MOL0     C36649  11.073  11.080  10.297  0.8291 -0.0648  0.4824
  272MOL0     C36650  11.014  11.023  10.205 -0.3689 -0.9255  0.6015
  272MOL0     C36651  10.834  10.976  10.963  1.2166  0.0832  1.4230
  272MOL0     C36652  10.762  10.931  11.075  0.4648 -0.0913  0.6497
  272MOL0     H36653  10.595  10.594  11.336  0.0513  0.2755 -0.4572
  272MOL0     H36654  10.483  10.492  11.521  2.5905  2.2409 -1.4432
  272MOL0     H36655  10.053  10.528  11.616  0.2186 -0.3583 -0.8817
  272MOL0     H36656  10.042  10.400  11.497  2.2346 -1.5791 -1.1235
  272MOL0     H36657   9.972  10.300  11.680 -0.3220  1.8692 -1.2795
  272MOL0     H36658  10.123  10.230  11.649 -2.7747 -2.0189  1.1756
  272MOL0     H36659  10.240  10.392  11.819  0.7739  0.6569  0.1530
  272MOL0     H36660  10.060  10.437  11.852 -1.7812 -1.5788 -2.6107
  272MOL0     H36661  10.035  10.205  11.934 -0.5585  2.7991  0.1939
  272MOL0     H36662  10.199  10.161  11.901 -1.4488 -1.4052 -0.2659
  272MOL0     H36663  10.287  10.347  12.045  0.5272 -2.1990  0.2786
  272MOL0     H36664  10.127  10.401  12.073  1.5029  2.0739  0.0727
  272MOL0     H36665  10.092  10.160  12.188 -0.6880  0.8877 -0.5885
  272MOL0     H36666  10.251  10.124  12.142 -0.8503  0.0214 -1.7192
  272MOL0     H36667  10.292  10.193  12.352  2.5905  1.9503  0.2355
  272MOL0     H36668  10.339  10.342  12.268  1.4185 -0.9074  1.8972
  272MOL0     H36669  10.119  10.436  12.328 -2.1790  0.9564  2.7309
  272MOL0     H36670  10.238  10.397  12.464  1.5888 -3.5427  1.0710
  272MOL0     H36671   9.884  10.323  12.342 -1.5423  1.9209  1.4035
  272MOL0     H36672   9.710  10.143  12.451 -3.1174  2.2753  0.4207
  272MOL0     H36673   9.721  10.112  12.616 -4.6056 -0.0394 -0.5292
  272MOL0     H36674   9.674  10.385  12.486 -0.3282  1.1991  0.1323
  272MOL0     H36675   9.695  10.364  12.660 -0.7676  0.9287 -0.7722
  272MOL0     H36676   9.461  10.352  12.655 -2.7010 -2.1531  0.5828
  272MOL0     H36677   9.496  10.188  12.613  1.7245 -0.1031  1.4734
  272MOL0     H36678   9.324  10.297  12.479  0.3648  1.3308  1.3249
  272MOL0     H36679   9.439  10.222  12.378 -1.3469 -0.2994 -0.9741
  272MOL0     H36680   9.628  10.279  12.286  2.7694  0.1766 -0.4764
  272MOL0     H36681   9.813  10.233  12.149 -0.4006  1.4553  0.7569
  272MOL0     H36682   9.760  10.266  11.977  1.1133 -0.4724 -0.4242
  272MOL0     H36683   9.889  10.354  12.061  0.2116  0.2800  0.1552
  272MOL0     H36684  10.012  10.878  11.999 -1.0290  0.6483  0.1196
  272MOL0     H36685  10.113  11.016  11.822 -3.1962  2.9413  1.7726
  272MOL0     H36686  10.201  10.860  11.630 -4.3511 -0.3866  1.5136
  272MOL0     H36687  10.184  10.907  11.457 -0.1150  0.0791  0.6241
  272MOL0     H36688  10.298  11.112  11.477  0.4315  0.6884  0.8544
  272MOL0     H36689  10.274  11.116  11.651 -2.2144 -0.0225 -0.7100
  272MOL0     H36690  10.441  10.920  11.486 -2.6391 -0.8021  0.4745
  272MOL0     H36691  10.443  10.908  11.663  0.0838  0.2801  0.0521
  272MOL0     H36692  10.557  11.118  11.490 -0.2971 -1.2192 -1.5553
  272MOL0     H36693  10.485  11.169  11.646  0.7028  1.2700 -2.5524
  272MOL0     H36694  10.699  10.946  11.662  1.9640  0.2574  0.7748
  272MOL0     H36695  10.606  11.052  11.783 -1.8753  3.2498 -0.7940
  272MOL0     H36696  10.780  11.170  11.559 -2.1085 -0.2982  0.2502
  272MOL0     H36697  10.746  11.245  11.711 -2.5676  0.1266 -0.5796
  272MOL0     H36698  10.975  11.179  11.681 -1.3663  0.2098  0.2531
  272MOL0     H36699  10.950  11.007  11.659 -0.8374 -0.4396 -0.2635
  272MOL0     H36700  10.832  11.022  11.901  1.9175 -4.1895 -0.0029
  272MOL0     H36701  10.925  11.179  11.909 -1.1039  0.3854  1.1180
  272MOL0     H36702   9.853  10.845  11.535 -1.1498 -4.8963  1.1950
  272MOL0     H36703   9.726  10.720  11.704  0.1954 -0.7020  1.5376
  272MOL0     H36704   9.634  10.734  12.109 -0.5971 -0.5716 -1.0240
  272MOL0     H36705   9.484  10.674  12.296 -4.0767 -2.9174 -1.8009
  272MOL0     H36706  10.105  10.596  11.371 -0.2266  2.5575  0.6734
  272MOL0     H36707  10.212  10.691  11.160 -0.0751 -0.6335 -0.8225
  272MOL0     H36708  10.507  10.788  10.888 -0.3754  0.7317 -0.7104
  272MOL0     H36709  10.648  10.873  10.709  2.1551  1.1994 -0.7532
  272MOL0     H36710  10.884  10.827  10.640 -0.9817 -0.4675 -1.1976
  272MOL0     H36711  10.825  10.973  10.550 -0.0873  0.9110  1.7271
  272MOL0     H36712  11.043  10.904  10.481  0.4668  1.7420 -1.7287
  272MOL0     H36713  11.095  10.928  10.653  0.6855  2.6671 -0.3506
  272MOL0     H36714  11.131  11.136  10.631 -1.8098 -1.6739  1.3552
  272MOL0     H36715  10.979  11.181  10.553 -2.1927 -2.9213 -2.9596
  272MOL0     H36716  11.239  11.094  10.413  0.5203  1.7053  1.9920
  272MOL0     H36717  11.167  11.248  10.409 -0.7854  0.7876  2.3559
  272MOL0     H36718  10.967  10.979  10.120 -0.3267 -0.6310  0.4236
  272MOL0     H36719  10.923  11.031  10.993 -0.5322  2.8093  2.0888
  272MOL0     H36720  10.818  10.950  11.166  0.5815 -1.2289  0.8338
  273MOL0     O36721   3.327   8.019   8.992  0.0108  0.1983  0.3312
  273MOL0     C36722   3.417   8.098   8.998 -0.1815  0.2290  0.1494
  273MOL0     O36723   3.412   8.221   9.051 -0.2447 -0.2870 -0.6170
  273MOL0     C36724   3.292   8.273   9.103 -0.2497 -0.2921  0.2035
  273MOL0     C36725   3.160   8.240   9.062  0.1166 -0.4847  0.3135
  273MOL0     C36726   3.053   8.297   9.137  0.5945  0.2785  0.0236
  273MOL0     C36727   3.069   8.396   9.233 -0.6863  1.3867 -1.0914
  273MOL0     O36728   2.970   8.471   9.295 -0.2506  0.1806  0.1226
  273MOL0     C36729   2.844   8.412   9.319  0.2364 -0.1861 -0.1174
  273MOL0     C36730   2.780   8.440   9.460 -0.4235  0.1942 -0.5308
  273MOL0     C36731   2.706   8.576   9.470 -0.4734 -0.3054 -0.2212
  273MOL0     C36732   2.758   8.663   9.585 -1.0545 -0.2204  0.2141
  273MOL0     C36733   2.901   8.728   9.554  0.0373  0.4199 -0.1065
  273MOL0     C36734   2.942   8.822   9.662  0.6159  1.0842 -0.1513
  273MOL0     C36735   3.070   8.889   9.624 -0.3969  0.5492  0.6891
  273MOL0     C36736   3.101   8.994   9.731  0.6900  0.3006  0.6223
  273MOL0     N36737   3.012   9.116   9.717  0.2409  0.3459 -0.2472
  273MOL0     C36738   3.050   9.213   9.621  0.0458 -0.2270  0.4824
  273MOL0     C36739   2.932   9.278   9.592 -0.4701 -0.2445  0.0502
  273MOL0     C36740   2.910   9.395   9.499 -0.0154 -0.4173  0.2664
  273MOL0     C36741   2.937   9.535   9.575 -1.2383  0.2026  0.3970
  273MOL0     C36742   2.928   9.656   9.472  0.4019  0.2175 -0.7897
  273MOL0     C36743   2.938   9.781   9.565  0.8594  0.3875 -0.1125
  273MOL0     O36744   2.963   9.891   9.479  0.4140  0.6513 -0.0368
  273MOL0     C36745   2.995  10.009   9.540  0.9767  1.2243 -0.4282
  273MOL0     C36746   3.016  10.034   9.680 -0.0330  0.7762  0.8043
  273MOL0     C36747   3.037  10.160   9.740  0.0911 -0.4945  0.6599
  273MOL0     C36748   3.063  10.172   9.886  0.0292 -0.1811  0.1017
  273MOL0     C36749   3.046  10.273   9.649  0.5526  0.0290  0.3846
  273MOL0     C36750   3.058  10.414   9.691  0.0714  0.0847 -0.4015
  273MOL0     O36751   3.018  10.442   9.815  0.4489 -0.4147  0.6641
  273MOL0     C36752   3.047  10.559   9.878 -0.9360  1.0132 -0.1978
  273MOL0     C36753   3.115  10.545  10.004 -0.2651  0.2295  0.0067
  273MOL0     C36754   3.168  10.654  10.071 -0.6249 -0.0228 -0.5415
  273MOL0     C36755   3.149  10.777  10.023  0.3376 -0.7712  0.5117
  273MOL0     O36756   3.185  10.891  10.089  0.2297 -0.1556 -0.1278
  273MOL0     C36757   3.220  10.887  10.221 -0.8341 -0.5598 -0.0665
  273MOL0     C36758   3.249  11.019  10.271  0.9467  0.5619  0.7609
  273MOL0     C36759   3.268  11.032  10.425  0.1875 -0.3937 -0.6904
  273MOL0     C36760   3.294  11.183  10.462 -0.3467 -0.1573 -1.3066
  273MOL0     C36761   3.354  11.206  10.600 -0.0533 -0.2882  0.5673
  273MOL0     C36762   3.255  11.200  10.716 -0.0161 -0.3321  0.3279
  273MOL0     C36763   3.337  11.237  10.849 -0.4179  0.8053  1.0307
  273MOL0     C36764   3.276  11.359  10.912 -0.3375 -0.5203 -0.5909
  273MOL0    Cl36765   3.355  11.394  11.067 -0.1647  0.0359 -0.0026
  273MOL0     C36766   3.073  10.796   9.903  0.4669  0.6633 -0.3786
  273MOL0     C36767   3.026  10.687   9.827  0.3364 -0.0849 -0.3356
  273MOL0     O36768   3.111  10.493   9.618 -0.6044 -0.1939  0.5281
  273MOL0     C36769   3.024  10.252   9.513 -0.2866 -0.0886 -0.1543
  273MOL0     C36770   3.005  10.122   9.468  0.8138 -0.3160 -0.0851
  273MOL0     N36771   2.834   9.223   9.674  0.2504 -0.0880  0.1852
  273MOL0     N36772   2.883   9.126   9.744 -0.1957 -0.4897 -0.1045
  273MOL0     C36773   3.201   8.428   9.265  0.9323 -0.0552  0.0021
  273MOL0     C36774   3.309   8.375   9.194 -0.9002  0.5210  0.6661
  273MOL0     C36775   3.552   8.050   8.963  0.1997 -0.4605  0.4083
  273MOL0     C36776   3.664   8.129   8.978 -0.4138  0.2187  0.5459
  273MOL0     C36777   3.792   8.085   8.944 -0.1173 -0.1677 -0.6526
  273MOL0     C36778   3.814   7.960   8.887  1.3670  0.8252 -0.0577
  273MOL0     O36779   3.934   7.933   8.828  0.6534 -0.3410 -0.6871
  273MOL0     C36780   3.968   7.801   8.776  0.6111 -0.2204 -0.0179
  273MOL0     C36781   3.998   7.708   8.885 -0.0938  0.0587 -0.6399
  273MOL0     C36782   3.966   7.558   8.873  0.7264 -0.7009 -0.2596
  273MOL0     C36783   3.943   7.514   9.017  0.0659  0.4305 -0.2285
  273MOL0     C36784   3.893   7.377   9.004 -0.4925  0.4155  0.1971
  273MOL0     C36785   3.854   7.266   9.018  1.0775  0.2571  0.3001
  273MOL0     C36786   3.704   7.874   8.891  0.1610 -0.4294 -0.4032
  273MOL0     C36787   3.577   7.921   8.921  0.7574  0.7825 -0.0974
  273MOL0     H36788   3.132   8.165   8.989  1.1631 -1.4613  0.8831
  273MOL0     H36789   2.952   8.262   9.113  0.1807  1.4347  0.0402
  273MOL0     H36790   2.765   8.424   9.245 -1.2605 -6.0138  0.0656
  273MOL0     H36791   2.858   8.304   9.330 -0.7523 -0.2797  0.3957
  273MOL0     H36792   2.696   8.370   9.467 -1.2562  0.9998 -1.9672
  273MOL0     H36793   2.857   8.428   9.538  0.7334 -1.3788 -1.8335
  273MOL0     H36794   2.721   8.627   9.374 -1.3790  0.8326  0.2297
  273MOL0     H36795   2.601   8.563   9.497 -0.2770 -0.4834  0.4882
  273MOL0     H36796   2.689   8.746   9.605  0.6356  0.8822  1.8074
  273MOL0     H36797   2.762   8.603   9.676  0.6215  0.0981  0.3791
  273MOL0     H36798   2.965   8.641   9.540 -2.3521 -1.6481  1.1667
  273MOL0     H36799   2.894   8.799   9.471  2.2963  2.4651  1.2840
  273MOL0     H36800   2.863   8.896   9.680 -0.0386  0.7918 -1.6557
  273MOL0     H36801   2.961   8.760   9.750  2.5673  0.4555 -0.9686
  273MOL0     H36802   3.156   8.821   9.628 -1.8279 -1.4632 -0.7954
  273MOL0     H36803   3.073   8.923   9.520  0.6067 -2.5906 -0.4060
  273MOL0     H36804   3.204   9.028   9.719  0.6508 -0.0519 -0.8968
  273MOL0     H36805   3.084   8.956   9.832 -0.7128 -3.6253 -0.8918
  273MOL0     H36806   3.148   9.237   9.581  0.1840 -0.5301  0.6266
  273MOL0     H36807   2.973   9.387   9.410 -0.7330  2.9248 -0.6567
  273MOL0     H36808   2.806   9.385   9.465 -1.0247 -2.3397  3.4602
  273MOL0     H36809   3.034   9.540   9.625 -0.8076 -1.6765 -0.1874
  273MOL0     H36810   2.863   9.547   9.654 -0.0687 -0.4996  1.6377
  273MOL0     H36811   2.850   9.650   9.396  2.1356 -0.9061 -2.5708
  273MOL0     H36812   3.012   9.642   9.404 -0.3309 -2.4210 -1.2811
  273MOL0     H36813   3.017   9.768   9.640 -0.0020 -3.4654  0.3547
  273MOL0     H36814   2.850   9.792   9.629  4.0136 -1.8875  5.3884
  273MOL0     H36815   3.017   9.944   9.741  1.8558 -0.7299 -1.2488
  273MOL0     H36816   3.114  10.077   9.904 -0.2481 -0.3185  0.1613
  273MOL0     H36817   3.126  10.259   9.908 -0.3403 -0.0446  0.6191
  273MOL0     H36818   2.981  10.192   9.956  1.2070  0.3675  1.3690
  273MOL0     H36819   3.136  10.442  10.032  1.1297 -0.1591 -2.1944
  273MOL0     H36820   3.224  10.641  10.163 -1.4542 -0.5511 -0.0998
  273MOL0     H36821   3.137  10.833  10.268 -0.0003 -0.8338  1.1338
  273MOL0     H36822   3.312  10.831  10.236  0.8504  1.8568 -0.7723
  273MOL0     H36823   3.322  11.065  10.203 -2.0522  1.8789 -1.8200
  273MOL0     H36824   3.158  11.079  10.256  0.8865  0.2622 -0.1192
  273MOL0     H36825   3.340  10.958  10.460 -0.7543 -1.4050 -0.8262
  273MOL0     H36826   3.171  11.011  10.472 -0.2939 -2.7907 -2.5354
  273MOL0     H36827   3.365  11.224  10.390  4.0520 -2.5046  1.2726
  273MOL0     H36828   3.204  11.244  10.450  0.9772  2.4658  1.0661
  273MOL0     H36829   3.388  11.310  10.596 -1.0121  0.2065  3.0588
  273MOL0     H36830   3.434  11.132  10.615  0.3714  0.0185 -0.1515
  273MOL0     H36831   3.173  11.272  10.710  0.7686  0.5866  0.3271
  273MOL0     H36832   3.210  11.101  10.724 -0.0809 -0.4105 -0.7598
  273MOL0     H36833   3.441  11.253  10.820 -0.6756  1.9329  0.6830
  273MOL0     H36834   3.332  11.150  10.914 -1.5614  0.5675  0.6440
  273MOL0     H36835   3.169  11.347  10.926 -0.4064  0.5887 -0.0009
  273MOL0     H36836   3.286  11.443  10.842 -2.3313 -1.0776 -1.6059
  273MOL0     H36837   3.046  10.899   9.884  0.6041  1.6232  3.6536
  273MOL0     H36838   2.967  10.691   9.736  1.9338 -1.7968 -1.5224
  273MOL0     H36839   3.031  10.341   9.452  0.3208  2.0822  2.8750
  273MOL0     H36840   2.984  10.111   9.362 -1.8880  4.1037 -0.2433
  273MOL0     H36841   3.219   8.511   9.331 -0.2908 -0.2660  0.6255
  273MOL0     H36842   3.409   8.412   9.212 -0.8832 -0.1341  2.0280
  273MOL0     H36843   3.651   8.232   9.011 -1.4875  0.1540  0.3570
  273MOL0     H36844   3.874   8.157   8.951  0.4162 -0.8714  0.4664
  273MOL0     H36845   3.890   7.746   8.724  0.6016 -1.4278  1.2206
  273MOL0     H36846   4.059   7.811   8.717  0.4342 -2.6858 -0.8094
  273MOL0     H36847   3.953   7.752   8.974 -0.8488 -3.3473  0.8115
  273MOL0     H36848   4.106   7.713   8.907 -0.5965  1.3626  1.9621
  273MOL0     H36849   4.043   7.499   8.822 -0.7324 -0.8692 -2.4564
  273MOL0     H36850   3.874   7.552   8.814  0.0109 -1.5269  0.8919
  273MOL0     H36851   3.880   7.582   9.075  0.3904 -0.8424  1.7118
  273MOL0     H36852   4.041   7.505   9.065  0.0699 -1.4341 -0.4958
  273MOL0     H36853   3.834   7.165   9.046  3.4867  0.3551  2.8216
  273MOL0     H36854   3.710   7.770   8.859  3.5783 -0.9610  1.4755
  273MOL0     H36855   3.501   7.843   8.920  6.1880 -5.4015 -1.4817
  274MOL0     O36856  10.423  10.692   8.269  0.0556  0.0222 -0.2430
  274MOL0     C36857  10.332  10.772   8.297  0.0509 -0.2515 -0.3122
  274MOL0     O36858  10.216  10.736   8.351 -0.5568 -0.3654 -0.1872
  274MOL0     C36859  10.198  10.609   8.381 -0.4404  0.2250  0.1984
  274MOL0     C36860  10.165  10.572   8.517 -0.0235  0.1314  0.4837
  274MOL0     C36861  10.127  10.443   8.551 -0.2105  0.7817  0.7903
  274MOL0     C36862  10.127  10.345   8.463  0.3396  0.1698 -0.5999
  274MOL0     O36863  10.081  10.217   8.501 -0.1208  0.6800  0.7630
  274MOL0     C36864  10.171  10.136   8.571 -0.1016  0.6325  0.4720
  274MOL0     C36865  10.258  10.057   8.486  0.2410  0.2032 -0.0758
  274MOL0     C36866  10.191   9.965   8.382  0.0118 -0.1564  0.2143
  274MOL0     C36867  10.289   9.938   8.267  0.2426  0.9067  0.2911
  274MOL0     C36868  10.204   9.872   8.158 -0.4449 -0.1474  0.6101
  274MOL0     C36869  10.179   9.971   8.049 -0.6738  0.3259 -0.4339
  274MOL0     C36870  10.133   9.900   7.918  0.1750  0.2798 -0.6627
  274MOL0     C36871  10.095  10.002   7.809 -0.1261  0.3317  0.6014
  274MOL0     N36872  10.029  10.125   7.849 -0.1743  0.0242  0.3674
  274MOL0     C36873  10.098  10.232   7.898  0.3960 -0.6735  0.3272
  274MOL0     C36874  10.001  10.333   7.908 -0.0742  0.1506  0.5014
  274MOL0     C36875  10.028  10.452   7.986 -0.5007  1.5507  0.6806
  274MOL0     C36876  10.037  10.586   7.913 -0.6671 -0.0996 -0.0905
  274MOL0     C36877  10.096  10.690   8.004 -0.1191 -0.9723 -0.5690
  274MOL0     C36878  10.138  10.811   7.923  0.7049 -0.2520  0.3197
  274MOL0     O36879  10.031  10.911   7.934 -0.2556  0.1140  0.2345
  274MOL0     C36880  10.038  11.035   7.882  0.1176 -0.3538 -0.5779
  274MOL0     C36881  10.152  11.080   7.819 -0.9101  0.0027  0.5229
  274MOL0     C36882  10.159  11.216   7.776  0.3031 -0.4721  0.8543
  274MOL0     C36883  10.279  11.260   7.699 -0.2848  0.2591 -0.7561
  274MOL0     C36884  10.050  11.296   7.806  0.7524 -0.0821  0.5095
  274MOL0     C36885  10.058  11.443   7.767  0.0276  0.0233  0.6417
  274MOL0     O36886  10.181  11.503   7.774 -0.1764  0.7816  0.2865
  274MOL0     C36887  10.202  11.630   7.729 -0.1873 -0.3817 -0.0110
  274MOL0     C36888  10.329  11.672   7.739 -0.3184 -0.1692  0.1993
  274MOL0     C36889  10.369  11.800   7.713 -0.2221 -0.5938 -0.2430
  274MOL0     C36890  10.272  11.902   7.679  0.5906  1.0354  0.4528
  274MOL0     O36891  10.298  12.029   7.677  0.3517 -0.3733 -1.1382
  274MOL0     C36892  10.230  12.096   7.789 -0.8976 -0.3571 -0.4247
  274MOL0     C36893  10.300  12.229   7.826  0.5528 -1.2432 -0.5106
  274MOL0     C36894  10.266  12.278   7.958 -0.5809  0.3772 -1.1964
  274MOL0     C36895  10.383  12.262   8.062  0.2499 -0.4137 -1.1332
  274MOL0     C36896  10.352  12.320   8.194  0.2744 -0.0700  0.9853
  274MOL0     C36897  10.352  12.476   8.191  0.2033 -0.0751  0.1893
  274MOL0     C36898  10.332  12.523   8.336 -0.1903 -0.9773  0.0476
  274MOL0     C36899  10.342  12.681   8.335 -0.0298  0.1371 -0.0241
  274MOL0    Cl36900  10.270  12.734   8.482 -0.5859 -0.3734 -0.6462
  274MOL0     C36901  10.142  11.856   7.665 -0.9001 -0.2035  1.1696
  274MOL0     C36902  10.101  11.725   7.691  0.9033 -0.6637 -0.4945
  274MOL0     O36903   9.950  11.488   7.722 -0.7593  0.3755  0.5173
  274MOL0     C36904   9.938  11.256   7.877 -1.0685 -0.5686 -0.1279
  274MOL0     C36905   9.930  11.120   7.915  0.5763  0.3647 -0.7019
  274MOL0     N36906   9.885  10.290   7.855 -0.0259  0.0670  0.5885
  274MOL0     N36907   9.904  10.166   7.814 -0.3418  0.2242  1.2161
  274MOL0     C36908  10.175  10.374   8.334  0.7515  0.5052 -0.5532
  274MOL0     C36909  10.211  10.503   8.290  0.1970 -0.5598  0.5544
  274MOL0     C36910  10.348  10.910   8.250  0.1602  0.2290 -0.7697
  274MOL0     C36911  10.476  10.964   8.210 -0.0418  0.4148 -0.1599
  274MOL0     C36912  10.474  11.094   8.163 -0.6255  0.0377  0.5491
  274MOL0     C36913  10.370  11.178   8.161  0.2402  0.0348  1.1471
  274MOL0     O36914  10.395  11.302   8.121  0.7881 -0.4199  0.7864
  274MOL0     C36915  10.294  11.399   8.122  0.1350 -0.0137 -0.2885
  274MOL0     C36916  10.345  11.544   8.090 -0.2729 -0.7643  0.7912
  274MOL0     C36917  10.245  11.654   8.122  0.4171  0.2793  0.8066
  274MOL0     C36918  10.325  11.784   8.109 -0.3022 -0.1215  0.3338
  274MOL0     C36919  10.232  11.882   8.157  1.2881 -0.6913 -0.8398
  274MOL0     C36920  10.140  11.955   8.180 -1.1512  0.6066 -0.3705
  274MOL0     C36921  10.238  11.118   8.188 -0.6970 -0.3249 -0.5170
  274MOL0     C36922  10.231  10.983   8.227 -0.0133  0.2903  0.1796
  274MOL0     H36923  10.170  10.644   8.598  0.4203 -0.6204  1.1500
  274MOL0     H36924  10.096  10.429   8.655 -0.9038  0.7990  0.5944
  274MOL0     H36925  10.228  10.202   8.636  0.7555 -0.0008  0.3759
  274MOL0     H36926  10.118  10.051   8.617  0.8520 -0.1192  0.2215
  274MOL0     H36927  10.321  10.130   8.434 -2.2910  3.1927  0.8053
  274MOL0     H36928  10.328   9.997   8.545  2.0602  3.5915  1.5161
  274MOL0     H36929  10.146   9.882   8.437  1.0858  0.6201  2.3697
  274MOL0     H36930  10.113  10.025   8.334 -0.1286 -0.6822 -0.2187
  274MOL0     H36931  10.334  10.035   8.242 -0.8630  1.0552 -1.2943
  274MOL0     H36932  10.358   9.864   8.308 -3.1697 -3.4948 -1.1615
  274MOL0     H36933  10.267   9.791   8.120  1.1121  0.4332  1.8367
  274MOL0     H36934  10.118   9.821   8.200 -1.1463 -2.7962 -3.5050
  274MOL0     H36935  10.109  10.046   8.087 -0.6203  0.0341  0.2578
  274MOL0     H36936  10.274  10.015   8.019 -0.7184  0.8724  0.2052
  274MOL0     H36937  10.208   9.833   7.876  2.2680  2.5027 -0.6712
  274MOL0     H36938  10.036   9.856   7.944 -0.0670  0.8364 -0.6138
  274MOL0     H36939  10.023   9.957   7.740 -0.4128  1.7687 -0.0673
  274MOL0     H36940  10.186  10.025   7.753  0.0130 -0.0706  0.6554
  274MOL0     H36941  10.202  10.236   7.930  0.1383 -1.2081  1.2852
  274MOL0     H36942   9.945  10.450   8.058 -3.7636 -0.7561 -2.7434
  274MOL0     H36943  10.124  10.439   8.038 -2.0578 -2.1421  3.0777
  274MOL0     H36944   9.936  10.622   7.888 -0.4659  0.7226  0.2363
  274MOL0     H36945  10.094  10.568   7.821  2.0741  1.3076  1.2225
  274MOL0     H36946  10.188  10.657   8.054 -0.2643  1.5212  1.5832
  274MOL0     H36947  10.019  10.717   8.077  2.4077  2.5401  1.0756
  274MOL0     H36948  10.162  10.789   7.819  1.6476 -1.3759  0.7511
  274MOL0     H36949  10.229  10.851   7.969  3.0906 -0.2365 -3.8993
  274MOL0     H36950  10.232  11.011   7.794 -1.2970 -0.8543  1.5953
  274MOL0     H36951  10.350  11.306   7.769  0.2934 -0.9197 -0.5469
  274MOL0     H36952  10.324  11.179   7.641  0.6323  1.1548 -1.3442
  274MOL0     H36953  10.263  11.339   7.624  1.9398  1.8192  0.2846
  274MOL0     H36954  10.389  11.585   7.761 -2.0199 -3.2805 -5.4019
  274MOL0     H36955  10.472  11.833   7.726 -0.3768 -0.1222 -0.1940
  274MOL0     H36956  10.128  12.123   7.764 -0.9925 -1.0603 -0.8094
  274MOL0     H36957  10.220  12.029   7.875  0.2855  0.1765  0.1542
  274MOL0     H36958  10.405  12.198   7.823  1.6356  1.9232  0.6131
  274MOL0     H36959  10.284  12.303   7.748  2.7283 -0.5361 -0.3720
  274MOL0     H36960  10.171  12.240   7.994 -0.1491  1.3797  1.1963
  274MOL0     H36961  10.258  12.387   7.954 -0.8182  0.3233 -2.9967
  274MOL0     H36962  10.391  12.157   8.091  2.1759  0.0716  0.2805
  274MOL0     H36963  10.480  12.302   8.033  1.1213 -3.9905 -3.8584
  274MOL0     H36964  10.424  12.284   8.268  0.1041 -0.4041  0.9904
  274MOL0     H36965  10.249  12.297   8.223  0.6693  0.1186  2.6661
  274MOL0     H36966  10.448  12.517   8.157  0.1979  4.1582  4.3084
  274MOL0     H36967  10.276  12.510   8.121  2.5086  3.9312 -0.6898
  274MOL0     H36968  10.412  12.488   8.402  2.4139  0.4688 -2.1327
  274MOL0     H36969  10.236  12.492   8.378 -1.0586  2.7950  1.2185
  274MOL0     H36970  10.283  12.715   8.250 -0.4971  2.0963  1.0259
  274MOL0     H36971  10.447  12.709   8.319  0.3898  0.8697  3.2340
  274MOL0     H36972  10.076  11.933   7.626  0.3586 -0.1766 -1.1324
  274MOL0     H36973   9.994  11.711   7.675  1.0923 -1.1038 -1.4499
  274MOL0     H36974   9.862  11.332   7.891 -1.6576 -1.1415 -0.1169
  274MOL0     H36975   9.852  11.079   7.978  1.5855 -0.3168  0.1315
  274MOL0     H36976  10.182  10.294   8.262  1.0413 -0.2362  0.2790
  274MOL0     H36977  10.241  10.525   8.188 -0.4361 -2.4523 -0.0753
  274MOL0     H36978  10.574  10.918   8.212  0.7195  1.9676  1.0616
  274MOL0     H36979  10.571  11.133   8.134  0.5225 -1.3453  2.3215
  274MOL0     H36980  10.206  11.367   8.067  1.2514 -0.7390 -1.7311
  274MOL0     H36981  10.254  11.408   8.224  2.0161 -0.0753  0.5021
  274MOL0     H36982  10.368  11.547   7.983 -1.1774 -1.3972  0.5681
  274MOL0     H36983  10.432  11.559   8.154  1.0202  2.5703 -1.4399
  274MOL0     H36984  10.202  11.646   8.223  0.1582  2.6582  0.9431
  274MOL0     H36985  10.168  11.636   8.047 -0.6355 -1.3990  2.2128
  274MOL0     H36986  10.357  11.810   8.008 -1.2155 -1.6609 -0.3811
  274MOL0     H36987  10.407  11.769   8.180  0.3801 -1.0331 -0.6227
  274MOL0     H36988  10.049  12.004   8.207 -0.1693  1.8830  0.7170
  274MOL0     H36989  10.148  11.174   8.166 -0.3134  1.1503  1.4012
  274MOL0     H36990  10.135  10.934   8.234  0.3281 -0.4906 -0.5033
  275MOL0     O36991   7.434   4.201   8.462  0.6158 -0.1947 -0.3380
  275MOL0     C36992   7.415   4.327   8.482  0.5773  0.3409  1.0438
  275MOL0     O36993   7.502   4.413   8.532 -0.6546  0.8424  0.2467
  275MOL0     C36994   7.632   4.356   8.550  0.6658  0.2127  0.2030
  275MOL0     C36995   7.667   4.353   8.674 -0.0499  0.1464 -0.3761
  275MOL0     C36996   7.802   4.311   8.708  0.1172 -0.9688 -0.3018
  275MOL0     C36997   7.891   4.258   8.616  0.0033  0.6256 -0.0003
  275MOL0     O36998   8.025   4.227   8.644 -0.2701  0.4483  0.4241
  275MOL0     C36999   8.062   4.147   8.755  0.9835 -0.5335 -0.0243
  275MOL0     C37000   8.170   4.046   8.707 -0.4902  0.3161 -1.1582
  275MOL0     C37001   8.169   3.902   8.776  0.6699  0.1727 -0.0023
  275MOL0     C37002   8.281   3.812   8.715  0.9819  0.3376  0.6704
  275MOL0     C37003   8.236   3.752   8.577  0.4898  0.4641 -1.0274
  275MOL0     C37004   8.330   3.643   8.526  0.5726 -0.0051  0.4274
  275MOL0     C37005   8.320   3.507   8.591  0.8001 -0.1571 -0.3424
  275MOL0     C37006   8.210   3.419   8.540  0.8407 -0.1475  0.0981
  275MOL0     N37007   8.230   3.413   8.390  0.0162  0.4393 -0.7703
  275MOL0     C37008   8.336   3.370   8.314 -0.0557  0.2829 -0.3002
  275MOL0     C37009   8.296   3.395   8.186 -0.1198  0.0186 -0.0412
  275MOL0     C37010   8.384   3.400   8.058  0.5549 -0.3817  0.3037
  275MOL0     C37011   8.324   3.368   7.915  0.8612 -0.5575 -0.2898
  275MOL0     C37012   8.312   3.214   7.906  0.4453  0.5811  0.8810
  275MOL0     C37013   8.237   3.160   7.785  1.1813 -0.7294  0.5037
  275MOL0     O37014   8.301   3.206   7.659  0.3155  0.6507  0.3924
  275MOL0     C37015   8.256   3.316   7.597  0.5031 -0.2897  0.9399
  275MOL0     C37016   8.351   3.410   7.542  0.6532  0.4102  0.5830
  275MOL0     C37017   8.314   3.525   7.475 -0.2734 -0.0939  0.5406
  275MOL0     C37018   8.428   3.608   7.430  0.2330  0.0832  0.3536
  275MOL0     C37019   8.176   3.560   7.460 -0.6521  0.2016  0.2159
  275MOL0     C37020   8.122   3.670   7.382 -0.5180  0.1056 -1.0459
  275MOL0     O37021   7.988   3.697   7.373  0.2700  0.0198 -0.2958
  275MOL0     C37022   7.948   3.789   7.281 -0.1362  0.0810  0.9449
  275MOL0     C37023   7.913   3.744   7.152  0.9563 -0.3698  0.0135
  275MOL0     C37024   7.868   3.834   7.059  0.7853 -0.2454 -0.6971
  275MOL0     C37025   7.851   3.973   7.098 -0.1096 -0.4617 -0.2627
  275MOL0     O37026   7.785   4.059   7.011  0.3354  0.6172 -0.4683
  275MOL0     C37027   7.730   4.190   7.047  0.3323  0.0558 -0.0080
  275MOL0     C37028   7.830   4.304   7.007 -0.0371  0.3141 -0.4222
  275MOL0     C37029   7.812   4.439   7.074 -0.7260 -0.4588 -0.3181
  275MOL0     C37030   7.859   4.458   7.214 -1.2145  0.3674 -0.3151
  275MOL0     C37031   8.024   4.458   7.238  0.1710 -1.0947  0.1653
  275MOL0     C37032   8.065   4.537   7.370 -0.5764 -0.1513  0.4153
  275MOL0     C37033   8.208   4.492   7.408 -0.7299  0.0435 -0.4184
  275MOL0     C37034   8.245   4.536   7.550 -0.5725  0.3113  0.1915
  275MOL0    Cl37035   8.374   4.435   7.627 -0.4436  0.4678 -0.6667
  275MOL0     C37036   7.903   4.017   7.225  0.5482  1.0443 -0.0017
  275MOL0     C37037   7.957   3.925   7.315  0.7091  0.3427 -0.0762
  275MOL0     O37038   8.197   3.736   7.321 -0.1537 -0.3217  0.1976
  275MOL0     C37039   8.083   3.473   7.522  0.1275  0.4393  1.1762
  275MOL0     C37040   8.118   3.349   7.582 -0.0713  0.1272  0.2088
  275MOL0     N37041   8.166   3.445   8.190  0.5008 -0.4589  0.4303
  275MOL0     N37042   8.129   3.443   8.310 -0.9136  0.1047  0.1429
  275MOL0     C37043   7.838   4.262   8.486 -0.8450  0.2893  0.4376
  275MOL0     C37044   7.720   4.309   8.444  1.1246 -0.0164  0.2802
  275MOL0     C37045   7.285   4.385   8.454 -0.1077  0.4636  0.5276
  275MOL0     C37046   7.167   4.309   8.424 -0.5385  0.1664 -0.2378
  275MOL0     C37047   7.036   4.366   8.409  0.2141  0.9274  1.7039
  275MOL0     C37048   7.026   4.505   8.410  0.5115 -1.0073  0.1121
  275MOL0     O37049   6.897   4.558   8.398  0.2407  0.1080 -1.0462
  275MOL0     C37050   6.891   4.691   8.340 -0.4757  0.3555 -0.2183
  275MOL0     C37051   6.753   4.743   8.327  0.1799  0.5155 -0.7516
  275MOL0     C37052   6.730   4.875   8.270  0.9616 -0.0086 -0.4461
  275MOL0     C37053   6.771   4.867   8.117 -0.5395 -0.3973  0.1463
  275MOL0     C37054   6.755   5.001   8.066  0.3591  0.1054  0.6620
  275MOL0     C37055   6.763   5.116   8.031  0.3615 -0.1185  0.5813
  275MOL0     C37056   7.146   4.573   8.442  0.2219  0.3605  0.6375
  275MOL0     C37057   7.269   4.521   8.454 -0.3608 -0.7717  0.3381
  275MOL0     H37058   7.603   4.408   8.742  0.8856  0.1553  0.5287
  275MOL0     H37059   7.825   4.332   8.812  1.4320  1.0785 -0.9405
  275MOL0     H37060   8.090   4.215   8.836  0.9007  0.2924 -0.6773
  275MOL0     H37061   7.970   4.094   8.781 -1.1794  2.1312 -1.6620
  275MOL0     H37062   8.147   4.032   8.601  0.5663 -0.2496 -1.3293
  275MOL0     H37063   8.265   4.099   8.710 -1.0528  1.3123  0.2092
  275MOL0     H37064   8.185   3.913   8.884 -1.0400 -0.6201  0.3623
  275MOL0     H37065   8.071   3.856   8.760  1.1292 -1.5702  1.7806
  275MOL0     H37066   8.373   3.864   8.686  1.1547 -1.6432 -2.8868
  275MOL0     H37067   8.311   3.727   8.776  1.0101 -1.6358 -1.9405
  275MOL0     H37068   8.135   3.713   8.592  1.5719 -1.7174  1.1492
  275MOL0     H37069   8.246   3.831   8.501  5.4805 -1.6024 -2.9214
  275MOL0     H37070   8.338   3.635   8.417  2.2636 -0.5358  0.5504
  275MOL0     H37071   8.434   3.670   8.547  0.9479 -1.3053  0.3494
  275MOL0     H37072   8.410   3.446   8.584 -1.0059 -3.6666  3.0788
  275MOL0     H37073   8.302   3.523   8.697 -0.3669  0.9791 -0.6823
  275MOL0     H37074   8.110   3.459   8.558 -0.0253 -1.4641 -1.4639
  275MOL0     H37075   8.206   3.318   8.583 -3.4396  0.2200  1.0507
  275MOL0     H37076   8.436   3.339   8.342 -0.5776 -2.7723 -1.5059
  275MOL0     H37077   8.422   3.503   8.049 -3.4877  1.6573  3.4956
  275MOL0     H37078   8.473   3.338   8.074  0.7651 -0.3296 -0.5906
  275MOL0     H37079   8.396   3.389   7.835  0.4135  1.4095 -0.2395
  275MOL0     H37080   8.234   3.427   7.894 -0.0487 -1.7691  0.0678
  275MOL0     H37081   8.256   3.178   7.993  1.8321  1.7424  2.3188
  275MOL0     H37082   8.413   3.172   7.906  1.0291  1.9177  1.2906
  275MOL0     H37083   8.134   3.198   7.788  0.1627 -2.8724 -2.7702
  275MOL0     H37084   8.228   3.051   7.788 -0.8085 -0.8328 -3.4055
  275MOL0     H37085   8.456   3.380   7.540 -0.2081 -3.0149 -1.2170
  275MOL0     H37086   8.519   3.569   7.478  0.2720  2.5057  2.4746
  275MOL0     H37087   8.441   3.603   7.321  2.2827  3.4131  0.2867
  275MOL0     H37088   8.430   3.712   7.465 -1.6381  0.5508 -0.8027
  275MOL0     H37089   7.909   3.637   7.134  1.8786 -0.4391  0.1510
  275MOL0     H37090   7.834   3.803   6.960  0.9350 -3.2084  0.0730
  275MOL0     H37091   7.636   4.200   6.992 -0.0536  1.6268  0.9053
  275MOL0     H37092   7.710   4.192   7.154 -3.3471 -1.7036 -0.5012
  275MOL0     H37093   7.933   4.276   7.032 -0.6979 -4.0217 -1.7691
  275MOL0     H37094   7.833   4.324   6.900 -1.1871  4.8686  0.1470
  275MOL0     H37095   7.710   4.475   7.056 -1.3924 -2.1613 -0.1113
  275MOL0     H37096   7.867   4.515   7.018  1.5751 -2.0347 -0.3189
  275MOL0     H37097   7.822   4.557   7.244 -1.3197  1.4734 -3.6394
  275MOL0     H37098   7.819   4.378   7.277  1.6585 -1.7540 -0.9608
  275MOL0     H37099   8.071   4.498   7.148 -3.3955  0.6798 -1.1029
  275MOL0     H37100   8.049   4.352   7.247 -0.0323 -0.9754  3.1746
  275MOL0     H37101   8.060   4.643   7.341 -3.3173 -0.7118 -1.6340
  275MOL0     H37102   7.995   4.531   7.453  0.2198  0.8775  1.1881
  275MOL0     H37103   8.291   4.523   7.344 -1.7036 -2.5770 -3.1767
  275MOL0     H37104   8.216   4.383   7.415  2.2453 -0.0829 -3.2851
  275MOL0     H37105   8.150   4.537   7.604 -2.0906  0.8201 -2.3245
  275MOL0     H37106   8.269   4.643   7.553  2.5709 -0.2645 -0.9873
  275MOL0     H37107   7.897   4.123   7.247  0.2634  0.8478  0.9555
  275MOL0     H37108   7.994   3.951   7.414  0.1997 -0.6887  0.4077
  275MOL0     H37109   7.978   3.498   7.523  0.4441  1.8335  2.1344
  275MOL0     H37110   8.039   3.286   7.623 -0.2935 -2.4441 -3.6764
  275MOL0     H37111   7.908   4.229   8.409  0.2103  2.4479  0.3828
  275MOL0     H37112   7.708   4.319   8.337  1.0678 -0.0309  0.2851
  275MOL0     H37113   7.166   4.202   8.442  0.6346  0.4595  1.9373
  275MOL0     H37114   6.942   4.314   8.394  1.5592 -0.8900 -1.5952
  275MOL0     H37115   6.936   4.769   8.403 -2.3307 -0.0205  1.7115
  275MOL0     H37116   6.962   4.701   8.258  2.5481  0.4063  2.2214
  275MOL0     H37117   6.719   4.754   8.431 -0.9392  1.6695 -1.2104
  275MOL0     H37118   6.689   4.661   8.295 -0.2294  0.2086  0.7447
  275MOL0     H37119   6.795   4.945   8.322 -0.1031 -0.0634  1.0226
  275MOL0     H37120   6.624   4.902   8.283  1.4372  1.6321  0.2584
  275MOL0     H37121   6.703   4.805   8.056  0.2361 -1.1626  0.0275
  275MOL0     H37122   6.872   4.825   8.104 -0.3166  0.2215 -0.1579
  275MOL0     H37123   6.761   5.213   7.987  0.1813  0.0293  0.9193
  275MOL0     H37124   7.124   4.679   8.435 -1.6614 -0.0669 -0.7849
  275MOL0     H37125   7.351   4.591   8.456  1.3320 -2.5371 -1.5540
  276MOL0     O37126   9.142  10.377   5.224  0.0722  0.6695  0.0725
  276MOL0     C37127   9.190  10.328   5.330  0.1352  0.2920  0.3225
  276MOL0     O37128   9.273  10.212   5.350  0.2060  0.1315  0.4536
  276MOL0     C37129   9.281  10.121   5.243 -0.4103  0.4286 -2.2497
  276MOL0     C37130   9.269   9.981   5.280  1.0165 -0.2450 -0.2311
  276MOL0     C37131   9.285   9.894   5.178 -0.2309 -0.5635  0.2395
  276MOL0     C37132   9.310   9.934   5.040  0.4854 -0.5084  0.6848
  276MOL0     O37133   9.298   9.862   4.920  0.0231  0.5859  0.4583
  276MOL0     C37134   9.280   9.720   4.941 -0.1890 -0.8514 -1.2845
  276MOL0     C37135   9.300   9.657   4.806 -0.4861  0.1109  0.7422
  276MOL0     C37136   9.446   9.617   4.778  0.0562  0.0447  0.0984
  276MOL0     C37137   9.455   9.540   4.645  0.9116 -0.0919  0.1000
  276MOL0     C37138   9.587   9.481   4.600 -0.4471  0.7748  0.2774
  276MOL0     C37139   9.705   9.574   4.637 -1.0190 -0.7122 -0.2548
  276MOL0     C37140   9.820   9.546   4.552  0.0722 -1.3199 -0.2742
  276MOL0     C37141   9.941   9.621   4.596 -1.1398  0.3015  0.2606
  276MOL0     N37142   9.943   9.752   4.539 -0.7929  0.6266  0.4217
  276MOL0     C37143   9.961   9.779   4.409 -0.5763  0.4369  0.2153
  276MOL0     C37144   9.925   9.905   4.395  0.1153 -0.3075  0.4429
  276MOL0     C37145   9.957   9.995   4.284  0.7247 -0.1843 -0.4465
  276MOL0     C37146   9.872   9.950   4.166 -0.7905 -0.8802  0.4617
  276MOL0     C37147   9.864  10.081   4.075 -0.1699 -0.1809  0.5291
  276MOL0     C37148   9.842  10.057   3.921  0.7739  0.2577  0.9364
  276MOL0     O37149   9.718   9.993   3.903 -0.0593  0.0933 -0.0596
  276MOL0     C37150   9.714   9.939   3.772  0.0651  0.2776 -0.6795
  276MOL0     C37151   9.614   9.839   3.761  0.0366 -1.2605 -0.2406
  276MOL0     C37152   9.592   9.768   3.651  0.1824 -1.2784 -0.3910
  276MOL0     C37153   9.489   9.663   3.655 -0.0625  0.4380  0.5087
  276MOL0     C37154   9.655   9.808   3.532 -0.3383  0.0286 -0.2859
  276MOL0     C37155   9.609   9.755   3.405  0.5493  0.1916  1.6050
  276MOL0     O37156   9.656   9.834   3.299  0.0105  0.1022 -0.4152
  276MOL0     C37157   9.693   9.782   3.184 -0.1180 -0.2255  0.5659
  276MOL0     C37158   9.628   9.679   3.114  0.4353  0.2193  0.4104
  276MOL0     C37159   9.670   9.617   2.999 -0.2266  0.9536  0.4293
  276MOL0     C37160   9.782   9.668   2.932  0.9046  0.2694 -0.6591
  276MOL0     O37161   9.822   9.623   2.814 -0.3021  0.5370 -0.1533
  276MOL0     C37162   9.766   9.501   2.760 -0.6314  1.1197  0.0366
  276MOL0     C37163   9.846   9.462   2.632 -0.8283 -0.9160 -0.2351
  276MOL0     C37164   9.987   9.423   2.667  0.8996  0.8941 -0.6062
  276MOL0     C37165  10.077   9.392   2.549  0.5989 -0.3234 -0.5151
  276MOL0     C37166  10.225   9.392   2.599 -0.3168  0.4007 -0.6600
  276MOL0     C37167  10.324   9.380   2.487  0.5102  0.1713  0.3514
  276MOL0     C37168  10.467   9.388   2.527 -0.4662  0.2682  0.0223
  276MOL0     C37169  10.551   9.337   2.417 -0.2435  0.7254 -0.4106
  276MOL0    Cl37170  10.581   9.458   2.288  0.1785  0.2069 -0.2292
  276MOL0     C37171   9.843   9.787   2.988  0.1149  0.1839  0.2600
  276MOL0     C37172   9.803   9.833   3.110 -0.5807 -1.1271  0.3410
  276MOL0     O37173   9.542   9.653   3.381 -0.1300 -0.2777  0.0638
  276MOL0     C37174   9.746   9.913   3.542  0.9342  1.5737  0.2042
  276MOL0     C37175   9.782   9.978   3.654  0.6891  0.0824 -0.4631
  276MOL0     N37176   9.884   9.954   4.516 -0.0441  0.0820  0.7032
  276MOL0     N37177   9.894   9.861   4.607 -0.0333 -0.1128 -0.2985
  276MOL0     C37178   9.353  10.064   5.021 -0.3414  0.1201 -1.1174
  276MOL0     C37179   9.340  10.160   5.125 -0.7957 -0.6267  0.1727
  276MOL0     C37180   9.151  10.388   5.462 -0.5892  0.2174 -0.7989
  276MOL0     C37181   9.243  10.393   5.568  0.9099  0.2565 -0.4805
  276MOL0     C37182   9.220  10.461   5.691  0.9308 -0.1963  0.1903
  276MOL0     C37183   9.095  10.525   5.707 -0.6680  0.3899  0.1298
  276MOL0     O37184   9.061  10.598   5.822  0.1159  0.2489  0.5003
  276MOL0     C37185   9.162  10.679   5.895  0.2719  0.2106 -0.7346
  276MOL0     C37186   9.232  10.785   5.813  0.6122 -0.4845  0.2221
  276MOL0     C37187   9.135  10.867   5.722 -0.0865  0.0838 -0.0754
  276MOL0     C37188   9.213  10.949   5.624  1.2333  1.0957 -0.0934
  276MOL0     C37189   9.300  10.870   5.533  0.4666 -0.2648 -0.1615
  276MOL0     C37190   9.371  10.809   5.457  0.0515 -0.0564  0.2388
  276MOL0     C37191   9.005  10.538   5.598 -0.9846  0.2762 -1.1118
  276MOL0     C37192   9.027  10.452   5.487  0.1840  0.0871 -0.4230
  276MOL0     H37193   9.250   9.942   5.379 -0.1635 -1.2444 -0.8269
  276MOL0     H37194   9.262   9.794   5.214 -1.6282  0.0955  1.2670
  276MOL0     H37195   9.355   9.690   5.014 -0.7326  1.7051  0.4785
  276MOL0     H37196   9.179   9.699   4.979  0.4795 -0.8042  0.6339
  276MOL0     H37197   9.249   9.560   4.810 -0.7769  0.2989  2.1259
  276MOL0     H37198   9.260   9.721   4.727  1.6696  2.2349  1.2530
  276MOL0     H37199   9.502   9.711   4.774 -1.3069  1.0025  2.1734
  276MOL0     H37200   9.483   9.558   4.863  2.3394  2.4292  0.9080
  276MOL0     H37201   9.381   9.459   4.645  1.6141 -0.7857 -1.6171
  276MOL0     H37202   9.413   9.616   4.578 -2.4731 -3.1636 -1.6131
  276MOL0     H37203   9.603   9.383   4.647 -0.8111  1.4053  1.7500
  276MOL0     H37204   9.578   9.478   4.491  1.3162  1.7993  0.0577
  276MOL0     H37205   9.680   9.679   4.617 -1.6919 -0.8970 -0.4011
  276MOL0     H37206   9.726   9.565   4.744 -3.9692 -4.1666  0.2201
  276MOL0     H37207   9.840   9.439   4.543 -0.1352 -1.4314  0.5277
  276MOL0     H37208   9.793   9.579   4.451  0.0101  0.7629  0.3684
  276MOL0     H37209  10.037   9.570   4.584 -0.1897  1.0651  3.5545
  276MOL0     H37210   9.932   9.636   4.704  0.9895 -0.9303  0.6674
  276MOL0     H37211  10.013   9.716   4.336  0.5262  1.4497  0.0947
  276MOL0     H37212   9.929  10.097   4.312  5.5962  1.5376 -0.9123
  276MOL0     H37213  10.061   9.984   4.251  0.2219 -0.4234 -2.0463
  276MOL0     H37214   9.772   9.924   4.200 -0.4726 -1.5972  0.8562
  276MOL0     H37215   9.920   9.873   4.104 -1.8859 -0.0614 -1.5012
  276MOL0     H37216   9.960  10.134   4.072 -0.6930  0.7668 -2.0635
  276MOL0     H37217   9.791  10.149   4.120  0.1003  0.8006 -0.4686
  276MOL0     H37218   9.928   9.994   3.898  2.7407  2.2804  2.3101
  276MOL0     H37219   9.848  10.149   3.863 -0.0483 -0.6352 -0.6302
  276MOL0     H37220   9.575   9.811   3.859 -3.2410 -0.2292 -1.1240
  276MOL0     H37221   9.393   9.683   3.606 -0.4585 -1.9729  0.1756
  276MOL0     H37222   9.529   9.576   3.602  0.1358 -0.3194  1.8771
  276MOL0     H37223   9.461   9.645   3.759  0.2359  1.7721  0.8424
  276MOL0     H37224   9.539   9.630   3.152 -0.8342  1.7545 -0.4191
  276MOL0     H37225   9.609   9.533   2.969 -0.5508  1.1038  0.6612
  276MOL0     H37226   9.795   9.428   2.836  0.4609 -1.4347 -2.6438
  276MOL0     H37227   9.658   9.506   2.741 -0.9136  0.5532  1.3558
  276MOL0     H37228   9.800   9.372   2.588 -0.3114 -0.1121 -2.5791
  276MOL0     H37229   9.828   9.537   2.554 -0.2035  0.1691  0.6426
  276MOL0     H37230   9.984   9.328   2.721  2.8922  1.8998  1.4852
  276MOL0     H37231  10.041   9.502   2.721  2.8163  0.1238 -1.3025
  276MOL0     H37232  10.041   9.299   2.506 -0.0464 -1.0962  1.5842
  276MOL0     H37233  10.061   9.467   2.471 -2.4218 -1.6005 -1.2533
  276MOL0     H37234  10.243   9.302   2.657  0.1859  0.2293 -1.0696
  276MOL0     H37235  10.239   9.480   2.663 -2.1752  0.4813 -0.3247
  276MOL0     H37236  10.307   9.289   2.428  0.2144  0.9584 -0.8292
  276MOL0     H37237  10.312   9.465   2.418 -0.2318 -2.0777 -2.4697
  276MOL0     H37238  10.482   9.333   2.620 -1.3713 -1.1474 -0.6379
  276MOL0     H37239  10.483   9.493   2.553 -0.9225 -0.3081  2.8814
  276MOL0     H37240  10.501   9.242   2.393 -0.8419  1.2243 -1.2083
  276MOL0     H37241  10.650   9.304   2.449  0.5240  0.6746 -2.6397
  276MOL0     H37242   9.923   9.846   2.945 -2.5410  4.2689  0.3563
  276MOL0     H37243   9.865   9.915   3.146 -0.3125  1.6738 -5.3488
  276MOL0     H37244   9.786   9.958   3.451  2.8937 -1.4724 -0.5764
  276MOL0     H37245   9.844  10.067   3.642  0.0148  0.4277 -1.6307
  276MOL0     H37246   9.398  10.114   4.936  3.2617  0.6095  0.8768
  276MOL0     H37247   9.368  10.264   5.113  2.0820 -0.8671  3.3255
  276MOL0     H37248   9.324  10.323   5.547 -0.0291 -1.4692  1.3097
  276MOL0     H37249   9.282  10.455   5.780 -1.5102  1.3182  2.1327
  276MOL0     H37250   9.105  10.725   5.976 -2.6957  2.4239 -3.7780
  276MOL0     H37251   9.238  10.615   5.941 -1.8348 -1.3859  0.7639
  276MOL0     H37252   9.297  10.733   5.742  0.6768  1.5714 -1.3043
  276MOL0     H37253   9.296  10.843   5.880  1.8946 -0.9631 -0.5421
  276MOL0     H37254   9.069  10.923   5.789 -0.7658 -0.0472 -0.6164
  276MOL0     H37255   9.066  10.808   5.660  3.1634 -3.3985 -0.7382
  276MOL0     H37256   9.269  11.030   5.672 -0.9990  0.9379  3.1136
  276MOL0     H37257   9.133  11.002   5.571 -0.1735  1.4588  2.2706
  276MOL0     H37258   9.446  10.780   5.387  0.7815 -2.6807  1.9748
  276MOL0     H37259   8.910  10.584   5.626 -0.5824  0.7454 -0.5042
  276MOL0     H37260   8.951  10.450   5.409  1.9569 -0.3855 -2.2309
  277MOL0     O37261   6.012   4.328   1.284 -0.8182  0.3021 -0.2617
  277MOL0     C37262   6.028   4.397   1.182 -0.3226  0.8387 -1.0874
  277MOL0     O37263   6.065   4.531   1.182 -0.0273  0.2672  0.2346
  277MOL0     C37264   6.079   4.601   1.297 -1.2412  0.1882  0.7926
  277MOL0     C37265   6.138   4.549   1.412 -0.0193 -0.6711 -0.5833
  277MOL0     C37266   6.137   4.623   1.530 -0.4699  0.0186 -0.8044
  277MOL0     C37267   6.064   4.748   1.540 -0.4525  0.0672  0.1320
  277MOL0     O37268   6.050   4.825   1.656  0.1839  0.3746  0.2628
  277MOL0     C37269   6.110   4.785   1.781  0.3278  0.6836  0.4113
  277MOL0     C37270   6.099   4.909   1.859  0.5186 -0.3171 -0.8683
  277MOL0     C37271   6.174   4.910   1.994  0.3130  0.5123  0.4402
  277MOL0     C37272   6.164   4.778   2.079 -0.6169 -0.0707 -0.1809
  277MOL0     C37273   6.298   4.768   2.158  0.1288 -0.5083 -0.6336
  277MOL0     C37274   6.306   4.647   2.253  0.1127 -0.1309  0.7266
  277MOL0     C37275   6.433   4.612   2.330 -1.1438 -0.2925 -0.3450
  277MOL0     C37276   6.549   4.599   2.220  0.0826 -0.5490  0.3637
  277MOL0     N37277   6.679   4.617   2.281  0.6556  0.0462 -0.3502
  277MOL0     C37278   6.747   4.736   2.293  0.1934 -0.0617  0.2797
  277MOL0     C37279   6.852   4.707   2.375 -0.9962  0.9728 -1.0762
  277MOL0     C37280   6.965   4.795   2.432 -0.3104 -0.1391 -0.2893
  277MOL0     C37281   6.941   4.835   2.573  0.4787 -0.1593 -0.3334
  277MOL0     C37282   6.868   4.969   2.590  0.1120 -0.1770  0.3524
  277MOL0     C37283   6.847   5.003   2.737  0.0843  0.3964  0.4015
  277MOL0     O37284   6.958   5.077   2.797  0.3341 -0.1910 -0.2722
  277MOL0     C37285   6.949   5.124   2.925 -0.6352 -0.1969 -0.0342
  277MOL0     C37286   6.863   5.064   3.020 -0.1322 -0.8215 -0.4171
  277MOL0     C37287   6.838   5.124   3.148  0.6699 -0.0931  0.5030
  277MOL0     C37288   6.718   5.074   3.228  0.7555 -0.8209 -0.4703
  277MOL0     C37289   6.923   5.231   3.189 -0.0868  0.1255 -0.2905
  277MOL0     C37290   6.914   5.304   3.311 -0.0465 -0.1239  0.2443
  277MOL0     O37291   7.033   5.343   3.377 -0.0689 -0.2283  0.8929
  277MOL0     C37292   7.031   5.408   3.500 -0.7506 -0.2239 -0.1153
  277MOL0     C37293   7.138   5.485   3.537 -0.7687  0.5495 -1.0875
  277MOL0     C37294   7.143   5.556   3.660 -0.0191 -0.3070  0.3917
  277MOL0     C37295   7.036   5.556   3.747  0.1884  0.1276 -0.6420
  277MOL0     O37296   7.047   5.644   3.849 -0.7031 -0.1527 -0.2085
  277MOL0     C37297   7.083   5.586   3.980 -0.4797  0.3790  0.4863
  277MOL0     C37298   7.088   5.701   4.079 -0.9042 -0.5039  0.0986
  277MOL0     C37299   7.110   5.661   4.220 -0.4792 -0.3198  0.1641
  277MOL0     C37300   7.064   5.757   4.331  0.1678 -0.3714 -0.0795
  277MOL0     C37301   7.125   5.736   4.466 -0.2938  0.5758  0.7380
  277MOL0     C37302   7.065   5.628   4.549  0.8233  0.0571 -0.3637
  277MOL0     C37303   7.137   5.599   4.683 -0.0735  0.0294  1.3466
  277MOL0     C37304   7.099   5.459   4.738 -0.1707 -0.0790  0.3676
  277MOL0    Cl37305   6.934   5.474   4.810  0.2626 -0.6877 -0.2205
  277MOL0     C37306   6.919   5.485   3.714 -1.2218  0.5967 -1.1800
  277MOL0     C37307   6.927   5.415   3.601  0.0247 -0.0140  0.4107
  277MOL0     O37308   6.805   5.349   3.347  0.6070  0.1814 -0.1111
  277MOL0     C37309   7.018   5.272   3.094 -0.5459  0.5481 -0.7092
  277MOL0     C37310   7.030   5.226   2.968 -0.1100 -0.3575 -0.6347
  277MOL0     N37311   6.845   4.571   2.408 -0.2613 -0.3042 -0.4938
  277MOL0     N37312   6.737   4.525   2.352  0.2464  0.2806 -1.1182
  277MOL0     C37313   6.006   4.796   1.423 -0.5538 -1.0406  0.6481
  277MOL0     C37314   6.014   4.732   1.308 -0.5989  0.3524  0.3793
  277MOL0     C37315   6.046   4.319   1.056  0.8826 -0.3814 -0.2691
  277MOL0     C37316   6.079   4.391   0.944  0.9634 -0.6304 -0.9657
  277MOL0     C37317   6.118   4.334   0.826  0.2023  0.3392 -0.3733
  277MOL0     C37318   6.115   4.193   0.821 -0.2298  0.5360 -0.2482
  277MOL0     O37319   6.149   4.113   0.712  0.0532  0.3455  0.7775
  277MOL0     C37320   6.172   4.168   0.576  0.1718 -0.4890 -0.5295
  277MOL0     C37321   6.043   4.213   0.497 -0.4453 -0.8833  0.0426
  277MOL0     C37322   5.979   4.136   0.385  1.1455 -0.2104 -0.1468
  277MOL0     C37323   5.994   4.201   0.248 -0.4629  0.6703  0.1846
  277MOL0     C37324   6.128   4.214   0.200 -0.2432  0.0374  0.0737
  277MOL0     C37325   6.242   4.217   0.172 -0.3108  0.3796  0.2506
  277MOL0     C37326   6.075   4.122   0.931 -0.7014  0.3685  0.3330
  277MOL0     C37327   6.039   4.183   1.051 -0.1008  0.2746  0.1106
  277MOL0     H37328   6.190   4.455   1.397 -1.7355 -2.2233  2.2488
  277MOL0     H37329   6.177   4.579   1.621 -0.4238  3.3021  0.9019
  277MOL0     H37330   6.055   4.698   1.818 -1.1293  1.5091  0.2654
  277MOL0     H37331   6.214   4.755   1.768 -0.2835 -1.1363 -0.5866
  277MOL0     H37332   6.127   5.000   1.807 -0.3169  1.2547  1.2994
  277MOL0     H37333   5.992   4.932   1.865  0.5448  2.8626 -6.2607
  277MOL0     H37334   6.281   4.915   1.974  1.1984 -2.0625  3.5125
  277MOL0     H37335   6.154   5.000   2.053 -0.8183 -0.3793  1.4872
  277MOL0     H37336   6.078   4.786   2.146 -2.7426  0.2829 -2.7794
  277MOL0     H37337   6.159   4.690   2.014  3.0583 -1.4599  1.1281
  277MOL0     H37338   6.374   4.762   2.080  0.3319 -1.4257 -0.3759
  277MOL0     H37339   6.314   4.854   2.223  0.9873 -0.1922 -1.2487
  277MOL0     H37340   6.222   4.651   2.323  0.0951 -3.4466  1.0430
  277MOL0     H37341   6.273   4.562   2.193 -1.3402  0.2105  1.0206
  277MOL0     H37342   6.454   4.694   2.399 -1.7957 -0.1793 -0.2773
  277MOL0     H37343   6.432   4.518   2.387  1.0480 -0.9578 -1.2852
  277MOL0     H37344   6.537   4.676   2.143  3.2311 -1.2742 -0.9678
  277MOL0     H37345   6.540   4.506   2.164  0.0591 -0.7832  0.7569
  277MOL0     H37346   6.715   4.826   2.241 -2.1172  1.3493  3.7315
  277MOL0     H37347   7.072   4.772   2.426 -0.1675  0.7311 -4.3484
  277MOL0     H37348   6.966   4.879   2.361  1.4614 -0.6311 -0.9044
  277MOL0     H37349   7.030   4.829   2.635  1.4754 -1.1552 -1.7917
  277MOL0     H37350   6.873   4.762   2.619 -2.1830  3.8680  2.7880
  277MOL0     H37351   6.777   4.980   2.531 -1.5847  1.0628  2.9736
  277MOL0     H37352   6.935   5.048   2.555 -0.6482  0.3413  0.0564
  277MOL0     H37353   6.833   4.907   2.788  0.5321 -0.3648 -0.8556
  277MOL0     H37354   6.757   5.062   2.756  1.1545  2.3818 -0.3413
  277MOL0     H37355   6.792   4.985   3.000 -1.3050 -0.3840  1.6866
  277MOL0     H37356   6.642   5.152   3.218  2.5161  1.0958  0.2189
  277MOL0     H37357   6.672   4.980   3.196  0.4383 -1.2599  1.1945
  277MOL0     H37358   6.738   5.059   3.334 -0.6738 -0.3141 -0.1066
  277MOL0     H37359   7.219   5.489   3.465 -1.7392  2.8511 -2.1638
  277MOL0     H37360   7.227   5.619   3.689 -0.5207 -0.5703  2.6195
  277MOL0     H37361   7.015   5.503   4.005  1.9996 -1.1556  2.6736
  277MOL0     H37362   7.183   5.542   3.977 -0.3904  0.5064  1.3927
  277MOL0     H37363   7.166   5.770   4.045 -3.4602  1.8622 -1.2900
  277MOL0     H37364   6.994   5.754   4.067  0.8097  3.1815  1.3738
  277MOL0     H37365   7.219   5.650   4.225 -0.2162  1.2406 -1.4588
  277MOL0     H37366   7.061   5.564   4.231  1.0762 -1.4296 -1.9286
  277MOL0     H37367   7.090   5.857   4.297 -0.0274  0.3899  1.8604
  277MOL0     H37368   6.955   5.756   4.342  0.2571  1.2341  1.4884
  277MOL0     H37369   7.132   5.824   4.531  2.8040 -0.2821  1.7376
  277MOL0     H37370   7.225   5.697   4.444 -0.1332  0.9786  0.7422
  277MOL0     H37371   6.961   5.649   4.575  0.7760 -1.0582  0.4536
  277MOL0     H37372   7.055   5.535   4.492 -1.3246  0.9313 -1.5250
  277MOL0     H37373   7.106   5.676   4.755  1.3888  1.0745  0.9032
  277MOL0     H37374   7.244   5.613   4.665 -0.2912 -0.5889 -0.7258
  277MOL0     H37375   7.155   5.418   4.823 -0.4571 -1.1312  0.0695
  277MOL0     H37376   7.087   5.389   4.655 -1.1825  0.3828  0.1109
  277MOL0     H37377   6.836   5.485   3.785 -0.6495 -0.1289 -0.4979
  277MOL0     H37378   6.845   5.344   3.591  0.9259 -1.1314  0.7158
  277MOL0     H37379   7.077   5.362   3.109 -1.1785  0.6244  1.6342
  277MOL0     H37380   7.106   5.266   2.903  2.0518 -1.1329  1.2861
  277MOL0     H37381   5.956   4.892   1.435  2.3587  0.8152 -1.0321
  277MOL0     H37382   5.957   4.753   1.218 -0.0057  0.0233 -0.0875
  277MOL0     H37383   6.102   4.497   0.956  5.4704 -1.5592  0.8460
  277MOL0     H37384   6.136   4.389   0.734  0.6790 -3.3940 -2.7271
  277MOL0     H37385   6.225   4.263   0.590 -0.6006 -0.4793  3.4359
  277MOL0     H37386   6.238   4.110   0.510  0.4300  1.9361 -2.5756
  277MOL0     H37387   6.066   4.318   0.477 -0.2937 -0.4426  2.3311
  277MOL0     H37388   5.971   4.227   0.578 -0.1724 -2.2203  0.5454
  277MOL0     H37389   5.872   4.118   0.404  1.8519 -5.5384  0.5562
  277MOL0     H37390   6.028   4.038   0.382 -0.9107 -1.2970 -0.6594
  277MOL0     H37391   5.960   4.304   0.265  0.1835  1.3219 -2.1047
  277MOL0     H37392   5.926   4.161   0.173  0.4475  1.9771 -1.4213
  277MOL0     H37393   6.341   4.213   0.132 -1.2621 -2.6922 -2.2530
  277MOL0     H37394   6.062   4.014   0.922  1.1910 -0.1507  2.7265
  277MOL0     H37395   6.008   4.125   1.137  0.8052 -0.2178  0.1151
  278MOL0     O37396   4.008  10.150   6.837 -1.0202  0.0199  0.3212
  278MOL0     C37397   3.923  10.092   6.776  1.2664 -0.7335  0.0825
  278MOL0     O37398   3.852  10.139   6.665  0.2572  0.2369 -0.5502
  278MOL0     C37399   3.873  10.258   6.603  0.8812  0.3524 -0.0195
  278MOL0     C37400   3.760  10.297   6.535 -0.4596  0.4996 -0.2480
  278MOL0     C37401   3.770  10.404   6.449 -0.2717 -0.1909 -0.0342
  278MOL0     C37402   3.883  10.490   6.443  0.4940 -0.4636  0.0737
  278MOL0     O37403   3.883  10.602   6.368 -0.3066 -0.1861 -0.1940
  278MOL0     C37404   3.841  10.715   6.432  1.0360 -0.7296  0.4260
  278MOL0     C37405   3.839  10.826   6.326 -0.1208  0.5116 -0.4205
  278MOL0     C37406   3.780  10.948   6.395 -0.5460 -0.0331 -0.5226
  278MOL0     C37407   3.777  11.055   6.293  0.8349  0.7160 -0.7553
  278MOL0     C37408   3.734  11.194   6.350  0.3976 -0.1441  1.2349
  278MOL0     C37409   3.840  11.260   6.441 -0.7924 -0.5091 -0.6320
  278MOL0     C37410   3.815  11.408   6.464 -0.2955 -0.9232  0.7009
  278MOL0     C37411   3.846  11.500   6.343  0.2680 -0.3376 -0.4885
  278MOL0     N37412   3.809  11.642   6.368  0.9005  0.5724  0.6386
  278MOL0     C37413   3.771  11.734   6.266 -0.1905  0.3156  1.0156
  278MOL0     C37414   3.759  11.852   6.330 -0.7371  0.2704 -0.9112
  278MOL0     C37415   3.739  11.990   6.274  0.1532  0.2955  0.4453
  278MOL0     C37416   3.717  11.992   6.120 -0.8378 -1.0974 -0.7991
  278MOL0     C37417   3.707  12.134   6.060 -0.6990  1.2791 -0.1816
  278MOL0     C37418   3.584  12.214   6.106  1.0503 -0.6216  0.0519
  278MOL0     O37419   3.620  12.350   6.071 -0.0178  0.1072  0.9977
  278MOL0     C37420   3.591  12.407   5.946  0.1812 -0.0092  0.1789
  278MOL0     C37421   3.634  12.544   5.931  0.6096  0.0149 -0.2936
  278MOL0     C37422   3.588  12.619   5.812 -0.0699 -0.6508 -0.3526
  278MOL0     C37423   3.644  12.755   5.785 -0.5929 -0.2660  0.2197
  278MOL0     C37424   3.500  12.548   5.722  0.5426  0.6335  0.0736
  278MOL0     C37425   3.440  12.595   5.592 -0.4419 -0.1563  0.6616
  278MOL0     O37426   3.458  12.724   5.565 -0.1590  0.2323 -0.5948
  278MOL0     C37427   3.368  12.780   5.476 -0.6485 -0.1181  0.2166
  278MOL0     C37428   3.305  12.894   5.520 -0.1034  0.8995 -0.3321
  278MOL0     C37429   3.221  12.958   5.440  0.2695 -0.2540  0.7713
  278MOL0     C37430   3.188  12.906   5.310  0.3982 -0.1396 -0.9370
  278MOL0     O37431   3.103  12.972   5.223  0.2221 -0.4296  0.0588
  278MOL0     C37432   2.966  12.990   5.264  0.9542 -1.0263 -0.0402
  278MOL0     C37433   2.876  12.970   5.140  1.5382 -0.5324  0.2158
  278MOL0     C37434   2.898  12.835   5.082  0.4345  0.4579 -0.2645
  278MOL0     C37435   2.802  12.817   4.970 -0.1538  0.4551 -0.1332
  278MOL0     C37436   2.838  12.685   4.885  0.5953  0.4684 -0.5291
  278MOL0     C37437   2.759  12.679   4.755  0.3037 -0.1691  0.6243
  278MOL0     C37438   2.804  12.564   4.666  0.9618  0.9098 -0.6722
  278MOL0     C37439   2.732  12.575   4.529 -0.3368  0.5276  0.0592
  278MOL0    Cl37440   2.832  12.691   4.426 -0.3401 -0.0841  0.3919
  278MOL0     C37441   3.249  12.794   5.267  0.1960 -0.4159 -1.3659
  278MOL0     C37442   3.344  12.731   5.344  0.3844  0.2465  0.7340
  278MOL0     O37443   3.387  12.517   5.514  0.0827 -0.4793  0.9976
  278MOL0     C37444   3.481  12.408   5.743  0.7998 -0.1091  0.6560
  278MOL0     C37445   3.525  12.342   5.849  0.2719  0.4464  0.1407
  278MOL0     N37446   3.775  11.823   6.466 -0.1680 -0.2606  0.6192
  278MOL0     N37447   3.800  11.700   6.484 -0.1817 -0.3545 -0.4771
  278MOL0     C37448   3.992  10.460   6.524 -0.0144 -0.1523 -0.2640
  278MOL0     C37449   3.993  10.339   6.601  0.3760 -0.5265  0.2082
  278MOL0     C37450   3.906   9.946   6.790 -0.5173  0.1574  0.4277
  278MOL0     C37451   3.854   9.860   6.690  0.4162 -0.4627  0.5641
  278MOL0     C37452   3.833   9.724   6.700  0.7600  0.6885 -1.5958
  278MOL0     C37453   3.880   9.661   6.821 -0.0086 -0.3300 -0.4998
  278MOL0     O37454   3.880   9.525   6.822  0.4288 -0.2124  0.2436
  278MOL0     C37455   3.885   9.456   6.950 -0.1384  0.6176  0.3079
  278MOL0     C37456   3.825   9.314   6.948 -0.6157 -0.4670  0.4123
  278MOL0     C37457   3.679   9.294   6.924  0.5062 -0.0624 -0.1373
  278MOL0     C37458   3.635   9.145   6.897 -0.4884 -0.4481  0.7659
  278MOL0     C37459   3.493   9.143   6.860  0.6936 -0.5611 -0.3543
  278MOL0     C37460   3.371   9.149   6.844  0.2272 -0.3607 -0.3525
  278MOL0     C37461   3.921   9.745   6.929  0.6750  0.9612 -0.3795
  278MOL0     C37462   3.935   9.883   6.915 -0.3810  0.1501 -0.1318
  278MOL0     H37463   3.670  10.236   6.537  0.1681 -0.4581 -0.3301
  278MOL0     H37464   3.680  10.427   6.393 -0.4691  0.5783  0.5870
  278MOL0     H37465   3.737  10.693   6.461  0.4548  0.4323 -0.6960
  278MOL0     H37466   3.901  10.742   6.519  3.0459 -1.6712 -0.6073
  278MOL0     H37467   3.942  10.844   6.294 -0.0560 -1.0184 -1.2057
  278MOL0     H37468   3.777  10.794   6.242  0.3098 -0.4271 -0.3945
  278MOL0     H37469   3.685  10.921   6.443 -0.7797 -0.2390 -1.0858
  278MOL0     H37470   3.841  10.983   6.479 -1.6413 -2.6806  1.5124
  278MOL0     H37471   3.876  11.059   6.248  1.1859 -1.4939 -0.3091
  278MOL0     H37472   3.695  11.030   6.224  0.8201 -0.8799 -0.1968
  278MOL0     H37473   3.720  11.269   6.272 -4.0908 -2.5639 -0.7127
  278MOL0     H37474   3.637  11.179   6.399  0.0792 -0.3375  0.5645
  278MOL0     H37475   3.828  11.198   6.530  1.3638  1.2769  0.9943
  278MOL0     H37476   3.945  11.261   6.410 -0.2009  1.2905  1.2213
  278MOL0     H37477   3.711  11.427   6.493 -0.7048  0.9947 -1.6933
  278MOL0     H37478   3.881  11.450   6.541  1.1419 -0.0279 -0.9458
  278MOL0     H37479   3.806  11.449   6.255  0.1477 -1.4945  0.2126
  278MOL0     H37480   3.954  11.503   6.331  0.0085  3.5564 -4.1091
  278MOL0     H37481   3.778  11.717   6.159  1.1419  1.9332  0.7960
  278MOL0     H37482   3.645  12.020   6.320  1.4961  0.7272  3.0925
  278MOL0     H37483   3.823  12.051   6.308  2.0375 -2.7698  1.6189
  278MOL0     H37484   3.623  11.942   6.094 -1.2448 -1.1645  0.6852
  278MOL0     H37485   3.805  11.954   6.068  2.5338  2.4187  1.7970
  278MOL0     H37486   3.713  12.121   5.951  2.1820 -0.7231  0.1106
  278MOL0     H37487   3.792  12.196   6.092  1.4213 -0.9422 -1.2103
  278MOL0     H37488   3.573  12.212   6.215  0.7960  2.1630  0.1516
  278MOL0     H37489   3.488  12.181   6.066  0.0018  1.4056  0.7869
  278MOL0     H37490   3.694  12.605   5.997 -1.2171  2.9097 -1.1055
  278MOL0     H37491   3.561  12.826   5.787 -2.5039 -2.3861  1.5863
  278MOL0     H37492   3.714  12.782   5.865 -0.6486 -0.8599  0.4711
  278MOL0     H37493   3.701  12.765   5.692 -0.1319  0.4715  0.5668
  278MOL0     H37494   3.319  12.931   5.621 -2.9476 -0.9609  0.8635
  278MOL0     H37495   3.177  13.052   5.472  0.6765 -0.2294  1.2619
  278MOL0     H37496   2.950  12.928   5.352  1.2828 -2.9206 -1.2634
  278MOL0     H37497   2.955  13.094   5.299  0.4365 -0.2978 -2.2360
  278MOL0     H37498   2.771  12.976   5.169  1.0965  1.1386 -1.5169
  278MOL0     H37499   2.897  13.049   5.067 -0.2778 -0.8604 -0.7131
  278MOL0     H37500   2.884  12.762   5.163  0.7835 -0.3741 -0.9386
  278MOL0     H37501   3.001  12.823   5.047  0.7337 -2.3222  1.2934
  278MOL0     H37502   2.702  12.802   5.012  0.1957 -1.8494 -0.0007
  278MOL0     H37503   2.789  12.906   4.908 -1.8684  1.0641  1.0330
  278MOL0     H37504   2.816  12.594   4.941 -0.8282  1.3392  0.4095
  278MOL0     H37505   2.942  12.692   4.851  0.0834  1.8671 -1.8962
  278MOL0     H37506   2.650  12.675   4.765  0.1604  2.5399  0.7903
  278MOL0     H37507   2.794  12.764   4.696  3.0194 -1.8491 -0.3708
  278MOL0     H37508   2.775  12.474   4.720 -2.9724  3.7129  2.4775
  278MOL0     H37509   2.912  12.567   4.653  0.9210  3.3919 -0.9955
  278MOL0     H37510   2.632  12.618   4.537 -1.1283 -1.3578  1.1436
  278MOL0     H37511   2.719  12.476   4.483  1.0227  0.0221  0.6856
  278MOL0     H37512   3.225  12.745   5.173 -1.9931  0.1890 -1.1867
  278MOL0     H37513   3.400  12.644   5.312  2.4557  1.7037  0.1505
  278MOL0     H37514   3.430  12.354   5.664 -2.4929  1.2826  1.6287
  278MOL0     H37515   3.502  12.236   5.859 -1.3149  0.8198  0.6746
  278MOL0     H37516   4.079  10.525   6.532  1.8415 -2.2663 -1.9040
  278MOL0     H37517   4.082  10.323   6.661 -0.2795  1.4868  1.8536
  278MOL0     H37518   3.826   9.902   6.594 -1.2506 -1.7517  0.4208
  278MOL0     H37519   3.804   9.657   6.620 -0.2179 -1.8802  0.7581
  278MOL0     H37520   3.993   9.451   6.970  0.2341  0.0246 -1.6673
  278MOL0     H37521   3.825   9.508   7.025 -2.0648 -0.5353 -0.3682
  278MOL0     H37522   3.850   9.262   7.040 -2.3491 -1.2691  0.4718
  278MOL0     H37523   3.889   9.274   6.869 -1.7496  2.4847 -2.2207
  278MOL0     H37524   3.647   9.349   6.835  0.8546  0.2743 -0.0564
  278MOL0     H37525   3.616   9.330   7.005  0.5420 -2.1325  0.8810
  278MOL0     H37526   3.647   9.090   6.990 -3.3743  1.3901  2.3804
  278MOL0     H37527   3.691   9.095   6.818  3.3916 -2.0135  4.1534
  278MOL0     H37528   3.266   9.161   6.829 -0.3327 -1.5538  2.0986
  278MOL0     H37529   3.946   9.707   7.027 -0.7659  0.4692 -0.1825
  278MOL0     H37530   3.962   9.936   7.005  2.7225  0.6185 -1.2107
  279MOL0     O37531   0.941   9.920   7.622 -0.1472  0.3711 -0.2524
  279MOL0     C37532   0.922   9.831   7.701  0.1893  0.0556 -0.4101
  279MOL0     O37533   1.017   9.782   7.790 -0.6201 -0.1258 -0.2770
  279MOL0     C37534   1.125   9.857   7.810  0.0011 -0.7754 -0.1670
  279MOL0     C37535   1.132   9.931   7.930 -0.4502  0.2144 -0.7297
  279MOL0     C37536   1.238  10.025   7.959 -0.1286 -0.0887  0.5668
  279MOL0     C37537   1.339  10.045   7.867 -0.9880  0.1710 -0.3953
  279MOL0     O37538   1.429  10.141   7.899 -0.2506 -0.3460  0.5649
  279MOL0     C37539   1.566  10.102   7.869 -1.1707  0.5411  0.0897
  279MOL0     C37540   1.619  10.181   7.752 -0.5208 -0.0721 -0.1375
  279MOL0     C37541   1.671  10.321   7.803 -0.4203 -0.0478 -0.0599
  279MOL0     C37542   1.721  10.410   7.689 -0.7585 -0.0233 -0.9159
  279MOL0     C37543   1.800  10.534   7.749 -1.1772 -0.1247 -0.1151
  279MOL0     C37544   1.805  10.642   7.640 -0.3120 -0.4522  0.3730
  279MOL0     C37545   1.687  10.742   7.658  0.5794 -0.2311  1.4097
  279MOL0     C37546   1.690  10.860   7.553 -0.0558 -0.0335  0.0173
  279MOL0     N37547   1.701  10.812   7.417  0.2158 -0.3912 -0.2676
  279MOL0     C37548   1.614  10.730   7.353 -0.1224 -1.2097  1.4704
  279MOL0     C37549   1.692  10.671   7.257 -1.0638 -0.3147  0.6966
  279MOL0     C37550   1.639  10.559   7.175  0.5237  0.4170  0.4305
  279MOL0     C37551   1.619  10.419   7.235 -0.7494  0.1309 -1.0289
  279MOL0     C37552   1.760  10.358   7.264 -0.5785 -0.1190 -0.0838
  279MOL0     C37553   1.758  10.211   7.286  0.3655  0.3412  0.4024
  279MOL0     O37554   1.716  10.119   7.172  1.2607  0.0436 -0.1668
  279MOL0     C37555   1.802  10.109   7.067  0.4372  0.9849  0.1118
  279MOL0     C37556   1.931  10.164   7.061 -0.7335 -0.1996  0.7372
  279MOL0     C37557   2.002  10.171   6.949  0.2691 -0.0317 -0.0714
  279MOL0     C37558   2.143  10.238   6.956 -0.3733  0.1757 -0.5076
  279MOL0     C37559   1.955  10.112   6.831 -0.2333  0.5228  0.0538
  279MOL0     C37560   2.026  10.114   6.693  0.3778 -0.2901 -0.5966
  279MOL0     O37561   1.956  10.042   6.592  0.1537  0.1973 -0.4490
  279MOL0     C37562   2.017  10.020   6.473  0.2653  0.0867 -1.0685
  279MOL0     C37563   2.078  10.116   6.396 -0.8369 -0.6183 -0.3664
  279MOL0     C37564   2.124  10.083   6.270 -0.3145 -0.2685 -0.6240
  279MOL0     C37565   2.117   9.951   6.218 -0.2408 -0.8343  0.0851
  279MOL0     O37566   2.170   9.925   6.096 -0.1488  0.8786 -0.7351
  279MOL0     C37567   2.153  10.012   5.980 -0.2036  0.1507  0.6611
  279MOL0     C37568   2.277  10.093   5.937 -0.5659  0.4257  0.1473
  279MOL0     C37569   2.372  10.011   5.847 -0.4977 -0.2655  0.0781
  279MOL0     C37570   2.333  10.002   5.695  0.5494 -0.2488 -1.1928
  279MOL0     C37571   2.429   9.914   5.629 -0.7325 -0.2122 -0.1832
  279MOL0     C37572   2.397   9.910   5.469  0.0427  0.4642 -0.3124
  279MOL0     C37573   2.514   9.836   5.398 -0.3478 -0.2518  0.1337
  279MOL0     C37574   2.649   9.911   5.411  0.2134  1.0004 -0.6763
  279MOL0    Cl37575   2.671  10.069   5.320  0.0665  0.1972 -0.2266
  279MOL0     C37576   2.063   9.858   6.306  0.9562  0.0874 -0.0860
  279MOL0     C37577   2.012   9.884   6.431 -0.5591  0.5433  0.6811
  279MOL0     O37578   2.132  10.175   6.672 -0.1641  0.1409 -0.2533
  279MOL0     C37579   1.826  10.056   6.835 -0.3508  0.7375  1.0885
  279MOL0     C37580   1.750  10.050   6.954  0.3799 -0.4572  0.8680
  279MOL0     N37581   1.823  10.725   7.253 -0.0491  0.0300 -0.3954
  279MOL0     N37582   1.828  10.804   7.359 -0.0087  0.3221  0.1867
  279MOL0     C37583   1.344   9.973   7.750 -0.1080 -0.3701  0.8111
  279MOL0     C37584   1.233   9.879   7.720 -0.9163 -0.0777  0.1078
  279MOL0     C37585   0.791   9.752   7.691  0.6698  0.4530 -0.6620
  279MOL0     C37586   0.783   9.622   7.744 -1.3412 -0.6769 -0.0842
  279MOL0     C37587   0.666   9.546   7.718 -0.8518 -0.2914  0.2227
  279MOL0     C37588   0.565   9.600   7.643 -0.0370  0.3580  0.2621
  279MOL0     O37589   0.456   9.520   7.620 -0.2142 -0.4533 -0.0237
  279MOL0     C37590   0.426   9.490   7.483  0.5360  0.0804 -0.2065
  279MOL0     C37591   0.280   9.454   7.462 -0.0536 -0.1975 -0.6918
  279MOL0     C37592   0.235   9.381   7.335 -0.6992  0.2768 -0.1150
  279MOL0     C37593   0.088   9.345   7.344  0.3407  0.0481  1.1896
  279MOL0     C37594   0.063   9.252   7.228  0.5390 -0.4012 -0.5131
  279MOL0     C37595   0.050   9.178   7.130  0.3608 -0.1114  0.5166
  279MOL0     C37596   0.567   9.727   7.599 -0.7166 -0.1681  1.1037
  279MOL0     C37597   0.684   9.801   7.614 -0.6617 -0.9755 -0.4319
  279MOL0     H37598   1.050   9.910   7.998  0.6242 -1.1349  0.1987
  279MOL0     H37599   1.249  10.075   8.054  2.5838 -0.5201  0.5795
  279MOL0     H37600   1.627  10.127   7.956  1.3182 -0.4869 -1.2539
  279MOL0     H37601   1.582   9.995   7.855  0.5984  0.4803  2.0457
  279MOL0     H37602   1.709  10.124   7.727 -1.3822 -0.6768 -2.0421
  279MOL0     H37603   1.546  10.198   7.673 -2.6457  0.7765  1.8904
  279MOL0     H37604   1.585  10.379   7.839 -1.0600 -0.4846 -0.8506
  279MOL0     H37605   1.743  10.312   7.885  0.7665  2.1014 -0.7946
  279MOL0     H37606   1.788  10.356   7.622 -2.4964 -1.4554 -1.5618
  279MOL0     H37607   1.639  10.458   7.635 -0.4669  2.1567  0.4427
  279MOL0     H37608   1.758  10.574   7.842  1.0333  1.4837  0.2809
  279MOL0     H37609   1.900  10.503   7.781 -0.9135  0.9574  0.1682
  279MOL0     H37610   1.895  10.705   7.638 -1.3831  1.2474  2.4066
  279MOL0     H37611   1.814  10.609   7.536  1.8667  3.9395 -1.0912
  279MOL0     H37612   1.593  10.692   7.634 -0.4805  2.7389 -1.3078
  279MOL0     H37613   1.689  10.782   7.759 -0.5257  3.2395  0.2100
  279MOL0     H37614   1.767  10.928   7.591  2.2508 -3.3018  1.6768
  279MOL0     H37615   1.592  10.909   7.555  0.5974  1.5055 -2.1918
  279MOL0     H37616   1.507  10.727   7.372 -0.3052  2.0476  1.6185
  279MOL0     H37617   1.543  10.589   7.130 -0.1152  0.4930  1.8017
  279MOL0     H37618   1.693  10.550   7.080  1.5834 -0.5521  1.1124
  279MOL0     H37619   1.560  10.352   7.173  1.4702 -2.7060 -0.3039
  279MOL0     H37620   1.565  10.435   7.328  0.0010 -0.2458 -0.5158
  279MOL0     H37621   1.802  10.406   7.352  0.5657  0.4277 -0.8988
  279MOL0     H37622   1.816  10.374   7.171 -0.5162 -0.9901 -0.2006
  279MOL0     H37623   1.684  10.202   7.366 -1.2078 -0.4179 -1.0480
  279MOL0     H37624   1.856  10.188   7.327  0.2431 -3.7431 -1.0808
  279MOL0     H37625   1.979  10.208   7.148 -1.4683  0.4324  0.8301
  279MOL0     H37626   2.217  10.192   6.890  0.3925  1.9584 -0.9762
  279MOL0     H37627   2.131  10.336   6.909  2.5309 -1.3029 -4.9877
  279MOL0     H37628   2.185  10.250   7.056  2.1148 -1.2528 -1.2896
  279MOL0     H37629   2.095  10.218   6.428  0.9874 -1.4246  1.4345
  279MOL0     H37630   2.171  10.160   6.210 -0.7092 -0.4575 -1.1831
  279MOL0     H37631   2.113   9.948   5.901  0.4983 -0.7079  0.9864
  279MOL0     H37632   2.076  10.084   6.009 -1.4323 -1.1810  0.8050
  279MOL0     H37633   2.248  10.191   5.899 -0.7144 -0.2973 -1.6883
  279MOL0     H37634   2.330  10.106   6.032 -1.2156 -3.0733  1.1260
  279MOL0     H37635   2.387   9.905   5.872 -1.5951 -0.3646  0.4049
  279MOL0     H37636   2.468  10.061   5.854 -0.5982  0.3355 -2.1022
  279MOL0     H37637   2.232   9.964   5.685  0.1997  0.5789 -0.9307
  279MOL0     H37638   2.333  10.099   5.643 -1.1579 -0.4779 -1.6788
  279MOL0     H37639   2.418   9.814   5.672  0.8584 -0.1336  0.4902
  279MOL0     H37640   2.531   9.945   5.654 -0.4408 -0.3424 -1.1841
  279MOL0     H37641   2.314   9.841   5.453  0.8509 -0.0947 -2.4839
  279MOL0     H37642   2.390  10.006   5.417  1.2831 -1.1154 -3.7199
  279MOL0     H37643   2.502   9.827   5.290 -1.6803  1.4053  0.1120
  279MOL0     H37644   2.529   9.736   5.440  1.6875 -0.6923 -1.4469
  279MOL0     H37645   2.725   9.843   5.372  0.7656  1.9885 -1.3697
  279MOL0     H37646   2.680   9.921   5.516  0.8932 -5.6332  0.1734
  279MOL0     H37647   2.045   9.754   6.282  2.0870 -0.0403 -0.4467
  279MOL0     H37648   1.971   9.795   6.477 -1.5892 -0.3442 -1.7688
  279MOL0     H37649   1.779  10.008   6.750 -0.8680  1.5999  0.8808
  279MOL0     H37650   1.653  10.001   6.949  0.4683 -0.4946 -2.7032
  279MOL0     H37651   1.422   9.984   7.676 -1.7845  4.9922 -0.5949
  279MOL0     H37652   1.226   9.824   7.626 -1.1074 -2.3194  1.3557
  279MOL0     H37653   0.864   9.587   7.807 -0.5063  0.3038 -0.5751
  279MOL0     H37654   0.655   9.442   7.747 -0.6993 -0.6309 -0.8933
  279MOL0     H37655   0.461   9.561   7.408 -2.0644 -1.7372 -3.3902
  279MOL0     H37656   0.482   9.399   7.459  1.8063  0.7636  0.0472
  279MOL0     H37657   0.223   9.547   7.464  0.9591  0.4583 -1.3600
  279MOL0     H37658   0.240   9.404   7.551 -2.3817  2.5992 -0.0414
  279MOL0     H37659   0.301   9.294   7.322  0.6958  1.1477  0.8081
  279MOL0     H37660   0.245   9.437   7.241 -0.5480 -3.3266 -2.4713
  279MOL0     H37661   0.031   9.438   7.331 -1.2131 -0.6481  2.6133
  279MOL0     H37662   0.061   9.289   7.434  1.1066 -0.4671  1.0985
  279MOL0     H37663   0.031   9.126   7.039 -0.6337  0.8503  0.1584
  279MOL0     H37664   0.491   9.770   7.535 -1.1663 -0.8223  1.1933
  279MOL0     H37665   0.676   9.892   7.556 -0.2860 -0.5334  0.2008
  280MOL0     O37666   4.414   6.432   5.907 -0.3187  0.0581 -0.2824
  280MOL0     C37667   4.435   6.519   5.820  0.5473  0.2896  0.5601
  280MOL0     O37668   4.421   6.654   5.840 -0.6697 -0.0017 -0.4834
  280MOL0     C37669   4.344   6.691   5.943  0.0417  0.3631 -0.1703
  280MOL0     C37670   4.203   6.673   5.948 -1.2391 -0.1972 -0.3868
  280MOL0     C37671   4.135   6.729   6.051  0.0028 -0.1269  0.0419
  280MOL0     C37672   4.202   6.797   6.159  1.1609  0.9510 -0.3167
  280MOL0     O37673   4.131   6.842   6.272  0.3545  0.1129 -0.0316
  280MOL0     C37674   4.200   6.915   6.372  0.2946  0.2364  0.5739
  280MOL0     C37675   4.094   6.975   6.470  0.9593 -0.1699  0.5436
  280MOL0     C37676   3.978   7.043   6.393  1.0783 -0.0025 -0.1068
  280MOL0     C37677   3.897   7.142   6.480  0.9852  0.2900 -0.4403
  280MOL0     C37678   3.784   7.204   6.391 -0.1655  0.4548  1.1939
  280MOL0     C37679   3.843   7.319   6.308  0.0936 -0.1015 -0.2877
  280MOL0     C37680   3.729   7.409   6.257  0.0357 -0.6975  0.0913
  280MOL0     C37681   3.773   7.546   6.195  0.9078  0.1109 -1.6953
  280MOL0     N37682   3.785   7.536   6.053 -0.5496  0.8483  0.3998
  280MOL0     C37683   3.841   7.425   5.988 -0.4759  0.6496 -1.2704
  280MOL0     C37684   3.821   7.445   5.860  1.1006 -0.6593 -0.4602
  280MOL0     C37685   3.887   7.363   5.754  0.1947 -0.0103  1.0501
  280MOL0     C37686   3.787   7.261   5.686 -0.2833  0.1839 -0.1100
  280MOL0     C37687   3.666   7.330   5.625 -0.9760 -0.5524 -0.3455
  280MOL0     C37688   3.683   7.443   5.517 -0.3493  0.0664 -0.3130
  280MOL0     O37689   3.560   7.483   5.470  0.8703 -0.1982 -0.2902
  280MOL0     C37690   3.503   7.458   5.353 -0.3269  0.3916  1.0714
  280MOL0     C37691   3.539   7.353   5.270 -0.3076  1.1389  1.1630
  280MOL0     C37692   3.479   7.326   5.145  0.5890  0.1375 -0.2058
  280MOL0     C37693   3.524   7.197   5.065 -0.3460 -0.8180 -1.1787
  280MOL0     C37694   3.382   7.420   5.097  0.0271 -0.5018 -1.1100
  280MOL0     C37695   3.298   7.394   4.969  0.0686 -0.7517 -0.1990
  280MOL0     O37696   3.173   7.463   4.973  0.5125 -0.6085  0.8843
  280MOL0     C37697   3.093   7.464   4.863 -0.5384 -0.2617 -0.2791
  280MOL0     C37698   3.102   7.555   4.759  0.3985 -0.5721 -0.2840
  280MOL0     C37699   3.013   7.556   4.656  0.4789 -0.4987 -0.4145
  280MOL0     C37700   2.908   7.461   4.657  0.5340  0.0081 -0.1391
  280MOL0     O37701   2.799   7.460   4.577 -0.6160 -0.9820  0.5519
  280MOL0     C37702   2.782   7.572   4.492  0.8519  0.0323  0.6323
  280MOL0     C37703   2.649   7.561   4.423 -0.2838 -0.0462  0.4760
  280MOL0     C37704   2.629   7.430   4.346  0.3330 -0.0063 -0.4958
  280MOL0     C37705   2.522   7.435   4.244  0.1948  0.2037  0.3845
  280MOL0     C37706   2.390   7.356   4.248 -0.0416  1.3313  0.3551
  280MOL0     C37707   2.293   7.393   4.136 -0.1077  0.3390  0.2732
  280MOL0     C37708   2.164   7.311   4.135 -0.4728  0.0660 -0.7174
  280MOL0     C37709   2.094   7.287   4.005  0.5193 -0.2298  0.3183
  280MOL0    Cl37710   2.205   7.184   3.899  0.3919  0.2911 -0.1867
  280MOL0     C37711   2.905   7.364   4.751  0.5972 -0.0495  0.6543
  280MOL0     C37712   2.988   7.374   4.861 -0.3969  1.0844 -1.0080
  280MOL0     O37713   3.345   7.337   4.872 -0.0956  0.4637  0.0179
  280MOL0     C37714   3.343   7.523   5.194 -0.6416  0.3352  0.7469
  280MOL0     C37715   3.410   7.543   5.309 -1.1817 -0.8211  0.5736
  280MOL0     N37716   3.765   7.568   5.844  0.6877 -0.0407  0.5182
  280MOL0     N37717   3.726   7.609   5.959 -0.7608 -0.4832 -0.1095
  280MOL0     C37718   4.337   6.823   6.145  0.1313  0.8775  0.9449
  280MOL0     C37719   4.408   6.773   6.035 -0.5835 -0.4041  0.6295
  280MOL0     C37720   4.479   6.473   5.680  0.1562  0.3985 -0.4151
  280MOL0     C37721   4.539   6.553   5.584 -0.0067 -0.0949  0.0662
  280MOL0     C37722   4.581   6.494   5.455  0.1313  0.4755 -0.1603
  280MOL0     C37723   4.569   6.358   5.428  0.3638 -0.0633  0.1993
  280MOL0     O37724   4.613   6.308   5.303 -0.3942  0.1905  0.0217
  280MOL0     C37725   4.595   6.170   5.272  0.0790 -0.0529  0.6001
  280MOL0     C37726   4.450   6.150   5.209  0.0132  1.0896  0.3152
  280MOL0     C37727   4.434   5.994   5.194 -0.5623 -0.0838 -0.2742
  280MOL0     C37728   4.292   5.946   5.167  0.2232  0.5947  0.2626
  280MOL0     C37729   4.240   5.967   5.035  0.7732 -0.3102 -0.5702
  280MOL0     C37730   4.190   5.963   4.921 -0.0205 -0.0688  0.4663
  280MOL0     C37731   4.494   6.287   5.524  0.2628 -0.4317  0.2239
  280MOL0     C37732   4.456   6.341   5.653  1.0692 -0.6935  0.2252
  280MOL0     H37733   4.160   6.600   5.880 -2.2388  1.2980 -1.4226
  280MOL0     H37734   4.026   6.725   6.051 -0.0388  0.0907 -1.8281
  280MOL0     H37735   4.272   6.850   6.423  0.0121  0.5675  1.4142
  280MOL0     H37736   4.262   6.991   6.322  2.4064 -1.6202  0.1854
  280MOL0     H37737   4.060   6.897   6.538  1.3342 -0.8957 -0.0932
  280MOL0     H37738   4.135   7.055   6.533 -1.1523  2.9556 -1.7265
  280MOL0     H37739   4.015   7.083   6.298 -2.6404 -1.2710 -2.2649
  280MOL0     H37740   3.908   6.969   6.355 -0.7623 -0.1873  3.3042
  280MOL0     H37741   3.853   7.097   6.570  0.5597 -1.1361 -1.3257
  280MOL0     H37742   3.959   7.223   6.520 -0.8767  1.5031  0.1399
  280MOL0     H37743   3.745   7.130   6.320 -1.6428  1.7695  0.5809
  280MOL0     H37744   3.708   7.249   6.455  1.7184  1.8814  2.5420
  280MOL0     H37745   3.900   7.382   6.378 -1.2509 -0.7453  1.4537
  280MOL0     H37746   3.906   7.281   6.227 -3.1589 -3.5917 -1.4241
  280MOL0     H37747   3.667   7.354   6.185 -0.5577 -2.4835  1.8705
  280MOL0     H37748   3.672   7.437   6.345 -1.0818  0.5037 -0.9700
  280MOL0     H37749   3.874   7.572   6.228  0.2355  2.2030 -1.1226
  280MOL0     H37750   3.693   7.613   6.226  2.5101  1.3460 -0.0367
  280MOL0     H37751   3.893   7.340   6.033  2.1739  2.4924 -0.6450
  280MOL0     H37752   3.925   7.433   5.679  3.4855 -3.8657 -1.3103
  280MOL0     H37753   3.972   7.305   5.792  1.7369  0.4750 -1.4434
  280MOL0     H37754   3.752   7.203   5.772 -1.6863  2.6800  1.1189
  280MOL0     H37755   3.835   7.202   5.607 -0.9856  1.4907 -1.5807
  280MOL0     H37756   3.630   7.383   5.714  1.2288  2.1607 -0.9050
  280MOL0     H37757   3.599   7.254   5.584 -0.7440 -1.4402  0.8665
  280MOL0     H37758   3.751   7.400   5.443  0.8091  0.0885  0.7162
  280MOL0     H37759   3.727   7.530   5.566 -0.9929  2.4995 -3.6798
  280MOL0     H37760   3.607   7.287   5.323 -1.4651  0.7362  2.2075
  280MOL0     H37761   3.522   7.211   4.957  2.4828  1.2579 -1.0474
  280MOL0     H37762   3.620   7.170   5.109 -0.8525 -0.6216  0.0974
  280MOL0     H37763   3.451   7.118   5.089  1.8263 -2.3459  0.8688
  280MOL0     H37764   3.178   7.630   4.740  2.6768 -2.7892 -0.4350
  280MOL0     H37765   3.019   7.624   4.572 -1.4965  0.5238  0.2077
  280MOL0     H37766   2.777   7.668   4.544  0.1990  3.9462 -5.5055
  280MOL0     H37767   2.857   7.587   4.414 -2.2281 -0.4380 -2.7065
  280MOL0     H37768   2.573   7.577   4.500  0.2590  1.3387  0.7550
  280MOL0     H37769   2.651   7.641   4.349  0.6280 -0.4191  0.0722
  280MOL0     H37770   2.615   7.355   4.425  2.1163 -1.4514 -1.4468
  280MOL0     H37771   2.726   7.399   4.306  0.4605  1.1986 -1.1647
  280MOL0     H37772   2.497   7.542   4.245 -0.1033  0.1413  1.7731
  280MOL0     H37773   2.568   7.408   4.149  1.1768  2.5758  0.1037
  280MOL0     H37774   2.328   7.385   4.333  1.2375 -0.9515  2.1853
  280MOL0     H37775   2.406   7.248   4.243 -0.6265  1.2898 -1.5816
  280MOL0     H37776   2.262   7.498   4.138 -0.7667  0.2049 -1.2392
  280MOL0     H37777   2.336   7.396   4.035 -0.7894  3.4559 -0.0357
  280MOL0     H37778   2.097   7.374   4.195 -1.0442  0.0957 -1.3730
  280MOL0     H37779   2.180   7.212   4.178  3.4213 -0.4966 -3.0096
  280MOL0     H37780   2.070   7.387   3.968 -2.1826 -0.4941  1.1343
  280MOL0     H37781   2.005   7.226   4.025  0.8901 -0.6683  0.6513
  280MOL0     H37782   2.812   7.309   4.764 -1.8970  3.5513 -0.4726
  280MOL0     H37783   2.984   7.292   4.931  2.2338  0.2079 -1.7823
  280MOL0     H37784   3.263   7.584   5.154  0.6058 -0.4142 -3.4304
  280MOL0     H37785   3.380   7.624   5.375 -2.0091 -2.6627  2.6135
  280MOL0     H37786   4.398   6.870   6.221  0.0081  2.5175  0.0821
  280MOL0     H37787   4.516   6.786   6.026 -0.5113 -0.5081  1.3338
  280MOL0     H37788   4.558   6.656   5.614  2.5094 -0.6737  0.6712
  280MOL0     H37789   4.631   6.559   5.384 -1.3240  0.1066 -1.5816
  280MOL0     H37790   4.681   6.133   5.216 -0.2201 -0.2862  0.2948
  280MOL0     H37791   4.597   6.114   5.366  0.5853  2.9966  2.5631
  280MOL0     H37792   4.444   6.199   5.111 -1.2670  0.8148  0.2483
  280MOL0     H37793   4.372   6.191   5.273  0.1346  3.2625 -0.8213
  280MOL0     H37794   4.469   5.946   5.285  2.5295 -0.6318 -1.6025
  280MOL0     H37795   4.490   5.954   5.109  1.0467  0.5387  0.4479
  280MOL0     H37796   4.232   6.001   5.240  1.2290  1.9900  0.0853
  280MOL0     H37797   4.276   5.839   5.181 -3.9529  0.7598 -1.9303
  280MOL0     H37798   4.139   5.962   4.826 -1.7405 -1.4737  1.3327
  280MOL0     H37799   4.468   6.184   5.502  1.1752 -0.2800 -1.7993
  280MOL0     H37800   4.401   6.275   5.719  0.1763 -1.3794 -1.1649
  281MOL0     O37801   8.868  11.128   8.002 -0.1754 -0.2298  1.2885
  281MOL0     C37802   8.989  11.160   7.970 -0.2876 -0.2267 -0.3336
  281MOL0     O37803   9.068  11.108   7.874 -0.2680  0.2662 -0.3706
  281MOL0     C37804   9.010  10.998   7.816 -0.5724 -0.8221  0.3637
  281MOL0     C37805   8.923  11.005   7.706 -0.6034 -1.7029  1.1698
  281MOL0     C37806   8.885  10.889   7.638  1.1103 -0.1311 -0.7363
  281MOL0     C37807   8.911  10.766   7.687  0.4801  0.4665 -1.0319
  281MOL0     O37808   8.854  10.651   7.650 -0.5195 -0.0403  0.4397
  281MOL0     C37809   8.868  10.603   7.516 -0.0504  0.0518  0.8938
  281MOL0     C37810   8.884  10.453   7.519 -0.4905 -0.9195 -0.1000
  281MOL0     C37811   8.914  10.388   7.383 -1.1208 -0.2553 -0.2750
  281MOL0     C37812   8.791  10.392   7.297  0.4120  0.5299 -0.0940
  281MOL0     C37813   8.821  10.355   7.153  0.2577  0.1460  0.5547
  281MOL0     C37814   8.688  10.343   7.081  1.0943 -0.6623 -0.1189
  281MOL0     C37815   8.723  10.296   6.940  0.4882 -0.4825  0.1895
  281MOL0     C37816   8.806  10.392   6.862  0.2506 -0.6637  0.2228
  281MOL0     N37817   8.748  10.525   6.837 -0.5381  0.0635 -0.2536
  281MOL0     C37818   8.678  10.555   6.717 -0.4550  0.2379 -1.0453
  281MOL0     C37819   8.647  10.683   6.728  0.2898 -0.2869 -0.0477
  281MOL0     C37820   8.557  10.762   6.630 -0.0917  0.1387 -0.5400
  281MOL0     C37821   8.404  10.740   6.656 -0.5346  0.6191  0.1571
  281MOL0     C37822   8.304  10.799   6.560 -0.5017  0.4634  0.5815
  281MOL0     C37823   8.326  10.758   6.409 -0.4144 -0.4033 -0.4084
  281MOL0     O37824   8.404  10.864   6.353 -0.3252 -0.1860 -0.0171
  281MOL0     C37825   8.407  10.891   6.213  1.2944  0.4885  1.1136
  281MOL0     C37826   8.463  11.006   6.164 -0.5622 -0.9109  0.9260
  281MOL0     C37827   8.463  11.045   6.032  0.3366 -0.5774  0.2994
  281MOL0     C37828   8.512  11.184   6.001 -0.2918  0.7450  0.9019
  281MOL0     C37829   8.397  10.965   5.935 -0.4810  0.2586 -0.0034
  281MOL0     C37830   8.392  11.001   5.785  0.2644 -0.0954 -0.0788
  281MOL0     O37831   8.374  10.900   5.697 -0.4852  0.0148  0.2224
  281MOL0     C37832   8.341  10.935   5.569  0.1909 -0.0297 -0.2585
  281MOL0     C37833   8.232  11.025   5.546 -0.2289 -0.4182 -0.7937
  281MOL0     C37834   8.211  11.064   5.414 -0.2166 -0.1590  0.1546
  281MOL0     C37835   8.287  11.011   5.303 -0.0450 -0.2454  0.1786
  281MOL0     O37836   8.249  11.050   5.179 -0.2063 -0.4838 -0.0007
  281MOL0     C37837   8.353  11.076   5.083 -0.6620  1.4434 -0.5789
  281MOL0     C37838   8.327  11.183   4.985 -0.8250  0.1671  0.5112
  281MOL0     C37839   8.227  11.134   4.880  0.1984 -0.7445 -0.1806
  281MOL0     C37840   8.205  11.248   4.780  1.0153  0.1646  0.3767
  281MOL0     C37841   8.096  11.216   4.677  0.5220  0.3276 -0.1761
  281MOL0     C37842   8.065  11.338   4.595 -0.1426  0.7908 -0.8046
  281MOL0     C37843   8.051  11.468   4.678  0.5752  0.0463  0.5158
  281MOL0     C37844   7.978  11.590   4.607 -0.2635  0.5301 -0.9855
  281MOL0    Cl37845   8.074  11.665   4.481  0.2564  0.0576  0.0039
  281MOL0     C37846   8.379  10.918   5.325  0.4706  0.7468 -0.0884
  281MOL0     C37847   8.406  10.883   5.460 -0.0531  0.7112  0.0898
  281MOL0     O37848   8.407  11.118   5.756 -0.0450  0.4686  0.2720
  281MOL0     C37849   8.338  10.842   5.981  0.6281 -0.3317 -0.1526
  281MOL0     C37850   8.338  10.804   6.116 -0.7005  0.4526  0.3636
  281MOL0     N37851   8.689  10.728   6.848 -0.0454 -0.6740 -0.3002
  281MOL0     N37852   8.760  10.638   6.911  0.1561 -0.5052 -0.2655
  281MOL0     C37853   8.990  10.753   7.803 -0.2273  0.2168 -0.4562
  281MOL0     C37854   9.037  10.869   7.871 -0.8311 -0.0973  0.6969
  281MOL0     C37855   9.032  11.293   8.033  0.0562  0.3634 -0.0753
  281MOL0     C37856   8.988  11.335   8.160  0.9012 -0.0348  0.6622
  281MOL0     C37857   9.026  11.453   8.212 -0.2713 -0.7486  0.3787
  281MOL0     C37858   9.112  11.534   8.142 -1.1369 -0.8319 -1.0402
  281MOL0     O37859   9.145  11.658   8.208  0.2247  0.2923  0.5165
  281MOL0     C37860   9.172  11.774   8.128 -0.1844  0.3906 -0.3945
  281MOL0     C37861   9.321  11.798   8.093  0.2319  0.2009 -0.3319
  281MOL0     C37862   9.348  11.954   8.082  0.1229 -0.3101 -0.1107
  281MOL0     C37863   9.495  11.988   8.085 -0.3089  0.7053  0.7811
  281MOL0     C37864   9.514  12.130   8.040 -0.0779  0.5516  0.6715
  281MOL0     C37865   9.550  12.247   8.009  0.0543 -0.1892  0.0564
  281MOL0     C37866   9.154  11.499   8.014  0.3144  0.5794  0.6134
  281MOL0     C37867   9.106  11.384   7.957  0.3397 -0.3539  1.1263
  281MOL0     H37868   8.897  11.105   7.673 -1.0319 -2.0579  0.4117
  281MOL0     H37869   8.816  10.909   7.556 -1.6575  2.0833  1.8766
  281MOL0     H37870   8.775  10.626   7.463  1.4046  1.9844 -1.0334
  281MOL0     H37871   8.939  10.652   7.449 -0.6769 -2.5460 -1.8916
  281MOL0     H37872   8.976  10.442   7.577  0.4515 -1.0808 -1.5694
  281MOL0     H37873   8.801  10.407   7.574 -1.0442  0.9971  0.7589
  281MOL0     H37874   9.004  10.433   7.341  1.2352 -1.1545  3.3746
  281MOL0     H37875   8.949  10.287   7.407  0.5167  0.3261 -0.1120
  281MOL0     H37876   8.711  10.330   7.339  2.3394 -2.8604 -1.0540
  281MOL0     H37877   8.759  10.496   7.288  0.6474  0.7885  1.6857
  281MOL0     H37878   8.899  10.430   7.135  1.0946 -0.2224  2.4410
  281MOL0     H37879   8.877  10.261   7.148  0.8126  0.3383  2.4345
  281MOL0     H37880   8.624  10.274   7.136 -0.5969 -0.9059 -2.2575
  281MOL0     H37881   8.637  10.439   7.071  0.4487 -1.1378 -1.6642
  281MOL0     H37882   8.775  10.200   6.950  0.9996 -0.3897 -1.3027
  281MOL0     H37883   8.633  10.272   6.883  0.9764 -0.2113 -0.7184
  281MOL0     H37884   8.826  10.340   6.768  0.4309 -0.5120  0.1772
  281MOL0     H37885   8.902  10.409   6.913 -1.6164 -2.1856  4.7322
  281MOL0     H37886   8.653  10.481   6.642  2.7566 -3.2116  0.9888
  281MOL0     H37887   8.591  10.866   6.623 -0.4833  0.2166 -1.4088
  281MOL0     H37888   8.581  10.734   6.527  0.5699  0.0460 -0.3634
  281MOL0     H37889   8.387  10.777   6.757 -0.0526 -0.0189  0.4747
  281MOL0     H37890   8.397  10.632   6.673  1.2693  0.8453  2.9113
  281MOL0     H37891   8.297  10.907   6.567  2.9832  0.8114  0.7286
  281MOL0     H37892   8.208  10.758   6.591  1.1155 -1.4047  3.6537
  281MOL0     H37893   8.231  10.734   6.362 -1.9553  2.3917  1.0572
  281MOL0     H37894   8.391  10.670   6.403 -0.9367 -0.8608  0.4332
  281MOL0     H37895   8.504  11.074   6.238 -3.3733  3.9249 -1.4872
  281MOL0     H37896   8.434  11.236   5.946  1.2379  1.7354 -0.4442
  281MOL0     H37897   8.528  11.244   6.091 -1.4067  0.2625  1.4353
  281MOL0     H37898   8.597  11.172   5.932 -0.1576 -1.3521  1.3498
  281MOL0     H37899   8.173  11.044   5.635  0.5240  0.2549 -0.4237
  281MOL0     H37900   8.136  11.136   5.383  1.6400  0.6494 -2.7797
  281MOL0     H37901   8.443  11.102   5.140 -0.9340 -1.5030  1.3992
  281MOL0     H37902   8.373  10.981   5.033 -0.7408  0.2345  1.5712
  281MOL0     H37903   8.311  11.279   5.036  2.1716  0.6903  0.6085
  281MOL0     H37904   8.422  11.184   4.931 -0.0065 -0.6760  1.8947
  281MOL0     H37905   8.127  11.120   4.923  0.0052  2.1974  0.5887
  281MOL0     H37906   8.265  11.041   4.838 -1.7928  0.5568 -5.6698
  281MOL0     H37907   8.176  11.335   4.840  2.6441  0.0135  1.4597
  281MOL0     H37908   8.297  11.276   4.728  0.2950 -1.4108 -1.8961
  281MOL0     H37909   8.004  11.189   4.730 -1.0656  3.6695 -0.9368
  281MOL0     H37910   8.124  11.133   4.613  1.8318  0.8870 -0.3689
  281MOL0     H37911   8.150  11.346   4.527  0.4176 -1.5572 -0.4852
  281MOL0     H37912   7.970  11.326   4.543  0.3021  0.8063 -1.6471
  281MOL0     H37913   8.149  11.504   4.710  0.8656 -1.4411  1.3476
  281MOL0     H37914   7.974  11.445   4.752 -0.4452 -1.9839 -1.0931
  281MOL0     H37915   7.958  11.668   4.682  0.8644  0.1944 -0.3185
  281MOL0     H37916   7.875  11.564   4.578 -1.0640 -0.9620  2.6158
  281MOL0     H37917   8.431  10.872   5.242  0.2575  0.8101 -0.2571
  281MOL0     H37918   8.470  10.798   5.483 -1.5891 -0.5871 -0.2173
  281MOL0     H37919   8.289  10.781   5.907  2.1822 -1.4254 -0.3243
  281MOL0     H37920   8.281  10.714   6.138  0.6233  0.0465  2.3753
  281MOL0     H37921   9.012  10.652   7.834  2.7062  0.5826 -1.0661
  281MOL0     H37922   9.107  10.855   7.952  1.1305  0.8008 -0.7587
  281MOL0     H37923   8.911  11.280   8.213  1.1314 -1.9729 -0.9225
  281MOL0     H37924   8.988  11.478   8.310 -1.9126 -2.9154  0.3565
  281MOL0     H37925   9.103  11.790   8.046 -1.4994  1.1031  0.8183
  281MOL0     H37926   9.150  11.860   8.192 -0.0809  0.3750 -0.3366
  281MOL0     H37927   9.353  11.753   7.998  0.0484  0.5346 -0.5537
  281MOL0     H37928   9.377  11.753   8.175  2.4086  3.8383  0.3856
  281MOL0     H37929   9.310  11.989   8.179 -0.1075 -3.5624  1.0763
  281MOL0     H37930   9.298  11.995   7.994 -0.9136  0.4080  0.7802
  281MOL0     H37931   9.542  11.915   8.019 -0.6185 -0.1690  1.5148
  281MOL0     H37932   9.538  11.979   8.185 -3.1095 -1.0832  1.9611
  281MOL0     H37933   9.570  12.347   7.977 -0.8083 -0.2654 -0.7405
  281MOL0     H37934   9.211  11.570   7.954 -1.9666  3.1440  1.2288
  281MOL0     H37935   9.128  11.365   7.852 -2.8267 -0.3565  0.3619
  282MOL0     O37936   9.361   4.879   1.553  0.8495  0.4893  0.6146
  282MOL0     C37937   9.371   4.794   1.643  0.1573  0.8201  1.0714
  282MOL0     O37938   9.493   4.745   1.688  0.3769  0.4375 -0.0048
  282MOL0     C37939   9.605   4.751   1.604 -0.6160 -0.2109 -0.0482
  282MOL0     C37940   9.659   4.636   1.550  0.0774  0.1270 -0.8060
  282MOL0     C37941   9.761   4.641   1.460 -0.1510  0.5986 -0.2130
  282MOL0     C37942   9.819   4.764   1.423  0.0592  1.4395 -0.8942
  282MOL0     O37943   9.911   4.785   1.327  0.4328 -0.0631  0.5491
  282MOL0     C37944   9.904   4.693   1.217 -0.7436 -0.2218  0.6518
  282MOL0     C37945  10.004   4.736   1.109 -0.4705  0.1144 -0.7805
  282MOL0     C37946  10.010   4.640   0.997 -0.4507  0.1253 -0.1073
  282MOL0     C37947   9.891   4.657   0.903  0.0053 -0.5543 -0.2874
  282MOL0     C37948   9.871   4.787   0.832  0.8296 -0.8904 -0.0196
  282MOL0     C37949   9.837   4.773   0.678 -0.2265 -0.5125 -0.0810
  282MOL0     C37950   9.807   4.908   0.621  0.5963  0.2822  0.5104
  282MOL0     C37951   9.682   4.898   0.530 -1.0221  0.2526  0.2249
  282MOL0     N37952   9.715   4.831   0.402 -0.1588  0.0736 -0.2065
  282MOL0     C37953   9.792   4.876   0.300 -0.1358 -0.6183 -0.8866
  282MOL0     C37954   9.810   4.762   0.231 -0.0354 -0.4325  0.3441
  282MOL0     C37955   9.915   4.768   0.119 -1.0178  0.0453 -0.5461
  282MOL0     C37956   9.868   4.759  -0.020  0.4933 -0.6555 -0.1773
  282MOL0     C37957   9.800   4.891  -0.075  0.4292  0.6054  0.3948
  282MOL0     C37958   9.777   4.888  -0.225 -0.0056  0.2665  0.3028
  282MOL0     O37959   9.689   4.780  -0.270 -0.0281  0.4341  0.5141
  282MOL0     C37960   9.657   4.760  -0.395  0.8084  0.3457 -0.3507
  282MOL0     C37961   9.710   4.840  -0.497 -0.9794 -0.1064  0.2184
  282MOL0     C37962   9.666   4.825  -0.628  0.3221  0.3659 -0.0314
  282MOL0     C37963   9.744   4.878  -0.742 -0.1508 -0.2461 -0.3024
  282MOL0     C37964   9.555   4.732  -0.655 -0.5675 -0.7782  0.2947
  282MOL0     C37965   9.498   4.738  -0.790  0.3679 -0.7350 -0.5689
  282MOL0     O37966   9.438   4.851  -0.828  0.2326  0.2027  0.0867
  282MOL0     C37967   9.340   4.849  -0.924  0.4340 -0.3445 -0.1658
  282MOL0     C37968   9.353   4.931  -1.038  0.3345 -0.1341 -0.4230
  282MOL0     C37969   9.256   4.939  -1.137  0.4780  0.2040  0.1103
  282MOL0     C37970   9.144   4.852  -1.131 -1.0721  0.2780  0.5172
  282MOL0     O37971   9.042   4.866  -1.230 -0.4187  0.2388 -0.6685
  282MOL0     C37972   9.047   4.769  -1.329 -0.5010 -0.8748  0.4349
  282MOL0     C37973   8.948   4.789  -1.449 -0.6948  0.0758 -0.6222
  282MOL0     C37974   8.963   4.674  -1.557  1.3871 -0.0435 -0.0599
  282MOL0     C37975   8.833   4.653  -1.623  1.4402  0.3887  0.5817
  282MOL0     C37976   8.831   4.532  -1.707 -0.0225  0.2439 -0.4084
  282MOL0     C37977   8.709   4.537  -1.808 -0.2970  0.3930 -1.3856
  282MOL0     C37978   8.721   4.431  -1.913 -0.1558 -0.5410  0.1061
  282MOL0     C37979   8.604   4.390  -1.997  0.1593  0.7777  0.3567
  282MOL0    Cl37980   8.659   4.257  -2.099 -0.1433 -0.2078  0.3325
  282MOL0     C37981   9.128   4.771  -1.018 -0.2970  0.4981  0.5352
  282MOL0     C37982   9.225   4.773  -0.916  0.3000 -0.1029 -0.1440
  282MOL0     O37983   9.484   4.632  -0.843  0.4016 -0.5802  0.1586
  282MOL0     C37984   9.518   4.643  -0.554 -0.0855 -1.8997  0.5603
  282MOL0     C37985   9.572   4.651  -0.424 -0.4900  0.5487 -0.2052
  282MOL0     N37986   9.732   4.658   0.285  0.7762 -0.3697  0.0663
  282MOL0     N37987   9.664   4.709   0.389 -0.3953 -0.1999  0.1788
  282MOL0     C37988   9.769   4.880   1.484  0.7750 -0.2134  0.1794
  282MOL0     C37989   9.666   4.876   1.574  0.2717 -0.2462 -0.3522
  282MOL0     C37990   9.235   4.746   1.704  0.7266 -0.3297  1.4566
  282MOL0     C37991   9.228   4.622   1.760 -0.8474  0.0419 -0.1853
  282MOL0     C37992   9.117   4.583   1.827 -0.4402  0.4854  0.4956
  282MOL0     C37993   9.002   4.661   1.829 -0.9005  0.3406  0.5829
  282MOL0     O37994   8.895   4.600   1.886  0.8945  0.0972 -0.3026
  282MOL0     C37995   8.766   4.665   1.865  0.3748  1.4913 -0.2911
  282MOL0     C37996   8.648   4.598   1.937 -0.5411  0.2986  0.0479
  282MOL0     C37997   8.651   4.607   2.095 -0.2252 -1.0253  0.1098
  282MOL0     C37998   8.543   4.706   2.150  0.3476 -0.4013 -0.2894
  282MOL0     C37999   8.560   4.846   2.102 -0.1711 -0.0947 -0.5545
  282MOL0     C38000   8.607   4.957   2.071  0.6617  0.3237 -0.2624
  282MOL0     C38001   9.007   4.786   1.767 -0.9042 -0.1822 -0.3046
  282MOL0     C38002   9.124   4.827   1.702  0.5354 -0.4889  0.1434
  282MOL0     H38003   9.610   4.545   1.583 -0.3396  0.2791 -1.0033
  282MOL0     H38004   9.782   4.551   1.402 -1.3991 -0.0664  0.3045
  282MOL0     H38005   9.940   4.592   1.238 -2.4687 -1.3022 -1.1751
  282MOL0     H38006   9.800   4.681   1.183 -0.3051  1.6885 -1.6664
  282MOL0     H38007   9.987   4.839   1.076  0.0413  1.5204  2.8563
  282MOL0     H38008  10.102   4.730   1.157  1.1464 -1.4973 -3.9456
  282MOL0     H38009  10.098   4.653   0.933  0.2797 -0.3421  0.7686
  282MOL0     H38010  10.005   4.536   1.032 -1.0606 -0.5339 -2.0694
  282MOL0     H38011   9.909   4.589   0.820  2.1093  0.9539 -1.1669
  282MOL0     H38012   9.803   4.633   0.964 -2.0198 -1.0212 -3.1917
  282MOL0     H38013   9.789   4.845   0.877  0.2856 -0.2406 -1.7571
  282MOL0     H38014   9.963   4.846   0.837  0.3152 -0.1417  0.9292
  282MOL0     H38015   9.929   4.730   0.637  1.2124  0.2003  2.1956
  282MOL0     H38016   9.752   4.708   0.657 -0.8081  0.5864 -1.2351
  282MOL0     H38017   9.785   4.989   0.691 -2.8733 -0.9025  0.9638
  282MOL0     H38018   9.892   4.933   0.557  0.7714 -2.4715 -0.4280
  282MOL0     H38019   9.654   4.997   0.493 -1.8908 -0.3852 -0.8779
  282MOL0     H38020   9.598   4.849   0.579 -0.2190 -1.8314 -0.3726
  282MOL0     H38021   9.835   4.974   0.283 -0.0005 -0.5456 -0.1503
  282MOL0     H38022   9.975   4.859   0.129 -1.8847  0.4419  1.6366
  282MOL0     H38023   9.982   4.682   0.117 -0.7599  0.2547 -1.7209
  282MOL0     H38024   9.788   4.685  -0.016 -2.0827  1.8382  5.2553
  282MOL0     H38025   9.956   4.741  -0.083 -0.5219  1.2382 -2.2842
  282MOL0     H38026   9.843   4.987  -0.047 -1.2557  1.5226 -0.0393
  282MOL0     H38027   9.700   4.916  -0.039 -0.5316  2.7130 -3.1722
  282MOL0     H38028   9.876   4.874  -0.271 -0.0588  0.1448  0.2235
  282MOL0     H38029   9.738   4.984  -0.260  0.3092  0.1191 -0.4639
  282MOL0     H38030   9.794   4.907  -0.480  1.9448 -2.6722 -2.6933
  282MOL0     H38031   9.809   4.959  -0.707 -1.5436  1.0104 -0.4953
  282MOL0     H38032   9.806   4.798  -0.782 -0.1483 -0.0252 -0.7481
  282MOL0     H38033   9.680   4.923  -0.818 -0.7043 -1.3176 -0.5005
  282MOL0     H38034   9.453   4.974  -1.035 -0.0097  0.7610 -1.3545
  282MOL0     H38035   9.259   4.999  -1.228 -4.2034  1.2612  0.3978
  282MOL0     H38036   9.150   4.764  -1.368  0.2983 -0.0090  2.2920
  282MOL0     H38037   9.032   4.669  -1.287 -1.8211 -1.4711 -1.3535
  282MOL0     H38038   8.855   4.793  -1.391  0.0151 -4.1122  1.1634
  282MOL0     H38039   8.962   4.881  -1.506  0.7085 -0.5040 -1.2612
  282MOL0     H38040   8.971   4.577  -1.507 -1.3940 -0.4093 -0.1328
  282MOL0     H38041   9.046   4.684  -1.627  1.3873 -1.2639 -0.2674
  282MOL0     H38042   8.744   4.640  -1.561  1.3774 -2.1284  0.0430
  282MOL0     H38043   8.810   4.736  -1.691  1.7100 -1.7560 -2.3132
  282MOL0     H38044   8.839   4.440  -1.648  4.2321 -0.4803 -1.7722
  282MOL0     H38045   8.922   4.534  -1.767  1.2178 -0.7573  1.3608
  282MOL0     H38046   8.618   4.534  -1.748  0.8050  2.4497  0.5619
  282MOL0     H38047   8.712   4.638  -1.851 -0.3241  0.5947 -0.9120
  282MOL0     H38048   8.763   4.341  -1.865  1.3956 -0.5069 -1.1152
  282MOL0     H38049   8.787   4.477  -1.987 -0.1561  2.0611  1.6129
  282MOL0     H38050   8.568   4.475  -2.056 -1.7780 -0.9409 -1.0515
  282MOL0     H38051   8.526   4.348  -1.933 -0.3009 -2.5974 -2.1533
  282MOL0     H38052   9.043   4.711  -0.990 -1.4430  1.0598 -1.5884
  282MOL0     H38053   9.195   4.727  -0.823 -3.6556  0.2710 -1.0436
  282MOL0     H38054   9.439   4.569  -0.566 -0.1340 -1.6069 -1.3160
  282MOL0     H38055   9.553   4.580  -0.345 -1.9748  0.3147 -0.7429
  282MOL0     H38056   9.821   4.972   1.464  2.2246 -1.2072 -0.7899
  282MOL0     H38057   9.634   4.971   1.615  3.2214  0.4453  0.5978
  282MOL0     H38058   9.308   4.549   1.753 -0.3146  0.4779  1.0068
  282MOL0     H38059   9.108   4.481   1.862 -2.1617 -0.2537 -1.8717
  282MOL0     H38060   8.763   4.772   1.890  1.6686  1.4524  0.1075
  282MOL0     H38061   8.760   4.663   1.755 -1.0326 -0.2720 -0.2182
  282MOL0     H38062   8.650   4.492   1.911 -1.1937  0.2920  0.0117
  282MOL0     H38063   8.556   4.634   1.890  0.1499  0.0250 -1.5710
  282MOL0     H38064   8.750   4.641   2.124 -0.8747  1.7352 -0.5764
  282MOL0     H38065   8.636   4.512   2.148  2.0268 -2.5078 -1.7177
  282MOL0     H38066   8.561   4.705   2.257  0.8079  2.0139 -0.2866
  282MOL0     H38067   8.443   4.667   2.126  0.9950 -1.1360 -2.0515
  282MOL0     H38068   8.643   5.057   2.056 -2.5914  2.0050  1.8645
  282MOL0     H38069   8.927   4.857   1.782 -0.1824  0.3133  1.6609
  282MOL0     H38070   9.123   4.920   1.647 -2.8891 -0.1237  0.6236
  283MOL0     O38071   9.901   1.664  10.924  0.5055  0.0510  0.4101
  283MOL0     C38072   9.866   1.679  10.807  0.0936 -0.4545 -0.0231
  283MOL0     O38073   9.806   1.786  10.761  0.9873  0.1731 -0.0652
  283MOL0     C38074   9.761   1.887  10.846 -0.7648  0.1601  0.0294
  283MOL0     C38075   9.630   1.905  10.886 -0.2062  0.1397 -0.3928
  283MOL0     C38076   9.594   2.017  10.955  0.6193  0.4679 -0.3482
  283MOL0     C38077   9.687   2.108  10.996  0.2861  0.4302 -0.1395
  283MOL0     O38078   9.647   2.218  11.064 -0.0040  0.6391  0.0353
  283MOL0     C38079   9.598   2.317  10.972  0.0980  0.0669 -0.4524
  283MOL0     C38080   9.487   2.391  11.030 -0.1411 -0.1016  0.1972
  283MOL0     C38081   9.371   2.315  11.092  0.4255 -0.8957  0.5939
  283MOL0     C38082   9.275   2.258  10.976  0.2201  0.9405 -0.6723
  283MOL0     C38083   9.166   2.172  11.046 -1.3542 -0.0129  0.6751
  283MOL0     C38084   9.073   2.106  10.950 -0.1979  0.1017  0.0938
  283MOL0     C38085   8.970   2.036  11.038 -1.5868  0.5039  0.3317
  283MOL0     C38086   8.865   1.961  10.959  0.7620 -0.1260 -0.6273
  283MOL0     N38087   8.760   2.056  10.906 -0.2192  0.6407  0.6636
  283MOL0     C38088   8.666   2.122  10.987  0.1856 -0.3049  1.2876
  283MOL0     C38089   8.605   2.210  10.912  0.4201 -0.0175  0.1449
  283MOL0     C38090   8.493   2.315  10.935 -0.1638  0.3473 -0.0676
  283MOL0     C38091   8.402   2.309  11.056  0.1139 -0.7288  0.3952
  283MOL0     C38092   8.308   2.419  11.052  0.8112 -0.1772 -0.2692
  283MOL0     C38093   8.177   2.407  11.131 -0.1098 -0.0117  0.7915
  283MOL0     O38094   8.085   2.508  11.096 -0.2774 -0.1405  0.2884
  283MOL0     C38095   8.077   2.622  11.170 -0.9381  0.1149  0.1171
  283MOL0     C38096   7.972   2.700  11.143 -0.7697  0.4123  0.8204
  283MOL0     C38097   7.932   2.803  11.232 -0.5441 -1.1230  0.6248
  283MOL0     C38098   7.805   2.883  11.197 -0.6613  0.0142  0.3203
  283MOL0     C38099   8.005   2.829  11.352 -0.6897  0.1156  1.7254
  283MOL0     C38100   7.977   2.938  11.435  0.2194  0.2317 -0.2854
  283MOL0     O38101   7.987   2.923  11.569  0.4023 -0.9487 -0.2309
  283MOL0     C38102   7.976   3.033  11.642  0.9966  0.0382 -0.9765
  283MOL0     C38103   8.086   3.078  11.709  0.6869  0.2972 -0.0097
  283MOL0     C38104   8.078   3.194  11.794 -0.5500  0.8784  0.6077
  283MOL0     C38105   7.958   3.273  11.802  0.1011 -0.3232  0.4908
  283MOL0     O38106   7.938   3.392  11.868  0.4468  0.6780 -0.2867
  283MOL0     C38107   8.040   3.444  11.950 -0.4481 -0.1328  0.6587
  283MOL0     C38108   8.129   3.536  11.869 -0.3462 -0.2734  0.2144
  283MOL0     C38109   8.247   3.590  11.950 -1.3118  0.0319 -0.6217
  283MOL0     C38110   8.197   3.713  12.033  0.0834  0.3707  0.7991
  283MOL0     C38111   8.322   3.772  12.105  1.3072  0.1463 -0.0886
  283MOL0     C38112   8.270   3.903  12.178  0.2015  0.0862 -0.4617
  283MOL0     C38113   8.211   3.855  12.313  0.4390  0.0388  0.7916
  283MOL0     C38114   8.175   3.977  12.399 -0.7271 -0.1187 -0.3897
  283MOL0    Cl38115   8.333   4.056  12.452 -0.2856  0.0699  0.0318
  283MOL0     C38116   7.854   3.224  11.725  0.3465 -0.7846  0.0283
  283MOL0     C38117   7.855   3.106  11.651  0.5182 -0.5594  0.1640
  283MOL0     O38118   7.955   3.045  11.379  0.1129  0.2180 -0.9049
  283MOL0     C38119   8.132   2.763  11.362  0.1651 -0.2272  0.1982
  283MOL0     C38120   8.162   2.659  11.273 -0.7987  0.3429 -0.7549
  283MOL0     N38121   8.662   2.193  10.787  0.6798 -0.0070  0.7816
  283MOL0     N38122   8.752   2.111  10.787 -0.3779 -0.0925 -0.1602
  283MOL0     C38123   9.826   2.087  10.960  0.1284  0.5691  0.7559
  283MOL0     C38124   9.862   1.972  10.885 -1.1997  0.3329 -0.0021
  283MOL0     C38125   9.900   1.567  10.713  0.6104  0.0925  0.2237
  283MOL0     C38126   9.934   1.445  10.752 -0.4132  0.3961  0.2344
  283MOL0     C38127   9.962   1.336  10.657 -0.6463  0.0632  0.6603
  283MOL0     C38128   9.953   1.369  10.518  0.3827  0.8313  0.3147
  283MOL0     O38129   9.977   1.268  10.426 -0.1925 -0.1724 -0.8077
  283MOL0     C38130  10.069   1.306  10.324  0.0274 -0.1133 -0.4360
  283MOL0     C38131  10.171   1.190  10.283 -0.2039  0.1395 -0.1154
  283MOL0     C38132  10.149   1.062  10.369  0.9798  0.4007 -1.0359
  283MOL0     C38133  10.238   0.941  10.324 -0.6612  0.1947  0.6639
  283MOL0     C38134  10.219   0.879  10.186  0.6830 -0.0063 -0.5526
  283MOL0     C38135  10.173   0.820  10.092 -0.1776 -0.4775 -0.9678
  283MOL0     C38136   9.913   1.501  10.482  0.0603 -0.3104  0.7646
  283MOL0     C38137   9.889   1.596  10.578 -0.2454 -0.8659 -0.4198
  283MOL0     H38138   9.561   1.824  10.865  2.7491 -2.7027 -0.0796
  283MOL0     H38139   9.491   2.041  10.975 -0.2489 -3.1236  0.0488
  283MOL0     H38140   9.675   2.388  10.939  1.0660 -1.1885 -0.9799
  283MOL0     H38141   9.551   2.277  10.881 -1.2528 -2.3621  1.2200
  283MOL0     H38142   9.528   2.459  11.105  2.0813  2.5673 -3.1438
  283MOL0     H38143   9.457   2.463  10.954  1.3805 -0.3466 -0.6995
  283MOL0     H38144   9.412   2.239  11.159  1.2602 -0.1490  0.9543
  283MOL0     H38145   9.318   2.383  11.160  2.3940 -0.5316  1.8554
  283MOL0     H38146   9.214   2.338  10.935 -2.2760 -0.9371 -0.8766
  283MOL0     H38147   9.320   2.206  10.891  0.3103  1.8810 -1.2071
  283MOL0     H38148   9.203   2.101  11.120 -0.2112  1.2815  1.4009
  283MOL0     H38149   9.114   2.247  11.105 -2.2853 -0.0357 -0.0909
  283MOL0     H38150   9.029   2.183  10.886  1.8037  2.0840  0.9788
  283MOL0     H38151   9.129   2.035  10.888  1.7843  0.1060  1.7940
  283MOL0     H38152   9.022   1.964  11.100 -0.2512  1.2567  0.1253
  283MOL0     H38153   8.924   2.108  11.107 -1.0146  1.1231  0.0781
  283MOL0     H38154   8.826   1.889  11.031  1.7709  0.4483  0.5362
  283MOL0     H38155   8.919   1.916  10.875  0.1869 -0.8652 -0.6023
  283MOL0     H38156   8.650   2.120  11.094 -1.1774 -0.1650  1.1054
  283MOL0     H38157   8.529   2.416  10.916  0.6895 -0.1427 -1.1682
  283MOL0     H38158   8.421   2.296  10.854 -1.9368 -2.1493  1.9418
  283MOL0     H38159   8.466   2.314  11.145  1.1751 -3.7540 -0.0963
  283MOL0     H38160   8.347   2.215  11.060  0.2189 -0.8423 -0.6292
  283MOL0     H38161   8.274   2.438  10.949 -3.5623 -0.5200  0.9036
  283MOL0     H38162   8.346   2.515  11.090 -3.2329  0.2446  3.6028
  283MOL0     H38163   8.190   2.391  11.239  0.0010  0.6938  0.8839
  283MOL0     H38164   8.131   2.315  11.095  1.1854 -0.1294 -0.6692
  283MOL0     H38165   7.907   2.698  11.056 -3.1294  2.7259  2.4045
  283MOL0     H38166   7.826   2.949  11.112 -0.3012 -2.9679 -2.0464
  283MOL0     H38167   7.726   2.814  11.166 -0.0407 -0.6271  0.1374
  283MOL0     H38168   7.771   2.939  11.285  2.0915 -3.1257  3.7533
  283MOL0     H38169   8.176   3.018  11.701 -1.0173 -2.5466  0.7515
  283MOL0     H38170   8.162   3.224  11.857  0.7932 -3.3942  1.1686
  283MOL0     H38171   8.000   3.499  12.036  2.2067  0.4600  1.6122
  283MOL0     H38172   8.097   3.362  11.995 -0.4147 -1.3175 -1.3841
  283MOL0     H38173   8.176   3.468  11.797  0.6641  1.3153 -0.6901
  283MOL0     H38174   8.068   3.611  11.817 -1.1583  0.5526  2.2623
  283MOL0     H38175   8.337   3.613  11.893  0.2101  2.6471  2.5029
  283MOL0     H38176   8.275   3.519  12.028 -0.1029  1.8480  0.6772
  283MOL0     H38177   8.148   3.772  11.956 -1.5095 -1.1256  0.5835
  283MOL0     H38178   8.114   3.679  12.097  0.4910  1.0801  1.7244
  283MOL0     H38179   8.401   3.790  12.032  0.5365 -3.1207 -1.9432
  283MOL0     H38180   8.360   3.702  12.179  1.1168  0.4178  0.2699
  283MOL0     H38181   8.348   3.978  12.193 -0.5093  0.8363 -0.3807
  283MOL0     H38182   8.193   3.956  12.120 -0.5477  1.6053  1.7424
  283MOL0     H38183   8.282   3.794  12.371 -0.4179 -0.4068  1.3912
  283MOL0     H38184   8.120   3.795  12.302  1.0891 -0.9941  0.8944
  283MOL0     H38185   8.122   3.947  12.491 -1.7303  1.8936 -0.2452
  283MOL0     H38186   8.099   4.043  12.356  0.7019  1.5070 -0.5244
  283MOL0     H38187   7.763   3.282  11.733 -0.7305 -2.2291 -1.1327
  283MOL0     H38188   7.774   3.070  11.588  1.4525 -3.1341  0.2960
  283MOL0     H38189   8.199   2.797  11.441  1.6643  2.1006 -1.9285
  283MOL0     H38190   8.252   2.599  11.283 -1.1305 -0.1483 -0.6497
  283MOL0     H38191   9.899   2.161  10.991  0.3054  0.7244 -0.0133
  283MOL0     H38192   9.960   1.944  10.848 -1.0895 -0.3181  0.7398
  283MOL0     H38193   9.934   1.408  10.854  1.6976 -0.6004 -0.0644
  283MOL0     H38194  10.002   1.240  10.687  5.1726  2.4503  1.8506
  283MOL0     H38195  10.000   1.316  10.239  0.7974  2.3653 -0.8436
  283MOL0     H38196  10.116   1.405  10.328 -0.8857  0.3398 -0.6048
  283MOL0     H38197  10.270   1.226  10.313  1.3522 -2.0191 -2.2621
  283MOL0     H38198  10.182   1.176  10.175  2.0350  2.7010 -0.3326
  283MOL0     H38199  10.043   1.036  10.366 -0.2619  4.2775  1.5091
  283MOL0     H38200  10.167   1.080  10.475 -3.6154  1.7552 -0.2306
  283MOL0     H38201  10.216   0.860  10.394 -1.4516 -0.4957 -0.3418
  283MOL0     H38202  10.346   0.958  10.328  0.8443 -5.7941 -1.9713
  283MOL0     H38203  10.124   0.781  10.004  1.1300 -1.0523 -1.4706
  283MOL0     H38204   9.913   1.520  10.375 -1.6947 -3.1184  0.1764
  283MOL0     H38205   9.847   1.692  10.548  1.7102 -0.1118 -0.8741
  284MOL0     O38206   7.451  10.615   6.765  0.0965  0.2492  0.0742
  284MOL0     C38207   7.362  10.695   6.736  0.7848 -0.3416 -0.3889
  284MOL0     O38208   7.235  10.667   6.707  0.2230  0.9700 -0.5431
  284MOL0     C38209   7.191  10.537   6.690  0.2129  1.4830 -0.1425
  284MOL0     C38210   7.076  10.523   6.602  0.4806 -0.2460 -0.3656
  284MOL0     C38211   7.029  10.391   6.574 -0.1921  0.3680  0.0507
  284MOL0     C38212   7.084  10.280   6.639  0.1410  0.9656 -0.2547
  284MOL0     O38213   7.028  10.156   6.639 -0.0604 -0.0616  0.2404
  284MOL0     C38214   6.896  10.133   6.595 -0.7023 -0.6275 -0.1331
  284MOL0     C38215   6.841   9.993   6.640 -0.0255 -0.5314  0.8232
  284MOL0     C38216   6.833   9.973   6.791 -0.9735 -0.2316  0.0962
  284MOL0     C38217   6.727  10.042   6.863 -0.6117 -0.3729  0.5676
  284MOL0     C38218   6.734  10.031   7.014 -0.0966  0.2585 -0.0990
  284MOL0     C38219   6.610  10.101   7.075 -0.0454 -0.9188 -0.1016
  284MOL0     C38220   6.589  10.074   7.231 -0.0810 -0.1418  0.2116
  284MOL0     C38221   6.482  10.178   7.304 -0.4150  0.4204 -0.0649
  284MOL0     N38222   6.417  10.107   7.422 -0.4149  0.3711  0.2882
  284MOL0     C38223   6.284  10.078   7.437  0.8012 -0.4189 -0.5433
  284MOL0     C38224   6.281  10.021   7.561 -0.2272 -0.1727 -0.4127
  284MOL0     C38225   6.162   9.972   7.631  0.2761 -0.1138 -0.9043
  284MOL0     C38226   6.169   9.815   7.678  0.6302  0.2366  0.4401
  284MOL0     C38227   6.249   9.802   7.810  0.0628  0.1936 -0.1760
  284MOL0     C38228   6.282   9.654   7.833  0.1518  0.9787  0.6696
  284MOL0     O38229   6.329   9.621   7.963  0.1728  0.1644  0.5975
  284MOL0     C38230   6.324   9.494   8.010  0.5803  0.8893 -0.7580
  284MOL0     C38231   6.360   9.485   8.140  0.0745 -0.3279  0.1800
  284MOL0     C38232   6.361   9.362   8.211  0.3803 -0.0577  0.0277
  284MOL0     C38233   6.427   9.360   8.348  0.0166  0.6151 -0.2851
  284MOL0     C38234   6.302   9.249   8.151 -0.5213  0.2152  0.6718
  284MOL0     C38235   6.297   9.117   8.216  1.1481 -0.3533  0.1365
  284MOL0     O38236   6.378   9.024   8.178  0.1054  0.0912 -0.2265
  284MOL0     C38237   6.389   8.897   8.227 -0.4766  1.1812 -0.1884
  284MOL0     C38238   6.520   8.844   8.212  0.5848  0.5995 -0.8547
  284MOL0     C38239   6.553   8.714   8.250  0.5645  0.5445  0.2228
  284MOL0     C38240   6.457   8.636   8.320  1.3679 -0.0663  0.1651
  284MOL0     O38241   6.493   8.515   8.357 -0.0744  0.6444  0.7428
  284MOL0     C38242   6.444   8.484   8.488  0.3196 -0.1018 -0.7554
  284MOL0     C38243   6.533   8.365   8.540  0.4124  0.7106  0.4974
  284MOL0     C38244   6.684   8.395   8.528 -0.5850  0.3142 -0.0153
  284MOL0     C38245   6.766   8.268   8.531 -0.9123  0.3334  0.1031
  284MOL0     C38246   6.913   8.319   8.560  0.9484  0.6011  0.5372
  284MOL0     C38247   7.012   8.206   8.546  0.9061 -0.3221 -0.5789
  284MOL0     C38248   7.033   8.166   8.405  0.3306  0.1664  0.2474
  284MOL0     C38249   7.170   8.082   8.393 -0.2120 -0.2693 -0.6963
  284MOL0    Cl38250   7.305   8.195   8.388  0.2180 -0.2820  0.0278
  284MOL0     C38251   6.323   8.693   8.328  0.2041  0.5024 -0.0277
  284MOL0     C38252   6.283   8.820   8.280 -0.1184 -0.0749  0.1398
  284MOL0     O38253   6.193   9.097   8.279  0.8749 -0.0141  0.8336
  284MOL0     C38254   6.254   9.258   8.016 -0.2775  0.2159 -1.0399
  284MOL0     C38255   6.270   9.379   7.949  0.1961  0.0156 -0.5453
  284MOL0     N38256   6.407  10.013   7.623 -0.7132  0.1067 -0.5506
  284MOL0     N38257   6.487  10.068   7.532 -0.3420 -0.3796 -0.1624
  284MOL0     C38258   7.189  10.296   6.732  0.4878 -0.3315  0.6121
  284MOL0     C38259   7.238  10.420   6.762  0.2989 -0.3829  0.8894
  284MOL0     C38260   7.405  10.843   6.710  0.8580  0.4288 -0.0896
  284MOL0     C38261   7.306  10.943   6.715  0.2635 -1.0944  0.1446
  284MOL0     C38262   7.341  11.085   6.702 -0.1645 -0.4316 -0.0330
  284MOL0     C38263   7.481  11.112   6.689 -0.8309 -0.8063  0.1116
  284MOL0     O38264   7.518  11.250   6.677  0.3774  0.2941  0.8204
  284MOL0     C38265   7.655  11.286   6.629 -0.4141 -1.3753 -0.5398
  284MOL0     C38266   7.643  11.407   6.535 -0.4603  0.3073 -0.2695
  284MOL0     C38267   7.754  11.518   6.560  0.0472  0.8110 -0.6972
  284MOL0     C38268   7.887  11.445   6.543 -0.0069 -0.5531 -0.2504
  284MOL0     C38269   8.003  11.535   6.562  0.4236 -0.5380  0.0373
  284MOL0     C38270   8.094  11.614   6.550  0.2440 -0.8049  0.5578
  284MOL0     C38271   7.574  11.014   6.686  0.7399  0.2192  0.1114
  284MOL0     C38272   7.543  10.877   6.703  0.0854 -0.8234  0.3202
  284MOL0     H38273   7.045  10.618   6.560 -2.6356 -0.2051  1.6700
  284MOL0     H38274   6.942  10.370   6.512 -0.0027 -0.3231  0.0081
  284MOL0     H38275   6.827  10.211   6.629 -0.0344  0.9213 -2.1596
  284MOL0     H38276   6.897  10.145   6.487  2.4647  3.4500  0.1229
  284MOL0     H38277   6.737   9.980   6.608 -0.4787  1.7397  1.1941
  284MOL0     H38278   6.896   9.913   6.590 -0.4595  0.3149 -1.1259
  284MOL0     H38279   6.808   9.867   6.804 -0.3798 -0.1239  2.5567
  284MOL0     H38280   6.932  10.000   6.829 -0.7768 -1.3350  0.4124
  284MOL0     H38281   6.726  10.149   6.837 -2.2559 -0.3847  0.4585
  284MOL0     H38282   6.635   9.995   6.827  0.3523 -3.6581  2.0067
  284MOL0     H38283   6.742   9.929   7.051 -0.9054  0.4143  0.5379
  284MOL0     H38284   6.821  10.090   7.044  0.8669 -1.8385  1.5067
  284MOL0     H38285   6.628  10.209   7.066  0.3491 -1.1315 -2.5542
  284MOL0     H38286   6.517  10.076   7.022 -0.6977 -2.0098  1.4994
  284MOL0     H38287   6.547   9.974   7.242  0.6800 -0.7853 -2.0968
  284MOL0     H38288   6.684  10.083   7.284 -0.2063  0.8733  0.2811
  284MOL0     H38289   6.401  10.198   7.234  0.0460  2.3308 -0.0908
  284MOL0     H38290   6.527  10.275   7.326 -0.9094  1.0539 -1.7622
  284MOL0     H38291   6.198  10.094   7.373  0.5695  0.6910  0.0274
  284MOL0     H38292   6.168  10.029   7.724 -2.7125 -1.1985  0.0931
  284MOL0     H38293   6.071   9.992   7.573  0.4464  2.0189 -0.5059
  284MOL0     H38294   6.217   9.760   7.596  2.1832  0.6923  1.0149
  284MOL0     H38295   6.069   9.774   7.697  1.2026 -1.3760  0.1099
  284MOL0     H38296   6.191   9.835   7.897  1.4961 -0.9385  1.2642
  284MOL0     H38297   6.342   9.859   7.810 -0.4722  1.2384  2.2314
  284MOL0     H38298   6.350   9.611   7.759  0.7430 -1.7153  2.6071
  284MOL0     H38299   6.185   9.604   7.821  0.1781  1.5177 -2.8165
  284MOL0     H38300   6.403   9.576   8.183  0.8328 -0.0542 -1.1214
  284MOL0     H38301   6.522   9.305   8.353 -0.3239  0.0602  0.3989
  284MOL0     H38302   6.442   9.460   8.390  2.9512  0.3882 -0.5399
  284MOL0     H38303   6.360   9.309   8.417  1.2207 -2.6545 -1.3180
  284MOL0     H38304   6.603   8.909   8.183  2.0224 -0.2816  1.0858
  284MOL0     H38305   6.646   8.666   8.224 -0.7652  0.1123 -4.6501
  284MOL0     H38306   6.471   8.575   8.543  2.5360 -0.2955 -1.4253
  284MOL0     H38307   6.338   8.460   8.483  0.3775 -0.9222  1.0158
  284MOL0     H38308   6.517   8.324   8.640 -0.4963 -3.7436 -1.2560
  284MOL0     H38309   6.515   8.282   8.471 -0.7863 -0.2623  1.9446
  284MOL0     H38310   6.707   8.462   8.611 -0.4315  0.4474 -0.1656
  284MOL0     H38311   6.725   8.443   8.439  1.2449 -0.9421  0.0786
  284MOL0     H38312   6.731   8.180   8.584  0.9303 -0.0410  0.7852
  284MOL0     H38313   6.762   8.231   8.428 -1.6943  1.5961 -0.3403
  284MOL0     H38314   6.912   8.354   8.663  0.2123  0.3109  0.6307
  284MOL0     H38315   6.939   8.400   8.491  1.2453 -0.1976 -0.3145
  284MOL0     H38316   7.109   8.245   8.578  1.7565 -2.3658 -0.5227
  284MOL0     H38317   6.979   8.121   8.606  0.3461  1.1717  1.3634
  284MOL0     H38318   7.048   8.252   8.339 -0.0718 -0.7603 -1.0970
  284MOL0     H38319   6.949   8.104   8.372  0.1250 -0.4101  1.7793
  284MOL0     H38320   7.175   8.021   8.302  0.1577  0.9046 -1.4844
  284MOL0     H38321   7.189   8.013   8.475 -1.0157 -2.6089 -2.3669
  284MOL0     H38322   6.247   8.627   8.370 -1.8767  2.6860 -0.1359
  284MOL0     H38323   6.180   8.849   8.291 -0.0187  1.0899 -1.6653
  284MOL0     H38324   6.216   9.172   7.962 -0.8876 -0.7557  0.8442
  284MOL0     H38325   6.235   9.386   7.847 -0.1880  1.4267 -0.3250
  284MOL0     H38326   7.227  10.200   6.765  1.9727  0.2105  0.5874
  284MOL0     H38327   7.323  10.424   6.828  0.5699  1.6676  0.4624
  284MOL0     H38328   7.203  10.919   6.738  0.4520 -1.3810  0.6983
  284MOL0     H38329   7.270  11.167   6.700  2.9942  2.5203 -0.0326
  284MOL0     H38330   7.729  11.298   6.707  0.4919 -0.9339 -1.4467
  284MOL0     H38331   7.700  11.208   6.566  2.4181  0.3499 -0.7812
  284MOL0     H38332   7.542  11.446   6.552 -0.7817 -1.8887  4.3471
  284MOL0     H38333   7.640  11.375   6.430 -3.3898 -2.1236  0.3851
  284MOL0     H38334   7.761  11.558   6.662  0.8625  0.9023 -0.7827
  284MOL0     H38335   7.751  11.605   6.494 -0.7471  0.8380 -0.6374
  284MOL0     H38336   7.892  11.384   6.453  0.4186 -1.7537  0.5536
  284MOL0     H38337   7.897  11.362   6.614  2.3949  1.5911  2.1573
  284MOL0     H38338   8.168  11.691   6.552 -0.0024 -0.5847  2.6310
  284MOL0     H38339   7.681  11.027   6.674  1.2814 -3.9503 -1.0368
  284MOL0     H38340   7.622  10.804   6.716 -1.3706 -2.0438  3.4051
  285MOL0     O38341   2.774   8.480   8.139 -0.0669 -0.1024 -0.4896
  285MOL0     C38342   2.663   8.514   8.170 -0.3230  0.1870 -0.6118
  285MOL0     O38343   2.556   8.475   8.099  0.0424 -1.3736 -0.1118
  285MOL0     C38344   2.570   8.411   7.983 -0.8388  0.9480 -0.5346
  285MOL0     C38345   2.578   8.269   7.979 -0.4110 -0.1074  0.1186
  285MOL0     C38346   2.599   8.195   7.861  1.2752 -0.2920 -0.8332
  285MOL0     C38347   2.613   8.264   7.735  0.5272 -0.4376 -0.4014
  285MOL0     O38348   2.633   8.211   7.611 -0.2119  0.4437 -0.1936
  285MOL0     C38349   2.646   8.068   7.607  0.5423 -0.6139 -0.6010
  285MOL0     C38350   2.653   8.025   7.458  0.3850 -0.7840 -0.2584
  285MOL0     C38351   2.719   7.880   7.439 -0.0582  0.0089 -0.3309
  285MOL0     C38352   2.633   7.762   7.480  0.1974  0.3636 -0.2409
  285MOL0     C38353   2.713   7.629   7.456  0.1113 -0.5187  0.7461
  285MOL0     C38354   2.630   7.499   7.454  0.5619  0.1968 -1.0023
  285MOL0     C38355   2.711   7.380   7.398 -0.0179  0.7362 -0.0228
  285MOL0     C38356   2.627   7.264   7.341  0.0669 -0.3317 -0.0319
  285MOL0     N38357   2.723   7.156   7.295  0.9831 -0.5802 -0.2483
  285MOL0     C38358   2.852   7.166   7.253  0.3111  0.7277  0.0041
  285MOL0     C38359   2.892   7.038   7.243  0.5285  0.4327 -0.3512
  285MOL0     C38360   3.032   6.970   7.230 -0.0753 -0.2505 -0.1631
  285MOL0     C38361   3.130   7.022   7.343 -0.2825  0.0040  0.2841
  285MOL0     C38362   3.080   6.968   7.478  0.0887 -0.1226 -0.1461
  285MOL0     C38363   3.124   7.059   7.592 -0.6849 -0.1631  0.3306
  285MOL0     O38364   3.099   6.995   7.710 -0.3273 -0.1875 -0.2484
  285MOL0     C38365   3.133   7.053   7.829  0.7698  0.0006  0.0143
  285MOL0     C38366   3.088   6.975   7.943  0.1036 -0.5933 -0.3413
  285MOL0     C38367   3.069   7.030   8.065 -0.9188 -0.5221 -0.7845
  285MOL0     C38368   2.975   6.961   8.169 -0.3417 -0.1041  0.2548
  285MOL0     C38369   3.140   7.158   8.087  0.2312 -0.2613 -0.0052
  285MOL0     C38370   3.148   7.222   8.224  0.7430 -0.6383  1.2378
  285MOL0     O38371   3.194   7.346   8.222 -0.4320 -0.2553 -0.7691
  285MOL0     C38372   3.206   7.430   8.333  0.4418 -0.4276  1.3327
  285MOL0     C38373   3.266   7.555   8.314  0.0441 -0.9649  0.3004
  285MOL0     C38374   3.247   7.656   8.411 -0.0384  0.1652  0.8940
  285MOL0     C38375   3.206   7.633   8.536 -0.2541 -0.0391  0.2983
  285MOL0     O38376   3.187   7.732   8.633 -0.5182 -0.5363 -0.0779
  285MOL0     C38377   3.061   7.809   8.616 -1.2029 -0.3364 -0.0761
  285MOL0     C38378   3.052   7.930   8.707  0.6903  0.1073 -0.3241
  285MOL0     C38379   2.919   7.995   8.696  0.3217 -0.7988  0.4797
  285MOL0     C38380   2.890   8.089   8.808 -0.2055  0.0169  0.3262
  285MOL0     C38381   2.766   8.191   8.790 -0.0883  0.8906 -0.6663
  285MOL0     C38382   2.788   8.292   8.678 -0.2408  0.5876 -0.1123
  285MOL0     C38383   2.693   8.415   8.690  0.5005 -0.3596 -0.4959
  285MOL0     C38384   2.704   8.484   8.831  0.8585  0.0353 -0.1232
  285MOL0    Cl38385   2.596   8.414   8.948 -0.0029  0.1371 -0.0610
  285MOL0     C38386   3.156   7.504   8.559 -0.0574 -0.0640 -0.2098
  285MOL0     C38387   3.149   7.405   8.457 -0.1293 -0.2511  0.1882
  285MOL0     O38388   3.131   7.152   8.322  0.3746 -0.2847 -0.9516
  285MOL0     C38389   3.208   7.224   7.976  0.4219  0.5910 -0.7666
  285MOL0     C38390   3.195   7.173   7.848 -0.8030  0.3727  0.1881
  285MOL0     N38391   2.779   6.963   7.265  0.1049 -0.1135 -0.3503
  285MOL0     N38392   2.680   7.036   7.307 -0.2026  0.6749  0.4809
  285MOL0     C38393   2.607   8.409   7.743 -1.3117 -0.4911  0.3934
  285MOL0     C38394   2.580   8.481   7.863  0.2791 -0.0086  0.3790
  285MOL0     C38395   2.656   8.587   8.291  1.1872 -1.1051 -0.5467
  285MOL0     C38396   2.772   8.632   8.361  0.0935 -0.5895  0.2520
  285MOL0     C38397   2.756   8.717   8.475  0.4155  1.0226  0.1590
  285MOL0     C38398   2.631   8.760   8.518  0.0398  0.0365  0.9297
  285MOL0     O38399   2.636   8.832   8.634  0.1744  0.0311  0.1853
  285MOL0     C38400   2.530   8.904   8.684  0.4433  0.3880 -0.4775
  285MOL0     C38401   2.542   8.957   8.829 -0.0129 -0.1446 -0.2383
  285MOL0     C38402   2.648   9.067   8.857  0.1062 -0.8905 -0.2903
  285MOL0     C38403   2.614   9.203   8.787  0.4281 -0.9775  0.1146
  285MOL0     C38404   2.623   9.207   8.638 -0.0255  0.7071 -0.1305
  285MOL0     C38405   2.628   9.213   8.516 -0.2118  0.3440  0.3671
  285MOL0     C38406   2.523   8.735   8.439 -0.2279 -0.3933  0.7477
  285MOL0     C38407   2.528   8.646   8.320  0.2574 -0.2084  0.2278
  285MOL0     H38408   2.565   8.211   8.070 -1.3698 -1.7744 -1.0212
  285MOL0     H38409   2.599   8.089   7.880  1.6431 -0.2407 -0.5398
  285MOL0     H38410   2.728   8.041   7.674 -0.9339 -1.2719  1.0041
  285MOL0     H38411   2.555   8.020   7.642  0.1489  1.1594  0.9503
  285MOL0     H38412   2.557   8.032   7.407  0.7028 -3.1883 -1.3104
  285MOL0     H38413   2.713   8.095   7.399  0.4178 -3.3477 -3.5446
  285MOL0     H38414   2.751   7.879   7.334  0.9614  2.7621 -0.1369
  285MOL0     H38415   2.812   7.865   7.495  1.1612  2.1252 -1.6462
  285MOL0     H38416   2.610   7.779   7.586  2.5551  3.2892 -0.1021
  285MOL0     H38417   2.541   7.758   7.421 -1.9282 -0.0191  2.8499
  285MOL0     H38418   2.751   7.637   7.354 -1.6496 -1.1771 -0.0001
  285MOL0     H38419   2.789   7.625   7.534 -0.6133  0.7433  1.5551
  285MOL0     H38420   2.601   7.480   7.558  1.5974 -0.5542 -0.8317
  285MOL0     H38421   2.535   7.512   7.401 -2.6358 -1.1752  3.7475
  285MOL0     H38422   2.791   7.417   7.334  2.2552  0.4489  2.4576
  285MOL0     H38423   2.767   7.336   7.481  1.1072  3.8157  0.9846
  285MOL0     H38424   2.558   7.298   7.264  0.9300  2.9462  0.4957
  285MOL0     H38425   2.564   7.219   7.418 -0.9640 -2.7731 -2.1532
  285MOL0     H38426   2.921   7.250   7.253 -0.1622  1.1513 -1.4420
  285MOL0     H38427   3.018   6.862   7.235  0.0536 -0.3210 -1.1030
  285MOL0     H38428   3.073   6.985   7.129 -1.6951 -0.8084 -0.9315
  285MOL0     H38429   3.128   7.131   7.335 -1.4571 -0.0933 -1.0344
  285MOL0     H38430   3.232   6.997   7.312 -0.5726  0.0865 -0.7781
  285MOL0     H38431   3.108   6.862   7.483 -2.5009 -1.0174 -2.1793
  285MOL0     H38432   2.971   6.966   7.483  0.0972 -1.3117 -0.0241
  285MOL0     H38433   3.061   7.149   7.590 -2.2857 -1.0533  3.5869
  285MOL0     H38434   3.229   7.091   7.589 -0.7018 -0.1477 -0.2542
  285MOL0     H38435   3.053   6.873   7.947  0.3237 -0.6421  0.5196
  285MOL0     H38436   2.908   6.891   8.118 -0.2965  1.1325 -1.6055
  285MOL0     H38437   3.035   6.915   8.248  1.0313  2.5187  0.8416
  285MOL0     H38438   2.911   7.036   8.215 -3.0242 -2.1967  0.1526
  285MOL0     H38439   3.319   7.581   8.224  1.7834  0.8282  1.7445
  285MOL0     H38440   3.266   7.762   8.392 -2.8887  0.2753 -2.3841
  285MOL0     H38441   3.053   7.828   8.509  0.8209 -5.6909 -1.5291
  285MOL0     H38442   2.984   7.732   8.632  0.1647 -1.4036  1.7703
  285MOL0     H38443   3.049   7.896   8.811 -1.6755  2.2994  0.4217
  285MOL0     H38444   3.124   8.012   8.695 -2.9554  3.4464 -1.3306
  285MOL0     H38445   2.841   7.919   8.688 -0.1053 -0.5238  1.7623
  285MOL0     H38446   2.914   8.061   8.609 -3.4825 -1.7624 -0.2164
  285MOL0     H38447   2.874   8.027   8.896  0.7028 -2.2075 -0.9816
  285MOL0     H38448   2.982   8.145   8.827  0.8772 -1.7358  0.4889
  285MOL0     H38449   2.745   8.229   8.890 -0.3988 -0.6903 -0.0933
  285MOL0     H38450   2.679   8.128   8.768  2.0986 -2.8613  0.3818
  285MOL0     H38451   2.888   8.334   8.667 -1.4363  4.7735  2.5375
  285MOL0     H38452   2.772   8.240   8.584  3.1253  0.7834 -0.9244
  285MOL0     H38453   2.592   8.381   8.667  1.4642 -2.1814 -2.4320
  285MOL0     H38454   2.707   8.481   8.604 -0.9039 -0.1909 -0.6116
  285MOL0     H38455   2.659   8.582   8.811 -1.5581 -1.5312 -3.4594
  285MOL0     H38456   2.808   8.488   8.864  0.4091  0.0039  1.3530
  285MOL0     H38457   3.118   7.489   8.660  0.0208 -0.7274 -0.2702
  285MOL0     H38458   3.090   7.315   8.476 -0.4020  0.0350  0.7250
  285MOL0     H38459   3.273   7.309   7.995  1.3633 -0.1791 -0.4953
  285MOL0     H38460   3.219   7.234   7.762 -2.9399  0.8176 -0.1575
  285MOL0     H38461   2.626   8.466   7.653 -1.2962  2.4930  2.1510
  285MOL0     H38462   2.558   8.587   7.872 -1.3119 -0.1051 -1.7104
  285MOL0     H38463   2.875   8.605   8.338 -0.0394 -0.0229 -1.0741
  285MOL0     H38464   2.842   8.737   8.538 -0.5825 -0.1718  2.0038
  285MOL0     H38465   2.499   8.986   8.619 -2.1666  0.4652  0.7569
  285MOL0     H38466   2.448   8.831   8.681  0.8429 -0.0744 -3.0882
  285MOL0     H38467   2.577   8.873   8.889  0.1211 -0.8503 -1.2873
  285MOL0     H38468   2.441   8.986   8.859 -1.2627 -2.5808 -1.7901
  285MOL0     H38469   2.750   9.036   8.837  1.1790 -0.5215  3.7020
  285MOL0     H38470   2.649   9.086   8.965  1.7916  0.2858 -0.4722
  285MOL0     H38471   2.693   9.274   8.811 -0.8618  0.5070  0.1164
  285MOL0     H38472   2.517   9.239   8.823  0.1677 -1.1147 -0.4359
  285MOL0     H38473   2.637   9.213   8.409  2.2255  2.3290  0.4677
  285MOL0     H38474   2.427   8.780   8.460 -0.0835  0.4896 -0.3652
  285MOL0     H38475   2.443   8.653   8.253  0.6852  1.4210 -0.1838
  286MOL0     O38476   8.279   6.032   7.057  0.8031  0.1896  0.3718
  286MOL0     C38477   8.239   6.017   7.173 -0.7452 -0.0586 -0.2484
  286MOL0     O38478   8.186   6.112   7.254  0.2939 -0.7323  0.1945
  286MOL0     C38479   8.171   6.228   7.195 -0.5269 -0.5798 -0.1931
  286MOL0     C38480   8.069   6.267   7.108  0.9030  0.2703 -0.6410
  286MOL0     C38481   8.070   6.390   7.033  0.0813 -0.5592 -0.1381
  286MOL0     C38482   8.177   6.478   7.040  0.4727 -0.6280 -0.1191
  286MOL0     O38483   8.172   6.589   6.969 -0.7989  0.1966  0.6341
  286MOL0     C38484   8.271   6.591   6.865  0.7430 -0.0972 -0.0356
  286MOL0     C38485   8.242   6.704   6.772  0.2409 -0.0557  1.0887
  286MOL0     C38486   8.265   6.841   6.830  0.1986  0.2861 -0.1240
  286MOL0     C38487   8.246   6.952   6.724  0.4427 -0.6906  0.1095
  286MOL0     C38488   8.230   7.093   6.800  0.5040 -1.5049  0.0574
  286MOL0     C38489   8.205   7.217   6.713 -0.2449 -0.2652  0.1851
  286MOL0     C38490   8.307   7.251   6.604 -0.6942 -0.7812 -0.6160
  286MOL0     C38491   8.288   7.187   6.465  0.6831  0.1431  0.7880
  286MOL0     N38492   8.344   7.266   6.357 -0.0035  0.1357 -0.3582
  286MOL0     C38493   8.346   7.222   6.226  0.0218 -0.2054  0.2043
  286MOL0     C38494   8.424   7.319   6.164  0.1820  0.7325 -0.9795
  286MOL0     C38495   8.441   7.353   6.021 -0.1770 -0.3004 -0.2881
  286MOL0     C38496   8.532   7.254   5.934  0.1574  0.3343  0.2222
  286MOL0     C38497   8.679   7.246   5.988  0.0066 -0.7901  0.0695
  286MOL0     C38498   8.761   7.377   5.991 -0.4414  0.9912 -0.7011
  286MOL0     O38499   8.769   7.430   5.858 -0.3986  0.6618 -0.6301
  286MOL0     C38500   8.819   7.554   5.832  0.4036  0.4407  0.7508
  286MOL0     C38501   8.865   7.656   5.918  0.3634  0.2814  0.2799
  286MOL0     C38502   8.920   7.774   5.883 -0.6137 -0.4345  0.7839
  286MOL0     C38503   8.980   7.861   5.992 -0.3721  0.0728  0.2076
  286MOL0     C38504   8.939   7.800   5.743  0.0371 -0.6215 -0.2081
  286MOL0     C38505   8.997   7.919   5.689 -0.3209 -0.1199 -0.2114
  286MOL0     O38506   8.960   8.032   5.750 -0.1861 -0.5076 -0.5383
  286MOL0     C38507   9.024   8.146   5.724 -0.7920  0.0448  0.6330
  286MOL0     C38508   8.964   8.267   5.707 -0.7062  0.0591 -0.3640
  286MOL0     C38509   9.031   8.388   5.696  0.3251 -0.1068  0.6416
  286MOL0     C38510   9.167   8.386   5.678 -0.5582 -0.3134  0.2982
  286MOL0     O38511   9.213   8.518   5.657 -0.0906  1.1785  0.2696
  286MOL0     C38512   9.339   8.554   5.711  0.5460 -0.0518 -1.6104
  286MOL0     C38513   9.380   8.689   5.674 -0.3410 -0.4553 -0.1179
  286MOL0     C38514   9.457   8.679   5.542  0.5572  1.0607 -0.1506
  286MOL0     C38515   9.365   8.619   5.429 -0.3832  0.2494 -0.6018
  286MOL0     C38516   9.394   8.657   5.277 -1.3120 -1.2233 -0.0003
  286MOL0     C38517   9.283   8.591   5.184 -0.1966  0.1532 -0.5681
  286MOL0     C38518   9.157   8.669   5.173 -0.6522 -0.5426 -0.5504
  286MOL0     C38519   9.056   8.617   5.072 -0.0758 -0.5249 -0.1238
  286MOL0    Cl38520   9.116   8.626   4.900 -0.8747  0.3901 -0.2840
  286MOL0     C38521   9.240   8.268   5.712  0.2665 -0.1518 -0.2119
  286MOL0     C38522   9.164   8.151   5.737 -0.4106 -1.7833  0.5768
  286MOL0     O38523   9.044   7.909   5.573 -0.7962 -0.4341 -0.8242
  286MOL0     C38524   8.886   7.705   5.650 -0.5586  0.4320  0.4232
  286MOL0     C38525   8.834   7.581   5.695 -0.3526 -0.5086 -0.9126
  286MOL0     N38526   8.469   7.400   6.272 -0.2383  0.1504  0.2537
  286MOL0     N38527   8.411   7.375   6.380  0.2324  0.2111  0.0029
  286MOL0     C38528   8.285   6.441   7.119  0.1646  0.6717 -0.4357
  286MOL0     C38529   8.280   6.321   7.195  1.1680 -0.5100 -0.0214
  286MOL0     C38530   8.266   5.893   7.235 -0.1855  0.9996 -0.6300
  286MOL0     C38531   8.239   5.858   7.371 -0.4319  0.2807 -0.5791
  286MOL0     C38532   8.277   5.734   7.426  0.3380 -0.0493  0.3909
  286MOL0     C38533   8.353   5.640   7.354 -0.6377 -0.9995 -0.8140
  286MOL0     O38534   8.405   5.521   7.408  0.4141  0.5509 -0.3269
  286MOL0     C38535   8.361   5.490   7.555  0.4567 -0.6548  0.2290
  286MOL0     C38536   8.435   5.365   7.604  0.5694  0.6166  0.0331
  286MOL0     C38537   8.597   5.366   7.599  0.5499  0.7291  0.6486
  286MOL0     C38538   8.650   5.229   7.635  0.3346  0.0819 -0.1458
  286MOL0     C38539   8.603   5.184   7.766 -1.6646 -0.5130 -0.0788
  286MOL0     C38540   8.569   5.146   7.873 -0.0356  0.3439  0.1792
  286MOL0     C38541   8.373   5.674   7.216  0.6903  0.6094  1.3704
  286MOL0     C38542   8.327   5.791   7.162  0.1612 -0.0894  0.6472
  286MOL0     H38543   7.984   6.199   7.098  0.6989  0.6485 -1.6685
  286MOL0     H38544   7.987   6.410   6.967 -1.7255 -1.4119  1.7846
  286MOL0     H38545   8.376   6.586   6.894  0.9572  0.7429 -0.6394
  286MOL0     H38546   8.234   6.510   6.800  2.4613 -1.0792  0.1511
  286MOL0     H38547   8.297   6.680   6.680  0.4004 -3.4087  1.9303
  286MOL0     H38548   8.140   6.692   6.733 -0.3815  2.4357  1.8254
  286MOL0     H38549   8.205   6.863   6.919  0.6363  2.1051 -0.2558
  286MOL0     H38550   8.369   6.854   6.861  0.8795  0.0156 -2.1540
  286MOL0     H38551   8.338   6.976   6.671  0.8222 -1.3549  0.4528
  286MOL0     H38552   8.162   6.941   6.654  0.4315  4.9362 -1.1942
  286MOL0     H38553   8.145   7.085   6.868  0.6660 -0.0159  0.4729
  286MOL0     H38554   8.325   7.113   6.850  0.3371  2.3204 -0.8235
  286MOL0     H38555   8.107   7.218   6.664  0.6259  4.0236 -1.9324
  286MOL0     H38556   8.208   7.299   6.785 -3.0826 -0.7663  0.9984
  286MOL0     H38557   8.321   7.359   6.607  2.4465 -1.1248 -0.2476
  286MOL0     H38558   8.407   7.221   6.637  0.5761  2.8263 -0.7500
  286MOL0     H38559   8.183   7.170   6.438  0.8852  0.1724 -0.0616
  286MOL0     H38560   8.327   7.085   6.464 -0.9441 -0.5413 -1.5194
  286MOL0     H38561   8.304   7.141   6.168  2.0942 -1.1843 -0.0314
  286MOL0     H38562   8.342   7.342   5.975 -1.1760  1.3111  1.3573
  286MOL0     H38563   8.478   7.456   6.015  0.9403 -0.7329 -1.3656
  286MOL0     H38564   8.527   7.273   5.826 -1.3252  3.7791  0.7700
  286MOL0     H38565   8.487   7.157   5.957  2.1707 -0.2460  2.0618
  286MOL0     H38566   8.722   7.187   5.907  0.0004  2.9378 -2.9198
  286MOL0     H38567   8.693   7.188   6.080  0.1144 -1.7676 -0.5528
  286MOL0     H38568   8.860   7.356   6.033 -0.8089  1.6297  0.5475
  286MOL0     H38569   8.721   7.448   6.064 -0.8133 -0.7144  0.7981
  286MOL0     H38570   8.853   7.629   6.023  0.5803  2.6674  0.9796
  286MOL0     H38571   9.023   7.956   5.958  0.5692 -0.4437 -0.1023
  286MOL0     H38572   8.910   7.890   6.070  2.3508  4.4884  1.3570
  286MOL0     H38573   9.059   7.807   6.046  1.4047 -1.5614 -3.6076
  286MOL0     H38574   8.857   8.267   5.688 -1.4822  0.1433  3.2254
  286MOL0     H38575   8.968   8.473   5.673  1.6189  0.8057  0.3547
  286MOL0     H38576   9.327   8.549   5.819 -1.7560 -3.1853 -1.8860
  286MOL0     H38577   9.420   8.484   5.686 -0.0029 -0.7203 -1.5377
  286MOL0     H38578   9.287   8.747   5.667 -0.1022 -0.2610 -2.2017
  286MOL0     H38579   9.450   8.734   5.746 -2.1987  4.0986 -0.8280
  286MOL0     H38580   9.541   8.609   5.539 -2.8178 -3.4417 -1.6930
  286MOL0     H38581   9.493   8.778   5.513  0.8361  0.7811 -0.7707
  286MOL0     H38582   9.367   8.509   5.434  0.3533  0.2062 -1.6528
  286MOL0     H38583   9.260   8.636   5.453 -0.0157  3.4739 -0.9661
  286MOL0     H38584   9.488   8.628   5.229 -1.9449 -0.5119 -1.7359
  286MOL0     H38585   9.393   8.766   5.273 -2.2644 -1.0802  2.2251
  286MOL0     H38586   9.330   8.577   5.086  2.2570  0.7595  0.4460
  286MOL0     H38587   9.270   8.487   5.215  0.2346  0.9010  2.3916
  286MOL0     H38588   9.180   8.772   5.143 -5.2740  1.7634  2.5087
  286MOL0     H38589   9.109   8.664   5.272 -1.2716  0.4622 -0.7879
  286MOL0     H38590   8.972   8.687   5.069 -1.6638 -2.2549  1.1663
  286MOL0     H38591   9.031   8.513   5.095 -1.9111  0.4648  2.9176
  286MOL0     H38592   9.347   8.253   5.721 -0.1422 -3.0235  0.6452
  286MOL0     H38593   9.223   8.065   5.766  4.3316  0.9560  0.1155
  286MOL0     H38594   8.895   7.729   5.545  0.6560  1.5278  0.7490
  286MOL0     H38595   8.820   7.507   5.617 -1.2440 -0.3217 -0.9360
  286MOL0     H38596   8.375   6.501   7.129  0.3275  0.2593  0.8110
  286MOL0     H38597   8.372   6.299   7.248  1.6959 -0.0476 -0.7233
  286MOL0     H38598   8.182   5.931   7.428 -0.2864  0.2432 -0.3863
  286MOL0     H38599   8.255   5.716   7.531 -1.3048  2.1924  0.5018
  286MOL0     H38600   8.396   5.564   7.627  0.2333 -1.9186  1.7135
  286MOL0     H38601   8.252   5.482   7.558  0.3869  0.3478  0.7839
  286MOL0     H38602   8.389   5.280   7.555 -4.2748  3.6678 -1.4185
  286MOL0     H38603   8.419   5.350   7.711 -0.4208 -0.7664 -0.2891
  286MOL0     H38604   8.641   5.446   7.660 -0.0546  2.0540 -0.6084
  286MOL0     H38605   8.614   5.388   7.494  0.7853 -0.6557  0.3828
  286MOL0     H38606   8.759   5.235   7.628  0.4281 -0.9252  0.3377
  286MOL0     H38607   8.625   5.163   7.552 -0.6516  1.0609 -0.6566
  286MOL0     H38608   8.553   5.100   7.968 -2.4788 -1.1143 -0.8358
  286MOL0     H38609   8.428   5.600   7.159 -1.6647 -1.9954  2.1957
  286MOL0     H38610   8.341   5.796   7.054  0.5678 -0.9160  0.6612
  287MOL0     O38611  10.391   9.203   8.266  0.4560  0.2748  1.6143
  287MOL0     C38612  10.295   9.121   8.263  0.2653  0.3680 -0.4153
  287MOL0     O38613  10.195   9.115   8.177  0.6053  0.3846 -0.1532
  287MOL0     C38614  10.200   9.181   8.060  0.1333 -0.2375 -1.3549
  287MOL0     C38615  10.322   9.183   7.986 -0.0130  0.3980 -0.5676
  287MOL0     C38616  10.329   9.241   7.867  0.5856 -0.2371  0.6137
  287MOL0     C38617  10.218   9.299   7.810  1.0326  0.6640 -0.3366
  287MOL0     O38618  10.241   9.374   7.699  0.1102 -0.2014  0.3890
  287MOL0     C38619  10.127   9.444   7.625 -0.6093  0.1095 -0.5944
  287MOL0     C38620  10.103   9.582   7.694  0.3068 -0.3035  1.2739
  287MOL0     C38621   9.985   9.662   7.624  0.8331 -0.0536 -0.3778
  287MOL0     C38622   9.859   9.635   7.704  0.0314  0.0502 -0.0750
  287MOL0     C38623   9.734   9.665   7.625  0.0555  0.2488  0.3684
  287MOL0     C38624   9.618   9.607   7.708 -0.0091 -0.4917  0.7169
  287MOL0     C38625   9.474   9.610   7.647 -0.2795 -0.3184 -0.5593
  287MOL0     C38626   9.373   9.580   7.757 -0.0547 -0.4035 -0.6015
  287MOL0     N38627   9.246   9.576   7.694  0.0879  0.1625 -0.0710
  287MOL0     C38628   9.195   9.461   7.649 -0.1818  0.5338  0.6143
  287MOL0     C38629   9.068   9.494   7.649  0.0446 -0.1784  0.7575
  287MOL0     C38630   8.962   9.402   7.604 -0.1255 -0.2529 -1.5165
  287MOL0     C38631   8.963   9.360   7.459 -0.0357  0.3075  1.0614
  287MOL0     C38632   9.004   9.476   7.363  0.6911 -0.2832  1.9406
  287MOL0     C38633   8.998   9.427   7.217  0.4556 -0.2125 -0.6390
  287MOL0     O38634   9.050   9.529   7.128 -1.0136 -0.9527  0.1346
  287MOL0     C38635   9.053   9.520   6.991 -0.9556  1.5799 -0.4916
  287MOL0     C38636   9.098   9.619   6.904  0.1784  0.6326  0.7060
  287MOL0     C38637   9.100   9.600   6.763 -0.1486 -0.1532  0.1391
  287MOL0     C38638   9.159   9.714   6.681 -0.9661  0.0167  0.0372
  287MOL0     C38639   9.052   9.473   6.710 -0.0031  0.0343 -0.1177
  287MOL0     C38640   9.068   9.443   6.559 -0.1769 -0.0906  1.0241
  287MOL0     O38641   9.040   9.310   6.518 -0.8235 -0.0463 -0.0043
  287MOL0     C38642   9.035   9.283   6.388  0.7720  0.2363 -0.3812
  287MOL0     C38643   9.101   9.170   6.350 -0.2653 -0.5430  0.0957
  287MOL0     C38644   9.089   9.135   6.212 -0.0410 -1.1282  0.2668
  287MOL0     C38645   9.028   9.214   6.109 -0.0269  0.6887 -0.7461
  287MOL0     O38646   9.032   9.157   5.986  0.3922 -0.6687 -0.1961
  287MOL0     C38647   8.975   9.228   5.877  0.3865  0.1445 -0.0033
  287MOL0     C38648   8.993   9.134   5.750  0.4773  0.1086 -0.3131
  287MOL0     C38649   8.912   9.167   5.629 -0.1318 -0.3772  0.5038
  287MOL0     C38650   8.955   9.299   5.560  0.1488  0.5122 -0.4997
  287MOL0     C38651   8.838   9.370   5.489 -0.4004  1.1952  0.5094
  287MOL0     C38652   8.868   9.506   5.437 -0.8144 -1.2242 -0.7884
  287MOL0     C38653   8.956   9.503   5.303 -0.8096  0.4254 -0.2731
  287MOL0     C38654   8.996   9.637   5.240  0.0139 -0.7594  1.1436
  287MOL0    Cl38655   9.052   9.763   5.359  0.1783 -0.0373  0.0732
  287MOL0     C38656   8.970   9.332   6.151 -0.2569 -0.1725  0.8807
  287MOL0     C38657   8.979   9.365   6.287  1.3380  0.2086 -0.1977
  287MOL0     O38658   9.129   9.519   6.489 -0.2753  0.1338 -0.7310
  287MOL0     C38659   8.989   9.384   6.800 -0.2798  0.6532  0.2615
  287MOL0     C38660   8.988   9.411   6.934  0.4055 -0.5871  0.5684
  287MOL0     N38661   9.040   9.616   7.700 -0.1884  0.2834 -1.3577
  287MOL0     N38662   9.154   9.663   7.729 -0.1299 -0.6393 -0.1256
  287MOL0     C38663  10.101   9.299   7.883  0.3917 -0.3726  0.7172
  287MOL0     C38664  10.093   9.242   8.005  0.4595  0.3569  0.2284
  287MOL0     C38665  10.295   9.018   8.380  0.2367 -0.2811  0.0060
  287MOL0     C38666  10.401   9.019   8.472  1.4129  0.1691  0.6040
  287MOL0     C38667  10.406   8.934   8.583 -0.8572 -0.0364 -0.2024
  287MOL0     C38668  10.299   8.854   8.618 -0.0607 -0.4185  0.4511
  287MOL0     O38669  10.315   8.789   8.738 -0.0534  0.5202 -0.6363
  287MOL0     C38670  10.222   8.684   8.771  0.8485  0.4269 -0.5288
  287MOL0     C38671  10.105   8.752   8.846  0.4606 -0.2471  0.2152
  287MOL0     C38672   9.981   8.663   8.871  0.3067  0.1744 -0.3377
  287MOL0     C38673   9.890   8.669   8.751  0.5994 -0.3498 -0.0972
  287MOL0     C38674   9.745   8.661   8.785  0.0465  0.5858  0.0533
  287MOL0     C38675   9.625   8.653   8.808 -0.1886  0.5449 -0.7529
  287MOL0     C38676  10.187   8.851   8.526  0.9331 -0.3721  0.2443
  287MOL0     C38677  10.187   8.934   8.413 -0.3227  0.4974  1.2892
  287MOL0     H38678  10.409   9.136   8.030 -0.5408  0.7031  0.8629
  287MOL0     H38679  10.417   9.251   7.805 -0.5026 -0.8492 -1.0856
  287MOL0     H38680  10.155   9.462   7.520 -0.4891 -0.6782 -0.7000
  287MOL0     H38681  10.034   9.388   7.627 -0.3884 -0.2409  0.9626
  287MOL0     H38682  10.099   9.564   7.802  1.5744 -4.5131  0.7825
  287MOL0     H38683  10.190   9.644   7.671  1.1070 -0.6940  3.0725
  287MOL0     H38684  10.007   9.769   7.632  1.8542 -0.2799  0.0112
  287MOL0     H38685   9.966   9.637   7.520  0.2085  0.2551 -0.3453
  287MOL0     H38686   9.852   9.529   7.729 -0.1983  0.1525  0.3055
  287MOL0     H38687   9.862   9.700   7.792  0.9346 -0.1095  0.0232
  287MOL0     H38688   9.714   9.771   7.608 -7.1817 -0.9234 -1.9373
  287MOL0     H38689   9.737   9.626   7.523 -1.4767  0.0754  0.3725
  287MOL0     H38690   9.632   9.500   7.723 -2.0766 -1.3354 -2.2436
  287MOL0     H38691   9.611   9.672   7.796 -2.2387  0.4540 -0.0823
  287MOL0     H38692   9.436   9.704   7.606 -3.7092 -1.7799 -1.1077
  287MOL0     H38693   9.468   9.537   7.566 -0.2786  0.7860 -1.5809
  287MOL0     H38694   9.385   9.651   7.840 -5.3983  0.4872 -0.2516
  287MOL0     H38695   9.394   9.480   7.797 -2.2396 -0.3796  0.7303
  287MOL0     H38696   9.248   9.368   7.629 -1.7803 -0.6033  1.3905
  287MOL0     H38697   8.954   9.307   7.656 -3.7896 -1.8552 -4.5470
  287MOL0     H38698   8.872   9.460   7.628 -0.2802 -0.9681 -0.2713
  287MOL0     H38699   8.864   9.322   7.433 -0.0550 -0.4338  2.1608
  287MOL0     H38700   9.035   9.282   7.432  3.0169  3.8300 -2.3564
  287MOL0     H38701   9.109   9.497   7.381  1.5252 -0.4441 -1.9290
  287MOL0     H38702   8.946   9.567   7.384  2.0733  1.2719 -0.5849
  287MOL0     H38703   8.893   9.403   7.199 -0.3920  2.0916  0.7638
  287MOL0     H38704   9.054   9.334   7.199  2.9758  1.2906 -1.0960
  287MOL0     H38705   9.136   9.713   6.945 -0.0660 -0.0931  2.6935
  287MOL0     H38706   9.099   9.734   6.592 -0.0324  0.5351 -0.4818
  287MOL0     H38707   9.159   9.805   6.743  1.1546 -1.1872  1.9240
  287MOL0     H38708   9.257   9.689   6.642 -1.1152 -2.3274  1.0467
  287MOL0     H38709   9.153   9.114   6.426  0.1115  1.0645  1.0788
  287MOL0     H38710   9.130   9.036   6.193  0.7533 -0.9634  1.0607
  287MOL0     H38711   8.868   9.245   5.890  0.3316  0.9474 -1.3629
  287MOL0     H38712   9.028   9.322   5.862  1.8459 -0.8987 -1.7730
  287MOL0     H38713   9.100   9.136   5.727  0.3169 -1.8518 -1.4445
  287MOL0     H38714   8.983   9.029   5.779 -1.6999  0.7009  1.2866
  287MOL0     H38715   8.806   9.183   5.651 -0.0296  0.5427  0.4046
  287MOL0     H38716   8.916   9.094   5.548  2.1362 -0.4910  0.6441
  287MOL0     H38717   8.990   9.369   5.637 -1.0390 -0.6183  1.1216
  287MOL0     H38718   9.038   9.291   5.489 -0.2472 -0.8592 -0.8340
  287MOL0     H38719   8.756   9.370   5.562 -1.7581 -0.7030 -0.9070
  287MOL0     H38720   8.812   9.306   5.404  0.2065  1.9887 -0.2932
  287MOL0     H38721   8.774   9.549   5.403 -0.5111 -1.1447 -1.5635
  287MOL0     H38722   8.906   9.561   5.523 -0.2904 -2.4419 -0.2040
  287MOL0     H38723   8.900   9.440   5.234 -2.0270  0.2479  0.8401
  287MOL0     H38724   9.053   9.453   5.310 -0.9326  0.0870 -0.8936
  287MOL0     H38725   8.911   9.690   5.196  1.0011 -0.5490 -0.6187
  287MOL0     H38726   9.068   9.621   5.159 -1.2379  0.0744 -0.1855
  287MOL0     H38727   8.919   9.393   6.076 -3.9175 -3.6544  0.1289
  287MOL0     H38728   8.945   9.467   6.303  2.0578  0.8272 -2.2041
  287MOL0     H38729   8.944   9.296   6.755  0.7064  1.2531 -2.0535
  287MOL0     H38730   8.927   9.336   6.984  0.3806 -2.8105 -2.4606
  287MOL0     H38731  10.018   9.343   7.828  2.8293  0.6330 -2.5069
  287MOL0     H38732   9.999   9.243   8.059 -0.0056  0.0294 -0.5527
  287MOL0     H38733  10.485   9.087   8.458  0.8576  0.3804 -2.4378
  287MOL0     H38734  10.494   8.944   8.646  1.2067 -1.8502 -2.5511
  287MOL0     H38735  10.184   8.622   8.690 -0.2017  0.0035  0.2673
  287MOL0     H38736  10.266   8.614   8.843 -0.0317 -0.7953 -1.1408
  287MOL0     H38737  10.077   8.850   8.806 -1.0632 -0.3657  0.9278
  287MOL0     H38738  10.142   8.783   8.944  0.1798 -1.6865  0.7961
  287MOL0     H38739   9.930   8.708   8.957  1.4298  3.0442 -1.0474
  287MOL0     H38740  10.008   8.560   8.894 -2.2205 -1.0601 -2.3825
  287MOL0     H38741   9.904   8.589   8.677 -1.2656 -0.3811 -0.4803
  287MOL0     H38742   9.906   8.764   8.701  3.2947  0.2494  1.6931
  287MOL0     H38743   9.520   8.663   8.828 -0.1237 -1.7265  1.1828
  287MOL0     H38744  10.112   8.778   8.556  1.8741 -1.2921  0.4520
  287MOL0     H38745  10.109   8.929   8.339  0.7268 -3.1701  0.2193
  288MOL0     O38746   6.329   1.981   4.787 -0.2938  0.4246  0.4577
  288MOL0     C38747   6.305   1.945   4.901 -0.1780  0.7019  0.4923
  288MOL0     O38748   6.202   1.976   4.972 -0.5143 -1.2076 -1.1607
  288MOL0     C38749   6.098   2.053   4.915  0.1741 -0.5343  0.4593
  288MOL0     C38750   6.051   2.053   4.780  0.4619 -0.2859 -0.8088
  288MOL0     C38751   5.951   2.144   4.748 -0.5136 -0.0712  0.3632
  288MOL0     C38752   5.900   2.233   4.843  0.6521  0.5809  0.6598
  288MOL0     O38753   5.809   2.337   4.827  0.0905  0.0997 -0.0993
  288MOL0     C38754   5.696   2.322   4.736  0.4325  0.0875 -0.8199
  288MOL0     C38755   5.613   2.464   4.710 -0.0631 -0.3730  0.4918
  288MOL0     C38756   5.457   2.457   4.674  0.1137 -0.2786  0.0175
  288MOL0     C38757   5.409   2.564   4.571 -0.0549 -0.4021 -0.1526
  288MOL0     C38758   5.255   2.555   4.549  0.9094  0.4001  0.7663
  288MOL0     C38759   5.205   2.449   4.449  1.1704 -0.3486 -0.0407
  288MOL0     C38760   5.045   2.457   4.433  0.2511 -0.0331  0.9201
  288MOL0     C38761   4.997   2.331   4.351  0.3026  0.1885  0.1404
  288MOL0     N38762   4.848   2.346   4.330 -0.7249 -0.1460 -0.2717
  288MOL0     C38763   4.758   2.256   4.369  0.8253 -0.2626  0.2606
  288MOL0     C38764   4.638   2.295   4.315 -0.1144  0.3947 -0.4552
  288MOL0     C38765   4.514   2.223   4.351  0.2472  0.4759  0.3484
  288MOL0     C38766   4.413   2.239   4.230 -0.6732  0.3029  0.2564
  288MOL0     C38767   4.270   2.178   4.256  0.0875  0.0678  0.3492
  288MOL0     C38768   4.283   2.032   4.286 -0.9899  0.4222 -0.3633
  288MOL0     O38769   4.155   1.963   4.314 -0.0674 -0.5067 -0.0861
  288MOL0     C38770   4.114   1.867   4.226  0.8185  0.9396  0.1149
  288MOL0     C38771   4.139   1.868   4.090  0.2913  0.1624  0.3788
  288MOL0     C38772   4.103   1.761   4.004 -0.6598  1.1863 -0.6703
  288MOL0     C38773   4.134   1.777   3.865 -0.5290  0.4852 -0.4756
  288MOL0     C38774   4.047   1.641   4.062 -0.4388  0.8995 -1.0517
  288MOL0     C38775   4.014   1.528   3.978 -0.7403 -0.4655 -0.1205
  288MOL0     O38776   4.048   1.408   4.037  0.2843  1.1609 -0.0773
  288MOL0     C38777   4.005   1.294   3.972 -0.0402 -1.3213  0.7843
  288MOL0     C38778   3.876   1.246   4.008  0.5908 -0.0157 -0.4416
  288MOL0     C38779   3.829   1.135   3.938  1.1090  0.7295 -0.9084
  288MOL0     C38780   3.905   1.063   3.843 -1.0012 -0.8431  0.1616
  288MOL0     O38781   3.866   0.937   3.797  0.5966  0.3224 -0.5410
  288MOL0     C38782   3.784   0.857   3.885 -0.2295 -0.5388  0.2316
  288MOL0     C38783   3.795   0.712   3.841 -0.5239  0.4971 -0.1627
  288MOL0     C38784   3.690   0.607   3.899  0.2964  0.1713  0.3216
  288MOL0     C38785   3.621   0.546   3.780  0.1600 -0.5650 -0.7048
  288MOL0     C38786   3.492   0.468   3.824 -0.4556  0.1935 -0.0710
  288MOL0     C38787   3.427   0.388   3.709  0.9715  0.2593 -0.6596
  288MOL0     C38788   3.508   0.265   3.674 -0.0867 -0.6108  0.0672
  288MOL0     C38789   3.450   0.196   3.551  0.1096 -0.8743  0.0714
  288MOL0    Cl38790   3.474   0.312   3.412  0.3418 -0.3239 -0.1647
  288MOL0     C38791   4.032   1.109   3.809  0.5638  0.5386 -0.0927
  288MOL0     C38792   4.085   1.227   3.872 -0.8348  0.2366 -0.5552
  288MOL0     O38793   3.951   1.554   3.870  0.7646  0.1792  0.7618
  288MOL0     C38794   4.022   1.639   4.200 -0.2715  0.1244  0.2147
  288MOL0     C38795   4.053   1.752   4.277  0.1249  0.2560 -0.1353
  288MOL0     N38796   4.671   2.398   4.221  0.2267  0.2034 -0.2302
  288MOL0     N38797   4.798   2.416   4.225 -0.8064  0.1070 -1.0788
  288MOL0     C38798   5.948   2.235   4.970 -0.2421 -0.0640  0.0690
  288MOL0     C38799   6.037   2.137   5.010  0.0119 -0.3416  0.6017
  288MOL0     C38800   6.397   1.857   4.972 -0.0892  0.1631 -0.2577
  288MOL0     C38801   6.404   1.863   5.118 -1.0266 -0.2275  1.5349
  288MOL0     C38802   6.488   1.778   5.186  0.8088 -0.1257 -0.7062
  288MOL0     C38803   6.572   1.696   5.117  0.0355  0.1916 -0.1866
  288MOL0     O38804   6.660   1.600   5.169  0.6108 -0.3540  0.0053
  288MOL0     C38805   6.662   1.576   5.310 -0.5226 -0.3932 -0.9472
  288MOL0     C38806   6.723   1.434   5.339  0.8606 -0.1388  1.0470
  288MOL0     C38807   6.731   1.414   5.493 -0.9373  0.2579  0.2792
  288MOL0     C38808   6.746   1.272   5.552  0.9999  0.2601 -0.2666
  288MOL0     C38809   6.884   1.219   5.520  1.0902  0.2426 -0.3920
  288MOL0     C38810   7.000   1.190   5.503  0.2497 -0.8165 -0.6099
  288MOL0     C38811   6.572   1.696   4.976 -0.3662  0.5411 -0.0079
  288MOL0     C38812   6.478   1.773   4.904 -0.5922 -0.7588  0.0422
  288MOL0     H38813   6.093   1.981   4.710  2.0388  0.8729 -1.1067
  288MOL0     H38814   5.898   2.127   4.655 -1.7247 -1.2055  1.2180
  288MOL0     H38815   5.713   2.281   4.636  0.3338 -0.3057 -0.6775
  288MOL0     H38816   5.624   2.259   4.788 -1.1967  2.3566 -0.1397
  288MOL0     H38817   5.623   2.520   4.804  1.5620  1.4041 -0.6704
  288MOL0     H38818   5.674   2.518   4.637  2.6705 -2.1108  1.3594
  288MOL0     H38819   5.446   2.356   4.633  0.1075 -2.0687  3.9372
  288MOL0     H38820   5.402   2.460   4.769 -3.5369  2.9766 -1.9286
  288MOL0     H38821   5.436   2.657   4.621 -1.1847  0.4736 -1.1250
  288MOL0     H38822   5.469   2.569   4.479 -2.2329  3.0792 -1.5803
  288MOL0     H38823   5.215   2.550   4.651  1.7394 -1.8713  1.0373
  288MOL0     H38824   5.224   2.656   4.521 -0.2153  0.5952  2.5360
  288MOL0     H38825   5.257   2.458   4.353 -0.9463  0.1251 -1.1921
  288MOL0     H38826   5.212   2.349   4.494 -1.8164 -0.4864  0.3014
  288MOL0     H38827   5.005   2.463   4.534 -0.7861 -1.1849  0.6018
  288MOL0     H38828   5.012   2.548   4.381 -1.6337 -1.4342 -0.4779
  288MOL0     H38829   5.008   2.236   4.404  0.4382 -0.6404 -1.3076
  288MOL0     H38830   5.041   2.325   4.251 -2.2461 -2.8862 -0.9584
  288MOL0     H38831   4.771   2.176   4.442 -2.2222 -1.3409 -0.2484
  288MOL0     H38832   4.530   2.115   4.363 -1.5462  0.3547  2.2049
  288MOL0     H38833   4.467   2.265   4.440 -1.0278 -0.9333  0.3710
  288MOL0     H38834   4.453   2.195   4.138  0.5498  2.7997 -0.4845
  288MOL0     H38835   4.399   2.344   4.202 -1.5028  0.4175  1.0499
  288MOL0     H38836   4.201   2.187   4.171  1.8862 -0.3220 -1.2298
  288MOL0     H38837   4.211   2.231   4.331 -2.7894  0.7014 -2.1908
  288MOL0     H38838   4.346   2.018   4.374 -1.1361  1.5220 -0.0666
  288MOL0     H38839   4.331   1.976   4.206  1.0230  2.0318 -0.3624
  288MOL0     H38840   4.190   1.950   4.040  4.7637 -2.0837  0.7220
  288MOL0     H38841   4.163   1.678   3.829  1.6415  0.5600  0.8553
  288MOL0     H38842   4.050   1.820   3.810 -0.7080  1.2016  0.3341
  288MOL0     H38843   4.217   1.848   3.852 -0.8925  0.9169 -0.4719
  288MOL0     H38844   3.823   1.307   4.080 -2.3215  1.8724 -3.8680
  288MOL0     H38845   3.731   1.108   3.975  2.3341  1.6161  3.5670
  288MOL0     H38846   3.809   0.843   3.991  0.0905 -4.6151 -0.2386
  288MOL0     H38847   3.676   0.873   3.872 -0.8497 -4.5408 -0.8704
  288MOL0     H38848   3.803   0.705   3.732  1.2341 -0.2680 -0.0116
  288MOL0     H38849   3.893   0.680   3.877 -0.8705  2.3792  2.8427
  288MOL0     H38850   3.628   0.650   3.979 -0.4452 -3.2264  1.7311
  288MOL0     H38851   3.744   0.533   3.958  1.9117  1.0196 -0.0300
  288MOL0     H38852   3.589   0.631   3.719 -0.8615  0.8897  1.7138
  288MOL0     H38853   3.689   0.484   3.722 -0.8038 -0.7814 -1.6333
  288MOL0     H38854   3.418   0.530   3.875 -1.5985 -2.4917  1.7776
  288MOL0     H38855   3.524   0.390   3.893 -0.6280 -0.6317 -0.8996
  288MOL0     H38856   3.322   0.366   3.728  1.2610  0.3006  1.1842
  288MOL0     H38857   3.431   0.463   3.630  3.3209  3.6947  2.3588
  288MOL0     H38858   3.474   0.196   3.751 -3.2363 -1.2153 -1.7124
  288MOL0     H38859   3.616   0.281   3.667 -0.1863 -0.6598 -2.6847
  288MOL0     H38860   3.342   0.203   3.566  0.1038  0.7166 -0.5662
  288MOL0     H38861   3.487   0.095   3.529 -4.9509 -3.0217  0.1026
  288MOL0     H38862   4.092   1.055   3.735  1.7642  3.3901 -1.3862
  288MOL0     H38863   4.187   1.259   3.854 -0.8822  1.1484  0.6750
  288MOL0     H38864   3.974   1.554   4.247 -0.5925  0.5994  0.7645
  288MOL0     H38865   4.045   1.749   4.385  3.4274  0.2800  0.2023
  288MOL0     H38866   5.908   2.311   5.036 -1.4055 -0.1545 -0.5075
  288MOL0     H38867   6.072   2.142   5.112 -1.1024 -0.1930  0.9858
  288MOL0     H38868   6.344   1.936   5.173 -1.4162  2.1506 -1.7550
  288MOL0     H38869   6.475   1.789   5.293 -2.1087  0.2031 -1.0075
  288MOL0     H38870   6.730   1.650   5.352  0.4192 -3.1333  2.9619
  288MOL0     H38871   6.561   1.599   5.346  0.1506  0.9981  0.0973
  288MOL0     H38872   6.830   1.424   5.318  1.1298 -1.0096  2.6758
  288MOL0     H38873   6.674   1.363   5.273 -0.0416  1.2294  0.1966
  288MOL0     H38874   6.635   1.454   5.525 -0.2939  0.6596  1.8096
  288MOL0     H38875   6.809   1.479   5.535  2.2849 -2.0384 -1.6845
  288MOL0     H38876   6.676   1.201   5.506  0.6434  0.5756 -0.2163
  288MOL0     H38877   6.733   1.270   5.660 -1.2242 -0.3635 -0.4881
  288MOL0     H38878   7.106   1.177   5.497  1.0982  1.5288  4.3206
  288MOL0     H38879   6.647   1.635   4.927 -1.3892 -3.4394  2.8464
  288MOL0     H38880   6.482   1.765   4.796  1.3838 -2.3206  0.1855
  289MOL0     O38881   2.550   4.940   8.816 -0.1211 -0.2111 -0.1336
  289MOL0     C38882   2.499   4.907   8.706 -0.4220 -0.5726 -0.8335
  289MOL0     O38883   2.495   4.784   8.664 -0.5314 -0.2816 -0.1255
  289MOL0     C38884   2.522   4.688   8.747 -0.8555 -1.2018 -0.0494
  289MOL0     C38885   2.448   4.661   8.863  0.1675  0.1004  0.5572
  289MOL0     C38886   2.486   4.547   8.934 -0.5628  0.2224 -0.1986
  289MOL0     C38887   2.605   4.468   8.900  0.5242 -0.1739  0.2528
  289MOL0     O38888   2.648   4.361   8.972 -0.3609  0.5125 -0.4129
  289MOL0     C38889   2.565   4.300   9.079  0.4569  0.7939 -0.7874
  289MOL0     C38890   2.637   4.203   9.178  0.6615 -0.6096 -0.1249
  289MOL0     C38891   2.737   4.117   9.115 -0.6081  0.1180 -1.1993
  289MOL0     C38892   2.787   4.011   9.215 -0.0429  0.1592  0.7138
  289MOL0     C38893   2.879   3.900   9.156  0.4327 -0.6679 -0.7411
  289MOL0     C38894   2.816   3.809   9.045 -0.2656  0.2216 -0.5117
  289MOL0     C38895   2.710   3.710   9.090 -0.1918 -0.6648 -0.1333
  289MOL0     C38896   2.714   3.643   9.219 -0.1430 -0.5939 -0.4880
  289MOL0     N38897   2.786   3.510   9.225  0.4306 -0.1161  0.3689
  289MOL0     C38898   2.737   3.391   9.263 -0.6392 -0.4351  0.2276
  289MOL0     C38899   2.838   3.301   9.265 -0.5676 -0.7722 -0.9746
  289MOL0     C38900   2.848   3.151   9.297  0.2185 -0.9032 -0.2915
  289MOL0     C38901   2.775   3.122   9.428  0.6202 -0.8169  0.5874
  289MOL0     C38902   2.805   2.982   9.483 -0.3607  0.7395  0.1492
  289MOL0     C38903   2.770   2.874   9.379  0.5626 -0.0339  0.9860
  289MOL0     O38904   2.639   2.882   9.326  0.4647  0.4676 -0.5705
  289MOL0     C38905   2.535   2.839   9.404  0.5520  0.1675  0.3038
  289MOL0     C38906   2.536   2.756   9.520 -0.2172  0.1042  0.6096
  289MOL0     C38907   2.420   2.711   9.593 -0.0227 -0.8045 -0.5360
  289MOL0     C38908   2.428   2.628   9.720 -0.7492 -0.1491 -0.0824
  289MOL0     C38909   2.291   2.750   9.544  0.2439  0.7944 -0.0236
  289MOL0     C38910   2.161   2.699   9.597 -1.1112 -0.1430 -0.2352
  289MOL0     O38911   2.161   2.569   9.633  0.8643 -0.0827  0.4825
  289MOL0     C38912   2.057   2.502   9.684 -0.6473 -0.9200 -0.4346
  289MOL0     C38913   1.954   2.559   9.763  1.0727 -1.0376  0.3213
  289MOL0     C38914   1.850   2.482   9.800 -0.0851  1.1293 -0.6827
  289MOL0     C38915   1.855   2.344   9.782 -0.0402 -0.3245 -0.8342
  289MOL0     O38916   1.739   2.276   9.824 -0.8310 -0.0481 -0.3572
  289MOL0     C38917   1.661   2.219   9.717  0.0017  0.7598 -0.2856
  289MOL0     C38918   1.552   2.310   9.654  0.2061  0.9783 -0.3713
  289MOL0     C38919   1.421   2.296   9.732 -0.2073  0.3833  0.2100
  289MOL0     C38920   1.423   2.369   9.866 -0.0598  0.1408  0.5063
  289MOL0     C38921   1.296   2.337   9.951 -0.0101  0.6312  0.5022
  289MOL0     C38922   1.288   2.188   9.988  0.8006 -0.7410 -0.4626
  289MOL0     C38923   1.207   2.134  10.101 -0.6848 -0.0379  0.9233
  289MOL0     C38924   1.243   1.992  10.145  0.0453  0.1863  0.0993
  289MOL0    Cl38925   1.107   1.952  10.256 -0.0766  0.0277 -0.1569
  289MOL0     C38926   1.962   2.287   9.718 -0.9702  0.5055 -0.2117
  289MOL0     C38927   2.068   2.364   9.671 -0.7239  0.2148 -0.8896
  289MOL0     O38928   2.069   2.781   9.609  0.3004 -0.2683 -0.1762
  289MOL0     C38929   2.288   2.834   9.430 -0.0222  0.3611  0.1346
  289MOL0     C38930   2.404   2.873   9.353  0.3414  1.1466  0.2200
  289MOL0     N38931   2.943   3.354   9.205  0.0996  0.2331  0.4697
  289MOL0     N38932   2.914   3.484   9.181 -0.2908 -0.5484 -0.9578
  289MOL0     C38933   2.687   4.507   8.793 -0.5009 -0.7793 -0.9360
  289MOL0     C38934   2.640   4.621   8.723 -0.2240  0.3604  1.0350
  289MOL0     C38935   2.432   5.022   8.640  0.0548 -0.0997  0.3947
  289MOL0     C38936   2.455   5.158   8.679  0.5994  0.1803  0.1098
  289MOL0     C38937   2.396   5.267   8.619  0.2258 -0.5046  0.5231
  289MOL0     C38938   2.309   5.232   8.510  0.8048  0.1848 -0.0531
  289MOL0     O38939   2.249   5.329   8.438 -0.3987  0.0657 -0.2512
  289MOL0     C38940   2.196   5.297   8.305  1.0783 -0.2733  0.9519
  289MOL0     C38941   2.206   5.417   8.215 -0.5667 -0.1968  0.1720
  289MOL0     C38942   2.191   5.397   8.062  0.2152 -0.9792  0.3636
  289MOL0     C38943   2.226   5.533   7.994  0.5917 -0.1272 -0.1375
  289MOL0     C38944   2.273   5.503   7.864  0.1734 -0.8308 -0.0853
  289MOL0     C38945   2.321   5.495   7.752  0.5087  0.0102 -0.1624
  289MOL0     C38946   2.301   5.101   8.463  0.7190  0.4040 -0.3963
  289MOL0     C38947   2.364   4.998   8.532 -1.1825 -0.7279  1.0622
  289MOL0     H38948   2.359   4.721   8.876 -1.8362 -2.6119  0.2061
  289MOL0     H38949   2.429   4.511   9.019 -0.1509 -1.1420 -0.4670
  289MOL0     H38950   2.532   4.374   9.153  2.5617  0.1138  0.9380
  289MOL0     H38951   2.476   4.249   9.040  0.6714 -0.0086 -0.2294
  289MOL0     H38952   2.690   4.262   9.253 -2.1263  3.4025 -1.0131
  289MOL0     H38953   2.558   4.137   9.215 -1.9928  1.3847 -1.9142
  289MOL0     H38954   2.697   4.066   9.027 -0.5564 -0.0369 -1.1328
  289MOL0     H38955   2.818   4.177   9.072 -1.1668  0.9155 -1.1584
  289MOL0     H38956   2.842   4.057   9.297 -0.6631  0.3089  1.0473
  289MOL0     H38957   2.711   3.950   9.264  0.9091 -1.1009  0.6718
  289MOL0     H38958   2.962   3.951   9.106 -0.1261  0.5360 -0.4671
  289MOL0     H38959   2.917   3.833   9.234 -1.2687  1.3880  2.0074
  289MOL0     H38960   2.777   3.866   8.960  0.7532 -1.3960 -2.1609
  289MOL0     H38961   2.899   3.752   9.002 -1.0729 -1.3135 -0.1127
  289MOL0     H38962   2.614   3.762   9.096 -0.0979 -0.5539  0.4371
  289MOL0     H38963   2.693   3.627   9.021  1.3813 -1.5942  0.5370
  289MOL0     H38964   2.610   3.620   9.244 -0.2494  2.6883  3.2711
  289MOL0     H38965   2.760   3.702   9.299  2.4682 -0.9271 -1.6267
  289MOL0     H38966   2.633   3.363   9.274 -0.3322 -1.2216  1.3261
  289MOL0     H38967   2.808   3.090   9.216  0.2121 -1.2723 -0.0143
  289MOL0     H38968   2.955   3.131   9.308  0.2477 -2.2899 -2.5068
  289MOL0     H38969   2.666   3.125   9.417  0.8467  1.3228 -2.2793
  289MOL0     H38970   2.799   3.201   9.499  0.0423  1.2415 -1.3756
  289MOL0     H38971   2.747   2.968   9.574 -0.5867 -1.6951 -0.3167
  289MOL0     H38972   2.908   2.969   9.519 -0.6048 -0.1876  0.5262
  289MOL0     H38973   2.797   2.779   9.427  0.0489 -1.1030 -0.7656
  289MOL0     H38974   2.838   2.894   9.296  1.5923  1.5096  2.1509
  289MOL0     H38975   2.626   2.720   9.569 -0.2067 -2.2766 -0.9960
  289MOL0     H38976   2.387   2.528   9.706 -2.5063  0.4796  0.2713
  289MOL0     H38977   2.535   2.625   9.741 -0.4417  2.7780 -0.7869
  289MOL0     H38978   2.365   2.678   9.795  0.2634 -1.9665  2.1114
  289MOL0     H38979   1.959   2.663   9.793  0.6687 -0.3684 -1.7575
  289MOL0     H38980   1.767   2.515   9.861 -1.0729 -1.1294 -0.7185
  289MOL0     H38981   1.728   2.200   9.633  2.3394  2.2589  1.1063
  289MOL0     H38982   1.623   2.123   9.752  0.5782  1.6057  3.0260
  289MOL0     H38983   1.580   2.415   9.661 -3.4474  2.0050  0.7212
  289MOL0     H38984   1.532   2.285   9.550  1.0425 -0.0985 -0.2912
  289MOL0     H38985   1.395   2.191   9.750  0.0465  0.3670  0.4749
  289MOL0     H38986   1.340   2.333   9.668 -1.0295 -1.1953  0.2889
  289MOL0     H38987   1.517   2.338   9.913 -0.3255 -0.0659  0.9014
  289MOL0     H38988   1.427   2.477   9.846 -1.3760  0.6298  2.5890
  289MOL0     H38989   1.205   2.370   9.900 -1.4266 -0.9799  1.8746
  289MOL0     H38990   1.305   2.393  10.044  1.1480 -1.5132  1.7711
  289MOL0     H38991   1.266   2.119   9.906  0.7967  1.8735 -2.8195
  289MOL0     H38992   1.389   2.158  10.016  1.2123  1.3310  0.4665
  289MOL0     H38993   1.100   2.139  10.079 -0.2983  2.3953 -0.8400
  289MOL0     H38994   1.228   2.191  10.192  2.0335 -0.1448  0.4475
  289MOL0     H38995   1.342   1.995  10.192  0.3299  0.2560 -0.5006
  289MOL0     H38996   1.244   1.917  10.066  1.7360 -2.4433  2.3851
  289MOL0     H38997   1.965   2.178   9.710 -3.1817  0.2508  1.4666
  289MOL0     H38998   2.154   2.318   9.625  1.0002 -0.9380  3.0232
  289MOL0     H38999   2.192   2.860   9.387  0.1809 -0.4957 -0.8741
  289MOL0     H39000   2.384   2.941   9.271 -1.2046  0.2048 -0.2219
  289MOL0     H39001   2.776   4.452   8.763  0.8402  0.9885 -0.3605
  289MOL0     H39002   2.705   4.654   8.642 -0.3400 -1.7148  0.0329
  289MOL0     H39003   2.526   5.183   8.758 -0.5949  1.2545  0.8829
  289MOL0     H39004   2.407   5.368   8.656 -0.2505  0.7200 -2.3676
  289MOL0     H39005   2.253   5.222   8.249  0.1365 -1.1761  1.1680
  289MOL0     H39006   2.092   5.262   8.305  0.1892  1.2642 -4.7444
  289MOL0     H39007   2.308   5.451   8.236 -1.1444  0.8550  1.4419
  289MOL0     H39008   2.143   5.500   8.250 -1.9902 -1.2126  0.0865
  289MOL0     H39009   2.094   5.356   8.036 -1.9581  2.1032  2.8469
  289MOL0     H39010   2.271   5.329   8.031  1.8357  1.3063 -0.8117
  289MOL0     H39011   2.305   5.583   8.051 -1.4846 -1.0936  3.9867
  289MOL0     H39012   2.137   5.596   7.996 -0.8775 -2.0545  3.5160
  289MOL0     H39013   2.373   5.470   7.661  0.2659 -2.4042  0.2957
  289MOL0     H39014   2.245   5.078   8.373  0.3185  0.5515 -0.1876
  289MOL0     H39015   2.357   4.898   8.490 -5.0778 -1.7942  3.6606
  290MOL0     O39016   2.769   5.463  10.271  0.0429  0.2983 -0.0984
  290MOL0     C39017   2.822   5.503  10.375  0.0915  0.5773 -0.6044
  290MOL0     O39018   2.854   5.430  10.493  0.4851 -0.3269  0.6302
  290MOL0     C39019   2.808   5.298  10.517 -1.0954  0.5680  0.1615
  290MOL0     C39020   2.712   5.224  10.446 -0.2443 -0.6019 -0.5428
  290MOL0     C39021   2.697   5.086  10.477  0.0103 -0.3573  0.5021
  290MOL0     C39022   2.783   5.015  10.568 -0.6725 -0.0099  0.1922
  290MOL0     O39023   2.786   4.887  10.604  0.5214 -0.0138 -0.5661
  290MOL0     C39024   2.712   4.798  10.514 -0.2123 -0.2294 -0.2925
  290MOL0     C39025   2.761   4.657  10.558  0.9663  0.1721  0.3260
  290MOL0     C39026   2.704   4.545  10.472 -0.2856  0.3861  1.1620
  290MOL0     C39027   2.738   4.561  10.325 -0.0638  0.7618  0.4093
  290MOL0     C39028   2.699   4.436  10.239 -0.2975  0.3458 -0.4053
  290MOL0     C39029   2.692   4.450  10.100 -0.2579  0.6306  0.7940
  290MOL0     C39030   2.837   4.478  10.050  0.4083  0.4035 -0.3464
  290MOL0     C39031   2.837   4.538   9.914 -0.5150  0.5442  0.2595
  290MOL0     N39032   2.760   4.453   9.819 -0.1746 -0.1332  0.3489
  290MOL0     C39033   2.815   4.348   9.750 -0.1944 -0.0438 -0.0353
  290MOL0     C39034   2.718   4.328   9.663 -1.3081  0.5012  0.5760
  290MOL0     C39035   2.736   4.228   9.551  0.2885  0.1189 -0.3557
  290MOL0     C39036   2.692   4.085   9.589  0.3003 -0.6857 -0.2274
  290MOL0     C39037   2.539   4.089   9.595  0.6650  0.1853  0.2060
  290MOL0     C39038   2.492   4.085   9.735 -0.2998  1.3286  0.4508
  290MOL0     O39039   2.515   3.966   9.811 -0.4594 -0.8813 -0.2071
  290MOL0     C39040   2.464   3.949   9.932  1.2661 -0.0888  0.4992
  290MOL0     C39041   2.518   3.851  10.019 -0.5327 -0.5399  0.2059
  290MOL0     C39042   2.468   3.823  10.146 -0.2450  0.8003 -0.1447
  290MOL0     C39043   2.545   3.719  10.227 -0.8776  0.8779  0.0090
  290MOL0     C39044   2.362   3.900  10.194  0.7802  0.2911  0.6812
  290MOL0     C39045   2.280   3.863  10.307  0.5026 -0.1413 -0.4494
  290MOL0     O39046   2.150   3.894  10.308  0.1105 -0.4711 -0.5577
  290MOL0     C39047   2.073   3.885  10.418  0.8433  0.5131 -0.2812
  290MOL0     C39048   2.048   3.764  10.488  0.0571 -0.0133 -0.1668
  290MOL0     C39049   1.955   3.757  10.593 -0.0260 -0.1324  0.4742
  290MOL0     C39050   1.882   3.875  10.622  0.5880  0.6304  0.2771
  290MOL0     O39051   1.777   3.872  10.712 -0.5172  0.1003  0.1653
  290MOL0     C39052   1.684   3.766  10.700  0.6945 -0.3014 -0.2061
  290MOL0     C39053   1.561   3.800  10.796 -0.4605 -0.3789 -0.3896
  290MOL0     C39054   1.506   3.660  10.841  0.4773 -0.1113  0.0689
  290MOL0     C39055   1.378   3.682  10.920  0.7277  0.2002  0.0451
  290MOL0     C39056   1.263   3.603  10.867  0.8071  0.5043  0.6174
  290MOL0     C39057   1.286   3.453  10.880 -0.0835  0.2618  0.2773
  290MOL0     C39058   1.163   3.384  10.829 -0.7135  0.8287 -0.6450
  290MOL0     C39059   1.195   3.231  10.832  0.8567 -0.5268  0.0131
  290MOL0    Cl39060   1.074   3.137  10.927  0.3978 -0.4802  0.1556
  290MOL0     C39061   1.914   3.998  10.558  0.3619  0.2173  0.5623
  290MOL0     C39062   2.002   4.003  10.449  0.6394 -0.8572 -0.4109
  290MOL0     O39063   2.343   3.821  10.407 -0.3749  0.1011  0.5367
  290MOL0     C39064   2.309   3.998  10.117 -0.2535 -1.7670 -0.0156
  290MOL0     C39065   2.370   4.037   9.995 -0.3363  0.5978  0.1757
  290MOL0     N39066   2.612   4.417   9.667 -0.7181 -0.0324  0.4113
  290MOL0     N39067   2.635   4.490   9.773  0.3822 -0.1472 -0.2521
  290MOL0     C39068   2.864   5.102  10.643 -0.1361 -0.1341  0.1234
  290MOL0     C39069   2.883   5.240  10.620 -0.4383  0.0486  0.3526
  290MOL0     C39070   2.820   5.648  10.396 -0.4121 -0.0465 -0.5431
  290MOL0     C39071   2.788   5.723  10.282  0.3178  0.9694 -0.2170
  290MOL0     C39072   2.787   5.861  10.286  0.6260  0.2310 -0.2089
  290MOL0     C39073   2.824   5.924  10.403  0.2266 -0.9471 -0.2488
  290MOL0     O39074   2.834   6.064  10.400 -1.0032  0.1237 -0.4819
  290MOL0     C39075   2.956   6.121  10.334 -0.6402  0.6826  0.1212
  290MOL0     C39076   2.974   6.259  10.401 -0.1952  0.4972  0.7197
  290MOL0     C39077   3.059   6.347  10.312 -0.3360  0.0032  0.9250
  290MOL0     C39078   3.136   6.459  10.401 -0.7477  1.0173  0.5120
  290MOL0     C39079   3.100   6.599  10.372  0.0267 -0.0423  1.0256
  290MOL0     C39080   3.057   6.712  10.350 -0.1249 -0.1468 -0.5465
  290MOL0     C39081   2.865   5.850  10.515  0.4375 -0.3273 -0.5560
  290MOL0     C39082   2.848   5.711  10.519  0.4390  0.1845 -0.1875
  290MOL0     H39083   2.647   5.263  10.369  0.3635 -0.2227 -0.8737
  290MOL0     H39084   2.621   5.027  10.427 -0.0668  0.7638 -0.7620
  290MOL0     H39085   2.606   4.822  10.523  0.5341  3.7750 -0.3446
  290MOL0     H39086   2.739   4.811  10.409  2.2905 -1.2478  0.1411
  290MOL0     H39087   2.870   4.665  10.556  1.1312 -1.6605  0.3834
  290MOL0     H39088   2.730   4.639  10.661 -1.4387 -0.7406 -0.4659
  290MOL0     H39089   2.736   4.447  10.507 -1.7021 -0.8222 -0.7106
  290MOL0     H39090   2.595   4.535  10.475 -0.3772  0.7326 -0.1406
  290MOL0     H39091   2.708   4.657  10.282 -1.7399  0.1966  0.2325
  290MOL0     H39092   2.847   4.571  10.321  0.0320  0.8027  2.0574
  290MOL0     H39093   2.762   4.350  10.263  0.2957  0.6704 -0.7850
  290MOL0     H39094   2.599   4.407  10.271 -0.0654  2.5690  2.8113
  290MOL0     H39095   2.642   4.359  10.064 -0.1048  0.1028  1.8726
  290MOL0     H39096   2.626   4.534  10.077 -3.6905 -1.1346  3.3433
  290MOL0     H39097   2.882   4.550  10.119 -1.5549 -1.6042  3.2941
  290MOL0     H39098   2.881   4.377  10.053 -1.4918 -0.4660 -0.5764
  290MOL0     H39099   2.944   4.532   9.890 -0.3348  1.8935  0.6608
  290MOL0     H39100   2.811   4.644   9.916 -0.1214  0.6454  0.2264
  290MOL0     H39101   2.914   4.303   9.762 -0.4046 -1.0146 -1.6049
  290MOL0     H39102   2.680   4.264   9.464  0.9428 -0.7130 -1.1381
  290MOL0     H39103   2.844   4.231   9.536  0.1695 -0.8644 -1.5436
  290MOL0     H39104   2.746   4.059   9.680 -0.7268  1.8411  1.2263
  290MOL0     H39105   2.717   4.012   9.512  0.5808 -1.6148  0.7272
  290MOL0     H39106   2.489   4.012   9.536 -0.2596  2.1535 -1.7157
  290MOL0     H39107   2.506   4.185   9.554  4.5883  2.4598  1.8179
  290MOL0     H39108   2.383   4.092   9.730 -0.8757 -3.3276  1.7983
  290MOL0     H39109   2.522   4.172   9.794 -2.5327  0.3503  3.2642
  290MOL0     H39110   2.603   3.796   9.980 -0.1546  0.9248 -1.1191
  290MOL0     H39111   2.608   3.771  10.300  1.5721  0.1648 -1.4833
  290MOL0     H39112   2.479   3.654  10.286  0.5819 -0.9585 -0.2821
  290MOL0     H39113   2.610   3.653  10.169 -2.1422  0.4205 -0.9369
  290MOL0     H39114   2.095   3.670  10.460  3.9967  1.6552  0.1786
  290MOL0     H39115   1.947   3.658  10.635 -0.6104  0.1184  0.9831
  290MOL0     H39116   1.639   3.753  10.601 -0.8864  2.4658  0.0692
  290MOL0     H39117   1.734   3.673  10.730  0.3938 -0.9182 -1.5216
  290MOL0     H39118   1.599   3.855  10.882 -2.1433  0.0289  0.1255
  290MOL0     H39119   1.490   3.869  10.749  0.6056  0.7750 -0.3748
  290MOL0     H39120   1.582   3.599  10.891 -1.1516 -3.1454 -0.9146
  290MOL0     H39121   1.488   3.599  10.752  1.5890 -1.5062  0.7718
  290MOL0     H39122   1.391   3.656  11.026 -0.1152  1.0963  0.3781
  290MOL0     H39123   1.361   3.789  10.935  2.2708  0.5688 -0.6373
  290MOL0     H39124   1.250   3.621  10.760  4.9014  1.1287  0.0839
  290MOL0     H39125   1.174   3.631  10.925 -0.8735 -1.0902 -1.0338
  290MOL0     H39126   1.377   3.434  10.822  0.7002  0.9415  1.2508
  290MOL0     H39127   1.296   3.431  10.987 -3.5784 -0.8982  0.4756
  290MOL0     H39128   1.144   3.404  10.723  0.3126  0.3151 -0.9353
  290MOL0     H39129   1.070   3.407  10.883 -0.4691  3.0997 -1.1225
  290MOL0     H39130   1.293   3.220  10.878  0.4882 -0.6651  0.7856
  290MOL0     H39131   1.197   3.191  10.731 -2.3070  0.6227 -0.6157
  290MOL0     H39132   1.860   4.093  10.560 -1.4795 -0.7828  1.6831
  290MOL0     H39133   2.003   4.091  10.386 -2.7338 -0.0149  0.5042
  290MOL0     H39134   2.228   4.055  10.161 -1.9726 -3.4711 -0.8113
  290MOL0     H39135   2.342   4.137   9.964 -0.0109  0.8164  0.5906
  290MOL0     H39136   2.921   5.066  10.728 -0.7084 -2.6253 -0.4614
  290MOL0     H39137   2.951   5.291  10.687 -0.5161 -1.9316  2.0770
  290MOL0     H39138   2.770   5.673  10.187 -0.7426  1.9160 -0.5545
  290MOL0     H39139   2.766   5.903  10.188  1.7874  1.8156  0.1711
  290MOL0     H39140   3.052   6.075  10.356 -0.8804  1.0322  2.0351
  290MOL0     H39141   2.932   6.116  10.227 -1.1650 -0.4987  0.2842
  290MOL0     H39142   3.015   6.242  10.501 -0.5173  3.1914  1.3767
  290MOL0     H39143   2.873   6.299  10.409 -0.3041 -0.0603  2.5669
  290MOL0     H39144   2.995   6.399  10.240 -0.8401  1.0821  2.1141
  290MOL0     H39145   3.123   6.283  10.250  0.7905 -0.3362  2.3829
  290MOL0     H39146   3.243   6.441  10.400 -0.4914  2.3950 -1.0421
  290MOL0     H39147   3.112   6.428  10.503 -0.8799  1.6261  0.6707
  290MOL0     H39148   3.031   6.810  10.313  0.6711  0.1165 -0.4463
  290MOL0     H39149   2.897   5.896  10.608 -1.3147 -2.8432  1.4671
  290MOL0     H39150   2.862   5.662  10.615  0.3670  1.6012  0.5864
  291MOL0     O39151   0.400   7.086   1.553  0.0315  0.7221  0.2360
  291MOL0     C39152   0.445   7.161   1.637  0.4715  0.6849 -0.8624
  291MOL0     O39153   0.494   7.284   1.616  0.3768  0.1774 -0.1491
  291MOL0     C39154   0.471   7.373   1.510 -0.2790  0.4688  0.1867
  291MOL0     C39155   0.476   7.511   1.543  0.1927 -0.2996  0.0426
  291MOL0     C39156   0.447   7.604   1.435 -0.8173  0.1037 -0.6722
  291MOL0     C39157   0.415   7.561   1.297 -0.1204 -0.6296 -0.1611
  291MOL0     O39158   0.403   7.635   1.186 -0.5733 -0.4508  0.0325
  291MOL0     C39159   0.483   7.752   1.170  0.3051 -1.2173 -0.2287
  291MOL0     C39160   0.429   7.859   1.077 -0.1122 -0.2030 -0.3318
  291MOL0     C39161   0.337   7.954   1.144 -0.0982  0.2522 -0.3084
  291MOL0     C39162   0.212   7.883   1.188 -0.0310 -0.4793  0.1568
  291MOL0     C39163   0.096   7.980   1.219  0.5718 -0.7840  0.4677
  291MOL0     C39164  -0.008   7.910   1.304  0.1809 -0.1097  0.5463
  291MOL0     C39165  -0.084   7.794   1.239  0.4082 -0.1567  0.6330
  291MOL0     C39166  -0.173   7.742   1.355  0.3462 -0.5329  0.2626
  291MOL0     N39167  -0.102   7.718   1.485 -0.2469 -0.0910  0.7040
  291MOL0     C39168   0.010   7.639   1.495 -0.2272 -0.0242  1.1935
  291MOL0     C39169   0.050   7.652   1.615 -0.5285 -0.4292  0.1250
  291MOL0     C39170   0.160   7.574   1.678 -0.2872 -0.3785 -0.3747
  291MOL0     C39171   0.114   7.511   1.820  0.4647 -0.5341  0.2302
  291MOL0     C39172   0.240   7.463   1.886 -0.4199  0.2613 -1.0815
  291MOL0     C39173   0.222   7.423   2.037 -0.1770 -0.7081 -0.2240
  291MOL0     O39174   0.341   7.399   2.107 -0.3835 -0.4982 -0.6974
  291MOL0     C39175   0.329   7.396   2.242  0.9056 -0.1068 -0.7569
  291MOL0     C39176   0.217   7.392   2.326 -0.0717 -0.0518 -0.6497
  291MOL0     C39177   0.221   7.389   2.474  0.8655 -0.6622 -0.6031
  291MOL0     C39178   0.092   7.385   2.548  0.3424 -0.0550  0.2844
  291MOL0     C39179   0.348   7.408   2.537 -0.2658  0.7394  0.6768
  291MOL0     C39180   0.368   7.406   2.680 -0.7845 -0.5613  0.3742
  291MOL0     O39181   0.503   7.423   2.722  0.3483  0.0883  0.0571
  291MOL0     C39182   0.547   7.430   2.859  0.1331 -1.5495 -0.4174
  291MOL0     C39183   0.511   7.335   2.952  0.1717 -0.9446  0.6433
  291MOL0     C39184   0.543   7.353   3.085  0.0466  0.4849  0.2154
  291MOL0     C39185   0.608   7.475   3.131  0.6053  0.5335  0.6295
  291MOL0     O39186   0.643   7.501   3.262  1.0083 -0.4057  0.1420
  291MOL0     C39187   0.716   7.391   3.318  0.9751 -0.7988 -0.0963
  291MOL0     C39188   0.789   7.433   3.457  0.1823  0.0261  0.2130
  291MOL0     C39189   0.873   7.316   3.500 -0.9498  0.0771 -0.0756
  291MOL0     C39190   0.902   7.330   3.647  0.1858 -0.3835  0.2912
  291MOL0     C39191   1.000   7.222   3.694 -0.5924  1.1940  0.4937
  291MOL0     C39192   1.142   7.256   3.661 -0.1019  0.5403 -0.2984
  291MOL0     C39193   1.249   7.162   3.734  0.4029 -0.0489  0.4507
  291MOL0     C39194   1.393   7.174   3.667  0.5255 -0.1246  0.0440
  291MOL0    Cl39195   1.504   7.070   3.752  0.1619  0.1698 -0.1463
  291MOL0     C39196   0.639   7.565   3.035  0.3509 -0.1094  0.4447
  291MOL0     C39197   0.606   7.556   2.900 -0.3838  0.6896  0.0060
  291MOL0     O39198   0.276   7.395   2.759  0.6342 -0.0026  0.0110
  291MOL0     C39199   0.456   7.428   2.449 -0.9191  0.5693  0.4176
  291MOL0     C39200   0.447   7.419   2.312 -0.0656  0.3328 -0.1358
  291MOL0     N39201  -0.025   7.746   1.680 -0.1055  0.0046  0.7744
  291MOL0     N39202  -0.104   7.791   1.592  1.0268 -0.8339  0.6652
  291MOL0     C39203   0.404   7.428   1.283  0.1115  0.7887  0.0331
  291MOL0     C39204   0.427   7.335   1.384  0.4395  0.2299  1.1749
  291MOL0     C39205   0.434   7.110   1.777 -0.0880  0.2998 -0.3999
  291MOL0     C39206   0.401   6.980   1.816 -0.9865 -0.0376  0.4946
  291MOL0     C39207   0.426   6.929   1.944 -0.0040 -0.3002 -0.5869
  291MOL0     C39208   0.474   7.015   2.041  0.5288 -0.0686  0.3569
  291MOL0     O39209   0.481   6.960   2.161 -0.0667  0.5359 -0.6111
  291MOL0     C39210   0.415   7.036   2.261 -0.5376  1.0647 -0.5756
  291MOL0     C39211   0.347   6.954   2.371  0.5184  0.1972 -0.9008
  291MOL0     C39212   0.311   7.034   2.500  0.7639  0.8530 -0.3088
  291MOL0     C39213   0.231   6.942   2.594  0.5999 -0.2094 -0.3537
  291MOL0     C39214   0.316   6.841   2.658  0.5663 -0.9221  0.7390
  291MOL0     C39215   0.355   6.738   2.705  0.1448  0.3690  0.6713
  291MOL0     C39216   0.502   7.152   2.012  0.3836  0.7693  0.4728
  291MOL0     C39217   0.480   7.196   1.883 -0.0935  0.6917 -0.3780
  291MOL0     H39218   0.517   7.548   1.636 -3.6652  1.8907  1.1023
  291MOL0     H39219   0.469   7.710   1.449 -0.3817  0.0460 -0.8914
  291MOL0     H39220   0.488   7.802   1.268 -1.0711  0.3343 -0.8986
  291MOL0     H39221   0.582   7.725   1.132 -0.4130 -2.2856 -1.3954
  291MOL0     H39222   0.512   7.918   1.039  0.8573  1.6622  4.0399
  291MOL0     H39223   0.373   7.810   0.997 -0.5535 -0.7231  0.2783
  291MOL0     H39224   0.384   7.994   1.235  0.3723 -0.4859 -0.2224
  291MOL0     H39225   0.310   8.038   1.079  0.7657 -0.0119 -1.0247
  291MOL0     H39226   0.177   7.818   1.107  0.2217 -1.0103  0.4751
  291MOL0     H39227   0.231   7.817   1.273  0.9355  3.3518  3.2065
  291MOL0     H39228   0.134   8.067   1.275 -1.1875  1.1984 -1.2327
  291MOL0     H39229   0.059   8.026   1.127  0.9377  1.1278  1.2260
  291MOL0     H39230   0.044   7.874   1.394  0.4174  4.2136  2.3606
  291MOL0     H39231  -0.085   7.981   1.335  1.1632  0.9056  0.7420
  291MOL0     H39232  -0.139   7.838   1.156  3.3520 -1.4578 -2.1974
  291MOL0     H39233  -0.019   7.710   1.215  1.6948  0.8554  0.4794
  291MOL0     H39234  -0.207   7.642   1.326  1.7508 -2.1532  3.7022
  291MOL0     H39235  -0.264   7.802   1.349 -0.4578 -1.6946  0.6889
  291MOL0     H39236   0.030   7.576   1.409 -0.5089  0.5168  0.7225
  291MOL0     H39237   0.201   7.502   1.606 -0.1046 -0.0270 -0.6222
  291MOL0     H39238   0.234   7.652   1.694 -1.5899  0.8425 -0.1121
  291MOL0     H39239   0.044   7.430   1.796 -0.6788  0.6473 -0.4942
  291MOL0     H39240   0.069   7.585   1.886 -0.0745  2.5651 -3.2881
  291MOL0     H39241   0.323   7.535   1.884  0.8180 -0.9006  1.7444
  291MOL0     H39242   0.275   7.378   1.827  3.6277 -1.2915  2.9036
  291MOL0     H39243   0.158   7.334   2.041 -1.0832 -0.0238  1.3485
  291MOL0     H39244   0.171   7.504   2.089 -0.8958 -3.0646  3.0630
  291MOL0     H39245   0.117   7.384   2.284 -0.0286 -3.2673 -0.4154
  291MOL0     H39246   0.003   7.396   2.486 -0.9122  0.7015  2.1524
  291MOL0     H39247   0.090   7.285   2.594 -0.0416 -1.2607 -2.1989
  291MOL0     H39248   0.079   7.464   2.623  2.1273  0.0710  0.5007
  291MOL0     H39249   0.463   7.259   2.892  1.1887  0.2238 -1.7682
  291MOL0     H39250   0.519   7.279   3.161 -2.4304  2.2638  1.3126
  291MOL0     H39251   0.646   7.309   3.339  1.8435 -1.4702  0.2290
  291MOL0     H39252   0.797   7.361   3.250  2.1218  1.3318  0.2465
  291MOL0     H39253   0.850   7.523   3.446 -1.3389  1.2054  1.0869
  291MOL0     H39254   0.714   7.455   3.533 -1.6346 -0.6822 -1.2892
  291MOL0     H39255   0.966   7.306   3.443 -0.9422 -0.2606 -0.0052
  291MOL0     H39256   0.817   7.224   3.481  1.6581 -1.5361 -0.3868
  291MOL0     H39257   0.936   7.432   3.669  1.7900 -0.8398  0.1126
  291MOL0     H39258   0.807   7.322   3.700  0.4608  0.6270  0.9660
  291MOL0     H39259   0.970   7.129   3.646  0.3018  1.5087 -0.6937
  291MOL0     H39260   0.994   7.212   3.803  1.5158 -0.4169  0.5233
  291MOL0     H39261   1.158   7.243   3.554 -3.1879 -0.5293 -0.7160
  291MOL0     H39262   1.168   7.360   3.684  1.3889  0.4045 -1.2278
  291MOL0     H39263   1.221   7.057   3.740  0.3028  0.0794  3.6755
  291MOL0     H39264   1.256   7.197   3.837  2.6243 -0.8265  0.6209
  291MOL0     H39265   1.440   7.273   3.661  4.2659 -1.8204 -3.0948
  291MOL0     H39266   1.389   7.144   3.562  1.6747  3.5473 -1.2326
  291MOL0     H39267   0.689   7.659   3.058 -0.7038  1.6644 -3.5066
  291MOL0     H39268   0.649   7.620   2.824  1.4420 -1.2153 -0.6643
  291MOL0     H39269   0.551   7.448   2.497 -2.0408  0.5614  2.8225
  291MOL0     H39270   0.532   7.419   2.243 -1.2386 -0.5606 -1.6612
  291MOL0     H39271   0.384   7.394   1.182 -0.0102  3.6871 -1.0108
  291MOL0     H39272   0.406   7.233   1.354 -1.6621  1.3911 -1.7777
  291MOL0     H39273   0.346   6.927   1.739  1.4660  1.4443 -2.4646
  291MOL0     H39274   0.388   6.828   1.963 -1.5310  0.4780  0.7525
  291MOL0     H39275   0.488   7.104   2.306  2.9473 -2.2719 -0.6916
  291MOL0     H39276   0.337   7.100   2.219 -3.0613 -0.1405  1.9694
  291MOL0     H39277   0.417   6.873   2.396 -0.7721 -0.4013  0.9618
  291MOL0     H39278   0.262   6.905   2.322  0.2619 -1.2600  0.9036
  291MOL0     H39279   0.249   7.119   2.470 -2.6434 -1.3986 -0.1448
  291MOL0     H39280   0.406   7.058   2.549 -0.4896  0.1918  2.6641
  291MOL0     H39281   0.147   6.893   2.543  1.5164  0.0822 -2.2230
  291MOL0     H39282   0.191   7.006   2.673  1.5809 -0.3088  0.2339
  291MOL0     H39283   0.393   6.657   2.764  0.9974  0.1670 -0.1302
  291MOL0     H39284   0.545   7.221   2.084  0.1872  0.0359  1.3098
  291MOL0     H39285   0.502   7.301   1.863  0.6101  0.4175 -1.0854
  292MOL0     O39286   8.461   6.458   0.941  0.2095  0.2944  0.5472
  292MOL0     C39287   8.446   6.463   1.064 -0.4605  0.0681 -0.3531
  292MOL0     O39288   8.547   6.415   1.157  0.8104  0.3446  0.2674
  292MOL0     C39289   8.632   6.326   1.107 -0.3875  0.2065  0.5580
  292MOL0     C39290   8.768   6.351   1.140  1.0061  0.7965 -0.1558
  292MOL0     C39291   8.868   6.262   1.100 -0.1734 -0.3317 -0.3609
  292MOL0     C39292   8.831   6.149   1.024 -0.5513 -0.5512  0.3405
  292MOL0     O39293   8.938   6.069   0.990 -0.0940  0.4029  0.3635
  292MOL0     C39294   8.914   5.972   0.881 -0.2410 -0.0192  0.9290
  292MOL0     C39295   9.054   5.934   0.829 -0.1346  0.7088  0.2150
  292MOL0     C39296   9.115   6.054   0.746 -0.6576  0.8597 -0.1462
  292MOL0     C39297   9.096   6.034   0.591  0.2708 -0.1579 -0.9412
  292MOL0     C39298   9.170   6.128   0.502 -0.4588  0.0107  0.8910
  292MOL0     C39299   9.311   6.099   0.494 -0.4894 -0.7890 -0.1301
  292MOL0     C39300   9.385   6.211   0.415 -0.4853 -0.0059  0.9776
  292MOL0     C39301   9.541   6.184   0.424 -0.3745  0.0067  0.3584
  292MOL0     N39302   9.585   6.059   0.363 -0.6244  0.1578 -0.4131
  292MOL0     C39303   9.534   5.994   0.248  0.1255  0.2119 -0.0162
  292MOL0     C39304   9.604   5.872   0.233  0.0937 -0.6613  0.0196
  292MOL0     C39305   9.594   5.774   0.118 -0.3424  0.0593 -0.0815
  292MOL0     C39306   9.510   5.826   0.007  0.4230  0.4369 -0.6455
  292MOL0     C39307   9.509   5.732  -0.119  0.3411  0.3068  1.7038
  292MOL0     C39308   9.462   5.588  -0.092 -0.0238  0.9552 -0.0584
  292MOL0     O39309   9.468   5.495  -0.202 -0.3048 -0.8603  0.3536
  292MOL0     C39310   9.435   5.555  -0.332  0.3501 -0.3384 -0.0448
  292MOL0     C39311   9.532   5.577  -0.428  0.5056  1.0558  0.4773
  292MOL0     C39312   9.497   5.623  -0.556  0.8020  0.5241 -0.7576
  292MOL0     C39313   9.608   5.648  -0.653  0.1427 -0.2424 -0.0983
  292MOL0     C39314   9.362   5.634  -0.590 -0.1241  0.2127 -0.1741
  292MOL0     C39315   9.308   5.687  -0.719 -0.6502  0.1874 -0.7018
  292MOL0     O39316   9.171   5.719  -0.719  0.7924  0.6821  0.3806
  292MOL0     C39317   9.119   5.726  -0.846  0.1095  1.0666  0.1033
  292MOL0     C39318   9.048   5.617  -0.917  0.5651 -0.1891  0.7088
  292MOL0     C39319   8.987   5.648  -1.044  0.8210 -0.0666  0.1280
  292MOL0     C39320   8.997   5.780  -1.089 -0.5506  0.1549 -0.3858
  292MOL0     O39321   8.936   5.819  -1.200  0.1041 -0.1263 -1.0881
  292MOL0     C39322   8.904   5.733  -1.308  0.2792  1.1465  0.1206
  292MOL0     C39323   9.030   5.686  -1.377 -1.4080 -0.3443  0.1045
  292MOL0     C39324   9.083   5.798  -1.459 -0.1493 -0.2715  0.5563
  292MOL0     C39325   9.206   5.757  -1.538  0.6953 -0.5170  0.5331
  292MOL0     C39326   9.269   5.849  -1.643  0.9213  0.0944  0.1414
  292MOL0     C39327   9.253   6.000  -1.615 -0.4551 -0.0346  0.8115
  292MOL0     C39328   9.305   6.090  -1.727 -1.6025 -0.1055  0.3192
  292MOL0     C39329   9.284   6.241  -1.690 -0.5490  0.0834  0.1746
  292MOL0    Cl39330   9.113   6.286  -1.670  0.1479 -0.0622 -0.2906
  292MOL0     C39331   9.063   5.879  -1.021  0.9839  0.8725 -0.9175
  292MOL0     C39332   9.119   5.849  -0.891  0.0577  0.4330  0.1190
  292MOL0     O39333   9.378   5.688  -0.816 -0.3150  0.0523 -1.2145
  292MOL0     C39334   9.263   5.596  -0.496  0.8285 -0.2186 -0.0451
  292MOL0     C39335   9.299   5.565  -0.372  0.8844 -0.1004 -0.8302
  292MOL0     N39336   9.699   5.869   0.336  0.6941 -0.2743 -0.1728
  292MOL0     N39337   9.679   5.972   0.414  1.5431 -0.3168  0.2140
  292MOL0     C39338   8.691   6.123   0.991 -0.2077  0.1088 -0.6457
  292MOL0     C39339   8.597   6.211   1.039 -0.8678  0.7319  0.3161
  292MOL0     C39340   8.325   6.529   1.108  0.2037  0.1674  0.2549
  292MOL0     C39341   8.317   6.584   1.236 -0.8324 -0.5418  0.6295
  292MOL0     C39342   8.199   6.650   1.269 -0.3270 -0.6095 -0.8894
  292MOL0     C39343   8.090   6.665   1.192  0.7927  0.3041  0.2070
  292MOL0     O39344   7.976   6.732   1.221  0.6710  0.5455 -0.3279
  292MOL0     C39345   7.904   6.794   1.117  0.0840  0.5111  1.1479
  292MOL0     C39346   7.843   6.919   1.178 -0.1257 -1.0126  0.6787
  292MOL0     C39347   7.721   6.890   1.275 -0.0949  0.1039  0.0954
  292MOL0     C39348   7.573   6.917   1.211  1.1152  1.0133  0.2500
  292MOL0     C39349   7.561   6.844   1.079  0.0014  0.1474  0.2153
  292MOL0     C39350   7.555   6.802   0.967  0.4930 -0.1645 -0.2243
  292MOL0     C39351   8.098   6.609   1.060  0.0093  0.9006  0.2411
  292MOL0     C39352   8.217   6.550   1.015  0.8627  0.1936  0.6784
  292MOL0     H39353   8.802   6.440   1.191  3.5101  0.1571 -0.5750
  292MOL0     H39354   8.974   6.268   1.119  0.0431  0.3981 -1.6511
  292MOL0     H39355   8.860   5.882   0.912 -0.1990  0.6455  3.1107
  292MOL0     H39356   8.862   6.021   0.798 -0.9970 -1.7642  0.3117
  292MOL0     H39357   9.115   5.911   0.916  1.6454  0.8971 -0.9221
  292MOL0     H39358   9.048   5.840   0.774 -0.2826  0.5444  0.5124
  292MOL0     H39359   9.076   6.154   0.768 -1.3799  0.8378 -1.2746
  292MOL0     H39360   9.223   6.062   0.764 -0.3035  0.8298 -2.0527
  292MOL0     H39361   9.136   5.934   0.572  0.7410 -0.3913  1.0455
  292MOL0     H39362   8.987   6.034   0.581 -0.0640 -0.8919  1.8600
  292MOL0     H39363   9.125   6.125   0.402 -0.6480 -6.5263  0.7234
  292MOL0     H39364   9.153   6.224   0.552  2.5034  0.6777  0.8042
  292MOL0     H39365   9.353   6.107   0.595 -1.5672 -0.5736  0.3143
  292MOL0     H39366   9.317   5.996   0.460  3.1179 -0.8378  0.2662
  292MOL0     H39367   9.359   6.198   0.309 -2.0931 -0.2534  1.3853
  292MOL0     H39368   9.353   6.308   0.453 -0.2973  0.5424 -0.1914
  292MOL0     H39369   9.589   6.189   0.522  2.8020 -0.0815 -1.0799
  292MOL0     H39370   9.596   6.263   0.372  1.9566 -2.6237 -1.4710
  292MOL0     H39371   9.445   6.005   0.188  0.7539  0.6401 -0.8739
  292MOL0     H39372   9.689   5.746   0.070 -0.2103  2.5682 -1.4464
  292MOL0     H39373   9.549   5.679   0.149 -1.1262  0.5740  0.3767
  292MOL0     H39374   9.555   5.921  -0.021  4.2867 -0.9094  0.3145
  292MOL0     H39375   9.404   5.838   0.032  0.8164 -0.7922  2.0420
  292MOL0     H39376   9.617   5.728  -0.136 -0.1050  0.4009 -2.0153
  292MOL0     H39377   9.455   5.774  -0.204  1.4452  0.5240  1.0953
  292MOL0     H39378   9.363   5.592  -0.046  0.1058  2.5960  0.1301
  292MOL0     H39379   9.526   5.542  -0.016 -0.8930 -0.8358 -0.3597
  292MOL0     H39380   9.634   5.558  -0.395 -1.0206 -2.0069  4.1137
  292MOL0     H39381   9.695   5.591  -0.620  2.4779  3.1318  0.1085
  292MOL0     H39382   9.581   5.600  -0.747 -2.1821  1.4895 -0.3930
  292MOL0     H39383   9.632   5.751  -0.680 -0.4132 -0.3771 -1.1363
  292MOL0     H39384   9.018   5.520  -0.878 -0.4834  0.2937  1.1196
  292MOL0     H39385   8.936   5.568  -1.098  0.9406  0.1579 -0.3184
  292MOL0     H39386   8.841   5.649  -1.276 -0.2819  0.9731 -1.3455
  292MOL0     H39387   8.841   5.798  -1.370  0.4898  0.5841 -0.7074
  292MOL0     H39388   9.112   5.665  -1.308 -0.2840  0.7416 -0.8665
  292MOL0     H39389   9.007   5.600  -1.442  0.1250  0.0153 -0.9760
  292MOL0     H39390   9.107   5.879  -1.389 -2.9219 -0.4296  1.8271
  292MOL0     H39391   9.003   5.824  -1.528 -0.6622 -2.3091  0.3097
  292MOL0     H39392   9.288   5.733  -1.471  0.9347 -1.4605 -0.0707
  292MOL0     H39393   9.177   5.659  -1.578 -0.6991  0.1428 -0.1650
  292MOL0     H39394   9.231   5.820  -1.741  0.7066 -0.4387  0.3743
  292MOL0     H39395   9.377   5.834  -1.652  1.0459  1.4058 -0.7269
  292MOL0     H39396   9.145   6.012  -1.609 -0.3243  1.4883  0.6372
  292MOL0     H39397   9.312   6.013  -1.524  4.1432 -4.7321 -0.9908
  292MOL0     H39398   9.254   6.059  -1.818  0.1204  0.4548 -0.9082
  292MOL0     H39399   9.412   6.069  -1.735 -1.8502 -0.8880 -1.2776
  292MOL0     H39400   9.327   6.307  -1.766 -1.7191  1.3626  0.5794
  292MOL0     H39401   9.329   6.261  -1.592  1.6275 -2.4859 -0.1853
  292MOL0     H39402   9.065   5.982  -1.056  1.2611  1.2049  0.0429
  292MOL0     H39403   9.167   5.926  -0.832  1.6269 -0.6086  0.2681
  292MOL0     H39404   9.158   5.609  -0.522  0.6052  0.3264  1.0512
  292MOL0     H39405   9.224   5.532  -0.300 -0.6867  0.6684 -2.0527
  292MOL0     H39406   8.671   6.024   0.952 -0.9767  0.9358 -2.4311
  292MOL0     H39407   8.495   6.184   1.014  0.3074 -1.6225 -2.4880
  292MOL0     H39408   8.406   6.586   1.298  0.1626 -1.7413 -0.6976
  292MOL0     H39409   8.192   6.705   1.362  1.4801 -1.8211  0.0207
  292MOL0     H39410   7.972   6.821   1.036  0.3076  0.7969  1.4275
  292MOL0     H39411   7.827   6.725   1.080  0.5022  0.9359 -0.6139
  292MOL0     H39412   7.814   6.984   1.094  3.0043 -0.4013 -0.0497
  292MOL0     H39413   7.919   6.977   1.231  0.3397 -2.0203  1.1355
  292MOL0     H39414   7.718   6.949   1.367  0.1459  0.2759 -0.0072
  292MOL0     H39415   7.727   6.785   1.305  1.9543  0.0405 -0.4227
  292MOL0     H39416   7.553   7.023   1.194  0.0779  0.5916 -1.4138
  292MOL0     H39417   7.492   6.882   1.275  0.5207 -0.2530 -1.1369
  292MOL0     H39418   7.532   6.781   0.865 -0.8587 -1.7660  0.3511
  292MOL0     H39419   8.015   6.616   0.990  0.0228 -2.9362 -0.3942
  292MOL0     H39420   8.224   6.511   0.914  1.6810  1.8928  0.0383
  293MOL0     O39421   7.616  11.295  11.325 -0.1684  1.1492 -0.3894
  293MOL0     C39422   7.640  11.254  11.440 -0.2479 -0.2653  0.2308
  293MOL0     O39423   7.762  11.246  11.489 -0.9499  0.2349 -0.2802
  293MOL0     C39424   7.861  11.296  11.412  0.8196 -0.3456 -0.1057
  293MOL0     C39425   7.912  11.419  11.448 -0.2322  0.3945 -0.1257
  293MOL0     C39426   8.027  11.475  11.384 -0.2267 -0.5425  0.8444
  293MOL0     C39427   8.087  11.404  11.272 -0.3410 -0.2605 -0.1281
  293MOL0     O39428   8.187  11.445  11.186  0.0124  0.3266  0.6632
  293MOL0     C39429   8.217  11.584  11.179 -0.5860 -0.5437 -0.9842
  293MOL0     C39430   8.248  11.640  11.035 -0.5765 -0.4227 -0.2337
  293MOL0     C39431   8.311  11.784  11.047 -0.1326  0.2188  1.1427
  293MOL0     C39432   8.208  11.903  11.053  0.3414 -0.6003 -0.0660
  293MOL0     C39433   8.280  12.046  11.068 -0.0672 -0.3026 -0.4338
  293MOL0     C39434   8.394  12.080  10.964  0.7110 -0.4471  0.1328
  293MOL0     C39435   8.339  12.102  10.824 -0.2511  0.3757  0.3868
  293MOL0     C39436   8.447  12.154  10.720  0.5414 -0.2431 -0.0571
  293MOL0     N39437   8.388  12.200  10.599 -0.0004 -1.2300 -0.4902
  293MOL0     C39438   8.356  12.123  10.488  0.1109  0.0685 -0.3652
  293MOL0     C39439   8.322  12.211  10.394 -0.3152  0.3856 -0.2231
  293MOL0     C39440   8.286  12.168  10.251  0.2740  0.0735 -1.0461
  293MOL0     C39441   8.146  12.216  10.212  0.1889 -0.4729  0.1022
  293MOL0     C39442   8.043  12.145  10.304  0.3641 -0.6011  0.4876
  293MOL0     C39443   7.989  11.990  10.283  0.5859 -1.0147 -0.6153
  293MOL0     O39444   7.858  11.965  10.332  0.0263 -0.4847  1.0517
  293MOL0     C39445   7.804  11.847  10.303 -0.3744  0.1773  0.1579
  293MOL0     C39446   7.859  11.759  10.210  0.3303  0.3747 -0.2447
  293MOL0     C39447   7.790  11.643  10.180 -0.3500  0.5746  0.6445
  293MOL0     C39448   7.853  11.549  10.084  0.8926 -1.5623 -0.3599
  293MOL0     C39449   7.665  11.619  10.251  0.2372 -0.5676  0.3455
  293MOL0     C39450   7.593  11.495  10.238  0.4448  0.3707  0.4533
  293MOL0     O39451   7.532  11.442  10.351  0.2112  0.0930 -0.7695
  293MOL0     C39452   7.484  11.317  10.339  0.1469 -0.8505 -0.0583
  293MOL0     C39453   7.576  11.216  10.377  0.9076 -0.2943  0.1121
  293MOL0     C39454   7.546  11.074  10.363 -0.0136  0.1523  0.0267
  293MOL0     C39455   7.412  11.041  10.334 -0.6210  0.0873  0.1860
  293MOL0     O39456   7.367  10.917  10.313 -0.2137 -0.6038  0.5666
  293MOL0     C39457   7.439  10.796  10.333  0.4095  0.0747 -0.9338
  293MOL0     C39458   7.379  10.679  10.246 -0.2670 -0.2991  0.3262
  293MOL0     C39459   7.444  10.689  10.095 -0.4779  0.2383 -0.2043
  293MOL0     C39460   7.514  10.557  10.056  1.0908 -0.1877 -0.4995
  293MOL0     C39461   7.578  10.568   9.911 -0.7839  0.9508  0.1989
  293MOL0     C39462   7.664  10.438   9.898  0.0842  1.6195  0.1463
  293MOL0     C39463   7.780  10.454   9.797 -0.3551 -0.4941 -0.4012
  293MOL0     C39464   7.741  10.456   9.649  0.6839  0.1925 -0.3991
  293MOL0    Cl39465   7.621  10.325   9.616  0.2268 -0.1228 -0.0480
  293MOL0     C39466   7.326  11.139  10.308  0.6259 -0.6130  0.0986
  293MOL0     C39467   7.356  11.273  10.308  0.3426  0.2386 -0.2935
  293MOL0     O39468   7.584  11.450  10.127  0.4344 -0.1544 -0.3392
  293MOL0     C39469   7.609  11.710  10.339 -1.3701 -1.2072  0.1297
  293MOL0     C39470   7.678  11.826  10.360 -0.6160  0.3356 -0.0155
  293MOL0     N39471   8.326  12.345  10.447 -0.2394 -0.1987  0.3854
  293MOL0     N39472   8.371  12.341  10.567 -0.5089 -0.2840 -0.2649
  293MOL0     C39473   8.030  11.280  11.253  1.1799  0.3542  0.0892
  293MOL0     C39474   7.924  11.218  11.315  0.7713  0.4445  0.8417
  293MOL0     C39475   7.525  11.207  11.521  0.3398  0.4240 -0.4420
  293MOL0     C39476   7.542  11.188  11.664  0.0221 -0.3632 -0.3326
  293MOL0     C39477   7.426  11.165  11.742  0.3089 -0.8047 -1.3365
  293MOL0     C39478   7.300  11.144  11.687 -0.2971 -0.0780  0.3673
  293MOL0     O39479   7.196  11.101  11.756  0.2203 -0.3506  0.0407
  293MOL0     C39480   7.213  10.970  11.821  0.5881 -1.4126  1.0437
  293MOL0     C39481   7.144  10.850  11.749  0.7805  0.1952  0.0299
  293MOL0     C39482   6.998  10.859  11.766  1.0394  0.0609  0.3174
  293MOL0     C39483   6.931  10.798  11.639 -0.8309 -0.5308 -0.0247
  293MOL0     C39484   6.788  10.844  11.619  0.5181 -0.0278  0.5781
  293MOL0     C39485   6.671  10.893  11.591  0.2019  0.1980 -0.1347
  293MOL0     C39486   7.289  11.158  11.550  0.0894  0.0093 -0.3486
  293MOL0     C39487   7.397  11.181  11.465  0.0995 -0.2356  0.6947
  293MOL0     H39488   7.871  11.480  11.528  3.2961 -0.4088  2.5450
  293MOL0     H39489   8.071  11.570  11.413  0.4744  0.3764 -2.7444
  293MOL0     H39490   8.134  11.643  11.219 -0.5683 -2.8337  2.9662
  293MOL0     H39491   8.299  11.611  11.246 -2.4715  2.4050  0.3289
  293MOL0     H39492   8.322  11.573  10.992  0.6073 -0.2228  1.3656
  293MOL0     H39493   8.153  11.643  10.981  0.9559  2.4464 -3.1322
  293MOL0     H39494   8.378  11.790  11.133  0.5152  0.0438  0.6551
  293MOL0     H39495   8.377  11.790  10.960  1.2080  1.5806  2.2073
  293MOL0     H39496   8.147  11.912  10.962 -0.1837 -2.3976  0.0604
  293MOL0     H39497   8.129  11.887  11.127 -0.6876  0.0063 -1.0104
  293MOL0     H39498   8.207  12.127  11.075 -0.8162 -1.0341  0.5448
  293MOL0     H39499   8.322  12.050  11.169 -2.0017 -0.6366  0.4268
  293MOL0     H39500   8.450  12.162  11.011 -0.3800  0.9029 -0.8160
  293MOL0     H39501   8.461  11.997  10.940 -1.4380 -1.3133 -3.7989
  293MOL0     H39502   8.289  12.018  10.774  1.0959  1.0383 -2.2298
  293MOL0     H39503   8.256  12.172  10.833  1.1225  2.3893 -1.4291
  293MOL0     H39504   8.512  12.067  10.709  2.5791  0.7200  2.9527
  293MOL0     H39505   8.490  12.241  10.770 -3.5815  1.5631  0.7246
  293MOL0     H39506   8.370  12.016  10.475  0.9241  0.3315 -1.8477
  293MOL0     H39507   8.366  12.194  10.181  1.1600  0.9006  0.2449
  293MOL0     H39508   8.269  12.061  10.234 -3.9470  0.3414  0.2670
  293MOL0     H39509   8.135  12.195  10.105 -0.9772  1.7994 -0.2716
  293MOL0     H39510   8.133  12.324  10.221  0.8381  0.2258 -4.6838
  293MOL0     H39511   7.958  12.209  10.279  2.0759  2.5957  2.2170
  293MOL0     H39512   8.054  12.172  10.410 -0.2638  2.8211 -0.2021
  293MOL0     H39513   8.060  11.918  10.326 -0.5885 -0.3801  2.7189
  293MOL0     H39514   7.994  11.988  10.174 -2.1726 -0.6891 -0.8303
  293MOL0     H39515   7.957  11.775  10.167  1.8890  1.2457  3.2060
  293MOL0     H39516   7.882  11.458  10.138  0.7748 -1.0670  0.5472
  293MOL0     H39517   7.784  11.520  10.005 -0.8408 -2.3272  1.3705
  293MOL0     H39518   7.937  11.602  10.038 -0.8819  0.1222 -1.8252
  293MOL0     H39519   7.676  11.237  10.414  1.3700 -3.1472  0.7384
  293MOL0     H39520   7.613  11.004  10.411  3.1194  2.2788 -0.9234
  293MOL0     H39521   7.547  10.800  10.318  0.7063 -1.4864  0.3694
  293MOL0     H39522   7.424  10.775  10.440 -3.4615  0.1903 -1.3169
  293MOL0     H39523   7.418  10.585  10.286  2.8710  0.0136 -1.6642
  293MOL0     H39524   7.270  10.690  10.252 -0.2937 -0.7234  0.7060
  293MOL0     H39525   7.528  10.759  10.102  0.3641 -0.8265  0.6947
  293MOL0     H39526   7.372  10.719  10.019  0.4473  1.6671 -0.5615
  293MOL0     H39527   7.592  10.530  10.127 -1.4189 -4.4122  1.0577
  293MOL0     H39528   7.438  10.479  10.069 -0.8147  1.9098  2.1241
  293MOL0     H39529   7.638  10.659   9.906  0.3884  0.2547  1.1363
  293MOL0     H39530   7.504  10.559   9.831  1.6446  0.8560 -2.1911
  293MOL0     H39531   7.709  10.425   9.997 -1.4249  3.2340  1.1072
  293MOL0     H39532   7.603  10.352   9.869 -0.0205  1.8446 -0.3012
  293MOL0     H39533   7.843  10.367   9.817  2.2544  1.1128 -1.2092
  293MOL0     H39534   7.846  10.539   9.813  1.4642 -1.7568 -0.8937
  293MOL0     H39535   7.835  10.444   9.593 -0.0163 -1.3467 -1.3146
  293MOL0     H39536   7.687  10.544   9.615  0.9519  0.5242  0.0212
  293MOL0     H39537   7.222  11.111  10.295  0.9996 -2.5090  0.9051
  293MOL0     H39538   7.278  11.343  10.282 -0.5245  0.4779  2.5853
  293MOL0     H39539   7.521  11.692  10.399 -0.6854  0.4038  1.7228
  293MOL0     H39540   7.643  11.905  10.426  1.0790  1.0256  0.1061
  293MOL0     H39541   8.059  11.217  11.169 -3.0197  0.1603 -1.4277
  293MOL0     H39542   7.894  11.116  11.294 -2.6975  1.3234  0.9376
  293MOL0     H39543   7.644  11.186  11.700  0.1797  0.1788 -0.7324
  293MOL0     H39544   7.435  11.158  11.850  0.1473 -1.1845 -1.3464
  293MOL0     H39545   7.321  10.957  11.820  1.5061  3.9166  0.1324
  293MOL0     H39546   7.165  10.976  11.919  0.2562 -3.2427  1.0183
  293MOL0     H39547   7.169  10.755  11.797 -0.5885 -0.7680 -1.0605
  293MOL0     H39548   7.176  10.853  11.644  2.7349 -2.0116  0.4808
  293MOL0     H39549   6.973  10.964  11.780  0.6090 -0.2411  2.0038
  293MOL0     H39550   6.959  10.807  11.854 -0.3090  3.7750  2.0922
  293MOL0     H39551   6.951  10.691  11.642  0.0155 -0.4765 -1.9454
  293MOL0     H39552   6.976  10.828  11.543 -1.8724  0.9840 -0.0758
  293MOL0     H39553   6.584  10.945  11.557 -1.3227 -1.0567  1.6689
  293MOL0     H39554   7.197  11.133  11.499 -0.1949 -0.3619  0.3246
  293MOL0     H39555   7.369  11.196  11.362 -0.1085  1.9412  1.0182
  294MOL0     O39556  11.046   6.504   8.989  1.0780  0.0693 -0.4157
  294MOL0     C39557  11.157   6.526   8.948 -0.2830 -0.1319 -1.1766
  294MOL0     O39558  11.243   6.608   9.010 -0.1575 -0.2119  0.0586
  294MOL0     C39559  11.216   6.653   9.136  0.0267 -0.2633 -0.0318
  294MOL0     C39560  11.307   6.629   9.243  0.0877  0.7471  1.1213
  294MOL0     C39561  11.268   6.664   9.367  0.8026  0.2277  1.3070
  294MOL0     C39562  11.153   6.741   9.391  0.0711  0.7052  1.1211
  294MOL0     O39563  11.100   6.777   9.517 -0.3421 -0.4352  0.1723
  294MOL0     C39564  11.191   6.809   9.625 -0.0579 -0.5149 -0.2715
  294MOL0     C39565  11.277   6.932   9.590  0.2053  0.2353  0.6223
  294MOL0     C39566  11.370   6.962   9.717  0.1101  0.0593 -0.1038
  294MOL0     C39567  11.298   6.981   9.856  0.1165  0.1581  0.7629
  294MOL0     C39568  11.384   7.027   9.966 -0.7155 -0.2894  1.1118
  294MOL0     C39569  11.448   7.164   9.961  0.1606 -0.7276  0.2540
  294MOL0     C39570  11.522   7.196  10.092 -0.1853  0.6446  0.3653
  294MOL0     C39571  11.633   7.094  10.107 -0.6565  0.1264 -0.2754
  294MOL0     N39572  11.710   7.072   9.981 -0.5146  0.9217 -0.0289
  294MOL0     C39573  11.701   6.962   9.904  0.9295 -0.0701  0.7759
  294MOL0     C39574  11.798   6.978   9.813 -0.6354  0.4608 -0.1050
  294MOL0     C39575  11.841   6.886   9.707 -0.3312 -0.1161  0.3986
  294MOL0     C39576  11.981   6.826   9.724 -0.4971  0.6735  0.5374
  294MOL0     C39577  12.042   6.735   9.611  0.3463  0.0293 -0.5735
  294MOL0     C39578  11.960   6.612   9.585 -0.1794 -0.0949 -0.7534
  294MOL0     O39579  11.825   6.645   9.547 -0.2785  0.3428 -0.0072
  294MOL0     C39580  11.811   6.696   9.417 -0.2885  0.7681  0.4237
  294MOL0     C39581  11.896   6.671   9.309  0.2532  0.2584 -0.6218
  294MOL0     C39582  11.875   6.714   9.178 -0.2366  0.4908 -0.9661
  294MOL0     C39583  11.976   6.662   9.080  0.9862  0.1056 -0.3955
  294MOL0     C39584  11.755   6.782   9.143  0.5255 -0.3367 -0.6864
  294MOL0     C39585  11.732   6.828   9.003  0.3802 -0.8356  0.2303
  294MOL0     O39586  11.607   6.903   8.999 -0.0519  0.1084 -0.0584
  294MOL0     C39587  11.575   6.946   8.876  0.5985 -0.3078  0.1333
  294MOL0     C39588  11.625   7.069   8.832  0.8102  0.2007 -0.6988
  294MOL0     C39589  11.606   7.127   8.706  0.8360  0.5401 -0.4398
  294MOL0     C39590  11.543   7.047   8.608 -0.5528  0.0751  0.7813
  294MOL0     O39591  11.504   7.086   8.480  0.3765  0.4992  0.9458
  294MOL0     C39592  11.594   7.180   8.420 -0.6909 -0.4701  0.0194
  294MOL0     C39593  11.560   7.229   8.277  0.8605  1.3138  0.4348
  294MOL0     C39594  11.485   7.123   8.196  0.7404 -0.0141 -0.6653
  294MOL0     C39595  11.463   7.171   8.044  1.3938 -0.1097 -0.1430
  294MOL0     C39596  11.385   7.059   7.974  0.1862 -0.7412  0.3199
  294MOL0     C39597  11.348   7.093   7.833 -0.2076 -0.3891 -0.0991
  294MOL0     C39598  11.466   7.161   7.757  0.6016 -1.4387 -1.7403
  294MOL0     C39599  11.442   7.151   7.607 -0.6959 -0.3067 -0.3821
  294MOL0    Cl39600  11.466   6.986   7.552  0.1256 -0.5142 -0.1012
  294MOL0     C39601  11.495   6.925   8.651  0.2181  0.0324  0.4155
  294MOL0     C39602  11.506   6.869   8.779  0.7701 -0.1244 -0.1564
  294MOL0     O39603  11.806   6.810   8.909  0.8477  0.0590 -0.3745
  294MOL0     C39604  11.663   6.798   9.250 -0.1046  0.2826  0.0489
  294MOL0     C39605  11.693   6.759   9.383  0.1432 -0.4506 -0.0397
  294MOL0     N39606  11.847   7.105   9.819 -0.8397 -0.6214 -0.6364
  294MOL0     N39607  11.804   7.161   9.923 -0.2802 -0.4359  0.2732
  294MOL0     C39608  11.069   6.766   9.285 -0.3198  1.1273  0.7038
  294MOL0     C39609  11.101   6.727   9.159 -0.1593 -1.0293  0.4107
  294MOL0     C39610  11.202   6.472   8.814  0.3903 -0.9791 -0.5410
  294MOL0     C39611  11.117   6.399   8.724  0.0822 -0.5456 -0.1672
  294MOL0     C39612  11.154   6.353   8.599 -0.6007 -0.4561 -0.1834
  294MOL0     C39613  11.283   6.374   8.564 -0.1077 -0.0094  0.4261
  294MOL0     O39614  11.309   6.338   8.434 -0.2447  0.0767 -0.2494
  294MOL0     C39615  11.440   6.310   8.380 -0.2635 -0.4793  0.2397
  294MOL0     C39616  11.480   6.168   8.409  0.0341  0.2215 -0.4918
  294MOL0     C39617  11.541   6.148   8.550  1.0702  0.4360  1.4335
  294MOL0     C39618  11.605   6.008   8.554  0.4987  0.3526 -0.0410
  294MOL0     C39619  11.740   6.005   8.614  0.4513  0.6505 -0.6644
  294MOL0     C39620  11.844   6.015   8.678 -1.0120  0.8422  0.3483
  294MOL0     C39621  11.377   6.440   8.648 -0.4475  0.1202  0.7261
  294MOL0     C39622  11.332   6.497   8.769  0.5731  0.0033  0.7726
  294MOL0     H39623  11.396   6.568   9.235 -0.6025 -0.4251  1.8755
  294MOL0     H39624  11.315   6.622   9.456  0.1427 -1.7574  0.7730
  294MOL0     H39625  11.136   6.819   9.718  0.6792 -2.5458  0.4416
  294MOL0     H39626  11.266   6.731   9.637  0.1741 -0.2981 -0.2970
  294MOL0     H39627  11.335   6.913   9.500 -2.2845 -0.1494 -1.0136
  294MOL0     H39628  11.211   7.015   9.565 -0.4593 -0.3321  0.4433
  294MOL0     H39629  11.438   6.876   9.723  1.1995  0.9186  0.3194
  294MOL0     H39630  11.428   7.052   9.695  0.3245  0.2093  1.0112
  294MOL0     H39631  11.226   7.063   9.843  0.6287  0.2166 -2.4322
  294MOL0     H39632  11.248   6.889   9.889  0.3472 -0.7782 -1.3567
  294MOL0     H39633  11.319   7.036  10.053  1.0930  1.8513  2.3488
  294MOL0     H39634  11.455   6.947   9.990  1.5752  1.8816  1.9299
  294MOL0     H39635  11.504   7.183   9.869  3.5287  1.9833  2.6043
  294MOL0     H39636  11.374   7.244   9.961 -0.5087 -1.3256 -0.5522
  294MOL0     H39637  11.577   7.289  10.072  1.7747 -0.2130  1.4197
  294MOL0     H39638  11.452   7.213  10.174  2.0005  0.2385  2.4363
  294MOL0     H39639  11.596   6.999  10.148 -0.3647  0.8840  1.8757
  294MOL0     H39640  11.702   7.136  10.180 -0.2308  1.0905 -1.2182
  294MOL0     H39641  11.638   6.873   9.907 -3.5186  2.6649 -1.5255
  294MOL0     H39642  11.761   6.812   9.713 -0.4587  0.1391  2.7414
  294MOL0     H39643  11.826   6.934   9.610 -0.7022  0.6049  0.8118
  294MOL0     H39644  11.973   6.769   9.817 -3.1909 -1.6909 -1.0003
  294MOL0     H39645  12.050   6.911   9.722 -0.6529  0.8074 -1.3495
  294MOL0     H39646  12.144   6.711   9.643 -0.9530 -1.2269  3.2585
  294MOL0     H39647  12.051   6.777   9.510 -2.4434  0.5224 -0.7061
  294MOL0     H39648  11.955   6.553   9.676 -1.1686 -2.3389 -2.1699
  294MOL0     H39649  12.027   6.553   9.521  2.0304  1.4633  0.0109
  294MOL0     H39650  11.986   6.613   9.326  0.0006  0.2160  0.6951
  294MOL0     H39651  12.022   6.742   9.022  0.2494 -0.9941 -2.6412
  294MOL0     H39652  12.056   6.613   9.135 -1.8846 -1.8688  2.3916
  294MOL0     H39653  11.930   6.591   9.010  0.1278 -0.3864  0.6293
  294MOL0     H39654  11.669   7.142   8.899 -2.6920  2.0630 -0.1827
  294MOL0     H39655  11.631   7.230   8.685 -0.3885  1.6696  2.9364
  294MOL0     H39656  11.595   7.273   8.477  1.9659  0.3691 -1.2497
  294MOL0     H39657  11.692   7.131   8.415 -1.3288 -1.8195  0.2026
  294MOL0     H39658  11.487   7.309   8.292 -0.7822 -0.2915  1.4755
  294MOL0     H39659  11.653   7.255   8.226  1.7409 -3.0130 -0.5784
  294MOL0     H39660  11.386   7.098   8.233  0.7986  0.1818 -0.3777
  294MOL0     H39661  11.537   7.027   8.191 -3.5308 -2.5284 -1.2968
  294MOL0     H39662  11.412   7.266   8.028  1.4388 -0.2149 -0.9357
  294MOL0     H39663  11.563   7.189   8.005  1.2526  0.1937 -0.3665
  294MOL0     H39664  11.291   7.032   8.023 -0.1216 -1.3487 -0.5652
  294MOL0     H39665  11.456   6.977   7.959 -0.8300 -1.0353 -4.6853
  294MOL0     H39666  11.317   7.004   7.777 -0.1193  0.9445 -2.3439
  294MOL0     H39667  11.266   7.164   7.816 -0.0025 -0.5253 -1.7863
  294MOL0     H39668  11.555   7.103   7.782  3.4982  3.4256  0.7992
  294MOL0     H39669  11.474   7.261   7.801 -0.4956 -2.0644 -0.0132
  294MOL0     H39670  11.523   7.215   7.569 -1.5457  1.3281  0.4543
  294MOL0     H39671  11.344   7.189   7.578 -1.7551 -2.6095 -0.0512
  294MOL0     H39672  11.459   6.857   8.574 -0.4677  1.6385 -0.7533
  294MOL0     H39673  11.483   6.766   8.804  0.9038 -0.4076 -1.1640
  294MOL0     H39674  11.565   6.842   9.230 -0.1463  0.1598 -0.0134
  294MOL0     H39675  11.617   6.781   9.458  0.2195 -1.2503  0.2822
  294MOL0     H39676  10.971   6.810   9.300 -3.1009 -3.6598 -1.1985
  294MOL0     H39677  11.039   6.747   9.073 -2.1295 -1.4721  1.6679
  294MOL0     H39678  11.013   6.384   8.752 -0.5921 -0.5477 -2.4275
  294MOL0     H39679  11.077   6.308   8.538 -0.8693  0.6981 -0.7186
  294MOL0     H39680  11.432   6.320   8.272 -1.2634 -0.6197  0.2922
  294MOL0     H39681  11.515   6.378   8.422 -2.3991  1.2654  1.4416
  294MOL0     H39682  11.556   6.146   8.334  0.7930  1.5079 -0.1291
  294MOL0     H39683  11.393   6.103   8.392 -0.8483  1.6712 -1.8197
  294MOL0     H39684  11.466   6.163   8.627 -0.5397 -2.3179  0.5384
  294MOL0     H39685  11.603   6.234   8.576 -3.9065  3.9761  2.8973
  294MOL0     H39686  11.605   5.944   8.465 -3.1176  0.5986 -0.3452
  294MOL0     H39687  11.533   5.948   8.611 -1.1169  2.6843  0.5104
  294MOL0     H39688  11.940   6.022   8.724 -0.6556  0.8371 -0.3780
  294MOL0     H39689  11.483   6.456   8.631 -0.1402 -0.1595  2.2400
  294MOL0     H39690  11.386   6.563   8.836 -0.4412 -0.0043  1.6191
  295MOL0     O39691   4.828  11.014   7.722 -0.2108 -0.2720 -0.1695
  295MOL0     C39692   4.918  10.932   7.702 -0.4087  0.1074  0.3592
  295MOL0     O39693   4.996  10.931   7.594 -0.0135  0.2644  0.3277
  295MOL0     C39694   4.990  11.031   7.506  1.7067 -0.3331  0.0906
  295MOL0     C39695   4.960  11.003   7.371  0.4697  0.2674  0.4782
  295MOL0     C39696   4.957  11.104   7.269 -0.4930 -0.7190  0.0519
  295MOL0     C39697   4.996  11.233   7.306  0.2517  0.2473  0.4258
  295MOL0     O39698   5.000  11.342   7.219 -0.4623  0.6759 -0.0388
  295MOL0     C39699   5.026  11.310   7.082  0.6753 -0.4217 -0.0039
  295MOL0     C39700   5.070  11.445   6.995  0.5592  0.4250 -0.3649
  295MOL0     C39701   5.210  11.489   7.029  0.3135  0.3464 -0.1228
  295MOL0     C39702   5.228  11.625   6.954 -0.0795  0.1612  0.4788
  295MOL0     C39703   5.368  11.685   6.972 -0.5119 -0.3324  0.0225
  295MOL0     C39704   5.424  11.771   6.855  0.2498 -0.0213 -0.0133
  295MOL0     C39705   5.334  11.881   6.811  0.1073 -0.9180  0.3017
  295MOL0     C39706   5.408  11.983   6.720  0.3588  0.1336  0.4230
  295MOL0     N39707   5.322  12.092   6.680 -0.2044  0.1855 -0.4417
  295MOL0     C39708   5.191  12.077   6.630 -0.0567  0.0682  0.1059
  295MOL0     C39709   5.141  12.205   6.624  0.2915  0.0038 -1.0832
  295MOL0     C39710   5.021  12.253   6.549  0.2679 -1.0112 -0.3691
  295MOL0     C39711   5.054  12.393   6.500  0.8033 -0.6993  0.2100
  295MOL0     C39712   4.928  12.434   6.416  0.3529  0.5428  0.9004
  295MOL0     C39713   4.963  12.565   6.350  0.0365  0.3093  0.2828
  295MOL0     O39714   4.959  12.669   6.452 -0.2980  0.3624  0.4547
  295MOL0     C39715   4.833  12.722   6.490  0.0323 -0.0889  0.5654
  295MOL0     C39716   4.702  12.686   6.449  0.2250  0.1842 -0.7473
  295MOL0     C39717   4.585  12.757   6.491  0.4164 -0.5208  0.0633
  295MOL0     C39718   4.451  12.725   6.433 -0.7295  0.1524 -0.3746
  295MOL0     C39719   4.606  12.864   6.581  0.7175 -0.5305 -0.5371
  295MOL0     C39720   4.506  12.955   6.643  1.1709 -0.1841  1.1739
  295MOL0     O39721   4.538  13.079   6.679 -0.1107  0.2060 -0.1009
  295MOL0     C39722   4.444  13.153   6.741 -0.3866 -0.6763  0.0269
  295MOL0     C39723   4.362  13.253   6.687 -0.6341 -0.4597 -0.8119
  295MOL0     C39724   4.253  13.311   6.768  0.2286 -0.7089  0.6680
  295MOL0     C39725   4.241  13.282   6.901  0.7414 -0.4042 -0.5156
  295MOL0     O39726   4.127  13.319   6.980  0.6525  0.3281  0.0207
  295MOL0     C39727   4.007  13.249   6.943 -0.1649  0.4745  0.7377
  295MOL0     C39728   3.878  13.328   6.921  0.2397 -0.9229  0.5156
  295MOL0     C39729   3.840  13.428   7.034 -0.2065  0.1007  0.1038
  295MOL0     C39730   3.826  13.353   7.164  0.1058  0.2027  0.5769
  295MOL0     C39731   3.743  13.438   7.257 -0.1741  0.1662 -0.4233
  295MOL0     C39732   3.749  13.395   7.409  0.3481 -0.5889 -0.3418
  295MOL0     C39733   3.712  13.515   7.502 -0.0533 -0.3109 -0.5391
  295MOL0     C39734   3.826  13.602   7.538 -0.6857 -1.5547  0.0341
  295MOL0    Cl39735   3.961  13.519   7.634 -0.0763  0.8331  0.7834
  295MOL0     C39736   4.337  13.197   6.960 -0.2186  0.0187 -1.9429
  295MOL0     C39737   4.434  13.131   6.875  0.8032  0.2417  0.5743
  295MOL0     O39738   4.385  12.915   6.626 -0.3355 -0.5148 -0.4395
  295MOL0     C39739   4.736  12.897   6.623  0.2394  0.4715 -0.3775
  295MOL0     C39740   4.846  12.827   6.580 -0.3666  0.6559  0.1859
  295MOL0     N39741   5.233  12.289   6.684 -0.0883 -0.6861  0.5126
  295MOL0     N39742   5.340  12.221   6.721  0.8297 -0.4004  0.4730
  295MOL0     C39743   5.020  11.260   7.440 -0.8140 -0.2100  0.0796
  295MOL0     C39744   5.020  11.163   7.536 -0.0096 -0.0690 -0.4459
  295MOL0     C39745   4.942  10.832   7.812  0.0129 -0.5636  0.5261
  295MOL0     C39746   4.866  10.853   7.935 -1.5335  0.8088 -0.4223
  295MOL0     C39747   4.887  10.763   8.038  0.4613  0.8446 -0.3096
  295MOL0     C39748   4.967  10.650   8.031 -0.3296 -0.1615  0.5673
  295MOL0     O39749   5.000  10.586   8.146 -0.7336  0.0364 -0.7390
  295MOL0     C39750   5.073  10.463   8.145 -0.1240  0.4349  0.2490
  295MOL0     C39751   5.107  10.411   8.290  0.7025 -0.0906  0.7111
  295MOL0     C39752   4.995  10.365   8.380  0.0909  0.3981 -0.9276
  295MOL0     C39753   4.874  10.293   8.323  0.4094 -1.0190  0.1138
  295MOL0     C39754   4.753  10.381   8.308  0.0377 -0.0022  0.0131
  295MOL0     C39755   4.664  10.457   8.282  0.6164  0.4762 -0.1339
  295MOL0     C39756   5.046  10.644   7.917  0.0623 -0.4021  0.0513
  295MOL0     C39757   5.036  10.728   7.809 -0.6030 -0.0323 -0.3412
  295MOL0     H39758   4.934  10.898   7.354 -0.2398  0.3611  0.9177
  295MOL0     H39759   4.926  11.086   7.166 -1.5124 -0.6307  0.3278
  295MOL0     H39760   5.107  11.240   7.060 -0.5396 -1.3301 -1.9737
  295MOL0     H39761   4.942  11.269   7.024 -0.0664  2.5055 -1.1749
  295MOL0     H39762   5.067  11.425   6.887 -1.6486  2.6605 -0.8109
  295MOL0     H39763   5.000  11.529   7.000 -0.3972  0.0349 -4.1782
  295MOL0     H39764   5.206  11.503   7.137 -3.8258  0.3544 -0.1243
  295MOL0     H39765   5.283  11.411   7.006  2.3335  2.3487 -0.9160
  295MOL0     H39766   5.226  11.601   6.847  1.9945  1.4714  0.0787
  295MOL0     H39767   5.161  11.708   6.980  1.1948  0.7781  1.9742
  295MOL0     H39768   5.364  11.746   7.063 -0.0058  0.5084 -0.4990
  295MOL0     H39769   5.447  11.613   6.995 -1.0045 -0.6472  0.7607
  295MOL0     H39770   5.514  11.812   6.903  0.1813 -1.4595  1.4580
  295MOL0     H39771   5.456  11.708   6.772 -0.9826  0.1143 -0.6078
  295MOL0     H39772   5.256  11.843   6.745  1.5988  2.8773 -4.1360
  295MOL0     H39773   5.277  11.927   6.892 -1.8629  0.6396 -1.8352
  295MOL0     H39774   5.443  11.938   6.627 -0.2532 -1.3102  0.8511
  295MOL0     H39775   5.488  12.025   6.781 -1.4873  0.9535  2.4094
  295MOL0     H39776   5.143  11.989   6.589  0.5249  0.9793 -2.7376
  295MOL0     H39777   4.992  12.179   6.474 -2.0569 -2.1440  1.5166
  295MOL0     H39778   4.930  12.255   6.610  0.0896  0.4375 -0.6332
  295MOL0     H39779   5.149  12.399   6.444 -0.5717  1.5953 -2.1319
  295MOL0     H39780   5.057  12.466   6.581 -1.1062 -0.5372  0.1649
  295MOL0     H39781   4.836  12.437   6.474 -0.7753 -0.8168 -0.7213
  295MOL0     H39782   4.921  12.363   6.333  2.9273  0.2650  0.8255
  295MOL0     H39783   4.889  12.582   6.271 -1.2203 -0.4525  1.2432
  295MOL0     H39784   5.066  12.550   6.319  1.1504  3.6079  1.9872
  295MOL0     H39785   4.688  12.607   6.376 -0.6256  0.1814 -0.5996
  295MOL0     H39786   4.464  12.663   6.344 -3.4676 -2.1071  0.6701
  295MOL0     H39787   4.393  12.670   6.507 -0.0441  1.1626  0.9452
  295MOL0     H39788   4.390  12.812   6.406 -0.7873  0.4418  0.6530
  295MOL0     H39789   4.388  13.272   6.583  0.6491 -0.4858 -0.5184
  295MOL0     H39790   4.178  13.363   6.709  0.3390 -1.5825 -0.2915
  295MOL0     H39791   4.010  13.186   6.854 -1.8259  1.5770 -0.1535
  295MOL0     H39792   3.987  13.174   7.020  5.4687 -2.7507 -0.3939
  295MOL0     H39793   3.883  13.384   6.827  2.5815 -1.1234  0.4598
  295MOL0     H39794   3.795  13.262   6.896  0.8914 -1.1614 -1.1877
  295MOL0     H39795   3.747  13.475   7.001  0.7020  2.4794  0.6732
  295MOL0     H39796   3.921  13.502   7.039  1.2070 -1.4689  2.4746
  295MOL0     H39797   3.774  13.258   7.151  2.0627 -0.7249 -0.8078
  295MOL0     H39798   3.923  13.333   7.209  0.6312  2.0814  0.3604
  295MOL0     H39799   3.640  13.431   7.220 -1.0093 -3.0138  2.0523
  295MOL0     H39800   3.773  13.541   7.241 -1.9806  0.4577 -2.3875
  295MOL0     H39801   3.670  13.324   7.431 -0.9836  0.5272 -1.3172
  295MOL0     H39802   3.842  13.343   7.434  2.0055  1.9448 -0.8541
  295MOL0     H39803   3.666  13.475   7.593  3.8541  0.6108  2.0935
  295MOL0     H39804   3.637  13.578   7.453  2.9375  1.6806 -2.9194
  295MOL0     H39805   3.793  13.683   7.604 -1.0537 -0.9693 -0.8617
  295MOL0     H39806   3.870  13.644   7.448  2.6265 -2.4627  1.0782
  295MOL0     H39807   4.341  13.191   7.068 -0.3009  1.3781 -1.8425
  295MOL0     H39808   4.490  13.047   6.915  1.0590  1.0017  1.8921
  295MOL0     H39809   4.759  12.966   6.704  2.1477 -2.1672  1.4919
  295MOL0     H39810   4.944  12.849   6.619  0.4098  1.5304 -2.0750
  295MOL0     H39811   5.054  11.362   7.448 -0.0785 -0.2166 -2.2334
  295MOL0     H39812   5.034  11.195   7.639 -1.9484  0.8592 -0.4298
  295MOL0     H39813   4.798  10.936   7.953  0.4973  2.4435  0.1172
  295MOL0     H39814   4.839  10.795   8.130 -1.9608  0.3124 -1.3157
  295MOL0     H39815   5.018  10.394   8.079 -1.0081  1.7812 -0.4916
  295MOL0     H39816   5.173  10.474   8.102  0.2120 -0.7718  0.7063
  295MOL0     H39817   5.167  10.487   8.339  0.8011 -0.1695  0.7116
  295MOL0     H39818   5.188  10.337   8.284  1.4213  0.7282  0.1110
  295MOL0     H39819   4.978  10.449   8.447 -0.4671 -0.2388 -0.2517
  295MOL0     H39820   5.036  10.292   8.450  1.3439 -1.5810 -3.5153
  295MOL0     H39821   4.847  10.220   8.400  2.0228 -0.6397  1.0810
  295MOL0     H39822   4.907  10.247   8.229 -0.4909  0.2646 -0.8654
  295MOL0     H39823   4.579  10.520   8.270  1.3055  1.3149 -0.7236
  295MOL0     H39824   5.130  10.577   7.904  0.6018  0.4267 -0.8583
  295MOL0     H39825   5.109  10.716   7.730 -0.4189 -2.5479  0.1307
  296MOL0     O39826   5.903   2.794   1.816  0.3258  0.7757  0.8092
  296MOL0     C39827   5.842   2.864   1.740  0.0243 -0.4931  0.2862
  296MOL0     O39828   5.844   2.850   1.602  0.5710 -0.1943 -0.2892
  296MOL0     C39829   5.898   2.744   1.534 -0.1928  0.6394 -0.8635
  296MOL0     C39830   5.901   2.611   1.582  2.2037  0.1340 -0.2437
  296MOL0     C39831   5.941   2.507   1.497 -0.9766  1.2173  0.6039
  296MOL0     C39832   6.004   2.540   1.373  0.0265  0.0427  0.9507
  296MOL0     O39833   6.051   2.437   1.300 -0.1916 -0.7943 -0.1409
  296MOL0     C39834   6.094   2.315   1.358  0.5717 -0.2290 -0.7024
  296MOL0     C39835   6.206   2.332   1.472  1.0716  0.5738 -0.2612
  296MOL0     C39836   6.246   2.207   1.542 -0.4269  1.2861 -0.2274
  296MOL0     C39837   6.151   2.171   1.659  0.5537  0.3221 -0.3549
  296MOL0     C39838   6.167   2.029   1.699 -0.1115 -0.2913  0.3822
  296MOL0     C39839   6.098   1.985   1.833  0.0566 -0.0554  0.3246
  296MOL0     C39840   6.079   1.831   1.838 -0.0925  0.9034 -0.5137
  296MOL0     C39841   6.221   1.769   1.831 -0.0193 -0.3791  0.1002
  296MOL0     N39842   6.204   1.622   1.852  0.5157  0.4038  0.2985
  296MOL0     C39843   6.207   1.566   1.974  0.0306  0.2033 -0.1966
  296MOL0     C39844   6.168   1.438   1.947 -0.1613 -0.4963 -0.2281
  296MOL0     C39845   6.127   1.353   2.063 -0.6188  0.4892  0.1681
  296MOL0     C39846   6.240   1.327   2.165  0.6156  0.1605 -0.4010
  296MOL0     C39847   6.358   1.253   2.111 -0.2357 -0.0927 -0.0001
  296MOL0     C39848   6.333   1.102   2.141 -0.1439 -0.6559  0.8225
  296MOL0     O39849   6.438   1.015   2.083  0.5894 -0.5204 -0.6374
  296MOL0     C39850   6.555   0.988   2.148  0.2163 -0.7319 -0.0783
  296MOL0     C39851   6.657   0.912   2.094  0.3073 -0.4188  0.4733
  296MOL0     C39852   6.778   0.889   2.154 -0.9770  0.0819  0.1226
  296MOL0     C39853   6.874   0.791   2.089 -0.6828  0.6159  0.5165
  296MOL0     C39854   6.811   0.956   2.276 -0.2407  0.4156  0.4039
  296MOL0     C39855   6.934   0.937   2.358  0.0079 -1.3732 -0.3377
  296MOL0     O39856   6.978   1.041   2.440  0.6912 -0.6038 -0.8844
  296MOL0     C39857   7.095   1.030   2.498  0.1497 -0.7297  0.5248
  296MOL0     C39858   7.116   0.940   2.602  0.1364  0.1006 -0.3115
  296MOL0     C39859   7.236   0.957   2.675 -0.5264  0.0722  0.5724
  296MOL0     C39860   7.323   1.063   2.645 -0.0865  0.7802 -1.5970
  296MOL0     O39861   7.438   1.059   2.732  0.2976  0.5238 -0.2074
  296MOL0     C39862   7.560   1.100   2.695 -0.9275  0.7839 -0.1815
  296MOL0     C39863   7.669   1.072   2.800 -0.0466 -0.6345 -0.3949
  296MOL0     C39864   7.702   1.196   2.882 -0.5636  0.5272 -0.5307
  296MOL0     C39865   7.578   1.277   2.926  0.0961 -0.0786 -0.0809
  296MOL0     C39866   7.598   1.361   3.051  0.1451  0.6753  0.0883
  296MOL0     C39867   7.591   1.266   3.179  0.1445 -0.3753  1.3630
  296MOL0     C39868   7.653   1.323   3.307 -0.2407 -0.5081  0.4669
  296MOL0     C39869   7.799   1.354   3.297 -0.7714 -0.3580  0.6870
  296MOL0    Cl39870   7.873   1.430   3.449  0.3693 -0.0950 -0.0131
  296MOL0     C39871   7.302   1.152   2.545  0.1570 -0.0715 -1.1440
  296MOL0     C39872   7.181   1.135   2.472 -0.4170  0.4370 -0.2198
  296MOL0     O39873   6.988   0.827   2.351 -0.3093 -0.2483 -0.1925
  296MOL0     C39874   6.709   1.041   2.338 -0.7077 -0.3589 -0.0704
  296MOL0     C39875   6.583   1.051   2.272  0.4851 -0.4262  0.3052
  296MOL0     N39876   6.151   1.424   1.811 -0.2289  0.4323 -0.2085
  296MOL0     N39877   6.187   1.531   1.752 -0.4128  0.3629 -0.2613
  296MOL0     C39878   6.003   2.668   1.318  0.5063 -0.7003 -0.4128
  296MOL0     C39879   5.950   2.771   1.407  0.3994  0.1438  0.3306
  296MOL0     C39880   5.719   2.954   1.793 -0.2222  0.1964  0.4173
  296MOL0     C39881   5.708   2.970   1.931  0.4724  1.0311 -0.2207
  296MOL0     C39882   5.606   3.056   1.989 -0.7301 -0.2260 -0.3598
  296MOL0     C39883   5.517   3.129   1.904 -0.7893 -0.3231  0.6627
  296MOL0     O39884   5.427   3.210   1.966  0.0134  0.0353  0.7488
  296MOL0     C39885   5.376   3.322   1.881  0.2603 -0.4421  0.1678
  296MOL0     C39886   5.238   3.291   1.822  0.3956 -0.1489  0.1445
  296MOL0     C39887   5.119   3.331   1.923 -0.6832 -0.0347  0.1512
  296MOL0     C39888   5.034   3.424   1.846  0.4381 -0.1621  1.0866
  296MOL0     C39889   5.092   3.562   1.857  0.1231  0.4858  1.2957
  296MOL0     C39890   5.150   3.671   1.851 -0.2004  0.0720  0.2886
  296MOL0     C39891   5.526   3.102   1.759  0.4434 -0.3962  0.5931
  296MOL0     C39892   5.615   3.001   1.707 -0.1983 -0.1982  0.5141
  296MOL0     H39893   5.858   2.594   1.680  2.0709  1.4106 -0.0577
  296MOL0     H39894   5.921   2.404   1.527  1.0411 -0.3290 -2.7361
  296MOL0     H39895   6.006   2.266   1.401  0.9250  2.0643  3.0281
  296MOL0     H39896   6.132   2.253   1.275 -0.6089 -0.6866 -0.9240
  296MOL0     H39897   6.294   2.376   1.425 -0.3363  2.6300 -1.1003
  296MOL0     H39898   6.182   2.403   1.552  1.3878 -0.3399  0.6748
  296MOL0     H39899   6.254   2.125   1.470  1.7910 -2.9166  4.1439
  296MOL0     H39900   6.345   2.217   1.589  0.2309 -1.4943 -0.8250
  296MOL0     H39901   6.166   2.237   1.744  0.2339  1.3086 -1.0402
  296MOL0     H39902   6.045   2.189   1.640 -0.7518 -1.4674  4.0713
  296MOL0     H39903   6.140   1.966   1.614  1.0968 -1.1093  0.5842
  296MOL0     H39904   6.271   2.003   1.719 -0.3459  0.3533  2.8626
  296MOL0     H39905   6.168   2.008   1.914  0.5895  2.1468 -0.6811
  296MOL0     H39906   6.009   2.049   1.841  1.0242  1.4162 -0.2270
  296MOL0     H39907   6.034   1.789   1.929  1.8893 -0.4540 -0.0968
  296MOL0     H39908   6.026   1.791   1.751  1.9732 -4.2673  0.2356
  296MOL0     H39909   6.285   1.819   1.905 -0.4296 -2.4886  1.9688
  296MOL0     H39910   6.260   1.790   1.731  2.8837  1.5903  1.5016
  296MOL0     H39911   6.231   1.603   2.073  1.2418 -2.4913  0.6290
  296MOL0     H39912   6.042   1.393   2.119 -1.1777 -0.0447 -0.2891
  296MOL0     H39913   6.093   1.259   2.020 -0.3558 -0.1961  1.4200
  296MOL0     H39914   6.197   1.297   2.261  2.1369 -0.8682  0.0107
  296MOL0     H39915   6.290   1.422   2.188 -1.5724  0.9599  1.3819
  296MOL0     H39916   6.448   1.274   2.169 -0.0359 -0.2223 -0.2608
  296MOL0     H39917   6.366   1.275   2.004 -1.3004  0.3885  0.0127
  296MOL0     H39918   6.239   1.063   2.099  0.5654 -0.0104 -1.5355
  296MOL0     H39919   6.324   1.091   2.249 -0.1603 -0.0669  0.8840
  296MOL0     H39920   6.644   0.876   1.992  2.2334  1.8010 -0.6763
  296MOL0     H39921   6.854   0.754   1.988  3.0736 -0.4165 -0.0016
  296MOL0     H39922   6.966   0.849   2.084 -0.8920  0.8466 -1.0972
  296MOL0     H39923   6.889   0.703   2.152  2.1103 -1.8073 -3.1164
  296MOL0     H39924   7.049   0.859   2.628  2.3158 -1.1065  1.9703
  296MOL0     H39925   7.264   0.881   2.749 -0.7577  0.0701  0.6588
  296MOL0     H39926   7.587   1.039   2.609  0.4912 -1.6835  1.8640
  296MOL0     H39927   7.567   1.205   2.665 -0.6157  0.9539  0.4664
  296MOL0     H39928   7.635   0.996   2.871  1.2564 -0.6894  0.2011
  296MOL0     H39929   7.759   1.039   2.746  0.6955  3.5761 -2.0639
  296MOL0     H39930   7.755   1.265   2.816 -1.7439  1.3634 -0.6231
  296MOL0     H39931   7.762   1.185   2.973 -0.0998  1.3309 -0.7298
  296MOL0     H39932   7.556   1.344   2.842 -0.6215  0.8064  0.7932
  296MOL0     H39933   7.498   1.204   2.943  0.9277 -0.2113  4.6441
  296MOL0     H39934   7.516   1.431   3.064 -0.1838  0.0326  1.7538
  296MOL0     H39935   7.693   1.414   3.045  0.9121 -0.6641 -0.0273
  296MOL0     H39936   7.484   1.245   3.190 -1.3336  2.6024 -3.9704
  296MOL0     H39937   7.642   1.172   3.156  1.0084  0.9022 -2.5453
  296MOL0     H39938   7.632   1.248   3.385  3.3733 -1.1119  1.0223
  296MOL0     H39939   7.591   1.409   3.334  0.2655 -0.2285  0.7496
  296MOL0     H39940   7.815   1.430   3.220 -0.5115 -3.0390 -2.0605
  296MOL0     H39941   7.853   1.264   3.267 -0.7220  0.3549 -1.5486
  296MOL0     H39942   7.362   1.241   2.526 -1.9435  1.6165 -0.3590
  296MOL0     H39943   7.144   1.209   2.402 -0.4370 -1.9341 -2.8562
  296MOL0     H39944   6.723   1.099   2.429  4.2513 -1.6771  0.2960
  296MOL0     H39945   6.512   1.117   2.320  0.0188 -0.9504  0.3508
  296MOL0     H39946   6.052   2.682   1.223  1.9978 -0.6267  0.3445
  296MOL0     H39947   5.940   2.878   1.391 -1.2640 -0.1842 -1.1456
  296MOL0     H39948   5.787   2.931   1.995 -0.3392  1.0460  0.8064
  296MOL0     H39949   5.604   3.070   2.096 -1.5141  0.3766 -0.4391
  296MOL0     H39950   5.377   3.416   1.936 -1.5973 -1.8633  2.8682
  296MOL0     H39951   5.449   3.342   1.802  2.1891  2.5614  2.4865
  296MOL0     H39952   5.235   3.183   1.804  0.0922 -0.7208  3.1361
  296MOL0     H39953   5.225   3.334   1.722  1.2254 -1.0829 -0.3785
  296MOL0     H39954   5.153   3.371   2.019 -1.5101 -0.6593  0.7188
  296MOL0     H39955   5.068   3.237   1.946 -0.1315 -0.3805 -0.0251
  296MOL0     H39956   4.933   3.416   1.889 -0.5853 -2.2388 -1.3995
  296MOL0     H39957   5.023   3.389   1.743 -2.4563 -0.5863  1.4506
  296MOL0     H39958   5.197   3.767   1.848 -4.9689  2.7335 -0.2235
  296MOL0     H39959   5.470   3.155   1.683  0.2756  1.8780  2.1971
  296MOL0     H39960   5.618   2.992   1.599  0.3585  2.1503  0.2748
  297MOL0     O39961   4.167   2.976  10.870  0.7538 -0.2649  0.7869
  297MOL0     C39962   4.277   3.017  10.906  0.6306 -0.0695  0.6742
  297MOL0     O39963   4.313   3.155  10.909  0.1222 -0.3528 -0.0786
  297MOL0     C39964   4.209   3.246  10.898 -0.8797  0.5578  1.0803
  297MOL0     C39965   4.214   3.344  10.796 -0.1439  0.0424 -0.5458
  297MOL0     C39966   4.103   3.427  10.787 -0.2285 -0.2745 -0.5304
  297MOL0     C39967   3.995   3.427  10.872 -0.1802 -0.9838  0.6628
  297MOL0     O39968   3.881   3.505  10.860  0.2889  0.5950  0.3407
  297MOL0     C39969   3.860   3.566  10.729  0.0886 -0.4985  0.0299
  297MOL0     C39970   3.742   3.649  10.767 -0.4802  1.0329  0.1729
  297MOL0     C39971   3.661   3.685  10.642  0.8769 -0.1669 -0.0732
  297MOL0     C39972   3.740   3.785  10.554 -0.3728  0.3162 -0.3607
  297MOL0     C39973   3.675   3.826  10.424  0.1195 -0.5403  0.7953
  297MOL0     C39974   3.566   3.935  10.423  0.1661  0.0275 -0.4683
  297MOL0     C39975   3.628   4.069  10.486 -0.1706  0.1419 -0.6086
  297MOL0     C39976   3.517   4.168  10.467  0.0745  0.5921  0.0236
  297MOL0     N39977   3.575   4.302  10.443  0.4293 -0.5472 -0.0306
  297MOL0     C39978   3.651   4.382  10.526 -0.0576  0.5249  0.2931
  297MOL0     C39979   3.690   4.485  10.450 -0.4601  0.0284 -0.0021
  297MOL0     C39980   3.768   4.609  10.509 -0.4516  0.4211  0.8996
  297MOL0     C39981   3.714   4.752  10.475  1.0050 -0.0316  0.4209
  297MOL0     C39982   3.779   4.865  10.553  0.4059  0.3732  0.0680
  297MOL0     C39983   3.709   4.998  10.525 -0.6182  0.6162 -0.5861
  297MOL0     O39984   3.738   5.046  10.394 -0.7653  0.5673 -0.3674
  297MOL0     C39985   3.722   5.180  10.383  0.8171 -0.3234 -0.1707
  297MOL0     C39986   3.763   5.242  10.263  0.6077 -0.6768 -0.0397
  297MOL0     C39987   3.755   5.380  10.241  0.8252 -0.6062  0.0657
  297MOL0     C39988   3.822   5.436  10.113  0.0924  1.3268  0.1623
  297MOL0     C39989   3.675   5.461  10.323  0.8437  0.5694 -0.0150
  297MOL0     C39990   3.650   5.601  10.308  0.7225  0.5458  0.3041
  297MOL0     O39991   3.619   5.678  10.415  0.0823  0.6796 -0.3397
  297MOL0     C39992   3.595   5.812  10.397  0.0405  0.0373  0.3916
  297MOL0     C39993   3.479   5.842  10.328 -0.8890 -0.2303 -0.3004
  297MOL0     C39994   3.440   5.975  10.310 -0.4220  0.3049  0.4535
  297MOL0     C39995   3.521   6.076  10.355 -1.0016  0.6533  1.0269
  297MOL0     O39996   3.484   6.205  10.318  0.0734 -0.7274 -0.8102
  297MOL0     C39997   3.588   6.298  10.289  0.6904  0.4018 -0.1505
  297MOL0     C39998   3.520   6.423  10.247  0.8161  0.2217 -0.3349
  297MOL0     C39999   3.451   6.414  10.107  0.9640 -0.0188  0.0888
  297MOL0     C40000   3.358   6.534  10.075 -0.7545  0.4641 -0.1129
  297MOL0     C40001   3.310   6.532   9.929 -0.6907  0.0765 -0.0854
  297MOL0     C40002   3.184   6.433   9.918  0.0155 -0.3374  0.3848
  297MOL0     C40003   3.122   6.429   9.785  0.2918  0.3700 -0.5332
  297MOL0     C40004   3.080   6.292   9.733  0.4626  0.2574  0.1297
  297MOL0    Cl40005   3.043   6.304   9.545  0.0673  0.0150  0.0185
  297MOL0     C40006   3.641   6.043  10.414 -0.9096  0.1481 -0.5489
  297MOL0     C40007   3.688   5.909  10.434  0.8027 -0.0828 -0.8578
  297MOL0     O40008   3.656   5.644  10.193 -0.3184 -0.3366  0.6613
  297MOL0     C40009   3.621   5.400  10.434  0.1693  0.2503  0.3447
  297MOL0     C40010   3.657   5.271  10.471 -0.2652  0.1851 -0.1038
  297MOL0     N40011   3.646   4.468  10.317  0.5082 -0.3214  0.3573
  297MOL0     N40012   3.559   4.366  10.325  0.1022 -0.4789  0.4803
  297MOL0     C40013   3.982   3.327  10.962  0.5532  0.5419 -0.4512
  297MOL0     C40014   4.095   3.244  10.981  0.1534  0.3046  0.9281
  297MOL0     C40015   4.381   2.913  10.956  0.1795 -1.2573 -0.8459
  297MOL0     C40016   4.514   2.955  11.003  0.7058  0.2826 -0.7550
  297MOL0     C40017   4.607   2.869  11.056 -0.2025 -0.3277 -0.6554
  297MOL0     C40018   4.576   2.732  11.052  0.1937  0.6699  0.6013
  297MOL0     O40019   4.665   2.630  11.076  0.9308 -0.2983  0.1054
  297MOL0     C40020   4.622   2.518  11.154 -0.8310 -0.6362  0.5202
  297MOL0     C40021   4.748   2.438  11.168 -0.7680 -0.1311  0.3147
  297MOL0     C40022   4.857   2.499  11.253 -0.0068 -0.7878  0.1740
  297MOL0     C40023   4.966   2.406  11.270 -0.5040 -0.4522  0.5530
  297MOL0     C40024   4.937   2.308  11.377  0.5971  0.4191  1.5260
  297MOL0     C40025   4.919   2.233  11.468  0.3894  0.5160 -0.2586
  297MOL0     C40026   4.448   2.688  11.002  0.1995  0.3104  0.6980
  297MOL0     C40027   4.351   2.778  10.954 -1.1451 -0.0677  0.3116
  297MOL0     H40028   4.307   3.356  10.741  2.3740 -1.7775  2.8863
  297MOL0     H40029   4.115   3.511  10.721  0.7893 -0.6639 -0.8546
  297MOL0     H40030   3.941   3.634  10.701 -0.0261  0.3017  1.5478
  297MOL0     H40031   3.841   3.489  10.654  3.2386 -0.9905 -0.4014
  297MOL0     H40032   3.671   3.591  10.826  1.1631 -1.1556  0.0929
  297MOL0     H40033   3.771   3.737  10.825  2.0324 -0.6147  1.6282
  297MOL0     H40034   3.623   3.598  10.588 -0.6836  0.5241 -0.1237
  297MOL0     H40035   3.565   3.727  10.672  0.6835 -0.0077 -0.8816
  297MOL0     H40036   3.757   3.877  10.610  1.0612  0.4033 -0.9013
  297MOL0     H40037   3.839   3.745  10.533 -1.3979 -3.5004  1.1306
  297MOL0     H40038   3.750   3.879  10.365 -2.6730 -0.2053 -2.8583
  297MOL0     H40039   3.636   3.738  10.372 -1.0493 -0.5026  1.5608
  297MOL0     H40040   3.544   3.960  10.319 -1.5626  4.7860  0.7566
  297MOL0     H40041   3.470   3.900  10.462  0.3841 -1.1192 -0.9518
  297MOL0     H40042   3.649   4.059  10.593 -2.0220 -0.1569 -0.2242
  297MOL0     H40043   3.722   4.096  10.438  2.1337 -0.3904  3.2053
  297MOL0     H40044   3.462   4.165  10.562 -3.6184 -0.3314 -1.9688
  297MOL0     H40045   3.451   4.151  10.382  0.4590 -1.9186  0.1688
  297MOL0     H40046   3.673   4.354  10.629  2.0055  1.4603  0.1629
  297MOL0     H40047   3.791   4.590  10.614 -1.7212 -1.3609  0.8961
  297MOL0     H40048   3.863   4.622  10.457 -0.5871 -1.3974  0.1525
  297MOL0     H40049   3.610   4.749  10.509  0.8785 -2.9455  0.0849
  297MOL0     H40050   3.724   4.780  10.370  1.1366  0.2077  0.4979
  297MOL0     H40051   3.885   4.867  10.525  0.2228 -0.1997 -0.7264
  297MOL0     H40052   3.769   4.853  10.661 -1.7668  1.7955  0.0854
  297MOL0     H40053   3.737   5.061  10.610  2.6591 -1.5240  0.1045
  297MOL0     H40054   3.600   4.982  10.529 -0.6437  0.9302  2.7278
  297MOL0     H40055   3.825   5.185  10.195  3.4940  2.0066  0.1333
  297MOL0     H40056   3.750   5.436  10.030  1.2859 -5.8530 -1.5155
  297MOL0     H40057   3.872   5.531  10.133  2.9542 -0.3338  1.4496
  297MOL0     H40058   3.898   5.368  10.074 -2.5934 -2.3225  0.7389
  297MOL0     H40059   3.426   5.753  10.295  0.2643 -1.4972  1.1259
  297MOL0     H40060   3.347   5.987  10.254 -0.5618  1.2506  0.8633
  297MOL0     H40061   3.635   6.327  10.383  0.2825  1.2552 -0.2043
  297MOL0     H40062   3.652   6.260  10.209 -0.0840  1.1553 -1.1677
  297MOL0     H40063   3.443   6.448  10.321  2.2620 -0.8108  1.6029
  297MOL0     H40064   3.589   6.507  10.238 -2.5826  3.1116 -2.4269
  297MOL0     H40065   3.395   6.319  10.111 -1.0499  1.1286  0.3754
  297MOL0     H40066   3.524   6.402  10.026 -0.6522  2.0358 -1.7966
  297MOL0     H40067   3.267   6.543  10.136 -0.7463  2.1190 -0.2906
  297MOL0     H40068   3.425   6.620  10.080 -0.1195 -0.0301 -0.0469
  297MOL0     H40069   3.385   6.487   9.864 -0.0713  3.5826 -2.0442
  297MOL0     H40070   3.289   6.635   9.898  0.7496  0.7715  1.0772
  297MOL0     H40071   3.221   6.338   9.960  2.9354 -0.0557 -1.2510
  297MOL0     H40072   3.105   6.455   9.990  1.7702 -1.5860  2.8630
  297MOL0     H40073   3.202   6.464   9.720  0.7753  1.1753  0.4543
  297MOL0     H40074   3.051   6.512   9.775  2.1341  2.6848  3.3107
  297MOL0     H40075   3.001   6.244   9.791 -0.8430  2.0589 -0.0975
  297MOL0     H40076   3.163   6.221   9.740 -0.8134 -1.2101  1.0427
  297MOL0     H40077   3.705   6.114  10.466 -0.3356 -1.4175  0.9622
  297MOL0     H40078   3.782   5.894  10.486 -2.1154 -3.1797  4.5413
  297MOL0     H40079   3.558   5.445  10.510 -0.7656 -1.8557  0.9118
  297MOL0     H40080   3.606   5.236  10.560  0.8832 -1.1370  0.0719
  297MOL0     H40081   3.891   3.318  11.020  0.5811  3.0898  0.1434
  297MOL0     H40082   4.089   3.165  11.055  0.1839 -1.9635 -1.3727
  297MOL0     H40083   4.526   3.061  11.019  1.1628  0.4249 -1.9582
  297MOL0     H40084   4.704   2.910  11.082 -0.1374 -0.4548 -0.6997
  297MOL0     H40085   4.588   2.540  11.255 -0.2718 -3.5000  1.4145
  297MOL0     H40086   4.551   2.449  11.107  0.5949 -3.1167  1.8153
  297MOL0     H40087   4.800   2.425  11.073 -0.0397  1.1931  0.5224
  297MOL0     H40088   4.713   2.352  11.227 -0.8561 -0.0489  0.3821
  297MOL0     H40089   4.808   2.544  11.340 -0.0775  1.2346 -0.8679
  297MOL0     H40090   4.894   2.590  11.206 -0.3379 -0.4108  0.6294
  297MOL0     H40091   5.048   2.471  11.301  0.9605 -1.4930 -0.9310
  297MOL0     H40092   4.992   2.356  11.176 -2.0835  0.2230 -0.2925
  297MOL0     H40093   4.920   2.175  11.558  2.1773  0.0200 -0.5553
  297MOL0     H40094   4.422   2.585  10.983  2.3968 -0.0732 -0.6065
  297MOL0     H40095   4.266   2.730  10.907 -0.9665 -3.0372  2.6818
  298MOL0     O40096  11.026   1.449   6.690 -0.0890  0.4057 -0.1480
  298MOL0     C40097  10.922   1.463   6.747  0.8630 -0.4452 -0.4847
  298MOL0     O40098  10.856   1.365   6.801  0.0676  0.2222  0.0531
  298MOL0     C40099  10.893   1.235   6.773 -0.6101 -1.4615  0.5561
  298MOL0     C40100  10.887   1.189   6.638 -0.0904  0.2042  0.8368
  298MOL0     C40101  10.902   1.056   6.606  0.3572  0.2552  0.5921
  298MOL0     C40102  10.914   0.961   6.712 -0.2253 -0.3059  0.4870
  298MOL0     O40103  10.923   0.830   6.678 -0.5687  0.4800 -0.2652
  298MOL0     C40104  11.044   0.753   6.705 -0.0958 -0.5221 -0.0324
  298MOL0     C40105  11.046   0.646   6.597 -1.0381 -0.4181 -0.3046
  298MOL0     C40106  10.966   0.518   6.632 -0.3582  0.9225 -0.4357
  298MOL0     C40107  11.052   0.408   6.698 -0.6069 -0.0181 -1.2381
  298MOL0     C40108  10.969   0.282   6.738 -0.1446  0.3603  0.4338
  298MOL0     C40109  11.067   0.170   6.782 -0.7890  0.7604  0.7642
  298MOL0     C40110  11.016   0.031   6.741  1.2701 -0.4421  0.7042
  298MOL0     C40111  10.887  -0.004   6.816  0.5046  0.5418 -0.6703
  298MOL0     N40112  10.834  -0.127   6.753  0.3137 -0.0105 -0.5989
  298MOL0     C40113  10.732  -0.121   6.653  0.1950  0.1892 -0.5343
  298MOL0     C40114  10.706  -0.254   6.630 -0.1652  0.4167  0.2882
  298MOL0     C40115  10.613  -0.315   6.532 -0.7082 -0.8859  0.0664
  298MOL0     C40116  10.473  -0.340   6.583  0.2445  0.1843 -0.3241
  298MOL0     C40117  10.481  -0.472   6.657 -0.7512 -0.0730 -0.3041
  298MOL0     C40118  10.365  -0.483   6.756  0.3120 -0.0161  0.5155
  298MOL0     O40119  10.244  -0.443   6.701 -0.0155 -0.8802 -0.0264
  298MOL0     C40120  10.130  -0.437   6.775  1.0895  0.0390 -0.2797
  298MOL0     C40121  10.111  -0.393   6.908  0.2346 -1.0081  0.7715
  298MOL0     C40122   9.991  -0.415   6.982  0.6583 -0.0326 -1.2910
  298MOL0     C40123   9.995  -0.379   7.128 -0.7713 -0.3905 -0.9409
  298MOL0     C40124   9.877  -0.463   6.919  0.2119  0.6918 -0.7971
  298MOL0     C40125   9.749  -0.488   6.983  0.2403  0.8245 -0.7617
  298MOL0     O40126   9.706  -0.388   7.067 -0.4941 -0.1983  0.3879
  298MOL0     C40127   9.619  -0.427   7.167  1.0313  0.4074 -0.2289
  298MOL0     C40128   9.633  -0.541   7.251  0.6865 -0.4297 -0.2946
  298MOL0     C40129   9.554  -0.562   7.361 -0.0901 -0.3108 -0.1695
  298MOL0     C40130   9.451  -0.471   7.390 -0.3354 -0.2583 -1.1056
  298MOL0     O40131   9.360  -0.489   7.493  0.0645  0.6926 -0.6930
  298MOL0     C40132   9.364  -0.592   7.602 -0.3410  0.6709 -0.0881
  298MOL0     C40133   9.303  -0.735   7.568  0.4658  0.7062 -0.1389
  298MOL0     C40134   9.353  -0.846   7.663  0.5579  0.1982  0.0079
  298MOL0     C40135   9.244  -0.960   7.664 -0.9673 -0.2216 -0.5027
  298MOL0     C40136   9.271  -1.071   7.773 -0.6710  0.0269  0.0519
  298MOL0     C40137   9.190  -1.198   7.749 -0.0783  0.2927  0.2679
  298MOL0     C40138   9.224  -1.303   7.849 -0.1677  0.4528 -1.0261
  298MOL0     C40139   9.156  -1.438   7.824 -0.2157  0.2139  0.1622
  298MOL0    Cl40140   9.112  -1.503   7.980 -0.2456 -0.2327  0.1793
  298MOL0     C40141   9.426  -0.367   7.311 -0.5884  0.4205  1.1152
  298MOL0     C40142   9.508  -0.345   7.201  0.3797 -0.8020  0.0518
  298MOL0     O40143   9.685  -0.594   6.956  0.5341  0.2550 -0.0074
  298MOL0     C40144   9.890  -0.506   6.787 -0.0320  0.6061  0.8112
  298MOL0     C40145  10.013  -0.491   6.717  0.2528  0.1421 -0.6343
  298MOL0     N40146  10.788  -0.332   6.713 -0.2517  0.1195 -0.5600
  298MOL0     N40147  10.858  -0.256   6.792  0.7908 -0.3599  0.3292
  298MOL0     C40148  10.924   1.007   6.848  0.7719  0.2856 -0.3068
  298MOL0     C40149  10.913   1.143   6.872 -0.2723 -0.3671  0.5989
  298MOL0     C40150  10.857   1.593   6.753 -0.5332 -0.1367 -0.3756
  298MOL0     C40151  10.924   1.698   6.674  0.9403  0.4975  0.3012
  298MOL0     C40152  10.865   1.825   6.677  0.4154 -0.5509 -0.0556
  298MOL0     C40153  10.747   1.849   6.756  0.1111  0.7052 -0.0595
  298MOL0     O40154  10.693   1.978   6.767  0.4162  0.2629  0.2463
  298MOL0     C40155  10.591   1.997   6.660 -0.4037  0.4070  0.4191
  298MOL0     C40156  10.503   2.126   6.690  0.1632  0.0928 -0.6887
  298MOL0     C40157  10.382   2.097   6.776 -0.2338 -0.4519 -1.3009
  298MOL0     C40158  10.401   2.074   6.926  0.0735 -0.7301  0.5421
  298MOL0     C40159  10.275   2.078   7.009 -0.0614  0.6178  1.0557
  298MOL0     C40160  10.188   2.072   7.095  0.8040 -0.3020  0.6244
  298MOL0     C40161  10.699   1.749   6.835  1.0761  0.3314  0.7685
  298MOL0     C40162  10.745   1.619   6.834  0.3516  0.0190 -0.5266
  298MOL0     H40163  10.864   1.262   6.560 -0.1310 -1.0383 -0.3571
  298MOL0     H40164  10.903   1.030   6.501 -1.4960 -2.6599  1.1605
  298MOL0     H40165  11.133   0.814   6.684  1.0682 -1.6253  1.5565
  298MOL0     H40166  11.035   0.727   6.811 -3.8632 -0.6652 -0.2525
  298MOL0     H40167  11.014   0.674   6.496 -0.3287 -3.6084 -1.5460
  298MOL0     H40168  11.153   0.625   6.587 -0.5962  2.1416 -1.8380
  298MOL0     H40169  10.898   0.546   6.714 -1.8474  0.4002 -1.4601
  298MOL0     H40170  10.911   0.481   6.546 -0.1389  0.3375 -0.3294
  298MOL0     H40171  11.124   0.375   6.622 -0.7005 -1.4509 -0.7443
  298MOL0     H40172  11.107   0.449   6.783  0.0817  0.1146 -1.7437
  298MOL0     H40173  10.900   0.308   6.819 -0.1662 -0.7044  0.7781
  298MOL0     H40174  10.905   0.251   6.655 -0.3799  0.6990  0.4892
  298MOL0     H40175  11.158   0.160   6.723 -1.7943 -4.5479 -0.3885
  298MOL0     H40176  11.088   0.171   6.889 -1.2024 -0.6029  0.8807
  298MOL0     H40177  10.994   0.022   6.634 -2.8070  2.0017  1.1120
  298MOL0     H40178  11.080  -0.053   6.768 -0.3826 -1.1321  2.7421
  298MOL0     H40179  10.808   0.071   6.815 -0.9424 -0.9266 -1.6859
  298MOL0     H40180  10.899  -0.025   6.923 -1.0796  1.0881 -0.3583
  298MOL0     H40181  10.676  -0.039   6.609  1.2406  0.7157 -0.9269
  298MOL0     H40182  10.596  -0.245   6.449 -2.4782  0.1236  1.2305
  298MOL0     H40183  10.667  -0.405   6.498  0.3833 -0.8765  1.6894
  298MOL0     H40184  10.404  -0.364   6.502 -1.2023 -0.0361  0.9353
  298MOL0     H40185  10.435  -0.256   6.641 -2.5083  0.5121 -2.3900
  298MOL0     H40186  10.572  -0.479   6.716 -0.9298  4.9577  1.0567
  298MOL0     H40187  10.478  -0.551   6.581 -0.6171  2.0144 -2.6163
  298MOL0     H40188  10.389  -0.418   6.841 -2.4237 -0.5535  1.7888
  298MOL0     H40189  10.346  -0.584   6.793 -0.8133  0.1919  0.5404
  298MOL0     H40190  10.193  -0.350   6.964 -1.2421  2.6146  0.4098
  298MOL0     H40191  10.003  -0.271   7.141 -1.9064 -0.0646 -2.5515
  298MOL0     H40192   9.901  -0.401   7.178 -0.6391  1.6081  0.2881
  298MOL0     H40193  10.084  -0.430   7.166 -0.4435 -1.1813 -2.6485
  298MOL0     H40194   9.701  -0.617   7.213  0.4147  0.0380 -1.7954
  298MOL0     H40195   9.554  -0.659   7.410 -2.5054 -1.5490 -2.3549
  298MOL0     H40196   9.465  -0.603   7.644 -0.3554 -1.1586 -0.4657
  298MOL0     H40197   9.310  -0.548   7.686  1.1997  0.2547  1.1788
  298MOL0     H40198   9.196  -0.712   7.560  0.0766 -0.3170  1.6273
  298MOL0     H40199   9.344  -0.756   7.469  2.3328  0.8798  0.5628
  298MOL0     H40200   9.363  -0.798   7.761  3.0856  0.6316 -0.3856
  298MOL0     H40201   9.452  -0.886   7.637 -0.3630 -2.7975  0.7610
  298MOL0     H40202   9.152  -0.911   7.697 -1.4449 -0.9290 -0.7705
  298MOL0     H40203   9.231  -1.007   7.566 -1.3566  0.4610 -0.7828
  298MOL0     H40204   9.252  -1.023   7.869  1.2548  2.8158 -0.8302
  298MOL0     H40205   9.377  -1.097   7.763 -1.2095 -2.4007 -0.0793
  298MOL0     H40206   9.084  -1.176   7.759  0.2937  3.3875 -1.5086
  298MOL0     H40207   9.203  -1.249   7.653 -2.9304 -0.4909  0.2160
  298MOL0     H40208   9.188  -1.263   7.944  0.8679  0.8131 -0.7716
  298MOL0     H40209   9.332  -1.319   7.860 -0.3961 -0.5328 -0.0457
  298MOL0     H40210   9.225  -1.505   7.771  0.1463 -1.2313  2.3487
  298MOL0     H40211   9.065  -1.422   7.765  0.6628  0.3983 -1.1962
  298MOL0     H40212   9.336  -0.307   7.320 -1.5248 -0.9925  1.4445
  298MOL0     H40213   9.478  -0.270   7.129  0.1933  0.1993  1.1395
  298MOL0     H40214   9.810  -0.562   6.740 -2.0702  4.0183 -0.2303
  298MOL0     H40215  10.018  -0.522   6.613 -1.5914 -0.6874 -0.5178
  298MOL0     H40216  10.942   0.932   6.924  0.7011 -1.7087 -2.1517
  298MOL0     H40217  10.919   1.188   6.970 -0.7131 -2.0767  1.4549
  298MOL0     H40218  11.018   1.691   6.619  1.1175  0.9575  0.5359
  298MOL0     H40219  10.910   1.915   6.636  0.5310  0.4844  2.1938
  298MOL0     H40220  10.633   2.005   6.559 -0.7184 -0.8620  0.1672
  298MOL0     H40221  10.514   1.919   6.658 -0.8378  0.8000  1.3170
  298MOL0     H40222  10.474   2.167   6.593 -3.2028 -2.0500 -0.7443
  298MOL0     H40223  10.568   2.187   6.753 -3.7808  1.5904  2.3451
  298MOL0     H40224  10.338   2.011   6.724  1.8950 -1.1354 -2.1030
  298MOL0     H40225  10.311   2.180   6.773  1.8950  1.4621 -1.5540
  298MOL0     H40226  10.458   2.159   6.965 -2.5400  0.5945  1.7007
  298MOL0     H40227  10.461   1.987   6.954 -0.0428 -1.6409 -1.8140
  298MOL0     H40228  10.102   2.079   7.158  1.4943 -0.5619  1.6147
  298MOL0     H40229  10.612   1.765   6.899  0.5039 -0.8667  0.3136
  298MOL0     H40230  10.699   1.544   6.899  2.2165 -0.2856  0.5207
  299MOL0     O40231  10.875   1.190   8.867  0.6304 -0.4269 -0.3023
  299MOL0     C40232  10.906   1.249   8.974  0.5016 -0.6657 -0.1082
  299MOL0     O40233  10.962   1.374   8.986 -0.2945 -0.0935  1.3823
  299MOL0     C40234  10.987   1.435   8.866 -0.3480  0.3634 -0.4038
  299MOL0     C40235  10.883   1.516   8.813 -0.3271  0.2378 -0.2476
  299MOL0     C40236  10.918   1.598   8.705 -0.0810 -0.3956 -0.1423
  299MOL0     C40237  11.044   1.610   8.648  0.3777  0.7653 -0.6558
  299MOL0     O40238  11.084   1.683   8.541  0.6141 -0.6864  0.4827
  299MOL0     C40239  10.982   1.752   8.471 -0.6308  0.0261  0.9807
  299MOL0     C40240  11.047   1.807   8.337 -0.2379 -0.2235 -0.0447
  299MOL0     C40241  10.971   1.920   8.273 -0.1414 -0.0706 -0.1589
  299MOL0     C40242  10.823   1.888   8.239  0.1293  0.4626  0.2146
  299MOL0     C40243  10.751   2.003   8.172 -0.3086 -0.0798 -0.4325
  299MOL0     C40244  10.754   2.000   8.022  0.0380  0.2260 -0.0276
  299MOL0     C40245  10.666   2.107   7.966 -0.8643  0.1268  0.8649
  299MOL0     C40246  10.679   2.106   7.810 -1.5899 -0.4939  0.1625
  299MOL0     N40247  10.751   2.236   7.759  0.5853  0.3963 -0.4884
  299MOL0     C40248  10.885   2.267   7.778  0.0995 -0.1485 -1.1541
  299MOL0     C40249  10.888   2.397   7.717 -0.9817  0.3628 -0.2727
  299MOL0     C40250  11.012   2.486   7.707 -0.4311  1.6538  0.3286
  299MOL0     C40251  11.092   2.469   7.578  1.1603 -0.1774  0.1588
  299MOL0     C40252  11.108   2.597   7.487 -0.1719 -0.9519 -0.3445
  299MOL0     C40253  10.964   2.646   7.437 -0.3855 -0.4873  0.4662
  299MOL0     O40254  10.893   2.712   7.534  0.7595 -0.4686 -0.6946
  299MOL0     C40255  10.768   2.749   7.500  1.4473 -0.4158  0.4880
  299MOL0     C40256  10.734   2.886   7.502 -0.3127 -0.6689  0.3199
  299MOL0     C40257  10.621   2.936   7.440  0.5897  0.2824  0.1857
  299MOL0     C40258  10.594   3.088   7.429 -0.3504 -0.5224  0.7141
  299MOL0     C40259  10.527   2.846   7.396  0.1904  1.2547  0.0289
  299MOL0     C40260  10.395   2.882   7.351  0.8593 -0.5379 -0.4525
  299MOL0     O40261  10.290   2.831   7.434  0.3448  0.0608 -0.0649
  299MOL0     C40262  10.166   2.832   7.373 -0.0300 -0.5544 -0.3030
  299MOL0     C40263  10.093   2.942   7.426  0.2661  0.0769  0.3613
  299MOL0     C40264   9.952   2.934   7.407  0.9594  0.3978  0.4578
  299MOL0     C40265   9.890   2.826   7.333  0.0590  0.0454  1.1821
  299MOL0     O40266   9.754   2.795   7.321  0.1276 -0.5937 -0.4235
  299MOL0     C40267   9.671   2.910   7.301 -0.3540 -0.3780  0.2718
  299MOL0     C40268   9.530   2.881   7.333 -0.0443  0.0525  0.3266
  299MOL0     C40269   9.483   2.769   7.253 -0.3607  0.1064  0.3468
  299MOL0     C40270   9.333   2.747   7.245  0.2835  0.7782  0.0259
  299MOL0     C40271   9.310   2.619   7.158  0.4201  0.5036  0.9395
  299MOL0     C40272   9.158   2.602   7.125  0.1628 -0.2100  0.5298
  299MOL0     C40273   9.127   2.528   7.000  0.5649  0.3578  0.0764
  299MOL0     C40274   8.980   2.505   6.982  0.0931  0.3102  0.4733
  299MOL0    Cl40275   8.885   2.643   6.946 -0.0739 -0.2713 -0.1829
  299MOL0     C40276   9.976   2.725   7.267  0.8013 -0.7107 -0.3027
  299MOL0     C40277  10.112   2.736   7.286 -0.7028  0.0386 -0.1862
  299MOL0     O40278  10.376   2.929   7.242 -0.2795 -0.0904  0.2355
  299MOL0     C40279  10.553   2.710   7.405  0.3307  0.6602 -0.4662
  299MOL0     C40280  10.672   2.655   7.456 -0.7181  0.4851  0.4381
  299MOL0     N40281  10.766   2.429   7.664  0.0859  0.3375 -0.1364
  299MOL0     N40282  10.677   2.333   7.688 -0.6568 -0.2235 -0.2216
  299MOL0     C40283  11.141   1.520   8.693 -0.2773 -0.0459 -0.1759
  299MOL0     C40284  11.116   1.448   8.815  0.0476 -0.8771 -0.6174
  299MOL0     C40285  10.864   1.170   9.106 -0.2376  0.0680  0.0435
  299MOL0     C40286  10.819   1.036   9.095 -0.3886  0.6215 -0.4213
  299MOL0     C40287  10.788   0.971   9.215  0.4432  0.0120 -0.1699
  299MOL0     C40288  10.802   1.035   9.339  1.1464  0.0143 -1.3380
  299MOL0     O40289  10.763   0.963   9.444 -0.4453  0.5923 -0.1484
  299MOL0     C40290  10.747   1.031   9.572  0.0227 -0.7098 -0.2121
  299MOL0     C40291  10.721   0.939   9.689  0.7485  0.1543 -0.4363
  299MOL0     C40292  10.717   0.998   9.833 -0.6087 -0.7179  0.7195
  299MOL0     C40293  10.584   0.947   9.889 -0.2023  0.0057 -0.2754
  299MOL0     C40294  10.580   0.979  10.035 -0.8136 -0.8973  0.5669
  299MOL0     C40295  10.597   0.992  10.154 -0.7749 -1.6205  0.9074
  299MOL0     C40296  10.845   1.169   9.346 -0.3981  0.6966 -0.0934
  299MOL0     C40297  10.875   1.224   9.231  0.3978  0.3834 -0.0592
  299MOL0     H40298  10.782   1.519   8.851  0.0965 -0.1374  0.9382
  299MOL0     H40299  10.838   1.654   8.658 -1.1604 -2.0643 -0.3964
  299MOL0     H40300  10.896   1.688   8.455  0.5976 -1.2336 -0.9136
  299MOL0     H40301  10.968   1.844   8.528 -0.2544  1.2301 -0.7897
  299MOL0     H40302  11.147   1.848   8.354 -1.1245  1.2222  2.1576
  299MOL0     H40303  11.040   1.724   8.266 -1.8248 -0.8173  0.7524
  299MOL0     H40304  10.973   2.003   8.343  3.0851 -0.4897  0.4043
  299MOL0     H40305  11.029   1.953   8.186  1.1704  1.9376  1.3753
  299MOL0     H40306  10.823   1.796   8.181  2.5700  2.3357 -3.1278
  299MOL0     H40307  10.761   1.860   8.325 -0.0167  0.1403  0.0052
  299MOL0     H40308  10.644   2.003   8.195 -1.0075 -0.1145 -3.2575
  299MOL0     H40309  10.803   2.088   8.217  0.7676 -0.4758 -0.8976
  299MOL0     H40310  10.857   2.010   7.988  0.1788 -0.1536  0.2801
  299MOL0     H40311  10.718   1.901   7.991  1.4780 -0.8462  1.5618
  299MOL0     H40312  10.568   2.084   8.009 -0.6073 -1.1202  0.8346
  299MOL0     H40313  10.685   2.209   8.002 -0.6270  2.0414 -4.0194
  299MOL0     H40314  10.584   2.094   7.756 -0.0501  2.1311 -3.5367
  299MOL0     H40315  10.743   2.019   7.787 -2.3102 -1.1093  0.4437
  299MOL0     H40316  10.965   2.211   7.825 -0.1331 -0.9894 -1.7344
  299MOL0     H40317  10.968   2.586   7.720 -0.1655  1.6668  1.1278
  299MOL0     H40318  11.069   2.462   7.797  0.6378 -4.5908 -1.5677
  299MOL0     H40319  11.035   2.402   7.514 -1.5454  1.3271  0.8183
  299MOL0     H40320  11.188   2.430   7.614  0.8721  0.3703  1.6030
  299MOL0     H40321  11.159   2.567   7.395  0.5841 -0.7803  0.0120
  299MOL0     H40322  11.168   2.671   7.540  0.8111 -2.0145  0.0849
  299MOL0     H40323  10.895   2.568   7.402 -2.6902  2.4091 -2.0817
  299MOL0     H40324  10.960   2.708   7.347 -2.6949  1.8333  2.0188
  299MOL0     H40325  10.806   2.962   7.532  1.4434 -2.5374  1.0986
  299MOL0     H40326  10.494   3.123   7.400  0.0455  0.5427  0.5680
  299MOL0     H40327  10.590   3.117   7.535 -2.0131 -1.3977  0.9288
  299MOL0     H40328  10.674   3.136   7.371 -0.5014 -0.3494  0.6471
  299MOL0     H40329  10.140   3.010   7.496  2.8397 -2.3244  1.1477
  299MOL0     H40330   9.888   3.006   7.457  2.0063 -0.1065  2.6100
  299MOL0     H40331   9.698   2.989   7.372 -0.1408  0.5915 -0.8724
  299MOL0     H40332   9.691   2.943   7.199  2.3943  0.4572  0.9957
  299MOL0     H40333   9.525   2.868   7.442  2.3463 -0.1520  0.4762
  299MOL0     H40334   9.477   2.968   7.295 -1.7537 -2.4304 -3.6358
  299MOL0     H40335   9.533   2.689   7.309 -0.5790  1.9037  3.3116
  299MOL0     H40336   9.522   2.769   7.151 -0.0982 -3.2897  0.3158
  299MOL0     H40337   9.280   2.751   7.341 -0.3039 -0.6109 -0.2232
  299MOL0     H40338   9.299   2.833   7.187  0.1130  1.4586  1.0977
  299MOL0     H40339   9.348   2.526   7.201  1.1163  0.2744 -0.1423
  299MOL0     H40340   9.362   2.624   7.062 -0.9020  2.1893  0.2504
  299MOL0     H40341   9.107   2.551   7.208  3.4096  1.0657  3.5976
  299MOL0     H40342   9.116   2.702   7.116 -2.1526 -1.0817  0.8706
  299MOL0     H40343   9.166   2.426   6.996 -4.3842 -1.9760  2.4146
  299MOL0     H40344   9.171   2.580   6.915 -1.1478  1.0063 -0.4594
  299MOL0     H40345   8.923   2.451   7.058 -1.1240 -1.2777 -1.4724
  299MOL0     H40346   8.979   2.443   6.891 -0.6161 -0.3001  0.8926
  299MOL0     H40347   9.928   2.643   7.214 -1.6040 -0.0026  0.6435
  299MOL0     H40348  10.175   2.651   7.260 -0.0860  0.9043 -1.6254
  299MOL0     H40349  10.476   2.649   7.358  2.5909 -1.6185 -1.4824
  299MOL0     H40350  10.672   2.546   7.456  0.0928  0.4762  0.6975
  299MOL0     H40351  11.246   1.507   8.668 -0.2917 -1.4926  0.4062
  299MOL0     H40352  11.202   1.404   8.865 -2.3329 -0.6434  4.3556
  299MOL0     H40353  10.834   0.985   9.000 -1.2076  1.8263 -1.2210
  299MOL0     H40354  10.770   0.866   9.196  0.4256  0.6896 -5.0361
  299MOL0     H40355  10.835   1.094   9.590 -0.9488  0.5958  0.1342
  299MOL0     H40356  10.664   1.101   9.565  2.0021  1.9019  0.5228
  299MOL0     H40357  10.804   0.867   9.687  0.6816  0.0064  1.1966
  299MOL0     H40358  10.629   0.892   9.654 -0.0733  2.1772 -1.1684
  299MOL0     H40359  10.726   1.106   9.814  1.3041 -1.2436 -2.0852
  299MOL0     H40360  10.815   0.983   9.879 -0.2369  3.3380  1.6176
  299MOL0     H40361  10.577   0.839   9.874 -3.8618 -0.1297  1.2190
  299MOL0     H40362  10.492   0.972   9.836  0.3126 -0.4643 -1.4337
  299MOL0     H40363  10.613   1.002  10.259 -0.0676  2.2643  0.5757
  299MOL0     H40364  10.836   1.241   9.426 -1.5661 -0.8821  1.2567
  299MOL0     H40365  10.889   1.331   9.233 -3.7171  1.4053 -4.8633
  300MOL0     O40366   5.289   8.646   9.010 -0.3477 -0.3663  0.1168
  300MOL0     C40367   5.346   8.538   9.040  0.3653  0.1317  0.6514
  300MOL0     O40368   5.478   8.512   9.032 -0.2445  0.8607  0.9138
  300MOL0     C40369   5.568   8.613   9.005 -0.0875 -0.6417 -0.2729
  300MOL0     C40370   5.560   8.743   9.063 -0.5239 -0.6472 -0.2108
  300MOL0     C40371   5.651   8.842   9.029 -1.1001  1.0253 -0.4913
  300MOL0     C40372   5.758   8.820   8.939 -0.0080  1.0168 -0.3737
  300MOL0     O40373   5.844   8.920   8.916 -0.2166 -0.1807  0.6672
  300MOL0     C40374   5.792   9.011   8.814  0.0615 -0.7303  0.1955
  300MOL0     C40375   5.731   9.141   8.868  0.3205  0.4199 -0.5375
  300MOL0     C40376   5.833   9.244   8.925  0.5688  0.8512  1.2319
  300MOL0     C40377   5.771   9.371   8.988  0.9429  0.1225  0.3092
  300MOL0     C40378   5.871   9.464   9.058  0.2014  0.0474 -0.5960
  300MOL0     C40379   5.811   9.547   9.167  0.1293  0.5916 -0.5005
  300MOL0     C40380   5.908   9.621   9.245 -0.1264 -0.1799 -0.8538
  300MOL0     C40381   6.013   9.714   9.172  1.2729 -0.1101  0.3742
  300MOL0     N40382   5.964   9.825   9.090  0.8594  0.0124  0.9157
  300MOL0     C40383   5.976   9.833   8.958 -0.1937 -0.8097 -0.3193
  300MOL0     C40384   5.916   9.947   8.923 -0.6927 -0.0496 -0.0449
  300MOL0     C40385   5.912   9.993   8.783  0.5752  0.1816  0.0474
  300MOL0     C40386   5.870  10.138   8.771  0.2494  0.1819 -0.8156
  300MOL0     C40387   5.720  10.167   8.766 -0.8040  0.1485  0.7096
  300MOL0     C40388   5.698  10.320   8.786  0.2849  0.7280  0.3575
  300MOL0     O40389   5.752  10.382   8.665  0.4326 -0.1928 -0.1047
  300MOL0     C40390   5.752  10.520   8.661  0.3175  0.4877  0.9359
  300MOL0     C40391   5.704  10.608   8.749 -0.1084  0.0117  0.0712
  300MOL0     C40392   5.730  10.747   8.738 -0.5639  0.4311  1.2885
  300MOL0     C40393   5.688  10.823   8.864 -0.2282 -0.1990 -1.2488
  300MOL0     C40394   5.796  10.797   8.618 -0.3348 -0.0878 -0.5213
  300MOL0     C40395   5.833  10.938   8.589  0.5235 -0.8979 -0.4988
  300MOL0     O40396   5.903  10.965   8.468  0.2129  0.4094 -0.2225
  300MOL0     C40397   5.922  11.099   8.434 -0.5085  0.6766  0.5294
  300MOL0     C40398   5.829  11.204   8.439 -0.2027 -0.4138  0.6158
  300MOL0     C40399   5.873  11.334   8.399  0.0716  0.4700  0.3827
  300MOL0     C40400   6.003  11.371   8.344  0.2667  0.8596  0.2423
  300MOL0     O40401   6.036  11.489   8.299 -0.5627 -0.9513 -1.1000
  300MOL0     C40402   6.172  11.518   8.251  0.6547 -0.0594 -0.5450
  300MOL0     C40403   6.180  11.668   8.250  0.5913  0.9996 -0.2439
  300MOL0     C40404   6.315  11.730   8.203 -1.1080 -0.1778  0.9618
  300MOL0     C40405   6.439  11.646   8.216 -0.0225  0.0302 -0.3190
  300MOL0     C40406   6.561  11.746   8.237 -0.3424 -0.1475 -0.2469
  300MOL0     C40407   6.570  11.861   8.134  0.1262 -0.1768 -0.6912
  300MOL0     C40408   6.680  11.956   8.165  0.0112 -0.0475  0.1897
  300MOL0     C40409   6.699  12.014   8.308  0.6605 -0.0185 -0.0913
  300MOL0    Cl40410   6.545  12.084   8.364  0.0712  0.0698  0.0725
  300MOL0     C40411   6.082  11.246   8.324  0.2985 -0.3158 -0.2368
  300MOL0     C40412   6.039  11.120   8.362  0.2490  0.3733  0.2950
  300MOL0     O40413   5.799  11.027   8.667  0.2469 -0.5265 -0.2666
  300MOL0     C40414   5.836  10.703   8.526  0.3299 -0.0475  0.2224
  300MOL0     C40415   5.817  10.567   8.551 -0.4919  0.0739 -0.1502
  300MOL0     N40416   5.876  10.018   9.038  0.2440  0.7272  1.2753
  300MOL0     N40417   5.903   9.937   9.139 -0.7988  0.4529  0.2257
  300MOL0     C40418   5.765   8.687   8.885 -0.5255 -1.1061 -0.4487
  300MOL0     C40419   5.673   8.581   8.922  0.2934  0.0060 -0.6040
  300MOL0     C40420   5.266   8.429   9.104 -0.4173  0.0827  0.5696
  300MOL0     C40421   5.134   8.449   9.147 -0.4869 -0.2880 -0.8823
  300MOL0     C40422   5.057   8.340   9.194 -0.6368  0.7205  0.4791
  300MOL0     C40423   5.123   8.218   9.216  0.0265  0.1117 -0.3900
  300MOL0     O40424   5.049   8.118   9.281  0.5660 -0.2834 -0.6529
  300MOL0     C40425   5.120   8.011   9.333 -0.4619 -0.1647  0.3668
  300MOL0     C40426   5.018   7.935   9.421 -0.4584  0.4910  0.2279
  300MOL0     C40427   5.094   7.867   9.542  0.0825  0.2041  0.2476
  300MOL0     C40428   4.996   7.843   9.660 -0.1950 -0.4289  0.0361
  300MOL0     C40429   4.889   7.757   9.613  0.0083  0.6069 -0.3651
  300MOL0     C40430   4.794   7.685   9.588 -0.1615  0.1745  0.2071
  300MOL0     C40431   5.260   8.206   9.180 -0.1301 -0.7973 -0.2106
  300MOL0     C40432   5.325   8.304   9.117 -0.9228 -0.5570  0.8170
  300MOL0     H40433   5.496   8.768   9.148 -2.7243  1.9385 -2.4308
  300MOL0     H40434   5.636   8.941   9.069 -3.8726 -0.9003  4.1179
  300MOL0     H40435   5.867   9.040   8.740 -2.0684  0.9460 -1.4406
  300MOL0     H40436   5.715   8.956   8.758 -2.5995  3.1416 -0.3263
  300MOL0     H40437   5.662   9.188   8.797 -0.7792 -2.5465 -1.5903
  300MOL0     H40438   5.673   9.113   8.956 -2.7565 -1.7746 -3.0020
  300MOL0     H40439   5.889   9.183   8.997  0.1799 -1.1113 -0.0692
  300MOL0     H40440   5.902   9.272   8.845  2.5698  0.9833  2.9129
  300MOL0     H40441   5.718   9.431   8.913 -0.8939  0.8481  2.0928
  300MOL0     H40442   5.704   9.339   9.069  2.9107  1.4369  2.5679
  300MOL0     H40443   5.956   9.415   9.107  0.5855  0.6077 -0.7025
  300MOL0     H40444   5.921   9.532   8.988 -1.6953  1.6869 -0.4387
  300MOL0     H40445   5.739   9.618   9.126 -0.6858 -0.4322 -0.9085
  300MOL0     H40446   5.759   9.475   9.232  0.5685 -1.1170 -1.9588
  300MOL0     H40447   5.849   9.672   9.322  2.4398 -1.3941  2.1235
  300MOL0     H40448   5.973   9.554   9.303 -1.1260 -2.1131 -1.8484
  300MOL0     H40449   6.092   9.650   9.132  1.6050 -0.1469  1.0787
  300MOL0     H40450   6.083   9.763   9.240  2.9006  1.1985 -2.0731
  300MOL0     H40451   6.023   9.756   8.898 -3.8337 -2.4546 -1.3300
  300MOL0     H40452   6.013  10.000   8.742  0.2249 -0.4792 -0.9626
  300MOL0     H40453   5.844   9.934   8.721 -2.1723  2.4254  0.7386
  300MOL0     H40454   5.915  10.173   8.678  0.1302 -0.2710 -1.0496
  300MOL0     H40455   5.919  10.193   8.852 -0.2223  2.3145 -1.9259
  300MOL0     H40456   5.679  10.124   8.858 -1.4585  0.3053  0.4959
  300MOL0     H40457   5.667  10.133   8.677 -1.0820 -0.3694  1.0669
  300MOL0     H40458   5.747  10.362   8.874  1.4393 -1.1746  0.6650
  300MOL0     H40459   5.591  10.335   8.803  0.7029  1.7256  2.4780
  300MOL0     H40460   5.646  10.562   8.828 -0.5375 -0.9018 -0.7551
  300MOL0     H40461   5.585  10.858   8.858 -0.5377 -0.0529  2.5803
  300MOL0     H40462   5.682  10.756   8.950  2.1399 -1.6772 -2.1236
  300MOL0     H40463   5.757  10.907   8.874 -0.0174 -0.4370 -0.6875
  300MOL0     H40464   5.728  11.192   8.479 -0.6500  0.9884 -0.0466
  300MOL0     H40465   5.805  11.418   8.413 -0.5312 -0.1718  1.4179
  300MOL0     H40466   6.249  11.471   8.314  0.8806  0.1495 -0.6642
  300MOL0     H40467   6.185  11.487   8.147 -0.8658  0.6481 -0.9795
  300MOL0     H40468   6.101  11.705   8.184 -0.0683  1.0319  0.5429
  300MOL0     H40469   6.144  11.706   8.346  0.4247  1.9611 -0.6731
  300MOL0     H40470   6.323  11.804   8.283  0.5641 -1.3359  1.9146
  300MOL0     H40471   6.296  11.770   8.103  0.9990 -2.3851 -0.4162
  300MOL0     H40472   6.437  11.576   8.300 -5.0773 -1.8192 -1.5531
  300MOL0     H40473   6.470  11.591   8.126  0.2186  0.2137 -0.3492
  300MOL0     H40474   6.659  11.699   8.237 -1.0502 -1.8659  2.3029
  300MOL0     H40475   6.551  11.794   8.334 -1.3931  0.2737 -0.5498
  300MOL0     H40476   6.597  11.807   8.042 -2.5658 -2.1439 -0.4481
  300MOL0     H40477   6.476  11.916   8.127 -0.4139  0.3037  5.4729
  300MOL0     H40478   6.666  12.044   8.102 -3.6056  0.8258  1.9886
  300MOL0     H40479   6.776  11.913   8.133  1.3649  1.5427  1.8713
  300MOL0     H40480   6.771  12.097   8.299 -1.4968  1.7837 -2.1406
  300MOL0     H40481   6.742  11.939   8.376 -0.2539 -0.4890 -0.0248
  300MOL0     H40482   6.171  11.266   8.265  0.2475  2.3445  0.4879
  300MOL0     H40483   6.100  11.035   8.333  0.4070  0.9151 -1.0445
  300MOL0     H40484   5.879  10.733   8.432  2.7996 -3.1399  0.1902
  300MOL0     H40485   5.846  10.491   8.478 -0.1712  1.8886 -2.0098
  300MOL0     H40486   5.846   8.669   8.815  1.3002  2.8283  0.3875
  300MOL0     H40487   5.678   8.477   8.892  0.7547 -1.4803  3.8853
  300MOL0     H40488   5.085   8.544   9.132 -1.3395 -0.7371 -0.9944
  300MOL0     H40489   4.954   8.363   9.221 -1.5510 -1.3251 -0.9692
  300MOL0     H40490   5.168   7.945   9.260 -2.5100  0.1026 -1.3404
  300MOL0     H40491   5.205   8.052   9.388  3.0735 -0.8458 -4.0420
  300MOL0     H40492   4.984   7.858   9.350  1.3489  0.5329 -0.7496
  300MOL0     H40493   4.931   7.997   9.442 -0.3836  0.3312  1.0356
  300MOL0     H40494   5.177   7.925   9.582 -1.4506  1.0889  2.3038
  300MOL0     H40495   5.138   7.769   9.521 -0.1146 -0.1359  1.3517
  300MOL0     H40496   4.960   7.940   9.693 -1.4300 -0.5194 -0.9647
  300MOL0     H40497   5.054   7.806   9.746 -0.5212 -1.2732 -0.0958
  300MOL0     H40498   4.703   7.629   9.593 -1.0996  1.6805  0.2142
  300MOL0     H40499   5.304   8.108   9.194 -0.4587 -0.9266 -0.1001
  300MOL0     H40500   5.421   8.268   9.080 -1.0269 -1.9262  1.7989
  301MOL0     O40501   9.620   2.750   2.006 -0.7169  0.4612 -0.0803
  301MOL0     C40502   9.733   2.712   1.979  0.2343 -0.8928  0.2975
  301MOL0     O40503   9.824   2.775   1.896  0.3430 -0.3965  0.5040
  301MOL0     C40504   9.788   2.898   1.839 -0.5534 -0.7029 -0.4852
  301MOL0     C40505   9.827   2.911   1.706 -0.5521  0.1884 -0.1179
  301MOL0     C40506   9.806   3.028   1.634 -0.6325  0.0013  0.4898
  301MOL0     C40507   9.760   3.146   1.696  0.1754  1.2411 -0.3260
  301MOL0     O40508   9.775   3.268   1.642  0.1538  0.0788 -0.1504
  301MOL0     C40509   9.660   3.297   1.559  0.6259 -0.1316 -0.2279
  301MOL0     C40510   9.656   3.447   1.530  0.0327  0.8793 -0.1076
  301MOL0     C40511   9.548   3.494   1.421 -0.7192 -0.0881  0.1810
  301MOL0     C40512   9.555   3.418   1.288 -0.1753 -1.0849  1.2081
  301MOL0     C40513   9.434   3.453   1.198 -1.0571  0.1541 -0.1051
  301MOL0     C40514   9.448   3.399   1.059  0.0095 -0.3402  0.0611
  301MOL0     C40515   9.340   3.452   0.970 -1.0398 -0.3462  0.1246
  301MOL0     C40516   9.361   3.400   0.827 -0.1128  0.3319 -0.1717
  301MOL0     N40517   9.252   3.309   0.777 -0.0186 -0.4602  0.5186
  301MOL0     C40518   9.125   3.356   0.771 -0.2514  0.0896 -0.1997
  301MOL0     C40519   9.048   3.255   0.756 -0.5592  1.3462 -0.4675
  301MOL0     C40520   8.899   3.265   0.764 -0.3377 -0.0002  0.1403
  301MOL0     C40521   8.858   3.194   0.893 -0.0199 -0.2102  0.0251
  301MOL0     C40522   8.881   3.267   1.029 -0.6740  0.4584 -0.3071
  301MOL0     C40523   8.993   3.216   1.112 -0.3699 -0.5028  0.0994
  301MOL0     O40524   9.025   3.291   1.227 -0.0423 -0.6433 -0.4482
  301MOL0     C40525   8.957   3.289   1.348  0.7038  0.4293  0.1643
  301MOL0     C40526   8.984   3.388   1.446  0.2020 -0.5744 -0.5703
  301MOL0     C40527   8.901   3.408   1.562  0.3063 -0.0391  1.1695
  301MOL0     C40528   8.947   3.528   1.650 -0.2636  0.6075 -0.3579
  301MOL0     C40529   8.799   3.310   1.591 -0.1623 -0.1918  0.3773
  301MOL0     C40530   8.711   3.324   1.711 -0.1720 -0.2553 -0.3975
  301MOL0     O40531   8.643   3.218   1.740 -0.1330  0.5568  0.7121
  301MOL0     C40532   8.577   3.217   1.865  1.0891 -0.3539  0.7999
  301MOL0     C40533   8.435   3.226   1.852 -0.2582 -0.4726 -0.1313
  301MOL0     C40534   8.347   3.245   1.960 -0.0621 -0.3196  0.7554
  301MOL0     C40535   8.407   3.247   2.088 -0.8768  0.9076  0.3300
  301MOL0     O40536   8.343   3.279   2.198 -0.3303 -0.2156 -0.5591
  301MOL0     C40537   8.213   3.223   2.215  0.3903 -0.5434 -1.5780
  301MOL0     C40538   8.116   3.337   2.247  0.1474 -0.0339 -0.4424
  301MOL0     C40539   8.107   3.429   2.130  1.1200  0.3301 -0.5062
  301MOL0     C40540   8.012   3.551   2.161  0.4457  0.3846  0.6154
  301MOL0     C40541   8.041   3.670   2.078  0.3220  0.8439  1.3132
  301MOL0     C40542   7.941   3.777   2.089  0.9936 -0.6626 -0.2938
  301MOL0     C40543   7.977   3.860   2.212 -0.8634  0.5305 -0.6920
  301MOL0     C40544   7.882   3.975   2.228  0.3292  0.1890  0.7213
  301MOL0    Cl40545   7.930   4.076   2.375  0.4921  0.1777 -0.1104
  301MOL0     C40546   8.548   3.241   2.107  0.3670 -0.4233  0.5689
  301MOL0     C40547   8.635   3.216   1.997  0.5824  0.0855 -0.3649
  301MOL0     O40548   8.698   3.432   1.773  0.2550 -0.2790  0.3868
  301MOL0     C40549   8.777   3.211   1.496 -0.0938  0.5566  0.2015
  301MOL0     C40550   8.848   3.198   1.377 -0.5855 -0.0691 -0.3259
  301MOL0     N40551   9.126   3.145   0.720 -0.3349  0.8779 -0.1222
  301MOL0     N40552   9.252   3.180   0.740  0.1982  0.7950  0.6960
  301MOL0     C40553   9.720   3.133   1.832  0.5261  0.2288  0.4064
  301MOL0     C40554   9.739   3.017   1.907  0.2519  0.1481 -0.2239
  301MOL0     C40555   9.788   2.599   2.058  0.3480  0.6198 -0.1769
  301MOL0     C40556   9.727   2.569   2.175  0.0612 -0.0211 -0.1378
  301MOL0     C40557   9.784   2.465   2.250  0.4064  1.1433 -0.1214
  301MOL0     C40558   9.890   2.390   2.209  0.2201  0.4702 -0.0342
  301MOL0     O40559   9.927   2.292   2.298  0.4030  0.0759 -0.1859
  301MOL0     C40560  10.021   2.191   2.260  0.1888  0.6372  0.5664
  301MOL0     C40561  10.028   2.078   2.368 -0.9249  0.6422 -0.6346
  301MOL0     C40562   9.893   2.018   2.393 -0.6538  0.1043  0.3776
  301MOL0     C40563   9.895   1.938   2.517  0.4457  0.9703 -0.7689
  301MOL0     C40564   9.897   2.006   2.644  1.0164 -0.5245 -0.5822
  301MOL0     C40565   9.914   2.059   2.751  0.5137  0.4186 -0.5451
  301MOL0     C40566   9.945   2.415   2.082  0.2586  0.1781 -0.2287
  301MOL0     C40567   9.886   2.519   2.000 -0.1322 -0.2518  0.8546
  301MOL0     H40568   9.867   2.819   1.664 -3.5490 -1.8382  1.1072
  301MOL0     H40569   9.836   3.031   1.530 -0.9367 -1.3663  0.3477
  301MOL0     H40570   9.663   3.245   1.463  1.6660 -1.3889  0.4534
  301MOL0     H40571   9.565   3.279   1.610  0.8644  0.6965  0.5412
  301MOL0     H40572   9.642   3.497   1.626  2.0600  1.5102 -0.1049
  301MOL0     H40573   9.757   3.470   1.497  0.6278  1.3601  1.9116
  301MOL0     H40574   9.449   3.471   1.461 -1.5131  3.0591  0.2984
  301MOL0     H40575   9.558   3.602   1.406  0.5493 -0.1264  0.6150
  301MOL0     H40576   9.648   3.461   1.249 -1.0703 -1.0583 -1.0535
  301MOL0     H40577   9.571   3.311   1.299  3.2906 -0.6023  1.7648
  301MOL0     H40578   9.341   3.415   1.241 -0.9549  1.5324  1.4305
  301MOL0     H40579   9.424   3.562   1.194  0.1503  0.2437 -1.4675
  301MOL0     H40580   9.549   3.413   1.019  0.0961 -1.3683 -0.0985
  301MOL0     H40581   9.433   3.291   1.049  0.5988 -0.2520 -2.3689
  301MOL0     H40582   9.239   3.433   1.008 -0.8749 -0.1265  0.6783
  301MOL0     H40583   9.370   3.557   0.973  0.5785 -0.7711 -0.2744
  301MOL0     H40584   9.461   3.355   0.822  1.1968  3.1371 -1.9241
  301MOL0     H40585   9.380   3.493   0.774 -0.0391  1.5037  1.8235
  301MOL0     H40586   9.080   3.447   0.810  0.0872 -0.8787  2.7404
  301MOL0     H40587   8.866   3.370   0.761  2.2581  0.8806 -0.3810
  301MOL0     H40588   8.860   3.212   0.677  3.3779 -0.7960 -1.1867
  301MOL0     H40589   8.911   3.099   0.893  2.7132  1.2072  1.7962
  301MOL0     H40590   8.751   3.171   0.890  0.1759 -1.3971  1.2866
  301MOL0     H40591   8.790   3.254   1.089 -0.0437 -1.0727  0.3765
  301MOL0     H40592   8.891   3.373   1.007 -1.0560  0.3240 -1.1608
  301MOL0     H40593   9.081   3.231   1.048  1.6934  0.0558  2.9026
  301MOL0     H40594   8.981   3.109   1.130  0.3320 -0.7416 -0.7702
  301MOL0     H40595   9.065   3.460   1.441 -0.3806  0.0141 -2.6877
  301MOL0     H40596   8.976   3.491   1.749 -3.2458  1.8608  1.1459
  301MOL0     H40597   9.025   3.593   1.611 -0.7292  0.4104 -1.6574
  301MOL0     H40598   8.859   3.593   1.656 -1.4561 -0.8061 -1.8072
  301MOL0     H40599   8.402   3.228   1.749  3.1398  0.1540 -1.3374
  301MOL0     H40600   8.241   3.259   1.946 -0.0027  0.5031  1.0634
  301MOL0     H40601   8.159   3.169   2.136 -0.3600 -0.4230 -1.1614
  301MOL0     H40602   8.211   3.153   2.299 -0.5290 -0.2668 -1.3525
  301MOL0     H40603   8.020   3.312   2.292 -0.4005  3.5547  0.7486
  301MOL0     H40604   8.181   3.382   2.323  2.1867 -1.3835 -1.3049
  301MOL0     H40605   8.077   3.367   2.045  3.2638  0.5599 -1.5105
  301MOL0     H40606   8.201   3.477   2.102  0.3476  2.9238  1.0625
  301MOL0     H40607   7.910   3.521   2.137  0.3065  1.7047 -0.5585
  301MOL0     H40608   8.004   3.577   2.267 -2.3448  0.9499  0.3356
  301MOL0     H40609   8.036   3.641   1.973 -0.9598 -0.8158  1.7713
  301MOL0     H40610   8.144   3.702   2.095  0.5008  1.1983 -0.3387
  301MOL0     H40611   7.933   3.846   2.004  0.7416 -1.3754 -0.8545
  301MOL0     H40612   7.837   3.744   2.095  0.7536 -0.5673 -2.8287
  301MOL0     H40613   8.077   3.903   2.216 -0.4185 -0.5819  0.9063
  301MOL0     H40614   7.968   3.805   2.305 -0.3725  1.6050  0.0133
  301MOL0     H40615   7.781   3.933   2.228  1.5883 -3.1633 -0.0902
  301MOL0     H40616   7.893   4.033   2.136 -3.1919 -0.3789 -0.2197
  301MOL0     H40617   8.587   3.242   2.209  0.1401 -2.4247  0.7025
  301MOL0     H40618   8.742   3.208   2.013  1.1249  0.5865 -3.1522
  301MOL0     H40619   8.701   3.136   1.516  1.7146 -2.2376 -2.5103
  301MOL0     H40620   8.832   3.117   1.306 -0.4809  0.1850 -0.6401
  301MOL0     H40621   9.699   3.228   1.879 -0.8453  0.5615 -0.8002
  301MOL0     H40622   9.724   3.023   2.014  2.2292  1.8582  0.0094
  301MOL0     H40623   9.640   2.622   2.214 -0.2344 -1.9796  2.1370
  301MOL0     H40624   9.731   2.429   2.337 -1.9597  0.8495 -1.5820
  301MOL0     H40625  10.006   2.156   2.158 -0.4166  0.1782  0.8072
  301MOL0     H40626  10.122   2.233   2.261  0.7694 -0.0025 -4.6096
  301MOL0     H40627  10.071   2.117   2.460 -2.6876 -0.0782  0.5456
  301MOL0     H40628  10.093   1.994   2.343  0.3022  1.4366 -0.2030
  301MOL0     H40629   9.871   1.963   2.301  1.1353 -0.6072  0.3304
  301MOL0     H40630   9.824   2.102   2.403 -0.5623 -0.0053  2.1202
  301MOL0     H40631   9.984   1.875   2.511  0.7902  1.5917 -3.8855
  301MOL0     H40632   9.804   1.877   2.523  0.8484  0.5096  2.7424
  301MOL0     H40633   9.923   2.103   2.848  0.1110 -0.9711  0.1478
  301MOL0     H40634  10.030   2.361   2.043 -1.5663 -1.6041 -2.0404
  301MOL0     H40635   9.923   2.540   1.900 -0.8251 -0.6891  0.4989
  302MOL0     O40636   5.035   4.276   8.254  0.1981  0.3458  0.0952
  302MOL0     C40637   5.104   4.309   8.153 -0.7493  0.1082  0.7850
  302MOL0     O40638   5.131   4.433   8.099  0.2091 -0.4174  0.6109
  302MOL0     C40639   5.077   4.543   8.177 -0.0637 -0.3553  0.3930
  302MOL0     C40640   4.967   4.552   8.261 -0.8153 -1.0913 -1.7130
  302MOL0     C40641   4.953   4.675   8.341 -0.4665 -0.9025 -0.7624
  302MOL0     C40642   5.029   4.787   8.320 -0.2154  0.2072 -0.2866
  302MOL0     O40643   5.000   4.910   8.380 -0.0342 -1.1796  0.0930
  302MOL0     C40644   5.090   5.020   8.379 -0.1669 -0.4831 -0.3187
  302MOL0     C40645   5.051   5.133   8.477 -0.6305 -0.6297 -0.2792
  302MOL0     C40646   4.918   5.204   8.429 -0.2518 -0.3790 -0.1243
  302MOL0     C40647   4.916   5.258   8.288 -0.5754  1.2261 -0.8535
  302MOL0     C40648   5.026   5.353   8.256 -0.5601 -0.3134  0.6866
  302MOL0     C40649   5.006   5.410   8.113 -0.4928 -0.1208  0.0086
  302MOL0     C40650   5.114   5.509   8.064 -0.3085  0.3092  0.2212
  302MOL0     C40651   5.257   5.461   8.050 -0.0510 -0.8397  0.0550
  302MOL0     N40652   5.355   5.570   8.008  0.0677  0.3434  0.7467
  302MOL0     C40653   5.353   5.644   7.898 -0.4493  0.6618  0.7729
  302MOL0     C40654   5.476   5.696   7.886 -0.1606 -0.2473  0.2002
  302MOL0     C40655   5.515   5.786   7.768 -0.0929  0.9721 -0.1652
  302MOL0     C40656   5.561   5.704   7.650 -0.5825  0.2505  0.2745
  302MOL0     C40657   5.605   5.789   7.528 -0.8598 -0.7547  0.2090
  302MOL0     C40658   5.740   5.861   7.554 -0.0959 -0.0359 -0.7073
  302MOL0     O40659   5.804   5.906   7.440 -0.0642  0.3985  0.5470
  302MOL0     C40660   5.758   6.021   7.377 -0.3050 -0.0969 -0.4160
  302MOL0     C40661   5.792   6.040   7.250  0.1394 -0.7386 -0.5082
  302MOL0     C40662   5.747   6.153   7.178 -0.6557  1.4547 -0.5295
  302MOL0     C40663   5.825   6.167   7.054 -0.2168 -0.3831  0.5995
  302MOL0     C40664   5.666   6.251   7.238  0.2460  0.5320 -0.2371
  302MOL0     C40665   5.608   6.372   7.166  0.5988 -0.0664 -0.2620
  302MOL0     O40666   5.483   6.413   7.202  0.1884 -0.1303 -0.3630
  302MOL0     C40667   5.421   6.525   7.140 -0.9149  0.8593 -0.7547
  302MOL0     C40668   5.371   6.630   7.218 -0.2591  1.1945  0.1918
  302MOL0     C40669   5.317   6.742   7.149  0.6314  0.2862 -0.6283
  302MOL0     C40670   5.329   6.763   7.010 -0.6216 -0.7398 -0.6074
  302MOL0     O40671   5.290   6.885   6.962  0.0452 -0.8255 -0.1297
  302MOL0     C40672   5.388   6.988   6.966  0.4483 -0.0043  0.2894
  302MOL0     C40673   5.509   6.958   6.880  0.6292 -0.2941  0.5649
  302MOL0     C40674   5.614   7.070   6.892  0.3804 -0.1427 -0.0006
  302MOL0     C40675   5.698   7.070   7.018 -0.0706  0.6167 -0.1802
  302MOL0     C40676   5.782   7.199   7.035  0.0361  0.3838 -0.5732
  302MOL0     C40677   5.891   7.184   7.147  0.3628 -0.1969 -0.2625
  302MOL0     C40678   5.828   7.232   7.279 -0.6507  0.4861 -0.7144
  302MOL0     C40679   5.931   7.217   7.390  0.6651  0.2987  1.2525
  302MOL0    Cl40680   5.959   7.037   7.431 -0.0276 -0.2723  0.3210
  302MOL0     C40681   5.371   6.650   6.944 -0.2081 -0.0382  1.2571
  302MOL0     C40682   5.423   6.538   7.002  0.9196  0.9301  0.2282
  302MOL0     O40683   5.672   6.422   7.077 -0.8685  0.0596 -0.3451
  302MOL0     C40684   5.624   6.223   7.371  0.3453  0.2747 -0.3189
  302MOL0     C40685   5.672   6.115   7.444 -0.0127 -0.1943  1.1926
  302MOL0     N40686   5.539   5.662   8.003 -0.4710  0.0356  0.3781
  302MOL0     N40687   5.472   5.582   8.073 -0.3327  0.2708  0.5519
  302MOL0     C40688   5.122   4.785   8.219  0.2650  0.3506  0.2649
  302MOL0     C40689   5.145   4.666   8.151 -0.1780  0.3258 -0.5354
  302MOL0     C40690   5.193   4.191   8.095  0.6482 -0.5152  1.2679
  302MOL0     C40691   5.234   4.091   8.179  0.2894  0.0362  0.4175
  302MOL0     C40692   5.309   3.988   8.125 -0.0100  0.7897 -0.0659
  302MOL0     C40693   5.327   3.973   7.983 -0.5601  0.0159 -0.2860
  302MOL0     O40694   5.394   3.857   7.949  0.8694 -0.3931 -0.8328
  302MOL0     C40695   5.373   3.795   7.826  0.1981  0.2493  0.1130
  302MOL0     C40696   5.470   3.682   7.792 -1.2606  0.0217  0.5495
  302MOL0     C40697   5.469   3.568   7.896  0.0322  0.5248 -0.2979
  302MOL0     C40698   5.574   3.460   7.859 -0.2371 -0.1630 -0.0078
  302MOL0     C40699   5.531   3.380   7.741 -0.1541 -1.0584  0.2783
  302MOL0     C40700   5.516   3.316   7.633 -0.4941 -0.6316 -0.0455
  302MOL0     C40701   5.277   4.075   7.898 -0.0338 -0.1259 -0.1474
  302MOL0     C40702   5.210   4.184   7.958 -0.4035 -0.0703  0.0303
  302MOL0     H40703   4.903   4.470   8.293  1.0636 -1.4090  1.6603
  302MOL0     H40704   4.873   4.679   8.415 -0.2611  2.0173 -0.5817
  302MOL0     H40705   5.188   4.981   8.409 -0.5127 -1.6961 -0.7151
  302MOL0     H40706   5.091   5.066   8.280  0.1522 -0.4057 -0.2810
  302MOL0     H40707   5.033   5.080   8.572  0.4958 -1.4736 -0.5135
  302MOL0     H40708   5.141   5.193   8.496 -0.6237 -0.2096 -1.5758
  302MOL0     H40709   4.835   5.134   8.438  0.9033 -1.8154 -0.2872
  302MOL0     H40710   4.896   5.283   8.501 -1.6879 -0.3546 -0.5585
  302MOL0     H40711   4.925   5.170   8.224  1.9259  1.8829 -1.5269
  302MOL0     H40712   4.816   5.296   8.266 -1.0375  0.9888  0.6846
  302MOL0     H40713   5.026   5.428   8.336 -3.9690  0.0154  0.5232
  302MOL0     H40714   5.126   5.309   8.262  0.2092  1.4349  1.6041
  302MOL0     H40715   4.992   5.322   8.050 -1.5210 -0.5902  0.8579
  302MOL0     H40716   4.909   5.462   8.111 -0.5815 -0.1170  2.3003
  302MOL0     H40717   5.077   5.553   7.970 -1.6786  0.6167  0.8756
  302MOL0     H40718   5.105   5.594   8.133  2.7072  0.6895  0.2611
  302MOL0     H40719   5.251   5.393   7.964  0.7942  1.0208 -1.5479
  302MOL0     H40720   5.291   5.409   8.140 -0.9223  0.5622  1.2423
  302MOL0     H40721   5.275   5.651   7.823 -0.5280  1.6551  0.9327
  302MOL0     H40722   5.428   5.842   7.733  0.0846  1.1945 -0.2502
  302MOL0     H40723   5.593   5.858   7.793 -0.0537  1.4463 -1.5555
  302MOL0     H40724   5.477   5.645   7.613 -0.5537  1.1374 -1.3236
  302MOL0     H40725   5.649   5.650   7.685  0.9452  2.5058  0.1377
  302MOL0     H40726   5.519   5.851   7.503  0.0702  0.4794 -0.0257
  302MOL0     H40727   5.625   5.728   7.440  1.4414  0.4324 -0.1896
  302MOL0     H40728   5.815   5.796   7.600 -3.1843 -1.1573  3.3280
  302MOL0     H40729   5.723   5.929   7.638  1.9650 -0.2088 -0.0929
  302MOL0     H40730   5.855   5.961   7.213  2.7202  0.4829  0.9735
  302MOL0     H40731   5.903   6.243   7.067 -0.8486  0.0566  2.0631
  302MOL0     H40732   5.857   6.069   7.017 -1.4402  0.0162 -1.7300
  302MOL0     H40733   5.751   6.208   6.984 -0.7619  0.7516  1.7991
  302MOL0     H40734   5.374   6.632   7.326  0.4275  0.4207  0.2014
  302MOL0     H40735   5.275   6.824   7.206  0.6163 -0.7320  0.8846
  302MOL0     H40736   5.336   7.082   6.949 -1.5244 -0.6906  2.0326
  302MOL0     H40737   5.417   7.003   7.071  1.6158  1.1030 -0.1642
  302MOL0     H40738   5.558   6.869   6.920  0.7274 -0.2306  0.5849
  302MOL0     H40739   5.483   6.951   6.774  4.5018  0.1651 -0.5745
  302MOL0     H40740   5.570   7.169   6.879  0.0842 -0.2055  0.5089
  302MOL0     H40741   5.677   7.059   6.803  0.8731 -1.0494  0.4487
  302MOL0     H40742   5.631   7.068   7.104  1.2687 -0.7310  0.8788
  302MOL0     H40743   5.763   6.982   7.028  3.5161  2.7408 -2.4662
  302MOL0     H40744   5.717   7.285   7.053 -2.6116 -1.5078 -0.4602
  302MOL0     H40745   5.842   7.207   6.944  3.6145  2.3848  1.7209
  302MOL0     H40746   5.916   7.077   7.148  1.5783  0.0727 -0.9807
  302MOL0     H40747   5.986   7.232   7.125  1.0105 -0.3298  1.9452
  302MOL0     H40748   5.741   7.169   7.299 -0.0524 -0.2194 -0.2804
  302MOL0     H40749   5.810   7.340   7.281  4.3903  1.5525  0.6181
  302MOL0     H40750   5.882   7.258   7.479 -4.4806 -0.4601 -0.8940
  302MOL0     H40751   6.027   7.263   7.364 -0.6921  2.4117 -0.2815
  302MOL0     H40752   5.383   6.661   6.837  2.5186  0.9651  1.6028
  302MOL0     H40753   5.458   6.462   6.933 -0.8214  1.3691 -1.2295
  302MOL0     H40754   5.559   6.298   7.415 -1.0301  1.4619 -3.9595
  302MOL0     H40755   5.626   6.111   7.542 -2.9660 -1.3806 -0.1391
  302MOL0     H40756   5.176   4.873   8.187  4.0604 -1.7786  0.1787
  302MOL0     H40757   5.215   4.657   8.069 -2.0039  0.9137 -2.2222
  302MOL0     H40758   5.216   4.089   8.286 -0.7618  0.0682  0.2444
  302MOL0     H40759   5.358   3.917   8.191 -0.4379  2.2558  1.9458
  302MOL0     H40760   5.272   3.754   7.840 -0.3609  0.9795 -1.5206
  302MOL0     H40761   5.371   3.870   7.747 -1.1021 -0.3055 -0.4152
  302MOL0     H40762   5.570   3.727   7.794 -0.2036 -2.0947  3.8075
  302MOL0     H40763   5.450   3.647   7.690  2.3550  0.7866 -0.5818
  302MOL0     H40764   5.368   3.528   7.884 -1.8359  4.1808  1.3982
  302MOL0     H40765   5.478   3.616   7.994 -1.3560  4.6218 -1.9642
  302MOL0     H40766   5.593   3.399   7.947 -0.7137  1.7649  1.4902
  302MOL0     H40767   5.674   3.501   7.845 -0.4687  0.3654 -0.1412
  302MOL0     H40768   5.496   3.259   7.545  1.3502 -1.8627  0.2682
  302MOL0     H40769   5.290   4.074   7.791  0.4722  1.6563 -0.1215
  302MOL0     H40770   5.159   4.251   7.890 -0.6098  2.3290  2.3996
  303MOL0     O40771   2.718   8.820   6.008  0.6654 -0.2493  0.2128
  303MOL0     C40772   2.746   8.777   5.897  0.3940 -0.4882 -0.5313
  303MOL0     O40773   2.872   8.758   5.844 -0.4721  0.4948  0.3373
  303MOL0     C40774   2.984   8.753   5.919  0.1737  0.6880  0.7831
  303MOL0     C40775   3.102   8.806   5.872 -0.0509  0.9614  0.5247
  303MOL0     C40776   3.222   8.811   5.941 -0.2003 -0.7373  0.1190
  303MOL0     C40777   3.215   8.781   6.078  0.0461 -0.4713 -0.0028
  303MOL0     O40778   3.315   8.769   6.165  0.0828 -0.4160  0.0052
  303MOL0     C40779   3.454   8.808   6.129  0.0705  0.2956  0.9435
  303MOL0     C40780   3.529   8.811   6.262 -0.5251  0.0496 -0.1241
  303MOL0     C40781   3.681   8.855   6.234  0.1035 -0.5181 -0.5576
  303MOL0     C40782   3.765   8.749   6.178 -0.7717  0.4504  0.0082
  303MOL0     C40783   3.910   8.806   6.168  0.0150  0.0814 -0.3237
  303MOL0     C40784   3.984   8.688   6.098 -0.0121  0.3231 -0.4634
  303MOL0     C40785   4.140   8.712   6.087  0.6046 -0.6845  0.0899
  303MOL0     C40786   4.215   8.696   6.217 -0.2597 -0.3831 -0.0274
  303MOL0     N40787   4.352   8.753   6.228  0.7533  0.0043 -0.7757
  303MOL0     C40788   4.460   8.667   6.228  0.0271  0.7530 -0.4359
  303MOL0     C40789   4.562   8.754   6.234  0.1394 -0.5828 -0.7487
  303MOL0     C40790   4.714   8.729   6.227  0.0034 -0.4796  0.6160
  303MOL0     C40791   4.795   8.765   6.108 -0.1953 -0.6519  0.5612
  303MOL0     C40792   4.943   8.788   6.136  0.8234 -0.0964  0.1249
  303MOL0     C40793   5.002   8.668   6.211  0.2320 -0.7441  0.2016
  303MOL0     O40794   5.013   8.555   6.125  0.3544  0.6291 -0.0625
  303MOL0     C40795   5.064   8.452   6.192 -0.1401 -0.4008 -0.7755
  303MOL0     C40796   5.199   8.449   6.217  0.1954 -0.0646 -0.2674
  303MOL0     C40797   5.247   8.343   6.295  0.8880 -0.2861  0.4966
  303MOL0     C40798   5.394   8.328   6.312  0.1708  0.6224  0.5722
  303MOL0     C40799   5.163   8.233   6.340  0.5190 -0.4943  0.6126
  303MOL0     C40800   5.206   8.119   6.429 -0.1983  0.5375 -0.2058
  303MOL0     O40801   5.100   8.062   6.487  0.5272  0.1333 -0.0861
  303MOL0     C40802   5.115   7.953   6.575 -0.1448 -0.6129  0.4409
  303MOL0     C40803   5.027   7.851   6.552  0.1933 -0.2074  0.7612
  303MOL0     C40804   5.005   7.748   6.646  0.8476  0.1132  0.8601
  303MOL0     C40805   5.097   7.736   6.756 -0.8544  0.2789  0.1713
  303MOL0     O40806   5.083   7.633   6.845 -0.2966  0.8711  0.0175
  303MOL0     C40807   5.194   7.601   6.934 -0.3219 -0.4346  0.7228
  303MOL0     C40808   5.162   7.494   7.040  0.5170 -1.3141  0.7632
  303MOL0     C40809   5.132   7.352   6.993  0.6184 -0.1597 -0.0652
  303MOL0     C40810   5.046   7.276   7.107  0.4865 -0.4632 -0.4014
  303MOL0     C40811   5.126   7.284   7.245  0.1385 -1.1268  0.1363
  303MOL0     C40812   5.065   7.181   7.349  0.2089 -0.0452 -0.1544
  303MOL0     C40813   5.129   7.206   7.490  0.3605  0.3490  0.8317
  303MOL0     C40814   5.087   7.103   7.593  0.1605 -0.1436 -0.2331
  303MOL0    Cl40815   5.162   6.943   7.567 -0.2959  0.1051 -0.0658
  303MOL0     C40816   5.201   7.833   6.763 -0.1346  0.2203 -0.4623
  303MOL0     C40817   5.208   7.943   6.680 -0.3082 -0.3476 -0.8396
  303MOL0     O40818   5.323   8.094   6.452 -0.3130  0.1712  0.3591
  303MOL0     C40819   5.026   8.244   6.305 -0.7884  0.2695  0.6905
  303MOL0     C40820   4.984   8.350   6.226  0.4029  0.4704  0.2090
  303MOL0     N40821   4.510   8.880   6.257  0.0017 -0.3922  0.3069
  303MOL0     N40822   4.385   8.877   6.258  0.9897  0.0272 -0.5116
  303MOL0     C40823   3.096   8.736   6.135 -0.6367 -1.0754  0.1346
  303MOL0     C40824   2.987   8.719   6.051  2.1332 -0.3669 -0.4282
  303MOL0     C40825   2.642   8.727   5.817 -0.2381 -0.2449  0.4911
  303MOL0     C40826   2.650   8.729   5.678  0.0723  0.1553 -1.4070
  303MOL0     C40827   2.550   8.676   5.590  0.1471  0.0440  0.2617
  303MOL0     C40828   2.428   8.631   5.641  0.1551 -0.4727 -0.2224
  303MOL0     O40829   2.320   8.588   5.570 -0.4599  0.1924  0.6223
  303MOL0     C40830   2.326   8.606   5.427 -0.1539 -0.4106  0.0223
  303MOL0     C40831   2.216   8.533   5.333 -0.5644  0.4405 -0.5617
  303MOL0     C40832   2.255   8.530   5.183 -1.2737 -0.7507 -0.1498
  303MOL0     C40833   2.156   8.459   5.082 -0.2818 -0.1009  0.4304
  303MOL0     C40834   2.194   8.474   4.938  0.1432  0.0082 -0.6724
  303MOL0     C40835   2.230   8.490   4.824 -1.7396 -0.7531 -0.2534
  303MOL0     C40836   2.411   8.642   5.780 -0.2524  0.1179  0.3185
  303MOL0     C40837   2.515   8.689   5.868 -0.2273 -0.9847  0.0343
  303MOL0     H40838   3.105   8.835   5.767  3.9864  2.8346  0.9550
  303MOL0     H40839   3.315   8.846   5.897 -0.2261  0.3595  0.8952
  303MOL0     H40840   3.508   8.738   6.064  0.1247 -1.7456  3.0467
  303MOL0     H40841   3.448   8.908   6.086 -4.4760 -0.8758 -1.8908
  303MOL0     H40842   3.481   8.883   6.329  0.4808  0.9064 -0.2904
  303MOL0     H40843   3.540   8.706   6.291  2.1979 -0.1139 -1.4030
  303MOL0     H40844   3.668   8.944   6.172 -3.7731  0.8596  1.8425
  303MOL0     H40845   3.726   8.874   6.331  0.6093 -2.5621 -0.3387
  303MOL0     H40846   3.768   8.658   6.239  1.5390 -0.0644 -0.7736
  303MOL0     H40847   3.724   8.722   6.080 -2.9683 -2.2152  1.5349
  303MOL0     H40848   3.907   8.896   6.107  1.4652  1.4115  1.4546
  303MOL0     H40849   3.950   8.833   6.266  2.9005  0.5459 -1.5396
  303MOL0     H40850   3.968   8.591   6.146  1.5755 -0.1162 -0.7646
  303MOL0     H40851   3.937   8.686   5.999 -2.2648  1.4979  0.5160
  303MOL0     H40852   4.192   8.631   6.034 -0.3842 -2.4116  1.6007
  303MOL0     H40853   4.167   8.800   6.029 -0.7195 -0.2495  0.0992
  303MOL0     H40854   4.218   8.592   6.249  4.5105 -0.8427 -1.0974
  303MOL0     H40855   4.149   8.752   6.284  0.5395  0.2439  0.2532
  303MOL0     H40856   4.475   8.562   6.202  0.1018  0.9647 -1.2863
  303MOL0     H40857   4.740   8.794   6.312 -1.0523  0.8050 -0.0095
  303MOL0     H40858   4.725   8.624   6.254 -0.7202 -0.4218  1.2042
  303MOL0     H40859   4.749   8.856   6.065  2.8041  1.6136  1.8217
  303MOL0     H40860   4.775   8.686   6.035 -0.7696 -1.0865  1.1790
  303MOL0     H40861   4.955   8.882   6.190 -1.5045 -0.6178  1.7206
  303MOL0     H40862   4.988   8.804   6.038 -1.3138  1.0562 -0.7486
  303MOL0     H40863   4.944   8.648   6.301 -2.0191 -1.0818 -1.2482
  303MOL0     H40864   5.104   8.692   6.245 -0.1643 -1.0529  1.6951
  303MOL0     H40865   5.257   8.516   6.154 -1.3004  0.6636 -0.9073
  303MOL0     H40866   5.444   8.413   6.266  2.1221 -0.5629  0.3559
  303MOL0     H40867   5.420   8.344   6.417  2.4204  3.5123 -0.2822
  303MOL0     H40868   5.428   8.230   6.275 -3.5545 -1.3093  1.7915
  303MOL0     H40869   4.966   7.848   6.462 -1.8232  0.7319  2.0085
  303MOL0     H40870   4.917   7.684   6.635  1.1341  0.0358 -1.5211
  303MOL0     H40871   5.262   7.575   6.852 -1.4331 -0.1974 -0.2898
  303MOL0     H40872   5.227   7.695   6.981 -2.2806  0.7724 -0.1904
  303MOL0     H40873   5.243   7.492   7.114  1.3509  0.2640 -0.0375
  303MOL0     H40874   5.067   7.530   7.080 -0.1536 -0.8141 -1.1511
  303MOL0     H40875   5.229   7.303   6.983  1.7004  1.7779  0.2529
  303MOL0     H40876   5.090   7.356   6.892  0.8242  0.8838 -0.1277
  303MOL0     H40877   4.948   7.323   7.122  2.4926  3.4579  1.7876
  303MOL0     H40878   5.031   7.171   7.079 -0.6538 -0.5475  0.4397
  303MOL0     H40879   5.116   7.384   7.288  1.7236 -1.5930  1.7197
  303MOL0     H40880   5.234   7.267   7.242  0.1906 -1.1347  1.3882
  303MOL0     H40881   4.958   7.200   7.354  0.4452  1.6124 -0.8954
  303MOL0     H40882   5.085   7.078   7.317  3.6863  0.1388  0.9849
  303MOL0     H40883   5.100   7.310   7.511  0.4044  1.4670 -3.6395
  303MOL0     H40884   5.238   7.201   7.481  0.4509  2.6128  0.0993
  303MOL0     H40885   4.980   7.088   7.614 -0.3369  1.5199 -1.3765
  303MOL0     H40886   5.116   7.140   7.692 -2.5222 -0.1850  0.6596
  303MOL0     H40887   5.279   7.825   6.837 -1.3148 -0.9910  0.7046
  303MOL0     H40888   5.268   8.032   6.694  2.6647 -1.8169 -3.1311
  303MOL0     H40889   4.956   8.166   6.335 -0.3514 -1.1968 -1.8295
  303MOL0     H40890   4.879   8.351   6.197  0.4903  0.0036 -0.1492
  303MOL0     H40891   3.078   8.713   6.239 -0.4957  0.6021  0.5621
  303MOL0     H40892   2.898   8.683   6.101  2.2190  0.5903  0.4407
  303MOL0     H40893   2.733   8.788   5.641 -0.6610  1.9822 -0.2761
  303MOL0     H40894   2.574   8.683   5.485  0.9861 -0.2630  0.4224
  303MOL0     H40895   2.327   8.715   5.426  3.1085 -0.3526 -1.2805
  303MOL0     H40896   2.420   8.582   5.377 -0.9476  1.5234 -2.6086
  303MOL0     H40897   2.115   8.575   5.336 -0.3702  1.3403 -3.3903
  303MOL0     H40898   2.217   8.432   5.373 -0.1001  0.0431 -1.5456
  303MOL0     H40899   2.353   8.485   5.198 -0.5427  1.6520  3.7911
  303MOL0     H40900   2.266   8.634   5.149 -2.2571 -0.0743  1.4997
  303MOL0     H40901   2.052   8.490   5.092 -0.2370  0.1208  0.2130
  303MOL0     H40902   2.168   8.351   5.090  2.4078 -0.0018 -1.0392
  303MOL0     H40903   2.269   8.489   4.724  1.5357  1.0427  0.8373
  303MOL0     H40904   2.315   8.602   5.813 -0.7128  0.2587 -0.7824
  303MOL0     H40905   2.502   8.691   5.976 -1.1809 -2.7645 -0.0031
  304MOL0     O40906   7.810   4.832   2.814  0.2148 -0.0070  0.1778
  304MOL0     C40907   7.752   4.925   2.769  0.7958  0.9785  0.3633
  304MOL0     O40908   7.673   5.017   2.845  0.1746  0.4398 -0.2064
  304MOL0     C40909   7.700   5.028   2.982 -0.4944 -0.7562 -0.1889
  304MOL0     C40910   7.599   4.969   3.064 -0.7284 -0.4574  0.4758
  304MOL0     C40911   7.613   4.990   3.202 -0.2520 -0.0933 -0.2913
  304MOL0     C40912   7.720   5.052   3.257 -0.1364 -0.0474 -0.8808
  304MOL0     O40913   7.700   5.060   3.397 -0.1953  0.6275  0.1977
  304MOL0     C40914   7.821   5.087   3.463 -0.0926  0.2574 -0.4657
  304MOL0     C40915   7.779   5.104   3.610 -0.2822 -0.5321  0.9042
  304MOL0     C40916   7.886   5.145   3.703 -0.2753 -0.3156  0.3595
  304MOL0     C40917   7.980   5.038   3.749 -0.1717  1.3957 -0.0116
  304MOL0     C40918   7.913   4.924   3.847  0.5654 -0.1763  0.3891
  304MOL0     C40919   8.014   4.818   3.885 -0.8818  0.0793 -1.0639
  304MOL0     C40920   8.117   4.884   3.993  0.3793  1.0669 -0.2473
  304MOL0     C40921   8.233   4.798   4.037 -0.1893 -0.4177 -0.2200
  304MOL0     N40922   8.182   4.698   4.122 -0.8776  0.4356  0.2375
  304MOL0     C40923   8.131   4.576   4.072 -0.3758  0.4645 -0.5777
  304MOL0     C40924   8.109   4.497   4.179  0.5608  0.8140 -1.0375
  304MOL0     C40925   8.056   4.354   4.174  0.5048 -0.0462 -0.7406
  304MOL0     C40926   7.898   4.345   4.195 -0.6949  0.1378  0.4350
  304MOL0     C40927   7.873   4.350   4.348 -0.3879  1.0357  0.1519
  304MOL0     C40928   7.736   4.297   4.381 -0.0080  0.2735 -0.2170
  304MOL0     O40929   7.637   4.341   4.280 -0.9203  0.5376 -0.3181
  304MOL0     C40930   7.511   4.304   4.308 -0.0792 -0.7552  0.1235
  304MOL0     C40931   7.414   4.367   4.237 -0.4634  0.8590  1.2957
  304MOL0     C40932   7.281   4.344   4.256  1.1857  0.4216  0.2831
  304MOL0     C40933   7.195   4.437   4.176 -0.1440 -0.0389 -0.1120
  304MOL0     C40934   7.241   4.248   4.348  0.0522 -0.0489  0.2222
  304MOL0     C40935   7.093   4.222   4.375 -0.2554  0.1080 -0.2491
  304MOL0     O40936   7.003   4.313   4.328 -0.1462 -0.0589 -0.2780
  304MOL0     C40937   6.929   4.388   4.419 -0.3352  0.6662  0.6715
  304MOL0     C40938   6.826   4.457   4.362  0.0376 -0.6553  0.3073
  304MOL0     C40939   6.729   4.523   4.442  0.3715 -0.2677  1.1822
  304MOL0     C40940   6.750   4.529   4.579 -0.4897  0.2752  0.2590
  304MOL0     O40941   6.677   4.631   4.642 -0.0645  0.3545 -1.0395
  304MOL0     C40942   6.699   4.649   4.778  0.0631  0.7706 -0.7321
  304MOL0     C40943   6.597   4.737   4.845  0.0277 -0.6107  0.5859
  304MOL0     C40944   6.451   4.697   4.815  0.0188  0.1268  0.2486
  304MOL0     C40945   6.356   4.783   4.902  0.0697  0.2236  0.1308
  304MOL0     C40946   6.208   4.749   4.882 -0.1371  1.0721  0.6897
  304MOL0     C40947   6.152   4.791   4.748  0.2055 -0.7285  0.1784
  304MOL0     C40948   6.063   4.690   4.686 -0.0285  0.4038  0.2826
  304MOL0     C40949   6.047   4.714   4.539 -0.9218  0.6854 -0.5356
  304MOL0    Cl40950   5.954   4.869   4.522 -0.3512 -0.0931  0.2140
  304MOL0     C40951   6.865   4.476   4.633 -0.2930  0.4479 -0.7992
  304MOL0     C40952   6.961   4.404   4.558  0.1725  0.2037 -0.3148
  304MOL0     O40953   7.072   4.114   4.431  0.1830 -0.3816  0.9176
  304MOL0     C40954   7.343   4.179   4.410  0.2556  0.4229  0.0148
  304MOL0     C40955   7.476   4.204   4.397  1.6241  0.4688  0.2654
  304MOL0     N40956   8.165   4.563   4.288  0.1214  0.5130  0.0383
  304MOL0     N40957   8.193   4.688   4.258 -0.6415  0.1323  0.5514
  304MOL0     C40958   7.816   5.106   3.171  0.5583 -0.9599 -0.0580
  304MOL0     C40959   7.801   5.109   3.034  0.6511 -0.2450  0.0409
  304MOL0     C40960   7.716   4.912   2.628  0.1609 -0.2884 -0.4073
  304MOL0     C40961   7.653   5.021   2.564 -0.0753  0.1786 -0.0503
  304MOL0     C40962   7.614   5.018   2.431 -0.3378 -0.1500  0.5693
  304MOL0     C40963   7.651   4.906   2.344 -1.0168  0.2201  0.5596
  304MOL0     O40964   7.624   4.905   2.205  0.6715 -0.5092  0.8634
  304MOL0     C40965   7.649   4.785   2.139  0.2111 -0.2037  1.0622
  304MOL0     C40966   7.595   4.785   1.989 -0.0627  0.3281 -0.9030
  304MOL0     C40967   7.694   4.862   1.897  0.3011  0.1562 -0.5511
  304MOL0     C40968   7.622   4.908   1.772 -0.3043  0.3402 -1.5399
  304MOL0     C40969   7.716   4.986   1.684  0.9095  0.2921 -0.7647
  304MOL0     C40970   7.789   5.060   1.617  0.5128  0.3985 -0.0171
  304MOL0     C40971   7.716   4.802   2.414  0.5566  1.0070 -1.3062
  304MOL0     C40972   7.739   4.796   2.555 -0.0486  0.0557 -0.8981
  304MOL0     H40973   7.509   4.917   3.033 -0.8074  0.1752 -0.3618
  304MOL0     H40974   7.527   4.945   3.251  0.7074 -1.5070  0.1372
  304MOL0     H40975   7.885   4.998   3.452 -0.8473 -0.6332  1.7671
  304MOL0     H40976   7.858   5.182   3.424 -2.6371  0.6532 -2.1623
  304MOL0     H40977   7.705   5.184   3.604  0.9915  0.6234  0.1427
  304MOL0     H40978   7.733   5.009   3.638  5.0946 -3.5485  0.7242
  304MOL0     H40979   7.937   5.228   3.654 -2.3543  1.0581  0.4447
  304MOL0     H40980   7.845   5.192   3.793 -2.7545 -0.9245 -0.3724
  304MOL0     H40981   8.018   4.991   3.658 -2.2567  0.1283 -0.2941
  304MOL0     H40982   8.071   5.073   3.800  1.1849  0.9797 -2.0277
  304MOL0     H40983   7.871   4.962   3.941  1.4108  0.4508  0.5238
  304MOL0     H40984   7.827   4.894   3.786  0.9711  1.8206 -1.2862
  304MOL0     H40985   7.960   4.736   3.933  0.3414  0.5728  1.3203
  304MOL0     H40986   8.058   4.788   3.789 -1.3087 -1.8831 -0.6906
  304MOL0     H40987   8.167   4.971   3.950  3.7883 -0.2528  0.6779
  304MOL0     H40988   8.059   4.924   4.076  3.5245  0.5545  2.4419
  304MOL0     H40989   8.286   4.865   4.105  0.7427 -0.8745 -0.4893
  304MOL0     H40990   8.299   4.768   3.956  2.0550  0.0996  1.3175
  304MOL0     H40991   8.119   4.539   3.971  0.3800 -1.4033 -0.0334
  304MOL0     H40992   8.082   4.309   4.078 -3.4003  3.1715 -3.6972
  304MOL0     H40993   8.113   4.306   4.253  0.3149  1.3124  0.2599
  304MOL0     H40994   7.865   4.249   4.155 -1.4264 -0.4147  2.2833
  304MOL0     H40995   7.853   4.429   4.141  0.7525  0.3257 -0.5409
  304MOL0     H40996   7.872   4.455   4.379  1.6339  1.9396 -2.4546
  304MOL0     H40997   7.949   4.301   4.409 -1.6560  0.9043  1.6901
  304MOL0     H40998   7.697   4.328   4.479 -3.0494  0.4871 -1.4046
  304MOL0     H40999   7.749   4.189   4.391  0.6737  0.3364 -0.3633
  304MOL0     H41000   7.449   4.435   4.161 -2.5116  1.2151  0.6140
  304MOL0     H41001   7.129   4.497   4.240 -1.4666  0.3060 -1.7094
  304MOL0     H41002   7.256   4.505   4.115 -0.1713  0.0212 -0.0729
  304MOL0     H41003   7.132   4.376   4.111  1.3065  1.0012 -2.6525
  304MOL0     H41004   6.827   4.459   4.253  2.9318  5.3387  0.0426
  304MOL0     H41005   6.650   4.585   4.401  1.7582 -0.1464 -1.5540
  304MOL0     H41006   6.702   4.557   4.837 -0.3114  2.4911  2.1501
  304MOL0     H41007   6.795   4.701   4.779  0.0714  0.8099 -2.1169
  304MOL0     H41008   6.627   4.743   4.950  4.4746  0.1560 -0.5102
  304MOL0     H41009   6.599   4.839   4.805 -2.7242 -1.1885 -1.3418
  304MOL0     H41010   6.428   4.594   4.843 -3.1964  0.9117  0.8875
  304MOL0     H41011   6.431   4.716   4.709 -0.6893 -0.5414  0.2493
  304MOL0     H41012   6.383   4.760   5.006 -1.0040 -1.2728  0.1180
  304MOL0     H41013   6.370   4.888   4.876 -2.5626  0.9216  1.1388
  304MOL0     H41014   6.134   4.786   4.954 -2.2667 -0.2540 -0.7047
  304MOL0     H41015   6.199   4.640   4.884 -1.4203  1.1663  0.5285
  304MOL0     H41016   6.106   4.890   4.752  1.6544  0.3128 -3.8743
  304MOL0     H41017   6.227   4.807   4.670  1.6223  0.3322  1.6713
  304MOL0     H41018   5.967   4.671   4.735  1.0631  0.7463  2.6924
  304MOL0     H41019   6.128   4.602   4.686  2.0708  1.8549 -1.4290
  304MOL0     H41020   5.995   4.633   4.487  0.4872  0.9041 -2.4023
  304MOL0     H41021   6.147   4.705   4.496  0.1647 -1.4807  2.1065
  304MOL0     H41022   6.887   4.501   4.736 -1.1980  0.5556 -0.6241
  304MOL0     H41023   7.039   4.352   4.611 -0.4104  1.3837  1.7956
  304MOL0     H41024   7.305   4.097   4.470 -0.2362  0.0031 -0.8422
  304MOL0     H41025   7.539   4.136   4.454 -1.7544 -2.5228  0.7810
  304MOL0     H41026   7.894   5.167   3.216 -0.5085  0.3191  0.1334
  304MOL0     H41027   7.867   5.172   2.975  1.5005 -2.4166 -1.4529
  304MOL0     H41028   7.644   5.115   2.618 -1.8032  1.2061 -1.9548
  304MOL0     H41029   7.561   5.106   2.396 -0.5390  0.0254  1.2957
  304MOL0     H41030   7.756   4.769   2.127  0.8738  4.7072 -4.3032
  304MOL0     H41031   7.599   4.705   2.194 -3.2227  1.0969  0.1514
  304MOL0     H41032   7.491   4.820   1.981 -0.1481  0.3966  0.2311
  304MOL0     H41033   7.595   4.680   1.957  0.6222 -0.4656  1.4451
  304MOL0     H41034   7.770   4.798   1.852  0.8870  2.2691 -2.7567
  304MOL0     H41035   7.745   4.947   1.943 -3.3893  1.6834  1.1640
  304MOL0     H41036   7.539   4.976   1.795 -1.5479 -0.9727 -2.0452
  304MOL0     H41037   7.583   4.825   1.713 -0.5724  1.0964 -2.4459
  304MOL0     H41038   7.851   5.116   1.551  2.1450 -3.0835 -1.6691
  304MOL0     H41039   7.733   4.709   2.361  0.7335 -0.0332  0.4718
  304MOL0     H41040   7.790   4.709   2.596 -0.2827  0.2286 -0.2259
  305MOL0     O41041  11.440   0.299   1.558 -0.4986 -0.2860  0.4539
  305MOL0     C41042  11.458   0.325   1.441 -0.2509 -0.4264  0.0612
  305MOL0     O41043  11.570   0.292   1.362 -0.0717  0.4384 -0.0523
  305MOL0     C41044  11.664   0.219   1.435 -0.6734 -0.3238  1.0082
  305MOL0     C41045  11.744   0.272   1.539  0.0464  0.3384 -0.8702
  305MOL0     C41046  11.845   0.201   1.595  0.9630  0.4935 -0.0033
  305MOL0     C41047  11.860   0.067   1.571 -0.1869  0.4235 -0.6046
  305MOL0     O41048  11.936  -0.007   1.654 -0.1565  0.6668  0.3199
  305MOL0     C41049  12.056  -0.058   1.600 -0.4789 -0.4895  0.6635
  305MOL0     C41050  12.117  -0.157   1.704  0.2781 -0.4474  0.0657
  305MOL0     C41051  12.214  -0.086   1.798 -0.1172  0.2316 -0.8183
  305MOL0     C41052  12.264  -0.182   1.906  0.3458  0.5732  0.4439
  305MOL0     C41053  12.379  -0.120   1.980 -0.0979  0.9136  0.3765
  305MOL0     C41054  12.350  -0.015   2.090 -1.3087 -0.2599 -0.1646
  305MOL0     C41055  12.491   0.031   2.130 -0.9973 -0.9201 -0.4248
  305MOL0     C41056  12.490   0.171   2.198 -0.8838 -0.4534  0.2088
  305MOL0     N41057  12.632   0.200   2.238 -0.0282  0.2200 -0.2257
  305MOL0     C41058  12.706   0.133   2.332 -0.5056  0.0902 -0.0242
  305MOL0     C41059  12.830   0.188   2.328  0.0025  0.1573 -0.3675
  305MOL0     C41060  12.955   0.136   2.404 -1.0172 -0.2164 -0.4352
  305MOL0     C41061  12.925   0.104   2.547  0.1008 -0.9976 -0.1481
  305MOL0     C41062  13.054   0.035   2.598  0.7082  1.0715 -0.3681
  305MOL0     C41063  13.047   0.020   2.747 -0.2304 -0.3432 -0.2189
  305MOL0     O41064  13.059   0.144   2.819 -0.6856  0.1158  0.6443
  305MOL0     C41065  13.054   0.148   2.950  0.0031 -0.7865  0.1260
  305MOL0     C41066  13.062   0.045   3.035  0.9988  0.3015 -0.6835
  305MOL0     C41067  13.051   0.055   3.178  0.4661 -0.5442 -0.4995
  305MOL0     C41068  13.039  -0.081   3.262  0.3385 -0.3119  0.7823
  305MOL0     C41069  13.061   0.181   3.246  0.3328  0.1354 -0.4121
  305MOL0     C41070  13.071   0.198   3.391  0.3605  0.1943  0.4980
  305MOL0     O41071  12.998   0.121   3.476 -0.0134 -0.4027  0.2655
  305MOL0     C41072  13.063   0.090   3.596 -0.7203  0.4810  0.0735
  305MOL0     C41073  13.075  -0.039   3.636 -0.8759  0.6573 -0.5971
  305MOL0     C41074  13.126  -0.074   3.763 -0.0563 -0.4716  0.5432
  305MOL0     C41075  13.142   0.029   3.860  0.7752  0.1890 -0.0325
  305MOL0     O41076  13.179   0.007   3.989 -0.4783  0.4083  0.6401
  305MOL0     C41077  13.245  -0.113   4.019 -0.3211  1.1748  0.0829
  305MOL0     C41078  13.321  -0.101   4.148  0.2713 -0.6725 -0.6915
  305MOL0     C41079  13.464  -0.055   4.127 -0.3481 -0.2643 -0.5439
  305MOL0     C41080  13.525  -0.026   4.261 -0.8078 -0.9880  1.2623
  305MOL0     C41081  13.659   0.046   4.244 -0.4668 -0.5151 -0.0931
  305MOL0     C41082  13.733   0.088   4.367  0.0830  0.1864 -0.4980
  305MOL0     C41083  13.818   0.224   4.345  1.0433  0.5334 -0.3319
  305MOL0     C41084  13.915   0.205   4.220  0.6236  0.4528 -0.4499
  305MOL0    Cl41085  13.996   0.359   4.186  0.3667  0.1953 -0.4012
  305MOL0     C41086  13.134   0.154   3.821  0.7463  0.1573 -0.1255
  305MOL0     C41087  13.089   0.192   3.697 -0.7205 -0.4904 -0.4103
  305MOL0     O41088  13.140   0.286   3.427  0.1914 -0.3283 -0.4148
  305MOL0     C41089  13.067   0.294   3.161  0.5637 -0.0666  0.2099
  305MOL0     C41090  13.062   0.277   3.014  0.0959  0.7787  0.0736
  305MOL0     N41091  12.835   0.286   2.238  0.6226 -0.5010 -0.0155
  305MOL0     N41092  12.710   0.295   2.185  0.3824  0.1262 -0.1104
  305MOL0     C41093  11.789   0.002   1.465 -1.0123 -0.0372 -0.0245
  305MOL0     C41094  11.686   0.081   1.411 -0.0702 -0.3532 -0.5973
  305MOL0     C41095  11.357   0.412   1.383  0.5776 -0.8541  0.0506
  305MOL0     C41096  11.225   0.419   1.438  0.0063 -0.0134  0.2736
  305MOL0     C41097  11.135   0.519   1.405 -0.3326 -0.2664 -0.6759
  305MOL0     C41098  11.164   0.611   1.300 -0.7501 -0.7129 -0.0553
  305MOL0     O41099  11.098   0.729   1.278  0.2959  0.1343 -0.0112
  305MOL0     C41100  10.965   0.749   1.331 -0.5113  0.3427 -0.0374
  305MOL0     C41101  10.860   0.651   1.275  0.0019 -0.3233 -0.2812
  305MOL0     C41102  10.815   0.695   1.140 -0.4997 -0.2762  0.6831
  305MOL0     C41103  10.684   0.780   1.154  0.4892 -0.1097  0.6807
  305MOL0     C41104  10.624   0.813   1.027  0.2736  0.0314 -0.2697
  305MOL0     C41105  10.566   0.835   0.924  0.0945  0.1078 -0.3913
  305MOL0     C41106  11.295   0.597   1.230  0.1623  1.1379  0.1545
  305MOL0     C41107  11.393   0.501   1.276  0.3038  0.7981 -0.1993
  305MOL0     H41108  11.722   0.373   1.572 -2.0965 -1.1195  2.7518
  305MOL0     H41109  11.883   0.240   1.688 -0.6374 -0.0164  0.9017
  305MOL0     H41110  12.036  -0.118   1.511 -0.9100 -1.0547  1.1331
  305MOL0     H41111  12.128   0.016   1.565 -0.0685 -0.5969  1.2749
  305MOL0     H41112  12.028  -0.179   1.763 -1.3294  1.3162 -1.5428
  305MOL0     H41113  12.156  -0.252   1.666 -2.9666 -1.2820 -1.6346
  305MOL0     H41114  12.301  -0.066   1.734  2.2452 -0.4155  1.9635
  305MOL0     H41115  12.179   0.011   1.834  0.1343 -0.3267  1.0321
  305MOL0     H41116  12.178  -0.198   1.971  2.1299  0.0902  2.8251
  305MOL0     H41117  12.292  -0.278   1.862  1.1231  0.9521  0.0828
  305MOL0     H41118  12.426  -0.201   2.037  0.1443  1.1570  0.5208
  305MOL0     H41119  12.455  -0.083   1.912  0.4624  0.9569  1.0192
  305MOL0     H41120  12.292   0.069   2.051 -0.1348  0.1630 -1.0584
  305MOL0     H41121  12.295  -0.055   2.175  0.3719  1.6888  1.9624
  305MOL0     H41122  12.531  -0.045   2.198  4.0289  0.3246 -1.6245
  305MOL0     H41123  12.549   0.048   2.039 -0.2218  2.8937  0.5945
  305MOL0     H41124  12.421   0.181   2.282  0.2435 -1.6001  1.3051
  305MOL0     H41125  12.458   0.243   2.122  0.5963 -2.6468 -2.6814
  305MOL0     H41126  12.684   0.037   2.378 -0.0289  1.5398  3.5540
  305MOL0     H41127  12.982   0.043   2.354 -0.6786  0.0465 -0.7443
  305MOL0     H41128  13.033   0.212   2.400 -3.5028  2.5937  0.4871
  305MOL0     H41129  12.849   0.025   2.549 -1.4584  0.4676  1.0157
  305MOL0     H41130  12.884   0.187   2.605 -0.6245 -2.2031  1.1519
  305MOL0     H41131  13.143   0.088   2.562  0.8006 -0.9158 -3.5633
  305MOL0     H41132  13.063  -0.067   2.559  0.4821  0.5128  1.0043
  305MOL0     H41133  13.126  -0.046   2.784  0.5907 -0.4072 -1.9952
  305MOL0     H41134  12.954  -0.032   2.776 -2.3347  1.2029 -3.5606
  305MOL0     H41135  13.071  -0.054   2.991 -2.9359  0.9583 -3.5581
  305MOL0     H41136  13.132  -0.100   3.316  2.7258  2.7553 -1.8027
  305MOL0     H41137  12.957  -0.077   3.334 -0.2137  0.7769  0.1200
  305MOL0     H41138  13.024  -0.164   3.192  0.4270  0.5521 -0.2886
  305MOL0     H41139  13.055  -0.112   3.558 -3.0009  2.2929 -1.7051
  305MOL0     H41140  13.153  -0.176   3.787  1.2464 -0.3053 -0.1163
  305MOL0     H41141  13.170  -0.188   4.048  0.2296  0.8519  0.6777
  305MOL0     H41142  13.310  -0.139   3.936 -0.4924  2.2380 -0.4122
  305MOL0     H41143  13.270  -0.022   4.203 -0.9488 -1.2979 -0.9106
  305MOL0     H41144  13.328  -0.197   4.200  2.5015 -0.3761 -0.3179
  305MOL0     H41145  13.457   0.032   4.061 -2.6378 -1.3525 -1.8629
  305MOL0     H41146  13.532  -0.127   4.081  2.7114  0.6777  2.0816
  305MOL0     H41147  13.455   0.033   4.320  0.2918 -0.0153  1.6181
  305MOL0     H41148  13.539  -0.120   4.315  0.7056 -0.0853  2.5233
  305MOL0     H41149  13.639   0.145   4.201  1.4366  0.6089  1.3861
  305MOL0     H41150  13.738  -0.007   4.191  0.3898  0.9079 -0.3055
  305MOL0     H41151  13.659   0.112   4.444 -1.3658 -3.1355 -0.6911
  305MOL0     H41152  13.799   0.009   4.406  0.1862 -0.7791 -2.5270
  305MOL0     H41153  13.878   0.252   4.432  0.2980  0.1402  0.3158
  305MOL0     H41154  13.745   0.302   4.322  0.4007 -0.3134 -1.2272
  305MOL0     H41155  13.854   0.168   4.137  2.6720 -0.9615 -1.4052
  305MOL0     H41156  13.990   0.126   4.224 -0.1598 -0.2879 -0.2953
  305MOL0     H41157  13.150   0.228   3.899  0.2459 -1.4275  1.5494
  305MOL0     H41158  13.081   0.300   3.687 -1.4189 -0.2203  2.4492
  305MOL0     H41159  13.082   0.395   3.198  3.4072  0.2375 -1.4789
  305MOL0     H41160  13.063   0.363   2.948  3.8402 -1.0092 -2.6063
  305MOL0     H41161  11.804  -0.102   1.437  0.6159  0.5196 -1.3827
  305MOL0     H41162  11.624   0.048   1.328 -1.1411  2.3386 -0.9874
  305MOL0     H41163  11.216   0.354   1.524 -1.2782  0.7488  0.7435
  305MOL0     H41164  11.046   0.533   1.466  1.2686  1.0633  1.4749
  305MOL0     H41165  10.977   0.745   1.440  1.4393 -3.7900 -0.2120
  305MOL0     H41166  10.928   0.851   1.313 -0.2616  0.9702  2.5198
  305MOL0     H41167  10.781   0.626   1.346  0.5828 -2.2734 -0.2762
  305MOL0     H41168  10.904   0.553   1.254 -0.8504 -0.3844 -1.9453
  305MOL0     H41169  10.795   0.602   1.085 -0.6263  0.2222 -0.1286
  305MOL0     H41170  10.895   0.739   1.079 -0.9755 -4.4828 -3.5696
  305MOL0     H41171  10.693   0.870   1.215  0.8843  1.7150 -1.9079
  305MOL0     H41172  10.599   0.722   1.190 -0.3701  0.7517  0.0785
  305MOL0     H41173  10.503   0.857   0.840 -0.6501  0.9661  0.3787
  305MOL0     H41174  11.319   0.669   1.152 -2.6235  0.7440 -1.2240
  305MOL0     H41175  11.487   0.490   1.223  1.9524  0.1918  2.6431
  306MOL0     O41176   0.349  10.629  10.733  0.2699  0.2429  0.0087
  306MOL0     C41177   0.467  10.596  10.755  0.0919 -0.8711  0.4459
  306MOL0     O41178   0.514  10.469  10.734  0.7783 -0.5698  0.5038
  306MOL0     C41179   0.415  10.378  10.704  0.6447 -0.3588 -0.2742
  306MOL0     C41180   0.330  10.331  10.799 -0.4684  0.5647 -0.5359
  306MOL0     C41181   0.241  10.220  10.774  1.1506 -1.2160  0.6501
  306MOL0     C41182   0.244  10.172  10.643  0.6199 -0.0118 -0.1374
  306MOL0     O41183   0.155  10.073  10.616  0.3694 -0.5763  0.0095
  306MOL0     C41184   0.115  10.034  10.480  1.3051  0.8246  0.5934
  306MOL0     C41185   0.034  10.144  10.407 -0.6744 -1.0541  0.8443
  306MOL0     C41186  -0.105  10.109  10.380 -0.2109  0.4872 -0.4445
  306MOL0     C41187  -0.208  10.115  10.502  0.0408  0.1086 -0.4846
  306MOL0     C41188  -0.358  10.082  10.459  0.1800 -0.4524 -0.7775
  306MOL0     C41189  -0.375   9.937  10.399 -0.1985 -1.4737 -0.9420
  306MOL0     C41190  -0.356   9.828  10.504 -0.7579 -0.0007  0.7337
  306MOL0     C41191  -0.424   9.693  10.469 -0.1955 -0.1347  0.2005
  306MOL0     N41192  -0.398   9.592  10.569  0.2540 -0.0893 -0.0805
  306MOL0     C41193  -0.439   9.602  10.702 -0.9241 -0.1558 -1.1787
  306MOL0     C41194  -0.362   9.520  10.772  0.6285  0.1876 -0.0101
  306MOL0     C41195  -0.358   9.497  10.920 -0.3106 -0.9725 -0.0770
  306MOL0     C41196  -0.472   9.405  10.962 -0.8390 -0.7697 -0.0437
  306MOL0     C41197  -0.475   9.382  11.114 -0.3969  0.3394  0.0676
  306MOL0     C41198  -0.556   9.490  11.197  0.0569  0.1323  0.2651
  306MOL0     O41199  -0.538   9.463  11.336 -0.2304  0.3388 -0.1074
  306MOL0     C41200  -0.612   9.375  11.406 -0.0708 -0.4549  0.0134
  306MOL0     C41201  -0.562   9.355  11.533  0.0513  0.1146  0.0530
  306MOL0     C41202  -0.607   9.239  11.610 -0.4853  0.0752  0.2282
  306MOL0     C41203  -0.545   9.224  11.744  0.7685  0.6228  0.0188
  306MOL0     C41204  -0.713   9.161  11.554  0.0953 -0.3169 -0.1222
  306MOL0     C41205  -0.771   9.046  11.619 -0.3394  0.8787  0.4622
  306MOL0     O41206  -0.890   8.994  11.561 -0.2483 -0.4770  0.0928
  306MOL0     C41207  -0.932   8.871  11.615 -0.3545 -0.1591 -0.3747
  306MOL0     C41208  -1.060   8.864  11.680 -1.8119 -0.0744 -0.3450
  306MOL0     C41209  -1.110   8.746  11.750 -0.2722 -0.1012 -0.7628
  306MOL0     C41210  -1.034   8.632  11.757 -0.1727 -0.5975 -0.0413
  306MOL0     O41211  -1.066   8.523  11.828 -0.0001  0.2508 -0.1568
  306MOL0     C41212  -1.061   8.393  11.775 -0.1009  0.6930  0.1953
  306MOL0     C41213  -1.139   8.290  11.859 -0.5368  0.9282 -0.6561
  306MOL0     C41214  -1.059   8.224  11.977  0.7419 -0.1499  0.5379
  306MOL0     C41215  -1.029   8.332  12.078  0.4724  0.6316 -0.0553
  306MOL0     C41216  -0.966   8.274  12.207 -0.1444  0.6464 -0.1152
  306MOL0     C41217  -0.967   8.362  12.335 -0.8800  0.2330  0.0352
  306MOL0     C41218  -1.113   8.401  12.380  0.1250 -0.0081 -0.2898
  306MOL0     C41219  -1.112   8.521  12.476 -0.3422  0.5520 -0.8811
  306MOL0    Cl41220  -1.269   8.601  12.510 -0.1032 -0.1746 -0.2350
  306MOL0     C41221  -0.915   8.635  11.688 -0.0930 -0.6082 -0.3678
  306MOL0     C41222  -0.858   8.748  11.624  0.0131  0.5286  0.4440
  306MOL0     O41223  -0.709   8.996  11.711  0.2062 -0.3418  0.8590
  306MOL0     C41224  -0.754   9.191  11.426  0.2003  0.4314 -0.0852
  306MOL0     C41225  -0.705   9.293  11.341  0.1789  0.5590  0.0720
  306MOL0     N41226  -0.262   9.462  10.688  0.0405 -0.6021 -0.2506
  306MOL0     N41227  -0.296   9.505  10.566 -0.3287 -0.1353 -1.1184
  306MOL0     C41228   0.342  10.205  10.548  0.7316  0.2933 -0.7810
  306MOL0     C41229   0.427  10.310  10.582 -1.1869 -0.2441  0.4382
  306MOL0     C41230   0.562  10.702  10.803 -0.3735  0.9189  0.1730
  306MOL0     C41231   0.520  10.833  10.838 -0.7087 -0.6760 -0.0847
  306MOL0     C41232   0.620  10.930  10.889  0.2769  0.6208  0.3106
  306MOL0     C41233   0.745  10.889  10.922  0.5808  1.4870 -0.4508
  306MOL0     O41234   0.828  10.977  10.978 -0.4642 -0.3097 -0.9944
  306MOL0     C41235   0.971  10.947  11.011  0.1558 -0.2601  0.6531
  306MOL0     C41236   1.031  11.065  11.091 -0.4883  0.1415  0.8160
  306MOL0     C41237   1.173  11.048  11.125  0.1745 -0.5159 -0.8130
  306MOL0     C41238   1.213  11.144  11.242 -0.5525 -0.3028 -0.5029
  306MOL0     C41239   1.355  11.119  11.284 -0.4607  0.0364  0.3072
  306MOL0     C41240   1.471  11.097  11.278 -0.2488 -0.2620  0.1886
  306MOL0     C41241   0.786  10.765  10.884  0.6469  0.6013 -0.4015
  306MOL0     C41242   0.702  10.671  10.823 -0.9290  0.5987 -0.0479
  306MOL0     H41243   0.316  10.397  10.884 -0.7642  2.3701 -1.9123
  306MOL0     H41244   0.158  10.190  10.838  0.5423  0.7943  0.8827
  306MOL0     H41245   0.206  10.013  10.423  0.1647  2.9653 -2.2624
  306MOL0     H41246   0.057   9.941  10.477 -1.8013  2.4625  3.3604
  306MOL0     H41247   0.049  10.235  10.465  2.4921 -0.6549 -0.3988
  306MOL0     H41248   0.087  10.171  10.315 -0.1201  3.9870  2.3701
  306MOL0     H41249  -0.142  10.181  10.307 -3.7974 -1.2336 -0.4971
  306MOL0     H41250  -0.107  10.011  10.333  2.3649  0.3714 -0.4636
  306MOL0     H41251  -0.166  10.059  10.586 -0.8294  1.9646  1.2607
  306MOL0     H41252  -0.215  10.212  10.552  0.3655 -0.6193  1.0108
  306MOL0     H41253  -0.433  10.106  10.535  1.7856 -0.1123  0.7606
  306MOL0     H41254  -0.383  10.152  10.379 -0.6574 -1.2749 -1.2649
  306MOL0     H41255  -0.474   9.919  10.357 -0.9229  0.6285 -0.2914
  306MOL0     H41256  -0.306   9.915  10.317  3.1599  3.3605  0.1382
  306MOL0     H41257  -0.250   9.815  10.530 -1.0469 -0.4254  1.7524
  306MOL0     H41258  -0.399   9.868  10.597 -0.7488  1.6231  0.0705
  306MOL0     H41259  -0.381   9.654  10.376 -2.7086 -0.4272 -0.8937
  306MOL0     H41260  -0.529   9.701  10.442  0.5787 -1.4095 -3.8826
  306MOL0     H41261  -0.521   9.663  10.738 -0.1300 -0.5089  1.3912
  306MOL0     H41262  -0.259   9.455  10.937 -0.4456 -2.2182 -2.0543
  306MOL0     H41263  -0.373   9.590  10.976 -4.5027 -0.5366 -1.5151
  306MOL0     H41264  -0.468   9.309  10.911 -1.6962 -1.9337  1.9468
  306MOL0     H41265  -0.567   9.455  10.943 -0.4416 -0.0077 -0.0590
  306MOL0     H41266  -0.369   9.384  11.141  0.0183  0.4200 -1.4832
  306MOL0     H41267  -0.498   9.276  11.132  0.5978 -0.1701 -1.4805
  306MOL0     H41268  -0.662   9.481  11.172 -0.3288 -0.8421  2.0568
  306MOL0     H41269  -0.540   9.592  11.163  0.1650 -0.7105 -2.4312
  306MOL0     H41270  -0.483   9.421  11.568  0.0823  2.0457 -3.3011
  306MOL0     H41271  -0.473   9.142  11.729  0.2890 -0.0476  1.2819
  306MOL0     H41272  -0.490   9.311  11.779  1.5173  0.0243  0.3609
  306MOL0     H41273  -0.628   9.195  11.808  0.1710 -1.2636 -1.4937
  306MOL0     H41274  -1.124   8.953  11.681 -1.8832 -0.1254 -0.4401
  306MOL0     H41275  -1.200   8.756  11.809  0.9030  0.4966  1.0458
  306MOL0     H41276  -1.114   8.395  11.679  0.8852  0.5737 -0.3625
  306MOL0     H41277  -0.963   8.354  11.748 -0.6695 -1.0157  0.4677
  306MOL0     H41278  -1.225   8.345  11.899 -1.5971 -2.4804  2.3326
  306MOL0     H41279  -1.170   8.202  11.803  2.1826 -2.0586  2.1083
  306MOL0     H41280  -0.978   8.161  11.940 -1.0912 -0.4115 -3.6542
  306MOL0     H41281  -1.133   8.159  12.024  1.7247 -2.4939 -1.0119
  306MOL0     H41282  -0.966   8.408  12.031 -0.7161  3.2454  2.2755
  306MOL0     H41283  -1.122   8.386  12.096  0.1531  0.2513 -0.5597
  306MOL0     H41284  -0.860   8.253  12.191 -0.2169 -0.0221  0.2335
  306MOL0     H41285  -1.022   8.182  12.227 -2.4686  1.5824 -1.8335
  306MOL0     H41286  -0.907   8.302  12.405 -0.9365 -0.6098 -0.6149
  306MOL0     H41287  -0.906   8.447  12.301  3.1998 -2.8750 -1.2929
  306MOL0     H41288  -1.152   8.309  12.425  1.7267 -1.3902 -1.5809
  306MOL0     H41289  -1.178   8.426  12.296 -1.0974  0.1061  0.6591
  306MOL0     H41290  -1.027   8.586  12.454  1.6097 -0.3297  3.0750
  306MOL0     H41291  -1.073   8.477  12.569  0.3339 -0.5498 -1.6545
  306MOL0     H41292  -0.868   8.537  11.687 -0.6512 -0.9248 -3.1736
  306MOL0     H41293  -0.762   8.735  11.574  0.1291 -1.1742  1.0299
  306MOL0     H41294  -0.816   9.119  11.375  3.4001 -1.9772 -0.9071
  306MOL0     H41295  -0.733   9.296  11.237  0.5348 -0.5750 -0.0754
  306MOL0     H41296   0.356  10.148  10.457 -2.0821 -1.8845 -0.0102
  306MOL0     H41297   0.498  10.349  10.510 -1.9046 -2.0632 -1.3713
  306MOL0     H41298   0.423  10.876  10.818  0.6254  2.0503 -1.0842
  306MOL0     H41299   0.595  11.033  10.911  1.2431  0.5855  1.6856
  306MOL0     H41300   0.993  10.855  11.067  3.9077 -0.3016 -0.6616
  306MOL0     H41301   1.030  10.946  10.919 -2.3499  3.0624 -1.2309
  306MOL0     H41302   0.975  11.087  11.183 -1.8415 -3.4787  1.0127
  306MOL0     H41303   1.021  11.158  11.035 -1.0519  0.1527  0.9300
  306MOL0     H41304   1.240  11.080  11.044  1.5792  0.9473  0.8175
  306MOL0     H41305   1.194  10.942  11.143 -0.7502 -1.3462 -3.9390
  306MOL0     H41306   1.147  11.117  11.325  0.2395 -2.5156 -0.5298
  306MOL0     H41307   1.203  11.250  11.218  1.3607  0.0556  0.1661
  306MOL0     H41308   1.578  11.092  11.281 -0.2231 -2.0831 -1.5744
  306MOL0     H41309   0.883  10.718  10.896  0.7885  1.5270  3.7609
  306MOL0     H41310   0.731  10.579  10.773  0.4650  1.6050 -1.1622
  307MOL0     O41311  11.245   9.441   5.662  0.0979  0.7796 -0.9616
  307MOL0     C41312  11.126   9.435   5.652 -0.4005 -0.1630 -0.5223
  307MOL0     O41313  11.036   9.528   5.707 -0.4540  0.4484 -0.1281
  307MOL0     C41314  11.079   9.659   5.729 -0.3204 -0.5446 -0.4229
  307MOL0     C41315  11.035   9.759   5.648  0.4550  0.2933 -0.2060
  307MOL0     C41316  11.066   9.892   5.662 -0.0952  0.8884 -0.2312
  307MOL0     C41317  11.171   9.926   5.736  0.5616 -0.6125  0.1754
  307MOL0     O41318  11.190  10.064   5.724 -0.6557  0.5263  0.0233
  307MOL0     C41319  11.232  10.136   5.841  0.9128 -0.3132 -0.4479
  307MOL0     C41320  11.111  10.229   5.846 -0.0817  0.1816 -0.9023
  307MOL0     C41321  11.059  10.252   5.989 -2.0257 -0.5347  0.0843
  307MOL0     C41322  10.971  10.142   6.037 -1.3352 -0.5390  0.6583
  307MOL0     C41323  10.831  10.149   5.980  0.8080  0.1809 -0.8073
  307MOL0     C41324  10.745  10.028   6.039 -0.7629 -0.5364  0.3665
  307MOL0     C41325  10.701  10.038   6.187 -0.7894 -1.0063 -0.5808
  307MOL0     C41326  10.594   9.936   6.226 -1.2840 -0.0122 -0.8381
  307MOL0     N41327  10.552   9.957   6.365  0.9318  0.5751  0.2249
  307MOL0     C41328  10.629   9.983   6.471  0.0086  0.3152 -0.2419
  307MOL0     C41329  10.544   9.979   6.583  0.3050  0.9939 -0.3898
  307MOL0     C41330  10.589   9.978   6.725 -0.4181  0.1173 -0.2819
  307MOL0     C41331  10.628  10.124   6.771 -0.0463  0.0711 -0.7483
  307MOL0     C41332  10.650  10.114   6.925  0.0628  0.5601  0.3075
  307MOL0     C41333  10.714  10.236   6.995  0.0485 -0.5213 -0.4310
  307MOL0     O41334  10.816  10.287   6.908  0.0607 -0.5379 -0.6112
  307MOL0     C41335  10.882  10.400   6.930 -0.2571 -0.3922 -0.2232
  307MOL0     C41336  10.922  10.440   7.055  0.6507  0.1028 -0.0719
  307MOL0     C41337  10.979  10.569   7.080  0.2776  0.4461  0.1406
  307MOL0     C41338  11.015  10.601   7.216 -0.4684 -0.2331  0.2454
  307MOL0     C41339  11.004  10.653   6.968  0.2351 -0.3732  0.3472
  307MOL0     C41340  11.088  10.785   6.973 -0.3475  0.7311  0.6236
  307MOL0     O41341  11.128  10.838   6.848  0.5024 -0.5419 -0.4155
  307MOL0     C41342  11.238  10.915   6.841  0.6364 -0.1006 -0.2088
  307MOL0     C41343  11.337  10.872   6.757  0.1352  0.7616  1.0405
  307MOL0     C41344  11.456  10.945   6.738  0.3183  0.7020 -0.2943
  307MOL0     C41345  11.483  11.057   6.816 -0.2562  0.7326  0.4138
  307MOL0     O41346  11.601  11.127   6.818 -0.3231  0.3603 -0.4417
  307MOL0     C41347  11.697  11.107   6.715 -0.1483 -0.4630  0.1908
  307MOL0     C41348  11.803  11.215   6.755 -1.1694  0.0043  0.1553
  307MOL0     C41349  11.750  11.358   6.750 -0.6417  0.8517 -0.0785
  307MOL0     C41350  11.666  11.411   6.874 -0.4003  0.0790  0.3813
  307MOL0     C41351  11.622  11.553   6.827 -0.5223  0.7622  0.3884
  307MOL0     C41352  11.539  11.619   6.939  0.3859 -0.2123  0.0362
  307MOL0     C41353  11.481  11.753   6.874  0.1037  0.2382  1.5105
  307MOL0     C41354  11.423  11.858   6.965  0.2413  0.1736 -0.9649
  307MOL0    Cl41355  11.403  12.010   6.878 -0.2184  0.1044 -0.2143
  307MOL0     C41356  11.378  11.108   6.895 -0.1714 -0.7652 -0.3916
  307MOL0     C41357  11.253  11.032   6.909  0.5185  0.1245 -0.0582
  307MOL0     O41358  11.131  10.836   7.083 -0.3658 -0.5911  1.0550
  307MOL0     C41359  10.974  10.604   6.841  0.4157 -0.3133  0.5455
  307MOL0     C41360  10.902  10.486   6.824 -0.2579  0.0006  0.4949
  307MOL0     N41361  10.421   9.932   6.540  0.8639 -0.4137 -0.1211
  307MOL0     N41362  10.419   9.946   6.408 -0.2009 -1.3209  0.1534
  307MOL0     C41363  11.225   9.833   5.829  0.0109  0.3802 -0.1640
  307MOL0     C41364  11.179   9.697   5.828 -0.2799 -0.0502  1.4012
  307MOL0     C41365  11.068   9.314   5.586 -0.1257 -0.1716  0.5121
  307MOL0     C41366  10.930   9.300   5.580 -0.0036 -1.3055  0.4877
  307MOL0     C41367  10.878   9.190   5.509  0.2688  1.5076  0.9168
  307MOL0     C41368  10.965   9.103   5.440  0.0623  0.0153 -0.8531
  307MOL0     O41369  10.903   9.010   5.365  0.2610 -0.1410 -0.3607
  307MOL0     C41370  10.979   8.955   5.256 -0.5263 -0.4595  0.5114
  307MOL0     C41371  10.889   8.877   5.163  0.7673 -0.0772 -0.6515
  307MOL0     C41372  10.970   8.791   5.074  0.1992  0.1370 -1.2557
  307MOL0     C41373  10.869   8.712   4.982 -0.2303 -0.2898  0.1495
  307MOL0     C41374  10.954   8.656   4.872 -0.0539  0.2230  0.0186
  307MOL0     C41375  11.032   8.603   4.798 -0.0058 -0.6064  0.1297
  307MOL0     C41376  11.102   9.104   5.459 -0.1661  0.1692 -0.4540
  307MOL0     C41377  11.156   9.216   5.524  0.0311 -0.4332 -0.3940
  307MOL0     H41378  10.965   9.736   5.568  0.7472 -1.8954  0.1142
  307MOL0     H41379  11.010   9.973   5.615 -1.8671 -0.9687 -1.5410
  307MOL0     H41380  11.234  10.074   5.931 -0.9095  0.2256  0.0171
  307MOL0     H41381  11.320  10.195   5.812  1.6874 -1.8311 -1.2791
  307MOL0     H41382  11.136  10.317   5.786  1.6922 -1.3629 -2.5597
  307MOL0     H41383  11.017  10.192   5.804 -1.8476  0.2854  2.6321
  307MOL0     H41384  11.141  10.278   6.057  0.1800 -1.0263 -2.2535
  307MOL0     H41385  10.984  10.330   5.979 -2.1983 -0.5921  0.8328
  307MOL0     H41386  11.021  10.045   6.044  0.8546  0.6631  4.1360
  307MOL0     H41387  10.950  10.159   6.143 -3.4008 -2.0097  0.5502
  307MOL0     H41388  10.764  10.234   5.996  1.4837  0.7611 -1.0107
  307MOL0     H41389  10.844  10.131   5.873 -0.5112  0.0412 -0.9587
  307MOL0     H41390  10.658  10.034   5.974 -1.0857  3.2544  0.9306
  307MOL0     H41391  10.795   9.931   6.029 -2.4496 -1.2452 -2.1007
  307MOL0     H41392  10.793  10.038   6.247  0.1431  1.2589 -1.8664
  307MOL0     H41393  10.658  10.136   6.209 -5.2364 -2.9388  0.3435
  307MOL0     H41394  10.646   9.840   6.230 -0.3035  0.5597  1.1798
  307MOL0     H41395  10.505   9.927   6.163 -1.5642  3.5267 -1.1429
  307MOL0     H41396  10.735  10.005   6.465  0.2478  0.7489  3.5449
  307MOL0     H41397  10.510   9.934   6.787  1.1733 -0.0949  1.7005
  307MOL0     H41398  10.672   9.911   6.747 -1.3888 -1.7189 -1.9312
  307MOL0     H41399  10.540  10.189   6.762 -0.0916  0.2408  0.6871
  307MOL0     H41400  10.705  10.173   6.712 -0.2329  1.2462 -0.0531
  307MOL0     H41401  10.725  10.036   6.939  2.4079  3.1957  4.8127
  307MOL0     H41402  10.556  10.091   6.976 -1.1592  0.8433 -1.6991
  307MOL0     H41403  10.759  10.195   7.086  1.6595 -3.1693 -2.2641
  307MOL0     H41404  10.636  10.307   7.020 -0.1083 -0.4231 -1.1857
  307MOL0     H41405  10.889  10.392   7.147 -0.9038  1.5833  0.1984
  307MOL0     H41406  10.996  10.519   7.286 -1.1576  0.0514  0.4041
  307MOL0     H41407  11.120  10.628   7.228 -0.7962  1.1218  0.2362
  307MOL0     H41408  10.968  10.691   7.258  0.1635 -0.3961  1.3404
  307MOL0     H41409  11.342  10.783   6.697  2.8165  0.9356  0.8687
  307MOL0     H41410  11.510  10.905   6.653 -0.3161 -2.4781  0.6573
  307MOL0     H41411  11.747  11.009   6.708 -1.0376 -1.1071  2.1668
  307MOL0     H41412  11.662  11.142   6.618  0.7432  0.4775  0.1863
  307MOL0     H41413  11.844  11.194   6.854  0.8146 -0.6378 -0.7602
  307MOL0     H41414  11.880  11.209   6.677 -0.3582  0.8260  0.8683
  307MOL0     H41415  11.684  11.360   6.663 -1.6469 -4.8632  0.1719
  307MOL0     H41416  11.842  11.414   6.732  0.0954 -0.0553  0.7086
  307MOL0     H41417  11.574  11.359   6.902 -1.2652  1.2364 -0.2212
  307MOL0     H41418  11.730  11.412   6.962 -0.3743 -1.9172  0.4321
  307MOL0     H41419  11.545  11.554   6.748 -3.1615 -2.9470  2.5712
  307MOL0     H41420  11.711  11.608   6.798  0.6094 -1.4080 -0.4347
  307MOL0     H41421  11.461  11.551   6.974  1.1710 -0.4018  1.4894
  307MOL0     H41422  11.607  11.632   7.024  0.3177 -0.1575  0.0826
  307MOL0     H41423  11.407  11.737   6.795  0.1227 -2.2326  1.9334
  307MOL0     H41424  11.562  11.795   6.812  0.3405 -2.7654 -0.4583
  307MOL0     H41425  11.497  11.868   7.046  0.1663 -2.1962 -0.5325
  307MOL0     H41426  11.332  11.827   7.015  0.0317 -1.6607 -2.3844
  307MOL0     H41427  11.413  11.185   6.963  2.0540 -0.3067 -1.9252
  307MOL0     H41428  11.183  11.059   6.987 -0.0916  1.2007 -0.9585
  307MOL0     H41429  10.996  10.665   6.754 -1.0068  1.3894  1.3338
  307MOL0     H41430  10.849  10.471   6.730  1.7489 -2.1456 -0.4117
  307MOL0     H41431  11.305   9.863   5.897  0.3662 -0.4632 -0.2040
  307MOL0     H41432  11.226   9.631   5.900 -1.2005  0.7690  2.8142
  307MOL0     H41433  10.860   9.376   5.613  1.3840  0.3129 -0.1572
  307MOL0     H41434  10.773   9.188   5.482  0.7815  0.5839 -1.2689
  307MOL0     H41435  11.018   9.036   5.195  1.5637 -1.1730  0.8049
  307MOL0     H41436  11.066   8.900   5.294  0.9329  1.9956  0.9441
  307MOL0     H41437  10.834   8.946   5.099  2.7886  0.1511 -2.2677
  307MOL0     H41438  10.817   8.819   5.221  1.2832 -0.4984 -0.4222
  307MOL0     H41439  11.025   8.720   5.136  2.1063  2.1407 -0.5085
  307MOL0     H41440  11.043   8.850   5.018 -0.8147 -0.8745 -3.7650
  307MOL0     H41441  10.790   8.772   4.937 -1.3922 -1.7365  0.2083
  307MOL0     H41442  10.824   8.627   5.034  2.8654 -2.2734 -0.1259
  307MOL0     H41443  11.098   8.557   4.728 -1.0960  1.3339 -2.3175
  307MOL0     H41444  11.168   9.028   5.420  0.9258  1.4777 -1.2595
  307MOL0     H41445  11.262   9.224   5.551 -0.2582 -0.6529  0.8997
  308MOL0     O41446   8.944   8.407   3.320  0.0046  0.1214  0.2016
  308MOL0     C41447   8.868   8.471   3.255  0.0032  0.4306 -0.7491
  308MOL0     O41448   8.893   8.599   3.211  0.6318  0.2201 -0.5096
  308MOL0     C41449   9.016   8.660   3.227 -1.0079 -0.1410  0.0920
  308MOL0     C41450   9.122   8.643   3.139 -0.0935 -0.5040 -0.6960
  308MOL0     C41451   9.246   8.720   3.149  0.8219 -0.0123  0.3870
  308MOL0     C41452   9.262   8.817   3.253 -0.1495  0.1070  0.8690
  308MOL0     O41453   9.373   8.887   3.275  0.2871 -0.0867  0.5690
  308MOL0     C41454   9.482   8.896   3.185  0.0627 -0.0662 -0.5938
  308MOL0     C41455   9.604   8.944   3.271  0.6671  0.3369 -0.3180
  308MOL0     C41456   9.671   8.826   3.355 -0.9093 -0.4101 -0.4703
  308MOL0     C41457   9.732   8.876   3.488 -0.5413 -0.1914  0.5295
  308MOL0     C41458   9.635   8.923   3.596 -0.1023 -0.1326 -1.0470
  308MOL0     C41459   9.566   8.807   3.682 -0.0113 -0.3534 -0.2916
  308MOL0     C41460   9.421   8.843   3.736 -0.3159  0.3276 -0.4002
  308MOL0     C41461   9.314   8.862   3.624 -0.4736  0.0483  0.5610
  308MOL0     N41462   9.187   8.926   3.679 -0.3975 -0.2950  0.0236
  308MOL0     C41463   9.178   9.057   3.698  0.8059 -0.3321 -0.2727
  308MOL0     C41464   9.075   9.077   3.780  1.1878 -1.0811  0.1772
  308MOL0     C41465   9.019   9.203   3.842 -0.0485  0.2124 -0.5728
  308MOL0     C41466   9.109   9.282   3.933  0.0488  0.4862 -0.2404
  308MOL0     C41467   9.027   9.405   3.993  0.1710 -0.2651  0.2324
  308MOL0     C41468   8.919   9.377   4.101 -0.1903  0.7500 -0.1492
  308MOL0     O41469   8.830   9.488   4.119 -0.0990 -0.2600 -0.3321
  308MOL0     C41470   8.879   9.590   4.202  0.5576  0.0873 -0.2160
  308MOL0     C41471   8.776   9.675   4.236 -0.1852 -0.2341 -0.7243
  308MOL0     C41472   8.792   9.792   4.304  0.6819 -0.2671 -0.3692
  308MOL0     C41473   8.660   9.869   4.339 -0.6339  0.3128 -0.0984
  308MOL0     C41474   8.924   9.828   4.347  0.0282  0.0317  0.0553
  308MOL0     C41475   8.964   9.945   4.422 -0.8684 -0.4510 -0.2327
  308MOL0     O41476   9.089   9.948   4.496  0.2132 -0.3618  0.2386
  308MOL0     C41477   9.125  10.072   4.541  0.1727 -0.4469  0.0581
  308MOL0     C41478   9.158  10.183   4.464  0.3174  0.0064 -0.2537
  308MOL0     C41479   9.188  10.306   4.532  0.8020 -0.9578  0.2538
  308MOL0     C41480   9.173  10.320   4.671  0.0200 -1.1707 -0.3195
  308MOL0     O41481   9.212  10.444   4.714 -1.1636 -0.1377 -0.8577
  308MOL0     C41482   9.233  10.466   4.856 -0.7194  0.5255 -0.1073
  308MOL0     C41483   9.205  10.609   4.895 -1.1506  0.1916  0.5553
  308MOL0     C41484   9.286  10.632   5.028  0.7584  0.0729  0.0018
  308MOL0     C41485   9.230  10.755   5.106 -0.3916  0.6051 -0.7791
  308MOL0     C41486   9.108  10.706   5.191  0.3198 -0.3779  0.1850
  308MOL0     C41487   9.006  10.811   5.226 -0.6915  0.2971  0.5426
  308MOL0     C41488   8.864  10.746   5.254  0.2338  0.0085  0.0709
  308MOL0     C41489   8.744  10.838   5.265  0.3191 -0.0249 -0.2449
  308MOL0    Cl41490   8.649  10.842   5.114 -0.3911  0.2666 -0.1240
  308MOL0     C41491   9.145  10.201   4.743 -0.0487  0.4774 -0.0240
  308MOL0     C41492   9.134  10.078   4.678  0.2187 -0.4730 -0.3377
  308MOL0     O41493   8.896  10.041   4.410  0.3075 -0.2579  0.4135
  308MOL0     C41494   9.025   9.730   4.326 -0.6242 -1.0268  0.2031
  308MOL0     C41495   9.004   9.609   4.261 -0.3366  0.3081  0.8494
  308MOL0     N41496   9.030   8.948   3.805 -0.4219  0.4858 -0.1216
  308MOL0     N41497   9.102   8.856   3.753 -0.8898 -0.3610  0.2024
  308MOL0     C41498   9.153   8.843   3.336 -0.8658  0.5646 -0.0972
  308MOL0     C41499   9.040   8.764   3.326 -0.1455  0.3971 -0.2452
  308MOL0     C41500   8.736   8.413   3.220  0.0354  0.3992  1.4406
  308MOL0     C41501   8.661   8.462   3.109 -0.5080  0.2450 -0.0884
  308MOL0     C41502   8.534   8.415   3.093  0.1019 -0.8099 -0.4347
  308MOL0     C41503   8.475   8.321   3.181  0.0729 -0.6624  0.9250
  308MOL0     O41504   8.342   8.310   3.157 -0.4867  0.0930 -0.0793
  308MOL0     C41505   8.278   8.206   3.209 -0.8621  0.0643  0.2559
  308MOL0     C41506   8.142   8.195   3.161 -0.6285  0.8945 -0.7908
  308MOL0     C41507   8.078   8.045   3.173 -1.1675 -0.2351  0.7157
  308MOL0     C41508   7.948   8.014   3.106  0.6836 -0.3132  0.0057
  308MOL0     C41509   7.958   8.041   2.963  0.0262  0.8057  0.2504
  308MOL0     C41510   7.979   8.047   2.842  0.1751 -0.4501  0.5301
  308MOL0     C41511   8.547   8.257   3.286  0.2089  0.1937 -0.4169
  308MOL0     C41512   8.681   8.307   3.303  0.2611 -0.7476  0.4251
  308MOL0     H41513   9.122   8.572   3.057  1.3739 -2.1708  0.6509
  308MOL0     H41514   9.319   8.723   3.069 -1.3172  1.8880 -1.6719
  308MOL0     H41515   9.523   8.806   3.139  2.1752  0.2726  0.5194
  308MOL0     H41516   9.463   8.961   3.099 -0.3004 -1.1600 -1.3622
  308MOL0     H41517   9.684   8.972   3.202 -0.2779 -2.6963 -2.9194
  308MOL0     H41518   9.577   9.033   3.327  0.5917 -0.0649  0.2953
  308MOL0     H41519   9.605   8.743   3.381 -0.8534  0.0001  1.0632
  308MOL0     H41520   9.756   8.792   3.294 -0.0716  2.9543 -1.3791
  308MOL0     H41521   9.803   8.802   3.527  0.2538 -0.5948 -1.5425
  308MOL0     H41522   9.794   8.963   3.467 -1.1881  1.0958  3.4686
  308MOL0     H41523   9.703   8.972   3.667 -1.2391 -2.3011  1.7114
  308MOL0     H41524   9.566   9.001   3.561  0.1478 -1.0989 -3.9783
  308MOL0     H41525   9.548   8.711   3.632 -3.2375 -0.3050  0.5858
  308MOL0     H41526   9.631   8.781   3.765 -0.0967 -1.6550 -0.6071
  308MOL0     H41527   9.391   8.758   3.798 -0.4244  2.1542  2.2114
  308MOL0     H41528   9.423   8.929   3.804 -0.8828  0.6384 -0.7645
  308MOL0     H41529   9.295   8.764   3.578 -0.5404  1.3012 -2.3375
  308MOL0     H41530   9.360   8.925   3.546 -0.2471 -0.1910  0.4974
  308MOL0     H41531   9.242   9.137   3.663  0.5426 -0.1931 -0.4399
  308MOL0     H41532   8.980   9.265   3.761 -0.2114 -2.3660 -2.6039
  308MOL0     H41533   8.934   9.176   3.906 -1.2365  0.4015 -2.0348
  308MOL0     H41534   9.189   9.308   3.864  2.8695 -1.4735  2.0703
  308MOL0     H41535   9.148   9.234   4.023  0.8220  0.3714 -0.6355
  308MOL0     H41536   8.969   9.459   3.918  0.0550  0.5746  0.9217
  308MOL0     H41537   9.098   9.483   4.021  2.6203 -1.4312 -2.1282
  308MOL0     H41538   8.978   9.351   4.189  0.1318  0.6323 -0.4004
  308MOL0     H41539   8.866   9.284   4.077  2.9432 -0.9676 -0.8954
  308MOL0     H41540   8.673   9.661   4.205  0.1537 -0.9832 -1.5472
  308MOL0     H41541   8.591   9.811   4.401 -0.7546 -0.1430 -0.6360
  308MOL0     H41542   8.675   9.957   4.402  2.6196 -0.7705  0.8562
  308MOL0     H41543   8.618   9.899   4.242  0.6102  1.5088 -0.3004
  308MOL0     H41544   9.165  10.162   4.358 -1.8948 -0.2118 -0.4108
  308MOL0     H41545   9.228  10.383   4.467  0.3874 -0.8558  0.1112
  308MOL0     H41546   9.181  10.404   4.929  2.9112 -0.6152  1.7676
  308MOL0     H41547   9.341  10.446   4.860 -0.6708  0.3129 -1.7494
  308MOL0     H41548   9.239  10.686   4.826 -1.7384  0.5742  0.6773
  308MOL0     H41549   9.097  10.623   4.909 -1.7488  1.2349 -3.8377
  308MOL0     H41550   9.388  10.660   4.999  0.3511  0.7054 -0.8680
  308MOL0     H41551   9.300  10.548   5.096  1.4800 -0.0264 -0.2537
  308MOL0     H41552   9.302  10.798   5.177 -0.4296 -0.4542 -0.0732
  308MOL0     H41553   9.205  10.834   5.035  0.6020 -0.4287 -2.3470
  308MOL0     H41554   9.151  10.647   5.272 -1.5358 -0.3614  1.2318
  308MOL0     H41555   9.057  10.641   5.119 -0.4006  1.3177 -0.9238
  308MOL0     H41556   9.042  10.875   5.307 -0.3011  0.6448  0.1026
  308MOL0     H41557   9.004  10.878   5.139 -1.0252  1.2612  1.2825
  308MOL0     H41558   8.869  10.682   5.343 -3.0143 -2.9476 -1.5968
  308MOL0     H41559   8.838  10.672   5.178 -1.4045  1.5558 -0.9539
  308MOL0     H41560   8.775  10.937   5.299 -0.4681 -0.6446  2.5213
  308MOL0     H41561   8.683  10.796   5.345  2.6757  0.4562  1.9494
  308MOL0     H41562   9.138  10.190   4.851 -0.7162 -2.4179 -0.2818
  308MOL0     H41563   9.127   9.989   4.739 -1.6769  1.3714  2.3148
  308MOL0     H41564   9.124   9.753   4.363 -0.8221  4.8318 -1.9741
  308MOL0     H41565   9.090   9.543   4.254 -0.8223 -0.1858 -1.0786
  308MOL0     H41566   9.164   8.932   3.398  0.2315  2.5071 -2.8726
  308MOL0     H41567   8.962   8.785   3.398  0.2185 -1.9688  0.9521
  308MOL0     H41568   8.701   8.541   3.047  3.3376 -1.2085  0.2513
  308MOL0     H41569   8.469   8.469   3.025 -2.4946  0.9997  3.1389
  308MOL0     H41570   8.326   8.117   3.166 -1.9141 -0.8772  0.9688
  308MOL0     H41571   8.277   8.192   3.317 -1.0446  0.1324  0.2626
  308MOL0     H41572   8.146   8.216   3.054 -0.1118 -2.6938 -1.6195
  308MOL0     H41573   8.088   8.272   3.216 -0.6935  1.4813 -1.6620
  308MOL0     H41574   8.071   8.024   3.280 -0.6641  0.2322  0.8461
  308MOL0     H41575   8.147   7.964   3.146 -1.8742  0.1434 -2.6701
  308MOL0     H41576   7.872   8.069   3.164 -0.3923 -1.1239 -0.5933
  308MOL0     H41577   7.918   7.909   3.118 -1.9685 -0.0416 -2.8703
  308MOL0     H41578   8.010   8.051   2.739 -2.2776  1.3251 -0.2641
  308MOL0     H41579   8.499   8.192   3.359  0.5126  0.5534  0.1158
  308MOL0     H41580   8.737   8.280   3.392 -0.2511  1.6070  1.5439
  309MOL0     O41581   2.734   0.670  10.533  0.4743  0.1796  0.2544
  309MOL0     C41582   2.653   0.758  10.561  0.2698  0.3068 -0.3695
  309MOL0     O41583   2.517   0.746  10.575 -0.4499 -0.7158  0.4909
  309MOL0     C41584   2.460   0.623  10.539  0.0577  1.2774  0.1196
  309MOL0     C41585   2.497   0.551  10.418  0.1396 -0.5446 -0.3593
  309MOL0     C41586   2.411   0.443  10.369  0.2229 -0.2064  0.3681
  309MOL0     C41587   2.298   0.409  10.445 -0.4998 -0.2350  0.9421
  309MOL0     O41588   2.231   0.299  10.400 -0.3363  0.8939  0.5208
  309MOL0     C41589   2.130   0.226  10.486 -0.2941 -0.8520  0.1369
  309MOL0     C41590   2.057   0.121  10.396  0.8534 -0.7063 -0.3916
  309MOL0     C41591   1.966   0.180  10.286  0.1221  0.3540 -0.8601
  309MOL0     C41592   1.927   0.072  10.189  1.0937  0.5308  0.1532
  309MOL0     C41593   1.857   0.118  10.062 -0.7573 -0.3873 -0.2823
  309MOL0     C41594   1.838   0.010   9.955  0.2402  0.0319 -0.6625
  309MOL0     C41595   1.898   0.046   9.818  0.4963  0.1351  0.7160
  309MOL0     C41596   1.932  -0.075   9.736 -0.5173  0.4250 -0.1556
  309MOL0     N41597   1.813  -0.153   9.703 -0.7866 -0.3455 -0.2860
  309MOL0     C41598   1.766  -0.269   9.773 -0.0345 -0.4178 -0.1395
  309MOL0     C41599   1.647  -0.296   9.717 -0.1349 -0.1466  0.5149
  309MOL0     C41600   1.551  -0.418   9.736  0.4400 -0.0487  0.9657
  309MOL0     C41601   1.418  -0.427   9.654 -0.7937  0.8791 -0.3377
  309MOL0     C41602   1.442  -0.477   9.516  0.4144 -0.9416 -0.1220
  309MOL0     C41603   1.316  -0.496   9.426 -0.6822  0.1791 -0.9698
  309MOL0     O41604   1.243  -0.370   9.413  0.3026 -0.0497  0.1450
  309MOL0     C41605   1.294  -0.291   9.315 -0.4848 -0.4451  0.4443
  309MOL0     C41606   1.239  -0.314   9.190 -0.0762 -0.2171  0.6519
  309MOL0     C41607   1.293  -0.245   9.072  0.2181  0.3701  0.6228
  309MOL0     C41608   1.236  -0.277   8.939 -0.2186 -0.6033  0.9956
  309MOL0     C41609   1.403  -0.161   9.083  0.0510  0.5408 -0.1351
  309MOL0     C41610   1.480  -0.104   8.972  0.2921 -0.0266 -0.3141
  309MOL0     O41611   1.559   0.003   9.006  0.4630  0.1533  0.3472
  309MOL0     C41612   1.655   0.046   8.928 -0.0376 -1.3079  0.4122
  309MOL0     C41613   1.741  -0.036   8.858 -0.6831 -0.4045  0.5638
  309MOL0     C41614   1.859   0.013   8.786 -0.1286  0.6272 -0.2753
  309MOL0     C41615   1.878   0.153   8.780 -0.6147  0.7267  0.0176
  309MOL0     O41616   1.976   0.226   8.724  0.8048 -1.1542 -0.0911
  309MOL0     C41617   2.062   0.153   8.637 -0.8925  0.0129 -0.9335
  309MOL0     C41618   2.163   0.076   8.726  0.0470 -0.0671 -0.0487
  309MOL0     C41619   2.269   0.014   8.640  0.5033  0.0290 -0.2097
  309MOL0     C41620   2.378   0.118   8.616 -0.0722 -0.1606  0.3621
  309MOL0     C41621   2.480   0.108   8.724 -0.2251 -0.2312 -0.2386
  309MOL0     C41622   2.611   0.175   8.681 -0.4128  1.1791 -0.3870
  309MOL0     C41623   2.607   0.322   8.698 -1.0555  0.5533 -0.8571
  309MOL0     C41624   2.747   0.375   8.695  0.3692  0.1827  0.1548
  309MOL0    Cl41625   2.840   0.338   8.831 -0.1937  0.3826 -0.0579
  309MOL0     C41626   1.785   0.232   8.846 -0.0691  0.7364 -0.2894
  309MOL0     C41627   1.672   0.179   8.915 -0.5644  0.5067  0.7184
  309MOL0     O41628   1.469  -0.151   8.856 -0.5709 -0.4070 -0.4882
  309MOL0     C41629   1.454  -0.153   9.213  0.1375  0.2078 -0.5518
  309MOL0     C41630   1.396  -0.207   9.332 -0.0653  0.1040  0.4824
  309MOL0     N41631   1.624  -0.199   9.623 -0.7062  0.1338  0.3888
  309MOL0     N41632   1.727  -0.115   9.609  0.0026  0.8333  0.9412
  309MOL0     C41633   2.267   0.477  10.564 -1.2236  0.0436 -0.3578
  309MOL0     C41634   2.353   0.581  10.612  0.2172  0.5657 -0.0036
  309MOL0     C41635   2.706   0.894  10.550 -0.4258  0.0160  0.3734
  309MOL0     C41636   2.619   0.995  10.539  0.9655 -0.8551  0.0201
  309MOL0     C41637   2.662   1.123  10.530  0.0973  0.1054  0.3180
  309MOL0     C41638   2.795   1.150  10.504 -0.5309 -0.0881  0.1929
  309MOL0     O41639   2.818   1.281  10.473  0.2993 -0.1056  0.1782
  309MOL0     C41640   2.924   1.309  10.376 -0.3489  1.0330  0.5412
  309MOL0     C41641   3.063   1.355  10.437  1.1279 -0.8342 -0.3651
  309MOL0     C41642   3.163   1.407  10.337 -0.6495 -0.4238  0.5329
  309MOL0     C41643   3.250   1.301  10.265 -0.0223 -0.4860 -0.1939
  309MOL0     C41644   3.359   1.261  10.357  0.4757  0.1644  0.5033
  309MOL0     C41645   3.449   1.210  10.416 -0.7300 -0.5150 -1.7300
  309MOL0     C41646   2.887   1.043  10.501 -0.3974  0.4079  0.0006
  309MOL0     C41647   2.840   0.920  10.523 -0.0219  0.6270  0.4706
  309MOL0     H41648   2.574   0.575  10.345 -1.4617 -1.0401 -2.2935
  309MOL0     H41649   2.434   0.392  10.277 -1.2625  0.0743 -0.1898
  309MOL0     H41650   2.186   0.167  10.559  0.6995  1.9323  1.7362
  309MOL0     H41651   2.061   0.292  10.539  0.9240  0.9520 -0.4537
  309MOL0     H41652   2.128   0.059  10.341  1.2488  0.8494 -1.6901
  309MOL0     H41653   2.009   0.053  10.467  1.5643 -0.2702  0.5295
  309MOL0     H41654   1.882   0.240  10.323  0.3955  0.7177 -0.8208
  309MOL0     H41655   2.030   0.255  10.238  3.6306 -1.3569  0.7490
  309MOL0     H41656   2.014   0.009  10.165  0.1962  0.0329 -2.0892
  309MOL0     H41657   1.864  -0.008  10.227  2.3143 -0.7475 -0.4141
  309MOL0     H41658   1.757   0.154  10.086 -0.6286  0.3640 -0.8653
  309MOL0     H41659   1.909   0.202  10.017  0.6055 -1.6455 -1.1561
  309MOL0     H41660   1.855  -0.089   9.998 -0.9394  0.3057  0.4918
  309MOL0     H41661   1.731   0.000   9.935  0.4302 -1.4300 -1.0576
  309MOL0     H41662   1.817   0.100   9.768 -0.6525 -2.9323 -0.9657
  309MOL0     H41663   1.985   0.113   9.825  0.4080  0.2316  0.9260
  309MOL0     H41664   2.010  -0.140   9.778  1.4821  2.0752 -1.1509
  309MOL0     H41665   1.969  -0.029   9.645 -0.7173  3.1507  1.0493
  309MOL0     H41666   1.824  -0.312   9.854 -1.4093 -0.4252  0.8884
  309MOL0     H41667   1.615  -0.506   9.722 -1.6611 -1.2863 -1.8623
  309MOL0     H41668   1.529  -0.412   9.844 -0.6995 -0.4308  0.7720
  309MOL0     H41669   1.368  -0.332   9.639  1.1216  1.8498 -0.8513
  309MOL0     H41670   1.350  -0.489   9.713 -0.5214  1.5653  0.7365
  309MOL0     H41671   1.499  -0.570   9.521  2.3596  0.0452 -2.2737
  309MOL0     H41672   1.502  -0.413   9.451 -1.6425 -2.4380 -3.7612
  309MOL0     H41673   1.256  -0.582   9.458  1.4427 -1.5543 -1.3450
  309MOL0     H41674   1.347  -0.543   9.332  0.6624  0.4249 -0.6644
  309MOL0     H41675   1.147  -0.368   9.166  0.1313 -0.8338  1.2273
  309MOL0     H41676   1.301  -0.354   8.897  3.1838  2.2614  0.5834
  309MOL0     H41677   1.130  -0.302   8.950 -0.7726  1.6164  1.2956
  309MOL0     H41678   1.230  -0.187   8.877  0.2549 -0.8764  0.5522
  309MOL0     H41679   1.727  -0.143   8.847 -0.7123 -0.5814  2.1573
  309MOL0     H41680   1.922  -0.068   8.750 -2.9751 -1.2278 -1.4738
  309MOL0     H41681   2.009   0.087   8.568 -1.7279 -2.0079  1.4527
  309MOL0     H41682   2.107   0.228   8.572  0.7300  0.9533  1.1478
  309MOL0     H41683   2.207   0.149   8.796  1.1789  0.3154 -1.1268
  309MOL0     H41684   2.128  -0.014   8.777 -0.6520  0.8441  1.1570
  309MOL0     H41685   2.225  -0.002   8.541 -5.6223  0.5529  2.0298
  309MOL0     H41686   2.306  -0.081   8.679 -0.7042  0.8539  3.2695
  309MOL0     H41687   2.422   0.091   8.519 -1.3284  1.2540 -0.6430
  309MOL0     H41688   2.341   0.219   8.596  0.8360  0.3642  1.2375
  309MOL0     H41689   2.507   0.003   8.732  1.9206  0.1478 -1.6589
  309MOL0     H41690   2.431   0.136   8.818 -1.0685  0.8753 -0.9727
  309MOL0     H41691   2.689   0.136   8.747 -1.4252  2.2492  1.5349
  309MOL0     H41692   2.645   0.158   8.579  0.6430 -0.6929  0.2243
  309MOL0     H41693   2.558   0.352   8.791  2.1578  0.6461  0.9597
  309MOL0     H41694   2.556   0.352   8.607  2.8989  0.0605 -3.5189
  309MOL0     H41695   2.744   0.483   8.679  1.5670  0.4200  1.3012
  309MOL0     H41696   2.809   0.335   8.614  2.0464 -0.0462  1.4861
  309MOL0     H41697   1.786   0.341   8.846 -1.5275  0.8201  1.6270
  309MOL0     H41698   1.608   0.250   8.966 -1.8034  0.5575 -0.8421
  309MOL0     H41699   1.527  -0.076   9.237  0.2425 -0.3523  0.9934
  309MOL0     H41700   1.448  -0.200   9.427 -1.3141 -2.1332  1.4187
  309MOL0     H41701   2.181   0.444  10.621 -1.5789 -1.9156 -1.9068
  309MOL0     H41702   2.338   0.635  10.705 -0.0146 -1.4672  1.2119
  309MOL0     H41703   2.513   0.973  10.547  0.1310  3.0240  3.5362
  309MOL0     H41704   2.595   1.208  10.541  1.6462  1.2742  1.2570
  309MOL0     H41705   2.933   1.228  10.303 -0.3819  2.2298 -0.8479
  309MOL0     H41706   2.888   1.395  10.318  0.1155 -0.6838 -2.4998
  309MOL0     H41707   3.109   1.267  10.482  1.7565  0.2047  1.1002
  309MOL0     H41708   3.056   1.436  10.510  0.4727  0.2996 -1.6429
  309MOL0     H41709   3.230   1.483  10.377 -2.2220  1.5526 -0.4089
  309MOL0     H41710   3.110   1.457  10.255 -0.1819 -1.4528 -0.4127
  309MOL0     H41711   3.291   1.355  10.179 -1.0817 -0.2425 -0.5685
  309MOL0     H41712   3.196   1.212  10.230 -1.3274  0.5319 -0.8669
  309MOL0     H41713   3.521   1.165  10.482  0.4662  1.2946 -1.7365
  309MOL0     H41714   2.989   1.077  10.489 -0.2514  0.7421  1.9249
  309MOL0     H41715   2.912   0.839  10.519  0.3443  0.9946 -1.1940
  310MOL0     O41716   9.930   0.631   8.002 -0.5888  0.2320  0.3781
  310MOL0     C41717   9.855   0.611   7.901 -0.0290 -0.5636  0.1042
  310MOL0     O41718   9.827   0.701   7.802  0.0301  0.0524 -0.4924
  310MOL0     C41719   9.865   0.832   7.828  0.1997 -0.2090  0.5127
  310MOL0     C41720   9.921   0.896   7.723  0.4250  0.1243  0.0196
  310MOL0     C41721   9.969   1.019   7.729 -0.6947  0.2358 -0.2716
  310MOL0     C41722   9.974   1.087   7.848  0.6737  0.0527 -0.5892
  310MOL0     O41723  10.018   1.220   7.845 -0.4835 -0.4447 -0.6420
  310MOL0     C41724  10.130   1.232   7.935  0.6133  0.7404  0.2575
  310MOL0     C41725  10.197   1.357   7.925 -0.2566 -0.3205  0.2966
  310MOL0     C41726  10.240   1.392   7.783  0.3166 -0.4588  0.0637
  310MOL0     C41727  10.144   1.507   7.731 -0.2467 -0.2333 -0.1149
  310MOL0     C41728  10.189   1.551   7.589  0.0215 -0.2017  0.8369
  310MOL0     C41729  10.163   1.451   7.482  0.1408  0.0525 -0.0799
  310MOL0     C41730  10.176   1.502   7.343  0.4563  0.7004  0.0536
  310MOL0     C41731  10.182   1.388   7.248 -0.3945  0.3712 -0.4189
  310MOL0     N41732  10.063   1.303   7.258 -0.2269  0.3115 -0.2457
  310MOL0     C41733   9.937   1.359   7.242 -1.6522  0.9230 -0.7522
  310MOL0     C41734   9.853   1.255   7.243 -0.8559  0.3488  0.2183
  310MOL0     C41735   9.700   1.247   7.210 -1.0099 -0.1013  0.0232
  310MOL0     C41736   9.624   1.374   7.184  0.1466  0.2515 -1.4779
  310MOL0     C41737   9.591   1.463   7.315  0.1287 -0.1048 -0.7098
  310MOL0     C41738   9.527   1.600   7.289  0.2904 -0.1674  0.4316
  310MOL0     O41739   9.532   1.680   7.413 -0.1184  0.5773  0.5345
  310MOL0     C41740   9.468   1.800   7.417  0.7678 -0.3143 -0.3116
  310MOL0     C41741   9.366   1.834   7.326 -0.1086  1.4191 -0.3665
  310MOL0     C41742   9.287   1.950   7.336  0.9267  0.8357  0.4645
  310MOL0     C41743   9.178   1.966   7.233  0.0046 -1.4161  0.2632
  310MOL0     C41744   9.320   2.048   7.431 -0.2614 -0.0581 -0.1621
  310MOL0     C41745   9.245   2.177   7.460 -0.2634 -0.3539  0.3393
  310MOL0     O41746   9.276   2.253   7.558 -0.5382 -0.1424 -0.0004
  310MOL0     C41747   9.191   2.353   7.594  0.3164  0.4801  0.0501
  310MOL0     C41748   9.225   2.484   7.561 -0.5066  0.6306  0.4967
  310MOL0     C41749   9.156   2.596   7.601  0.1281  0.2506 -0.0917
  310MOL0     C41750   9.040   2.579   7.682 -0.0980  0.2631 -0.0412
  310MOL0     O41751   8.963   2.679   7.748 -0.3606 -0.2643  0.4662
  310MOL0     C41752   9.003   2.821   7.734 -0.4805  0.0005  0.0809
  310MOL0     C41753   8.966   2.898   7.863  0.1794  0.3608 -0.1995
  310MOL0     C41754   9.028   2.830   7.984 -0.6543 -0.0955 -0.2293
  310MOL0     C41755   8.991   2.898   8.115 -0.7478  0.2770  0.5275
  310MOL0     C41756   9.048   3.035   8.136 -0.3377  0.1411  0.2684
  310MOL0     C41757   9.072   3.070   8.283 -0.2559 -0.5177 -0.3979
  310MOL0     C41758   8.939   3.095   8.354 -0.7847 -0.0491  1.1642
  310MOL0     C41759   8.943   3.109   8.503  0.6309 -0.0247  0.0236
  310MOL0    Cl41760   9.040   3.249   8.548 -0.6458 -0.2643  0.3016
  310MOL0     C41761   8.994   2.447   7.708 -0.3555  0.3036 -0.1354
  310MOL0     C41762   9.066   2.330   7.652  0.1514 -0.7419 -0.6087
  310MOL0     O41763   9.140   2.184   7.395  0.1981 -1.0454 -0.9251
  310MOL0     C41764   9.419   2.010   7.517  0.7555 -0.7339 -0.5784
  310MOL0     C41765   9.485   1.892   7.515  0.0872  0.9004  0.5597
  310MOL0     N41766   9.925   1.139   7.264  0.5229 -0.2783  0.1949
  310MOL0     N41767  10.050   1.168   7.268 -0.8141 -0.8603  0.3563
  310MOL0     C41768   9.916   1.024   7.965 -0.1955  1.3255  0.4817
  310MOL0     C41769   9.861   0.896   7.949  0.2153  0.6039  0.5198
  310MOL0     C41770   9.786   0.479   7.880 -0.2896 -0.1109  0.1588
  310MOL0     C41771   9.834   0.375   7.964 -0.4934  0.4572  0.8071
  310MOL0     C41772   9.769   0.254   7.971  0.7480  0.1212  0.9767
  310MOL0     C41773   9.667   0.220   7.876 -0.7421  0.2244 -0.5219
  310MOL0     O41774   9.635   0.081   7.871  0.0659  0.4237 -0.7199
  310MOL0     C41775   9.554   0.026   7.767  0.0355  0.0206 -0.0141
  310MOL0     C41776   9.619  -0.114   7.736  0.7120 -0.2644  0.0224
  310MOL0     C41777   9.510  -0.210   7.665  0.2755  0.1176  1.0633
  310MOL0     C41778   9.397  -0.249   7.768  0.8960 -0.3165 -1.0932
  310MOL0     C41779   9.439  -0.357   7.867 -0.8439  0.7976  0.3850
  310MOL0     C41780   9.480  -0.443   7.943 -0.4509  0.5186  0.1970
  310MOL0     C41781   9.638   0.315   7.783  0.0948  0.0544  0.5348
  310MOL0     C41782   9.693   0.445   7.784  0.4184 -0.6768 -0.3876
  310MOL0     H41783   9.931   0.845   7.628  0.6071 -0.7377  0.4896
  310MOL0     H41784  10.010   1.056   7.636 -0.7434  0.7962 -0.0763
  310MOL0     H41785  10.090   1.219   8.036  1.6648  1.0604  0.7382
  310MOL0     H41786  10.206   1.154   7.919 -0.7637 -0.7857  0.9234
  310MOL0     H41787  10.152   1.444   7.974  0.6995  0.6194 -0.4601
  310MOL0     H41788  10.286   1.356   7.990 -0.9773 -3.2580  1.4077
  310MOL0     H41789  10.343   1.429   7.788  0.5394 -1.1609  0.8927
  310MOL0     H41790  10.211   1.313   7.713 -3.5628  1.5640 -0.8979
  310MOL0     H41791  10.041   1.470   7.729  0.3111 -1.8936  0.3826
  310MOL0     H41792  10.144   1.596   7.795 -1.8660  0.3393 -0.8480
  310MOL0     H41793  10.154   1.653   7.572 -1.4256 -0.6547  0.9294
  310MOL0     H41794  10.298   1.558   7.590  0.0214 -0.0237  0.2275
  310MOL0     H41795  10.221   1.362   7.506 -0.2114  0.3520  2.1467
  310MOL0     H41796  10.060   1.416   7.494  0.1606 -1.4161 -3.2313
  310MOL0     H41797  10.102   1.578   7.314 -0.5357  0.9999  3.0062
  310MOL0     H41798  10.272   1.554   7.332  0.1041  1.2711 -0.3948
  310MOL0     H41799  10.272   1.332   7.276 -2.3991 -3.1101 -0.3892
  310MOL0     H41800  10.208   1.429   7.150  0.2515  4.3365  1.2297
  310MOL0     H41801   9.908   1.462   7.230 -3.4538  0.3333 -1.7725
  310MOL0     H41802   9.688   1.192   7.117 -0.5350  0.6297 -0.4808
  310MOL0     H41803   9.656   1.184   7.288 -0.1523 -1.7006 -0.7389
  310MOL0     H41804   9.524   1.348   7.148 -2.0072  0.9486  3.2856
  310MOL0     H41805   9.684   1.434   7.115  0.0608  0.7174 -1.1516
  310MOL0     H41806   9.678   1.473   7.380 -1.2798  1.7805  0.9966
  310MOL0     H41807   9.516   1.403   7.368 -3.1008  2.6676 -1.7564
  310MOL0     H41808   9.422   1.592   7.257 -0.6386  2.1577  2.5601
  310MOL0     H41809   9.591   1.658   7.221 -2.6014 -0.0642 -2.5021
  310MOL0     H41810   9.340   1.763   7.248  1.2744 -1.8542  1.9307
  310MOL0     H41811   9.189   2.040   7.153 -1.2260 -3.3010 -1.7539
  310MOL0     H41812   9.145   1.873   7.186 -2.9855 -0.5696  0.5048
  310MOL0     H41813   9.083   1.991   7.281 -0.4041 -1.0103 -0.7246
  310MOL0     H41814   9.322   2.495   7.513  0.1639 -0.3491  1.5661
  310MOL0     H41815   9.184   2.695   7.566  2.7262 -0.2843  0.3323
  310MOL0     H41816   9.109   2.823   7.707  0.0478 -0.7371  1.9096
  310MOL0     H41817   8.948   2.873   7.655 -0.6578  0.8431  0.7484
  310MOL0     H41818   8.998   3.002   7.853 -1.0309  0.9171  1.2423
  310MOL0     H41819   8.856   2.892   7.868 -0.2167 -4.0543 -5.2701
  310MOL0     H41820   9.135   2.838   7.962 -0.1017 -1.8815  1.5049
  310MOL0     H41821   9.012   2.722   7.990 -3.4892 -0.0572 -3.8466
  310MOL0     H41822   8.883   2.911   8.126 -0.9024 -1.7420  1.9169
  310MOL0     H41823   9.028   2.843   8.203  2.0240  1.8610  0.4573
  310MOL0     H41824   8.994   3.113   8.082  2.4391 -0.1508 -3.2637
  310MOL0     H41825   9.139   3.038   8.076 -0.9053 -2.4665 -0.8833
  310MOL0     H41826   9.123   2.990   8.339 -2.8705 -0.1068  2.8609
  310MOL0     H41827   9.134   3.159   8.294  1.1524 -1.3582 -1.3190
  310MOL0     H41828   8.870   3.014   8.330  0.3242 -0.7562  0.2163
  310MOL0     H41829   8.889   3.183   8.315  0.8561  0.9285  1.1765
  310MOL0     H41830   8.981   3.020   8.554 -2.0701 -1.0205  0.4691
  310MOL0     H41831   8.838   3.116   8.535  1.2258  1.2608  1.8152
  310MOL0     H41832   8.898   2.443   7.759 -1.1597 -2.6733 -1.7181
  310MOL0     H41833   9.019   2.232   7.655  0.1202 -0.6948  0.8654
  310MOL0     H41834   9.442   2.079   7.598 -1.7540  0.1313 -0.5096
  310MOL0     H41835   9.560   1.873   7.591 -1.8914  1.6543  2.8175
  310MOL0     H41836   9.913   1.076   8.061  1.6608 -0.4325  1.5778
  310MOL0     H41837   9.801   0.853   8.029  1.7149 -1.5654  0.5696
  310MOL0     H41838   9.924   0.394   8.022  0.3562  2.8616 -1.1244
  310MOL0     H41839   9.814   0.186   8.043 -0.5682 -1.9292 -0.0458
  310MOL0     H41840   9.450   0.021   7.803 -0.2465  2.5991 -0.3210
  310MOL0     H41841   9.543   0.088   7.678 -3.1699  1.0015  0.9324
  310MOL0     H41842   9.646  -0.148   7.836  0.0745  2.7565  1.3317
  310MOL0     H41843   9.707  -0.099   7.672 -1.2903  2.5055 -2.3849
  310MOL0     H41844   9.557  -0.305   7.638  0.0957  0.2969  0.1028
  310MOL0     H41845   9.463  -0.166   7.576  2.1378  1.8737  0.8658
  310MOL0     H41846   9.320  -0.305   7.714  0.3675  0.3531 -1.0441
  310MOL0     H41847   9.348  -0.164   7.816 -0.9063 -1.2692 -1.1653
  310MOL0     H41848   9.535  -0.507   8.009  0.2844  0.6100 -0.3194
  310MOL0     H41849   9.571   0.289   7.701  0.3970 -2.9021  1.1283
  310MOL0     H41850   9.654   0.521   7.717 -2.0089 -1.8397 -0.4070
  311MOL0     O41851   3.351   0.785   3.746  0.5042  0.6312  0.4016
  311MOL0     C41852   3.373   0.880   3.674  0.2516  0.4390  0.3385
  311MOL0     O41853   3.370   0.877   3.534  0.1898 -0.0424 -0.0601
  311MOL0     C41854   3.313   0.764   3.466  0.5943  0.5405 -0.2555
  311MOL0     C41855   3.333   0.773   3.335 -1.8137  0.7199  0.4769
  311MOL0     C41856   3.284   0.679   3.238  0.4288  0.3726  0.2096
  311MOL0     C41857   3.214   0.561   3.288  0.4874 -0.6889 -0.1916
  311MOL0     O41858   3.168   0.454   3.208 -0.8318 -0.3185 -0.8723
  311MOL0     C41859   3.214   0.455   3.073  0.2141 -0.0256  0.7584
  311MOL0     C41860   3.202   0.315   3.024  0.6970  0.6854 -0.1096
  311MOL0     C41861   3.337   0.276   2.965 -0.6143  0.1998  0.2186
  311MOL0     C41862   3.338   0.129   2.917 -0.8200 -0.9519  0.0799
  311MOL0     C41863   3.470   0.110   2.832  0.0405 -0.1294 -0.4437
  311MOL0     C41864   3.458   0.169   2.691 -0.8529  0.3873 -0.3307
  311MOL0     C41865   3.330   0.136   2.618  0.0503 -0.2275 -0.8444
  311MOL0     C41866   3.301  -0.015   2.582  0.0778 -0.2626  0.9216
  311MOL0     N41867   3.193  -0.022   2.479 -0.0949  0.6860 -0.5923
  311MOL0     C41868   3.077  -0.101   2.474  0.0484 -0.0038 -0.3341
  311MOL0     C41869   3.018  -0.067   2.353 -0.4857  0.2518 -0.5022
  311MOL0     C41870   2.883  -0.116   2.311 -0.1903 -0.3332 -0.3065
  311MOL0     C41871   2.836  -0.095   2.163 -0.2112 -1.0347 -0.4154
  311MOL0     C41872   2.852  -0.217   2.069 -0.7767  0.2031 -0.1490
  311MOL0     C41873   2.796  -0.203   1.927 -0.2031 -1.0836  0.3051
  311MOL0     O41874   2.661  -0.145   1.926 -0.1083  0.0385  0.2052
  311MOL0     C41875   2.622  -0.099   1.805 -0.1498 -0.0585 -0.0141
  311MOL0     C41876   2.524  -0.004   1.810  1.3578 -0.2157  0.0654
  311MOL0     C41877   2.477   0.065   1.690  0.9834 -0.3312  0.5535
  311MOL0     C41878   2.362   0.167   1.707 -0.3482  0.2632  0.7872
  311MOL0     C41879   2.527   0.019   1.570  0.2877 -0.2848  0.2383
  311MOL0     C41880   2.482   0.067   1.434 -0.1565 -0.9991 -1.2653
  311MOL0     O41881   2.461  -0.027   1.332  0.5243  0.3565  0.6747
  311MOL0     C41882   2.429   0.021   1.208  0.3013 -1.0899 -0.2870
  311MOL0     C41883   2.332  -0.042   1.137  0.4813 -0.3348  0.4906
  311MOL0     C41884   2.277   0.008   1.016 -1.0198  0.0625 -0.9485
  311MOL0     C41885   2.335   0.117   0.955  0.1629 -1.2687  0.2487
  311MOL0     O41886   2.288   0.171   0.840 -0.4008 -0.4481 -0.0117
  311MOL0     C41887   2.282   0.322   0.835  0.9511 -0.2668  0.5380
  311MOL0     C41888   2.185   0.371   0.731 -0.9572  1.5675 -0.3535
  311MOL0     C41889   2.048   0.321   0.778 -0.2502 -0.1058  0.8654
  311MOL0     C41890   1.942   0.330   0.668  0.3285 -0.5647  0.0039
  311MOL0     C41891   1.889   0.474   0.669  0.8556 -0.3326  0.3638
  311MOL0     C41892   1.776   0.491   0.571 -1.0998 -0.5195 -0.0864
  311MOL0     C41893   1.707   0.634   0.598 -0.1115 -0.0794  0.5146
  311MOL0     C41894   1.577   0.650   0.511 -0.6050 -0.8297 -0.6098
  311MOL0    Cl41895   1.443   0.580   0.604  0.0107  0.1919 -0.0961
  311MOL0     C41896   2.456   0.176   1.015  0.8347  0.1073 -0.2250
  311MOL0     C41897   2.491   0.123   1.140 -0.4529 -0.0277 -0.4892
  311MOL0     O41898   2.473   0.194   1.428  0.2141  0.2966  0.4428
  311MOL0     C41899   2.619  -0.085   1.569  0.7053  0.2942  0.0912
  311MOL0     C41900   2.663  -0.147   1.683 -0.3532 -0.0071  0.3044
  311MOL0     N41901   3.094   0.032   2.292  0.0974  1.2494  0.1044
  311MOL0     N41902   3.195   0.048   2.358 -0.9029 -0.3820 -0.7583
  311MOL0     C41903   3.185   0.560   3.430  0.2850  0.9132  0.0356
  311MOL0     C41904   3.237   0.655   3.516 -0.3720 -0.1694 -0.5859
  311MOL0     C41905   3.428   1.015   3.724  0.0053  0.0944  0.2912
  311MOL0     C41906   3.539   1.080   3.670  0.5714  0.4907  0.2440
  311MOL0     C41907   3.581   1.202   3.730  0.4488  0.2393  0.9166
  311MOL0     C41908   3.506   1.271   3.824 -0.9290 -0.7569 -0.3343
  311MOL0     O41909   3.551   1.399   3.857  0.1659 -0.0448  0.0974
  311MOL0     C41910   3.485   1.469   3.970  0.2295  0.0780  0.0797
  311MOL0     C41911   3.557   1.607   3.968  0.0654  0.5726 -0.6598
  311MOL0     C41912   3.500   1.693   3.853 -0.1149  0.0226 -0.0353
  311MOL0     C41913   3.582   1.820   3.829  0.0145 -1.3571  0.5829
  311MOL0     C41914   3.567   1.919   3.938 -1.3715  0.0348  0.0873
  311MOL0     C41915   3.552   2.002   4.022 -0.0754  0.7300 -0.5913
  311MOL0     C41916   3.395   1.202   3.877 -0.4278 -0.1013  0.8368
  311MOL0     C41917   3.362   1.068   3.839 -0.2959 -0.6763 -0.2534
  311MOL0     H41918   3.401   0.850   3.300 -0.6287 -0.8165 -0.7157
  311MOL0     H41919   3.305   0.692   3.133 -0.5514 -2.5516 -0.4493
  311MOL0     H41920   3.153   0.523   3.012  0.3068  1.2910  2.0697
  311MOL0     H41921   3.321   0.476   3.065  0.5984 -1.6420  1.3751
  311MOL0     H41922   3.173   0.250   3.107  0.3256  0.6772 -0.2446
  311MOL0     H41923   3.130   0.314   2.942  0.1320  1.8240  0.3503
  311MOL0     H41924   3.358   0.343   2.881 -1.7898  1.6672  1.0327
  311MOL0     H41925   3.410   0.280   3.046 -1.0665 -0.2156  0.6532
  311MOL0     H41926   3.339   0.060   3.002 -2.3461  0.8042  1.6066
  311MOL0     H41927   3.253   0.103   2.854  0.7739  2.5535 -4.0460
  311MOL0     H41928   3.558   0.134   2.891 -0.2565 -2.8062  1.2801
  311MOL0     H41929   3.477   0.005   2.803 -1.0348 -0.6733  1.1475
  311MOL0     H41930   3.459   0.279   2.692 -3.2538  0.4624  0.2037
  311MOL0     H41931   3.544   0.130   2.636  0.6734 -3.1247  3.9808
  311MOL0     H41932   3.244   0.181   2.668 -1.2538 -0.7082 -2.5576
  311MOL0     H41933   3.345   0.183   2.520 -0.0214  0.4978 -0.5195
  311MOL0     H41934   3.270  -0.062   2.676 -1.1356 -0.8758  0.2351
  311MOL0     H41935   3.394  -0.052   2.539  1.3771  1.4897  2.0707
  311MOL0     H41936   3.039  -0.171   2.547  0.6812 -0.0027  0.0006
  311MOL0     H41937   2.864  -0.221   2.336 -4.5916  0.1614 -0.7346
  311MOL0     H41938   2.806  -0.055   2.359 -3.3800 -2.9399 -1.7029
  311MOL0     H41939   2.881  -0.005   2.119  0.9680 -1.6605 -0.5181
  311MOL0     H41940   2.730  -0.070   2.179  0.4139  1.1651  0.6522
  311MOL0     H41941   2.806  -0.309   2.105 -0.6114  0.1596 -0.0474
  311MOL0     H41942   2.959  -0.240   2.071 -0.7919 -0.0343 -1.2916
  311MOL0     H41943   2.780  -0.302   1.885 -1.9576 -0.2128 -1.2265
  311MOL0     H41944   2.869  -0.139   1.876  1.9300 -1.9801  2.0805
  311MOL0     H41945   2.486   0.022   1.908 -0.6043 -2.9560  0.1760
  311MOL0     H41946   2.392   0.268   1.679 -0.3694 -0.1689 -0.9025
  311MOL0     H41947   2.283   0.130   1.641  0.3956 -1.3623  0.7714
  311MOL0     H41948   2.327   0.177   1.811 -1.1133  0.4634  0.5220
  311MOL0     H41949   2.296  -0.129   1.191 -2.2356 -1.8319 -3.3014
  311MOL0     H41950   2.189  -0.044   0.979 -2.6801  1.4038  0.8748
  311MOL0     H41951   2.271   0.357   0.938  2.8786  1.8525  0.1042
  311MOL0     H41952   2.379   0.360   0.801  0.7569  0.6728  1.0118
  311MOL0     H41953   2.178   0.480   0.736 -3.1391  1.4504  0.5041
  311MOL0     H41954   2.211   0.325   0.636 -0.4709 -0.4569  0.6985
  311MOL0     H41955   2.023   0.378   0.868  0.4412 -1.1907  1.7661
  311MOL0     H41956   2.047   0.217   0.812  0.7360 -0.5826 -0.4721
  311MOL0     H41957   1.984   0.314   0.568 -0.5688 -0.0218 -0.4694
  311MOL0     H41958   1.855   0.264   0.671  0.5901 -0.9103  2.8751
  311MOL0     H41959   1.976   0.535   0.643  0.7197 -1.0078 -1.8797
  311MOL0     H41960   1.854   0.497   0.770  2.5276 -1.0377  1.1321
  311MOL0     H41961   1.813   0.497   0.469 -2.0555  0.0265 -0.4187
  311MOL0     H41962   1.708   0.407   0.590  2.3064 -2.9543  2.7770
  311MOL0     H41963   1.770   0.711   0.553  5.2905 -3.1828  1.8611
  311MOL0     H41964   1.686   0.663   0.701 -1.9042  2.1818 -0.3914
  311MOL0     H41965   1.587   0.601   0.414 -3.3098  1.9210 -2.4473
  311MOL0     H41966   1.554   0.756   0.498  1.4488 -0.4912 -1.7770
  311MOL0     H41967   2.508   0.256   0.964 -0.0249 -0.2330 -1.6703
  311MOL0     H41968   2.578   0.160   1.192 -0.5626  1.4208 -1.2960
  311MOL0     H41969   2.645  -0.136   1.477 -0.6804 -1.4547  0.6018
  311MOL0     H41970   2.733  -0.230   1.675 -0.6188 -0.3286  1.2871
  311MOL0     H41971   3.131   0.472   3.465  1.1863  0.4845  0.3703
  311MOL0     H41972   3.208   0.656   3.620  0.5741  0.3155 -0.3132
  311MOL0     H41973   3.596   1.049   3.584  0.3406  3.5596 -1.1421
  311MOL0     H41974   3.665   1.250   3.681 -0.8368  0.9378 -0.6812
  311MOL0     H41975   3.375   1.470   3.966  0.2452  2.4219 -2.3800
  311MOL0     H41976   3.506   1.420   4.066 -1.9177  1.2519  1.2324
  311MOL0     H41977   3.661   1.593   3.938  0.0406  2.0700 -1.5636
  311MOL0     H41978   3.549   1.651   4.068 -0.2361 -0.5854 -0.1638
  311MOL0     H41979   3.397   1.712   3.884  0.1744 -0.5598  1.3649
  311MOL0     H41980   3.508   1.634   3.761  2.9139  5.9743 -4.2499
  311MOL0     H41981   3.548   1.865   3.735 -3.4239 -2.2483  1.2605
  311MOL0     H41982   3.685   1.793   3.803 -0.2278 -1.6496 -0.1011
  311MOL0     H41983   3.510   2.068   4.095 -2.5158 -2.6451  1.3352
  311MOL0     H41984   3.339   1.248   3.957  0.7367  1.0699  1.0079
  311MOL0     H41985   3.275   1.027   3.890 -0.1153  1.1294  1.6468
  312MOL0     O41986   0.589   9.944  10.687 -0.0192  0.2766 -0.0230
  312MOL0     C41987   0.675   9.914  10.773  0.3918 -0.4734 -1.0055
  312MOL0     O41988   0.740   9.795  10.792 -0.5431  0.3659 -0.2938
  312MOL0     C41989   0.737   9.689  10.698 -1.0600 -0.7741 -0.1126
  312MOL0     C41990   0.855   9.618  10.679  0.2002 -0.1164 -0.0991
  312MOL0     C41991   0.856   9.501  10.595 -0.5696 -0.1587 -0.2730
  312MOL0     C41992   0.754   9.468  10.512  0.4988 -0.3428  0.3339
  312MOL0     O41993   0.764   9.371  10.427 -0.4074  0.3773  0.3450
  312MOL0     C41994   0.640   9.323  10.371 -0.5303 -0.2708 -0.5548
  312MOL0     C41995   0.662   9.205  10.285  0.0164  0.5358  0.2410
  312MOL0     C41996   0.729   9.249  10.153 -0.6825 -0.4666  0.5530
  312MOL0     C41997   0.720   9.142  10.050 -0.0015  0.7767  0.5779
  312MOL0     C41998   0.783   9.175   9.915  0.6090  0.6005  0.4023
  312MOL0     C41999   0.716   9.106   9.798 -0.1227 -0.3404  0.5225
  312MOL0     C42000   0.770   9.166   9.662  0.4627 -0.9978 -0.2888
  312MOL0     C42001   0.890   9.097   9.603 -1.0715 -1.0710  0.0720
  312MOL0     N42002   0.924   9.153   9.479  0.2310 -1.2503 -0.3186
  312MOL0     C42003   0.852   9.129   9.364 -0.0270  0.5082 -0.6187
  312MOL0     C42004   0.925   9.192   9.272  0.9700 -0.3880  0.1392
  312MOL0     C42005   0.894   9.185   9.120 -0.7349 -0.0294 -0.6424
  312MOL0     C42006   0.864   9.315   9.064 -0.5697  0.8723  1.0890
  312MOL0     C42007   0.744   9.379   9.132 -0.3160 -0.3403  0.1673
  312MOL0     C42008   0.661   9.486   9.051 -0.7019  0.3526  0.9186
  312MOL0     O42009   0.594   9.561   9.145  0.3717 -0.3481 -0.0469
  312MOL0     C42010   0.489   9.634   9.102  0.2762  0.9876 -0.1163
  312MOL0     C42011   0.358   9.612   9.135  0.7421  0.0446  0.2472
  312MOL0     C42012   0.252   9.688   9.081  1.2100  0.8136 -1.3066
  312MOL0     C42013   0.112   9.650   9.122 -1.1211 -0.2529  0.6990
  312MOL0     C42014   0.284   9.799   9.005 -0.5796 -0.2417 -0.7975
  312MOL0     C42015   0.190   9.898   8.943 -0.0938  0.0521  0.2320
  312MOL0     O42016   0.071   9.851   8.903  0.0154 -0.7926  0.0003
  312MOL0     C42017  -0.013   9.947   8.859  0.2097 -0.2025 -0.3830
  312MOL0     C42018   0.008   9.991   8.732  0.3052 -0.3348  1.2189
  312MOL0     C42019  -0.068  10.087   8.682 -0.5361 -0.5172 -0.0219
  312MOL0     C42020  -0.162  10.153   8.760 -0.0628 -0.9302 -0.6046
  312MOL0     O42021  -0.229  10.257   8.717 -0.0741  0.2761  0.1543
  312MOL0     C42022  -0.242  10.284   8.571  0.0631 -0.6332  0.3627
  312MOL0     C42023  -0.325  10.419   8.554 -0.0492 -0.1387  0.1735
  312MOL0     C42024  -0.226  10.538   8.547 -0.3872 -0.2519 -0.3814
  312MOL0     C42025  -0.309  10.676   8.559  1.2001  0.9965 -0.8774
  312MOL0     C42026  -0.222  10.797   8.531 -0.8345 -0.1311  1.0559
  312MOL0     C42027  -0.182  10.805   8.383  0.2076 -0.1985  0.0833
  312MOL0     C42028  -0.143  10.948   8.353  0.6335 -0.6435 -0.5288
  312MOL0     C42029  -0.068  10.949   8.218  0.0686 -0.1547  0.0282
  312MOL0    Cl42030  -0.182  10.894   8.090  0.1225 -0.2728  0.3283
  312MOL0     C42031  -0.186  10.114   8.894 -0.4110  1.2091  1.3045
  312MOL0     C42032  -0.121   9.999   8.937 -0.2795 -0.2466 -0.3588
  312MOL0     O42033   0.233  10.013   8.940 -0.5032  0.3912  0.1432
  312MOL0     C42034   0.424   9.819   8.974  0.7847  0.5987 -0.4848
  312MOL0     C42035   0.523   9.731   9.014  0.8530  0.7318 -0.0073
  312MOL0     N42036   1.037   9.262   9.326  0.3496  0.6532 -0.4951
  312MOL0     N42037   1.022   9.248   9.452  0.0563  0.1190 -0.2972
  312MOL0     C42038   0.637   9.555  10.525 -0.0291 -0.1211  0.1358
  312MOL0     C42039   0.631   9.659  10.615 -0.6360  0.1100  0.6671
  312MOL0     C42040   0.708  10.014  10.877  0.3666 -0.1727  0.2019
  312MOL0     C42041   0.669  10.146  10.858  1.6118 -1.0171  0.3410
  312MOL0     C42042   0.690  10.244  10.955  0.1734  0.0842  0.6923
  312MOL0     C42043   0.757  10.217  11.075 -0.3629 -0.0883  0.5096
  312MOL0     O42044   0.779  10.324  11.159  0.0082 -0.9992  0.1231
  312MOL0     C42045   0.878  10.302  11.265  0.0121 -0.5296 -0.0573
  312MOL0     C42046   0.888  10.418  11.364  0.2619  0.2780  0.1821
  312MOL0     C42047   0.976  10.532  11.322  0.0336 -0.9655 -0.1864
  312MOL0     C42048   0.964  10.646  11.422  0.5851  0.6493  0.5869
  312MOL0     C42049   1.060  10.750  11.397 -0.3213  0.4900  0.2088
  312MOL0     C42050   1.163  10.819  11.383 -0.4314 -0.4846 -0.5641
  312MOL0     C42051   0.795  10.083  11.095  0.4366 -0.5278 -0.4154
  312MOL0     C42052   0.770   9.981  10.996  0.2101 -0.8361 -0.1050
  312MOL0     H42053   0.943   9.636  10.739  0.8187 -0.9710 -0.7187
  312MOL0     H42054   0.954   9.456  10.583 -1.0226 -0.9081 -1.2775
  312MOL0     H42055   0.580   9.293  10.457 -0.1906  2.5788  0.7994
  312MOL0     H42056   0.588   9.403  10.317  0.8620  3.8740  3.5719
  312MOL0     H42057   0.719   9.125  10.333  0.3895  1.0315  0.6397
  312MOL0     H42058   0.560   9.176  10.258  0.8476  0.3348 -3.2189
  312MOL0     H42059   0.674   9.337  10.116 -0.2140 -0.0840  0.7650
  312MOL0     H42060   0.836   9.269  10.161 -0.4764 -1.8060  1.4167
  312MOL0     H42061   0.770   9.054  10.092 -2.8068 -0.9098  0.6600
  312MOL0     H42062   0.616   9.115  10.027 -0.4274  1.5638  1.5030
  312MOL0     H42063   0.763   9.282   9.901  1.2014  0.5484 -1.0815
  312MOL0     H42064   0.891   9.157   9.920  0.7456  1.6903  2.5055
  312MOL0     H42065   0.736   8.999   9.809  1.1255 -0.5952 -2.9021
  312MOL0     H42066   0.609   9.126   9.808  0.1771  1.6692  0.1255
  312MOL0     H42067   0.696   9.166   9.582  0.0466  2.6285 -0.0817
  312MOL0     H42068   0.804   9.269   9.678 -1.8237 -0.4231  1.3678
  312MOL0     H42069   0.864   8.993   9.585 -0.5743 -1.3987  1.1533
  312MOL0     H42070   0.972   9.111   9.675 -1.6835  4.7984  0.1027
  312MOL0     H42071   0.767   9.061   9.356 -1.9227  2.6709  0.1610
  312MOL0     H42072   0.972   9.138   9.060 -3.2941 -3.5969 -1.4668
  312MOL0     H42073   0.815   9.114   9.094 -1.8845  0.8739  0.2454
  312MOL0     H42074   0.850   9.304   8.956  2.9502 -1.5080  0.7006
  312MOL0     H42075   0.951   9.380   9.076  2.4358 -2.8295  1.2566
  312MOL0     H42076   0.770   9.441   9.217 -0.7967 -0.5299  0.4572
  312MOL0     H42077   0.676   9.303   9.173 -3.3270  0.6061 -2.5755
  312MOL0     H42078   0.577   9.450   8.991 -1.0178 -0.0775  1.6024
  312MOL0     H42079   0.735   9.544   8.994  0.0724 -0.8052  0.7164
  312MOL0     H42080   0.332   9.523   9.192  1.2222  0.1399  0.6223
  312MOL0     H42081   0.116   9.570   9.196 -4.0669 -1.3851 -0.2388
  312MOL0     H42082   0.055   9.733   9.165 -0.2738  2.0247 -2.2392
  312MOL0     H42083   0.061   9.614   9.032 -0.2115  0.7172 -0.2336
  312MOL0     H42084   0.081   9.943   8.667 -2.7747 -1.9405 -1.3084
  312MOL0     H42085  -0.061  10.101   8.574 -1.1957 -2.5539 -0.3602
  312MOL0     H42086  -0.145  10.300   8.523 -0.2741  3.9012  0.8479
  312MOL0     H42087  -0.301  10.199   8.533 -0.0963  0.3469 -1.6792
  312MOL0     H42088  -0.374  10.410   8.457 -1.3793 -0.3273  0.8468
  312MOL0     H42089  -0.395  10.443   8.634 -0.6314  1.7019 -0.8269
  312MOL0     H42090  -0.186  10.537   8.445 -0.6662 -1.6629 -0.5046
  312MOL0     H42091  -0.146  10.516   8.619  0.7337 -3.1072 -2.2899
  312MOL0     H42092  -0.398  10.684   8.497 -2.4160  1.9379  3.8572
  312MOL0     H42093  -0.360  10.690   8.655 -1.2823  0.7706 -2.0916
  312MOL0     H42094  -0.133  10.813   8.593  0.1223  2.8757 -0.8841
  312MOL0     H42095  -0.290  10.882   8.545 -1.5758  0.0277 -2.5237
  312MOL0     H42096  -0.096  10.739   8.371 -0.5075 -1.5115  1.7991
  312MOL0     H42097  -0.258  10.768   8.313 -1.2737 -0.7955  1.9180
  312MOL0     H42098  -0.093  10.996   8.437 -3.8021  2.6801  0.6100
  312MOL0     H42099  -0.235  11.006   8.346  2.0142  1.4688 -2.5004
  312MOL0     H42100   0.019  10.882   8.211  0.9073  0.9783 -0.8681
  312MOL0     H42101  -0.028  11.050   8.202 -0.2614  0.2464  1.6206
  312MOL0     H42102  -0.244  10.180   8.957 -0.8925 -0.5181  2.7392
  312MOL0     H42103  -0.149   9.961   9.035  1.1532 -0.3783  0.0251
  312MOL0     H42104   0.445   9.903   8.908  1.0480  1.3008  0.4720
  312MOL0     H42105   0.627   9.760   9.007  1.1967 -0.5544 -0.4811
  312MOL0     H42106   0.547   9.547  10.465 -0.2759  0.9586  0.3427
  312MOL0     H42107   0.542   9.719  10.638 -0.3668  0.2015  1.5203
  312MOL0     H42108   0.620  10.165  10.763  1.6506  0.1614  0.5311
  312MOL0     H42109   0.659  10.347  10.936 -3.2436 -0.7860  0.9383
  312MOL0     H42110   0.839  10.217  11.322 -5.0566  0.6116 -1.2513
  312MOL0     H42111   0.979  10.282  11.229 -0.0293 -0.3545 -0.2736
  312MOL0     H42112   0.921  10.370  11.456  0.2196  1.4337  0.8197
  312MOL0     H42113   0.789  10.460  11.382 -0.2173  0.0299 -1.6240
  312MOL0     H42114   0.942  10.555  11.221  1.8302 -0.3714 -0.6896
  312MOL0     H42115   1.070  10.477  11.320  0.8422  0.2274  1.6686
  312MOL0     H42116   0.989  10.608  11.521  1.9058 -1.1332 -0.3797
  312MOL0     H42117   0.867  10.695  11.436  0.2349  1.1924 -2.8234
  312MOL0     H42118   1.264  10.851  11.369 -0.0955 -2.1293 -2.2877
  312MOL0     H42119   0.846  10.058  11.187 -0.8825 -2.1997 -0.0887
  312MOL0     H42120   0.785   9.875  11.013 -1.8252 -1.3799 -1.3226
  313MOL0     O42121   2.729   1.983   8.256  0.4266  0.0380  0.2836
  313MOL0     C42122   2.808   1.987   8.159  0.2052 -0.1545  0.2793
  313MOL0     O42123   2.840   2.092   8.082  0.5400  0.0085 -0.0388
  313MOL0     C42124   2.761   2.201   8.077 -0.6256 -0.7255 -0.7558
  313MOL0     C42125   2.769   2.275   7.956 -0.3601  0.1746 -0.1864
  313MOL0     C42126   2.696   2.394   7.928 -0.0739 -0.3715 -0.2938
  313MOL0     C42127   2.619   2.444   8.036 -0.8704  0.5709 -0.0120
  313MOL0     O42128   2.561   2.570   8.017  0.3973  0.2957  0.3771
  313MOL0     C42129   2.594   2.675   8.102  0.2198 -0.0180  0.2700
  313MOL0     C42130   2.463   2.738   8.162 -1.0099 -0.3876  0.0817
  313MOL0     C42131   2.456   2.887   8.125 -0.8694  0.2815  1.5478
  313MOL0     C42132   2.349   2.972   8.189 -0.4610  0.1504  0.2242
  313MOL0     C42133   2.297   3.086   8.108 -0.5768 -0.5261 -0.0967
  313MOL0     C42134   2.183   3.166   8.171 -1.1796 -0.2228 -0.1965
  313MOL0     C42135   2.136   3.291   8.098 -0.1877  1.0637  0.6131
  313MOL0     C42136   2.217   3.417   8.099  0.2906  0.3466 -0.2667
  313MOL0     N42137   2.230   3.461   8.235  0.1948  0.3416 -0.5603
  313MOL0     C42138   2.137   3.540   8.302  0.1742 -0.4310  0.2253
  313MOL0     C42139   2.206   3.581   8.407 -0.2946  0.0752 -0.1528
  313MOL0     C42140   2.155   3.674   8.510 -0.2472  0.8060  0.3842
  313MOL0     C42141   2.120   3.821   8.461  0.5421  0.1654 -0.2838
  313MOL0     C42142   2.234   3.921   8.451 -0.2745  0.0446 -0.6090
  313MOL0     C42143   2.343   3.881   8.345  0.9970 -0.1637  0.3885
  313MOL0     O42144   2.432   3.980   8.293 -0.3533 -0.2548 -0.9748
  313MOL0     C42145   2.500   3.959   8.175 -0.4409 -0.8359  0.0852
  313MOL0     C42146   2.575   4.070   8.128 -0.3851 -0.0027 -0.3555
  313MOL0     C42147   2.659   4.061   8.012 -1.2960  0.2384 -0.1018
  313MOL0     C42148   2.746   4.181   7.984 -0.0343 -0.4543 -0.1445
  313MOL0     C42149   2.671   3.934   7.944  0.7475  0.1420  0.1417
  313MOL0     C42150   2.772   3.901   7.844  0.9113 -0.4383 -0.4826
  313MOL0     O42151   2.834   4.003   7.774 -0.7386 -0.5393  0.0639
  313MOL0     C42152   2.942   3.969   7.695  1.0120  0.6533  0.7993
  313MOL0     C42153   2.911   3.887   7.580  1.1014 -0.9589  0.6966
  313MOL0     C42154   3.018   3.845   7.497 -0.6795  1.1134 -0.1556
  313MOL0     C42155   3.152   3.878   7.525 -0.5086  0.4937  0.3605
  313MOL0     O42156   3.248   3.839   7.442 -0.0012 -0.3469  0.4124
  313MOL0     C42157   3.352   3.940   7.408  0.5555  0.1790  0.1163
  313MOL0     C42158   3.440   3.878   7.308 -0.0416  0.2725 -0.1869
  313MOL0     C42159   3.581   3.962   7.286 -0.1363 -1.1199  0.0587
  313MOL0     C42160   3.677   3.890   7.176  0.1699  0.0647 -0.5787
  313MOL0     C42161   3.617   3.902   7.039  0.9069  0.0359 -0.0385
  313MOL0     C42162   3.724   3.876   6.930 -0.7776 -0.3041 -0.7062
  313MOL0     C42163   3.668   3.939   6.806 -0.1105 -0.6914  0.9189
  313MOL0     C42164   3.758   3.898   6.689 -0.3191  0.3483 -0.3110
  313MOL0    Cl42165   3.937   3.934   6.728  0.1310 -0.1078 -0.0289
  313MOL0     C42166   3.180   3.946   7.639  0.4263  0.1161  0.0309
  313MOL0     C42167   3.074   4.002   7.720 -0.5725  0.4867  0.3149
  313MOL0     O42168   2.785   3.780   7.829  0.4214 -0.6914  0.6382
  313MOL0     C42169   2.583   3.831   7.994 -0.5297 -1.1418 -0.2654
  313MOL0     C42170   2.507   3.834   8.109  0.2832  0.3821 -0.6718
  313MOL0     N42171   2.339   3.532   8.404  0.6247  0.5339 -0.4005
  313MOL0     N42172   2.351   3.476   8.289  0.4053  1.2785 -0.5117
  313MOL0     C42173   2.608   2.378   8.160  0.8015  1.3406 -0.3107
  313MOL0     C42174   2.677   2.254   8.175 -0.4095 -0.5301  0.7134
  313MOL0     C42175   2.908   1.876   8.144 -0.3058 -0.1767 -1.2036
  313MOL0     C42176   3.026   1.890   8.065  0.1992  0.4132  0.4540
  313MOL0     C42177   3.111   1.782   8.044  0.1258 -1.2164  0.1007
  313MOL0     C42178   3.095   1.660   8.113  0.3150 -0.3030  0.1470
  313MOL0     O42179   3.192   1.571   8.088  0.0438 -0.0320  0.7179
  313MOL0     C42180   3.185   1.440   8.153  0.1997 -0.4255  0.6770
  313MOL0     C42181   3.306   1.357   8.125  0.7651  0.4095  0.5638
  313MOL0     C42182   3.418   1.386   8.223  0.0499 -0.4793 -0.3532
  313MOL0     C42183   3.387   1.344   8.372 -0.0806  0.1455 -0.4012
  313MOL0     C42184   3.308   1.224   8.385  0.3698 -1.0956 -0.7657
  313MOL0     C42185   3.265   1.107   8.383  0.1461 -0.5683  0.5182
  313MOL0     C42186   2.992   1.649   8.206  0.3449  0.1167  0.4664
  313MOL0     C42187   2.902   1.757   8.223 -0.2604 -0.2553  0.7727
  313MOL0     H42188   2.844   2.243   7.885 -1.9961  0.7171 -2.2918
  313MOL0     H42189   2.710   2.443   7.832 -2.6060  2.9401  0.8286
  313MOL0     H42190   2.669   2.636   8.172 -0.2770 -0.1444  0.7431
  313MOL0     H42191   2.651   2.752   8.048 -0.5914  0.3953 -0.0077
  313MOL0     H42192   2.376   2.684   8.124 -0.6579 -1.4613  0.7537
  313MOL0     H42193   2.469   2.727   8.271  0.5446  3.3998  0.5185
  313MOL0     H42194   2.547   2.931   8.165  0.5724  1.8736 -2.8198
  313MOL0     H42195   2.471   2.904   8.018  1.0180 -0.7410  1.6054
  313MOL0     H42196   2.261   2.910   8.210  0.1848 -0.7408  0.3605
  313MOL0     H42197   2.389   3.001   8.286  0.1214  1.4388 -0.3781
  313MOL0     H42198   2.375   3.155   8.075 -2.8517  0.8913 -2.9612
  313MOL0     H42199   2.270   3.052   8.008  5.8905 -1.8394 -1.8670
  313MOL0     H42200   2.104   3.095   8.193 -0.8137 -0.0710  1.8733
  313MOL0     H42201   2.215   3.190   8.273 -5.1857  1.8635  0.7450
  313MOL0     H42202   2.122   3.276   7.991  0.4865  0.5942  0.5848
  313MOL0     H42203   2.036   3.313   8.137 -1.3778 -0.7181 -1.1949
  313MOL0     H42204   2.160   3.494   8.046 -0.4792  1.2258  1.7449
  313MOL0     H42205   2.308   3.392   8.044 -0.1726 -0.2440 -0.7832
  313MOL0     H42206   2.034   3.568   8.282  0.1424 -1.5234 -1.2555
  313MOL0     H42207   2.071   3.630   8.563 -1.6339 -0.4391 -2.6342
  313MOL0     H42208   2.229   3.688   8.589 -1.5625  0.2979  1.7247
  313MOL0     H42209   2.039   3.859   8.525  1.3967  1.6350 -0.0392
  313MOL0     H42210   2.076   3.794   8.364  2.0032 -2.9782 -0.1884
  313MOL0     H42211   2.282   3.921   8.549 -1.3863 -2.0376 -0.0105
  313MOL0     H42212   2.174   4.013   8.450 -0.2140  0.0909 -0.1697
  313MOL0     H42213   2.286   3.837   8.264 -0.7285  0.5636  1.1521
  313MOL0     H42214   2.394   3.792   8.383 -0.8508 -1.1146  0.7730
  313MOL0     H42215   2.563   4.151   8.199 -0.4909 -2.1088  2.2211
  313MOL0     H42216   2.720   4.270   8.043 -0.4500 -0.7196  0.0763
  313MOL0     H42217   2.854   4.167   7.973  0.2007  0.2522  1.0012
  313MOL0     H42218   2.714   4.221   7.887 -2.6427  3.5663  2.0820
  313MOL0     H42219   2.809   3.866   7.548  0.6965  1.5352  0.1595
  313MOL0     H42220   2.986   3.781   7.416  0.3916  0.1876  0.1185
  313MOL0     H42221   3.309   4.035   7.374 -0.1833 -1.2423 -3.2432
  313MOL0     H42222   3.421   3.952   7.492  0.1582 -0.3760  0.5285
  313MOL0     H42223   3.463   3.774   7.333 -2.7933 -0.2201  0.6122
  313MOL0     H42224   3.378   3.872   7.218 -1.7365 -2.5550  1.0526
  313MOL0     H42225   3.640   3.958   7.377  0.7438 -3.6976 -0.5290
  313MOL0     H42226   3.563   4.069   7.271  0.3198 -0.7137  2.1752
  313MOL0     H42227   3.770   3.947   7.177 -0.4978  1.2070 -1.1688
  313MOL0     H42228   3.695   3.784   7.194  0.3647  0.4528  1.9916
  313MOL0     H42229   3.587   4.007   7.032  2.1483  0.5034  1.0437
  313MOL0     H42230   3.531   3.836   7.032 -0.2396  1.6674 -2.6254
  313MOL0     H42231   3.817   3.929   6.954 -0.9419  0.1238 -1.0112
  313MOL0     H42232   3.751   3.770   6.920 -2.5392 -0.7510 -1.1317
  313MOL0     H42233   3.668   4.049   6.812  2.1183 -0.6488  1.0948
  313MOL0     H42234   3.565   3.911   6.782 -0.2458 -0.2221  0.9321
  313MOL0     H42235   3.738   3.951   6.596  2.9348 -2.1089 -2.6154
  313MOL0     H42236   3.746   3.789   6.691 -3.7727  0.6045  1.2860
  313MOL0     H42237   3.271   3.969   7.694  0.4652 -2.5245  1.2278
  313MOL0     H42238   3.103   4.035   7.819 -0.2702 -1.5375  0.9433
  313MOL0     H42239   2.588   3.737   7.939 -0.1945 -0.4217 -1.5001
  313MOL0     H42240   2.450   3.743   8.126  2.1580 -0.4402  1.8990
  313MOL0     H42241   2.554   2.426   8.241  3.1615  1.6061  1.2041
  313MOL0     H42242   2.679   2.203   8.271  1.6798 -1.2052  0.3641
  313MOL0     H42243   3.034   1.978   8.002 -0.8870 -0.1997 -0.6151
  313MOL0     H42244   3.197   1.793   7.979 -0.1433  1.1327  0.0543
  313MOL0     H42245   3.168   1.439   8.261 -3.2143  0.7127  0.2790
  313MOL0     H42246   3.091   1.406   8.107  0.1337  2.6531 -1.7717
  313MOL0     H42247   3.331   1.377   8.021  0.5462 -1.4090  0.1208
  313MOL0     H42248   3.284   1.250   8.130  1.6793  0.2737  2.4883
  313MOL0     H42249   3.442   1.492   8.226  5.3230 -1.3684  2.1769
  313MOL0     H42250   3.513   1.337   8.197 -0.2130 -2.0101  1.2995
  313MOL0     H42251   3.325   1.419   8.421  1.6370  2.3375 -1.3786
  313MOL0     H42252   3.480   1.334   8.430 -0.4758  1.2717  0.4763
  313MOL0     H42253   3.208   1.017   8.387 -1.1734  0.2503  3.4671
  313MOL0     H42254   2.972   1.549   8.243  1.7244 -0.7978 -1.1369
  313MOL0     H42255   2.817   1.747   8.289 -1.0206  1.9740  0.2192
  314MOL0     O42256   0.765   8.303   0.992  0.1140  0.8401  0.2803
  314MOL0     C42257   0.777   8.365   1.097  0.1114  0.5534 -0.5373
  314MOL0     O42258   0.676   8.409   1.178 -0.6241 -0.0922  0.2295
  314MOL0     C42259   0.543   8.383   1.146 -0.7620  0.8217  0.6250
  314MOL0     C42260   0.462   8.312   1.230 -1.5259 -0.6127  0.0054
  314MOL0     C42261   0.325   8.304   1.202 -0.1212  0.6224 -0.2884
  314MOL0     C42262   0.275   8.353   1.084  0.4702 -0.6158 -0.1170
  314MOL0     O42263   0.147   8.316   1.056 -0.0113 -0.0462  0.2726
  314MOL0     C42264   0.104   8.329   0.920 -0.1317 -0.5252 -0.1881
  314MOL0     C42265  -0.028   8.252   0.911  1.1707 -0.6690  0.4546
  314MOL0     C42266  -0.087   8.279   0.777  0.3696  0.1907 -0.3252
  314MOL0     C42267  -0.237   8.250   0.755  0.4257 -0.0883  0.1028
  314MOL0     C42268  -0.297   8.295   0.623 -0.3221 -0.0759 -0.7237
  314MOL0     C42269  -0.240   8.237   0.489  0.5272  0.1103 -0.1644
  314MOL0     C42270  -0.280   8.092   0.474  0.0470  0.1628 -0.3995
  314MOL0     C42271  -0.148   8.010   0.434  0.5935  0.4156 -0.4633
  314MOL0     N42272  -0.073   8.061   0.322 -0.0861 -0.5507  0.3653
  314MOL0     C42273  -0.130   8.080   0.199  0.7122 -0.3451  0.2509
  314MOL0     C42274  -0.028   8.119   0.115  0.2946  0.2253 -0.0779
  314MOL0     C42275  -0.031   8.150  -0.028  0.4422 -0.4507  0.1356
  314MOL0     C42276   0.011   8.297  -0.046 -0.1862  0.7610 -0.0725
  314MOL0     C42277  -0.030   8.362  -0.180 -0.5445 -0.1568  0.1706
  314MOL0     C42278  -0.027   8.519  -0.184 -0.4760  0.9002  0.2848
  314MOL0     O42279   0.105   8.562  -0.226  0.5572  0.5380 -0.5762
  314MOL0     C42280   0.155   8.685  -0.199 -0.0913  0.8351 -0.3467
  314MOL0     C42281   0.288   8.705  -0.233  0.1799  0.5367  0.3202
  314MOL0     C42282   0.348   8.826  -0.191 -0.1326  0.5594  0.0823
  314MOL0     C42283   0.498   8.839  -0.222  0.5598  0.3956  0.2892
  314MOL0     C42284   0.281   8.925  -0.114  0.7413  0.7450  0.5222
  314MOL0     C42285   0.345   9.049  -0.067 -0.8322  0.6601  0.2735
  314MOL0     O42286   0.346   9.077   0.067  0.1624  0.3288  0.2272
  314MOL0     C42287   0.354   9.198   0.122 -0.1522 -0.1881 -1.5297
  314MOL0     C42288   0.306   9.311   0.063 -0.2662 -0.2435 -0.1556
  314MOL0     C42289   0.331   9.437   0.121 -0.0959 -0.4056 -0.6328
  314MOL0     C42290   0.385   9.451   0.238  0.3906  0.1164 -0.7794
  314MOL0     O42291   0.391   9.581   0.285  0.0482 -0.3805  0.0522
  314MOL0     C42292   0.492   9.658   0.218 -0.4129  0.1794 -0.0342
  314MOL0     C42293   0.458   9.809   0.246  0.4003  0.3052 -0.2863
  314MOL0     C42294   0.548   9.901   0.176  0.2900  0.7161 -0.6478
  314MOL0     C42295   0.514  10.046   0.219 -0.0406 -0.3643  0.4534
  314MOL0     C42296   0.586  10.159   0.145 -0.0880 -0.3816  0.5157
  314MOL0     C42297   0.575  10.284   0.236 -0.6322  0.3226  1.1306
  314MOL0     C42298   0.428  10.333   0.249  0.6943 -1.0004  0.1982
  314MOL0     C42299   0.355  10.396   0.126  0.0713 -0.4178 -0.5972
  314MOL0    Cl42300   0.216  10.491   0.199 -0.4641 -0.1632 -0.1135
  314MOL0     C42301   0.413   9.341   0.314  0.3550 -0.5621 -0.5806
  314MOL0     C42302   0.392   9.215   0.255  0.3566  1.2552  0.0828
  314MOL0     O42303   0.400   9.111  -0.151  0.1289  0.1529 -0.3252
  314MOL0     C42304   0.149   8.900  -0.084  0.0808 -0.6648  0.2473
  314MOL0     C42305   0.083   8.780  -0.119 -0.8100  0.4791  0.3369
  314MOL0     N42306   0.087   8.101   0.188  0.3797  0.2870  0.1550
  314MOL0     N42307   0.062   8.061   0.305  0.5225  0.0815 -0.4061
  314MOL0     C42308   0.361   8.422   0.992 -0.1195 -0.4064 -0.8439
  314MOL0     C42309   0.488   8.441   1.036 -0.4506 -0.0778 -0.1615
  314MOL0     C42310   0.918   8.403   1.123  0.0972  0.9420 -0.6203
  314MOL0     C42311   1.027   8.377   1.032 -0.5106 -0.0938 -0.2740
  314MOL0     C42312   1.155   8.419   1.069 -0.2311  0.3558 -0.0955
  314MOL0     C42313   1.185   8.484   1.190  0.3899 -0.7021 -0.7352
  314MOL0     O42314   1.307   8.536   1.222 -0.3081  0.0834 -0.6373
  314MOL0     C42315   1.431   8.514   1.145  0.7061  0.7170 -0.2826
  314MOL0     C42316   1.466   8.361   1.148  0.1408 -0.3727  0.9346
  314MOL0     C42317   1.580   8.349   1.049  0.9442  0.2813 -0.7082
  314MOL0     C42318   1.708   8.425   1.096  0.0865  0.6304  0.4253
  314MOL0     C42319   1.817   8.361   1.040  0.0062  0.0320  0.5986
  314MOL0     C42320   1.910   8.338   0.968  0.7119 -0.2349  0.6961
  314MOL0     C42321   1.083   8.494   1.282 -0.2845  0.6620 -0.2759
  314MOL0     C42322   0.946   8.452   1.254 -0.5383 -0.5959  0.7050
  314MOL0     H42323   0.516   8.260   1.309  0.5050  1.8667  0.3813
  314MOL0     H42324   0.257   8.265   1.278 -1.4811  3.0758 -0.1422
  314MOL0     H42325   0.081   8.434   0.900  0.7947 -0.5788 -1.6634
  314MOL0     H42326   0.179   8.277   0.860  2.0082 -0.2105  2.0508
  314MOL0     H42327  -0.014   8.144   0.923  1.1683 -0.9603 -1.7780
  314MOL0     H42328  -0.107   8.274   0.983 -0.4560 -2.5162 -0.6600
  314MOL0     H42329  -0.083   8.384   0.745 -3.8234  0.1443 -1.5968
  314MOL0     H42330  -0.023   8.240   0.698  1.5797  2.1714 -0.3833
  314MOL0     H42331  -0.249   8.143   0.770  4.0973 -0.8003 -0.9278
  314MOL0     H42332  -0.292   8.305   0.832 -0.1096  2.6300 -2.0628
  314MOL0     H42333  -0.405   8.287   0.632 -0.2960  0.6170  0.4016
  314MOL0     H42334  -0.271   8.401   0.620 -1.8750  0.3966  0.9481
  314MOL0     H42335  -0.269   8.300   0.405  0.9511  3.4866  2.0514
  314MOL0     H42336  -0.133   8.250   0.510 -0.1136  1.6582  2.5695
  314MOL0     H42337  -0.322   8.046   0.564 -0.2194 -1.8752 -1.5154
  314MOL0     H42338  -0.360   8.080   0.401 -0.9021 -0.2545  0.6697
  314MOL0     H42339  -0.174   7.909   0.402  0.4741  0.3216 -0.0684
  314MOL0     H42340  -0.091   7.995   0.526 -2.1482  0.4551  1.3515
  314MOL0     H42341  -0.234   8.080   0.168  0.1692 -1.2540  1.9006
  314MOL0     H42342   0.032   8.082  -0.086 -1.3098 -3.5275  1.5273
  314MOL0     H42343  -0.135   8.133  -0.058  0.5963 -0.2448 -0.5456
  314MOL0     H42344   0.117   8.321  -0.042 -0.3545  1.5117  3.6761
  314MOL0     H42345  -0.043   8.356   0.029 -0.8727 -1.5272  1.3723
  314MOL0     H42346  -0.131   8.328  -0.205 -0.3263 -0.4063 -0.3849
  314MOL0     H42347   0.036   8.331  -0.262  1.7446  0.8203  1.5476
  314MOL0     H42348  -0.055   8.561  -0.087 -1.9980 -3.4336  1.9849
  314MOL0     H42349  -0.100   8.550  -0.260 -1.1735  0.7480  0.8749
  314MOL0     H42350   0.355   8.635  -0.281  0.5486 -0.5889  2.3906
  314MOL0     H42351   0.546   8.930  -0.184 -1.4991  1.2508  1.0084
  314MOL0     H42352   0.552   8.751  -0.187 -0.0781 -1.2731 -2.6455
  314MOL0     H42353   0.512   8.843  -0.330  2.4374  2.1887  0.5386
  314MOL0     H42354   0.271   9.307  -0.039  2.1489 -2.6682 -1.0155
  314MOL0     H42355   0.298   9.528   0.074 -0.5683 -0.5165 -0.5206
  314MOL0     H42356   0.582   9.615   0.265 -0.2395 -1.3725 -1.6878
  314MOL0     H42357   0.493   9.636   0.111 -1.8540 -2.9119  0.4896
  314MOL0     H42358   0.354   9.824   0.216  0.5778  0.7199 -0.7110
  314MOL0     H42359   0.467   9.831   0.352 -1.6844 -0.9477  0.2109
  314MOL0     H42360   0.526   9.883   0.070 -2.4242 -0.5498  0.0348
  314MOL0     H42361   0.655   9.880   0.186 -0.2339 -2.9853 -1.1290
  314MOL0     H42362   0.408  10.061   0.197 -0.0523 -0.1026  0.6811
  314MOL0     H42363   0.519  10.050   0.328 -0.1814 -3.1024  0.6260
  314MOL0     H42364   0.529  10.175   0.054 -1.6161 -3.9522  0.6558
  314MOL0     H42365   0.691  10.134   0.124  0.5665  1.6868  1.1176
  314MOL0     H42366   0.613  10.272   0.338  1.3333  0.2487  0.4372
  314MOL0     H42367   0.621  10.371   0.188  1.3483 -0.5325  1.3704
  314MOL0     H42368   0.429  10.420   0.315 -0.8286 -1.7561  1.2743
  314MOL0     H42369   0.363  10.263   0.302 -0.6776  0.4622  0.4997
  314MOL0     H42370   0.326  10.318   0.055 -3.3937  2.1092 -2.2478
  314MOL0     H42371   0.427  10.460   0.073  0.6018  0.8535  1.5563
  314MOL0     H42372   0.454   9.341   0.414 -1.5723 -1.4952  0.2551
  314MOL0     H42373   0.417   9.123   0.305 -2.3826 -0.1926 -1.0005
  314MOL0     H42374   0.103   8.977  -0.023 -0.7064 -2.2788  1.7978
  314MOL0     H42375  -0.018   8.763  -0.082 -1.4048 -1.6998 -1.9645
  314MOL0     H42376   0.321   8.464   0.901 -0.2767 -0.6982 -0.9123
  314MOL0     H42377   0.551   8.490   0.963  0.8431  4.0137  3.2629
  314MOL0     H42378   1.024   8.319   0.940  2.3107 -0.2716 -0.3623
  314MOL0     H42379   1.227   8.408   0.989  1.2200 -1.7982  1.4032
  314MOL0     H42380   1.420   8.543   1.040  2.3765 -5.1873 -2.5198
  314MOL0     H42381   1.508   8.568   1.200  0.9102  2.3155 -2.0680
  314MOL0     H42382   1.379   8.303   1.119 -1.7810  2.3911  0.7907
  314MOL0     H42383   1.497   8.333   1.250  3.0181 -3.4638 -0.5850
  314MOL0     H42384   1.557   8.395   0.952 -2.8992  0.4062  0.1212
  314MOL0     H42385   1.568   8.246   1.013 -1.5110  0.1517  0.2947
  314MOL0     H42386   1.717   8.417   1.205  0.9054 -1.4247  0.2629
  314MOL0     H42387   1.705   8.531   1.069 -2.1095 -0.0536 -2.4224
  314MOL0     H42388   1.999   8.329   0.909 -0.9541 -0.8558 -1.8531
  314MOL0     H42389   1.104   8.542   1.377  2.6608 -0.8592 -0.0390
  314MOL0     H42390   0.861   8.467   1.319 -2.3453 -3.3910 -0.8527
  315MOL0     O42391   5.748   0.602   6.208  0.6839 -0.0899 -0.4572
  315MOL0     C42392   5.815   0.497   6.214  0.4759 -0.0359 -0.2611
  315MOL0     O42393   5.948   0.492   6.179 -0.5313 -0.0504 -0.2847
  315MOL0     C42394   6.022   0.613   6.173 -0.2591 -0.3166  1.5297
  315MOL0     C42395   6.028   0.701   6.277  0.2938  0.0814 -0.4175
  315MOL0     C42396   6.129   0.800   6.280  0.0481 -0.6565 -0.4503
  315MOL0     C42397   6.218   0.821   6.171 -0.1941 -0.1689  0.8026
  315MOL0     O42398   6.299   0.937   6.175 -0.8443  0.3645  0.8985
  315MOL0     C42399   6.396   0.947   6.062  0.8885  0.1442  1.2669
  315MOL0     C42400   6.463   1.087   6.089  0.0633 -0.0713  0.7368
  315MOL0     C42401   6.556   1.115   5.983  0.0864 -0.3262  0.1029
  315MOL0     C42402   6.626   1.250   6.008 -0.6232 -0.7994 -0.1543
  315MOL0     C42403   6.537   1.383   5.995  0.5711  0.2125 -0.0997
  315MOL0     C42404   6.611   1.506   6.039 -0.4341 -0.2043  0.0011
  315MOL0     C42405   6.530   1.637   6.022  0.6335 -0.4764  0.6375
  315MOL0     C42406   6.614   1.740   5.943  0.8227  0.1939 -0.1830
  315MOL0     N42407   6.691   1.816   6.039  0.3184 -0.3915 -0.5461
  315MOL0     C42408   6.636   1.880   6.150 -0.3038 -0.6955 -0.1278
  315MOL0     C42409   6.734   1.874   6.250 -0.2874 -0.5823 -0.1792
  315MOL0     C42410   6.726   1.944   6.384  0.0317  0.3827 -0.7302
  315MOL0     C42411   6.673   1.860   6.506  0.7442 -0.2710  0.1992
  315MOL0     C42412   6.604   1.963   6.606  0.5476  0.6133 -0.5896
  315MOL0     C42413   6.569   1.889   6.734  0.6206  0.5960 -0.7105
  315MOL0     O42414   6.442   1.817   6.734  0.2085 -0.0441 -0.9568
  315MOL0     C42415   6.337   1.899   6.751 -0.2718 -0.7933  0.6421
  315MOL0     C42416   6.329   2.044   6.746 -0.3252  1.1266 -0.0661
  315MOL0     C42417   6.207   2.109   6.750  0.5529  0.4049  1.0113
  315MOL0     C42418   6.219   2.267   6.747 -1.0203  0.1319  0.6646
  315MOL0     C42419   6.083   2.037   6.748  0.0569  0.5014  0.1982
  315MOL0     C42420   5.946   2.090   6.764  0.3427  0.3676 -0.0629
  315MOL0     O42421   5.849   1.998   6.799 -0.7515  1.0548 -0.4269
  315MOL0     C42422   5.732   2.037   6.856  0.1226  0.1414  0.0471
  315MOL0     C42423   5.639   1.934   6.860  0.8553  0.0257 -0.3321
  315MOL0     C42424   5.509   1.966   6.882  0.7279  0.0756 -1.0217
  315MOL0     C42425   5.477   2.097   6.941  0.9529 -0.5669  0.4455
  315MOL0     O42426   5.346   2.140   6.957 -0.5675  0.4332 -0.5344
  315MOL0     C42427   5.255   2.052   7.016  0.1289 -0.2755 -0.1423
  315MOL0     C42428   5.119   2.105   6.973  0.5145 -0.1503  0.2556
  315MOL0     C42429   5.088   2.125   6.823  0.8241  0.0907 -0.0507
  315MOL0     C42430   4.946   2.193   6.784 -0.0267 -0.1689  0.2339
  315MOL0     C42431   4.926   2.204   6.630  0.0882 -0.3619  0.0231
  315MOL0     C42432   4.789   2.263   6.601 -0.3122 -0.5555  0.1510
  315MOL0     C42433   4.687   2.169   6.531 -0.6519 -0.4702 -0.2423
  315MOL0     C42434   4.551   2.230   6.544 -0.2037  0.4958 -0.1348
  315MOL0    Cl42435   4.444   2.094   6.502 -0.2637 -0.2636 -0.0417
  315MOL0     C42436   5.571   2.188   6.966  0.5650  0.4845 -0.7023
  315MOL0     C42437   5.704   2.158   6.922  0.1914 -0.3748  0.1883
  315MOL0     O42438   5.920   2.207   6.745 -0.4444  0.1566 -0.0999
  315MOL0     C42439   6.092   1.896   6.751  0.5743  0.7031  0.3509
  315MOL0     C42440   6.217   1.832   6.750 -0.3242 -0.3379 -0.6912
  315MOL0     N42441   6.847   1.809   6.196 -0.1049  0.3300  0.0317
  315MOL0     N42442   6.817   1.775   6.076 -0.2135  0.0131  0.0050
  315MOL0     C42443   6.220   0.723   6.064 -0.1956 -0.5122  0.0883
  315MOL0     C42444   6.120   0.620   6.072  0.7311  0.3289  0.9687
  315MOL0     C42445   5.758   0.371   6.266  0.1684  0.1275  0.4336
  315MOL0     C42446   5.625   0.360   6.307 -0.3131 -0.3512  0.2429
  315MOL0     C42447   5.561   0.243   6.329 -1.0985  0.0146 -0.4994
  315MOL0     C42448   5.630   0.117   6.322 -0.1663  0.6211  0.4338
  315MOL0     O42449   5.591  -0.010   6.339  0.6209 -0.6186 -0.0673
  315MOL0     C42450   5.447  -0.027   6.379 -0.5657 -0.2152 -0.2714
  315MOL0     C42451   5.425   0.002   6.530  0.1027  0.3669  0.1139
  315MOL0     C42452   5.305  -0.065   6.586  0.0932 -0.1400  0.0430
  315MOL0     C42453   5.314  -0.197   6.663  0.0176 -0.3528 -0.6615
  315MOL0     C42454   5.355  -0.315   6.581  0.8291  0.2094  0.0034
  315MOL0     C42455   5.385  -0.410   6.513 -0.0162 -0.1795  0.3929
  315MOL0     C42456   5.755   0.122   6.278  0.6152  0.1657  0.2449
  315MOL0     C42457   5.826   0.245   6.250  0.6137  0.5401  0.1052
  315MOL0     H42458   5.957   0.692   6.359 -0.8581 -1.3063 -1.5193
  315MOL0     H42459   6.133   0.868   6.365  4.5508 -0.0858 -0.8405
  315MOL0     H42460   6.471   0.868   6.055  1.0458  0.4651 -2.8564
  315MOL0     H42461   6.327   0.939   5.978 -1.8542 -0.4353  3.4194
  315MOL0     H42462   6.379   1.157   6.095 -0.4295 -0.4884 -0.7558
  315MOL0     H42463   6.526   1.085   6.178  1.0126 -1.3347  0.0793
  315MOL0     H42464   6.627   1.033   5.969  0.2187 -0.5811  1.9407
  315MOL0     H42465   6.498   1.118   5.891  1.3534 -1.8607 -0.8051
  315MOL0     H42466   6.681   1.249   6.102  0.8916 -0.6512 -1.0103
  315MOL0     H42467   6.708   1.247   5.936  0.2747  1.9936  0.6355
  315MOL0     H42468   6.502   1.405   5.894 -0.1769  3.4224  0.7497
  315MOL0     H42469   6.442   1.375   6.050 -0.6259 -2.7458 -2.2573
  315MOL0     H42470   6.625   1.511   6.148 -4.1848  0.8330  0.5907
  315MOL0     H42471   6.704   1.503   5.982  0.6341 -0.7696  1.6978
  315MOL0     H42472   6.451   1.608   5.953  1.1374 -0.6486  0.1217
  315MOL0     H42473   6.491   1.686   6.111 -0.5008  3.6912 -1.8817
  315MOL0     H42474   6.553   1.804   5.879  2.8763  1.4348 -1.0171
  315MOL0     H42475   6.690   1.695   5.879  1.8462  0.8444  0.5407
  315MOL0     H42476   6.540   1.931   6.152 -0.2415 -0.1665 -3.5841
  315MOL0     H42477   6.826   1.981   6.406  0.1837 -0.2202 -0.3806
  315MOL0     H42478   6.673   2.040   6.376  0.8557  1.1261  1.7014
  315MOL0     H42479   6.750   1.796   6.552 -1.3330 -3.6049 -0.5981
  315MOL0     H42480   6.598   1.802   6.451 -0.1213  0.9958  0.0120
  315MOL0     H42481   6.522   2.024   6.565 -1.4349 -0.8079  1.0285
  315MOL0     H42482   6.680   2.033   6.641  0.6226 -0.7318  2.1708
  315MOL0     H42483   6.566   1.969   6.809 -0.3191  0.1121 -0.2138
  315MOL0     H42484   6.653   1.827   6.768  0.0940  0.8532  1.1668
  315MOL0     H42485   6.422   2.099   6.734  0.1188  0.9671  2.2331
  315MOL0     H42486   6.198   2.315   6.651 -0.1256 -2.5056 -0.9580
  315MOL0     H42487   6.145   2.311   6.815  1.4604  1.9563  2.3793
  315MOL0     H42488   6.314   2.302   6.788 -0.4894 -0.5519  0.0479
  315MOL0     H42489   5.650   1.837   6.812 -2.3281  0.0525 -1.3830
  315MOL0     H42490   5.431   1.892   6.872 -1.3371  1.7781  1.4126
  315MOL0     H42491   5.252   1.947   6.986 -2.2896 -0.1114 -0.6596
  315MOL0     H42492   5.268   2.057   7.125 -0.5218 -1.6656  0.0261
  315MOL0     H42493   5.037   2.043   7.011  1.3445 -0.8808  0.8966
  315MOL0     H42494   5.108   2.206   7.015 -0.9528 -0.2982  0.2655
  315MOL0     H42495   5.077   2.030   6.771  0.8031  0.7169 -1.2126
  315MOL0     H42496   5.168   2.173   6.767 -0.9579  1.3409 -1.6629
  315MOL0     H42497   4.873   2.122   6.824  0.7589 -1.3007 -0.2800
  315MOL0     H42498   4.939   2.293   6.828  2.2152  0.3624 -0.5093
  315MOL0     H42499   4.944   2.111   6.575  0.6786 -1.0436  1.3189
  315MOL0     H42500   5.006   2.269   6.593  0.0487 -0.0049  0.5478
  315MOL0     H42501   4.753   2.316   6.689 -3.2201  0.7759 -1.6860
  315MOL0     H42502   4.803   2.345   6.530 -3.0745  2.2794  2.5874
  315MOL0     H42503   4.683   2.073   6.583 -3.5327 -0.6960 -0.7143
  315MOL0     H42504   4.711   2.160   6.425 -3.9176 -0.7133 -1.0646
  315MOL0     H42505   4.539   2.318   6.480 -0.6297 -0.3772 -1.3005
  315MOL0     H42506   4.530   2.265   6.645 -4.0124  4.2423 -1.8930
  315MOL0     H42507   5.548   2.284   7.011  1.7361  0.5512 -0.2103
  315MOL0     H42508   5.782   2.231   6.944  2.7838 -2.5261 -1.2084
  315MOL0     H42509   6.008   1.829   6.737  2.0667 -0.9566 -1.3061
  315MOL0     H42510   6.201   1.726   6.738  0.0661 -0.8410  2.4967
  315MOL0     H42511   6.286   0.738   5.979 -2.1722  3.7459 -0.9762
  315MOL0     H42512   6.115   0.542   5.997 -2.7097  0.6031  0.7687
  315MOL0     H42513   5.568   0.452   6.318 -2.4052 -1.7457  2.0044
  315MOL0     H42514   5.455   0.255   6.352 -0.3737  2.8250  1.9897
  315MOL0     H42515   5.382   0.024   6.307 -0.2045 -2.2877 -2.1894
  315MOL0     H42516   5.424  -0.134   6.372 -2.2687  0.2265 -3.1437
  315MOL0     H42517   5.413   0.111   6.541 -3.3899 -0.0180  1.1784
  315MOL0     H42518   5.512  -0.033   6.587 -0.2170  0.2074  0.5114
  315MOL0     H42519   5.231  -0.097   6.512 -0.0348 -2.9551  1.2708
  315MOL0     H42520   5.265   0.004   6.661  0.6913 -1.9484  2.1545
  315MOL0     H42521   5.223  -0.215   6.721  1.1054 -1.9818  0.6427
  315MOL0     H42522   5.397  -0.176   6.731  0.6979 -1.5166 -1.0967
  315MOL0     H42523   5.408  -0.499   6.459  3.3968 -0.7109  2.4209
  315MOL0     H42524   5.809   0.029   6.262 -0.3547 -0.4300  0.3330
  315MOL0     H42525   5.927   0.232   6.214  0.5583 -2.6104  0.7577
  316MOL0     O42526   9.313   7.395   3.214  0.7754 -0.3418 -0.4561
  316MOL0     C42527   9.432   7.378   3.214  0.1020  0.3044  0.3293
  316MOL0     O42528   9.520   7.447   3.288 -0.4391 -0.0796 -0.5420
  316MOL0     C42529   9.479   7.533   3.383 -0.8002 -0.2152  0.2226
  316MOL0     C42530   9.548   7.663   3.398  0.3170 -0.2052 -0.4103
  316MOL0     C42531   9.492   7.763   3.475 -0.0848  0.5202  0.0972
  316MOL0     C42532   9.383   7.736   3.562  0.8805  0.4246 -0.7285
  316MOL0     O42533   9.358   7.831   3.656 -0.6481 -0.3989 -0.2505
  316MOL0     C42534   9.237   7.823   3.724 -0.0408 -0.7102  0.5484
  316MOL0     C42535   9.225   7.960   3.796  0.2674 -0.5764 -0.7657
  316MOL0     C42536   9.086   7.957   3.873  0.3663 -0.1494  0.3722
  316MOL0     C42537   9.076   7.874   4.012  0.6719  0.0622 -0.0171
  316MOL0     C42538   8.944   7.920   4.078 -0.5031  0.4120  0.4909
  316MOL0     C42539   8.912   7.834   4.200  0.0740 -0.1519  0.2859
  316MOL0     C42540   8.801   7.906   4.278  0.1809 -0.6388  0.0183
  316MOL0     C42541   8.858   8.010   4.374  0.1355 -0.0116 -0.2587
  316MOL0     N42542   8.749   8.104   4.411 -0.2899 -0.5634  0.4350
  316MOL0     C42543   8.644   8.072   4.485  0.0447  0.5147  0.2779
  316MOL0     C42544   8.555   8.166   4.465  1.1753  0.1362 -0.2404
  316MOL0     C42545   8.412   8.173   4.525 -0.4373 -0.9068 -0.3081
  316MOL0     C42546   8.317   8.086   4.448  0.6762 -0.5291 -0.1760
  316MOL0     C42547   8.316   8.118   4.307 -0.1190  0.4296  0.6977
  316MOL0     C42548   8.255   8.250   4.262  0.2358 -0.2377  0.5142
  316MOL0     O42549   8.191   8.232   4.135 -0.5485  0.3856 -0.0476
  316MOL0     C42550   8.089   8.304   4.099 -0.0683 -0.1038  0.8409
  316MOL0     C42551   8.052   8.425   4.171  0.3277  0.0624  0.2036
  316MOL0     C42552   7.951   8.509   4.114  0.2175 -0.1485 -0.2756
  316MOL0     C42553   7.929   8.643   4.172  0.1660  0.0888  1.0727
  316MOL0     C42554   7.895   8.470   3.989 -0.2475 -0.1104 -0.5199
  316MOL0     C42555   7.780   8.543   3.921 -0.0756  0.1765 -0.1081
  316MOL0     O42556   7.789   8.553   3.784  0.3538 -0.5242  1.0574
  316MOL0     C42557   7.677   8.593   3.710  0.4415  0.3144 -0.1404
  316MOL0     C42558   7.546   8.563   3.741  0.4388 -0.2307 -0.4328
  316MOL0     C42559   7.441   8.612   3.661  0.0335 -0.5965  0.3705
  316MOL0     C42560   7.472   8.692   3.545 -0.0974 -0.2172  0.5715
  316MOL0     O42561   7.362   8.751   3.483 -0.5852 -1.1713  1.1928
  316MOL0     C42562   7.392   8.854   3.382 -0.1429 -0.4962  0.4047
  316MOL0     C42563   7.265   8.930   3.348  0.1251 -0.5212 -0.4475
  316MOL0     C42564   7.155   8.859   3.260  1.4517 -0.5743 -0.4364
  316MOL0     C42565   7.197   8.840   3.120  0.0391  1.1188 -0.1114
  316MOL0     C42566   7.074   8.801   3.029 -0.7511  0.3111 -0.0354
  316MOL0     C42567   7.002   8.926   2.978  0.4564 -0.3777 -0.1672
  316MOL0     C42568   6.867   8.904   2.904 -0.5924  0.2647  0.1254
  316MOL0     C42569   6.893   8.841   2.764 -0.2613 -0.3140  0.2095
  316MOL0    Cl42570   6.985   8.950   2.658 -0.2920  0.4351 -0.1295
  316MOL0     C42571   7.610   8.722   3.517  1.1175  1.3688  0.5728
  316MOL0     C42572   7.705   8.665   3.593  0.9984  0.6864  0.1629
  316MOL0     O42573   7.687   8.591   3.998 -0.1238  0.0742  0.0209
  316MOL0     C42574   7.929   8.356   3.924  1.0529 -1.2740  0.0492
  316MOL0     C42575   8.025   8.270   3.974  0.5609 -0.0193  0.9269
  316MOL0     N42576   8.598   8.257   4.382  0.2642  0.1391 -0.4112
  316MOL0     N42577   8.721   8.226   4.343  0.3839 -0.1094  0.1019
  316MOL0     C42578   9.317   7.611   3.557 -1.0938  0.2466  0.5077
  316MOL0     C42579   9.374   7.512   3.470  0.1967  0.2611 -0.9643
  316MOL0     C42580   9.481   7.259   3.128  0.3657 -0.2271  0.2748
  316MOL0     C42581   9.619   7.225   3.128 -0.1390 -0.1907  0.0147
  316MOL0     C42582   9.658   7.126   3.038 -0.4779 -0.2506 -0.7052
  316MOL0     C42583   9.566   7.036   2.983 -0.0358  0.1079 -0.2939
  316MOL0     O42584   9.617   6.922   2.938 -0.4071 -0.5873 -0.5064
  316MOL0     C42585   9.596   6.802   3.001  0.3533 -0.0267 -0.1119
  316MOL0     C42586   9.663   6.683   2.950 -0.8482 -0.0515 -0.9920
  316MOL0     C42587   9.799   6.719   2.902  1.0088 -0.6935  0.4011
  316MOL0     C42588   9.885   6.601   2.840 -0.2624 -0.3220  0.1631
  316MOL0     C42589   9.941   6.506   2.940 -0.8868 -0.6141 -0.0885
  316MOL0     C42590   9.987   6.433   3.027 -0.7529  1.0848 -0.0108
  316MOL0     C42591   9.433   7.066   2.991 -0.8593 -0.4975 -0.2049
  316MOL0     C42592   9.386   7.171   3.061 -0.6614 -0.7319 -0.2169
  316MOL0     H42593   9.646   7.688   3.357 -0.1406  0.9929 -0.8160
  316MOL0     H42594   9.528   7.865   3.479  0.0556  0.4596  0.4334
  316MOL0     H42595   9.158   7.812   3.650 -0.1696  0.1647  0.5438
  316MOL0     H42596   9.220   7.736   3.789 -2.3578 -0.3734  0.4696
  316MOL0     H42597   9.313   7.979   3.858 -0.7303 -0.7362  0.7652
  316MOL0     H42598   9.213   8.035   3.717  1.4470  1.7898  1.1811
  316MOL0     H42599   9.059   8.063   3.886  0.3579  0.3896 -3.0079
  316MOL0     H42600   9.011   7.920   3.803  1.6930  1.8949 -2.3177
  316MOL0     H42601   9.064   7.768   3.989  2.4156 -0.5159  1.4857
  316MOL0     H42602   9.162   7.882   4.080  1.7768 -1.9321 -1.0840
  316MOL0     H42603   8.966   8.020   4.116  1.7911 -0.1306  0.6937
  316MOL0     H42604   8.863   7.913   4.004 -1.0807 -0.5707  1.1940
  316MOL0     H42605   8.875   7.735   4.175 -0.2455 -0.1212  0.6176
  316MOL0     H42606   8.999   7.828   4.266 -1.3535  0.6852  2.3719
  316MOL0     H42607   8.721   7.953   4.220 -0.8177  0.2528  2.0200
  316MOL0     H42608   8.739   7.831   4.329 -0.3713  0.3651  0.8419
  316MOL0     H42609   8.942   8.063   4.329  1.2483 -3.6776 -2.9885
  316MOL0     H42610   8.902   7.962   4.462 -2.0776 -0.9195  0.4241
  316MOL0     H42611   8.633   7.980   4.540 -2.4255 -1.8868 -3.6895
  316MOL0     H42612   8.422   8.121   4.621  1.2761  0.8959  0.5731
  316MOL0     H42613   8.391   8.280   4.536  2.5324 -0.4571  2.4474
  316MOL0     H42614   8.215   8.087   4.488 -0.4702 -2.7778 -2.6927
  316MOL0     H42615   8.349   7.982   4.459 -0.5272 -1.2298 -2.5659
  316MOL0     H42616   8.269   8.032   4.258  1.8838 -0.6759  0.6112
  316MOL0     H42617   8.414   8.117   4.259 -0.8851 -0.1664 -0.9185
  316MOL0     H42618   8.332   8.328   4.259 -1.6144  1.6702 -1.1088
  316MOL0     H42619   8.181   8.282   4.335  1.0973 -1.2720  1.8941
  316MOL0     H42620   8.095   8.467   4.262  3.0884  0.7212 -1.2881
  316MOL0     H42621   7.946   8.721   4.098 -0.7465 -0.1429  0.5970
  316MOL0     H42622   7.826   8.667   4.199 -0.3339  2.7130 -2.4242
  316MOL0     H42623   7.990   8.653   4.262  0.6788  0.8386  0.6535
  316MOL0     H42624   7.508   8.510   3.828 -1.8174  1.2146 -0.4496
  316MOL0     H42625   7.335   8.598   3.679  0.0006 -2.9307 -1.1401
  316MOL0     H42626   7.463   8.926   3.423 -3.2130  3.1609 -0.0884
  316MOL0     H42627   7.437   8.820   3.288 -2.1592  2.4779 -1.8106
  316MOL0     H42628   7.198   8.960   3.429 -2.9105  0.7436 -3.2043
  316MOL0     H42629   7.289   9.014   3.283 -1.1361 -0.2404 -0.5823
  316MOL0     H42630   7.071   8.929   3.266  3.4406  1.9337 -0.2073
  316MOL0     H42631   7.117   8.769   3.309  0.4611 -0.1784 -0.4676
  316MOL0     H42632   7.269   8.912   3.078  0.6804 -0.9544 -2.8824
  316MOL0     H42633   7.255   8.748   3.133  0.3569  1.1358 -1.3159
  316MOL0     H42634   7.013   8.733   3.091 -1.0325 -0.7399 -1.4218
  316MOL0     H42635   7.111   8.741   2.945 -2.3873 -0.1899 -0.4409
  316MOL0     H42636   6.978   8.993   3.061 -3.1657  3.1663 -3.6068
  316MOL0     H42637   7.073   8.982   2.917 -1.3296  0.7254 -1.3276
  316MOL0     H42638   6.813   8.999   2.909  0.2502  0.7370  0.4842
  316MOL0     H42639   6.799   8.851   2.971  0.5907 -0.6348  0.6724
  316MOL0     H42640   6.794   8.817   2.724  0.9108 -2.0580 -1.8856
  316MOL0     H42641   6.942   8.743   2.772  0.8814  0.3166  1.1023
  316MOL0     H42642   7.636   8.781   3.430  1.3988 -3.9016 -3.3970
  316MOL0     H42643   7.810   8.684   3.574  2.1416 -0.6533  4.2158
  316MOL0     H42644   7.879   8.330   3.831  0.0316  0.8476 -0.0463
  316MOL0     H42645   8.059   8.185   3.916 -1.2959  2.3831 -4.3780
  316MOL0     H42646   9.241   7.583   3.630 -0.0533  0.3557  1.6697
  316MOL0     H42647   9.320   7.418   3.461 -0.9832  0.9501 -1.2461
  316MOL0     H42648   9.685   7.288   3.187 -0.2013 -0.7820  0.7351
  316MOL0     H42649   9.763   7.097   3.040 -0.5555 -0.5630 -1.2662
  316MOL0     H42650   9.627   6.817   3.105  3.9504 -0.6397 -0.9656
  316MOL0     H42651   9.487   6.789   3.008 -0.0084  2.1486 -0.9934
  316MOL0     H42652   9.602   6.641   2.869 -0.3913 -1.3579 -0.6863
  316MOL0     H42653   9.662   6.596   3.017  0.5153 -0.4969 -1.5134
  316MOL0     H42654   9.862   6.777   2.970  1.1248 -1.0163  0.5744
  316MOL0     H42655   9.792   6.784   2.814  1.0692 -3.0416 -1.4558
  316MOL0     H42656   9.971   6.649   2.792 -1.1433 -0.0808 -1.2070
  316MOL0     H42657   9.819   6.559   2.765 -0.8940  3.2102 -1.4494
  316MOL0     H42658  10.030   6.370   3.102  0.1712  1.7323  0.0136
  316MOL0     H42659   9.358   7.010   2.934 -0.1273 -0.9336 -0.7608
  316MOL0     H42660   9.282   7.196   3.044 -0.4175  0.4913 -0.0667
  317MOL0     O42661   8.753   0.632   0.411  0.0777 -0.1267  0.0639
  317MOL0     C42662   8.688   0.560   0.483  0.6749 -0.2274  1.2236
  317MOL0     O42663   8.613   0.593   0.593  0.2074 -1.1016  0.2237
  317MOL0     C42664   8.579   0.725   0.631  1.1575  0.3998  0.4006
  317MOL0     C42665   8.517   0.737   0.755  0.6655 -0.0208  0.4184
  317MOL0     C42666   8.457   0.856   0.796  0.7965 -0.0400  1.1904
  317MOL0     C42667   8.461   0.974   0.726  0.0753  0.7805 -0.3877
  317MOL0     O42668   8.422   1.090   0.788 -0.0949 -0.0294  0.5951
  317MOL0     C42669   8.451   1.206   0.706 -0.9111 -0.4288 -0.5949
  317MOL0     C42670   8.380   1.326   0.757 -0.0010  0.6901  0.7593
  317MOL0     C42671   8.437   1.393   0.882 -1.0018  0.4526  0.0248
  317MOL0     C42672   8.372   1.522   0.924 -0.4038  0.4235  0.6738
  317MOL0     C42673   8.444   1.575   1.047 -0.2599 -0.0991  0.7011
  317MOL0     C42674   8.424   1.730   1.052  0.0218  0.4981  0.0155
  317MOL0     C42675   8.521   1.782   1.155  0.1274 -0.6381 -0.0750
  317MOL0     C42676   8.472   1.782   1.303 -0.6323 -0.4634  0.4633
  317MOL0     N42677   8.596   1.815   1.383  0.0269  0.4147  0.2129
  317MOL0     C42678   8.632   1.934   1.441  1.1925  0.2175  0.2356
  317MOL0     C42679   8.765   1.922   1.480  0.5667  0.1653  0.5833
  317MOL0     C42680   8.859   2.020   1.530  0.6058 -0.3476 -0.2720
  317MOL0     C42681   8.916   2.123   1.441  1.0684 -0.1191  0.5151
  317MOL0     C42682   9.007   2.072   1.334 -0.0421 -0.1249  1.0166
  317MOL0     C42683   9.005   2.152   1.204 -0.1754 -0.0921  0.2595
  317MOL0     O42684   8.888   2.149   1.119  0.0242  0.0061  0.6798
  317MOL0     C42685   8.881   2.076   1.011  0.8484 -0.3337 -0.0165
  317MOL0     C42686   8.989   2.012   0.953 -0.5290  0.0453  0.6144
  317MOL0     C42687   8.961   1.926   0.845 -0.8014 -1.1240 -0.2425
  317MOL0     C42688   9.084   1.851   0.796  0.7876 -0.8280 -0.1387
  317MOL0     C42689   8.821   1.896   0.798 -0.1749 -0.7695  0.2705
  317MOL0     C42690   8.789   1.795   0.699 -0.1943  0.3574  0.2370
  317MOL0     O42691   8.651   1.784   0.683 -0.4278 -0.5503  0.5878
  317MOL0     C42692   8.589   1.699   0.589  0.6688  0.3563 -0.2857
  317MOL0     C42693   8.624   1.565   0.576  0.1312  0.0823  0.3255
  317MOL0     C42694   8.557   1.476   0.487  1.0477  0.0629 -0.7459
  317MOL0     C42695   8.436   1.519   0.428 -0.5264  0.3741  0.7043
  317MOL0     O42696   8.373   1.446   0.335 -0.3782  0.3907  0.5811
  317MOL0     C42697   8.268   1.369   0.381 -0.0310  0.8926  0.1998
  317MOL0     C42698   8.234   1.265   0.279 -0.0795  0.5774  0.0081
  317MOL0     C42699   8.325   1.137   0.296  0.5679 -0.0537  0.2779
  317MOL0     C42700   8.274   1.031   0.206  1.2274 -0.1087 -0.0713
  317MOL0     C42701   8.364   0.913   0.232 -0.0709  0.4924  0.2550
  317MOL0     C42702   8.329   0.785   0.145 -0.2291 -0.0823 -0.2411
  317MOL0     C42703   8.416   0.669   0.188  1.2684 -0.1116  1.7593
  317MOL0     C42704   8.412   0.551   0.085  0.6622 -0.3076 -0.4619
  317MOL0    Cl42705   8.580   0.471   0.093  0.1991 -0.2979  0.0532
  317MOL0     C42706   8.398   1.652   0.450 -0.2469  1.2161  0.4003
  317MOL0     C42707   8.467   1.739   0.538  0.3423 -0.1738  0.8021
  317MOL0     O42708   8.864   1.732   0.635  0.5628 -0.5695 -0.3523
  317MOL0     C42709   8.720   1.976   0.855  0.0195 -1.2101 -0.0104
  317MOL0     C42710   8.748   2.061   0.963  0.1437 -0.2813  0.3110
  317MOL0     N42711   8.806   1.797   1.447 -0.0261 -0.3220 -0.2903
  317MOL0     N42712   8.709   1.737   1.385  0.3695 -0.3238 -0.4449
  317MOL0     C42713   8.524   0.957   0.600 -0.3645 -0.1829 -0.1939
  317MOL0     C42714   8.587   0.844   0.556  0.2237  0.2064 -0.5816
  317MOL0     C42715   8.711   0.410   0.476  0.1798 -0.4699  0.0129
  317MOL0     C42716   8.678   0.333   0.583 -0.6760  0.3719 -1.4552
  317MOL0     C42717   8.698   0.199   0.584 -0.0446  0.4371  0.3055
  317MOL0     C42718   8.762   0.134   0.477 -0.1953 -0.7066 -0.5448
  317MOL0     O42719   8.800   0.003   0.472 -0.3595  0.2606 -0.3014
  317MOL0     C42720   8.800  -0.087   0.589  0.5619 -0.3682 -0.1715
  317MOL0     C42721   8.842  -0.224   0.551 -0.2327 -0.6183 -0.1210
  317MOL0     C42722   8.765  -0.287   0.438  0.3528 -0.0238 -0.5262
  317MOL0     C42723   8.855  -0.395   0.367 -0.1771  0.8689  0.0468
  317MOL0     C42724   8.792  -0.524   0.336 -0.0176  0.1831 -0.1748
  317MOL0     C42725   8.736  -0.624   0.301 -0.0475 -0.3254  0.6341
  317MOL0     C42726   8.798   0.210   0.362 -0.0263  0.2740 -0.0253
  317MOL0     C42727   8.769   0.346   0.363 -0.1668 -0.1879 -0.5619
  317MOL0     H42728   8.497   0.650   0.816  0.1270 -0.4151 -0.2969
  317MOL0     H42729   8.423   0.854   0.899 -1.5631 -0.2891  0.4711
  317MOL0     H42730   8.555   1.237   0.717 -1.5809  2.1292 -0.7957
  317MOL0     H42731   8.423   1.185   0.602  0.6221 -0.2994 -1.0576
  317MOL0     H42732   8.368   1.403   0.680  1.1409  0.2581  0.1354
  317MOL0     H42733   8.275   1.299   0.774 -0.0555 -0.4308 -1.1167
  317MOL0     H42734   8.428   1.325   0.967 -1.3266  1.1498  0.5599
  317MOL0     H42735   8.540   1.418   0.857 -0.9568 -1.4770 -1.9657
  317MOL0     H42736   8.362   1.598   0.846 -0.6261  1.0143  1.2645
  317MOL0     H42737   8.274   1.492   0.963  0.4658 -1.7261  1.3334
  317MOL0     H42738   8.419   1.522   1.139  0.4245  0.2505  1.0947
  317MOL0     H42739   8.551   1.558   1.027  0.1244  1.4489  1.3042
  317MOL0     H42740   8.462   1.782   0.964  0.9016 -0.2495 -0.0703
  317MOL0     H42741   8.320   1.758   1.068 -0.8308 -0.7115 -2.7526
  317MOL0     H42742   8.618   1.733   1.149  0.5629  0.3626 -4.2143
  317MOL0     H42743   8.545   1.887   1.137  1.4677 -0.9322 -0.0753
  317MOL0     H42744   8.443   1.679   1.324  3.6162 -2.2708 -1.3536
  317MOL0     H42745   8.395   1.855   1.329 -0.3885  0.9723 -2.4501
  317MOL0     H42746   8.567   2.021   1.444  2.4850  1.2809 -1.1575
  317MOL0     H42747   8.805   2.076   1.607 -1.2767  0.7442 -2.2743
  317MOL0     H42748   8.942   1.967   1.578  0.3778  2.3042  3.6121
  317MOL0     H42749   8.958   2.204   1.500 -1.3227  2.3356 -0.8922
  317MOL0     H42750   8.830   2.168   1.390  2.2797  1.1835 -0.4481
  317MOL0     H42751   8.984   1.969   1.303  2.7092 -0.2034 -1.2403
  317MOL0     H42752   9.109   2.072   1.374  0.3328  3.7098  0.3761
  317MOL0     H42753   9.095   2.144   1.143 -0.5977 -0.7317 -0.2861
  317MOL0     H42754   9.006   2.254   1.244 -2.3594  0.8113 -1.7617
  317MOL0     H42755   9.092   2.030   0.981  0.2556 -1.0377 -1.3908
  317MOL0     H42756   9.170   1.872   0.860 -0.6057  3.5759  0.6746
  317MOL0     H42757   9.058   1.745   0.795  2.5626 -1.3034  0.3901
  317MOL0     H42758   9.126   1.879   0.700  1.1691 -1.6914 -0.2291
  317MOL0     H42759   8.717   1.530   0.619 -1.2498 -2.5863  1.3726
  317MOL0     H42760   8.598   1.377   0.472  0.5677 -0.1946 -0.3821
  317MOL0     H42761   8.291   1.323   0.478  0.4704  0.6873 -0.0135
  317MOL0     H42762   8.186   1.439   0.401  1.6987  2.9472  0.4920
  317MOL0     H42763   8.130   1.234   0.293  0.8142 -3.7022 -1.3121
  317MOL0     H42764   8.235   1.295   0.174  3.7697 -1.5873 -0.7885
  317MOL0     H42765   8.327   1.085   0.393  3.3705 -1.9130 -0.6561
  317MOL0     H42766   8.431   1.155   0.279  0.0639  0.7599 -2.3850
  317MOL0     H42767   8.173   0.999   0.235  1.0714 -0.5243 -1.0276
  317MOL0     H42768   8.252   1.054   0.101 -1.6727  0.3933  0.5412
  317MOL0     H42769   8.339   0.881   0.333  0.4588 -3.8526 -0.8167
  317MOL0     H42770   8.469   0.943   0.219 -1.0304  3.1979 -2.5574
  317MOL0     H42771   8.222   0.764   0.155 -0.6949  2.2581  0.4428
  317MOL0     H42772   8.349   0.807   0.040  1.0210  0.4847  0.0990
  317MOL0     H42773   8.411   0.628   0.289 -0.1895 -1.8835  1.0201
  317MOL0     H42774   8.518   0.706   0.174  0.9902 -0.3135 -1.5176
  317MOL0     H42775   8.393   0.583  -0.018 -1.7976 -0.9296 -0.2632
  317MOL0     H42776   8.330   0.480   0.093 -1.3960  1.6527 -2.5911
  317MOL0     H42777   8.307   1.673   0.395 -0.0458 -0.6222 -0.7248
  317MOL0     H42778   8.428   1.838   0.560 -1.2614 -0.6607  0.3178
  317MOL0     H42779   8.614   1.957   0.840 -0.4118  0.0392  1.2540
  317MOL0     H42780   8.674   2.115   1.022 -0.6817 -2.2917  1.2252
  317MOL0     H42781   8.553   1.042   0.539  2.3389  0.5139  1.8551
  317MOL0     H42782   8.631   0.836   0.457 -1.0365 -4.4462 -1.0012
  317MOL0     H42783   8.644   0.381   0.674  0.9514  2.3545 -1.8110
  317MOL0     H42784   8.671   0.137   0.669 -2.3137 -1.2540 -1.5184
  317MOL0     H42785   8.859  -0.046   0.672 -2.0615  2.3245  0.5240
  317MOL0     H42786   8.697  -0.097   0.623  0.9744 -1.0416  0.9554
  317MOL0     H42787   8.828  -0.291   0.635  0.8802 -1.6018 -0.6907
  317MOL0     H42788   8.948  -0.219   0.524 -0.5172 -2.5312 -1.8410
  317MOL0     H42789   8.718  -0.225   0.361  1.2920 -1.5367 -2.4033
  317MOL0     H42790   8.677  -0.334   0.482 -0.5120 -0.5450 -2.6711
  317MOL0     H42791   8.941  -0.421   0.430 -0.8637 -1.8734 -0.0222
  317MOL0     H42792   8.900  -0.348   0.279  1.9845  1.1405  1.2055
  317MOL0     H42793   8.714  -0.727   0.280 -0.2088 -0.3187  0.7636
  317MOL0     H42794   8.840   0.163   0.273  1.4210  0.3407  0.5986
  317MOL0     H42795   8.800   0.400   0.274  0.6996  1.9433  0.9548
  318MOL0     O42796   6.419  10.387   7.045 -0.2319  0.4945  0.1885
  318MOL0     C42797   6.376  10.435   6.944 -0.3147 -0.6067 -0.5096
  318MOL0     O42798   6.240  10.446   6.908  0.3503 -0.1455 -0.0759
  318MOL0     C42799   6.152  10.392   6.999 -0.5122  0.2343 -0.8870
  318MOL0     C42800   6.068  10.475   7.075 -0.5101 -0.4367 -0.1198
  318MOL0     C42801   5.983  10.424   7.170 -0.5509 -0.5953 -1.2800
  318MOL0     C42802   5.976  10.292   7.199 -0.7781  0.6934 -0.2205
  318MOL0     O42803   5.891  10.255   7.304  0.3508  0.8108 -0.1624
  318MOL0     C42804   5.850  10.116   7.319 -0.4242 -0.6964  0.9379
  318MOL0     C42805   5.705  10.106   7.370  0.2902  0.2125  0.2809
  318MOL0     C42806   5.654   9.958   7.409  0.1941 -0.2528  0.2152
  318MOL0     C42807   5.734   9.902   7.530 -0.1970 -0.4590  0.1927
  318MOL0     C42808   5.672   9.773   7.581  0.3174 -0.3086  0.0991
  318MOL0     C42809   5.759   9.716   7.701  0.0550 -1.4710  0.5750
  318MOL0     C42810   5.739   9.792   7.832  0.1542 -0.3686 -0.0010
  318MOL0     C42811   5.818   9.715   7.942 -0.2149  0.0667  0.5933
  318MOL0     N42812   5.867   9.794   8.046  0.1228 -0.2295 -0.4529
  318MOL0     C42813   5.828   9.924   8.084  0.3154 -0.0161  0.0872
  318MOL0     C42814   5.910   9.959   8.187 -0.0675  0.8382  0.0337
  318MOL0     C42815   5.884  10.090   8.269 -0.0309  0.8394 -0.5222
  318MOL0     C42816   5.853  10.059   8.424 -0.2598  0.6634 -0.2689
  318MOL0     C42817   5.710  10.009   8.446 -0.0737  0.4743 -0.2409
  318MOL0     C42818   5.600  10.118   8.420 -0.2958  1.0671 -0.7699
  318MOL0     O42819   5.486  10.067   8.482  0.1913  0.8682 -0.1090
  318MOL0     C42820   5.384   9.999   8.411 -1.2819  0.0872  0.1227
  318MOL0     C42821   5.315   9.907   8.483 -0.1772  0.4507  0.7099
  318MOL0     C42822   5.200   9.846   8.422 -0.0713 -0.2775  0.2601
  318MOL0     C42823   5.130   9.740   8.508  0.5393 -0.2460 -0.1369
  318MOL0     C42824   5.147   9.884   8.295  0.0157  0.4635  1.5410
  318MOL0     C42825   5.015   9.841   8.230 -0.6396  0.5392 -1.3266
  318MOL0     O42826   4.938   9.939   8.166  0.8673 -0.7426  0.9782
  318MOL0     C42827   4.819   9.917   8.102  0.0983  0.1948 -0.2704
  318MOL0     C42828   4.786   9.797   8.035 -0.0835 -0.3439 -0.1192
  318MOL0     C42829   4.659   9.783   7.975  0.8428 -0.9276  0.6057
  318MOL0     C42830   4.573   9.888   7.960  0.6597 -0.5484  0.0525
  318MOL0     O42831   4.474   9.873   7.862  0.1134  0.3213 -0.1646
  318MOL0     C42832   4.338   9.877   7.908  0.5519  0.7321  0.2090
  318MOL0     C42833   4.239   9.830   7.794 -0.6286 -0.2778 -0.4080
  318MOL0     C42834   4.110   9.756   7.829 -0.2892  0.4753 -0.5701
  318MOL0     C42835   4.049   9.725   7.700 -0.3480  0.5737 -0.0029
  318MOL0     C42836   3.915   9.649   7.722 -0.1049 -0.7393 -0.9940
  318MOL0     C42837   3.858   9.607   7.591 -0.3561  0.4340  0.4860
  318MOL0     C42838   3.926   9.505   7.498  0.1067  0.1317  0.0378
  318MOL0     C42839   3.858   9.485   7.366  0.2558 -0.3836 -0.3685
  318MOL0    Cl42840   3.914   9.599   7.246  0.3614 -0.5096 -0.5469
  318MOL0     C42841   4.618  10.011   8.015  0.8442 -0.7746  0.5922
  318MOL0     C42842   4.730  10.020   8.098  0.6102 -0.1822  0.2787
  318MOL0     O42843   4.979   9.723   8.243 -0.2591 -0.3775  0.3831
  318MOL0     C42844   5.212   9.992   8.230  0.0459  0.4591  0.0338
  318MOL0     C42845   5.332  10.045   8.285  0.2470  0.3248 -1.0877
  318MOL0     N42846   5.991   9.854   8.213 -0.2969 -0.4738  0.9239
  318MOL0     N42847   5.955   9.753   8.141 -0.4385 -0.4648 -0.2381
  318MOL0     C42848   6.059  10.203   7.119  0.2652 -0.2967  0.6779
  318MOL0     C42849   6.143  10.256   7.017 -0.0583  0.5195  0.2137
  318MOL0     C42850   6.474  10.493   6.845  0.3350  0.5617 -0.3746
  318MOL0     C42851   6.610  10.463   6.839  0.4433 -0.3009 -0.0870
  318MOL0     C42852   6.699  10.534   6.766 -0.1611 -0.2146 -0.0878
  318MOL0     C42853   6.651  10.643   6.689  0.2691 -0.3890 -0.2167
  318MOL0     O42854   6.749  10.722   6.623  1.5329  0.2393 -0.7742
  318MOL0     C42855   6.711  10.810   6.511 -0.2870 -0.6751 -0.1885
  318MOL0     C42856   6.706  10.738   6.377 -0.3522  0.2470  0.0102
  318MOL0     C42857   6.674  10.848   6.279  0.8818 -0.1990  0.0927
  318MOL0     C42858   6.677  10.809   6.129 -0.3510 -0.2226  0.1298
  318MOL0     C42859   6.813  10.801   6.073  0.2297  0.3372  0.3312
  318MOL0     C42860   6.927  10.795   6.038 -0.1279  0.4636 -0.0294
  318MOL0     C42861   6.517  10.678   6.700  0.0572  0.2222  0.5038
  318MOL0     C42862   6.430  10.597   6.768 -1.0675 -0.5087 -0.5271
  318MOL0     H42863   6.078  10.581   7.056  1.8590 -0.3573  1.2226
  318MOL0     H42864   5.932  10.495   7.234  2.4867  1.4663 -0.8926
  318MOL0     H42865   5.862  10.048   7.235 -0.2023 -0.1630  0.5360
  318MOL0     H42866   5.917  10.073   7.394 -0.1739 -1.4909  0.2746
  318MOL0     H42867   5.707  10.160   7.465  2.0294 -1.1428  1.0860
  318MOL0     H42868   5.635  10.149   7.299 -2.5656 -0.7672  2.3156
  318MOL0     H42869   5.552   9.966   7.447  0.3471 -0.1867  0.6193
  318MOL0     H42870   5.665   9.887   7.326 -0.6274 -0.3155  0.1512
  318MOL0     H42871   5.836   9.900   7.491 -0.6543 -1.9379 -1.0013
  318MOL0     H42872   5.731   9.975   7.611 -2.2879 -1.7391  1.3708
  318MOL0     H42873   5.576   9.794   7.627  0.9050  1.2720  0.6814
  318MOL0     H42874   5.669   9.695   7.505  3.7119  1.5265 -2.2546
  318MOL0     H42875   5.742   9.608   7.702 -1.2760 -1.2747  1.1862
  318MOL0     H42876   5.866   9.728   7.679 -0.0103  0.5398  1.1411
  318MOL0     H42877   5.752   9.900   7.823  1.0639 -0.4333  0.4027
  318MOL0     H42878   5.638   9.785   7.874 -0.3026  3.2880 -0.2403
  318MOL0     H42879   5.905   9.658   7.908 -0.4251 -0.3317  0.7175
  318MOL0     H42880   5.757   9.628   7.966 -0.0160 -0.5530 -1.0229
  318MOL0     H42881   5.744   9.983   8.049  0.9927  0.5482 -0.6445
  318MOL0     H42882   5.982  10.136   8.253  2.6310 -3.5403  1.2321
  318MOL0     H42883   5.805  10.143   8.216  1.4121  2.7489 -0.8677
  318MOL0     H42884   5.872  10.150   8.481 -1.1974  0.5009  0.3215
  318MOL0     H42885   5.922   9.979   8.453 -0.3456  1.6141  2.8606
  318MOL0     H42886   5.689   9.978   8.549  0.3557  0.9983  0.0069
  318MOL0     H42887   5.687   9.921   8.385 -2.3003 -1.1269  2.6382
  318MOL0     H42888   5.588  10.134   8.312 -0.8421  0.1131 -0.8627
  318MOL0     H42889   5.633  10.209   8.470 -0.6832  0.0886  1.3629
  318MOL0     H42890   5.340   9.886   8.586 -2.7917 -1.3341  1.0773
  318MOL0     H42891   5.179   9.718   8.603  0.4942 -2.0354 -0.4857
  318MOL0     H42892   5.026   9.766   8.524  1.3856  1.8889  2.5442
  318MOL0     H42893   5.137   9.644   8.455  1.3314 -0.9498  1.1781
  318MOL0     H42894   4.865   9.724   8.017 -0.3942 -0.5564 -0.6458
  318MOL0     H42895   4.643   9.692   7.917 -1.0150  0.3028 -0.9268
  318MOL0     H42896   4.317   9.807   7.990  2.0915  1.5608  1.3507
  318MOL0     H42897   4.314   9.981   7.931  0.9346  0.3423  2.7479
  318MOL0     H42898   4.215   9.926   7.747  1.4107  1.3489  1.6375
  318MOL0     H42899   4.297   9.792   7.709 -0.7538  3.3723 -2.3550
  318MOL0     H42900   4.045   9.816   7.894 -2.1674 -3.6811  1.8196
  318MOL0     H42901   4.134   9.674   7.897 -1.3146  1.3919  0.9725
  318MOL0     H42902   4.036   9.823   7.653  0.1864 -0.0976 -1.6438
  318MOL0     H42903   4.116   9.661   7.641 -0.9194  0.1328 -0.1793
  318MOL0     H42904   3.848   9.714   7.778  0.6366  0.8303 -1.8581
  318MOL0     H42905   3.954   9.563   7.778  1.3157 -0.1656 -1.0577
  318MOL0     H42906   3.765   9.563   7.628 -1.6142  0.7379 -2.1085
  318MOL0     H42907   3.840   9.702   7.541  0.6347  0.2246 -0.2984
  318MOL0     H42908   3.928   9.408   7.548  0.9945  0.1406  0.0338
  318MOL0     H42909   4.031   9.530   7.484  0.8273 -2.6655 -0.0838
  318MOL0     H42910   3.750   9.494   7.376  0.5519  1.4912  2.3760
  318MOL0     H42911   3.896   9.394   7.317  1.8754  0.8108 -1.4245
  318MOL0     H42912   4.547  10.091   7.999  2.3567  0.8497  1.6261
  318MOL0     H42913   4.754  10.119   8.135 -2.7916  0.4822  0.9837
  318MOL0     H42914   5.171  10.036   8.139 -2.9874  0.1550  1.1170
  318MOL0     H42915   5.389  10.122   8.235  3.5276  0.4152  2.2409
  318MOL0     H42916   6.051  10.096   7.136 -3.0352 -0.4180 -1.0296
  318MOL0     H42917   6.205  10.191   6.955 -3.1476 -1.0555 -1.4266
  318MOL0     H42918   6.646  10.384   6.905 -1.0811 -0.3997  0.6834
  318MOL0     H42919   6.802  10.501   6.767 -1.0362 -3.2220  1.1762
  318MOL0     H42920   6.617  10.864   6.522  1.6284  2.9761 -0.3542
  318MOL0     H42921   6.791  10.883   6.496  1.6267 -2.4738  0.7704
  318MOL0     H42922   6.634  10.656   6.379 -2.0038  1.6322  2.0187
  318MOL0     H42923   6.800  10.690   6.349 -0.2589 -0.8786  2.0361
  318MOL0     H42924   6.746  10.931   6.283  0.2175  0.3428  1.4311
  318MOL0     H42925   6.579  10.899   6.291  1.1417  0.9649 -2.2260
  318MOL0     H42926   6.616  10.874   6.065 -1.4484 -3.3293 -2.2601
  318MOL0     H42927   6.631  10.712   6.107 -2.8012  1.4539 -2.9805
  318MOL0     H42928   7.032  10.798   6.015 -0.5644  0.9868 -2.2129
  318MOL0     H42929   6.476  10.765   6.649  1.5932 -0.6653 -2.4925
  318MOL0     H42930   6.327  10.630   6.758  0.3685  4.5953 -1.8604
  319MOL0     O42931   5.598   7.520   2.461 -0.0873 -0.8267  0.6905
  319MOL0     C42932   5.637   7.621   2.391 -0.0673  0.5435  0.1500
  319MOL0     O42933   5.744   7.701   2.418  0.0662 -0.0270  1.0267
  319MOL0     C42934   5.814   7.710   2.534  0.3096  0.6332  0.0008
  319MOL0     C42935   5.934   7.783   2.519 -0.3477  0.5526  0.3472
  319MOL0     C42936   6.021   7.805   2.627  0.0704  0.0056  0.8719
  319MOL0     C42937   5.994   7.742   2.744  0.7208 -0.0648 -0.4363
  319MOL0     O42938   6.080   7.749   2.852 -0.6723  0.4542 -0.1221
  319MOL0     C42939   6.220   7.740   2.815  0.5829  0.1377 -0.4820
  319MOL0     C42940   6.313   7.743   2.945  0.2129 -1.0773  1.0879
  319MOL0     C42941   6.311   7.874   3.021  0.1052  0.0687 -0.4897
  319MOL0     C42942   6.389   7.868   3.153  1.1629  0.6885  0.3748
  319MOL0     C42943   6.507   7.967   3.149 -0.2519 -0.2579 -0.2922
  319MOL0     C42944   6.632   7.905   3.086  0.5931  0.4033 -0.4920
  319MOL0     C42945   6.725   8.012   3.008  1.0420 -1.1597  0.6418
  319MOL0     C42946   6.648   8.091   2.900  0.1207  0.0005 -0.6010
  319MOL0     N42947   6.585   8.000   2.804  0.1070 -0.6744 -0.0001
  319MOL0     C42948   6.641   7.887   2.746 -0.6582 -0.0466 -0.4397
  319MOL0     C42949   6.559   7.859   2.642  0.0695 -0.4958  0.4832
  319MOL0     C42950   6.593   7.759   2.536  0.1291 -0.1025  0.2764
  319MOL0     C42951   6.599   7.828   2.397  0.4524  0.9687 -0.1390
  319MOL0     C42952   6.475   7.905   2.337 -0.8607 -0.4274  0.5385
  319MOL0     C42953   6.341   7.816   2.324  0.3326  0.1375  0.2932
  319MOL0     O42954   6.231   7.899   2.290  0.7143  0.2000 -0.0947
  319MOL0     C42955   6.180   7.900   2.157 -0.3795  0.5039 -0.0045
  319MOL0     C42956   6.230   7.823   2.045 -0.3032 -0.4754  0.0648
  319MOL0     C42957   6.179   7.837   1.910 -1.1642 -0.3957  0.2398
  319MOL0     C42958   6.222   7.751   1.789 -0.1968  0.3411  0.4144
  319MOL0     C42959   6.074   7.930   1.883  0.1874  0.2481 -0.6412
  319MOL0     C42960   6.006   7.953   1.748 -0.0632  0.0897 -0.4289
  319MOL0     O42961   5.995   7.852   1.666 -0.1525  0.0310  1.0963
  319MOL0     C42962   5.945   7.864   1.537 -0.9206 -0.2745  0.2392
  319MOL0     C42963   5.810   7.868   1.506  0.2519  0.5955  1.3262
  319MOL0     C42964   5.758   7.867   1.380 -0.5121 -0.2512  0.5997
  319MOL0     C42965   5.852   7.864   1.274 -0.4787 -0.0373 -0.5215
  319MOL0     O42966   5.813   7.869   1.142  0.6678  0.6053  0.5027
  319MOL0     C42967   5.794   7.743   1.084  1.4255 -0.0865  0.2657
  319MOL0     C42968   5.649   7.685   1.101  0.1475  0.2209 -0.0437
  319MOL0     C42969   5.543   7.792   1.064  0.0073  0.3609  0.9438
  319MOL0     C42970   5.406   7.753   1.110  0.4942 -0.5044  0.2986
  319MOL0     C42971   5.294   7.837   1.048  0.4532  0.3699 -0.7234
  319MOL0     C42972   5.149   7.804   1.101 -0.3930 -0.0044  0.1281
  319MOL0     C42973   5.035   7.859   1.012 -0.5041 -0.3132 -0.1665
  319MOL0     C42974   4.916   7.773   1.001  0.1050  0.9116 -0.3432
  319MOL0    Cl42975   4.825   7.770   1.159 -0.4429 -0.1978 -0.4383
  319MOL0     C42976   5.989   7.852   1.300 -0.2084 -0.2969 -0.1929
  319MOL0     C42977   6.038   7.857   1.432 -0.8358 -0.1402  0.6384
  319MOL0     O42978   5.963   8.066   1.729 -0.3851  0.3426 -0.7243
  319MOL0     C42979   6.028   8.002   1.994 -0.1242 -0.1658  0.1823
  319MOL0     C42980   6.081   7.989   2.130  0.3072 -0.0804  0.1311
  319MOL0     N42981   6.455   7.948   2.644  0.6561 -0.6786 -0.1103
  319MOL0     N42982   6.475   8.042   2.734  0.1148 -0.7799  0.2658
  319MOL0     C42983   5.884   7.654   2.766 -1.2466 -0.1424  0.1259
  319MOL0     C42984   5.794   7.642   2.660  1.0212 -0.8032  0.8136
  319MOL0     C42985   5.561   7.666   2.270  0.7242  0.1153 -0.7080
  319MOL0     C42986   5.589   7.780   2.205 -0.7861 -0.4231 -1.4855
  319MOL0     C42987   5.516   7.810   2.090 -0.9738  0.3953 -0.1327
  319MOL0     C42988   5.434   7.717   2.025  0.8510 -0.2066 -0.2149
  319MOL0     O42989   5.369   7.734   1.908 -0.5637 -0.5537 -0.3425
  319MOL0     C42990   5.398   7.846   1.820 -0.0893  0.7377 -0.5235
  319MOL0     C42991   5.390   7.802   1.674 -0.0631  0.6743  0.3996
  319MOL0     C42992   5.486   7.680   1.643  0.1000 -0.9386  0.7457
  319MOL0     C42993   5.461   7.629   1.498  0.3951  0.0391 -0.8009
  319MOL0     C42994   5.324   7.602   1.464  0.1328  0.1974  0.2977
  319MOL0     C42995   5.206   7.591   1.427  0.2714 -0.2257  0.1373
  319MOL0     C42996   5.392   7.611   2.103 -0.3573  0.1840 -0.0130
  319MOL0     C42997   5.460   7.582   2.223  0.7685  0.4735 -0.4835
  319MOL0     H42998   5.948   7.839   2.427 -0.5113  0.6958  0.4091
  319MOL0     H42999   6.108   7.870   2.622 -0.6348  0.8875 -1.1337
  319MOL0     H43000   6.239   7.645   2.765 -1.8972 -0.3891 -0.5230
  319MOL0     H43001   6.258   7.825   2.757 -1.2908  1.7093  0.4498
  319MOL0     H43002   6.252   7.671   3.000 -3.3410  0.3806 -0.6638
  319MOL0     H43003   6.415   7.703   2.940  0.3387 -0.6280 -0.8020
  319MOL0     H43004   6.345   7.955   2.956 -3.6059  1.3157 -1.0787
  319MOL0     H43005   6.204   7.891   3.027  0.1133  0.0646 -0.3266
  319MOL0     H43006   6.315   7.906   3.224  1.0936  1.6291 -0.1839
  319MOL0     H43007   6.419   7.765   3.172 -0.4443 -0.3559 -2.2043
  319MOL0     H43008   6.491   8.059   3.093  0.5362  0.8293  1.2176
  319MOL0     H43009   6.536   8.001   3.248 -2.7146  1.1000  0.0428
  319MOL0     H43010   6.687   7.873   3.176 -1.5103  0.6336  0.9606
  319MOL0     H43011   6.614   7.823   3.017  4.3471 -0.3010 -0.8244
  319MOL0     H43012   6.783   8.080   3.071  1.8661 -0.7463 -0.5123
  319MOL0     H43013   6.800   7.953   2.954  4.1543  3.3601 -0.5428
  319MOL0     H43014   6.718   8.162   2.854 -0.9551  3.6150  2.7377
  319MOL0     H43015   6.572   8.155   2.947 -0.9935 -1.5771 -0.1893
  319MOL0     H43016   6.734   7.841   2.776  1.1686  3.0699 -0.8114
  319MOL0     H43017   6.681   7.703   2.569 -0.9090 -0.8763  1.8816
  319MOL0     H43018   6.513   7.684   2.540  2.8116 -3.1579  3.6084
  319MOL0     H43019   6.617   7.750   2.322  1.1966  0.1579  0.8684
  319MOL0     H43020   6.688   7.888   2.377  1.2878  0.2299  1.2092
  319MOL0     H43021   6.507   7.940   2.238  2.1598  1.5187  2.0188
  319MOL0     H43022   6.459   7.991   2.404  0.7881  0.8869 -0.6642
  319MOL0     H43023   6.304   7.773   2.418 -1.8186  1.3860  0.0875
  319MOL0     H43024   6.367   7.732   2.259 -0.8197  0.4805 -0.6387
  319MOL0     H43025   6.309   7.749   2.050 -1.6460 -1.8707  1.3610
  319MOL0     H43026   6.166   7.658   1.775  0.7340 -0.5136  2.0744
  319MOL0     H43027   6.226   7.799   1.691  1.6464 -0.1054  0.2451
  319MOL0     H43028   6.320   7.707   1.806 -1.6318 -2.2453  3.0814
  319MOL0     H43029   5.743   7.871   1.591  0.6403  1.5525  1.6153
  319MOL0     H43030   5.655   7.864   1.344 -0.9977  3.2760  1.2678
  319MOL0     H43031   5.813   7.761   0.978  0.7392 -3.1281 -0.4688
  319MOL0     H43032   5.868   7.671   1.118  1.5731  1.3846  3.4842
  319MOL0     H43033   5.629   7.587   1.056  2.6407 -0.5831  0.4285
  319MOL0     H43034   5.643   7.676   1.210  2.8651 -0.0068  0.1621
  319MOL0     H43035   5.544   7.792   0.955 -0.2912  2.0960  0.9133
  319MOL0     H43036   5.557   7.888   1.114 -2.8117  1.0648  0.5068
  319MOL0     H43037   5.391   7.645   1.106 -2.1800 -0.3778  3.1273
  319MOL0     H43038   5.399   7.777   1.217  3.2733  0.3952  0.3697
  319MOL0     H43039   5.299   7.811   0.941  0.8472 -2.7036 -0.0601
  319MOL0     H43040   5.309   7.942   1.071 -1.9890  0.1415  2.7136
  319MOL0     H43041   5.133   7.696   1.102 -2.0065  0.1968 -0.9861
  319MOL0     H43042   5.149   7.842   1.204  0.4190 -2.3785  1.0985
  319MOL0     H43043   5.069   7.857   0.908  0.0889  0.1368  0.0117
  319MOL0     H43044   5.013   7.963   1.038 -1.7911 -0.7714  0.6822
  319MOL0     H43045   4.950   7.672   0.975  0.7834  0.1825  2.9475
  319MOL0     H43046   4.855   7.806   0.917 -1.0251 -3.2354 -1.4042
  319MOL0     H43047   6.064   7.847   1.221 -2.5834  2.6839 -2.9245
  319MOL0     H43048   6.146   7.846   1.441 -0.2400  1.7657 -2.6181
  319MOL0     H43049   5.949   8.077   1.990  0.2892  0.2214 -1.0073
  319MOL0     H43050   6.042   8.054   2.209 -0.1670  0.5929 -0.6427
  319MOL0     H43051   5.868   7.599   2.858  0.2405 -0.5182  0.1860
  319MOL0     H43052   5.719   7.564   2.669 -2.3074  1.9683 -0.7938
  319MOL0     H43053   5.663   7.851   2.242 -0.9721  0.4578 -2.7389
  319MOL0     H43054   5.533   7.909   2.048  0.4979  0.2296  0.0148
  319MOL0     H43055   5.323   7.925   1.835 -2.5993 -1.6535  0.3629
  319MOL0     H43056   5.500   7.884   1.826  1.3452 -2.8214  0.0316
  319MOL0     H43057   5.418   7.892   1.619  0.9008 -0.0463 -0.3194
  319MOL0     H43058   5.290   7.766   1.647  1.6188 -4.6897  0.3334
  319MOL0     H43059   5.472   7.599   1.715  1.9882 -0.1286  2.1075
  319MOL0     H43060   5.592   7.708   1.646  0.4740 -1.1951 -3.4589
  319MOL0     H43061   5.515   7.535   1.486 -0.9717 -1.4984  3.2522
  319MOL0     H43062   5.507   7.703   1.433 -1.5526  1.3396 -0.7935
  319MOL0     H43063   5.109   7.594   1.382  0.5090  3.3241 -0.4273
  319MOL0     H43064   5.321   7.543   2.057 -0.8115  0.4968  0.2091
  319MOL0     H43065   5.433   7.489   2.272 -0.8621  1.8217  1.3232
  320MOL0     O43066   4.182   6.978   7.952 -0.0902  0.1292  0.6265
  320MOL0     C43067   4.160   6.898   7.858 -0.1969  0.2745  0.0873
  320MOL0     O43068   4.041   6.844   7.824 -0.0567  0.2334 -0.6130
  320MOL0     C43069   3.929   6.899   7.891 -0.5072  0.6810  0.0054
  320MOL0     C43070   3.825   6.949   7.820 -0.8711 -0.7171  0.3105
  320MOL0     C43071   3.705   6.999   7.883 -0.5167  0.4189  1.0418
  320MOL0     C43072   3.697   6.987   8.019  1.2687  0.6405 -0.5917
  320MOL0     O43073   3.580   7.014   8.091 -0.1171 -0.1667  0.0033
  320MOL0     C43074   3.530   7.134   8.045  0.4513  0.3157  0.2247
  320MOL0     C43075   3.473   7.209   8.168  0.4972  0.4683 -0.1509
  320MOL0     C43076   3.577   7.237   8.279 -0.7154 -1.4229 -0.5079
  320MOL0     C43077   3.582   7.125   8.381  0.1760 -0.2561  0.3006
  320MOL0     C43078   3.639   7.167   8.511 -0.2824  0.1275 -0.2587
  320MOL0     C43079   3.794   7.176   8.502 -1.1399  0.5139  0.8278
  320MOL0     C43080   3.866   7.232   8.625 -0.4548 -0.3845  0.9757
  320MOL0     C43081   4.021   7.240   8.595  0.2244  0.2020  0.4499
  320MOL0     N43082   4.077   7.110   8.552  0.2746  0.7880 -0.3315
  320MOL0     C43083   4.137   7.013   8.641  0.9800  0.4827 -0.3237
  320MOL0     C43084   4.177   6.915   8.562 -0.4447  1.0346  0.2729
  320MOL0     C43085   4.241   6.786   8.613 -0.0237 -0.7064  0.2985
  320MOL0     C43086   4.284   6.680   8.521  0.6740  0.6018 -0.0532
  320MOL0     C43087   4.407   6.699   8.436  0.4762  0.9916  0.2987
  320MOL0     C43088   4.411   6.811   8.341  0.4121  0.6606  0.4364
  320MOL0     O43089   4.538   6.819   8.278 -0.0372 -0.0074 -0.3149
  320MOL0     C43090   4.562   6.923   8.190 -0.6352  0.1378 -0.2825
  320MOL0     C43091   4.686   6.914   8.124  0.0282 -1.2454 -0.3358
  320MOL0     C43092   4.738   7.021   8.049 -0.9103  0.5190  0.6089
  320MOL0     C43093   4.867   7.002   7.969 -0.4260  0.1984 -0.6330
  320MOL0     C43094   4.657   7.136   8.017  0.1038  0.1174 -1.4128
  320MOL0     C43095   4.685   7.239   7.918  0.5184  0.1271  0.0428
  320MOL0     O43096   4.745   7.196   7.803 -0.7278 -0.1468 -1.8097
  320MOL0     C43097   4.764   7.296   7.705  0.0699 -0.4375  0.8536
  320MOL0     C43098   4.870   7.387   7.710  0.0246 -0.6498 -1.1977
  320MOL0     C43099   4.882   7.485   7.610 -0.0432 -0.2133  0.0524
  320MOL0     C43100   4.787   7.489   7.506  1.3519  0.1975 -0.2506
  320MOL0     O43101   4.787   7.577   7.399  0.3026 -0.0954  0.8201
  320MOL0     C43102   4.858   7.699   7.405  0.1415 -0.0599  0.4167
  320MOL0     C43103   4.860   7.751   7.259 -0.0662  0.6705 -0.2908
  320MOL0     C43104   4.952   7.875   7.264  0.7341  1.0453  0.5264
  320MOL0     C43105   4.943   7.948   7.129  0.0013  0.3054  0.3760
  320MOL0     C43106   5.004   8.081   7.172 -0.1102 -0.8342  0.7120
  320MOL0     C43107   5.001   8.183   7.066  0.1740  0.3682 -0.4083
  320MOL0     C43108   5.095   8.148   6.952  0.7679 -0.5247  0.2185
  320MOL0     C43109   5.171   8.274   6.889  0.3202 -0.4656  0.3942
  320MOL0    Cl43110   5.301   8.343   7.002 -0.4391 -0.3535 -0.0359
  320MOL0     C43111   4.685   7.393   7.502 -0.6730 -0.1825 -1.0170
  320MOL0     C43112   4.671   7.294   7.600  0.0811  0.2540  0.0143
  320MOL0     O43113   4.655   7.359   7.936  0.8194 -0.0617  1.1703
  320MOL0     C43114   4.533   7.145   8.089  1.0023  0.0829  0.0686
  320MOL0     C43115   4.491   7.039   8.175  0.2426  0.3737 -0.3700
  320MOL0     N43116   4.161   6.949   8.433  1.0822 -0.7115  0.1643
  320MOL0     N43117   4.098   7.061   8.429  0.6664 -0.2574  0.7907
  320MOL0     C43118   3.801   6.939   8.091  0.2036 -0.8922 -0.4623
  320MOL0     C43119   3.913   6.884   8.029  0.0375  0.7412 -0.0426
  320MOL0     C43120   4.267   6.882   7.754 -0.1521 -0.4165  0.6122
  320MOL0     C43121   4.237   6.829   7.627 -0.9710 -0.3020  0.4199
  320MOL0     C43122   4.339   6.826   7.523 -0.0071 -0.3587 -0.5031
  320MOL0     C43123   4.462   6.879   7.549  0.2962  0.4665  0.0721
  320MOL0     O43124   4.545   6.881   7.441 -0.1414  0.0424  0.1016
  320MOL0     C43125   4.679   6.925   7.448 -0.5151  0.2283 -0.2180
  320MOL0     C43126   4.758   6.901   7.321 -0.2057 -0.1370 -0.2150
  320MOL0     C43127   4.798   6.755   7.296 -0.1632 -0.7409  0.4705
  320MOL0     C43128   4.890   6.722   7.180 -0.4652 -0.2628 -0.0111
  320MOL0     C43129   4.825   6.757   7.043  0.0825  0.7246 -1.3085
  320MOL0     C43130   4.778   6.776   6.935 -0.4106  0.4483 -0.6994
  320MOL0     C43131   4.496   6.928   7.675 -0.0191  0.2796 -0.0481
  320MOL0     C43132   4.394   6.927   7.775 -0.4884  0.0247  0.9341
  320MOL0     H43133   3.857   6.934   7.717  2.1580  2.0406  0.6894
  320MOL0     H43134   3.615   7.035   7.835  0.1295  0.4693 -0.1623
  320MOL0     H43135   3.604   7.198   7.996  1.0558 -0.2574  0.3672
  320MOL0     H43136   3.445   7.107   7.982  2.4449 -1.8780 -1.7233
  320MOL0     H43137   3.432   7.305   8.134 -0.1834  0.3584  0.3270
  320MOL0     H43138   3.397   7.144   8.214  2.9387 -1.7393  1.0218
  320MOL0     H43139   3.675   7.272   8.245 -0.9810  0.5339  0.6015
  320MOL0     H43140   3.562   7.334   8.328 -0.2422 -1.1398 -0.8994
  320MOL0     H43141   3.484   7.087   8.411 -0.5967  0.2148 -1.5156
  320MOL0     H43142   3.642   7.043   8.341 -1.1894  0.0251 -2.5026
  320MOL0     H43143   3.585   7.258   8.539 -2.1555 -0.7175 -0.9891
  320MOL0     H43144   3.608   7.085   8.576  0.0174 -2.2903 -2.9796
  320MOL0     H43145   3.837   7.077   8.480  0.1573  1.0279  0.9660
  320MOL0     H43146   3.819   7.247   8.424 -1.4089  1.3293  1.4695
  320MOL0     H43147   3.821   7.330   8.634 -2.2698 -0.4589 -3.9812
  320MOL0     H43148   3.851   7.172   8.716 -1.1842 -0.9428  0.5022
  320MOL0     H43149   4.072   7.289   8.679 -1.5879  2.1890  0.5032
  320MOL0     H43150   4.037   7.303   8.507  1.3102 -1.9891 -1.0040
  320MOL0     H43151   4.148   7.016   8.749  0.9079  1.2786 -0.3317
  320MOL0     H43152   4.336   6.804   8.664  0.2304  0.1449 -0.4358
  320MOL0     H43153   4.179   6.742   8.691 -0.6424 -1.1471 -0.4225
  320MOL0     H43154   4.201   6.654   8.455  0.0200  2.4500 -0.0329
  320MOL0     H43155   4.305   6.593   8.583 -0.5062  0.4277  0.1135
  320MOL0     H43156   4.434   6.608   8.382 -1.2084  0.0058  1.0786
  320MOL0     H43157   4.493   6.705   8.504  1.8251 -0.8862 -1.1532
  320MOL0     H43158   4.390   6.909   8.386  0.1642  0.3144  1.0890
  320MOL0     H43159   4.336   6.787   8.265  1.3796  3.4199 -1.5691
  320MOL0     H43160   4.762   6.840   8.147 -0.0608 -1.5082 -0.8856
  320MOL0     H43161   4.928   6.920   8.010  0.6179  1.4411  0.3913
  320MOL0     H43162   4.844   6.994   7.863  1.0248  1.4486 -1.0794
  320MOL0     H43163   4.934   7.087   7.983 -1.2281  0.6144  0.9523
  320MOL0     H43164   4.947   7.378   7.786 -0.8150  1.1761 -0.0698
  320MOL0     H43165   4.975   7.541   7.599  0.1768 -0.5577  0.1775
  320MOL0     H43166   4.802   7.774   7.463 -0.2132  0.1555 -0.1997
  320MOL0     H43167   4.964   7.693   7.432  1.3041  3.6837 -2.4527
  320MOL0     H43168   4.899   7.674   7.191  0.3267 -1.0077  1.7241
  320MOL0     H43169   4.754   7.768   7.238 -0.9596  0.3141  3.3109
  320MOL0     H43170   5.058   7.847   7.268  0.6739  0.9684  2.2114
  320MOL0     H43171   4.908   7.925   7.351 -1.6898 -0.3544  0.2130
  320MOL0     H43172   5.003   7.902   7.050 -0.3445 -3.1334  1.9024
  320MOL0     H43173   4.841   7.952   7.092 -1.1899 -0.6793  3.2238
  320MOL0     H43174   5.104   8.068   7.216 -0.8236 -2.3791  1.9923
  320MOL0     H43175   4.939   8.121   7.250 -0.6026 -1.9653  0.9040
  320MOL0     H43176   4.899   8.204   7.032 -0.4113  2.4250  2.2474
  320MOL0     H43177   5.031   8.279   7.111  3.7319 -0.5691 -0.5117
  320MOL0     H43178   5.044   8.094   6.872 -1.9417 -2.1247  2.8405
  320MOL0     H43179   5.175   8.077   6.976  0.7541 -1.4028 -2.0884
  320MOL0     H43180   5.091   8.348   6.878  0.1863 -0.4411  1.4168
  320MOL0     H43181   5.216   8.267   6.790 -0.6879 -0.4246 -0.0828
  320MOL0     H43182   4.612   7.393   7.421 -1.2144 -0.1207 -0.5379
  320MOL0     H43183   4.590   7.222   7.609 -0.8938  0.8638 -2.7873
  320MOL0     H43184   4.465   7.225   8.063 -0.5339 -1.0605  0.4391
  320MOL0     H43185   4.395   7.044   8.225 -0.5820 -0.4108 -1.7742
  320MOL0     H43186   3.825   6.950   8.197  0.9921  0.5619 -0.7702
  320MOL0     H43187   3.988   6.843   8.096 -1.7122 -0.0616  1.5424
  320MOL0     H43188   4.150   6.764   7.620  0.5209 -2.3390 -6.1162
  320MOL0     H43189   4.319   6.809   7.418 -0.1862  0.9167 -0.6910
  320MOL0     H43190   4.690   7.027   7.485  0.0915 -0.2598  0.9943
  320MOL0     H43191   4.732   6.866   7.523 -0.5193 -1.1452 -1.2519
  320MOL0     H43192   4.845   6.966   7.327  0.7249 -1.2865 -0.8337
  320MOL0     H43193   4.695   6.929   7.236  1.6910  0.2937 -1.5377
  320MOL0     H43194   4.700   6.709   7.277  0.2063 -2.1370  1.7887
  320MOL0     H43195   4.832   6.716   7.392  1.5551  0.3803  0.3603
  320MOL0     H43196   4.908   6.616   7.196 -0.1730 -0.2258 -0.0872
  320MOL0     H43197   4.983   6.779   7.191  0.3467 -1.7033  0.8584
  320MOL0     H43198   4.721   6.784   6.845 -2.2076  0.2394  0.3773
  320MOL0     H43199   4.591   6.973   7.703  0.0056 -0.7726  1.6723
  320MOL0     H43200   4.414   6.956   7.878 -0.2588 -3.0765  1.8767
  321MOL0     O43201   9.442   3.981   4.833  0.8422  0.2025  0.1050
  321MOL0     C43202   9.441   4.039   4.725 -0.1084 -0.0265  1.3552
  321MOL0     O43203   9.344   4.129   4.701  0.6519  1.2732 -0.1330
  321MOL0     C43204   9.244   4.142   4.792  0.3973  0.3262 -0.4120
  321MOL0     C43205   9.113   4.103   4.759 -0.5551  0.8154  0.0827
  321MOL0     C43206   9.009   4.119   4.843 -0.6239 -0.0326 -0.4265
  321MOL0     C43207   9.027   4.203   4.957  0.4124 -0.4612 -0.3453
  321MOL0     O43208   8.930   4.237   5.048 -0.2815 -0.0637  0.0722
  321MOL0     C43209   8.797   4.256   4.993  0.7963 -0.1973 -0.4172
  321MOL0     C43210   8.717   4.353   5.077  0.9414  0.6580  0.2741
  321MOL0     C43211   8.573   4.384   5.020  0.2035  0.4442 -0.3754
  321MOL0     C43212   8.583   4.481   4.895  0.5148 -0.5309 -0.4034
  321MOL0     C43213   8.440   4.491   4.830 -1.0311  0.7493  0.3129
  321MOL0     C43214   8.460   4.549   4.693  0.2520  0.6778  0.3451
  321MOL0     C43215   8.323   4.550   4.615  0.1113  0.5567 -0.4071
  321MOL0     C43216   8.204   4.607   4.694  0.0725  0.0463 -0.3939
  321MOL0     N43217   8.144   4.517   4.789  0.0770  0.4550  0.1650
  321MOL0     C43218   8.122   4.554   4.913  0.7120  0.3256 -0.3616
  321MOL0     C43219   8.033   4.460   4.955  0.3331  0.1966  0.1029
  321MOL0     C43220   7.973   4.456   5.091  0.2088  0.5767 -0.3294
  321MOL0     C43221   7.965   4.312   5.157  0.0159 -0.2064  0.6860
  321MOL0     C43222   7.857   4.227   5.094  0.0703  0.5222 -0.1368
  321MOL0     C43223   7.805   4.121   5.196  0.5361  0.3307  0.7173
  321MOL0     O43224   7.776   4.168   5.334  0.1374 -0.1059  0.4251
  321MOL0     C43225   7.676   4.256   5.349  0.3329 -0.4705  0.4716
  321MOL0     C43226   7.544   4.234   5.299  0.4644 -0.3138 -0.0785
  321MOL0     C43227   7.436   4.319   5.333  0.4438  0.0349  0.4966
  321MOL0     C43228   7.286   4.284   5.295 -0.2533  0.0770  0.0702
  321MOL0     C43229   7.469   4.440   5.388 -0.7607 -0.2109 -0.0266
  321MOL0     C43230   7.370   4.550   5.405 -0.4980  0.0050  0.4879
  321MOL0     O43231   7.396   4.646   5.506 -0.5967  0.8888  0.5524
  321MOL0     C43232   7.322   4.753   5.526 -0.4095  0.5205  0.0918
  321MOL0     C43233   7.244   4.749   5.643  0.7059  0.3425 -0.0856
  321MOL0     C43234   7.178   4.857   5.683  0.2483 -0.5324 -1.0746
  321MOL0     C43235   7.181   4.975   5.611  0.2837 -0.8708  0.0864
  321MOL0     O43236   7.101   5.084   5.636  0.7272 -0.1859 -0.3143
  321MOL0     C43237   6.967   5.037   5.621  0.2049  0.0741 -0.4595
  321MOL0     C43238   6.866   5.109   5.718 -0.0440 -0.4739 -0.2386
  321MOL0     C43239   6.912   5.107   5.862 -1.2733  0.4716  0.1368
  321MOL0     C43240   6.792   5.127   5.957 -0.5883  0.4455  0.9074
  321MOL0     C43241   6.829   5.092   6.095  0.3363  0.4077  0.0031
  321MOL0     C43242   6.708   5.111   6.186 -0.5469 -0.0460  0.1454
  321MOL0     C43243   6.641   5.241   6.190  0.1876  0.9247 -0.3371
  321MOL0     C43244   6.556   5.268   6.321 -0.5930 -0.0701 -0.6117
  321MOL0    Cl43245   6.461   5.117   6.354  0.4919 -0.4656 -0.0104
  321MOL0     C43246   7.246   4.984   5.487 -1.4069 -0.0326 -0.1032
  321MOL0     C43247   7.325   4.868   5.455 -0.0308  0.1481  1.1307
  321MOL0     O43248   7.277   4.563   5.324 -0.2195  0.1685  0.3103
  321MOL0     C43249   7.600   4.465   5.442 -0.1163  0.2305  0.0872
  321MOL0     C43250   7.697   4.373   5.423 -0.2277  1.1042 -0.0164
  321MOL0     N43251   8.008   4.375   4.849  0.3456 -0.0009  1.0214
  321MOL0     N43252   8.076   4.417   4.747 -0.1372  0.1842 -0.2426
  321MOL0     C43253   9.157   4.246   4.988  0.6387  0.9680  0.3485
  321MOL0     C43254   9.265   4.210   4.911 -0.2632 -0.2944  0.0506
  321MOL0     C43255   9.538   3.991   4.619 -0.1145  0.2550 -0.4033
  321MOL0     C43256   9.504   4.004   4.476 -0.1056 -0.0597  0.1113
  321MOL0     C43257   9.579   3.939   4.385 -0.2460  0.9205  0.2140
  321MOL0     C43258   9.688   3.858   4.431 -0.0190 -0.8702  0.4573
  321MOL0     O43259   9.758   3.774   4.343 -0.0629 -1.0805 -0.2524
  321MOL0     C43260   9.824   3.652   4.395 -0.4159  0.2905  0.2180
  321MOL0     C43261   9.834   3.551   4.279  0.4194  0.0252  0.4142
  321MOL0     C43262   9.906   3.620   4.166 -1.3137 -1.1766  0.1719
  321MOL0     C43263   9.905   3.538   4.047 -0.1691 -0.6909 -0.0798
  321MOL0     C43264   9.969   3.413   4.051 -0.6772 -0.2860  0.9804
  321MOL0     C43265  10.041   3.314   4.065 -0.5016 -0.5753  0.2486
  321MOL0     C43266   9.727   3.863   4.561 -0.8984 -0.1394  0.7587
  321MOL0     C43267   9.657   3.927   4.657  0.6690 -0.1132 -0.6423
  321MOL0     H43268   9.091   4.052   4.666  0.1262  2.5127 -1.0577
  321MOL0     H43269   8.909   4.081   4.825 -2.3503  3.9831 -0.4630
  321MOL0     H43270   8.802   4.287   4.889  2.7026 -0.9198 -0.5968
  321MOL0     H43271   8.753   4.156   4.985  1.4643 -0.4919 -0.5200
  321MOL0     H43272   8.698   4.299   5.170 -3.5125 -1.1132 -1.3719
  321MOL0     H43273   8.760   4.453   5.084 -0.8762  1.3664  2.7416
  321MOL0     H43274   8.526   4.288   4.996 -2.3785  1.2126  1.3133
  321MOL0     H43275   8.501   4.426   5.091 -4.3005 -2.1017 -2.9788
  321MOL0     H43276   8.621   4.582   4.912 -3.2057  0.7364  1.5556
  321MOL0     H43277   8.658   4.430   4.834  1.6263 -0.7535  1.1034
  321MOL0     H43278   8.394   4.392   4.823 -2.3634  1.2744  1.2337
  321MOL0     H43279   8.371   4.554   4.886 -3.2587 -1.1464 -0.1113
  321MOL0     H43280   8.504   4.648   4.709  0.6649  0.5809 -0.1631
  321MOL0     H43281   8.533   4.489   4.638 -0.2503 -0.3189  0.7520
  321MOL0     H43282   8.348   4.608   4.526 -0.3385  0.8654 -0.3351
  321MOL0     H43283   8.294   4.452   4.576  0.1631 -0.0102  0.9044
  321MOL0     H43284   8.125   4.634   4.624 -2.6581 -0.5486  2.2211
  321MOL0     H43285   8.225   4.707   4.733  1.8126 -0.3299 -0.2837
  321MOL0     H43286   8.173   4.632   4.968  2.1356  1.3446 -2.9205
  321MOL0     H43287   8.028   4.501   5.174 -2.5591  1.6746  1.0610
  321MOL0     H43288   7.882   4.517   5.085 -0.0243  0.1517 -1.3088
  321MOL0     H43289   7.953   4.321   5.266  2.3528  0.1829  0.9489
  321MOL0     H43290   8.062   4.268   5.138  0.1426  0.7937 -1.2031
  321MOL0     H43291   7.903   4.185   5.004  0.8930  2.8377 -0.8702
  321MOL0     H43292   7.770   4.290   5.072 -0.9316  0.7119  3.6986
  321MOL0     H43293   7.882   4.043   5.200 -0.4858 -0.6783  1.4023
  321MOL0     H43294   7.725   4.075   5.137  1.0600  2.9866 -2.3152
  321MOL0     H43295   7.536   4.147   5.235  0.9594  0.2987 -1.0028
  321MOL0     H43296   7.218   4.317   5.374 -1.4656  2.8799 -2.0152
  321MOL0     H43297   7.266   4.341   5.204  0.2265 -3.7477 -2.7097
  321MOL0     H43298   7.282   4.177   5.274  2.5259  0.0077 -0.4847
  321MOL0     H43299   7.245   4.662   5.707  0.9904  2.3417  2.7819
  321MOL0     H43300   7.122   4.840   5.774  4.3773 -1.7421  1.5364
  321MOL0     H43301   6.922   5.048   5.522  1.9264 -0.9949 -1.4102
  321MOL0     H43302   6.959   4.929   5.633  0.3425  0.0414 -0.6715
  321MOL0     H43303   6.845   5.206   5.674 -0.8869 -0.1339  0.8436
  321MOL0     H43304   6.773   5.052   5.708  0.5275 -1.5625  0.4445
  321MOL0     H43305   6.982   5.190   5.879 -1.1467 -0.1599  3.4310
  321MOL0     H43306   6.956   5.009   5.881 -3.1147 -0.3620  0.3386
  321MOL0     H43307   6.764   5.230   5.935  1.8933  0.9992  0.0139
  321MOL0     H43308   6.728   5.046   5.921 -0.1399 -0.1394  1.4013
  321MOL0     H43309   6.909   5.163   6.120  2.1775 -1.2422 -0.9377
  321MOL0     H43310   6.869   4.991   6.102  1.2174  0.8041  1.0857
  321MOL0     H43311   6.634   5.035   6.158  0.9020 -2.1077  1.5585
  321MOL0     H43312   6.733   5.083   6.289  2.1209  2.6035  0.3553
  321MOL0     H43313   6.573   5.263   6.108 -2.1450 -0.8086  0.9968
  321MOL0     H43314   6.722   5.314   6.185  3.2034 -2.2605 -2.3436
  321MOL0     H43315   6.490   5.353   6.301 -1.6374 -0.1316  2.1416
  321MOL0     H43316   6.625   5.287   6.404 -1.8195  2.2608 -0.0584
  321MOL0     H43317   7.236   5.077   5.433 -0.6168  1.3189  1.9383
  321MOL0     H43318   7.368   4.863   5.355 -0.4668  2.4025  0.7770
  321MOL0     H43319   7.632   4.557   5.491  0.4894 -1.2994  2.7113
  321MOL0     H43320   7.794   4.373   5.470  0.5449 -4.6811 -0.8886
  321MOL0     H43321   9.180   4.296   5.082  0.9335  1.4227  0.0385
  321MOL0     H43322   9.366   4.235   4.940  0.3070 -0.2063 -1.8386
  321MOL0     H43323   9.418   4.054   4.435 -0.1769  0.9928  1.4617
  321MOL0     H43324   9.560   3.923   4.279  0.2453  1.5051  0.0336
  321MOL0     H43325   9.917   3.675   4.449 -0.5794  2.4086 -0.3263
  321MOL0     H43326   9.771   3.604   4.477  1.1147  0.9009  1.6203
  321MOL0     H43327   9.735   3.529   4.238  0.6722  0.7459 -0.6246
  321MOL0     H43328   9.900   3.466   4.298  2.1786  0.5432 -2.7398
  321MOL0     H43329  10.008   3.636   4.201 -2.2803  0.2963  2.5357
  321MOL0     H43330   9.865   3.717   4.139  1.4280  0.3044  0.9204
  321MOL0     H43331   9.965   3.591   3.972  0.3814 -0.4316  0.5380
  321MOL0     H43332   9.801   3.535   4.012  0.2740 -0.6774 -1.4832
  321MOL0     H43333  10.109   3.231   4.073  1.1257  0.8014  1.1826
  321MOL0     H43334   9.824   3.825   4.592  1.4322  2.8872 -2.0694
  321MOL0     H43335   9.681   3.916   4.762 -0.0822 -1.9117 -0.6376
  322MOL0     O43336   0.638   2.182   1.741 -0.9404  0.2497  0.2737
  322MOL0     C43337   0.551   2.094   1.744 -0.2023 -0.1606 -0.0257
  322MOL0     O43338   0.488   2.044   1.639 -0.0797  0.3436  0.3469
  322MOL0     C43339   0.522   2.096   1.514  0.2328 -0.4553 -0.3083
  322MOL0     C43340   0.624   2.039   1.444  0.0316  1.0331 -0.0053
  322MOL0     C43341   0.665   2.086   1.313  0.0494  0.9668 -0.5074
  322MOL0     C43342   0.607   2.191   1.253  0.9540 -0.3582  0.1364
  322MOL0     O43343   0.650   2.229   1.131 -0.1756 -0.4216 -0.3071
  322MOL0     C43344   0.570   2.294   1.031  0.1423 -0.2963  0.5481
  322MOL0     C43345   0.583   2.447   1.044  0.3122  0.1835  0.1484
  322MOL0     C43346   0.726   2.490   1.027 -0.6809 -0.7122 -0.4486
  322MOL0     C43347   0.775   2.620   1.096 -0.6728  0.5295 -0.6999
  322MOL0     C43348   0.891   2.678   1.018  0.4855  0.2061 -0.4147
  322MOL0     C43349   0.959   2.787   1.104  0.7032  0.5493 -0.8808
  322MOL0     C43350   1.094   2.820   1.047 -0.1487  0.4921 -0.1608
  322MOL0     C43351   1.085   2.925   0.939  0.1541 -1.1012  0.0378
  322MOL0     N43352   1.049   2.872   0.807  0.5408 -0.0527 -0.1426
  322MOL0     C43353   1.133   2.830   0.710 -0.3142  0.2374  0.8415
  322MOL0     C43354   1.059   2.824   0.594  0.2732  0.1144 -0.9891
  322MOL0     C43355   1.112   2.788   0.464 -0.4131  0.1114 -0.2313
  322MOL0     C43356   1.139   2.928   0.394 -0.6581 -0.4857 -0.2545
  322MOL0     C43357   1.179   2.907   0.241 -0.2353  0.8025 -0.4850
  322MOL0     C43358   1.259   2.777   0.215  0.4499 -0.2541 -0.3554
  322MOL0     O43359   1.330   2.808   0.097  0.5326  0.2567  0.0019
  322MOL0     C43360   1.396   2.699   0.044  0.2808  0.6671  0.6490
  322MOL0     C43361   1.442   2.707  -0.091 -0.6857  1.1181 -0.3302
  322MOL0     C43362   1.501   2.596  -0.156 -0.6562 -0.4596 -0.3310
  322MOL0     C43363   1.562   2.608  -0.302 -0.2184 -0.5477  0.6170
  322MOL0     C43364   1.531   2.481  -0.072  0.4893  0.1694 -0.3662
  322MOL0     C43365   1.621   2.368  -0.114  0.3090 -0.2606  0.0906
  322MOL0     O43366   1.624   2.331  -0.245 -0.7607  0.5917 -0.7585
  322MOL0     C43367   1.724   2.242  -0.274 -0.6393  0.8453 -0.1916
  322MOL0     C43368   1.726   2.100  -0.243  0.3603  0.3563  0.0228
  322MOL0     C43369   1.826   2.013  -0.280 -0.1713  0.5280  0.2089
  322MOL0     C43370   1.938   2.068  -0.340  0.1434 -0.0661 -0.0794
  322MOL0     O43371   2.054   2.005  -0.386  0.8239  0.1371 -0.4944
  322MOL0     C43372   2.055   1.860  -0.376  0.0359  0.2854  0.6476
  322MOL0     C43373   2.173   1.802  -0.462 -0.4138 -0.4854  0.0145
  322MOL0     C43374   2.313   1.848  -0.425  0.7228 -0.0917  0.5982
  322MOL0     C43375   2.392   1.905  -0.547 -0.5759 -0.2700  0.8344
  322MOL0     C43376   2.341   2.040  -0.597 -1.1524  0.2629  0.2794
  322MOL0     C43377   2.419   2.102  -0.714 -0.1787  0.2544 -0.0568
  322MOL0     C43378   2.377   2.247  -0.748  0.5600  0.6236 -0.0787
  322MOL0     C43379   2.355   2.349  -0.636 -0.1816 -0.3500 -0.0888
  322MOL0    Cl43380   2.191   2.326  -0.584  0.0359  0.1360 -0.2458
  322MOL0     C43381   1.953   2.217  -0.356  0.4633  1.1023 -0.2209
  322MOL0     C43382   1.839   2.292  -0.331  0.0190  0.4967  0.3112
  322MOL0     O43383   1.689   2.327  -0.027  0.4529  0.7639 -0.3671
  322MOL0     C43384   1.487   2.479   0.062 -0.4541  0.9479 -0.2729
  322MOL0     C43385   1.423   2.584   0.118  1.1696  0.1430 -0.2985
  322MOL0     N43386   0.932   2.873   0.625  0.5716 -0.4107  0.1857
  322MOL0     N43387   0.936   2.902   0.747 -0.0299  0.1675 -0.7939
  322MOL0     C43388   0.497   2.252   1.319 -0.0909  0.3388  1.5427
  322MOL0     C43389   0.461   2.200   1.444  0.1466  0.0846 -0.0554
  322MOL0     C43390   0.507   2.032   1.879 -0.6931 -0.2426  0.5801
  322MOL0     C43391   0.425   1.923   1.881 -0.5736 -0.3799 -0.2369
  322MOL0     C43392   0.378   1.874   2.006 -0.6772  0.9099  0.2806
  322MOL0     C43393   0.435   1.915   2.126  0.4248 -0.7333  0.2303
  322MOL0     O43394   0.416   1.854   2.244  0.6992  0.7249 -0.9240
  322MOL0     C43395   0.278   1.805   2.262  1.0663 -0.5953  0.9033
  322MOL0     C43396   0.213   1.872   2.373 -0.4579 -0.2957 -0.8582
  322MOL0     C43397   0.185   2.022   2.343 -0.5481  0.2479 -0.6101
  322MOL0     C43398   0.087   2.081   2.441  0.5286 -0.1542 -0.4995
  322MOL0     C43399   0.162   2.137   2.563  0.2340  0.5045  0.7380
  322MOL0     C43400   0.242   2.181   2.648 -0.0866 -0.4277 -0.6415
  322MOL0     C43401   0.518   2.030   2.122  0.1363  1.2402 -0.7864
  322MOL0     C43402   0.558   2.092   1.998  0.1376 -0.1549 -0.3983
  322MOL0     H43403   0.676   1.959   1.496  0.4680  1.6073  0.4434
  322MOL0     H43404   0.749   2.040   1.262 -1.1856  0.3303 -2.0198
  322MOL0     H43405   0.604   2.256   0.935 -0.9817 -1.1904  0.4833
  322MOL0     H43406   0.467   2.259   1.040 -0.7869  2.7591  4.3543
  322MOL0     H43407   0.515   2.484   0.968 -0.5381 -2.9404 -0.7719
  322MOL0     H43408   0.544   2.480   1.140  2.2557 -1.3796  1.5648
  322MOL0     H43409   0.810   2.426   1.057  0.5315  1.4909  1.1490
  322MOL0     H43410   0.731   2.497   0.918 -0.6291 -1.2547 -0.4835
  322MOL0     H43411   0.696   2.696   1.097  0.3680  1.6410  0.3180
  322MOL0     H43412   0.800   2.587   1.197 -0.0267 -2.5178 -1.7565
  322MOL0     H43413   0.970   2.604   1.002  1.1132  0.8634 -0.4101
  322MOL0     H43414   0.865   2.721   0.921 -1.7843 -1.8857 -0.8320
  322MOL0     H43415   0.900   2.878   1.095  2.3975  1.5904 -2.0248
  322MOL0     H43416   0.979   2.764   1.210 -0.1667  0.8107 -0.6572
  322MOL0     H43417   1.144   2.855   1.138  0.8450  0.1484 -0.5580
  322MOL0     H43418   1.135   2.726   1.008 -1.1099  0.3825 -0.9364
  322MOL0     H43419   1.176   2.985   0.936 -2.1060  2.6291 -1.0812
  322MOL0     H43420   1.002   2.994   0.959  2.0225  0.5583  2.6424
  322MOL0     H43421   1.241   2.823   0.722 -0.5658 -0.0088  3.5356
  322MOL0     H43422   1.202   2.728   0.480  0.0982  0.7420 -0.6767
  322MOL0     H43423   1.045   2.735   0.396  1.3528 -0.8428 -1.2987
  322MOL0     H43424   1.229   2.966   0.443  0.1227 -1.0678 -1.2018
  322MOL0     H43425   1.062   3.006   0.394 -0.1660  0.0097  0.3094
  322MOL0     H43426   1.254   2.985   0.226  1.8337 -0.9700  0.1434
  322MOL0     H43427   1.102   2.920   0.164  2.6348  1.0813 -3.5111
  322MOL0     H43428   1.201   2.685   0.207  2.1254 -1.4570  0.6160
  322MOL0     H43429   1.334   2.756   0.291  3.4684 -0.3994 -3.1523
  322MOL0     H43430   1.409   2.793  -0.149 -1.6960  0.0637 -1.3687
  322MOL0     H43431   1.662   2.564  -0.309  0.1676  0.3769  0.1692
  322MOL0     H43432   1.507   2.552  -0.378  0.1617 -0.7138  0.4584
  322MOL0     H43433   1.569   2.707  -0.347 -0.2259 -1.1436 -0.7680
  322MOL0     H43434   1.631   2.081  -0.195 -0.9406  1.2688 -2.0179
  322MOL0     H43435   1.810   1.907  -0.261  0.7837  0.6538  1.8870
  322MOL0     H43436   2.062   1.822  -0.274  2.0194 -1.5090 -0.0714
  322MOL0     H43437   1.965   1.818  -0.421 -0.1096  0.1267  1.0853
  322MOL0     H43438   2.172   1.692  -0.465 -0.7875 -0.4716 -0.5342
  322MOL0     H43439   2.147   1.826  -0.566 -3.5238  2.5369  1.3104
  322MOL0     H43440   2.361   1.759  -0.384 -1.4130 -0.4252  2.5394
  322MOL0     H43441   2.299   1.927  -0.351 -0.9028 -0.5362  0.8097
  322MOL0     H43442   2.497   1.916  -0.522 -0.8729  1.1041  1.5750
  322MOL0     H43443   2.379   1.830  -0.626 -2.5401  1.4984 -0.6540
  322MOL0     H43444   2.340   2.105  -0.510 -0.6883 -0.8025  1.1113
  322MOL0     H43445   2.238   2.043  -0.633 -2.8681 -0.8196  4.5429
  322MOL0     H43446   2.526   2.092  -0.695 -0.0797  0.2996 -0.5800
  322MOL0     H43447   2.408   2.037  -0.801 -0.3837 -5.5902  3.7410
  322MOL0     H43448   2.280   2.244  -0.798  0.3150 -1.2880  0.4324
  322MOL0     H43449   2.451   2.286  -0.819 -0.3244  2.7190  0.0565
  322MOL0     H43450   2.368   2.447  -0.682  3.1277 -1.9161 -2.9195
  322MOL0     H43451   2.427   2.338  -0.554  1.1306  3.1239 -0.6423
  322MOL0     H43452   2.040   2.257  -0.408  0.6317  1.6223  0.4488
  322MOL0     H43453   1.837   2.400  -0.345 -1.5486  0.2528 -1.7226
  322MOL0     H43454   1.508   2.390   0.121  0.3164 -0.2073 -2.2058
  322MOL0     H43455   1.400   2.563   0.222 -0.4654 -2.8021 -1.1595
  322MOL0     H43456   0.436   2.331   1.276 -0.0073 -0.4006 -0.0428
  322MOL0     H43457   0.365   2.223   1.489 -0.8721 -2.8321 -0.5196
  322MOL0     H43458   0.385   1.891   1.785  0.0570 -1.1388 -0.2551
  322MOL0     H43459   0.316   1.785   2.002  0.3629 -0.0037  2.8695
  322MOL0     H43460   0.213   1.810   2.174  1.4742 -1.0122  0.5731
  322MOL0     H43461   0.275   1.699   2.287 -1.2392 -0.9424 -0.6112
  322MOL0     H43462   0.267   1.861   2.468 -1.3936  2.9268  0.1942
  322MOL0     H43463   0.111   1.833   2.376 -0.1479 -1.4450 -3.0820
  322MOL0     H43464   0.145   2.035   2.242 -1.6589  2.4113  0.0400
  322MOL0     H43465   0.279   2.076   2.331 -1.1678  1.2087 -1.3106
  322MOL0     H43466   0.016   2.003   2.472  0.5525  0.5765  1.5347
  322MOL0     H43467   0.030   2.165   2.401 -1.6177 -0.0786  2.3272
  322MOL0     H43468   0.309   2.207   2.728 -1.2808 -0.9897  0.5876
  322MOL0     H43469   0.559   2.061   2.217 -1.2458  1.1604 -0.1410
  322MOL0     H43470   0.635   2.168   1.993 -0.4837  0.5760  0.6769
  323MOL0     O43471   7.064  10.210   6.030  0.3820  0.7635  0.8882
  323MOL0     C43472   7.089  10.319   5.981 -0.2284  0.1455  0.8592
  323MOL0     O43473   7.030  10.435   6.005  0.4833 -0.1328  0.3029
  323MOL0     C43474   6.909  10.426   6.071  0.6220  0.5951  0.0230
  323MOL0     C43475   6.792  10.462   5.990  0.0301  0.7658  0.6748
  323MOL0     C43476   6.667  10.461   6.050 -0.2556  0.0975 -0.4467
  323MOL0     C43477   6.651  10.431   6.187  0.5880  1.1275 -0.0943
  323MOL0     O43478   6.520  10.419   6.238 -0.3515  0.3347  0.9793
  323MOL0     C43479   6.486  10.406   6.378 -1.0998 -1.1439  0.4488
  323MOL0     C43480   6.479  10.264   6.412  0.4830 -1.0514  1.3023
  323MOL0     C43481   6.447  10.257   6.560 -0.9104 -0.0394 -0.3299
  323MOL0     C43482   6.410  10.109   6.584  0.3619  0.2560  0.7182
  323MOL0     C43483   6.355  10.094   6.727 -0.8725  0.0535 -0.1893
  323MOL0     C43484   6.301   9.958   6.759 -1.1647  0.0530 -0.0543
  323MOL0     C43485   6.212   9.941   6.886 -0.6023 -0.0728  0.1017
  323MOL0     C43486   6.195   9.797   6.923 -0.9919 -0.2355  0.3893
  323MOL0     N43487   6.124   9.772   7.052  0.0040  0.3959 -0.1059
  323MOL0     C43488   6.066   9.659   7.105 -0.6118 -0.8301 -0.3027
  323MOL0     C43489   6.023   9.694   7.230  0.2633  0.6692  0.0163
  323MOL0     C43490   5.955   9.590   7.314 -0.0814  0.1648 -0.8615
  323MOL0     C43491   6.046   9.473   7.345 -0.6868 -0.7841 -0.0630
  323MOL0     C43492   5.979   9.381   7.445 -0.7649 -0.2698  0.5763
  323MOL0     C43493   6.082   9.276   7.497  0.1817 -0.9600  0.4262
  323MOL0     O43494   6.132   9.189   7.387  0.4462 -0.6703 -0.2382
  323MOL0     C43495   6.235   9.102   7.414  0.1171 -0.3614  0.0288
  323MOL0     C43496   6.297   9.096   7.549 -0.3608  0.1952 -0.3576
  323MOL0     C43497   6.407   9.018   7.569 -0.4671 -0.1009 -0.8105
  323MOL0     C43498   6.470   9.033   7.705 -0.4861 -0.0868  0.4697
  323MOL0     C43499   6.465   8.951   7.463 -0.5781  0.4814 -0.2674
  323MOL0     C43500   6.594   8.874   7.467 -0.4845 -0.3249 -0.4862
  323MOL0     O43501   6.706   8.911   7.542  0.9039 -0.0533  0.1825
  323MOL0     C43502   6.790   8.809   7.592 -0.9996 -0.2326  0.0241
  323MOL0     C43503   6.753   8.674   7.613 -0.8388 -0.4777  0.4509
  323MOL0     C43504   6.839   8.584   7.668 -0.2564 -0.7873  0.1114
  323MOL0     C43505   6.968   8.615   7.715 -0.2146  0.2775 -0.0675
  323MOL0     O43506   7.041   8.503   7.763  0.3075  0.5327 -0.2454
  323MOL0     C43507   7.159   8.545   7.846  0.6854  0.0991 -0.4802
  323MOL0     C43508   7.187   8.434   7.956 -0.0097 -0.3179  0.5146
  323MOL0     C43509   7.262   8.325   7.879  0.0800  0.0521  0.3357
  323MOL0     C43510   7.265   8.202   7.966  0.7120  0.3398  0.0066
  323MOL0     C43511   7.343   8.085   7.893 -0.2829 -0.0718 -0.0007
  323MOL0     C43512   7.341   7.969   7.990  0.3723 -0.5489 -0.0120
  323MOL0     C43513   7.429   7.850   7.958  0.5454 -0.3070  0.4006
  323MOL0     C43514   7.574   7.847   8.008 -0.8244 -0.2246 -0.6828
  323MOL0    Cl43515   7.559   7.857   8.188 -0.3487  0.2337  0.0245
  323MOL0     C43516   7.014   8.742   7.685  0.5039 -1.0633  0.0405
  323MOL0     C43517   6.923   8.834   7.621  0.2845 -0.6836  0.0266
  323MOL0     O43518   6.588   8.772   7.404 -0.0015  0.0687 -0.3953
  323MOL0     C43519   6.397   8.953   7.342 -0.1138  0.4767 -0.2285
  323MOL0     C43520   6.282   9.028   7.315  0.4768  0.1832  0.6337
  323MOL0     N43521   6.069   9.820   7.257  0.6725  0.7756  0.3431
  323MOL0     N43522   6.124   9.858   7.148 -0.3236 -0.0770  0.4329
  323MOL0     C43523   6.768  10.408   6.262  0.0893 -0.2721 -0.0456
  323MOL0     C43524   6.894  10.398   6.206 -0.1804  1.6999  0.3805
  323MOL0     C43525   7.216  10.325   5.898 -0.1463  0.0881  0.0930
  323MOL0     C43526   7.295  10.213   5.866 -0.7821  0.2303 -0.1473
  323MOL0     C43527   7.412  10.227   5.787 -0.5868  0.1927  0.2279
  323MOL0     C43528   7.458  10.347   5.739 -0.3306 -0.0488 -0.5768
  323MOL0     O43529   7.569  10.357   5.658 -0.4927  0.4067 -0.3448
  323MOL0     C43530   7.613  10.485   5.623  0.1846  0.1107  0.8381
  323MOL0     C43531   7.740  10.483   5.542 -0.6258 -0.0161 -0.3355
  323MOL0     C43532   7.773  10.627   5.481  0.4132  0.5898 -0.2734
  323MOL0     C43533   7.914  10.615   5.404  0.0819 -0.0625 -1.4453
  323MOL0     C43534   7.940  10.738   5.321 -0.7119 -0.8471  0.0694
  323MOL0     C43535   7.963  10.834   5.250 -0.7053  0.2021  0.3595
  323MOL0     C43536   7.376  10.456   5.776  0.3183 -0.4252  0.0432
  323MOL0     C43537   7.264  10.450   5.853  0.0870  0.6714 -0.3502
  323MOL0     H43538   6.809  10.479   5.884 -0.3706  3.2512  0.9500
  323MOL0     H43539   6.576  10.470   5.992  0.4389 -4.3963 -2.6337
  323MOL0     H43540   6.560  10.459   6.438 -0.3828 -0.1136 -1.2488
  323MOL0     H43541   6.386  10.450   6.392 -0.7935 -0.8016  1.6187
  323MOL0     H43542   6.394  10.215   6.362  0.4956 -0.7817  1.0148
  323MOL0     H43543   6.573  10.216   6.388  1.1815  0.7134  0.3334
  323MOL0     H43544   6.545  10.273   6.607 -0.7102 -0.6839 -0.5164
  323MOL0     H43545   6.377  10.330   6.602  2.8288  3.1670  0.9244
  323MOL0     H43546   6.337  10.083   6.507 -1.6530 -0.1995  2.6979
  323MOL0     H43547   6.500  10.046   6.581 -1.8763 -3.1641  0.3879
  323MOL0     H43548   6.432  10.122   6.800  0.3127  0.7100 -1.6541
  323MOL0     H43549   6.275  10.168   6.734  0.5999  2.1798 -3.4758
  323MOL0     H43550   6.241   9.922   6.675  0.5509  1.3919 -1.9645
  323MOL0     H43551   6.391   9.897   6.775 -1.7183 -0.6820  0.3297
  323MOL0     H43552   6.254   9.976   6.981 -0.8673 -0.5642  0.4077
  323MOL0     H43553   6.113   9.986   6.871 -1.5249 -1.4747  1.6287
  323MOL0     H43554   6.292   9.746   6.928 -1.0609 -0.2687  2.3106
  323MOL0     H43555   6.124   9.762   6.847  0.1110 -0.3858 -0.5962
  323MOL0     H43556   6.050   9.566   7.052 -2.2757 -0.0259 -1.3260
  323MOL0     H43557   5.927   9.630   7.412 -2.3415 -7.4728  2.3505
  323MOL0     H43558   5.868   9.544   7.267 -0.2971 -3.1603  2.3441
  323MOL0     H43559   6.142   9.502   7.388 -1.1889 -0.8543  1.1245
  323MOL0     H43560   6.058   9.418   7.251 -1.7792  0.7475 -1.1510
  323MOL0     H43561   5.902   9.320   7.396  0.0037  1.3490 -3.0252
  323MOL0     H43562   5.938   9.440   7.527 -1.1984  2.4206 -1.4160
  323MOL0     H43563   6.026   9.209   7.563 -0.8618 -2.1922 -1.6024
  323MOL0     H43564   6.163   9.326   7.551 -0.1615  0.0319  0.0284
  323MOL0     H43565   6.255   9.146   7.635 -2.7531 -0.9847 -0.7603
  323MOL0     H43566   6.541   8.952   7.723 -1.5326 -0.4564  3.5155
  323MOL0     H43567   6.546   9.111   7.699  0.4769 -1.1031 -1.7680
  323MOL0     H43568   6.400   9.040   7.789 -2.5072  1.1505 -1.2197
  323MOL0     H43569   6.651   8.645   7.589 -0.0956 -2.4589 -0.5849
  323MOL0     H43570   6.793   8.486   7.681 -1.9738 -0.3440 -1.9448
  323MOL0     H43571   7.246   8.551   7.781 -0.4892 -1.9618 -2.3793
  323MOL0     H43572   7.148   8.640   7.899  2.4303 -0.1507  0.3952
  323MOL0     H43573   7.245   8.478   8.037 -0.7826  2.6315 -0.4049
  323MOL0     H43574   7.095   8.395   8.001 -0.1110 -0.9159 -0.1957
  323MOL0     H43575   7.361   8.356   7.845  1.0057 -4.1692 -1.3491
  323MOL0     H43576   7.204   8.307   7.788 -0.8834  3.3279  0.1548
  323MOL0     H43577   7.312   8.233   8.060 -0.2353 -0.3040  0.7045
  323MOL0     H43578   7.165   8.171   7.997 -0.3969  3.2303 -0.3454
  323MOL0     H43579   7.438   8.137   7.875 -0.8233  1.6091  1.6244
  323MOL0     H43580   7.294   8.066   7.798 -0.7822 -0.0747  0.2508
  323MOL0     H43581   7.371   8.009   8.087 -2.5923  0.2993  0.6540
  323MOL0     H43582   7.238   7.937   8.010  0.5648 -1.0891  0.1285
  323MOL0     H43583   7.425   7.836   7.849  2.8815  3.3707 -0.3486
  323MOL0     H43584   7.376   7.771   8.011 -2.2227  2.3534  1.8393
  323MOL0     H43585   7.637   7.925   7.965  0.2357  0.1939  1.4823
  323MOL0     H43586   7.626   7.756   7.978  1.2264  0.4597  0.6467
  323MOL0     H43587   7.119   8.766   7.699  0.5442 -0.7880 -0.6961
  323MOL0     H43588   6.980   8.924   7.605  0.1066 -0.3940  0.9277
  323MOL0     H43589   6.448   8.905   7.259  1.8837  2.2058 -0.0765
  323MOL0     H43590   6.238   9.028   7.215 -0.6472  4.0003  0.9593
  323MOL0     H43591   6.770  10.396   6.370 -1.0027 -1.5153 -0.1470
  323MOL0     H43592   6.983  10.363   6.257  0.3073  0.7294 -1.0866
  323MOL0     H43593   7.259  10.115   5.897 -4.2509  0.9887 -1.3314
  323MOL0     H43594   7.467  10.133   5.783  1.0418  0.9610  2.7039
  323MOL0     H43595   7.536  10.537   5.565 -0.8671 -2.4791 -0.2134
  323MOL0     H43596   7.637  10.541   5.714  2.2881 -0.8061  0.8877
  323MOL0     H43597   7.738  10.410   5.460 -0.4334  1.1724 -1.4124
  323MOL0     H43598   7.815  10.448   5.613 -0.8383  1.4480  0.6560
  323MOL0     H43599   7.765  10.708   5.553  3.2131  0.9347 -0.2398
  323MOL0     H43600   7.699  10.644   5.403  0.8857  2.3686 -0.3582
  323MOL0     H43601   7.898  10.527   5.341  0.3992  0.4348 -2.2415
  323MOL0     H43602   7.993  10.598   5.479  1.1854  3.5110 -1.6190
  323MOL0     H43603   7.972  10.928   5.200 -0.5048 -0.1773 -0.3351
  323MOL0     H43604   7.391  10.553   5.730  1.2966 -0.0411  1.1174
  323MOL0     H43605   7.218  10.542   5.886  2.2501  0.8180  2.6603
  324MOL0     O43606   4.876   9.367   9.562  0.0799  0.9272 -0.6053
  324MOL0     C43607   4.934   9.474   9.579 -0.3092 -0.3163 -0.3590
  324MOL0     O43608   4.934   9.581   9.491  0.4360 -0.1242 -0.1024
  324MOL0     C43609   4.868   9.551   9.373  0.4081  0.4861 -0.9168
  324MOL0     C43610   4.936   9.488   9.271  0.2580  0.5655 -0.7889
  324MOL0     C43611   4.868   9.447   9.157  0.8567 -0.9704  0.4077
  324MOL0     C43612   4.728   9.475   9.134 -0.6313  0.1909 -0.1866
  324MOL0     O43613   4.660   9.447   9.014 -0.2247  0.0218 -0.5159
  324MOL0     C43614   4.728   9.388   8.898  0.3843 -0.2047  0.2423
  324MOL0     C43615   4.652   9.418   8.768  0.0788  0.4348  0.2862
  324MOL0     C43616   4.654   9.564   8.737  1.5358 -0.0704  0.4201
  324MOL0     C43617   4.618   9.592   8.589 -0.5175  0.6664 -0.1446
  324MOL0     C43618   4.626   9.736   8.543  0.8112 -0.0743  1.3118
  324MOL0     C43619   4.577   9.760   8.394  0.4443  0.0451  0.3651
  324MOL0     C43620   4.430   9.723   8.364 -0.8319 -0.2406  0.6012
  324MOL0     C43621   4.385   9.801   8.231  0.0738 -0.2416 -0.0743
  324MOL0     N43622   4.236   9.821   8.213 -0.2788 -0.2858 -0.6428
  324MOL0     C43623   4.162   9.865   8.322 -0.0605 -0.5907  0.7874
  324MOL0     C43624   4.037   9.820   8.296  0.2577  0.5235 -0.5733
  324MOL0     C43625   3.914   9.846   8.384 -0.3451  0.2999  0.0883
  324MOL0     C43626   3.882   9.725   8.481  0.6728  0.2801  0.6584
  324MOL0     C43627   3.765   9.636   8.429  0.3153  0.5319  0.0036
  324MOL0     C43628   3.784   9.562   8.298 -0.3669  0.9693  1.2447
  324MOL0     O43629   3.666   9.481   8.271  0.1383 -0.3242 -0.2217
  324MOL0     C43630   3.678   9.404   8.162  0.4021  0.4533  1.2813
  324MOL0     C43631   3.785   9.367   8.082  0.8624 -0.9047  0.1151
  324MOL0     C43632   3.781   9.289   7.964  0.1433  0.3898  0.1286
  324MOL0     C43633   3.909   9.278   7.881 -0.5945  0.6951 -0.5014
  324MOL0     C43634   3.657   9.242   7.914  0.0405  0.9019  0.9569
  324MOL0     C43635   3.630   9.151   7.784  0.1446 -0.8238 -0.2726
  324MOL0     O43636   3.507   9.094   7.803 -0.0308  0.3664 -0.4062
  324MOL0     C43637   3.471   8.975   7.732  0.0010 -0.7305  0.3118
  324MOL0     C43638   3.567   8.878   7.700 -0.7623  0.3201 -0.1391
  324MOL0     C43639   3.527   8.754   7.651  1.1027 -0.2078 -0.8956
  324MOL0     C43640   3.392   8.728   7.614  0.1031 -0.1305  0.3918
  324MOL0     O43641   3.343   8.610   7.563 -0.4852  0.2685  0.5017
  324MOL0     C43642   3.429   8.503   7.540  0.0708 -0.4528  0.1853
  324MOL0     C43643   3.350   8.393   7.469  0.0759  0.6313  0.8081
  324MOL0     C43644   3.316   8.447   7.327 -0.9088 -0.3299  0.1555
  324MOL0     C43645   3.247   8.341   7.240 -0.3079 -0.4236  1.3029
  324MOL0     C43646   3.342   8.220   7.194  0.1749 -0.0873  0.0334
  324MOL0     C43647   3.285   8.160   7.066 -0.0372 -0.0956  0.6481
  324MOL0     C43648   3.337   8.223   6.931  0.1995 -0.2874  0.6751
  324MOL0     C43649   3.288   8.160   6.810 -0.2504  0.6000 -0.5102
  324MOL0    Cl43650   3.305   8.290   6.691  0.0846  0.1654 -0.6308
  324MOL0     C43651   3.302   8.830   7.624  0.1783  0.4366 -0.0088
  324MOL0     C43652   3.338   8.954   7.687 -0.8270 -0.5369 -0.7753
  324MOL0     O43653   3.706   9.130   7.693  0.3848  0.0082  0.4023
  324MOL0     C43654   3.549   9.291   7.987  0.0201  0.5242  0.1186
  324MOL0     C43655   3.557   9.366   8.104  1.1700  0.0284 -0.0601
  324MOL0     N43656   4.036   9.743   8.184 -0.5421  0.1810  0.2336
  324MOL0     N43657   4.161   9.740   8.146  0.0756  0.9450  0.8881
  324MOL0     C43658   4.663   9.527   9.246  0.1942  0.4609  0.2125
  324MOL0     C43659   4.734   9.572   9.362 -0.4081  0.5243  0.4316
  324MOL0     C43660   5.033   9.489   9.691 -0.5679 -0.0558 -0.9653
  324MOL0     C43661   5.132   9.592   9.695 -0.0841  0.2720  0.8908
  324MOL0     C43662   5.238   9.584   9.789 -0.3776  0.4349  0.1388
  324MOL0     C43663   5.240   9.488   9.894  0.2360 -0.7387 -0.3121
  324MOL0     O43664   5.337   9.495   9.985 -0.0784  0.2942  0.1882
  324MOL0     C43665   5.337   9.396  10.083  0.1635  1.2504 -1.3031
  324MOL0     C43666   5.448   9.416  10.180 -0.9971  0.2357 -0.2773
  324MOL0     C43667   5.587   9.383  10.129  0.4730 -0.6268 -0.2093
  324MOL0     C43668   5.668   9.269  10.188  0.4389  0.3770 -0.5609
  324MOL0     C43669   5.599   9.142  10.164  0.3671  0.2986  0.4913
  324MOL0     C43670   5.540   9.038  10.146  0.2552 -0.3699  0.3369
  324MOL0     C43671   5.135   9.395   9.893  0.7186 -0.6959  0.4701
  324MOL0     C43672   5.035   9.392   9.792  0.4510 -0.3355  0.3201
  324MOL0     H43673   5.041   9.460   9.282  0.3175  1.5721  2.3033
  324MOL0     H43674   4.929   9.392   9.086  0.5790 -1.5468  0.6055
  324MOL0     H43675   4.832   9.421   8.895  0.7069 -1.1424  0.6228
  324MOL0     H43676   4.733   9.279   8.909 -0.3768 -0.1395  1.4803
  324MOL0     H43677   4.709   9.367   8.690 -0.1222  3.1616 -1.7936
  324MOL0     H43678   4.551   9.377   8.774  0.7656 -1.2887  0.7046
  324MOL0     H43679   4.566   9.603   8.791 -0.3738  0.4282 -2.8043
  324MOL0     H43680   4.744   9.621   8.763  1.6235  0.9037 -1.8112
  324MOL0     H43681   4.696   9.534   8.539 -0.7591 -1.0871  1.4095
  324MOL0     H43682   4.518   9.554   8.568 -0.0324 -2.0770  1.9506
  324MOL0     H43683   4.577   9.813   8.604  4.9063  4.0494 -0.0890
  324MOL0     H43684   4.732   9.763   8.548  1.2689 -1.8364  1.6491
  324MOL0     H43685   4.576   9.869   8.381 -0.4467 -0.2424 -2.5504
  324MOL0     H43686   4.656   9.718   8.331  1.3563  0.3064  1.3050
  324MOL0     H43687   4.429   9.614   8.358 -2.5792 -0.3526  2.1168
  324MOL0     H43688   4.367   9.748   8.450 -3.5287  0.5738 -1.4876
  324MOL0     H43689   4.416   9.747   8.141  1.3676 -0.4379  0.4589
  324MOL0     H43690   4.443   9.894   8.230  1.4203 -0.9523 -3.4796
  324MOL0     H43691   4.169   9.939   8.400 -2.9814  1.3833 -0.6193
  324MOL0     H43692   3.940   9.930   8.449 -1.8969  0.3678  0.6455
  324MOL0     H43693   3.825   9.860   8.322  0.4717  2.8817 -0.6583
  324MOL0     H43694   3.858   9.773   8.576 -0.1411  2.4367 -0.5573
  324MOL0     H43695   3.961   9.650   8.491  0.2868 -0.5777 -1.9560
  324MOL0     H43696   3.678   9.703   8.424  0.4859  0.8050  0.5961
  324MOL0     H43697   3.752   9.552   8.497  3.0616 -0.8371 -1.0078
  324MOL0     H43698   3.876   9.503   8.300  1.2422  3.3736  2.0859
  324MOL0     H43699   3.798   9.621   8.206  2.0234 -2.6334 -0.9500
  324MOL0     H43700   3.882   9.408   8.108  1.2773 -1.8414  0.0831
  324MOL0     H43701   3.961   9.184   7.902 -0.6194  0.7430 -0.2206
  324MOL0     H43702   3.892   9.280   7.772 -3.0181 -0.2962 -0.2137
  324MOL0     H43703   3.975   9.358   7.914 -0.9825  0.2146  1.5394
  324MOL0     H43704   3.673   8.889   7.718 -0.6359 -0.4620 -0.3663
  324MOL0     H43705   3.601   8.680   7.625  1.8160  0.3298 -0.4501
  324MOL0     H43706   3.514   8.528   7.476 -1.0492 -2.4156 -2.2188
  324MOL0     H43707   3.464   8.456   7.632  1.5569 -1.4651 -0.8533
  324MOL0     H43708   3.402   8.298   7.460 -1.2302  0.0520 -1.3117
  324MOL0     H43709   3.251   8.369   7.511 -0.2307 -1.5813 -1.0077
  324MOL0     H43710   3.401   8.495   7.277 -2.2011  0.1946 -1.6494
  324MOL0     H43711   3.243   8.526   7.343 -0.5899  0.1633 -0.7801
  324MOL0     H43712   3.158   8.305   7.292  0.4213 -1.2891  1.9974
  324MOL0     H43713   3.204   8.392   7.153  2.5345  1.1487  0.6878
  324MOL0     H43714   3.347   8.139   7.267 -2.6940 -0.7799 -0.4338
  324MOL0     H43715   3.441   8.264   7.176  0.5756 -0.6970  0.6863
  324MOL0     H43716   3.305   8.053   7.073 -2.5462 -0.7251 -0.7038
  324MOL0     H43717   3.176   8.162   7.066 -0.0469  1.8738  0.0661
  324MOL0     H43718   3.445   8.238   6.927 -0.0092  1.0885 -1.1389
  324MOL0     H43719   3.286   8.320   6.943 -0.3096 -0.6468  1.4814
  324MOL0     H43720   3.181   8.137   6.813 -0.4447  1.1604 -2.1478
  324MOL0     H43721   3.349   8.077   6.774  1.1241  0.5125  1.7831
  324MOL0     H43722   3.198   8.820   7.596  1.0185 -2.5816 -2.7324
  324MOL0     H43723   3.261   9.031   7.691 -2.9494 -2.4932 -1.4941
  324MOL0     H43724   3.446   9.280   7.955 -0.1113  2.7234 -0.4308
  324MOL0     H43725   3.465   9.407   8.145 -0.2527 -0.6321 -2.4055
  324MOL0     H43726   4.558   9.553   9.235  0.1656  0.0659 -0.5135
  324MOL0     H43727   4.672   9.607   9.444 -0.4274 -0.9707  1.0901
  324MOL0     H43728   5.142   9.673   9.623  1.2050  3.2380  4.0892
  324MOL0     H43729   5.315   9.660   9.781 -2.0804  2.1485 -1.0908
  324MOL0     H43730   5.245   9.392  10.142  2.2321 -0.6223  2.0772
  324MOL0     H43731   5.348   9.298  10.035 -0.9297  0.4013  0.1021
  324MOL0     H43732   5.430   9.350  10.266  1.7945 -0.9126 -0.4768
  324MOL0     H43733   5.453   9.517  10.220 -1.4185 -0.3642  1.4066
  324MOL0     H43734   5.647   9.474  10.142 -0.4595  0.0691 -0.6678
  324MOL0     H43735   5.580   9.354  10.024 -3.2122  2.9618 -1.2109
  324MOL0     H43736   5.671   9.274  10.297 -3.1558 -2.7866 -0.0986
  324MOL0     H43737   5.768   9.271  10.144  0.4686 -0.2703 -0.5330
  324MOL0     H43738   5.509   8.935  10.153 -2.5930  0.3703 -0.4466
  324MOL0     H43739   5.134   9.312   9.964  1.5678 -1.1930 -0.0750
  324MOL0     H43740   4.950   9.324   9.795  1.1052 -1.3912 -2.4400
  325MOL0     O43741  10.798   2.251   9.808 -0.1081 -0.3458  0.1791
  325MOL0     C43742  10.919   2.236   9.794 -1.1450  0.2686  1.1356
  325MOL0     O43743  10.979   2.232   9.671 -0.1427  0.9965  0.7817
  325MOL0     C43744  10.881   2.237   9.564  0.2073 -0.6278 -0.7316
  325MOL0     C43745  10.854   2.115   9.500 -0.1466  0.2877  0.4417
  325MOL0     C43746  10.759   2.118   9.399  0.8176 -0.2762  0.0108
  325MOL0     C43747  10.705   2.237   9.342 -0.0764  0.2927  1.0227
  325MOL0     O43748  10.627   2.226   9.230 -0.4669  0.1411  0.5065
  325MOL0     C43749  10.658   2.310   9.125  0.0467 -0.3896 -0.1531
  325MOL0     C43750  10.538   2.316   9.027  0.5688  0.1992 -0.5564
  325MOL0     C43751  10.534   2.188   8.954  0.8310  0.3404  0.7303
  325MOL0     C43752  10.407   2.177   8.871  0.0584  0.1848 -0.3242
  325MOL0     C43753  10.412   2.234   8.729  0.0627  0.5114 -0.9932
  325MOL0     C43754  10.275   2.255   8.674  0.1799 -0.5240  0.0387
  325MOL0     C43755  10.187   2.129   8.659  1.5564 -0.0791 -0.2094
  325MOL0     C43756  10.234   2.021   8.557 -0.9183 -0.6440  0.7119
  325MOL0     N43757  10.295   2.088   8.436 -0.2056  0.8279 -0.3493
  325MOL0     C43758  10.213   2.133   8.343  0.9306 -0.2626 -0.5680
  325MOL0     C43759  10.287   2.155   8.236  0.3921  0.0828  1.2706
  325MOL0     C43760  10.242   2.203   8.109  0.4563 -0.2505  0.5465
  325MOL0     C43761  10.233   2.084   7.999 -0.2897 -0.5055 -0.8825
  325MOL0     C43762  10.171   2.138   7.871  0.3877 -0.2547 -0.5141
  325MOL0     C43763  10.185   2.037   7.750  0.5292 -0.6290  0.4294
  325MOL0     O43764  10.322   1.995   7.722 -0.0440  1.0784  0.0331
  325MOL0     C43765  10.349   1.925   7.607  1.2036  0.2811 -0.5863
  325MOL0     C43766  10.473   1.860   7.593  0.6559  0.1403  0.8486
  325MOL0     C43767  10.507   1.790   7.473  0.6211  0.8416  0.5357
  325MOL0     C43768  10.639   1.722   7.482 -0.3143  0.2992 -0.2217
  325MOL0     C43769  10.419   1.794   7.356  0.3052  0.4833 -0.2129
  325MOL0     C43770  10.452   1.713   7.225 -0.1125 -0.7468  0.6345
  325MOL0     O43771  10.348   1.690   7.139 -0.2646  0.1013  0.0384
  325MOL0     C43772  10.369   1.640   7.018 -0.3750  0.8581 -0.4071
  325MOL0     C43773  10.431   1.522   7.001  1.0227  0.4138  0.5013
  325MOL0     C43774  10.449   1.463   6.872  0.6463 -0.2242 -0.4676
  325MOL0     C43775  10.411   1.535   6.758 -0.8965 -0.3224  0.7756
  325MOL0     O43776  10.419   1.506   6.625  0.0922  0.5557 -0.5856
  325MOL0     C43777  10.516   1.407   6.573 -0.3898 -0.1671 -0.6735
  325MOL0     C43778  10.515   1.401   6.412 -0.2484 -0.1394  0.1609
  325MOL0     C43779  10.619   1.292   6.367  0.4297 -0.2491  0.5810
  325MOL0     C43780  10.627   1.289   6.211  0.5400  0.2676 -0.2577
  325MOL0     C43781  10.767   1.259   6.162  0.3423 -1.4706 -0.3938
  325MOL0     C43782  10.752   1.250   6.008  0.2155 -0.6295  0.1090
  325MOL0     C43783  10.764   1.109   5.958 -0.2568  0.5385  0.7515
  325MOL0     C43784  10.655   1.009   5.991  0.0599 -0.3035 -0.3576
  325MOL0    Cl43785  10.659   0.841   5.914 -0.1723  0.1156  0.0873
  325MOL0     C43786  10.346   1.655   6.780 -0.9331  0.2786  0.8338
  325MOL0     C43787  10.323   1.712   6.907 -0.0557  0.6330 -0.2677
  325MOL0     O43788  10.562   1.661   7.215 -0.2125  0.3113  0.3460
  325MOL0     C43789  10.299   1.856   7.375  1.2929  0.0107 -0.1001
  325MOL0     C43790  10.267   1.913   7.499  0.0916 -0.6923  1.0641
  325MOL0     N43791  10.423   2.118   8.258 -0.0697 -0.1273 -0.1360
  325MOL0     N43792  10.415   2.080   8.381  0.6828 -0.5760 -0.1068
  325MOL0     C43793  10.740   2.355   9.408 -0.0583 -0.8854  0.7586
  325MOL0     C43794  10.818   2.356   9.522 -0.3863 -0.1339 -0.5285
  325MOL0     C43795  10.998   2.203   9.917 -0.2004 -0.2901  0.0818
  325MOL0     C43796  10.983   2.264  10.045  0.0007  0.8302  0.4924
  325MOL0     C43797  11.058   2.225  10.158  0.7185 -1.0438  0.1302
  325MOL0     C43798  11.174   2.157  10.149  0.6709  0.6398 -0.3938
  325MOL0     O43799  11.238   2.141  10.271 -0.4751 -0.5606 -0.7384
  325MOL0     C43800  11.367   2.085  10.265 -0.3306 -0.5280  0.3084
  325MOL0     C43801  11.404   2.066  10.409 -0.5377 -0.3180  0.0746
  325MOL0     C43802  11.436   2.186  10.486  0.0869 -0.1718  0.9848
  325MOL0     C43803  11.541   2.282  10.428 -0.5860  0.1526  0.3926
  325MOL0     C43804  11.672   2.208  10.422 -0.4296 -0.1799  0.7141
  325MOL0     C43805  11.784   2.155  10.420 -0.2218  0.0186 -0.2062
  325MOL0     C43806  11.204   2.104  10.020  0.6843  0.1113  0.5717
  325MOL0     C43807  11.115   2.124   9.912 -0.8826  0.8013 -0.2430
  325MOL0     H43808  10.906   2.029   9.541  1.2588 -0.9602 -3.5567
  325MOL0     H43809  10.715   2.025   9.363  0.1852 -1.4895  3.5815
  325MOL0     H43810  10.664   2.413   9.161 -3.9364  0.2391 -0.8317
  325MOL0     H43811  10.754   2.278   9.083  0.0257 -2.1752  1.0287
  325MOL0     H43812  10.448   2.333   9.087  1.5411  0.6901  0.8358
  325MOL0     H43813  10.556   2.399   8.957  2.7193 -0.5660 -0.9944
  325MOL0     H43814  10.628   2.173   8.900 -0.6669 -1.3154 -1.6625
  325MOL0     H43815  10.529   2.105   9.025 -0.6039  0.4047  0.7337
  325MOL0     H43816  10.378   2.078   8.834  0.0783  1.3339 -3.7661
  325MOL0     H43817  10.321   2.216   8.927  0.8422 -1.3471  2.0802
  325MOL0     H43818  10.470   2.327   8.731 -1.9751  1.8315  1.0069
  325MOL0     H43819  10.462   2.155   8.673 -1.5898 -1.8235  0.6678
  325MOL0     H43820  10.213   2.327   8.728 -1.2153  0.4715 -2.7091
  325MOL0     H43821  10.273   2.308   8.578  1.8902  5.2277  2.7560
  325MOL0     H43822  10.160   2.082   8.754  1.3458  0.9010  0.2303
  325MOL0     H43823  10.092   2.158   8.614  1.5399 -0.5452 -0.4845
  325MOL0     H43824  10.161   1.949   8.519  0.7786 -0.7143 -2.9165
  325MOL0     H43825  10.304   1.955   8.608 -0.2430 -1.0009 -0.6186
  325MOL0     H43826  10.107   2.156   8.350  1.3521  1.9053 -0.6982
  325MOL0     H43827  10.137   2.234   8.116 -0.4699 -1.8902 -3.3296
  325MOL0     H43828  10.303   2.285   8.070  1.7387 -1.9413 -1.2271
  325MOL0     H43829  10.175   2.001   8.040 -1.4862 -0.5276 -2.5088
  325MOL0     H43830  10.332   2.041   7.984  0.4552  1.0508 -0.5925
  325MOL0     H43831  10.233   2.226   7.851  0.2569 -0.1527 -0.4702
  325MOL0     H43832  10.071   2.177   7.889 -0.7270 -2.8342 -0.7067
  325MOL0     H43833  10.144   2.089   7.663 -2.5230 -0.2040  1.9493
  325MOL0     H43834  10.125   1.949   7.779  0.0478  0.0401  1.5442
  325MOL0     H43835  10.543   1.872   7.675  0.7784 -2.2052  1.1431
  325MOL0     H43836  10.686   1.768   7.569 -0.8701 -1.5412  1.1073
  325MOL0     H43837  10.614   1.616   7.494 -1.9303  0.7812  1.1545
  325MOL0     H43838  10.706   1.742   7.398 -3.6271 -0.7197 -3.3760
  325MOL0     H43839  10.475   1.472   7.087  0.3264 -0.0655  0.5926
  325MOL0     H43840  10.506   1.371   6.865  0.3324 -0.6231  1.5794
  325MOL0     H43841  10.615   1.442   6.606 -1.3132  0.9230  1.0929
  325MOL0     H43842  10.499   1.306   6.612 -0.2833  0.1484  0.2171
  325MOL0     H43843  10.417   1.378   6.369 -1.0260  0.7114  1.4440
  325MOL0     H43844  10.549   1.495   6.367 -0.0343  0.6401  1.8938
  325MOL0     H43845  10.590   1.194   6.405 -0.0605 -0.5793 -0.5892
  325MOL0     H43846  10.720   1.326   6.392  0.2547  1.9318 -1.3341
  325MOL0     H43847  10.549   1.218   6.179  0.2737  0.8933 -1.0269
  325MOL0     H43848  10.602   1.387   6.169 -0.3382 -0.2780 -1.0587
  325MOL0     H43849  10.816   1.178   6.216  0.9048  0.1346  1.6070
  325MOL0     H43850  10.826   1.349   6.183 -2.6701  0.6250 -0.1142
  325MOL0     H43851  10.655   1.284   5.971 -0.6647 -4.0504 -1.0508
  325MOL0     H43852  10.835   1.304   5.961  2.1925 -1.1586  2.7269
  325MOL0     H43853  10.859   1.064   5.986 -0.4875 -1.1949 -0.9786
  325MOL0     H43854  10.763   1.118   5.849 -1.6375  1.3924  0.8156
  325MOL0     H43855  10.555   1.053   5.994  0.0974 -0.2551  2.3388
  325MOL0     H43856  10.668   0.984   6.097  4.0236  0.9075 -0.3800
  325MOL0     H43857  10.308   1.704   6.691  1.6073  1.3496  0.2578
  325MOL0     H43858  10.276   1.809   6.913  0.0726  0.7218 -0.6773
  325MOL0     H43859  10.237   1.872   7.287  2.0427  0.0973 -0.6178
  325MOL0     H43860  10.176   1.971   7.503  1.8490  2.5078 -1.2819
  325MOL0     H43861  10.709   2.447   9.359 -2.1501 -1.1186  1.5328
  325MOL0     H43862  10.837   2.440   9.587 -2.0022 -1.6228  2.0097
  325MOL0     H43863  10.891   2.322  10.048 -1.8037 -1.6371 -1.6123
  325MOL0     H43864  11.011   2.245  10.254  0.4790  1.0275 -0.3635
  325MOL0     H43865  11.362   1.991  10.210  0.7278 -0.0197 -0.6981
  325MOL0     H43866  11.434   2.151  10.209  0.1396 -1.0606  0.2283
  325MOL0     H43867  11.480   1.991  10.431 -0.5443 -0.4124 -0.2144
  325MOL0     H43868  11.316   2.025  10.460 -0.0876 -2.7067 -0.9375
  325MOL0     H43869  11.483   2.159  10.581 -0.9282  0.8631  1.8241
  325MOL0     H43870  11.339   2.237  10.484  0.8693  1.3731 -0.3904
  325MOL0     H43871  11.549   2.372  10.490 -2.4445 -0.0095  0.9148
  325MOL0     H43872  11.523   2.312  10.325  2.6854 -1.1188 -0.7138
  325MOL0     H43873  11.877   2.104  10.436  1.8403  3.3754 -0.6139
  325MOL0     H43874  11.297   2.054   9.998  1.3164  1.6012 -0.3106
  325MOL0     H43875  11.141   2.086   9.813  0.6276  0.4229  0.2727
  326MOL0     O43876  10.587  10.709  10.227  0.2445 -0.4113  0.4468
  326MOL0     C43877  10.705  10.747  10.237 -0.3979 -0.1785  0.5858
  326MOL0     O43878  10.743  10.864  10.300 -0.0719  0.2934  0.1425
  326MOL0     C43879  10.651  10.960  10.342  0.3141  0.1758 -0.4064
  326MOL0     C43880  10.538  10.939  10.424 -0.6211  0.5690  0.4940
  326MOL0     C43881  10.448  11.035  10.459  0.1550  0.2996 -0.7223
  326MOL0     C43882  10.459  11.162  10.409  0.9963 -0.4940 -0.3711
  326MOL0     O43883  10.383  11.278  10.425 -0.6906  0.1026  0.4312
  326MOL0     C43884  10.250  11.256  10.486 -0.3243  0.0875 -0.1434
  326MOL0     C43885  10.150  11.325  10.407 -1.1649 -0.3130 -0.0810
  326MOL0     C43886  10.173  11.486  10.405  0.6991 -0.6624  0.3777
  326MOL0     C43887  10.044  11.554  10.344  0.0527 -0.5487 -0.3419
  326MOL0     C43888  10.083  11.697  10.357 -0.0758  0.0486  0.5620
  326MOL0     C43889  10.011  11.803  10.263 -0.1781 -0.6796  1.0839
  326MOL0     C43890   9.907  11.884  10.331  0.0612 -0.1820  0.6024
  326MOL0     C43891   9.837  11.964  10.220  0.5171 -0.2227  0.1326
  326MOL0     N43892   9.738  12.071  10.261 -0.2410 -0.3217  0.3255
  326MOL0     C43893   9.657  12.059  10.365  0.0179  0.3116  0.3777
  326MOL0     C43894   9.549  12.140  10.346  0.5532 -0.3942 -1.2016
  326MOL0     C43895   9.426  12.154  10.439 -0.1666  0.4008 -0.0893
  326MOL0     C43896   9.352  12.279  10.413  0.5757  1.2557 -0.8338
  326MOL0     C43897   9.217  12.290  10.487 -0.8289  0.2913  0.2535
  326MOL0     C43898   9.154  12.427  10.479  0.7040 -0.2206 -0.6519
  326MOL0     O43899   9.122  12.452  10.347 -0.2976 -0.2595  0.1364
  326MOL0     C43900   9.113  12.577  10.292  0.4548  0.0757 -0.5686
  326MOL0     C43901   9.120  12.580  10.154  0.2564 -0.3015 -0.3227
  326MOL0     C43902   9.108  12.703  10.092 -0.1283  1.1753  1.4692
  326MOL0     C43903   9.078  12.696   9.936 -0.5541 -0.6180 -0.3582
  326MOL0     C43904   9.082  12.822  10.169 -0.6770 -0.0186  0.9265
  326MOL0     C43905   9.042  12.957  10.107  0.2576  0.0056  0.9871
  326MOL0     O43906   8.998  13.054  10.198 -0.3298  0.3916 -0.6877
  326MOL0     C43907   8.967  13.172  10.146 -0.1028  0.9663 -0.7347
  326MOL0     C43908   9.042  13.270  10.074  0.2028  0.0770 -0.0473
  326MOL0     C43909   8.996  13.401  10.044  1.1618  0.1570  0.8719
  326MOL0     C43910   8.860  13.437  10.067  0.1174  0.9400  0.3762
  326MOL0     O43911   8.823  13.571  10.032  0.7734  0.7391 -0.4017
  326MOL0     C43912   8.705  13.630  10.073 -0.1203  0.6263 -0.5114
  326MOL0     C43913   8.715  13.664  10.223 -0.0489 -0.6191 -1.1813
  326MOL0     C43914   8.582  13.713  10.272 -0.6395  0.3051 -0.3068
  326MOL0     C43915   8.500  13.600  10.330  0.5582 -0.1237  0.1170
  326MOL0     C43916   8.370  13.664  10.382 -0.4782 -0.6116  0.4666
  326MOL0     C43917   8.389  13.747  10.508 -0.4042 -0.1162 -0.5757
  326MOL0     C43918   8.255  13.773  10.577 -0.3886 -0.3606 -0.1588
  326MOL0     C43919   8.196  13.640  10.646  0.7356 -0.7120 -0.9626
  326MOL0    Cl43920   8.103  13.688  10.805  0.2562 -0.1623  0.2417
  326MOL0     C43921   8.779  13.342  10.131  0.1357  0.5029 -0.2787
  326MOL0     C43922   8.829  13.213  10.169 -0.2973  0.7647  0.8247
  326MOL0     O43923   9.059  12.972   9.992 -0.4107  0.0278  0.1383
  326MOL0     C43924   9.078  12.814  10.303  0.4828  0.1079 -0.5931
  326MOL0     C43925   9.107  12.693  10.368 -0.3981  0.0913  0.3066
  326MOL0     N43926   9.576  12.211  10.225 -0.3501 -0.5561  0.0669
  326MOL0     N43927   9.686  12.160  10.182 -0.0157  0.0445 -0.5350
  326MOL0     C43928  10.568  11.191  10.331  0.4615 -0.0645 -0.3185
  326MOL0     C43929  10.661  11.088  10.292 -0.3043 -1.3530  0.3109
  326MOL0     C43930  10.806  10.650  10.190  0.6931  0.7753 -0.5198
  326MOL0     C43931  10.763  10.538  10.120  0.5221 -0.4806  0.2298
  326MOL0     C43932  10.860  10.447  10.069  0.3779  0.2360 -0.0208
  326MOL0     C43933  10.994  10.465  10.096  0.9631 -0.1860 -0.0266
  326MOL0     O43934  11.094  10.392  10.050 -0.8032 -0.3727 -0.1330
  326MOL0     C43935  11.082  10.249  10.076 -0.2715  0.0255  0.8331
  326MOL0     C43936  11.206  10.181  10.024 -0.3356 -0.3911 -0.4747
  326MOL0     C43937  11.215  10.158   9.873 -0.5101  0.5451  0.3345
  326MOL0     C43938  11.342  10.079   9.836  0.8972  0.0258  1.1343
  326MOL0     C43939  11.320   9.939   9.821 -0.2035  0.2418 -0.0491
  326MOL0     C43940  11.324   9.822   9.790  0.6608  0.6405  1.1092
  326MOL0     C43941  11.027  10.586  10.162 -0.2727 -0.3041 -0.8511
  326MOL0     C43942  10.942  10.681  10.213  1.2485  0.3047  0.3620
  326MOL0     H43943  10.506  10.844  10.466 -1.7093  1.1016  0.8919
  326MOL0     H43944  10.377  11.004  10.534 -2.0893  3.1292 -1.4816
  326MOL0     H43945  10.223  11.150  10.487  4.3797 -1.3129 -0.2935
  326MOL0     H43946  10.250  11.284  10.591  1.5752  2.0146 -0.5957
  326MOL0     H43947  10.146  11.289  10.304  0.3415  0.5714 -0.4733
  326MOL0     H43948  10.051  11.304  10.447 -2.9590 -1.5800 -4.5304
  326MOL0     H43949  10.190  11.514  10.510  1.1144  3.3465 -0.5687
  326MOL0     H43950  10.263  11.515  10.349 -0.1615  0.0689 -0.6680
  326MOL0     H43951  10.042  11.522  10.240  1.9985 -3.0289  0.2990
  326MOL0     H43952   9.954  11.526  10.400  0.6891  0.8545  1.4929
  326MOL0     H43953  10.078  11.733  10.461  0.6529 -0.9625  0.9584
  326MOL0     H43954  10.188  11.720  10.337 -0.5824  3.9697  1.4869
  326MOL0     H43955  10.084  11.871  10.218 -4.5234  1.5411 -3.6672
  326MOL0     H43956   9.960  11.754  10.180  0.7424  1.9759 -1.2142
  326MOL0     H43957   9.837  11.813  10.376  1.9873 -1.5108  1.6108
  326MOL0     H43958   9.948  11.951  10.407  0.3532  3.5621 -2.5327
  326MOL0     H43959   9.786  11.889  10.160  2.4321 -3.8106  2.5809
  326MOL0     H43960   9.901  12.026  10.157 -0.3635  0.6749  0.1114
  326MOL0     H43961   9.669  11.992  10.450  1.7347  0.3661  0.2209
  326MOL0     H43962   9.350  12.076  10.427 -1.4385  1.8647 -2.1572
  326MOL0     H43963   9.462  12.162  10.542 -1.2920 -1.3168  0.4779
  326MOL0     H43964   9.332  12.277  10.305 -2.3059  1.8887 -0.4104
  326MOL0     H43965   9.415  12.364  10.442  0.7040  0.4651  1.3483
  326MOL0     H43966   9.232  12.261  10.592 -1.2128  0.8848  0.4771
  326MOL0     H43967   9.149  12.218  10.440 -0.0182 -0.2291 -0.1405
  326MOL0     H43968   9.220  12.507  10.512 -0.3617 -0.3995  2.1501
  326MOL0     H43969   9.066  12.448  10.540  3.0728  2.1032  2.2246
  326MOL0     H43970   9.127  12.488  10.097  2.3449  0.3623 -1.2039
  326MOL0     H43971   8.972  12.704   9.910 -0.7371 -4.6191 -1.4967
  326MOL0     H43972   9.143  12.765   9.882 -0.8939 -1.3779 -1.8169
  326MOL0     H43973   9.107  12.602   9.888  0.6137  0.5677 -2.1035
  326MOL0     H43974   9.142  13.242  10.041 -0.1181 -0.9048 -0.1979
  326MOL0     H43975   9.061  13.474   9.997 -0.7646  0.2103 -1.8989
  326MOL0     H43976   8.689  13.717  10.009  0.4880  0.8162 -0.4066
  326MOL0     H43977   8.625  13.557  10.054 -0.6434  0.5966  1.5503
  326MOL0     H43978   8.754  13.582  10.283  2.8575  2.4176  1.4252
  326MOL0     H43979   8.787  13.742  10.247  0.2910 -2.2721  4.7000
  326MOL0     H43980   8.535  13.757  10.184 -1.6147  1.9123  0.9706
  326MOL0     H43981   8.601  13.797  10.340  1.8853 -0.1495 -0.3337
  326MOL0     H43982   8.472  13.519  10.261 -1.8745  0.9725 -0.3010
  326MOL0     H43983   8.555  13.544  10.406  2.8798  0.5090 -0.9797
  326MOL0     H43984   8.295  13.588  10.411  0.8184 -1.5458  1.5351
  326MOL0     H43985   8.328  13.717  10.297 -1.3155  0.7566  1.6773
  326MOL0     H43986   8.456  13.700  10.581 -1.1136  2.4737  1.8883
  326MOL0     H43987   8.436  13.844  10.486 -0.5245 -0.0742 -0.6492
  326MOL0     H43988   8.175  13.807  10.510  1.5957  7.9396  0.5721
  326MOL0     H43989   8.268  13.849  10.653  0.2425  1.5781 -2.1060
  326MOL0     H43990   8.285  13.580  10.668  2.5745  2.2722  0.4041
  326MOL0     H43991   8.125  13.579  10.590 -0.2609  0.6651 -1.2709
  326MOL0     H43992   8.671  13.355  10.127  0.4274  2.9513 -2.4953
  326MOL0     H43993   8.754  13.151  10.216 -0.1814  0.2838  0.3762
  326MOL0     H43994   9.076  12.906  10.360 -1.4298 -0.7952  0.9335
  326MOL0     H43995   9.119  12.685  10.476 -0.9062 -3.1831  0.1997
  326MOL0     H43996  10.578  11.294  10.298  3.0158 -0.5993 -1.4498
  326MOL0     H43997  10.736  11.105  10.214 -0.4548 -0.3791  0.3613
  326MOL0     H43998  10.660  10.512  10.098  0.9150  1.4229 -5.5510
  326MOL0     H43999  10.838  10.349  10.027 -0.2895  0.8530 -1.1886
  326MOL0     H44000  11.074  10.245  10.185  1.7551 -0.3201  1.0055
  326MOL0     H44001  10.999  10.206  10.020  2.0766 -2.7355 -0.7853
  326MOL0     H44002  11.191  10.080  10.062 -1.3094 -0.1170 -0.0892
  326MOL0     H44003  11.293  10.228  10.072 -1.0387 -1.1602  1.7051
  326MOL0     H44004  11.228  10.255   9.823  2.8530  0.4557  0.7823
  326MOL0     H44005  11.126  10.104   9.842 -0.1169  0.4950 -0.7630
  326MOL0     H44006  11.423  10.095   9.907 -0.1812 -3.5779  3.4030
  326MOL0     H44007  11.365  10.115   9.735  0.4970 -0.2903  0.9289
  326MOL0     H44008  11.348   9.728   9.745  0.3960  1.0358  0.1036
  326MOL0     H44009  11.131  10.613  10.181 -0.6470  0.0249  0.9297
  326MOL0     H44010  10.967  10.771  10.268  2.0649 -0.7922  1.8701
  327MOL0     O44011   9.620   2.898   3.994 -0.5528  0.5914 -0.1997
  327MOL0     C44012   9.675   3.002   3.955 -0.3368  0.1882  1.5133
  327MOL0     O44013   9.699   3.118   4.031  0.1002 -0.3988 -0.1935
  327MOL0     C44014   9.651   3.130   4.165  0.2802 -0.4391  0.1666
  327MOL0     C44015   9.616   3.257   4.207  0.4524 -0.3225 -0.1411
  327MOL0     C44016   9.571   3.284   4.338 -0.6371 -0.6439 -0.1715
  327MOL0     C44017   9.557   3.181   4.435 -0.2680  0.1875 -0.2780
  327MOL0     O44018   9.521   3.197   4.570  0.1441  0.5489  0.2090
  327MOL0     C44019   9.549   3.323   4.629 -0.3205 -0.4491  1.3652
  327MOL0     C44020   9.418   3.413   4.624 -0.4061 -0.4376 -0.3934
  327MOL0     C44021   9.406   3.548   4.690  0.0724  0.1113 -0.2877
  327MOL0     C44022   9.309   3.651   4.641  0.7568  0.1655  0.1180
  327MOL0     C44023   9.168   3.608   4.690  0.1077 -0.5085  0.4142
  327MOL0     C44024   9.053   3.712   4.658  0.1929  0.1847  0.1155
  327MOL0     C44025   8.909   3.668   4.676 -0.1099  0.0624  0.2532
  327MOL0     C44026   8.813   3.763   4.611  0.4713 -0.2765  0.7861
  327MOL0     N44027   8.834   3.788   4.467 -0.3130 -0.3844  0.2218
  327MOL0     C44028   8.815   3.700   4.363 -0.8081  0.2858  0.4933
  327MOL0     C44029   8.866   3.770   4.255  0.2329  0.0923  0.4546
  327MOL0     C44030   8.909   3.722   4.114 -0.1926  0.7234 -0.1267
  327MOL0     C44031   8.786   3.739   4.027 -0.2037  0.3849 -0.1841
  327MOL0     C44032   8.844   3.808   3.894 -0.7745 -0.2445 -0.7748
  327MOL0     C44033   8.719   3.832   3.806  0.1026 -0.2060  0.1778
  327MOL0     O44034   8.758   3.889   3.676 -0.3140 -0.1106 -0.6780
  327MOL0     C44035   8.659   3.888   3.577 -0.4991 -0.2037  0.4136
  327MOL0     C44036   8.703   3.928   3.446  0.8487 -0.4705 -0.1055
  327MOL0     C44037   8.611   3.933   3.327 -0.8237  0.1389  0.0315
  327MOL0     C44038   8.666   3.988   3.194  0.2926 -0.1546 -0.7097
  327MOL0     C44039   8.478   3.891   3.352  0.2150 -0.2768  0.4077
  327MOL0     C44040   8.371   3.884   3.246 -0.4288  0.0890  0.1199
  327MOL0     O44041   8.253   3.831   3.291  0.3986 -0.4778 -0.4002
  327MOL0     C44042   8.155   3.832   3.199 -0.4725  0.3228  0.2847
  327MOL0     C44043   8.045   3.911   3.214 -0.5467 -0.3156  0.4539
  327MOL0     C44044   7.933   3.905   3.129 -0.3192  0.2838 -0.0974
  327MOL0     C44045   7.938   3.825   3.012 -0.3069 -0.1737 -0.8917
  327MOL0     O44046   7.827   3.819   2.936 -0.2894 -0.5974 -0.2796
  327MOL0     C44047   7.860   3.857   2.806  0.5156 -0.3249 -0.3518
  327MOL0     C44048   7.750   3.818   2.706  0.6311 -0.2132 -0.0617
  327MOL0     C44049   7.758   3.664   2.662 -0.5261 -0.4123  1.0928
  327MOL0     C44050   7.637   3.600   2.592  0.5507  0.1512  0.1467
  327MOL0     C44051   7.577   3.682   2.473 -0.2658 -0.1180 -0.4603
  327MOL0     C44052   7.470   3.615   2.391  0.0088  0.1456  0.4710
  327MOL0     C44053   7.536   3.520   2.289 -0.3760 -0.1062  0.3358
  327MOL0     C44054   7.431   3.435   2.204 -0.4023 -0.6921  1.0505
  327MOL0    Cl44055   7.315   3.536   2.114 -0.2006  0.1832  0.0747
  327MOL0     C44056   8.052   3.739   3.008  0.5932 -0.1633 -0.2525
  327MOL0     C44057   8.160   3.745   3.097  0.1652  0.1897 -0.6639
  327MOL0     O44058   8.388   3.947   3.144 -0.0877  0.0070 -0.5061
  327MOL0     C44059   8.436   3.848   3.481 -0.4528 -0.1972 -0.0361
  327MOL0     C44060   8.527   3.853   3.586 -0.2568 -0.4745 -0.3901
  327MOL0     N44061   8.905   3.890   4.292 -0.5936 -0.3825 -0.5434
  327MOL0     N44062   8.881   3.912   4.423 -0.9111  0.1158  0.7847
  327MOL0     C44063   9.601   3.054   4.390 -0.3656 -0.0417  0.5429
  327MOL0     C44064   9.642   3.027   4.255 -0.1413 -0.1568 -0.6541
  327MOL0     C44065   9.715   2.995   3.814  0.4566 -0.3340 -0.3737
  327MOL0     C44066   9.797   3.098   3.768 -0.3427 -0.8635  0.7410
  327MOL0     C44067   9.850   3.093   3.639 -0.5438  0.8235 -0.4269
  327MOL0     C44068   9.811   2.994   3.547  0.2848 -0.6342 -0.4925
  327MOL0     O44069   9.868   2.962   3.425 -0.4960  0.1791  0.0608
  327MOL0     C44070   9.967   3.057   3.374  0.5035 -0.3306  0.6932
  327MOL0     C44071   9.937   3.064   3.225  0.1039 -0.3778 -0.2460
  327MOL0     C44072   9.970   2.930   3.155 -0.4265 -0.1173 -0.7257
  327MOL0     C44073   9.943   2.925   2.998  0.2772 -0.1407  0.3209
  327MOL0     C44074   9.803   2.930   2.983  0.1686 -0.1272  0.1942
  327MOL0     C44075   9.684   2.948   2.996  0.3550  0.4439 -0.3522
  327MOL0     C44076   9.718   2.896   3.584  0.0739 -1.0667  0.2967
  327MOL0     C44077   9.671   2.897   3.720 -0.0747 -0.8649 -0.4735
  327MOL0     H44078   9.630   3.343   4.142 -1.6826 -2.3543 -3.5859
  327MOL0     H44079   9.545   3.384   4.370 -0.4069 -0.3594 -0.8532
  327MOL0     H44080   9.575   3.306   4.734  1.8145 -0.5518  0.8522
  327MOL0     H44081   9.635   3.371   4.582 -2.4004  0.6281 -1.5888
  327MOL0     H44082   9.384   3.418   4.520  0.0992  0.5240 -0.5180
  327MOL0     H44083   9.344   3.359   4.683 -0.0065 -0.7729 -0.1930
  327MOL0     H44084   9.402   3.533   4.799  1.5787 -0.0697 -0.2430
  327MOL0     H44085   9.501   3.600   4.676 -0.7006  1.1091 -2.2087
  327MOL0     H44086   9.323   3.749   4.688 -0.3605 -0.3487  1.5853
  327MOL0     H44087   9.317   3.658   4.532 -1.7077  4.0388 -0.0176
  327MOL0     H44088   9.153   3.509   4.645  1.7937 -1.9839  2.8818
  327MOL0     H44089   9.158   3.586   4.797 -0.7747 -1.3951  0.1716
  327MOL0     H44090   9.069   3.807   4.711 -2.5205  0.6974  0.1459
  327MOL0     H44091   9.074   3.739   4.554 -0.3112 -1.1156 -0.3452
  327MOL0     H44092   8.917   3.578   4.614 -0.1229  1.6483 -2.1949
  327MOL0     H44093   8.883   3.643   4.779 -1.0923  1.9296  0.5023
  327MOL0     H44094   8.831   3.856   4.665  2.2175  1.1384 -2.0103
  327MOL0     H44095   8.717   3.718   4.638  0.5455  0.1469  1.7988
  327MOL0     H44096   8.778   3.599   4.349 -1.1048  0.6394 -1.5548
  327MOL0     H44097   8.993   3.781   4.077 -0.1510  1.0135  0.4267
  327MOL0     H44098   8.937   3.616   4.111 -0.4653  0.6258 -3.5273
  327MOL0     H44099   8.711   3.796   4.083 -0.4812  0.5182 -0.6928
  327MOL0     H44100   8.743   3.644   3.995 -0.6920 -0.2455  2.1272
  327MOL0     H44101   8.921   3.748   3.844 -0.0560  1.9563 -2.4742
  327MOL0     H44102   8.886   3.902   3.931 -1.3338 -1.7769  4.5955
  327MOL0     H44103   8.646   3.899   3.851  0.3623  0.3428 -0.2107
  327MOL0     H44104   8.675   3.731   3.804 -0.1356 -0.2148  2.7118
  327MOL0     H44105   8.803   3.968   3.441  0.2266  1.2413  0.6250
  327MOL0     H44106   8.632   4.090   3.172 -0.6872 -0.5545 -1.1210
  327MOL0     H44107   8.775   3.987   3.198  0.2467 -0.6458  0.9533
  327MOL0     H44108   8.628   3.928   3.111 -2.1291  0.1586  0.0810
  327MOL0     H44109   8.045   3.984   3.294  1.3383  0.0391  0.1846
  327MOL0     H44110   7.847   3.967   3.151  0.1062  0.2017  2.0017
  327MOL0     H44111   7.887   3.963   2.817  1.2986 -0.5831  0.2766
  327MOL0     H44112   7.948   3.801   2.774  0.8867 -2.7046  4.0956
  327MOL0     H44113   7.651   3.855   2.734  0.5800  0.0093 -0.5256
  327MOL0     H44114   7.769   3.877   2.616  2.2229  0.9307  0.9675
  327MOL0     H44115   7.786   3.601   2.747 -1.3484 -1.5542  0.5388
  327MOL0     H44116   7.840   3.666   2.590 -0.8555 -2.5271  0.6074
  327MOL0     H44117   7.657   3.503   2.545 -0.5656 -0.3574  0.6829
  327MOL0     H44118   7.561   3.581   2.668 -0.3059  1.7078 -0.2823
  327MOL0     H44119   7.663   3.722   2.418 -0.0696  2.1274  1.3355
  327MOL0     H44120   7.537   3.778   2.506 -2.5412 -1.1573 -0.0061
  327MOL0     H44121   7.408   3.567   2.467 -1.9214  2.7503  0.6982
  327MOL0     H44122   7.402   3.692   2.353  1.5043  1.3025  0.0154
  327MOL0     H44123   7.611   3.458   2.338 -0.3540  0.8173  1.5258
  327MOL0     H44124   7.586   3.587   2.217 -0.4219 -2.1506 -1.7147
  327MOL0     H44125   7.376   3.368   2.271 -2.3266 -1.3079 -1.0494
  327MOL0     H44126   7.478   3.369   2.131  0.9810 -1.2085  2.3445
  327MOL0     H44127   8.048   3.665   2.928  1.5216 -0.7396  0.2197
  327MOL0     H44128   8.244   3.677   3.083 -0.6596 -0.8340 -0.7781
  327MOL0     H44129   8.335   3.815   3.503 -0.3715  0.5463  1.6161
  327MOL0     H44130   8.498   3.806   3.680  0.5403  1.5047  0.9085
  327MOL0     H44131   9.604   2.971   4.460 -2.4578 -0.6040  0.0514
  327MOL0     H44132   9.689   2.931   4.237 -2.2200 -1.0078 -1.8570
  327MOL0     H44133   9.841   3.174   3.832  1.7688 -1.5215  0.1530
  327MOL0     H44134   9.931   3.164   3.631  1.0630 -1.0334 -1.2560
  327MOL0     H44135   9.955   3.163   3.399  3.3551 -0.0208  1.1014
  327MOL0     H44136  10.063   3.026   3.415 -0.4205 -3.3205  0.8153
  327MOL0     H44137   9.997   3.137   3.171 -0.7564  0.2862 -0.3269
  327MOL0     H44138   9.836   3.099   3.201  1.1149  1.9454 -1.3440
  327MOL0     H44139   9.924   2.843   3.203  0.0851  0.2038  0.3912
  327MOL0     H44140  10.080   2.930   3.158 -0.3939  1.0738  2.2721
  327MOL0     H44141   9.980   2.831   2.954  0.7588 -1.6536  3.6811
  327MOL0     H44142   9.986   3.004   2.936 -1.9089  0.7697 -0.1296
  327MOL0     H44143   9.579   2.935   3.009 -0.1415  2.5467 -1.7518
  327MOL0     H44144   9.684   2.821   3.513 -2.4230  0.3718 -0.1494
  327MOL0     H44145   9.603   2.822   3.758 -0.6000 -0.1454  0.0442
  328MOL0     O44146   0.538   0.271   4.994 -0.3363 -0.0397  0.3052
  328MOL0     C44147   0.528   0.345   5.090 -0.4194  0.0994 -0.0682
  328MOL0     O44148   0.509   0.304   5.221 -0.1478 -0.4982  0.7979
  328MOL0     C44149   0.523   0.165   5.246  1.7756 -0.1195  0.4164
  328MOL0     C44150   0.407   0.092   5.260  0.1708 -0.6034 -0.6259
  328MOL0     C44151   0.413  -0.034   5.305 -0.1676  0.4513 -0.6984
  328MOL0     C44152   0.534  -0.097   5.326  0.1758  0.8016  0.1310
  328MOL0     O44153   0.527  -0.221   5.389 -0.1518 -0.4361 -0.0648
  328MOL0     C44154   0.639  -0.295   5.402 -1.0659  0.0281  0.8967
  328MOL0     C44155   0.629  -0.415   5.489  0.2474  0.2465  0.3604
  328MOL0     C44156   0.758  -0.490   5.507 -0.1438 -0.9042  0.8639
  328MOL0     C44157   0.754  -0.575   5.629 -0.8437 -0.6670 -0.1564
  328MOL0     C44158   0.898  -0.645   5.635  0.4845  0.5116 -0.6656
  328MOL0     C44159   1.023  -0.567   5.687  0.6725 -0.0256 -0.0507
  328MOL0     C44160   1.130  -0.647   5.750  0.0531 -0.1563  0.0293
  328MOL0     C44161   1.238  -0.568   5.828  0.2107 -0.0068  0.2241
  328MOL0     N44162   1.185  -0.454   5.900  0.5549 -0.8027 -0.0440
  328MOL0     C44163   1.179  -0.327   5.846 -0.4983  0.8735  0.5238
  328MOL0     C44164   1.073  -0.278   5.900  0.6694 -0.3198 -0.4856
  328MOL0     C44165   1.009  -0.139   5.882 -0.9074 -0.1983  0.5055
  328MOL0     C44166   0.908  -0.143   5.772 -0.2741 -1.3601  0.0220
  328MOL0     C44167   0.827  -0.007   5.774  0.0233  0.2200  0.6673
  328MOL0     C44168   0.717  -0.025   5.663 -0.1003 -0.6275  0.3013
  328MOL0     O44169   0.610   0.068   5.711  0.4083  0.3835  0.4925
  328MOL0     C44170   0.607   0.204   5.670 -0.2603  0.0204  0.9768
  328MOL0     C44171   0.693   0.275   5.586 -0.3136 -0.3299  0.2656
  328MOL0     C44172   0.668   0.406   5.550  0.1928  0.4875  0.0082
  328MOL0     C44173   0.752   0.479   5.454  1.5168 -0.4160 -0.2618
  328MOL0     C44174   0.567   0.480   5.611  0.1944  0.0606 -0.0729
  328MOL0     C44175   0.530   0.622   5.590  0.3299 -0.5735 -0.4317
  328MOL0     O44176   0.401   0.658   5.621  0.0844 -0.3076  0.3247
  328MOL0     C44177   0.363   0.786   5.672 -0.5802 -0.4170  0.7670
  328MOL0     C44178   0.225   0.790   5.707 -0.4812  0.4555  0.1686
  328MOL0     C44179   0.175   0.899   5.779  0.3140 -0.6928  0.5159
  328MOL0     C44180   0.250   1.012   5.793  0.1900 -1.1544 -0.0633
  328MOL0     O44181   0.185   1.110   5.871  0.0061 -0.0750  0.5994
  328MOL0     C44182   0.179   1.242   5.812  0.0334  0.1261 -0.6301
  328MOL0     C44183   0.137   1.342   5.929  0.9817  0.4355  0.2864
  328MOL0     C44184   0.015   1.300   6.002  0.1573  0.4422 -0.5297
  328MOL0     C44185  -0.055   1.410   6.077 -1.1858  0.2251 -0.9337
  328MOL0     C44186  -0.167   1.356   6.165 -0.9747 -0.0293  0.8224
  328MOL0     C44187  -0.111   1.303   6.296  0.4732 -0.7535 -0.4766
  328MOL0     C44188  -0.224   1.278   6.400  0.1689  0.1826 -0.0205
  328MOL0     C44189  -0.179   1.238   6.535 -0.1984 -0.2815 -0.4833
  328MOL0    Cl44190  -0.138   1.064   6.533  0.0373 -0.1228  0.2001
  328MOL0     C44191   0.379   1.025   5.755  0.4356  0.3599 -0.0670
  328MOL0     C44192   0.439   0.900   5.706 -0.3620 -0.3444  0.9835
  328MOL0     O44193   0.623   0.696   5.556 -0.3604  0.6466 -0.1342
  328MOL0     C44194   0.478   0.405   5.689  0.0684  0.1435  0.3822
  328MOL0     C44195   0.501   0.269   5.720  0.5917 -0.7991  1.0189
  328MOL0     N44196   1.020  -0.364   5.990 -0.4626 -0.1685 -0.1834
  328MOL0     N44197   1.081  -0.475   5.991  0.2554  0.1975  0.1387
  328MOL0     C44198   0.655  -0.034   5.277 -0.3089 -0.1126  0.4154
  328MOL0     C44199   0.651   0.098   5.256  0.0464 -1.1579  0.6353
  328MOL0     C44200   0.536   0.490   5.059  1.0288 -0.7335  0.6388
  328MOL0     C44201   0.494   0.580   5.169  0.4532 -0.6134  0.6098
  328MOL0     C44202   0.502   0.715   5.150 -0.4656  1.1320  0.5192
  328MOL0     C44203   0.533   0.778   5.022 -0.6602 -1.0233  0.8432
  328MOL0     O44204   0.543   0.917   5.032 -0.2139 -0.2790 -0.2259
  328MOL0     C44205   0.604   0.985   4.919  0.5369 -0.3586  0.8009
  328MOL0     C44206   0.497   1.006   4.808  0.2347  0.3931 -0.0779
  328MOL0     C44207   0.532   1.087   4.676 -0.6754 -0.2146 -0.3060
  328MOL0     C44208   0.591   1.003   4.564 -0.8025  0.4788 -0.2881
  328MOL0     C44209   0.504   0.904   4.497  0.7331 -0.7896  1.0771
  328MOL0     C44210   0.418   0.824   4.466  0.6948 -0.6458  0.5496
  328MOL0     C44211   0.551   0.684   4.913  0.1203 -0.6342  1.3268
  328MOL0     C44212   0.557   0.545   4.934  0.6074  0.3563 -0.1726
  328MOL0     H44213   0.311   0.142   5.256  1.4439  2.4583  2.1941
  328MOL0     H44214   0.329  -0.095   5.337 -2.7301  4.2276  0.4862
  328MOL0     H44215   0.676  -0.324   5.303 -0.5119  2.9595  0.1284
  328MOL0     H44216   0.728  -0.241   5.436  0.1552 -1.4968  0.2681
  328MOL0     H44217   0.595  -0.387   5.589 -3.0343 -2.4410  0.2026
  328MOL0     H44218   0.550  -0.481   5.449 -0.8844  1.1540  1.0396
  328MOL0     H44219   0.775  -0.559   5.423 -2.0079 -0.9645  0.4866
  328MOL0     H44220   0.836  -0.413   5.510 -0.3548 -0.5157 -1.6526
  328MOL0     H44221   0.744  -0.518   5.722 -0.1815 -0.7240 -0.0422
  328MOL0     H44222   0.668  -0.642   5.629 -2.0176  0.7521 -1.4316
  328MOL0     H44223   0.888  -0.723   5.710  2.2113 -0.4900 -1.4197
  328MOL0     H44224   0.927  -0.702   5.546 -2.4207 -1.7460 -0.3128
  328MOL0     H44225   1.066  -0.499   5.613 -3.3622  1.1083 -1.6236
  328MOL0     H44226   0.971  -0.500   5.756 -0.4871 -2.2488  1.3402
  328MOL0     H44227   1.075  -0.702   5.827 -1.0612 -1.2797 -1.5248
  328MOL0     H44228   1.171  -0.722   5.682  2.6676 -0.2352  1.5381
  328MOL0     H44229   1.311  -0.537   5.753 -1.2921 -0.4042 -1.4525
  328MOL0     H44230   1.278  -0.636   5.904  4.4291  0.3600 -1.4153
  328MOL0     H44231   1.243  -0.278   5.773 -0.0909  0.8394  0.8531
  328MOL0     H44232   0.967  -0.107   5.978  4.0490 -1.2687  3.3688
  328MOL0     H44233   1.082  -0.064   5.849 -0.9283  0.0118  0.9246
  328MOL0     H44234   0.842  -0.229   5.776  0.5889 -2.0009  1.2661
  328MOL0     H44235   0.956  -0.154   5.674 -0.4846 -0.3908 -0.2067
  328MOL0     H44236   0.874   0.087   5.747 -3.7534  1.8464 -1.0522
  328MOL0     H44237   0.773   0.010   5.867 -1.3172 -0.0569 -0.0295
  328MOL0     H44238   0.689  -0.131   5.656  3.7091 -2.0024  2.5351
  328MOL0     H44239   0.748   0.012   5.565 -2.5192 -2.1702 -1.1542
  328MOL0     H44240   0.784   0.230   5.548  0.4276  0.7603  0.7013
  328MOL0     H44241   0.812   0.412   5.392  0.6228 -0.6280 -0.9115
  328MOL0     H44242   0.691   0.544   5.391  2.1954 -0.4834 -1.0097
  328MOL0     H44243   0.822   0.546   5.506 -1.5987  3.1774 -0.2942
  328MOL0     H44244   0.173   0.696   5.692  0.5660 -1.2792  5.1903
  328MOL0     H44245   0.082   0.885   5.833  0.6289  0.1010  1.2832
  328MOL0     H44246   0.276   1.283   5.782  0.3196  1.4349  1.8062
  328MOL0     H44247   0.112   1.243   5.726 -2.9297  0.7605  1.5162
  328MOL0     H44248   0.221   1.361   5.997 -1.1382  3.0702  2.3585
  328MOL0     H44249   0.111   1.441   5.891  0.5359 -0.0199 -0.6126
  328MOL0     H44250   0.052   1.228   6.076  0.3832 -0.2015 -1.2616
  328MOL0     H44251  -0.050   1.244   5.935 -0.9372  0.1592  0.7240
  328MOL0     H44252   0.012   1.470   6.140 -0.5252 -2.0194  0.6388
  328MOL0     H44253  -0.097   1.486   6.011  1.9832  3.6148  0.6046
  328MOL0     H44254  -0.219   1.282   6.104  0.5414  0.0080 -0.5928
  328MOL0     H44255  -0.229   1.444   6.187  0.1124  1.2410 -0.9744
  328MOL0     H44256  -0.064   1.206   6.278  3.8943 -0.0437  3.2362
  328MOL0     H44257  -0.032   1.366   6.338 -0.1698 -0.1011 -0.2155
  328MOL0     H44258  -0.300   1.213   6.355 -0.2779  1.5604 -1.3231
  328MOL0     H44259  -0.271   1.375   6.420  2.4801  1.2373  0.7497
  328MOL0     H44260  -0.255   1.265   6.608 -1.3651  1.1616 -2.1593
  328MOL0     H44261  -0.090   1.300   6.553 -1.2254  0.9441  0.5730
  328MOL0     H44262   0.438   1.115   5.770  0.6458 -0.1148  2.2913
  328MOL0     H44263   0.547   0.903   5.696 -0.1439 -1.6388  2.4573
  328MOL0     H44264   0.389   0.450   5.732  1.2110  2.3176  0.6347
  328MOL0     H44265   0.443   0.217   5.796  2.9361 -2.1376  1.9982
  328MOL0     H44266   0.755  -0.076   5.273 -0.1655  0.3014 -3.2722
  328MOL0     H44267   0.739   0.157   5.235 -1.6171  0.9413 -0.9035
  328MOL0     H44268   0.479   0.547   5.272 -1.8355 -0.0245  0.5176
  328MOL0     H44269   0.488   0.776   5.239  2.1257 -1.9186  3.2469
  328MOL0     H44270   0.656   1.080   4.931  1.1531 -0.5172 -0.4358
  328MOL0     H44271   0.687   0.934   4.870 -1.3049 -1.3899 -1.4253
  328MOL0     H44272   0.408   1.052   4.853 -0.6810 -3.1198  2.1023
  328MOL0     H44273   0.458   0.909   4.778 -2.1367  0.9707  0.9236
  328MOL0     H44274   0.609   1.161   4.701 -1.6433 -0.0687  2.7523
  328MOL0     H44275   0.438   1.134   4.646 -0.5130  1.5111  1.6655
  328MOL0     H44276   0.673   0.935   4.590 -2.3877 -1.4381 -0.0301
  328MOL0     H44277   0.619   1.059   4.474  0.9141 -3.6889 -2.6420
  328MOL0     H44278   0.331   0.770   4.435  0.3843  0.9815 -1.5891
  328MOL0     H44279   0.564   0.716   4.810 -0.1562 -3.0994  0.4715
  328MOL0     H44280   0.584   0.479   4.852 -0.2406  2.0512 -1.8717
  329MOL0     O44281   6.781   2.094   8.640  0.1609 -0.2149 -0.3080
  329MOL0     C44282   6.755   2.207   8.591  0.0931 -0.3073 -0.2367
  329MOL0     O44283   6.634   2.264   8.592 -0.5857  0.1884 -0.0454
  329MOL0     C44284   6.529   2.195   8.643  0.0189 -0.2788  0.1250
  329MOL0     C44285   6.454   2.253   8.748  0.1569 -0.4291 -0.4043
  329MOL0     C44286   6.336   2.190   8.796  0.3179  0.2731  0.8151
  329MOL0     C44287   6.285   2.075   8.736  0.1121 -0.1208  0.1306
  329MOL0     O44288   6.165   2.033   8.778 -0.8389 -0.6442  0.1123
  329MOL0     C44289   6.148   1.892   8.813 -0.3221 -0.0284  0.7277
  329MOL0     C44290   6.043   1.873   8.919  0.7377  0.1226 -0.0744
  329MOL0     C44291   6.039   1.724   8.975  0.3663 -0.6100  0.7896
  329MOL0     C44292   5.988   1.729   9.118 -0.5163 -0.2754 -0.7336
  329MOL0     C44293   5.996   1.591   9.181  0.1649  0.2084  0.6063
  329MOL0     C44294   5.932   1.590   9.315  0.9604 -0.7056  0.8698
  329MOL0     C44295   6.014   1.652   9.429 -0.2795  0.4530  0.5271
  329MOL0     C44296   5.940   1.639   9.559  0.3303  0.4506  0.6017
  329MOL0     N44297   5.990   1.522   9.641 -0.7475  0.5393 -0.2252
  329MOL0     C44298   5.923   1.408   9.651  0.3995 -0.0229  0.3324
  329MOL0     C44299   5.995   1.331   9.729 -0.2566 -0.4375 -0.2002
  329MOL0     C44300   5.967   1.181   9.763 -0.1696 -0.0517 -0.4555
  329MOL0     C44301   6.021   1.102   9.647  0.3587 -0.2763 -0.2384
  329MOL0     C44302   6.172   1.079   9.664 -0.5286 -0.2651  0.6879
  329MOL0     C44303   6.249   1.027   9.534 -0.1247 -0.4514 -0.8200
  329MOL0     O44304   6.174   0.920   9.479  0.2139  0.2271  0.3469
  329MOL0     C44305   6.233   0.830   9.388 -0.0551  0.1632 -1.2747
  329MOL0     C44306   6.364   0.820   9.348  0.7337  1.6070 -0.4973
  329MOL0     C44307   6.416   0.711   9.278 -0.1880  0.0281  0.0729
  329MOL0     C44308   6.562   0.728   9.232  0.2643 -0.4702 -0.2662
  329MOL0     C44309   6.322   0.604   9.239 -0.3449 -0.0123  0.1021
  329MOL0     C44310   6.362   0.466   9.187 -0.1066 -0.0085  0.8449
  329MOL0     O44311   6.258   0.386   9.146 -0.4056 -0.3461  0.1729
  329MOL0     C44312   6.264   0.263   9.100 -0.7474  1.6867 -0.7388
  329MOL0     C44313   6.144   0.222   9.051  0.4872  0.6459  0.5136
  329MOL0     C44314   6.120   0.084   9.012 -0.1845 -0.0622 -0.0488
  329MOL0     C44315   6.219  -0.006   9.022 -0.4528  0.2177  1.4091
  329MOL0     O44316   6.208  -0.139   8.975 -0.1811 -0.8688  0.0549
  329MOL0     C44317   6.086  -0.191   8.912 -0.7223  0.6049 -0.0900
  329MOL0     C44318   6.051  -0.345   8.899 -0.0684  0.1131 -0.4180
  329MOL0     C44319   6.046  -0.425   9.022 -0.2654 -0.2019  1.0556
  329MOL0     C44320   6.115  -0.560   9.006 -0.0416 -0.8838  0.3463
  329MOL0     C44321   6.266  -0.552   9.004  0.3763 -0.6802  0.0893
  329MOL0     C44322   6.318  -0.528   9.141 -0.5641  0.3641 -0.1370
  329MOL0     C44323   6.470  -0.534   9.134  0.0438 -0.5728 -0.0828
  329MOL0     C44324   6.539  -0.539   9.269  0.5508  0.3650  0.1382
  329MOL0    Cl44325   6.515  -0.679   9.364 -0.2595  0.1705  0.1061
  329MOL0     C44326   6.343   0.033   9.071  0.1283 -0.8858 -0.2984
  329MOL0     C44327   6.369   0.170   9.112  0.4878 -0.3538  0.1896
  329MOL0     O44328   6.473   0.433   9.195  0.2528  0.5603 -0.1108
  329MOL0     C44329   6.181   0.636   9.250 -0.9429 -0.3862  0.5562
  329MOL0     C44330   6.143   0.737   9.330  0.0093 -0.3705  0.5725
  329MOL0     N44331   6.118   1.392   9.767  0.3388 -0.1788 -0.3951
  329MOL0     N44332   6.111   1.509   9.708 -0.0910 -0.4820  0.8802
  329MOL0     C44333   6.347   2.024   8.622 -0.0999 -0.0581  0.8383
  329MOL0     C44334   6.469   2.082   8.578 -0.6555 -0.2717  0.3570
  329MOL0     C44335   6.868   2.291   8.547  1.3940 -0.3810  0.4402
  329MOL0     C44336   6.996   2.232   8.537  0.2224 -0.2723  0.3541
  329MOL0     C44337   7.102   2.312   8.518 -0.6688 -0.3369  0.6002
  329MOL0     C44338   7.089   2.453   8.490  0.1872 -0.1507  0.3107
  329MOL0     O44339   7.209   2.522   8.481 -0.4317  0.3143  0.3802
  329MOL0     C44340   7.208   2.660   8.482 -0.3208 -1.2153 -0.8865
  329MOL0     C44341   7.353   2.707   8.480 -0.6839  0.2907  0.6992
  329MOL0     C44342   7.370   2.856   8.478 -0.0746 -1.2529  0.3899
  329MOL0     C44343   7.427   2.921   8.604  0.2635 -0.5132 -0.3021
  329MOL0     C44344   7.425   3.072   8.607  0.8356 -0.2352  0.1435
  329MOL0     C44345   7.416   3.196   8.593  1.2205  0.2688  0.3218
  329MOL0     C44346   6.960   2.510   8.497 -0.5937 -0.4646  1.2833
  329MOL0     C44347   6.845   2.428   8.509  0.1402  0.6109  0.0065
  329MOL0     H44348   6.485   2.347   8.792 -0.8552 -1.0376  1.7341
  329MOL0     H44349   6.271   2.239   8.868 -0.6647 -0.1540  0.2484
  329MOL0     H44350   6.116   1.834   8.725  2.1609 -0.2150 -0.1171
  329MOL0     H44351   6.236   1.844   8.856  0.1456  1.4587  1.4726
  329MOL0     H44352   6.072   1.939   9.001 -0.5460 -0.4609  0.8950
  329MOL0     H44353   5.938   1.895   8.899 -0.1362 -3.4016  0.0058
  329MOL0     H44354   5.978   1.660   8.911  0.8834 -1.1426  0.8210
  329MOL0     H44355   6.143   1.689   8.978  2.4146  4.6257  1.9300
  329MOL0     H44356   6.036   1.805   9.180 -2.6305  0.7498 -0.2493
  329MOL0     H44357   5.883   1.757   9.130 -2.3255 -5.0686 -2.8719
  329MOL0     H44358   5.943   1.527   9.110 -1.7665  1.6522  0.6696
  329MOL0     H44359   6.091   1.538   9.192 -1.1815 -2.4699 -0.0640
  329MOL0     H44360   5.833   1.637   9.311  1.7125  0.9939  1.2098
  329MOL0     H44361   5.918   1.484   9.334 -1.8205 -0.0271  3.1853
  329MOL0     H44362   6.109   1.598   9.436 -1.8597 -2.2876  4.4223
  329MOL0     H44363   6.016   1.757   9.401  0.7242  0.5077  0.7642
  329MOL0     H44364   5.839   1.607   9.532 -0.0513  0.8605  1.4814
  329MOL0     H44365   5.925   1.734   9.612 -2.7937 -0.2155  1.1097
  329MOL0     H44366   5.826   1.391   9.604 -0.7507  1.4389  2.0489
  329MOL0     H44367   6.036   1.156   9.845  0.9489 -0.1907 -1.4173
  329MOL0     H44368   5.862   1.170   9.794  0.2481  1.9814  1.9519
  329MOL0     H44369   6.012   1.162   9.556  0.7423  0.4696  0.2039
  329MOL0     H44370   5.973   1.005   9.630  0.7753 -0.3332 -1.1105
  329MOL0     H44371   6.181   1.003   9.742  1.7045  0.6835  1.4361
  329MOL0     H44372   6.230   1.167   9.696  1.4513 -0.4299 -2.0011
  329MOL0     H44373   6.349   0.997   9.565 -0.1980 -1.2165 -1.2972
  329MOL0     H44374   6.254   1.117   9.472 -2.2132  2.1518  2.4644
  329MOL0     H44375   6.434   0.895   9.382  2.2775 -0.0479  0.1647
  329MOL0     H44376   6.582   0.683   9.134  0.4567  1.5727 -1.2238
  329MOL0     H44377   6.579   0.835   9.219  1.3138 -1.0118 -5.3208
  329MOL0     H44378   6.636   0.684   9.299 -0.2962 -1.7202 -0.4385
  329MOL0     H44379   6.077   0.307   9.053 -0.8559 -0.2518 -1.9485
  329MOL0     H44380   6.023   0.051   8.976 -0.2554 -1.9765  1.6837
  329MOL0     H44381   5.992  -0.147   8.946 -0.3092  1.0990  0.4499
  329MOL0     H44382   6.096  -0.154   8.810  2.3570 -3.1830 -1.4102
  329MOL0     H44383   5.949  -0.348   8.859 -1.0811 -2.0254  2.0012
  329MOL0     H44384   6.115  -0.384   8.819  2.5218  1.3114  0.9483
  329MOL0     H44385   5.938  -0.436   9.040  0.0920 -2.2617  2.2412
  329MOL0     H44386   6.092  -0.367   9.103  1.1389  0.8591 -0.4509
  329MOL0     H44387   6.079  -0.636   9.076  1.3530 -0.6043  1.4112
  329MOL0     H44388   6.088  -0.593   8.905  0.9649  0.4097 -0.3872
  329MOL0     H44389   6.312  -0.475   8.942  2.0100 -0.7903  1.0977
  329MOL0     H44390   6.298  -0.653   8.976  1.0022 -0.4420 -0.0542
  329MOL0     H44391   6.287  -0.427   9.169  0.4885  1.0449 -1.3422
  329MOL0     H44392   6.274  -0.602   9.209  1.3583 -1.3945 -0.6997
  329MOL0     H44393   6.504  -0.438   9.094 -1.1513  0.2743  0.8905
  329MOL0     H44394   6.497  -0.607   9.056  1.2570  1.0775 -1.2870
  329MOL0     H44395   6.505  -0.452   9.326  2.6379  0.4842  1.3152
  329MOL0     H44396   6.641  -0.508   9.247  0.4221 -0.3311 -1.5727
  329MOL0     H44397   6.418  -0.046   9.079 -1.2600 -2.5146 -2.3626
  329MOL0     H44398   6.469   0.183   9.152 -0.2150 -2.6659  3.0807
  329MOL0     H44399   6.105   0.571   9.210  2.1264 -2.5707 -2.2819
  329MOL0     H44400   6.039   0.736   9.361  0.2130 -2.3606  1.3379
  329MOL0     H44401   6.321   1.931   8.573  1.6835  0.4668 -1.2482
  329MOL0     H44402   6.535   2.053   8.497  1.5422  0.4354  1.8043
  329MOL0     H44403   7.016   2.126   8.546 -0.2668 -0.5291 -1.3038
  329MOL0     H44404   7.205   2.278   8.519 -0.1493  1.1465  0.2739
  329MOL0     H44405   7.160   2.702   8.393 -3.7730  0.6268  1.6264
  329MOL0     H44406   7.154   2.708   8.564  0.4738  0.2073 -1.1708
  329MOL0     H44407   7.394   2.667   8.387 -1.0576  1.6202 -0.0760
  329MOL0     H44408   7.412   2.662   8.560  2.0381  0.5606 -1.0201
  329MOL0     H44409   7.271   2.893   8.449 -0.7746 -3.4665 -0.2675
  329MOL0     H44410   7.425   2.883   8.387 -0.7755 -1.1027  0.0048
  329MOL0     H44411   7.522   2.873   8.631  0.3295  0.3000  1.0214
  329MOL0     H44412   7.360   2.897   8.687 -0.2849  2.0833  0.1036
  329MOL0     H44413   7.426   3.297   8.559 -1.2396 -0.3703 -2.8358
  329MOL0     H44414   6.939   2.616   8.486 -2.6227 -0.9930 -0.5059
  329MOL0     H44415   6.742   2.463   8.510 -1.2301 -2.9885 -0.8101
  330MOL0     O44416   4.864  10.511   0.992 -0.0679 -0.5148 -0.1405
  330MOL0     C44417   4.866  10.434   0.896 -0.3329 -0.4320 -0.0568
  330MOL0     O44418   4.905  10.306   0.896 -0.1584  0.2850 -0.2334
  330MOL0     C44419   4.996  10.276   0.999 -0.4312 -0.0003  0.7952
  330MOL0     C44420   4.971  10.160   1.067  0.8545 -0.3304 -0.2323
  330MOL0     C44421   5.050  10.119   1.172 -0.9495 -0.0091 -0.2691
  330MOL0     C44422   5.169  10.194   1.216 -0.6049  0.2341 -0.0260
  330MOL0     O44423   5.241  10.139   1.317 -0.0824  0.2808  0.2556
  330MOL0     C44424   5.294  10.242   1.408  0.0780  0.4158 -1.2905
  330MOL0     C44425   5.342  10.175   1.535  0.6346  0.3814 -0.5647
  330MOL0     C44426   5.220  10.147   1.618  0.5651 -0.5885  0.1819
  330MOL0     C44427   5.238  10.040   1.721  0.0835  0.6538  1.2586
  330MOL0     C44428   5.123  10.045   1.821 -0.1445  0.7644 -0.6944
  330MOL0     C44429   5.133   9.938   1.933  1.1582  0.7122  0.2797
  330MOL0     C44430   5.268   9.892   1.972  1.0764  0.8988 -0.4506
  330MOL0     C44431   5.266   9.783   2.076 -0.7261  0.5098  0.1895
  330MOL0     N44432   5.392   9.713   2.091  0.8516 -0.4395 -0.4163
  330MOL0     C44433   5.441   9.629   1.994 -0.1086  0.2762 -0.2235
  330MOL0     C44434   5.557   9.576   2.041 -0.3287 -0.6986  0.3152
  330MOL0     C44435   5.649   9.481   1.978 -0.3634  0.4884 -0.1946
  330MOL0     C44436   5.566   9.378   1.893  0.5676  0.6286 -0.0191
  330MOL0     C44437   5.657   9.291   1.814 -0.1908 -0.2366  1.3317
  330MOL0     C44438   5.591   9.207   1.700  0.4874 -0.8498 -0.3490
  330MOL0     O44439   5.495   9.276   1.620  0.0408  0.1200  0.1243
  330MOL0     C44440   5.446   9.218   1.510  0.6395  0.7585 -0.0478
  330MOL0     C44441   5.349   9.291   1.447  0.1960 -0.3123 -0.3183
  330MOL0     C44442   5.276   9.244   1.339  0.1867  0.0986 -0.3336
  330MOL0     C44443   5.181   9.345   1.274 -0.3012  0.2656 -0.0519
  330MOL0     C44444   5.291   9.105   1.302 -0.0832 -0.0289 -0.2691
  330MOL0     C44445   5.222   9.036   1.192 -0.0058  0.3265  0.8899
  330MOL0     O44446   5.295   8.940   1.135  0.7328 -0.1849  0.1477
  330MOL0     C44447   5.248   8.875   1.018  0.5986 -0.2783 -0.7186
  330MOL0     C44448   5.194   8.957   0.916  0.1724  0.7622 -0.1075
  330MOL0     C44449   5.170   8.886   0.789 -0.1525 -0.3396  0.1622
  330MOL0     C44450   5.194   8.747   0.774 -0.2938 -0.5401  0.3660
  330MOL0     O44451   5.152   8.693   0.658 -0.0984 -0.5230 -0.3530
  330MOL0     C44452   5.099   8.566   0.656  0.3502  0.1449 -0.9136
  330MOL0     C44453   4.983   8.550   0.760  0.0553  0.1997 -0.6591
  330MOL0     C44454   4.867   8.648   0.749  0.1161 -0.9033 -0.2861
  330MOL0     C44455   4.783   8.641   0.874 -0.8355 -0.1235 -1.1169
  330MOL0     C44456   4.700   8.765   0.883  0.1339  0.4256 -0.4976
  330MOL0     C44457   4.681   8.791   1.032  0.5843 -0.1240  0.8970
  330MOL0     C44458   4.812   8.846   1.100 -1.1642  0.4950  0.2036
  330MOL0     C44459   4.777   8.951   1.205  1.0394 -0.1658  0.3903
  330MOL0    Cl44460   4.653   8.876   1.306  0.5311  0.5755 -0.3264
  330MOL0     C44461   5.249   8.682   0.888 -0.1994  1.5990  0.1896
  330MOL0     C44462   5.268   8.744   1.011 -0.0655  0.0301 -0.6328
  330MOL0     O44463   5.107   9.058   1.169 -0.1472 -0.4020  0.1696
  330MOL0     C44464   5.386   9.033   1.368 -0.5576  0.0700 -0.7720
  330MOL0     C44465   5.461   9.087   1.470 -0.4303  0.9476  0.2576
  330MOL0     N44466   5.576   9.643   2.167 -0.2517 -0.1417  0.2513
  330MOL0     N44467   5.474   9.711   2.194 -0.0523 -0.7146  0.0374
  330MOL0     C44468   5.194  10.322   1.156 -0.1474 -0.1047 -0.2210
  330MOL0     C44469   5.101  10.365   1.047  0.0637  0.8497  0.3220
  330MOL0     C44470   4.814  10.482   0.770  0.0943  0.1244  0.6153
  330MOL0     C44471   4.827  10.407   0.647 -0.5044  0.3289  0.3585
  330MOL0     C44472   4.767  10.455   0.531 -1.1309 -0.2328  0.3259
  330MOL0     C44473   4.677  10.567   0.547 -0.7168 -0.1953 -0.4187
  330MOL0     O44474   4.610  10.619   0.436  0.3108  0.2572  0.0602
  330MOL0     C44475   4.599  10.532   0.320 -0.7586 -0.2447 -0.3786
  330MOL0     C44476   4.506  10.605   0.222 -0.2638 -0.1898 -0.9233
  330MOL0     C44477   4.572  10.720   0.156 -0.1192 -0.3642  0.3011
  330MOL0     C44478   4.476  10.801   0.063 -0.6194 -0.7976 -0.0151
  330MOL0     C44479   4.551  10.911  -0.007 -0.3775  0.2460 -0.6116
  330MOL0     C44480   4.613  11.005  -0.066  0.2832  0.4238 -0.0680
  330MOL0     C44481   4.667  10.648   0.663  0.1585 -0.0139 -0.0922
  330MOL0     C44482   4.732  10.599   0.776 -0.2578 -1.3222 -0.4886
  330MOL0     H44483   4.895  10.093   1.030  2.9184  0.1754 -6.4473
  330MOL0     H44484   5.020  10.034   1.232 -4.9480  2.0027  0.9847
  330MOL0     H44485   5.380  10.303   1.380 -0.5064  3.5042  2.7538
  330MOL0     H44486   5.217  10.317   1.428  1.0432  0.6402  2.1831
  330MOL0     H44487   5.379  10.075   1.516  2.0611  0.7801  0.0228
  330MOL0     H44488   5.413  10.237   1.590 -0.6599 -0.0681  1.7417
  330MOL0     H44489   5.199  10.240   1.670  0.1203 -1.6911  2.0586
  330MOL0     H44490   5.139  10.121   1.549 -1.2231  1.5906  1.3133
  330MOL0     H44491   5.242   9.947   1.664  0.6147  2.6103 -2.1389
  330MOL0     H44492   5.334  10.056   1.770  1.1369 -0.3382 -0.3820
  330MOL0     H44493   5.119  10.133   1.886 -0.4088  1.7972 -2.0785
  330MOL0     H44494   5.027  10.040   1.769 -0.2296  0.2551 -0.4948
  330MOL0     H44495   5.079   9.978   2.019  0.5349 -3.0266  1.8070
  330MOL0     H44496   5.083   9.849   1.894 -4.3074  3.5412 -0.1468
  330MOL0     H44497   5.315   9.846   1.885 -0.5448 -1.8682  0.0132
  330MOL0     H44498   5.335   9.977   1.992  0.9378  2.0117 -3.9746
  330MOL0     H44499   5.189   9.706   2.063 -1.3718  1.4547 -2.1187
  330MOL0     H44500   5.246   9.822   2.176 -1.2967 -0.4953  0.4840
  330MOL0     H44501   5.409   9.602   1.894 -1.2505 -2.1477  0.7197
  330MOL0     H44502   5.737   9.526   1.933 -0.1061 -1.8503 -2.2554
  330MOL0     H44503   5.693   9.412   2.051 -0.7138  1.0432  0.5522
  330MOL0     H44504   5.493   9.430   1.830 -2.1267 -0.5935  1.8666
  330MOL0     H44505   5.509   9.313   1.960  0.3726  3.2622  2.5607
  330MOL0     H44506   5.710   9.221   1.879  3.1247 -1.6042 -2.4630
  330MOL0     H44507   5.743   9.339   1.766 -0.2278 -3.3894 -2.4223
  330MOL0     H44508   5.531   9.141   1.763  0.6783 -0.7554 -0.0646
  330MOL0     H44509   5.661   9.161   1.630  1.0972 -2.0180  0.9939
  330MOL0     H44510   5.332   9.394   1.475  1.7443 -0.3337  0.8553
  330MOL0     H44511   5.217   9.384   1.178 -1.9697  1.0900 -0.3832
  330MOL0     H44512   5.089   9.293   1.244 -0.0231 -0.9048  1.0261
  330MOL0     H44513   5.163   9.424   1.347 -3.9072 -1.1169  0.7814
  330MOL0     H44514   5.168   9.060   0.937  0.7325  0.6114  1.4228
  330MOL0     H44515   5.120   8.940   0.710 -2.5690 -0.4178  1.5497
  330MOL0     H44516   5.047   8.556   0.561 -3.2851 -0.2415  0.9044
  330MOL0     H44517   5.173   8.487   0.665 -0.7719 -0.8681 -0.2813
  330MOL0     H44518   4.943   8.451   0.739  0.5935 -0.8108  2.5519
  330MOL0     H44519   5.012   8.548   0.865 -1.7566 -0.1242 -0.1230
  330MOL0     H44520   4.806   8.620   0.663 -1.2649 -0.0333  0.3731
  330MOL0     H44521   4.906   8.749   0.733  1.9774 -1.5690 -0.2443
  330MOL0     H44522   4.721   8.551   0.875 -1.9180  0.4889  2.4511
  330MOL0     H44523   4.849   8.633   0.961  0.0383  0.5230 -1.7039
  330MOL0     H44524   4.602   8.756   0.835  0.2319  0.7288 -0.7600
  330MOL0     H44525   4.754   8.856   0.854  0.7347  1.5487  3.5133
  330MOL0     H44526   4.606   8.870   1.036 -2.1343 -2.4790 -0.0080
  330MOL0     H44527   4.632   8.707   1.082 -1.5458  0.6449  0.1804
  330MOL0     H44528   4.885   8.884   1.028 -2.6431  1.7208 -0.7045
  330MOL0     H44529   4.861   8.766   1.156 -1.9898  0.8639  1.4880
  330MOL0     H44530   4.728   9.032   1.151 -0.7814 -0.4798  1.5087
  330MOL0     H44531   4.863   8.989   1.261  0.6018  3.3622 -1.0498
  330MOL0     H44532   5.265   8.575   0.880 -1.2948  1.3730  0.8293
  330MOL0     H44533   5.322   8.693   1.090  0.0963 -0.2261 -0.9041
  330MOL0     H44534   5.403   8.930   1.337  0.1362  0.1924 -0.8171
  330MOL0     H44535   5.541   9.021   1.503  0.6407  2.5073  0.8745
  330MOL0     H44536   5.267  10.390   1.198  0.5476 -0.2049 -1.2339
  330MOL0     H44537   5.123  10.454   0.989  2.3485  0.0882 -0.0817
  330MOL0     H44538   4.904  10.331   0.650 -2.5224 -1.7728  1.1025
  330MOL0     H44539   4.788  10.394   0.444 -0.4948 -0.1077  0.3875
  330MOL0     H44540   4.700  10.519   0.279 -0.0422 -0.5324  1.3923
  330MOL0     H44541   4.560  10.434   0.348 -0.4925 -0.2218  0.0826
  330MOL0     H44542   4.418  10.627   0.284  1.5794 -1.9110  2.6543
  330MOL0     H44543   4.473  10.531   0.148 -2.6516 -1.5765  1.3282
  330MOL0     H44544   4.663  10.689   0.104  0.2157  2.8029 -1.2604
  330MOL0     H44545   4.598  10.787   0.238  2.2473 -1.5800  0.6245
  330MOL0     H44546   4.379  10.823   0.110 -1.9651 -3.3588 -1.3676
  330MOL0     H44547   4.440  10.728  -0.011 -3.8076 -1.5772  2.0897
  330MOL0     H44548   4.663  11.094  -0.099  3.4944 -0.6978  1.3808
  330MOL0     H44549   4.615  10.744   0.663  0.6784  0.2731 -0.5036
  330MOL0     H44550   4.721  10.656   0.868  1.5819  1.2495 -1.7185
  331MOL0     O44551   7.459   5.015   7.404  1.1382 -0.0002  0.8559
  331MOL0     C44552   7.546   4.993   7.319  0.0534 -1.0887  0.3500
  331MOL0     O44553   7.575   4.866   7.281 -0.1266  0.1234 -0.3643
  331MOL0     C44554   7.542   4.757   7.359 -0.6505  0.5108 -0.6742
  331MOL0     C44555   7.420   4.689   7.350 -0.0328  0.8728 -0.0311
  331MOL0     C44556   7.381   4.574   7.428 -0.1661 -1.3652 -0.1868
  331MOL0     C44557   7.468   4.537   7.530 -0.4730 -0.1862  0.0778
  331MOL0     O44558   7.448   4.434   7.607 -0.7700  0.2766 -0.5588
  331MOL0     C44559   7.471   4.305   7.541  0.2326  0.3407 -1.0649
  331MOL0     C44560   7.618   4.263   7.524 -0.7822 -0.6953 -0.7500
  331MOL0     C44561   7.689   4.244   7.658 -0.1721  0.3443  0.3300
  331MOL0     C44562   7.841   4.217   7.618  0.4487  0.4750 -0.5861
  331MOL0     C44563   7.916   4.201   7.742 -0.3932  0.0695  0.4106
  331MOL0     C44564   7.957   4.333   7.816 -0.0162 -0.7735  0.6081
  331MOL0     C44565   8.009   4.280   7.946  1.0347 -0.1274 -0.6714
  331MOL0     C44566   8.067   4.389   8.041  0.3970  0.5960 -0.3528
  331MOL0     N44567   7.962   4.478   8.087  0.0445  0.8487  0.7514
  331MOL0     C44568   7.940   4.506   8.220 -0.1384 -0.1961  0.0887
  331MOL0     C44569   7.857   4.607   8.224 -0.0451 -0.8392  0.2667
  331MOL0     C44570   7.825   4.678   8.349  0.5466  0.0948 -0.0683
  331MOL0     C44571   7.764   4.811   8.328  0.5597 -0.2697  0.2824
  331MOL0     C44572   7.617   4.783   8.290 -0.2502 -0.2506 -0.1858
  331MOL0     C44573   7.520   4.829   8.396 -0.0867  0.2749 -1.1429
  331MOL0     O44574   7.544   4.962   8.444  0.2325 -0.0997 -0.2630
  331MOL0     C44575   7.455   5.023   8.529  0.3512 -1.0768 -0.4196
  331MOL0     C44576   7.335   4.954   8.563  0.0466 -0.3564  0.5727
  331MOL0     C44577   7.246   5.014   8.651  0.5018  0.1329  1.3966
  331MOL0     C44578   7.106   4.936   8.667 -0.7087  0.7723  0.1707
  331MOL0     C44579   7.263   5.145   8.698  0.0230  0.1271  0.7829
  331MOL0     C44580   7.149   5.208   8.771  0.9978  0.1511 -0.3976
  331MOL0     O44581   7.158   5.225   8.912 -0.2363  0.1523 -0.0998
  331MOL0     C44582   7.269   5.185   8.980  0.0674  0.5703  0.1900
  331MOL0     C44583   7.266   5.045   9.017 -0.3799  0.3901  0.2583
  331MOL0     C44584   7.381   4.979   9.065  0.6026 -0.2379  0.2423
  331MOL0     C44585   7.495   5.049   9.082 -0.1148  0.2317 -0.5127
  331MOL0     O44586   7.612   4.988   9.122 -0.2092  0.4111 -0.5053
  331MOL0     C44587   7.737   5.033   9.067 -1.1398  0.8027 -0.0051
  331MOL0     C44588   7.819   4.923   8.995  0.1104  0.6222 -0.2517
  331MOL0     C44589   7.837   4.805   9.093  0.5303 -0.2705 -0.1475
  331MOL0     C44590   7.895   4.673   9.044 -0.2513  0.6863  0.0819
  331MOL0     C44591   8.046   4.700   8.998 -0.7690  0.8576 -0.5501
  331MOL0     C44592   8.040   4.725   8.852 -0.8822  0.1561  1.0288
  331MOL0     C44593   8.090   4.606   8.773  0.2891  0.2709 -0.3795
  331MOL0     C44594   8.041   4.619   8.629  1.0766  0.3520  0.2787
  331MOL0    Cl44595   8.166   4.687   8.533 -0.2594 -0.2004  0.0135
  331MOL0     C44596   7.498   5.191   9.055 -0.0320  0.6361 -0.7615
  331MOL0     C44597   7.386   5.256   8.998  0.0085  0.8975  0.5789
  331MOL0     O44598   7.046   5.243   8.707  0.4762  0.4589  0.5102
  331MOL0     C44599   7.380   5.216   8.668 -0.6069  0.1971 -0.1368
  331MOL0     C44600   7.478   5.159   8.580  0.8804 -0.1709 -0.4704
  331MOL0     N44601   7.836   4.646   8.092  0.9480 -0.1761 -0.0969
  331MOL0     N44602   7.883   4.561   8.010  0.1243  0.4655 -0.5383
  331MOL0     C44603   7.597   4.597   7.535  0.3171  0.2523  0.2209
  331MOL0     C44604   7.631   4.700   7.447 -0.6381  0.3386  0.1172
  331MOL0     C44605   7.624   5.106   7.256  1.1738 -0.1619 -0.2994
  331MOL0     C44606   7.742   5.071   7.199 -1.1281 -0.2890  0.3117
  331MOL0     C44607   7.804   5.168   7.113  0.5783 -0.1217 -0.0578
  331MOL0     C44608   7.754   5.299   7.093  0.2308 -1.4468 -0.7676
  331MOL0     O44609   7.823   5.398   7.021  0.1080 -0.8503  0.4274
  331MOL0     C44610   7.936   5.351   6.945  0.1576 -0.2399 -0.1721
  331MOL0     C44611   7.969   5.463   6.852 -0.2391 -0.2975  0.0044
  331MOL0     C44612   8.069   5.428   6.747 -0.6670 -0.1823  0.3049
  331MOL0     C44613   8.210   5.430   6.808  0.1933  0.1063 -0.2645
  331MOL0     C44614   8.301   5.380   6.704 -0.5752  0.6146 -0.4967
  331MOL0     C44615   8.379   5.355   6.614  0.3661 -0.2252 -0.1115
  331MOL0     C44616   7.633   5.328   7.157 -0.6821 -0.0666  0.5901
  331MOL0     C44617   7.577   5.235   7.242  0.6572 -0.2995 -0.4019
  331MOL0     H44618   7.343   4.729   7.286 -0.6362  2.8107  1.8035
  331MOL0     H44619   7.284   4.533   7.404 -0.2601 -1.0388 -0.3633
  331MOL0     H44620   7.417   4.236   7.607  0.8147 -0.2888 -1.2374
  331MOL0     H44621   7.416   4.297   7.446 -0.8453  0.1436 -0.4441
  331MOL0     H44622   7.616   4.163   7.480  3.8947 -0.6420 -1.5583
  331MOL0     H44623   7.673   4.327   7.454 -0.9020 -0.2389 -0.4312
  331MOL0     H44624   7.683   4.323   7.733 -0.1591  1.0461 -0.3934
  331MOL0     H44625   7.649   4.156   7.709  2.3492 -0.2313  1.4780
  331MOL0     H44626   7.851   4.122   7.564  1.1399  0.8703 -1.1568
  331MOL0     H44627   7.867   4.292   7.543 -0.7507 -0.8812 -2.4692
  331MOL0     H44628   7.868   4.134   7.814 -0.3943  0.3785  0.7000
  331MOL0     H44629   8.008   4.152   7.710 -1.1955 -0.4187 -1.2777
  331MOL0     H44630   8.034   4.392   7.765 -1.8162  2.7072  1.6174
  331MOL0     H44631   7.878   4.408   7.811  1.1029  0.3872 -1.1442
  331MOL0     H44632   7.932   4.238   8.011 -1.2553  2.7281 -1.3474
  331MOL0     H44633   8.087   4.205   7.932 -1.8246 -2.9391 -2.8613
  331MOL0     H44634   8.146   4.457   8.006  2.7834 -1.5610  0.5651
  331MOL0     H44635   8.114   4.332   8.122  1.2735  0.6290 -0.8296
  331MOL0     H44636   7.969   4.451   8.310  1.7467  0.8188  0.1394
  331MOL0     H44637   7.772   4.607   8.413  2.0704 -3.1539 -2.1717
  331MOL0     H44638   7.924   4.700   8.389  0.5395 -2.2007  1.3667
  331MOL0     H44639   7.818   4.865   8.251  1.1909 -0.3982  0.6299
  331MOL0     H44640   7.773   4.867   8.422  2.7057 -1.5539  0.9020
  331MOL0     H44641   7.593   4.681   8.260 -1.4690  0.7109 -2.7107
  331MOL0     H44642   7.597   4.843   8.202  0.4889 -0.3503 -0.4353
  331MOL0     H44643   7.538   4.759   8.478 -3.0157 -1.2530 -1.6748
  331MOL0     H44644   7.423   4.798   8.356  0.9604 -0.5235 -3.1753
  331MOL0     H44645   7.303   4.872   8.500 -0.2795  1.4393 -1.7159
  331MOL0     H44646   7.042   4.955   8.581 -1.9350  0.3774  0.9632
  331MOL0     H44647   7.112   4.827   8.673 -4.0417  0.4413 -0.6480
  331MOL0     H44648   7.051   4.950   8.760 -0.1896 -2.5895  1.1540
  331MOL0     H44649   7.174   4.987   9.009 -0.0538 -0.0336 -0.4319
  331MOL0     H44650   7.366   4.875   9.090 -0.6682  0.2339  1.6236
  331MOL0     H44651   7.732   5.117   8.997  3.7848  2.4863  1.2646
  331MOL0     H44652   7.799   5.077   9.146  1.2974 -1.1174 -0.7586
  331MOL0     H44653   7.761   4.893   8.908  2.6706 -1.3475 -1.4341
  331MOL0     H44654   7.914   4.962   8.959  0.5097  1.8375  1.9614
  331MOL0     H44655   7.746   4.780   9.148 -0.3114  0.2788 -1.2534
  331MOL0     H44656   7.911   4.849   9.160 -0.7511  1.3691  0.2532
  331MOL0     H44657   7.904   4.612   9.134  3.9856 -0.6500 -1.0143
  331MOL0     H44658   7.837   4.620   8.969 -1.1615  3.1415 -1.0828
  331MOL0     H44659   8.097   4.606   9.020 -3.2515 -0.8215 -1.5497
  331MOL0     H44660   8.094   4.783   9.051 -1.7204 -1.1006  3.8071
  331MOL0     H44661   7.939   4.741   8.812 -0.4540 -1.2603 -0.7640
  331MOL0     H44662   8.103   4.808   8.819 -1.4327 -0.1479 -0.9737
  331MOL0     H44663   8.043   4.515   8.811  1.4059 -1.1111 -2.1340
  331MOL0     H44664   8.199   4.598   8.783  0.1842 -0.9433 -0.0017
  331MOL0     H44665   7.953   4.682   8.613  0.3337 -0.3847  1.2849
  331MOL0     H44666   8.008   4.518   8.602 -1.8733  0.5397  2.6486
  331MOL0     H44667   7.593   5.244   9.062  0.8115 -0.5182 -2.6536
  331MOL0     H44668   7.406   5.358   8.968  1.8006  0.0191 -1.4190
  331MOL0     H44669   7.378   5.317   8.707 -1.4529  0.5718 -1.1024
  331MOL0     H44670   7.569   5.212   8.555  0.4275  1.3632  0.9586
  331MOL0     H44671   7.678   4.551   7.591  0.5947  2.3282  1.6266
  331MOL0     H44672   7.730   4.743   7.459 -0.4913  0.8699 -2.5052
  331MOL0     H44673   7.784   4.972   7.217 -2.1888 -1.7097 -3.9713
  331MOL0     H44674   7.895   5.138   7.061 -0.4024 -0.4443 -1.6534
  331MOL0     H44675   8.020   5.349   7.015 -0.8232  2.3252  1.2114
  331MOL0     H44676   7.921   5.257   6.890  2.3094 -1.1315  0.6508
  331MOL0     H44677   8.012   5.548   6.906 -1.6578  0.9161 -0.7035
  331MOL0     H44678   7.880   5.498   6.799  0.0086  0.6952  0.2146
  331MOL0     H44679   8.059   5.501   6.666 -0.1610 -2.0524 -1.5537
  331MOL0     H44680   8.046   5.333   6.698  1.6797 -0.4787 -0.3673
  331MOL0     H44681   8.207   5.365   6.897 -3.4111  0.7271  0.2396
  331MOL0     H44682   8.237   5.530   6.842  1.5955  0.1743 -1.5241
  331MOL0     H44683   8.455   5.342   6.539 -0.4800  1.1067 -1.2398
  331MOL0     H44684   7.580   5.422   7.147  0.7174  0.6393 -0.7611
  331MOL0     H44685   7.487   5.276   7.288  1.2590 -0.6049  1.1081
  332MOL0     O44686   8.924   7.357  10.045 -0.5050 -0.5959  0.3919
  332MOL0     C44687   8.988   7.328   9.945  0.5663 -0.2355 -0.1909
  332MOL0     O44688   8.995   7.211   9.884 -0.0182 -0.3143  0.0272
  332MOL0     C44689   8.954   7.092   9.933  0.2973 -0.2232  0.1406
  332MOL0     C44690   8.912   6.994   9.847  0.4919 -0.0214  0.3838
  332MOL0     C44691   8.875   6.865   9.883 -0.0454 -0.2353 -1.3195
  332MOL0     C44692   8.841   6.832  10.019 -0.1625 -0.2188 -0.0265
  332MOL0     O44693   8.767   6.719  10.046 -0.6315  1.1409  0.3799
  332MOL0     C44694   8.798   6.601   9.967  0.5176 -0.0851  0.1117
  332MOL0     C44695   8.720   6.501  10.038 -0.2932 -0.3768  0.0548
  332MOL0     C44696   8.584   6.479   9.965  0.2516 -0.6239  0.2633
  332MOL0     C44697   8.481   6.600   9.972  0.7502  0.5342 -0.1979
  332MOL0     C44698   8.380   6.592   9.866 -0.4193 -0.7677 -1.0402
  332MOL0     C44699   8.288   6.472   9.861 -0.0437 -0.4526  0.4529
  332MOL0     C44700   8.174   6.482   9.958 -0.5921 -0.1355  0.2379
  332MOL0     C44701   8.085   6.358   9.923  0.4612 -1.1526 -0.2787
  332MOL0     N44702   7.961   6.350  10.005  0.6066  0.7976  0.0637
  332MOL0     C44703   7.958   6.282  10.126  0.6771 -0.6145  1.7487
  332MOL0     C44704   7.826   6.293  10.161  0.0063 -0.2388  0.5205
  332MOL0     C44705   7.774   6.228  10.285 -0.1368  0.1651  0.4986
  332MOL0     C44706   7.709   6.336  10.382  0.6953 -0.2737  0.3677
  332MOL0     C44707   7.678   6.274  10.518  0.4787  0.6003 -0.6438
  332MOL0     C44708   7.555   6.340  10.577 -0.6579 -0.3254 -0.2529
  332MOL0     O44709   7.450   6.257  10.515 -0.1019 -0.1751 -0.1730
  332MOL0     C44710   7.335   6.320  10.475 -0.2965 -0.5881  0.0660
  332MOL0     C44711   7.261   6.268  10.368  0.2845  0.3451  1.0738
  332MOL0     C44712   7.129   6.316  10.335  0.3790  0.2133 -0.2157
  332MOL0     C44713   7.044   6.241  10.229  0.4377  0.5172  0.1077
  332MOL0     C44714   7.067   6.419  10.413 -0.0801  0.0979 -0.5819
  332MOL0     C44715   6.928   6.468  10.395 -0.5736  1.2536 -0.0916
  332MOL0     O44716   6.893   6.546  10.503  0.0374 -0.9316 -0.3145
  332MOL0     C44717   6.764   6.539  10.536  0.7725 -0.0390  0.3030
  332MOL0     C44718   6.674   6.624  10.462 -0.4222  0.5238 -0.1961
  332MOL0     C44719   6.537   6.639  10.483  0.4974 -0.0456  0.9897
  332MOL0     C44720   6.480   6.565  10.590  0.2559 -0.6744  1.0721
  332MOL0     O44721   6.350   6.588  10.622 -0.3390 -0.6242 -0.4297
  332MOL0     C44722   6.260   6.475  10.608 -0.3299  0.4888 -0.4161
  332MOL0     C44723   6.109   6.524  10.610 -0.1103  0.2076  0.0696
  332MOL0     C44724   6.082   6.602  10.476  0.2481  0.2011  0.2985
  332MOL0     C44725   5.938   6.652  10.472 -0.5732 -0.5209  0.5426
  332MOL0     C44726   5.871   6.680  10.341  0.1332  0.2093 -0.2293
  332MOL0     C44727   5.932   6.808  10.280 -0.3926 -0.8846  0.5632
  332MOL0     C44728   5.952   6.778  10.127 -0.0235 -0.2059  0.4065
  332MOL0     C44729   5.994   6.897  10.035 -0.2431 -0.0052 -0.1813
  332MOL0    Cl44730   5.987   6.855   9.862  0.1891 -0.3683  0.4031
  332MOL0     C44731   6.554   6.472  10.657 -0.6206  0.4711 -0.5315
  332MOL0     C44732   6.692   6.454  10.624 -0.3283  0.8561 -0.5105
  332MOL0     O44733   6.858   6.438  10.297 -0.2544  0.2757 -0.6630
  332MOL0     C44734   7.147   6.482  10.512  0.3448  0.7616 -0.3528
  332MOL0     C44735   7.282   6.437  10.544  1.6135 -0.4310 -0.1106
  332MOL0     N44736   7.762   6.370  10.064 -0.1894  1.0867  0.4280
  332MOL0     N44737   7.842   6.404   9.968 -0.3142  0.6931  0.8453
  332MOL0     C44738   8.891   6.926  10.117  0.0470 -0.1011  0.6478
  332MOL0     C44739   8.944   7.050  10.073  0.4700 -0.5930 -0.9159
  332MOL0     C44740   9.038   7.445   9.865 -0.2858 -0.1597  0.2246
  332MOL0     C44741   9.096   7.429   9.737 -0.8953 -0.1766  0.1901
  332MOL0     C44742   9.137   7.542   9.651  0.5135 -0.1530  0.1006
  332MOL0     C44743   9.125   7.673   9.696  0.3736 -0.0587  0.2663
  332MOL0     O44744   9.168   7.792   9.635  0.0450 -0.1170  0.4845
  332MOL0     C44745   9.278   7.778   9.543  0.3015  0.1917  0.3815
  332MOL0     C44746   9.411   7.748   9.622  0.8476  0.1971  0.3163
  332MOL0     C44747   9.529   7.724   9.524  0.3181  0.1153  0.7932
  332MOL0     C44748   9.672   7.736   9.583  0.4730 -0.7499  0.5145
  332MOL0     C44749   9.702   7.666   9.720 -0.0512  0.4007 -0.0413
  332MOL0     C44750   9.745   7.600   9.816  0.5193  0.8202 -0.4996
  332MOL0     C44751   9.053   7.691   9.810 -0.5611 -0.1473 -0.2808
  332MOL0     C44752   9.019   7.580   9.895  0.4003  0.3100  0.3817
  332MOL0     H44753   8.922   7.023   9.742 -1.5539  3.0167  0.8777
  332MOL0     H44754   8.829   6.813   9.800 -1.0751  1.7017 -2.0066
  332MOL0     H44755   8.768   6.610   9.862 -0.6360  1.0965  0.5216
  332MOL0     H44756   8.904   6.576   9.984  1.6717  3.6853 -0.6373
  332MOL0     H44757   8.781   6.411  10.042  1.4594  0.6747 -1.3276
  332MOL0     H44758   8.701   6.539  10.139 -0.1458  0.7769 -0.3308
  332MOL0     H44759   8.591   6.431   9.868 -0.3459 -2.7719  1.2169
  332MOL0     H44760   8.545   6.399  10.029  2.5933 -1.4495  0.7679
  332MOL0     H44761   8.437   6.601  10.072  1.0742 -0.3736 -0.0412
  332MOL0     H44762   8.542   6.690   9.957  1.4175  0.3768  1.4256
  332MOL0     H44763   8.323   6.685   9.869  2.3490  1.0553 -1.7758
  332MOL0     H44764   8.432   6.597   9.770  1.0094  1.3772 -0.2325
  332MOL0     H44765   8.251   6.455   9.759 -1.4293  1.0136  0.6603
  332MOL0     H44766   8.333   6.377   9.890 -1.8337 -1.6142 -0.3699
  332MOL0     H44767   8.203   6.469  10.063 -3.1870 -2.9275  0.7562
  332MOL0     H44768   8.124   6.579   9.949 -0.9050 -0.1926  1.1860
  332MOL0     H44769   8.155   6.275   9.928  0.7677 -0.8633  0.3105
  332MOL0     H44770   8.059   6.356   9.817 -1.7978  1.6426  0.1086
  332MOL0     H44771   8.042   6.229  10.171 -0.5382 -2.5474  1.8437
  332MOL0     H44772   7.695   6.160  10.254  0.1209  0.2712 -0.4278
  332MOL0     H44773   7.860   6.169  10.318  0.5639 -3.3723 -5.9377
  332MOL0     H44774   7.626   6.380  10.327 -1.5150 -0.8632  3.0155
  332MOL0     H44775   7.780   6.417  10.401 -0.6963  0.4715  2.7951
  332MOL0     H44776   7.763   6.304  10.580 -0.9879 -0.5821  2.1272
  332MOL0     H44777   7.669   6.165  10.517 -2.9209  0.7817 -1.3392
  332MOL0     H44778   7.545   6.446  10.551 -0.0963 -0.1404  0.2657
  332MOL0     H44779   7.553   6.324  10.685  3.0234 -0.9239 -0.1392
  332MOL0     H44780   7.305   6.180  10.321 -0.5965 -0.9559  2.6068
  332MOL0     H44781   7.006   6.312  10.154 -0.8894  0.5708  0.8110
  332MOL0     H44782   7.111   6.172  10.177 -2.7620 -2.1980 -0.7682
  332MOL0     H44783   6.969   6.180  10.280  3.7927 -5.0733 -0.8069
  332MOL0     H44784   6.709   6.691  10.385  0.8804  2.0284  1.6032
  332MOL0     H44785   6.473   6.698  10.418 -2.2905 -3.3631  0.3805
  332MOL0     H44786   6.281   6.415  10.519 -1.7279  1.5706 -1.5162
  332MOL0     H44787   6.285   6.401  10.685  1.9011 -0.4409 -1.9364
  332MOL0     H44788   6.047   6.433  10.611 -0.5753  0.4688  2.6452
  332MOL0     H44789   6.073   6.572  10.701 -1.5589 -0.0688 -0.3343
  332MOL0     H44790   6.082   6.533  10.391  1.2125 -0.3940  0.7721
  332MOL0     H44791   6.155   6.680  10.456  0.9538 -0.4916  0.1263
  332MOL0     H44792   5.876   6.577  10.523 -2.0050  0.0198 -0.3489
  332MOL0     H44793   5.928   6.742  10.533 -1.9545  0.7423 -1.4287
  332MOL0     H44794   5.762   6.696  10.341  0.1353  1.0491  3.0761
  332MOL0     H44795   5.887   6.588  10.285 -2.4788 -2.1112  2.4682
  332MOL0     H44796   5.867   6.893  10.299  1.2335  0.6966 -0.6129
  332MOL0     H44797   6.027   6.834  10.328 -1.6165  0.1934  2.4912
  332MOL0     H44798   5.863   6.744  10.074 -0.2392  0.6253  0.2225
  332MOL0     H44799   6.025   6.697  10.114 -2.2918 -1.8917 -3.2244
  332MOL0     H44800   6.098   6.920  10.057  1.0929 -2.5864 -3.1003
  332MOL0     H44801   5.939   6.989  10.061 -0.1841  0.9931 -3.1837
  332MOL0     H44802   6.520   6.414  10.742  0.9764 -0.2781 -0.3767
  332MOL0     H44803   6.758   6.379  10.667 -2.3492 -1.3299 -1.0148
  332MOL0     H44804   7.122   6.569  10.572 -2.2384 -0.7644  0.9900
  332MOL0     H44805   7.347   6.494  10.609  1.5608 -0.2222 -0.2387
  332MOL0     H44806   8.880   6.889  10.218  1.5771 -1.5547  0.3376
  332MOL0     H44807   8.983   7.115  10.149  4.2322 -1.4575 -1.9103
  332MOL0     H44808   9.091   7.334   9.685 -4.4913 -0.1397  0.2056
  332MOL0     H44809   9.164   7.523   9.548 -1.7408 -0.0551 -0.5603
  332MOL0     H44810   9.253   7.696   9.475  3.6031 -1.5478  1.0554
  332MOL0     H44811   9.293   7.864   9.477 -0.8118 -0.2479 -0.4664
  332MOL0     H44812   9.416   7.651   9.673  1.5605 -1.1923 -2.2210
  332MOL0     H44813   9.427   7.832   9.689  0.1167  1.0039 -0.4888
  332MOL0     H44814   9.526   7.779   9.430 -2.6874  0.1992  0.8362
  332MOL0     H44815   9.520   7.621   9.486  3.2599  0.0560  0.0020
  332MOL0     H44816   9.684   7.844   9.591 -0.8145 -0.5115 -0.4255
  332MOL0     H44817   9.744   7.701   9.509  0.0359 -0.2084 -0.1721
  332MOL0     H44818   9.801   7.552   9.894 -0.0437 -1.4162 -1.4063
  332MOL0     H44819   9.044   7.793   9.845  2.2410 -0.4196  1.5317
  332MOL0     H44820   8.971   7.591   9.992 -1.2428 -0.0864 -0.3431
  333MOL0     O44821   6.932   7.604   9.923  0.1348  0.5420  0.3840
  333MOL0     C44822   6.940   7.518  10.005  0.9699  0.6080  0.8166
  333MOL0     O44823   7.016   7.520  10.112  0.2528  1.2773  0.2914
  333MOL0     C44824   7.079   7.637  10.131  0.2342  0.5166  0.4781
  333MOL0     C44825   7.037   7.722  10.236  0.5470 -0.4150 -0.3985
  333MOL0     C44826   7.107   7.841  10.267 -0.1533 -0.2958  0.3930
  333MOL0     C44827   7.223   7.879  10.197 -0.5744  0.2485 -0.2047
  333MOL0     O44828   7.294   7.992  10.209  0.7185 -0.0918 -0.6485
  333MOL0     C44829   7.228   8.107  10.156 -0.2111  0.3974 -0.4788
  333MOL0     C44830   7.324   8.224  10.143 -0.2434 -1.0076  0.1142
  333MOL0     C44831   7.415   8.215  10.028 -0.0971 -0.4534 -0.3906
  333MOL0     C44832   7.523   8.325  10.031  0.6330 -0.3876  0.5419
  333MOL0     C44833   7.609   8.309   9.911  0.2969 -0.1277  0.7437
  333MOL0     C44834   7.703   8.427   9.895 -0.9414  0.9677  0.0038
  333MOL0     C44835   7.823   8.399   9.805 -0.3586 -0.7464  0.1212
  333MOL0     C44836   7.914   8.518   9.786  0.0353 -0.6443 -0.1000
  333MOL0     N44837   7.999   8.527   9.667  0.0282 -0.7865  0.1092
  333MOL0     C44838   8.089   8.427   9.623 -0.5825 -1.2939 -0.0355
  333MOL0     C44839   8.145   8.476   9.505 -0.1279 -0.0283  0.0474
  333MOL0     C44840   8.254   8.404   9.441 -0.7345 -0.4206  0.3218
  333MOL0     C44841   8.240   8.251   9.441 -0.0249 -0.5326  0.3732
  333MOL0     C44842   8.118   8.194   9.363  0.0304 -1.1595  0.8521
  333MOL0     C44843   8.062   8.069   9.412 -0.4599 -0.6822 -0.4209
  333MOL0     O44844   8.007   8.082   9.541 -0.3328 -0.2712  0.5275
  333MOL0     C44845   8.013   7.973   9.624 -0.0456 -0.3165 -0.0967
  333MOL0     C44846   8.042   7.840   9.586 -0.5931 -1.1161  0.3284
  333MOL0     C44847   8.079   7.737   9.669  0.1999  0.1701  0.6057
  333MOL0     C44848   8.120   7.615   9.591  0.1336  0.5124 -0.1431
  333MOL0     C44849   8.069   7.757   9.809  0.3596 -1.0982  0.3085
  333MOL0     C44850   8.100   7.654   9.899 -1.0697 -1.1453 -1.0811
  333MOL0     O44851   8.152   7.538   9.860 -0.0927  0.7867 -0.6914
  333MOL0     C44852   8.177   7.438   9.946 -0.2067  0.4507  0.0131
  333MOL0     C44853   8.301   7.405   9.995 -0.5551 -0.8830 -0.0793
  333MOL0     C44854   8.325   7.303  10.079  0.5263  0.0699  0.4814
  333MOL0     C44855   8.229   7.211  10.109 -0.1942  0.1361  0.0753
  333MOL0     O44856   8.246   7.104  10.189 -0.0408  0.0637 -0.4809
  333MOL0     C44857   8.379   7.071  10.228  0.0968 -0.3910 -0.7884
  333MOL0     C44858   8.374   6.942  10.308 -0.3619  0.6555  0.2907
  333MOL0     C44859   8.513   6.906  10.349 -0.5543 -0.4250 -0.9050
  333MOL0     C44860   8.526   6.792  10.443  0.2050  0.1452 -0.0707
  333MOL0     C44861   8.669   6.757  10.463  0.4761 -0.9764 -0.6768
  333MOL0     C44862   8.709   6.649  10.573  0.2923  0.2933  0.1062
  333MOL0     C44863   8.858   6.630  10.592 -0.6724 -0.2723 -0.2219
  333MOL0     C44864   8.892   6.483  10.617 -0.5903  0.7119 -1.1046
  333MOL0    Cl44865   8.846   6.428  10.783  0.0648  0.4041 -0.1628
  333MOL0     C44866   8.098   7.236  10.061 -0.5697  0.3331 -1.0848
  333MOL0     C44867   8.063   7.350   9.978 -0.3423  0.3032  0.6873
  333MOL0     O44868   8.083   7.693  10.020 -0.4046  0.0104 -0.6142
  333MOL0     C44869   8.028   7.892   9.844  0.2268  0.6188  0.6892
  333MOL0     C44870   8.003   7.993   9.757 -0.5627 -0.6112 -0.3428
  333MOL0     N44871   8.089   8.600   9.475 -0.8442  0.5046  0.9441
  333MOL0     N44872   7.999   8.627   9.568 -1.2756  0.2699  0.8608
  333MOL0     C44873   7.256   7.792  10.085 -0.3290 -0.7973 -0.4481
  333MOL0     C44874   7.187   7.673  10.056  0.0102  0.0417 -0.9636
  333MOL0     C44875   6.856   7.399   9.974 -0.2647 -0.5492 -0.1158
  333MOL0     C44876   6.747   7.412   9.883  0.2254 -1.9075  0.6312
  333MOL0     C44877   6.655   7.310   9.853  0.0559  0.2738 -0.3857
  333MOL0     C44878   6.681   7.190   9.920  1.3702  0.7365  1.2081
  333MOL0     O44879   6.610   7.076   9.903  0.3019 -0.3331 -0.1575
  333MOL0     C44880   6.504   7.073   9.815  0.3956  0.5323  0.3540
  333MOL0     C44881   6.455   6.928   9.808 -0.3470  0.1765  0.5696
  333MOL0     C44882   6.569   6.831   9.823  0.0118  0.3073  0.1334
  333MOL0     C44883   6.514   6.688   9.813 -0.0875  0.0837  0.1781
  333MOL0     C44884   6.587   6.603   9.895  0.1724 -0.2127 -0.2623
  333MOL0     C44885   6.642   6.528   9.975  0.0367 -0.5258  0.7548
  333MOL0     C44886   6.784   7.165   9.999  0.5008 -0.0035  0.3160
  333MOL0     C44887   6.873   7.268  10.032  0.1596 -0.6718  0.0013
  333MOL0     H44888   6.949   7.690  10.291  1.5303 -0.8823  0.9580
  333MOL0     H44889   7.071   7.911  10.342  0.1715 -0.0430  0.3140
  333MOL0     H44890   7.197   8.087  10.053 -1.8039 -2.6275  0.4881
  333MOL0     H44891   7.142   8.133  10.219 -0.0009  1.4668 -0.6058
  333MOL0     H44892   7.270   8.318  10.129  0.9366 -0.3320  0.0085
  333MOL0     H44893   7.384   8.231  10.234  0.7379 -1.9043 -0.4278
  333MOL0     H44894   7.466   8.118  10.024 -0.5578 -0.6988 -0.3008
  333MOL0     H44895   7.357   8.221   9.935  3.0725  0.7704 -2.4664
  333MOL0     H44896   7.489   8.429  10.027  0.2188 -0.5742 -1.4618
  333MOL0     H44897   7.585   8.315  10.121  0.2477 -0.3177  0.8161
  333MOL0     H44898   7.670   8.218   9.913  1.5461  0.6803  0.6568
  333MOL0     H44899   7.545   8.301   9.823 -1.0874 -0.5469  1.7477
  333MOL0     H44900   7.630   8.499   9.858 -2.3882 -0.7378 -0.5956
  333MOL0     H44901   7.752   8.461   9.987  0.5163 -0.8878 -0.0335
  333MOL0     H44902   7.890   8.321   9.842  0.4028 -1.1121 -1.8692
  333MOL0     H44903   7.789   8.368   9.706 -1.1602  0.2960  0.0539
  333MOL0     H44904   7.977   8.532   9.875  0.5314 -1.7727 -0.2493
  333MOL0     H44905   7.855   8.610   9.784  0.5065 -0.3327  0.0230
  333MOL0     H44906   8.117   8.342   9.684  0.8919 -1.0133 -0.2788
  333MOL0     H44907   8.266   8.443   9.340 -2.4423 -1.5523 -0.3711
  333MOL0     H44908   8.343   8.441   9.491 -0.7619  0.2563 -0.1265
  333MOL0     H44909   8.224   8.224   9.545 -1.9095 -1.8255 -0.1859
  333MOL0     H44910   8.332   8.198   9.415  0.1432  0.1773 -0.5497
  333MOL0     H44911   8.168   8.175   9.268 -0.2786 -0.2925  0.4962
  333MOL0     H44912   8.045   8.273   9.340  0.6118 -0.8149  0.1418
  333MOL0     H44913   8.151   8.005   9.414 -0.7611 -1.1020 -0.2633
  333MOL0     H44914   7.983   8.033   9.346 -1.7357  0.7557  0.2556
  333MOL0     H44915   8.062   7.821   9.481  0.1339  0.2436  0.1903
  333MOL0     H44916   8.046   7.535   9.596 -0.4124  1.0505  0.5014
  333MOL0     H44917   8.136   7.636   9.484 -2.1648  1.3408 -0.3716
  333MOL0     H44918   8.216   7.579   9.629 -0.7449 -0.6409  1.0344
  333MOL0     H44919   8.381   7.475   9.974 -1.9594  1.0686  0.8331
  333MOL0     H44920   8.425   7.302  10.121  0.8155  3.5989  0.1470
  333MOL0     H44921   8.445   7.072  10.141 -1.5719  3.1975 -2.2092
  333MOL0     H44922   8.411   7.147  10.300 -1.7002 -0.5773  0.2764
  333MOL0     H44923   8.315   6.969  10.396 -0.2453  0.9881  0.2705
  333MOL0     H44924   8.317   6.871  10.248 -1.9831  3.8347 -2.2876
  333MOL0     H44925   8.559   6.994  10.396  1.2581 -1.1647 -1.1770
  333MOL0     H44926   8.569   6.889  10.257 -2.0014 -0.6497 -1.7653
  333MOL0     H44927   8.487   6.821  10.541 -1.0020  1.9680 -1.0202
  333MOL0     H44928   8.463   6.708  10.412  1.0706 -0.5043 -0.1141
  333MOL0     H44929   8.717   6.847  10.501 -2.0594 -0.5290  1.7201
  333MOL0     H44930   8.718   6.723  10.371  0.8878 -2.7238  0.1330
  333MOL0     H44931   8.666   6.682  10.668 -0.7618  0.6879 -0.4979
  333MOL0     H44932   8.661   6.555  10.546  0.8947  0.3675 -1.3228
  333MOL0     H44933   8.904   6.681  10.678 -0.2261 -1.4376  0.2649
  333MOL0     H44934   8.925   6.662  10.512  1.3192 -1.9761  0.6473
  333MOL0     H44935   9.000   6.468  10.613 -0.3927 -1.8482  4.6010
  333MOL0     H44936   8.833   6.425  10.545 -2.4861  0.1899  0.7722
  333MOL0     H44937   8.020   7.166  10.090  0.3731 -1.3158 -2.3555
  333MOL0     H44938   7.964   7.369   9.937  0.1514 -0.7142 -1.1300
  333MOL0     H44939   8.014   7.924   9.947 -4.0719 -2.2237  1.2568
  333MOL0     H44940   7.995   8.094   9.795  1.3417 -0.7337  0.4975
  333MOL0     H44941   7.342   7.821  10.026 -0.4991  1.0311  0.1619
  333MOL0     H44942   7.213   7.606   9.974 -3.8869 -0.9001 -1.6324
  333MOL0     H44943   6.738   7.501   9.821 -0.3415 -2.0884  0.4468
  333MOL0     H44944   6.574   7.316   9.781 -2.2403 -0.4454  1.9851
  333MOL0     H44945   6.430   7.138   9.863 -1.0775 -0.4825 -0.4676
  333MOL0     H44946   6.517   7.103   9.711 -0.7606 -2.1744 -0.6672
  333MOL0     H44947   6.407   6.924   9.710 -0.2564  1.3983  0.4591
  333MOL0     H44948   6.377   6.911   9.883  0.6270 -1.3623  1.2838
  333MOL0     H44949   6.614   6.834   9.923  1.6756 -0.4698 -0.5571
  333MOL0     H44950   6.641   6.844   9.742  0.4503 -1.2231  0.2438
  333MOL0     H44951   6.519   6.654   9.709  1.2673 -0.0269  0.2647
  333MOL0     H44952   6.411   6.680   9.848  1.2891 -2.3765  4.2951
  333MOL0     H44953   6.689   6.459  10.041 -1.4980 -3.5469 -1.0815
  333MOL0     H44954   6.810   7.069  10.044 -0.0679  0.3660  1.4669
  333MOL0     H44955   6.956   7.255  10.100  1.5225  1.3002 -1.2030
  334MOL0     O44956   6.380   6.830   5.714  0.1946  0.0350  0.2431
  334MOL0     C44957   6.263   6.790   5.727  0.1202 -0.5500  0.5040
  334MOL0     O44958   6.204   6.761   5.846  0.3551 -0.1166 -0.1921
  334MOL0     C44959   6.277   6.775   5.960 -0.3733 -0.3425  0.1142
  334MOL0     C44960   6.340   6.885   6.002 -0.7219 -0.2623 -0.4229
  334MOL0     C44961   6.407   6.901   6.129  0.4141 -0.1247 -0.1149
  334MOL0     C44962   6.397   6.807   6.226  0.2115  0.8910  0.1584
  334MOL0     O44963   6.458   6.828   6.346  0.1732  0.4869  0.2588
  334MOL0     C44964   6.467   6.713   6.432  0.2508  0.2016  0.8908
  334MOL0     C44965   6.548   6.759   6.552 -0.7629 -0.3805  0.8977
  334MOL0     C44966   6.699   6.778   6.528  0.6834 -0.0385  0.4605
  334MOL0     C44967   6.773   6.828   6.648  0.5700  0.0154 -0.5719
  334MOL0     C44968   6.754   6.748   6.781  0.2461 -0.9347  0.3909
  334MOL0     C44969   6.792   6.825   6.908  0.2225 -0.1422 -0.9567
  334MOL0     C44970   6.915   6.915   6.907 -0.3479 -0.4732 -0.7284
  334MOL0     C44971   7.039   6.822   6.886  0.5221 -0.2527  0.0223
  334MOL0     N44972   7.084   6.767   7.014 -0.3226  0.5282  0.7423
  334MOL0     C44973   7.198   6.807   7.073 -0.0290  0.3731  1.2559
  334MOL0     C44974   7.203   6.752   7.198  0.7030  0.2456 -0.6004
  334MOL0     C44975   7.292   6.801   7.306 -0.3766  0.8905 -0.2541
  334MOL0     C44976   7.218   6.886   7.403  0.0075 -0.3409 -0.1137
  334MOL0     C44977   7.298   6.938   7.525 -1.0483 -0.3059 -0.3637
  334MOL0     C44978   7.392   7.064   7.500 -0.1551  0.2468  0.1984
  334MOL0     O44979   7.306   7.169   7.550 -0.1881  0.1785 -0.4326
  334MOL0     C44980   7.351   7.229   7.671  0.1579  0.6224 -0.1590
  334MOL0     C44981   7.448   7.332   7.681 -0.5780  0.3491  0.3837
  334MOL0     C44982   7.488   7.388   7.806 -0.9538  0.7925  0.1407
  334MOL0     C44983   7.604   7.482   7.789  0.3411  0.4601 -1.8174
  334MOL0     C44984   7.439   7.332   7.928  1.0242  0.6504  0.1165
  334MOL0     C44985   7.502   7.359   8.057 -0.0257  0.3069  0.5444
  334MOL0     O44986   7.457   7.278   8.152 -0.5561 -0.3147  0.0570
  334MOL0     C44987   7.477   7.291   8.287 -0.0809  0.3656 -0.2054
  334MOL0     C44988   7.497   7.174   8.363 -0.4658 -0.4748 -1.0451
  334MOL0     C44989   7.514   7.179   8.505 -0.0439 -0.1149  0.4359
  334MOL0     C44990   7.519   7.300   8.569 -0.4035 -0.0322 -0.5649
  334MOL0     O44991   7.547   7.324   8.705  0.1277 -0.2322  1.2017
  334MOL0     C44992   7.667   7.254   8.750 -0.6946 -0.8502 -0.4043
  334MOL0     C44993   7.736   7.339   8.855  0.6930  0.4085 -0.3325
  334MOL0     C44994   7.782   7.472   8.803 -0.0057 -0.4437 -0.1018
  334MOL0     C44995   7.839   7.574   8.905  0.0863 -0.5900 -1.1885
  334MOL0     C44996   7.856   7.713   8.848  0.6177 -0.5855  0.2334
  334MOL0     C44997   7.902   7.812   8.951 -0.3207 -0.5306  0.2141
  334MOL0     C44998   8.047   7.776   9.004 -0.0305  0.5911  1.0676
  334MOL0     C44999   8.117   7.874   9.091  1.1493 -0.6486  0.1017
  334MOL0    Cl45000   8.104   8.037   9.015 -0.4498 -0.3790 -0.2247
  334MOL0     C45001   7.477   7.415   8.496  0.5454  0.4211  0.2738
  334MOL0     C45002   7.462   7.409   8.359  0.1070 -0.0312  0.2352
  334MOL0     O45003   7.583   7.451   8.067 -0.0717 -0.1820 -0.4311
  334MOL0     C45004   7.337   7.233   7.916  0.2223 -0.3449  0.1991
  334MOL0     C45005   7.296   7.184   7.793  0.1692  0.8615 -0.3199
  334MOL0     N45006   7.096   6.665   7.205  0.0256 -0.0742  1.5867
  334MOL0     N45007   7.023   6.677   7.093 -0.1252  0.0626 -0.4402
  334MOL0     C45008   6.335   6.681   6.185 -0.1229  0.0759 -0.0971
  334MOL0     C45009   6.281   6.671   6.058  0.4167  0.1196  0.5422
  334MOL0     C45010   6.193   6.765   5.599 -0.2888 -0.4036  0.4673
  334MOL0     C45011   6.061   6.803   5.581 -0.0083  0.1043  0.4981
  334MOL0     C45012   6.003   6.778   5.464  0.4157 -0.1223  0.5285
  334MOL0     C45013   6.073   6.729   5.354 -0.5043  0.2413 -0.2756
  334MOL0     O45014   6.012   6.720   5.237  0.3169  0.0880 -0.3430
  334MOL0     C45015   6.040   6.622   5.136 -0.8469 -0.1956  0.3096
  334MOL0     C45016   6.026   6.481   5.203  0.3232 -2.0914  0.2423
  334MOL0     C45017   5.873   6.475   5.246 -0.0824  0.6945  0.0771
  334MOL0     C45018   5.812   6.347   5.204 -1.0902  0.2925 -0.0458
  334MOL0     C45019   5.673   6.343   5.254  0.1848 -0.0662  0.5516
  334MOL0     C45020   5.557   6.357   5.296  0.3071 -0.0460 -0.3786
  334MOL0     C45021   6.214   6.711   5.369 -0.3995 -0.0447 -0.4126
  334MOL0     C45022   6.275   6.717   5.494 -0.1653 -0.8881 -0.7640
  334MOL0     H45023   6.344   6.975   5.942 -6.2028 -0.7716 -2.0544
  334MOL0     H45024   6.456   6.994   6.153 -2.6966  2.2128 -2.0145
  334MOL0     H45025   6.370   6.669   6.459  1.1578 -0.0585  4.0806
  334MOL0     H45026   6.527   6.637   6.380 -0.2235  0.4715 -0.0696
  334MOL0     H45027   6.497   6.845   6.595 -2.9537 -1.7259  1.1872
  334MOL0     H45028   6.538   6.674   6.621 -0.8792  0.0097  1.3657
  334MOL0     H45029   6.743   6.681   6.501  0.6628 -0.0788  0.5717
  334MOL0     H45030   6.709   6.863   6.460  4.3785  1.1544  2.2362
  334MOL0     H45031   6.876   6.839   6.611 -0.5423  3.0484 -3.2740
  334MOL0     H45032   6.737   6.929   6.664 -1.1549 -0.5019 -1.0277
  334MOL0     H45033   6.647   6.727   6.786  0.1529 -0.9268 -1.1524
  334MOL0     H45034   6.802   6.650   6.774 -0.2041 -1.1592  0.4381
  334MOL0     H45035   6.708   6.889   6.937 -0.9498 -2.3315  0.8510
  334MOL0     H45036   6.778   6.768   7.000 -0.8873  0.3279 -0.8190
  334MOL0     H45037   6.927   6.990   6.828  1.5861 -2.3142 -2.3056
  334MOL0     H45038   6.915   6.962   7.006  1.4086 -1.0846 -0.3952
  334MOL0     H45039   7.118   6.883   6.840  1.5516 -1.9479 -0.5310
  334MOL0     H45040   7.017   6.741   6.816 -3.9097  0.5366  0.1837
  334MOL0     H45041   7.276   6.873   7.038  0.3007 -0.6224  0.0311
  334MOL0     H45042   7.322   6.708   7.355 -1.5402  1.5373  1.8078
  334MOL0     H45043   7.381   6.854   7.271 -1.9154  1.6558 -3.2832
  334MOL0     H45044   7.124   6.840   7.436 -0.5682  0.1334 -1.0475
  334MOL0     H45045   7.178   6.968   7.343 -2.4346 -1.7661 -0.5615
  334MOL0     H45046   7.352   6.857   7.576  2.3823  0.6916 -2.0852
  334MOL0     H45047   7.218   6.960   7.595 -0.9574  3.0310 -1.1658
  334MOL0     H45048   7.433   7.076   7.399  0.4231  0.1810  0.4234
  334MOL0     H45049   7.478   7.056   7.567 -2.3406 -0.0443  3.1192
  334MOL0     H45050   7.499   7.366   7.592  0.8264  0.3433  1.1470
  334MOL0     H45051   7.633   7.483   7.683 -0.7313  1.3420 -2.1284
  334MOL0     H45052   7.582   7.584   7.821 -1.7188 -0.9486  1.8209
  334MOL0     H45053   7.689   7.447   7.848 -0.9281 -0.2874 -0.3497
  334MOL0     H45054   7.506   7.076   8.318  1.0596 -2.0270  2.2551
  334MOL0     H45055   7.534   7.094   8.570 -2.9474  0.4528  2.2478
  334MOL0     H45056   7.629   7.158   8.787  2.0051 -2.6024 -1.8453
  334MOL0     H45057   7.733   7.240   8.664  0.1079 -0.5426  0.1544
  334MOL0     H45058   7.654   7.352   8.926 -0.3033 -0.2917 -1.3188
  334MOL0     H45059   7.825   7.305   8.909  1.9160  4.7668  0.7872
  334MOL0     H45060   7.701   7.515   8.742 -0.0794 -2.0259 -1.1691
  334MOL0     H45061   7.864   7.460   8.731  2.3537  0.3886  2.3101
  334MOL0     H45062   7.784   7.586   8.999 -0.5014 -0.3261 -1.5612
  334MOL0     H45063   7.939   7.538   8.931  0.4588  0.4073 -1.1906
  334MOL0     H45064   7.763   7.756   8.811  3.4728  3.8139 -2.7025
  334MOL0     H45065   7.930   7.714   8.768  0.2327  2.7671 -0.2376
  334MOL0     H45066   7.892   7.907   8.897 -1.8611 -0.6596  0.2450
  334MOL0     H45067   7.837   7.816   9.039  0.4125 -0.9424  0.7824
  334MOL0     H45068   8.117   7.749   8.925  1.4144 -0.0211  2.5032
  334MOL0     H45069   8.047   7.686   9.066  3.2759  1.2736  2.2691
  334MOL0     H45070   8.222   7.852   9.111  1.6928  1.4326 -0.1768
  334MOL0     H45071   8.073   7.889   9.190  3.1517 -0.5916  1.0286
  334MOL0     H45072   7.478   7.510   8.549 -0.0461 -0.0775  1.1960
  334MOL0     H45073   7.434   7.498   8.304  0.2024  0.1698  0.5113
  334MOL0     H45074   7.298   7.196   8.010  2.4799  1.0820  1.7920
  334MOL0     H45075   7.229   7.099   7.792  3.5617 -2.0346 -1.2119
  334MOL0     H45076   6.347   6.591   6.245 -0.1025  0.1893  0.0716
  334MOL0     H45077   6.236   6.574   6.036  2.8971 -0.8891 -0.5381
  334MOL0     H45078   5.987   6.837   5.653 -3.4139 -3.1882 -1.0806
  334MOL0     H45079   5.897   6.801   5.466  0.6280  1.4081 -1.5203
  334MOL0     H45080   5.961   6.633   5.061  0.3965  1.1541 -0.8827
  334MOL0     H45081   6.133   6.638   5.081 -0.5303 -2.3679  0.1430
  334MOL0     H45082   6.087   6.454   5.289  1.7655  1.2296  0.4158
  334MOL0     H45083   6.044   6.409   5.122 -1.6513 -2.4289  0.0440
  334MOL0     H45084   5.806   6.551   5.206  0.9842  3.5974  3.2997
  334MOL0     H45085   5.882   6.467   5.355  2.7611  1.7040  0.0041
  334MOL0     H45086   5.872   6.269   5.252  0.5869  2.9487  2.5563
  334MOL0     H45087   5.820   6.332   5.096 -0.3907  1.1682 -0.1236
  334MOL0     H45088   5.465   6.368   5.350  3.3310 -1.2172  5.9114
  334MOL0     H45089   6.277   6.675   5.288 -0.8615  1.6791 -1.6027
  334MOL0     H45090   6.381   6.695   5.502 -0.1530 -0.6270 -0.2156
  335MOL0     O45091   8.020   5.925  10.232 -0.3952  0.2908  0.6831
  335MOL0     C45092   8.108   5.895  10.147  0.4044 -0.8363 -0.5304
  335MOL0     O45093   8.230   5.954  10.136  0.4216 -0.2115 -0.3880
  335MOL0     C45094   8.264   6.039  10.242  0.2061 -1.1003 -0.4937
  335MOL0     C45095   8.282   5.988  10.372 -0.5290 -0.6690  1.1320
  335MOL0     C45096   8.341   6.067  10.472 -0.5268  0.5025  0.8469
  335MOL0     C45097   8.377   6.201  10.445 -0.1890 -0.7331 -0.5178
  335MOL0     O45098   8.437   6.287  10.534  0.2073  0.2904  0.0850
  335MOL0     C45099   8.450   6.251  10.666  0.7918 -0.5631 -1.3298
  335MOL0     C45100   8.577   6.158  10.683  0.5506 -0.9589 -0.3170
  335MOL0     C45101   8.566   6.078  10.810 -0.4551 -1.4678 -1.1560
  335MOL0     C45102   8.569   6.169  10.941  1.0782 -0.7879 -0.3161
  335MOL0     C45103   8.521   6.085  11.058 -0.2031 -0.2532 -0.2388
  335MOL0     C45104   8.612   5.969  11.102 -0.3526  0.2512  0.1451
  335MOL0     C45105   8.550   5.907  11.227  1.3247 -0.1535  0.2290
  335MOL0     C45106   8.600   5.776  11.272  0.0153  0.0310 -0.0944
  335MOL0     N45107   8.572   5.759  11.411 -0.0477  0.3731  0.3775
  335MOL0     C45108   8.455   5.714  11.469  0.1512  0.3097 -0.3001
  335MOL0     C45109   8.489   5.703  11.603 -0.0126  0.7542  0.4208
  335MOL0     C45110   8.393   5.668  11.718 -0.4886 -0.8029 -0.7477
  335MOL0     C45111   8.446   5.695  11.858  0.6121 -1.2267  0.6098
  335MOL0     C45112   8.552   5.590  11.908  0.0336  0.0666  0.5427
  335MOL0     C45113   8.508   5.437  11.908 -1.1186 -0.1561  0.1554
  335MOL0     O45114   8.374   5.424  11.967 -0.1098 -1.0365  0.3090
  335MOL0     C45115   8.363   5.397  12.100  0.0311 -0.0004 -0.0110
  335MOL0     C45116   8.237   5.357  12.147  0.5689  0.3377 -0.4760
  335MOL0     C45117   8.214   5.332  12.281 -0.8026  1.2213  0.5532
  335MOL0     C45118   8.072   5.294  12.315 -0.1511 -0.2796  0.5715
  335MOL0     C45119   8.311   5.359  12.372  0.0675  1.1099 -0.0916
  335MOL0     C45120   8.285   5.345  12.521  0.6056 -0.4824 -0.2028
  335MOL0     O45121   8.166   5.286  12.564 -0.2661 -0.1866  0.2507
  335MOL0     C45122   8.126   5.275  12.690 -0.5148 -0.1488 -0.4803
  335MOL0     C45123   8.206   5.199  12.785 -0.5081 -0.1533 -0.1052
  335MOL0     C45124   8.176   5.218  12.925 -0.3209 -0.0772  0.6587
  335MOL0     C45125   8.050   5.280  12.960 -0.0839 -1.0381 -0.1785
  335MOL0     O45126   8.016   5.306  13.091  0.6049 -0.7951 -0.8816
  335MOL0     C45127   8.092   5.252  13.196 -0.1157  0.4552 -0.4506
  335MOL0     C45128   8.029   5.306  13.326 -0.0584 -0.0262 -0.7984
  335MOL0     C45129   8.100   5.263  13.447 -0.2092  1.1135  0.5047
  335MOL0     C45130   8.084   5.363  13.569 -0.2383 -0.5803 -0.6663
  335MOL0     C45131   7.935   5.368  13.600  0.0497 -0.5727 -1.0290
  335MOL0     C45132   7.906   5.417  13.746 -0.8170 -0.4323  0.1603
  335MOL0     C45133   7.764   5.355  13.787 -0.5985  0.2137 -0.7384
  335MOL0     C45134   7.738   5.420  13.918 -0.0293 -0.2148  0.1415
  335MOL0    Cl45135   7.851   5.399  14.051 -0.3355 -0.1342  0.4152
  335MOL0     C45136   7.968   5.338  12.860 -0.0827 -0.0888  0.4864
  335MOL0     C45137   7.999   5.327  12.723 -0.6351  0.9825 -0.3058
  335MOL0     O45138   8.378   5.379  12.599  0.3864  0.1625 -0.4071
  335MOL0     C45139   8.437   5.397  12.334 -0.3300  0.3657  0.3985
  335MOL0     C45140   8.464   5.418  12.196 -0.9154 -0.0766 -0.3041
  335MOL0     N45141   8.621   5.747  11.622  0.5317  0.3981 -0.2120
  335MOL0     N45142   8.671   5.782  11.506  0.7029 -0.4274  0.6303
  335MOL0     C45143   8.352   6.252  10.313 -0.4510  0.0537 -0.1690
  335MOL0     C45144   8.297   6.172  10.213 -0.4789 -0.0812  0.3239
  335MOL0     C45145   8.087   5.767  10.076  0.5264  0.1114 -1.2090
  335MOL0     C45146   8.152   5.733   9.955 -0.1850 -0.2203  0.3598
  335MOL0     C45147   8.128   5.616   9.882 -0.3137  0.5026 -0.4508
  335MOL0     C45148   8.043   5.525   9.940  0.0297 -0.4313 -0.4690
  335MOL0     O45149   8.027   5.402   9.895 -0.3894  0.1065 -0.4907
  335MOL0     C45150   7.921   5.376   9.801  0.0096 -0.0596  0.4428
  335MOL0     C45151   7.776   5.388   9.853  0.3182 -0.0688 -1.0700
  335MOL0     C45152   7.661   5.340   9.756  0.0637  0.0703 -0.7543
  335MOL0     C45153   7.566   5.247   9.828  0.8011  0.4161  0.1545
  335MOL0     C45154   7.628   5.124   9.864 -2.0432 -0.1104  0.1683
  335MOL0     C45155   7.698   5.025   9.897 -0.1660  0.4436  0.3724
  335MOL0     C45156   7.979   5.550  10.059 -0.4315 -0.3400 -0.7319
  335MOL0     C45157   7.996   5.670  10.122 -0.0735  0.7833  0.0899
  335MOL0     H45158   8.240   5.890  10.393 -0.1984 -0.4688  2.8998
  335MOL0     H45159   8.362   6.021  10.568 -2.2753 -1.4731  0.3594
  335MOL0     H45160   8.460   6.338  10.731 -0.9491 -2.3978  1.6459
  335MOL0     H45161   8.357   6.201  10.695  0.1141 -0.3560 -3.0510
  335MOL0     H45162   8.587   6.099  10.592  1.9627 -2.1730  0.5769
  335MOL0     H45163   8.672   6.213  10.682 -0.0439  0.2518  1.9462
  335MOL0     H45164   8.462   6.048  10.793 -1.8099  3.2064 -2.7770
  335MOL0     H45165   8.641   5.999  10.814 -0.7428 -1.6948  2.1017
  335MOL0     H45166   8.674   6.202  10.944  1.8166 -2.6446 -2.4553
  335MOL0     H45167   8.511   6.261  10.933  1.3832 -0.7010 -1.9223
  335MOL0     H45168   8.510   6.147  11.147 -1.3395 -0.7948  0.0211
  335MOL0     H45169   8.424   6.044  11.027  0.5270 -2.0859 -0.1647
  335MOL0     H45170   8.635   5.898  11.022  0.3098  0.6960 -0.0679
  335MOL0     H45171   8.710   6.007  11.134  0.4088 -1.7163  0.3057
  335MOL0     H45172   8.551   5.977  11.311  2.4472  0.1349 -0.0087
  335MOL0     H45173   8.446   5.900  11.192  0.8577  2.2461  0.9422
  335MOL0     H45174   8.708   5.793  11.266  0.2607 -1.5532 -0.6246
  335MOL0     H45175   8.559   5.706  11.198 -1.8817  1.5096 -0.5256
  335MOL0     H45176   8.359   5.703  11.419 -0.0421 -1.4352  0.3547
  335MOL0     H45177   8.297   5.720  11.705  0.4420  1.1746 -0.0488
  335MOL0     H45178   8.377   5.560  11.709 -0.9951 -0.8094  0.1284
  335MOL0     H45179   8.364   5.699  11.930 -1.2469  0.1302 -1.4484
  335MOL0     H45180   8.497   5.791  11.857  0.6336 -1.1096 -3.7898
  335MOL0     H45181   8.556   5.619  12.014  1.4491  1.0229  0.2523
  335MOL0     H45182   8.647   5.593  11.856 -2.1949 -0.0448 -4.0406
  335MOL0     H45183   8.587   5.390  11.968  1.2329  2.5562 -0.6178
  335MOL0     H45184   8.519   5.389  11.810  1.0283  0.1269  0.2118
  335MOL0     H45185   8.157   5.341  12.075 -0.0507  1.8691 -0.1615
  335MOL0     H45186   8.031   5.376  12.376  2.6114  2.0263 -0.4989
  335MOL0     H45187   8.015   5.279  12.223  3.3453 -3.0202 -1.3903
  335MOL0     H45188   8.060   5.200  12.370  0.8768  0.5481  2.3261
  335MOL0     H45189   8.299   5.151  12.757  0.2852 -0.0471  2.1094
  335MOL0     H45190   8.232   5.160  12.997  0.8103 -1.2491 -1.0937
  335MOL0     H45191   8.086   5.143  13.197 -0.3659  0.4401  1.3669
  335MOL0     H45192   8.196   5.287  13.192 -0.1666  0.4798 -1.9487
  335MOL0     H45193   8.013   5.413  13.340 -0.6493 -0.3723  1.7168
  335MOL0     H45194   7.926   5.269  13.323  0.5647 -1.7736 -2.8221
  335MOL0     H45195   8.209   5.264  13.436 -0.0441 -1.6317  1.1486
  335MOL0     H45196   8.070   5.160  13.469 -2.7944  2.0055  1.5292
  335MOL0     H45197   8.134   5.309  13.651 -0.5475 -4.9661 -3.0432
  335MOL0     H45198   8.128   5.463  13.565  0.0985 -0.5938  1.4344
  335MOL0     H45199   7.899   5.265  13.587  0.7647 -1.0841  0.7301
  335MOL0     H45200   7.888   5.430  13.523  0.2505 -0.7534 -1.2998
  335MOL0     H45201   7.986   5.373  13.806 -0.4202 -0.1302 -0.1455
  335MOL0     H45202   7.900   5.526  13.748  0.4806 -0.2595 -2.1483
  335MOL0     H45203   7.780   5.250  13.813 -1.5397 -0.3215 -2.2149
  335MOL0     H45204   7.684   5.365  13.713 -1.5807 -0.3066  0.2179
  335MOL0     H45205   7.638   5.404  13.960 -0.5040 -0.7020 -1.1257
  335MOL0     H45206   7.747   5.527  13.900  3.4031 -0.6084 -1.3991
  335MOL0     H45207   7.881   5.398  12.887  1.5283  1.6665  2.0825
  335MOL0     H45208   7.922   5.370  12.660  0.4163  0.7991 -1.7767
  335MOL0     H45209   8.515   5.397  12.409  0.0103  2.0615  0.0869
  335MOL0     H45210   8.564   5.440  12.158  1.1923 -2.5679  3.1660
  335MOL0     H45211   8.369   6.359  10.300 -1.5640  0.4264  1.2125
  335MOL0     H45212   8.262   6.228  10.127  0.0595  0.7012  0.6057
  335MOL0     H45213   8.222   5.808   9.920  1.2709 -1.8057 -0.2881
  335MOL0     H45214   8.178   5.583   9.792 -1.4668 -4.3617  0.4317
  335MOL0     H45215   7.923   5.452   9.722 -1.0887  2.0741  2.3984
  335MOL0     H45216   7.936   5.283   9.744 -0.1792 -1.3472  2.3972
  335MOL0     H45217   7.760   5.495   9.866  0.4547 -0.3488  2.3066
  335MOL0     H45218   7.763   5.328   9.944  0.8581  0.2481 -0.7792
  335MOL0     H45219   7.710   5.300   9.667 -2.6663 -0.2142 -2.2488
  335MOL0     H45220   7.609   5.433   9.729 -2.1706 -1.1861 -1.0426
  335MOL0     H45221   7.487   5.214   9.759  0.0399  2.0565  0.1850
  335MOL0     H45222   7.515   5.286   9.917 -1.0547  2.2049 -1.5967
  335MOL0     H45223   7.744   4.929   9.889 -0.5433  0.3718 -1.2738
  335MOL0     H45224   7.925   5.471  10.111  0.4771 -1.2913 -1.1949
  335MOL0     H45225   7.953   5.682  10.221 -0.0788  0.7353  0.0937
  336MOL0     O45226   6.124   9.454   0.997  0.7006  0.1782  0.6815
  336MOL0     C45227   6.139   9.522   1.095  0.2607 -0.0170  0.8045
  336MOL0     O45228   6.104   9.652   1.102 -0.3993  0.9947 -0.2224
  336MOL0     C45229   6.008   9.706   1.023 -0.4228 -0.1605  0.1242
  336MOL0     C45230   5.979   9.838   1.064 -0.0625  0.0727  0.2222
  336MOL0     C45231   5.878   9.912   1.005 -0.3620 -0.7253 -0.3272
  336MOL0     C45232   5.811   9.858   0.896  0.1612 -0.0667 -0.0853
  336MOL0     O45233   5.717   9.928   0.821 -0.0784  0.7359 -0.3086
  336MOL0     C45234   5.767  10.062   0.789 -0.1295 -0.3415  0.1481
  336MOL0     C45235   5.749  10.064   0.631 -0.2153  0.1323 -0.5552
  336MOL0     C45236   5.823  10.194   0.565  0.2108 -0.1318 -0.1553
  336MOL0     C45237   5.768  10.329   0.620  0.4862  0.1757 -0.6510
  336MOL0     C45238   5.800  10.445   0.519 -0.8066  0.2744  0.2478
  336MOL0     C45239   5.949  10.464   0.489 -0.2523  0.1327  0.0952
  336MOL0     C45240   6.045  10.456   0.602  0.3559  0.1701  0.1754
  336MOL0     C45241   6.191  10.520   0.560 -0.3303 -0.3418 -0.0366
  336MOL0     N45242   6.212  10.656   0.627 -0.3113 -0.0215  0.6602
  336MOL0     C45243   6.171  10.773   0.565 -0.7626  0.0164 -0.6621
  336MOL0     C45244   6.208  10.869   0.651  0.0448  0.1854  0.2810
  336MOL0     C45245   6.201  11.021   0.646 -0.6252 -0.5800 -0.7616
  336MOL0     C45246   6.083  11.086   0.715 -0.6274  0.3572  0.6331
  336MOL0     C45247   6.073  11.241   0.719  0.3763  0.0823  0.0488
  336MOL0     C45248   5.965  11.291   0.806  0.1485 -0.0923 -0.0734
  336MOL0     O45249   5.840  11.220   0.792  0.0062 -0.9741 -0.1506
  336MOL0     C45250   5.737  11.266   0.709  0.2551  0.4729 -0.5750
  336MOL0     C45251   5.606  11.276   0.767  0.0791 -0.7277  0.4129
  336MOL0     C45252   5.505  11.321   0.679  0.3034  0.4425  0.8414
  336MOL0     C45253   5.364  11.318   0.724 -0.3556 -0.7156 -0.0519
  336MOL0     C45254   5.541  11.365   0.547  0.6576  0.2680 -0.2114
  336MOL0     C45255   5.441  11.413   0.454 -0.2654 -0.2288  0.6911
  336MOL0     O45256   5.400  11.541   0.469  0.3560  0.2283 -0.4189
  336MOL0     C45257   5.311  11.591   0.382  0.0809 -0.9397  0.1144
  336MOL0     C45258   5.189  11.642   0.426 -0.6575 -0.4673  0.2185
  336MOL0     C45259   5.096  11.689   0.336  0.4186  0.0650  0.3435
  336MOL0     C45260   5.113  11.676   0.197 -0.0310 -0.0637 -0.3171
  336MOL0     O45261   5.022  11.728   0.101  0.8276  0.3557 -0.7186
  336MOL0     C45262   5.070  11.756  -0.030 -0.3413 -1.0369  0.5006
  336MOL0     C45263   5.147  11.884  -0.036 -0.1594 -0.2036 -1.3819
  336MOL0     C45264   5.165  11.932  -0.181  0.2751  0.4869  0.4414
  336MOL0     C45265   5.261  12.060  -0.188 -0.7008 -0.3891 -0.3129
  336MOL0     C45266   5.309  12.094  -0.323  0.4761 -0.9029 -1.1056
  336MOL0     C45267   5.432  12.186  -0.337  0.9123 -0.9597 -0.2966
  336MOL0     C45268   5.479  12.183  -0.486  0.0095 -0.1596 -0.4971
  336MOL0     C45269   5.626  12.242  -0.506 -0.2613  0.3750  0.1366
  336MOL0    Cl45270   5.623  12.430  -0.500  0.0106 -0.3082  0.6621
  336MOL0     C45271   5.238  11.621   0.158 -0.3183  0.8591  0.7892
  336MOL0     C45272   5.330  11.589   0.247  0.1497 -0.6599  0.6281
  336MOL0     O45273   5.415  11.323   0.359  0.0161 -1.0381  0.0830
  336MOL0     C45274   5.667  11.351   0.497  0.5658  0.1552  0.8291
  336MOL0     C45275   5.767  11.301   0.579 -0.1735 -0.2817  0.0070
  336MOL0     N45276   6.270  10.814   0.760  0.4070  0.0645  0.1358
  336MOL0     N45277   6.281  10.682   0.741  0.1856 -0.3155 -0.0818
  336MOL0     C45278   5.838   9.722   0.854 -0.3830 -0.6338  0.5371
  336MOL0     C45279   5.943   9.651   0.907  0.6346 -0.7475 -1.5891
  336MOL0     C45280   6.222   9.467   1.204  0.4234  1.0683 -0.5264
  336MOL0     C45281   6.302   9.349   1.187  1.2083 -0.3328  0.4897
  336MOL0     C45282   6.369   9.307   1.302 -0.6328  0.3044  0.2222
  336MOL0     C45283   6.365   9.359   1.436  1.2437 -0.7158 -0.3381
  336MOL0     O45284   6.407   9.313   1.553  0.3187 -0.5251  0.2691
  336MOL0     C45285   6.542   9.256   1.568 -0.1080  0.2967  0.8024
  336MOL0     C45286   6.641   9.363   1.529  0.1828 -0.6696  1.4134
  336MOL0     C45287   6.787   9.323   1.526 -0.6398  0.5482  0.3475
  336MOL0     C45288   6.854   9.312   1.665  0.0778  0.1307  0.0842
  336MOL0     C45289   6.908   9.438   1.712 -0.5124 -0.4437 -0.5922
  336MOL0     C45290   6.947   9.552   1.756  0.0987 -0.4692  0.2752
  336MOL0     C45291   6.263   9.459   1.448 -0.4304 -0.5318 -0.5387
  336MOL0     C45292   6.194   9.514   1.339  0.7623 -0.5437 -0.5004
  336MOL0     H45293   6.035   9.882   1.146  2.7460  0.0904 -1.5933
  336MOL0     H45294   5.840  10.003   1.051 -0.8846 -0.7951 -0.6097
  336MOL0     H45295   5.709  10.137   0.843  0.8351  1.3747 -1.1115
  336MOL0     H45296   5.871  10.084   0.815 -0.7324  0.8254  1.7161
  336MOL0     H45297   5.798   9.977   0.587  1.2743  0.8125 -0.2994
  336MOL0     H45298   5.643  10.059   0.602  0.4927  1.2637 -3.7844
  336MOL0     H45299   5.930  10.182   0.584  0.7720  1.3938 -2.0865
  336MOL0     H45300   5.815  10.186   0.456 -0.1878 -0.5647 -0.0982
  336MOL0     H45301   5.659  10.328   0.626  0.5164  1.8204  1.5717
  336MOL0     H45302   5.822  10.353   0.712  0.2737  1.0645 -0.7469
  336MOL0     H45303   5.739  10.432   0.429  0.6400 -4.7761 -0.3062
  336MOL0     H45304   5.767  10.536   0.570  0.7868 -1.0965  4.1242
  336MOL0     H45305   5.980  10.391   0.413  1.4486 -1.8524  2.5447
  336MOL0     H45306   5.963  10.559   0.436  4.1655 -0.4644 -0.1284
  336MOL0     H45307   6.008  10.510   0.690  3.8480  1.1026  1.2150
  336MOL0     H45308   6.058  10.350   0.626  3.2696  0.4560  0.1863
  336MOL0     H45309   6.198  10.521   0.451  0.5326 -2.5437 -0.0576
  336MOL0     H45310   6.273  10.450   0.578 -0.5297 -0.4551  0.4617
  336MOL0     H45311   6.120  10.787   0.471  0.2893 -1.8398 -1.5558
  336MOL0     H45312   6.300  11.060   0.672 -1.2625  1.4808 -1.2732
  336MOL0     H45313   6.185  11.035   0.539 -1.0560 -1.0040 -0.7575
  336MOL0     H45314   6.077  11.048   0.818  1.7687 -1.0511  0.3282
  336MOL0     H45315   5.998  11.061   0.651 -0.9754  0.8395  0.8954
  336MOL0     H45316   6.067  11.277   0.616  6.4258 -1.1153 -1.0958
  336MOL0     H45317   6.166  11.288   0.753 -0.8558  2.8784 -0.1479
  336MOL0     H45318   5.955  11.396   0.780  0.1542  0.0144  0.3463
  336MOL0     H45319   5.977  11.274   0.913 -3.0845 -0.8950  0.2728
  336MOL0     H45320   5.598  11.254   0.873 -1.9280 -0.7231  0.3040
  336MOL0     H45321   5.357  11.286   0.828  1.0286 -1.9810 -0.3219
  336MOL0     H45322   5.321  11.416   0.700 -0.6126 -1.2028 -1.6784
  336MOL0     H45323   5.309  11.253   0.656 -3.6227 -0.2143  1.8659
  336MOL0     H45324   5.160  11.650   0.530 -1.7480 -2.1767  0.0825
  336MOL0     H45325   4.993  11.712   0.359  0.4451  0.2331  0.2919
  336MOL0     H45326   5.134  11.675  -0.065  1.0659  0.1754  0.1703
  336MOL0     H45327   4.979  11.760  -0.091 -0.7516 -1.1655  1.0957
  336MOL0     H45328   5.100  11.971   0.011 -0.4264 -1.9556  1.9625
  336MOL0     H45329   5.244  11.862   0.009  0.1473  1.0009 -1.4077
  336MOL0     H45330   5.062  11.957  -0.210 -0.0900 -1.8994 -0.5639
  336MOL0     H45331   5.203  11.851  -0.244  1.1467  0.2652  1.2247
  336MOL0     H45332   5.208  12.148  -0.151  1.1865 -0.6852  3.5739
  336MOL0     H45333   5.350  12.044  -0.126 -0.2727 -1.3659 -1.1492
  336MOL0     H45334   5.223  12.148  -0.363 -1.4223 -2.5741  0.4930
  336MOL0     H45335   5.320  11.998  -0.374 -0.0480 -2.3179  1.3019
  336MOL0     H45336   5.402  12.288  -0.313  1.2080 -0.3716 -2.1980
  336MOL0     H45337   5.521  12.169  -0.276 -0.1613  0.3656  1.7189
  336MOL0     H45338   5.406  12.235  -0.548 -2.8631 -0.3728  2.4139
  336MOL0     H45339   5.497  12.081  -0.522 -3.6200 -1.2613  0.4212
  336MOL0     H45340   5.664  12.218  -0.605  1.1744  0.2288  0.7032
  336MOL0     H45341   5.691  12.200  -0.429  0.6552 -2.0700 -1.8695
  336MOL0     H45342   5.274  11.591   0.060 -2.2982 -0.8969  0.4999
  336MOL0     H45343   5.426  11.558   0.207  0.7039  0.4183  1.0945
  336MOL0     H45344   5.688  11.390   0.397 -1.6794  0.9532  0.6288
  336MOL0     H45345   5.867  11.279   0.542 -0.8307 -0.3025 -1.8439
  336MOL0     H45346   5.788   9.683   0.766 -1.3080 -0.6820  1.0678
  336MOL0     H45347   5.954   9.550   0.868 -3.2111 -1.0979 -2.1395
  336MOL0     H45348   6.313   9.284   1.101  0.2492  1.6140 -1.1869
  336MOL0     H45349   6.424   9.215   1.285 -1.7278 -0.2631 -0.3567
  336MOL0     H45350   6.552   9.232   1.674 -1.9697  1.0264  1.1773
  336MOL0     H45351   6.554   9.170   1.500  2.4882 -0.3505  1.9410
  336MOL0     H45352   6.634   9.453   1.591 -2.0137  0.5767 -0.4678
  336MOL0     H45353   6.619   9.401   1.429 -1.5170 -0.4406  1.8344
  336MOL0     H45354   6.851   9.386   1.463  0.1046 -0.3020  0.2219
  336MOL0     H45355   6.792   9.230   1.468 -0.9218  0.9919 -0.4015
  336MOL0     H45356   6.937   9.242   1.657 -0.6743 -0.5776 -2.7656
  336MOL0     H45357   6.785   9.266   1.737  2.5406 -0.7375  2.0482
  336MOL0     H45358   6.969   9.651   1.790  4.1197 -0.5641 -1.3885
  336MOL0     H45359   6.236   9.511   1.540 -2.4894  0.5473 -1.6675
  336MOL0     H45360   6.120   9.593   1.340  0.8541 -0.4527 -0.7094
  337MOL0     O45361   4.290  10.722   1.240 -0.4601 -0.5437 -0.7421
  337MOL0     C45362   4.328  10.773   1.138 -0.2251 -0.3160  0.2852
  337MOL0     O45363   4.365  10.701   1.022 -0.5375 -0.2921  0.1143
  337MOL0     C45364   4.379  10.567   1.018  0.2141 -0.1921 -1.3102
  337MOL0     C45365   4.510  10.508   1.028 -1.1729 -0.6155  1.0541
  337MOL0     C45366   4.535  10.371   1.027 -0.1018  0.3014  0.0798
  337MOL0     C45367   4.432  10.279   1.030 -0.2400 -0.7116  0.3850
  337MOL0     O45368   4.456  10.145   0.994  0.7011 -0.7523  0.1008
  337MOL0     C45369   4.411  10.063   1.096 -0.0135  0.7329  0.1536
  337MOL0     C45370   4.442   9.919   1.066 -0.2143 -0.6030  0.1311
  337MOL0     C45371   4.373   9.866   0.942 -0.8212 -0.9766 -0.9161
  337MOL0     C45372   4.222   9.846   0.947 -0.4105 -0.0826  0.4244
  337MOL0     C45373   4.196   9.776   0.808 -0.2248 -0.1028 -1.0021
  337MOL0     C45374   4.040   9.754   0.797  0.0961 -0.3806 -1.5516
  337MOL0     C45375   3.954   9.892   0.788  0.4856  0.1711  0.2323
  337MOL0     C45376   3.997   9.978   0.669 -0.5970  0.3791  0.5421
  337MOL0     N45377   3.926  10.095   0.650 -0.0547 -0.8939  0.4326
  337MOL0     C45378   3.787  10.097   0.634 -0.5613 -0.0620 -0.0565
  337MOL0     C45379   3.756  10.218   0.581 -1.3559  0.4166 -0.5130
  337MOL0     C45380   3.625  10.274   0.545 -0.3491  0.1307  1.0705
  337MOL0     C45381   3.629  10.355   0.415  1.1667 -0.0835 -0.0368
  337MOL0     C45382   3.482  10.385   0.373  0.2573 -0.7354  0.3092
  337MOL0     C45383   3.378  10.410   0.483  0.7144  0.1677  0.5215
  337MOL0     O45384   3.257  10.457   0.414 -0.3803  0.1040  0.1378
  337MOL0     C45385   3.229  10.591   0.435  0.3408  0.5483  0.2200
  337MOL0     C45386   3.212  10.648   0.566  0.1789  0.0450  0.7179
  337MOL0     C45387   3.174  10.786   0.571 -0.4629  0.7300 -0.3074
  337MOL0     C45388   3.140  10.829   0.711  0.0488  0.2545  1.1308
  337MOL0     C45389   3.167  10.867   0.459 -0.9164 -0.4039  0.0365
  337MOL0     C45390   3.139  11.010   0.466  0.5393 -0.3625  1.2558
  337MOL0     O45391   3.222  11.088   0.539 -0.2087 -0.3755 -0.0148
  337MOL0     C45392   3.195  11.217   0.566  1.0637 -0.1991 -0.0705
  337MOL0     C45393   3.290  11.311   0.582 -0.0322 -0.4036 -0.2443
  337MOL0     C45394   3.258  11.447   0.621 -0.5505 -0.0892 -0.0108
  337MOL0     C45395   3.122  11.479   0.645 -0.5114 -0.4402  0.3034
  337MOL0     O45396   3.106  11.599   0.698 -0.1664 -0.2191 -0.7157
  337MOL0     C45397   3.064  11.605   0.835 -0.1412 -0.3986 -0.0841
  337MOL0     C45398   2.930  11.682   0.851  0.4186  0.7676  0.5465
  337MOL0     C45399   2.923  11.736   0.996 -0.3255  0.2928 -0.7798
  337MOL0     C45400   2.929  11.633   1.106  0.5198 -0.3076 -0.6910
  337MOL0     C45401   2.891  11.707   1.240  0.2853 -0.6890 -0.1275
  337MOL0     C45402   2.891  11.611   1.364 -0.5164  0.1088  0.3944
  337MOL0     C45403   2.847  11.682   1.493 -0.3043  0.1645 -0.3763
  337MOL0     C45404   2.845  11.594   1.613 -0.6568  0.3493 -0.2615
  337MOL0    Cl45405   2.995  11.601   1.699 -0.0173  0.6014 -0.3886
  337MOL0     C45406   3.025  11.392   0.624  0.7702  0.2481 -0.3079
  337MOL0     C45407   3.058  11.260   0.585 -0.5244 -0.1666 -0.3408
  337MOL0     O45408   3.039  11.047   0.396  0.3251 -0.0018 -1.0751
  337MOL0     C45409   3.188  10.804   0.340 -0.1559  0.4414  0.6074
  337MOL0     C45410   3.221  10.670   0.323 -0.2798 -1.2693 -0.2117
  337MOL0     N45411   3.878  10.291   0.589 -0.3490 -0.1331  0.3855
  337MOL0     N45412   3.972  10.218   0.632 -0.4247 -0.1437  0.7102
  337MOL0     C45413   4.302  10.329   1.021 -0.5335 -0.9143 -0.1887
  337MOL0     C45414   4.275  10.474   1.025  0.3409 -0.1399 -0.1402
  337MOL0     C45415   4.348  10.929   1.132  1.1144  0.6842 -0.2564
  337MOL0     C45416   4.438  10.978   1.037  0.4522 -0.6495  0.5586
  337MOL0     C45417   4.466  11.112   1.034 -1.0524  0.0504  0.1721
  337MOL0     C45418   4.395  11.204   1.118 -0.3707 -0.4075 -1.0629
  337MOL0     O45419   4.421  11.340   1.127  0.3074  0.7121 -0.4345
  337MOL0     C45420   4.461  11.394   1.000  0.5517  0.4124 -0.5400
  337MOL0     C45421   4.442  11.546   1.002 -0.0762  0.0998  0.2912
  337MOL0     C45422   4.466  11.606   1.140 -0.1343  0.4019  0.1228
  337MOL0     C45423   4.335  11.630   1.218  0.2177  0.3806  0.1003
  337MOL0     C45424   4.370  11.688   1.346 -0.0691 -0.1783 -0.4156
  337MOL0     C45425   4.417  11.749   1.439 -0.5841 -0.3400 -0.1414
  337MOL0     C45426   4.306  11.152   1.211 -0.3979 -1.0248  0.1393
  337MOL0     C45427   4.283  11.016   1.222  0.1514  0.8958 -0.1483
  337MOL0     H45428   4.588  10.583   1.019 -1.9631 -0.0622 -3.6804
  337MOL0     H45429   4.632  10.323   1.032  0.2017  0.7115 -1.3571
  337MOL0     H45430   4.432  10.095   1.199 -0.0485 -0.7521  0.6490
  337MOL0     H45431   4.302  10.065   1.095 -0.1653 -0.7485  2.9103
  337MOL0     H45432   4.550   9.904   1.054 -0.4105  0.3490 -5.0451
  337MOL0     H45433   4.401   9.870   1.155 -3.5781 -1.8237 -1.8984
  337MOL0     H45434   4.397   9.937   0.862 -0.6520 -0.6769 -0.6030
  337MOL0     H45435   4.426   9.771   0.930  0.0179 -0.4104 -1.8600
  337MOL0     H45436   4.191   9.775   1.024 -1.8574 -2.5768 -2.2625
  337MOL0     H45437   4.165   9.940   0.949 -1.4291 -0.6706 -0.1762
  337MOL0     H45438   4.243   9.833   0.727  3.8775  0.1769  1.2955
  337MOL0     H45439   4.247   9.679   0.815 -0.8266 -0.6416 -3.2182
  337MOL0     H45440   4.018   9.694   0.708 -0.2785  1.0547 -2.4563
  337MOL0     H45441   4.008   9.694   0.883  0.8769  1.6826  0.2585
  337MOL0     H45442   3.849   9.868   0.771  0.4144 -1.0112  2.0349
  337MOL0     H45443   3.977   9.955   0.874  0.3154 -0.5090  0.7931
  337MOL0     H45444   3.999   9.915   0.580 -2.6883  0.6148  0.2857
  337MOL0     H45445   4.098  10.020   0.681 -1.3194  2.5396 -0.3176
  337MOL0     H45446   3.732  10.003   0.638  0.8796 -0.8883  1.1755
  337MOL0     H45447   3.550  10.195   0.533  0.3515 -0.4144  0.0859
  337MOL0     H45448   3.597  10.338   0.629 -2.4219  0.8339 -0.0942
  337MOL0     H45449   3.686  10.306   0.336  1.1270  1.3504 -0.9976
  337MOL0     H45450   3.687  10.440   0.450  2.2784 -1.9255  2.9417
  337MOL0     H45451   3.450  10.299   0.314  1.2801 -0.9639  0.0689
  337MOL0     H45452   3.480  10.472   0.306 -0.9632 -1.1330 -0.1877
  337MOL0     H45453   3.409  10.488   0.553 -0.6953  0.3910  0.9245
  337MOL0     H45454   3.359  10.318   0.539  1.4035  0.2227  0.8677
  337MOL0     H45455   3.213  10.578   0.649  0.1897 -1.3693 -0.4267
  337MOL0     H45456   3.223  10.887   0.755 -0.8330  2.9878 -0.5377
  337MOL0     H45457   3.051  10.893   0.714  1.1958  2.0184 -0.1127
  337MOL0     H45458   3.122  10.752   0.787  1.8730 -0.7419  0.6256
  337MOL0     H45459   3.396  11.289   0.579 -0.4215 -2.6684  0.5953
  337MOL0     H45460   3.339  11.512   0.652 -1.4065  1.4455 -0.8851
  337MOL0     H45461   3.040  11.507   0.878  0.8443 -0.0970  1.2010
  337MOL0     H45462   3.148  11.650   0.887 -1.9751  2.4835  0.6094
  337MOL0     H45463   2.951  11.773   0.794 -1.8611 -0.0306 -1.7565
  337MOL0     H45464   2.842  11.628   0.818 -0.4477  1.3096  1.9059
  337MOL0     H45465   2.829  11.792   0.994  0.7147  2.1211 -0.2403
  337MOL0     H45466   3.002  11.810   1.012 -1.5936  1.7967 -1.2214
  337MOL0     H45467   2.858  11.554   1.081  0.4224  0.4878 -3.1754
  337MOL0     H45468   3.035  11.608   1.114  1.3519  2.9145 -0.0388
  337MOL0     H45469   2.791  11.751   1.228  1.5790  2.5494  0.0545
  337MOL0     H45470   2.960  11.789   1.261  0.1281 -0.0766 -1.8410
  337MOL0     H45471   2.816  11.534   1.347  0.7471 -0.7002 -1.8968
  337MOL0     H45472   2.989  11.564   1.377  0.4023  1.2786 -1.7793
  337MOL0     H45473   2.743  11.707   1.471  0.0819  2.3344  0.0341
  337MOL0     H45474   2.903  11.776   1.501 -0.7804  0.4890 -0.7457
  337MOL0     H45475   2.841  11.487   1.590  5.3212 -0.1971 -0.2794
  337MOL0     H45476   2.771  11.623   1.689  1.0740  1.3234  1.1258
  337MOL0     H45477   2.927  11.425   0.655  1.4345  1.9194  0.1275
  337MOL0     H45478   2.979  11.187   0.573 -0.6310  0.0095 -0.7084
  337MOL0     H45479   3.189  10.867   0.251 -1.6961 -0.9920 -0.4796
  337MOL0     H45480   3.228  10.625   0.224 -2.4957  0.0451 -1.0422
  337MOL0     H45481   4.224  10.258   0.996  0.1253 -1.2451 -1.4303
  337MOL0     H45482   4.170  10.501   1.017 -0.3656 -2.3074  1.1291
  337MOL0     H45483   4.483  10.910   0.965 -2.1221  0.1534 -1.9874
  337MOL0     H45484   4.541  11.144   0.963 -0.2657  0.1537  1.0291
  337MOL0     H45485   4.568  11.385   0.976  0.4480 -0.1564 -0.8006
  337MOL0     H45486   4.404  11.353   0.917  0.0492  0.3988 -0.1943
  337MOL0     H45487   4.350  11.588   0.961 -0.1637  1.5435  1.8251
  337MOL0     H45488   4.523  11.594   0.946  1.4177 -1.2029  1.2572
  337MOL0     H45489   4.497  11.710   1.135 -2.2485  1.0310 -2.8526
  337MOL0     H45490   4.531  11.543   1.201  0.8987 -0.4050 -1.7109
  337MOL0     H45491   4.289  11.534   1.245 -1.2378  0.2655 -2.5251
  337MOL0     H45492   4.260  11.688   1.164  2.9605 -0.1355 -4.8258
  337MOL0     H45493   4.481  11.789   1.515  0.6979  1.2572 -1.9706
  337MOL0     H45494   4.257  11.228   1.270  2.2736  2.0819 -1.2824
  337MOL0     H45495   4.207  10.985   1.293 -1.5551  1.7625 -1.5168
  338MOL0     O45496   4.006   2.660   3.880  0.5002 -0.3337  0.8885
  338MOL0     C45497   4.087   2.726   3.813  1.1154  0.1589  0.3911
  338MOL0     O45498   4.056   2.835   3.728  0.1097 -0.0205 -1.0303
  338MOL0     C45499   3.920   2.872   3.726 -0.8412  0.7371 -0.0134
  338MOL0     C45500   3.840   2.824   3.628  1.0083  0.4374  0.5218
  338MOL0     C45501   3.704   2.844   3.629  0.4924 -0.7301 -0.2939
  338MOL0     C45502   3.649   2.935   3.725  0.7285  0.0921 -0.5394
  338MOL0     O45503   3.514   2.959   3.757 -0.7924 -0.1278  0.8920
  338MOL0     C45504   3.439   2.842   3.750 -0.1946  0.0148  0.0949
  338MOL0     C45505   3.288   2.852   3.804  0.4226  1.1176 -0.2761
  338MOL0     C45506   3.276   2.961   3.924 -0.3769 -0.2002 -0.3622
  338MOL0     C45507   3.133   2.954   3.977 -0.0151  0.2973 -0.6140
  338MOL0     C45508   3.105   3.053   4.089 -0.5512  0.4346  0.5104
  338MOL0     C45509   3.207   3.024   4.203  0.0224  0.3084 -0.2571
  338MOL0     C45510   3.200   3.131   4.307 -0.4740 -0.8061  0.2375
  338MOL0     C45511   3.329   3.158   4.379  0.6070 -0.9073 -0.8904
  338MOL0     N45512   3.368   3.049   4.469  0.3802  0.9462  0.1076
  338MOL0     C45513   3.409   3.068   4.599  0.2266  0.3219 -0.1879
  338MOL0     C45514   3.460   2.956   4.640  0.0706 -0.0896  0.1521
  338MOL0     C45515   3.522   2.927   4.768 -0.4480 -0.5994 -0.0342
  338MOL0     C45516   3.676   2.958   4.766  0.9082 -0.1553  0.1191
  338MOL0     C45517   3.740   3.014   4.899  0.4463  0.2608 -0.2173
  338MOL0     C45518   3.741   2.917   5.017  1.1139  0.1838  0.5809
  338MOL0     O45519   3.860   2.927   5.093 -0.6697  0.0941 -0.0754
  338MOL0     C45520   3.881   2.824   5.187 -0.5171  0.1447 -1.2735
  338MOL0     C45521   4.000   2.840   5.257  0.5485 -0.3654  0.1106
  338MOL0     C45522   4.039   2.745   5.356  0.1237 -0.2758  0.1368
  338MOL0     C45523   4.172   2.785   5.412 -0.4479 -0.3419 -0.2764
  338MOL0     C45524   3.955   2.638   5.400  0.3261  0.3787 -0.2345
  338MOL0     C45525   3.969   2.549   5.516 -0.1350  0.6177 -0.2363
  338MOL0     O45526   4.097   2.515   5.549 -0.0908 -0.3097 -0.3092
  338MOL0     C45527   4.132   2.400   5.620 -0.3965  0.2935 -0.6743
  338MOL0     C45528   4.217   2.412   5.732 -0.0089 -0.5220  0.3077
  338MOL0     C45529   4.249   2.291   5.803 -0.0749  0.0315  0.0969
  338MOL0     C45530   4.208   2.165   5.765  0.2838  0.1576 -0.8849
  338MOL0     O45531   4.257   2.054   5.840  1.0230 -0.5623 -0.7248
  338MOL0     C45532   4.166   1.944   5.881 -0.0925 -0.0225 -0.9432
  338MOL0     C45533   4.047   1.996   5.969 -0.9524  0.5199  0.2498
  338MOL0     C45534   4.105   2.050   6.103  0.5297 -0.5410  0.5270
  338MOL0     C45535   4.013   2.055   6.228  0.6302  0.2487  0.0954
  338MOL0     C45536   4.066   2.106   6.357  0.1449 -0.7536 -0.7398
  338MOL0     C45537   3.949   2.113   6.463  0.4088 -0.1954  0.1687
  338MOL0     C45538   3.879   2.245   6.442  0.4600 -0.3867  0.4498
  338MOL0     C45539   3.754   2.251   6.520 -0.1598 -0.0148 -0.4560
  338MOL0    Cl45540   3.781   2.245   6.700  0.0174 -0.0469  0.0430
  338MOL0     C45541   4.125   2.149   5.654 -0.4707 -0.0601  0.9345
  338MOL0     C45542   4.099   2.265   5.576  1.1358  0.5075 -0.6989
  338MOL0     O45543   3.875   2.526   5.596 -0.3743 -0.0214  0.8025
  338MOL0     C45544   3.838   2.629   5.321 -0.2641  0.0820  0.8939
  338MOL0     C45545   3.801   2.710   5.212 -0.2630 -0.3878 -0.5683
  338MOL0     N45546   3.442   2.861   4.540 -0.3132  0.1791  0.2532
  338MOL0     N45547   3.391   2.927   4.435 -0.2083 -0.2927  0.0188
  338MOL0     C45548   3.732   2.992   3.826  0.4537 -0.3245  0.9620
  338MOL0     C45549   3.856   2.953   3.821 -0.3139  1.0672 -0.4504
  338MOL0     C45550   4.227   2.694   3.828 -0.0577  0.9925 -0.9663
  338MOL0     C45551   4.319   2.768   3.744  0.5425  0.3528  0.1129
  338MOL0     C45552   4.456   2.753   3.768  0.0936 -0.3116 -0.5676
  338MOL0     C45553   4.497   2.674   3.872 -0.6962  0.3247 -0.5151
  338MOL0     O45554   4.639   2.672   3.887  0.4972  0.4606  0.4183
  338MOL0     C45555   4.698   2.547   3.935 -0.9964 -0.4788  0.8038
  338MOL0     C45556   4.633   2.407   3.898 -0.5039  0.2753  0.8884
  338MOL0     C45557   4.580   2.396   3.743  0.2245 -0.3415 -0.2033
  338MOL0     C45558   4.556   2.259   3.679 -0.6070  1.3486  0.0029
  338MOL0     C45559   4.451   2.196   3.743  0.1797 -0.3741 -0.7137
  338MOL0     C45560   4.364   2.128   3.803  0.0056  0.3105 -0.4807
  338MOL0     C45561   4.411   2.595   3.952 -0.0284  0.1095  0.4850
  338MOL0     C45562   4.274   2.612   3.933  0.9388 -0.1858 -0.5949
  338MOL0     H45563   3.888   2.761   3.553 -0.4400 -0.1056  0.0219
  338MOL0     H45564   3.639   2.785   3.565  0.8692 -3.4924  1.6751
  338MOL0     H45565   3.421   2.809   3.647 -0.5867  2.7154 -0.7770
  338MOL0     H45566   3.491   2.766   3.809 -0.3195 -0.5883 -0.5512
  338MOL0     H45567   3.204   2.878   3.738 -2.8948 -0.3606  3.0168
  338MOL0     H45568   3.248   2.760   3.849 -0.1033  0.8315 -1.2940
  338MOL0     H45569   3.354   2.934   3.996 -3.2000  0.7772  3.4148
  338MOL0     H45570   3.300   3.062   3.891  2.3396  0.4934  3.1189
  338MOL0     H45571   3.068   2.976   3.892 -0.9229  2.1641  0.5013
  338MOL0     H45572   3.117   2.857   4.024  0.3100 -0.0183 -1.1457
  338MOL0     H45573   3.122   3.150   4.041  1.3140 -1.3252 -2.7410
  338MOL0     H45574   2.998   3.052   4.114 -0.5950  0.2589  0.3213
  338MOL0     H45575   3.180   2.926   4.242 -2.3474  1.1045  0.3128
  338MOL0     H45576   3.310   3.018   4.169  0.1484  2.4122 -0.3892
  338MOL0     H45577   3.161   3.225   4.265 -0.8938 -1.0370  0.1150
  338MOL0     H45578   3.127   3.111   4.385  0.4009 -0.9298  1.0445
  338MOL0     H45579   3.316   3.248   4.441  3.7962 -0.6975 -0.3692
  338MOL0     H45580   3.414   3.183   4.316  0.2247  3.7432  0.0377
  338MOL0     H45581   3.420   3.162   4.652  3.2260 -0.0832  0.1046
  338MOL0     H45582   3.475   2.983   4.849  0.8484  0.5365 -0.0201
  338MOL0     H45583   3.497   2.821   4.764 -2.9811 -0.0491 -1.7073
  338MOL0     H45584   3.674   3.033   4.687 -4.5130  1.0976  1.0015
  338MOL0     H45585   3.732   2.871   4.729  2.2365 -0.1797  2.0688
  338MOL0     H45586   3.676   3.099   4.925 -1.9113  0.2352 -4.8504
  338MOL0     H45587   3.842   3.052   4.885  0.5683 -0.5525 -1.6856
  338MOL0     H45588   3.733   2.818   4.970 -0.8981  0.9305 -0.7854
  338MOL0     H45589   3.658   2.946   5.082  0.4736  2.4692 -1.1232
  338MOL0     H45590   4.066   2.917   5.219  2.3951 -2.3866 -1.0258
  338MOL0     H45591   4.175   2.883   5.461 -0.7971 -1.6260  2.5594
  338MOL0     H45592   4.202   2.714   5.490 -0.0895  0.5717  0.4357
  338MOL0     H45593   4.250   2.786   5.335 -0.5072  1.1257 -0.3477
  338MOL0     H45594   4.252   2.511   5.758  1.4690  0.4788 -4.4685
  338MOL0     H45595   4.315   2.300   5.888 -0.6246  2.3260  0.3546
  338MOL0     H45596   4.123   1.893   5.795  3.0196 -4.4097 -0.2214
  338MOL0     H45597   4.227   1.863   5.922  1.5141  0.8169 -1.5757
  338MOL0     H45598   3.992   2.076   5.919 -0.2945  0.8716  0.0807
  338MOL0     H45599   3.972   1.916   5.979  1.7049 -2.1712 -0.0760
  338MOL0     H45600   4.135   2.152   6.078 -1.0692 -0.0563  0.5180
  338MOL0     H45601   4.193   1.987   6.120  0.4784 -0.9160 -0.5123
  338MOL0     H45602   3.932   2.123   6.199  1.2944  0.4040 -1.4752
  338MOL0     H45603   3.959   1.960   6.230  0.3101  0.4086 -0.6146
  338MOL0     H45604   4.123   2.197   6.336 -1.7801  0.5656 -0.5043
  338MOL0     H45605   4.133   2.027   6.392  1.2642  0.4121 -0.1840
  338MOL0     H45606   3.876   2.033   6.446 -2.9383  3.0448 -2.2952
  338MOL0     H45607   3.999   2.113   6.560 -0.4014 -1.9478  0.6285
  338MOL0     H45608   3.871   2.274   6.337  2.6951 -1.7944 -0.1864
  338MOL0     H45609   3.949   2.318   6.483 -0.0894  0.0833  0.5550
  338MOL0     H45610   3.678   2.175   6.497 -0.3188  0.0269 -0.0765
  338MOL0     H45611   3.697   2.341   6.495 -0.2838 -0.1421 -0.6321
  338MOL0     H45612   4.099   2.047   5.628 -0.2001  0.1082 -0.0126
  338MOL0     H45613   4.056   2.259   5.477 -2.7993  0.5581  0.8084
  338MOL0     H45614   3.780   2.540   5.346 -2.0449  0.9330  0.0077
  338MOL0     H45615   3.709   2.684   5.162 -1.0564 -1.3679  1.3052
  338MOL0     H45616   3.690   3.054   3.905  1.3192  2.2197 -0.4656
  338MOL0     H45617   3.924   2.971   3.904  2.6423 -2.1007 -1.9319
  338MOL0     H45618   4.287   2.844   3.674 -1.5548 -0.1919  0.4325
  338MOL0     H45619   4.533   2.805   3.711  0.5543  1.9410  1.9378
  338MOL0     H45620   4.800   2.541   3.895 -1.3093 -2.5285  0.2100
  338MOL0     H45621   4.705   2.559   4.043  0.4858  2.4452  0.4796
  338MOL0     H45622   4.552   2.385   3.968  0.0293 -0.4320  1.2978
  338MOL0     H45623   4.711   2.334   3.923  3.1531  3.7427  0.6501
  338MOL0     H45624   4.661   2.437   3.683  3.2365 -6.0878 -0.8385
  338MOL0     H45625   4.493   2.460   3.730  0.9437  0.2619 -2.5964
  338MOL0     H45626   4.656   2.217   3.693 -2.5043 -3.8633  0.0238
  338MOL0     H45627   4.532   2.266   3.572 -0.0066  0.0589 -0.2391
  338MOL0     H45628   4.299   2.066   3.862 -2.0423  2.2848 -0.5227
  338MOL0     H45629   4.446   2.545   4.041  0.9469  1.7046  1.0428
  338MOL0     H45630   4.209   2.556   3.999  1.3629 -3.3678 -2.6765
  339MOL0     O45631  10.253   5.856   7.213  0.3514 -0.5285  0.9025
  339MOL0     C45632  10.225   5.958   7.146  0.0387 -0.2386 -0.4421
  339MOL0     O45633  10.228   6.080   7.201 -0.0784 -0.4003 -0.6202
  339MOL0     C45634  10.227   6.099   7.338  0.2237  0.0336  0.3795
  339MOL0     C45635  10.142   6.023   7.419 -0.3845  1.2897  0.0137
  339MOL0     C45636  10.130   6.043   7.559  0.4580 -0.4534  0.9925
  339MOL0     C45637  10.200   6.155   7.611  0.4227  0.9460 -0.2489
  339MOL0     O45638  10.208   6.184   7.750 -0.2256 -0.2431 -0.7190
  339MOL0     C45639  10.251   6.076   7.843  0.7227 -0.1490  0.4304
  339MOL0     C45640  10.202   6.100   7.988  0.5374 -0.5267  0.1684
  339MOL0     C45641  10.045   6.079   7.992 -0.1185  0.4192  0.4607
  339MOL0     C45642  10.003   5.941   8.027  0.9905  0.4540 -0.2287
  339MOL0     C45643   9.850   5.932   7.985 -0.4709  0.2141  0.2251
  339MOL0     C45644   9.786   5.797   8.018  0.6326  0.4204 -0.1825
  339MOL0     C45645   9.665   5.765   7.953 -0.0913  0.2508 -0.1610
  339MOL0     C45646   9.561   5.880   7.970  0.4929 -0.1847  0.2529
  339MOL0     N45647   9.425   5.865   7.911  0.1838  0.6656  0.2428
  339MOL0     C45648   9.340   5.762   7.948 -0.6286  0.1743 -0.2817
  339MOL0     C45649   9.258   5.759   7.840 -0.0755 -0.6858 -0.6883
  339MOL0     C45650   9.174   5.641   7.801 -0.4392  0.4286 -0.5574
  339MOL0     C45651   9.255   5.526   7.731  0.5036 -0.4438  0.4045
  339MOL0     C45652   9.281   5.538   7.580 -0.9158 -0.1589 -0.9273
  339MOL0     C45653   9.151   5.518   7.493 -0.4570  0.3400 -0.9874
  339MOL0     O45654   9.186   5.454   7.373  0.0617 -0.1130 -0.0247
  339MOL0     C45655   9.190   5.528   7.254 -0.4866 -0.1038  0.1958
  339MOL0     C45656   9.163   5.466   7.131  0.1285 -0.7757  0.8173
  339MOL0     C45657   9.160   5.541   7.004 -0.0353  0.9768 -0.1928
  339MOL0     C45658   9.129   5.453   6.885  0.0959 -0.3601 -0.3105
  339MOL0     C45659   9.187   5.679   7.000  0.9054  0.8228 -0.0084
  339MOL0     C45660   9.193   5.767   6.878  0.1609 -0.8513 -0.0338
  339MOL0     O45661   9.191   5.905   6.903 -0.3654  0.8319  0.6257
  339MOL0     C45662   9.213   5.977   6.792 -0.5516 -0.7665  0.4071
  339MOL0     C45663   9.109   6.041   6.730 -0.2195 -0.6055 -0.1921
  339MOL0     C45664   9.127   6.121   6.611  0.2152  0.3999 -0.7196
  339MOL0     C45665   9.257   6.134   6.566 -0.0031  0.1975 -0.0477
  339MOL0     O45666   9.279   6.205   6.453 -0.6934  0.1690  0.3043
  339MOL0     C45667   9.291   6.344   6.486  0.0383 -0.0421 -0.4102
  339MOL0     C45668   9.232   6.419   6.374  0.1299  0.7243 -0.1121
  339MOL0     C45669   9.073   6.394   6.366  0.1331  0.4467  0.3198
  339MOL0     C45670   9.018   6.473   6.240  0.3163  0.6941  0.3731
  339MOL0     C45671   8.870   6.426   6.188  0.1482 -0.0825 -0.4845
  339MOL0     C45672   8.819   6.487   6.058 -0.6219  0.7440  0.1422
  339MOL0     C45673   8.682   6.450   6.010 -0.3187  1.3953  0.8817
  339MOL0     C45674   8.569   6.515   6.082 -0.0413 -0.3802  0.1883
  339MOL0    Cl45675   8.409   6.468   6.014  0.2872  0.0774  0.2075
  339MOL0     C45676   9.371   6.077   6.628  0.0843 -0.3500 -0.0818
  339MOL0     C45677   9.351   6.001   6.749 -0.1755 -1.6220 -0.0995
  339MOL0     O45678   9.192   5.714   6.766 -0.6137  0.4450  0.5338
  339MOL0     C45679   9.234   5.739   7.118 -0.4827 -0.1904  0.3458
  339MOL0     C45680   9.230   5.665   7.244  0.2747  1.5250  1.0297
  339MOL0     N45681   9.266   5.871   7.763 -0.3330 -0.6880  0.2003
  339MOL0     N45682   9.376   5.929   7.804  0.2588  0.2890 -0.1605
  339MOL0     C45683  10.277   6.235   7.531 -0.0117 -0.1716  0.5524
  339MOL0     C45684  10.294   6.212   7.395 -0.2729 -0.1774  0.8492
  339MOL0     C45685  10.159   5.942   7.016 -0.4441 -0.7062  0.6666
  339MOL0     C45686  10.111   6.064   6.956  0.2001 -0.3790  0.8903
  339MOL0     C45687  10.042   6.053   6.836 -0.5652 -1.0521 -0.0617
  339MOL0     C45688  10.030   5.930   6.776 -0.4275 -0.6151  0.8112
  339MOL0     O45689   9.948   5.930   6.659 -0.4534  0.7352  0.4024
  339MOL0     C45690  10.041   5.946   6.557 -0.0290 -0.8617 -0.5215
  339MOL0     C45691   9.966   5.942   6.428 -0.8708  0.1169  0.9429
  339MOL0     C45692   9.832   6.014   6.426  1.2332  0.7531 -0.2375
  339MOL0     C45693   9.759   5.987   6.291 -0.1954 -0.1772 -0.1968
  339MOL0     C45694   9.649   6.084   6.270  0.0820  0.1708 -0.1083
  339MOL0     C45695   9.577   6.179   6.232  0.1810 -0.1010 -0.0783
  339MOL0     C45696  10.076   5.808   6.830 -0.3064  0.2194  0.4061
  339MOL0     C45697  10.144   5.818   6.957 -0.0524 -0.4272  0.0672
  339MOL0     H45698  10.082   5.939   7.383  0.3615  0.1803  1.2917
  339MOL0     H45699  10.069   5.981   7.623 -2.1902  2.0120  1.0823
  339MOL0     H45700  10.207   5.983   7.809 -0.2627  0.2934  0.4606
  339MOL0     H45701  10.359   6.065   7.855  0.8007  0.0240 -0.1244
  339MOL0     H45702  10.255   6.034   8.056 -0.1759 -0.7733  0.4921
  339MOL0     H45703  10.232   6.204   8.007 -1.4640  0.5626 -2.0611
  339MOL0     H45704  10.014   6.150   8.070  1.9129 -0.1645  1.8785
  339MOL0     H45705  10.010   6.107   7.893  2.1501  2.1500  0.0580
  339MOL0     H45706  10.065   5.872   7.970  2.8379  0.7427  1.3329
  339MOL0     H45707  10.009   5.918   8.134 -1.2442 -1.1409 -0.3704
  339MOL0     H45708   9.807   6.006   8.053 -2.3297 -1.4301  0.9442
  339MOL0     H45709   9.847   5.962   7.880  0.5079  0.4490  0.2569
  339MOL0     H45710   9.854   5.718   7.984 -0.7835 -1.5817  1.3954
  339MOL0     H45711   9.781   5.798   8.127  0.1023 -0.3347 -0.1968
  339MOL0     H45712   9.689   5.762   7.846  1.2442  1.1479  0.0919
  339MOL0     H45713   9.635   5.665   7.987  1.8553  0.9340  4.2155
  339MOL0     H45714   9.591   5.972   7.920 -0.2485  0.4175  0.8767
  339MOL0     H45715   9.539   5.905   8.075  0.9355 -0.4069  0.3984
  339MOL0     H45716   9.351   5.688   8.027  1.8605  1.1143  0.3701
  339MOL0     H45717   9.116   5.598   7.883 -1.0309 -0.9659 -1.6803
  339MOL0     H45718   9.106   5.692   7.732  0.5400  0.5380 -1.4594
  339MOL0     H45719   9.210   5.427   7.745 -1.2702  0.1752 -0.5614
  339MOL0     H45720   9.353   5.520   7.778  0.4318 -2.2742  0.4172
  339MOL0     H45721   9.355   5.463   7.552  0.1921  0.6127 -0.1429
  339MOL0     H45722   9.331   5.634   7.564  1.5740 -0.6004  2.8387
  339MOL0     H45723   9.095   5.610   7.471 -0.3944  0.6671  0.1087
  339MOL0     H45724   9.085   5.453   7.552 -1.5027  0.7884 -1.6265
  339MOL0     H45725   9.122   5.365   7.137 -2.2568 -0.0393 -1.3870
  339MOL0     H45726   9.046   5.497   6.829  0.0203 -3.5838 -3.0704
  339MOL0     H45727   9.215   5.450   6.818 -0.1861 -2.4668 -0.6462
  339MOL0     H45728   9.124   5.345   6.905  1.9129 -0.1936  1.3974
  339MOL0     H45729   9.007   6.016   6.760 -0.2937  0.3066  0.3261
  339MOL0     H45730   9.046   6.157   6.548  1.0252  1.0873 -1.3911
  339MOL0     H45731   9.226   6.364   6.571  0.6576 -1.0311  0.3138
  339MOL0     H45732   9.398   6.364   6.499  0.5237 -1.6078 -1.6646
  339MOL0     H45733   9.237   6.528   6.385 -1.2015  0.7589  0.3353
  339MOL0     H45734   9.264   6.386   6.275 -2.1972 -0.0467 -0.6687
  339MOL0     H45735   9.018   6.420   6.457  0.9137  3.0502  0.1486
  339MOL0     H45736   9.054   6.290   6.339  1.1845  0.3616 -0.1513
  339MOL0     H45737   9.020   6.577   6.272 -2.4186 -0.0566  3.4988
  339MOL0     H45738   9.088   6.457   6.157 -0.4115  2.8754 -0.7414
  339MOL0     H45739   8.796   6.452   6.264  1.0212  1.4438 -0.1113
  339MOL0     H45740   8.881   6.318   6.193  0.9156  0.0453  1.1997
  339MOL0     H45741   8.828   6.595   6.049 -1.4835  0.6591 -2.6632
  339MOL0     H45742   8.890   6.452   5.982 -1.0295  1.1019 -0.4119
  339MOL0     H45743   8.684   6.341   6.021  0.8056  1.2484 -0.5278
  339MOL0     H45744   8.675   6.480   5.905 -0.8670 -2.9378 -0.5320
  339MOL0     H45745   8.585   6.623   6.070  1.0404 -0.5038  0.4114
  339MOL0     H45746   8.570   6.491   6.189  1.7935 -1.4515 -0.0302
  339MOL0     H45747   9.471   6.087   6.586  1.4439  1.1735  3.1973
  339MOL0     H45748   9.431   5.964   6.813 -0.2767  0.0334  1.0649
  339MOL0     H45749   9.266   5.842   7.110  3.0716 -1.2962 -1.8759
  339MOL0     H45750   9.259   5.725   7.330 -0.0061  2.7125  0.3197
  339MOL0     H45751  10.327   6.321   7.573 -1.5942  1.9920 -1.6663
  339MOL0     H45752  10.362   6.280   7.346  1.9106  0.3931  4.3227
  339MOL0     H45753  10.119   6.164   7.000 -1.7898  1.4568 -2.5166
  339MOL0     H45754   9.994   6.135   6.784 -1.7364 -1.1557  0.8000
  339MOL0     H45755  10.093   6.043   6.559  1.4304 -1.3762 -4.4260
  339MOL0     H45756  10.107   5.859   6.559  0.0198 -0.8588  2.5822
  339MOL0     H45757   9.975   5.837   6.396  0.9179  0.4874  0.0692
  339MOL0     H45758  10.034   5.998   6.364  0.4221  0.6072  2.6615
  339MOL0     H45759   9.859   6.119   6.439  1.3699  0.5984  0.8276
  339MOL0     H45760   9.754   5.983   6.497  0.8821  1.0845 -0.4744
  339MOL0     H45761   9.722   5.884   6.292  2.6350 -1.2988  0.8092
  339MOL0     H45762   9.823   5.995   6.203 -0.6244  0.2875 -0.4699
  339MOL0     H45763   9.502   6.254   6.218  0.5044 -0.0019 -1.4737
  339MOL0     H45764  10.050   5.715   6.781  1.3983  1.0304 -2.3013
  339MOL0     H45765  10.186   5.727   6.999 -0.9428 -1.0640 -0.3954
  340MOL0     O45766   0.314   0.378   9.006  0.2455  0.1285 -0.2356
  340MOL0     C45767   0.342   0.259   9.018  0.5416 -0.8103  0.7519
  340MOL0     O45768   0.470   0.206   8.996 -0.2908  0.6772 -0.7361
  340MOL0     C45769   0.565   0.285   8.935 -0.4539 -0.6013 -0.1423
  340MOL0     C45770   0.694   0.259   8.981 -0.4527  0.8708  0.1074
  340MOL0     C45771   0.792   0.334   8.926 -0.5339 -0.3932  0.1376
  340MOL0     C45772   0.767   0.438   8.830  0.0911  0.7565 -0.5870
  340MOL0     O45773   0.866   0.526   8.790 -0.9027 -0.0526 -0.1943
  340MOL0     C45774   0.995   0.527   8.862 -0.6210 -0.0151  0.9451
  340MOL0     C45775   1.091   0.628   8.790  0.3386  0.2164 -0.9414
  340MOL0     C45776   1.120   0.605   8.641  0.2082 -0.8469 -0.2695
  340MOL0     C45777   1.234   0.701   8.581  0.3233 -1.4190 -0.2053
  340MOL0     C45778   1.213   0.680   8.432 -0.6223  0.3038  0.0993
  340MOL0     C45779   1.281   0.782   8.344  0.4061  0.7430  0.1900
  340MOL0     C45780   1.318   0.730   8.203  0.0591 -0.8278  0.0001
  340MOL0     C45781   1.392   0.844   8.130 -0.2425  0.3264 -0.2400
  340MOL0     N45782   1.458   0.791   8.005  0.5696 -0.5328 -0.4637
  340MOL0     C45783   1.546   0.860   7.929  0.8937  0.0605  0.2301
  340MOL0     C45784   1.562   0.797   7.816 -0.2860  0.5132 -0.2199
  340MOL0     C45785   1.647   0.839   7.710 -0.2603  0.1393  0.8456
  340MOL0     C45786   1.747   0.749   7.636 -0.4929  0.2059  0.1973
  340MOL0     C45787   1.879   0.717   7.712  0.0116 -0.0067 -0.1284
  340MOL0     C45788   1.867   0.608   7.822 -0.3692 -0.8508 -0.3769
  340MOL0     O45789   1.983   0.597   7.904 -0.2523  0.1289 -0.3689
  340MOL0     C45790   2.007   0.701   7.994 -0.0687 -0.4861 -0.0203
  340MOL0     C45791   1.936   0.720   8.114  0.2955 -0.6217  0.8539
  340MOL0     C45792   1.983   0.806   8.216 -0.8065  0.8710 -0.4805
  340MOL0     C45793   1.879   0.824   8.331  0.3199  0.6933 -0.0620
  340MOL0     C45794   2.100   0.882   8.198 -0.8870 -0.5222 -0.0875
  340MOL0     C45795   2.147   0.979   8.306 -0.3269  0.4523 -0.0807
  340MOL0     O45796   2.186   1.102   8.255 -0.0585 -0.1135  0.2758
  340MOL0     C45797   2.279   1.180   8.326 -0.5188  0.1417 -1.8755
  340MOL0     C45798   2.230   1.259   8.437  0.1338  1.5532 -0.4528
  340MOL0     C45799   2.331   1.305   8.528  0.2327 -0.8026 -0.0405
  340MOL0     C45800   2.470   1.284   8.516 -0.2423  0.0874 -0.7111
  340MOL0     O45801   2.550   1.337   8.619 -0.7004 -0.2569  0.2618
  340MOL0     C45802   2.681   1.297   8.612 -0.8015 -0.8544  0.8456
  340MOL0     C45803   2.701   1.165   8.671  0.0337 -0.0137 -0.4197
  340MOL0     C45804   2.843   1.125   8.642  0.2395  0.2465  0.8132
  340MOL0     C45805   2.874   0.998   8.709 -1.0273 -0.0652 -0.4983
  340MOL0     C45806   2.984   0.925   8.630  0.0714  1.3534  0.8161
  340MOL0     C45807   3.039   0.822   8.721 -0.1648 -0.4408  0.1027
  340MOL0     C45808   3.154   0.728   8.664  0.3144  0.4734 -0.0545
  340MOL0     C45809   3.195   0.630   8.777  0.0222  0.1247  0.8192
  340MOL0    Cl45810   3.263   0.475   8.727  0.5487 -0.4202 -0.0017
  340MOL0     C45811   2.509   1.196   8.408 -0.2951  0.2717 -0.3472
  340MOL0     C45812   2.415   1.155   8.312 -1.0706 -0.4193 -0.0133
  340MOL0     O45813   2.114   0.966   8.425  0.7041 -0.3463  0.0808
  340MOL0     C45814   2.156   0.872   8.070 -0.8451 -0.3677  0.5143
  340MOL0     C45815   2.116   0.784   7.972 -0.2078  0.3162 -0.7282
  340MOL0     N45816   1.491   0.678   7.826  0.5294  0.1355 -0.6137
  340MOL0     N45817   1.418   0.677   7.939 -0.7555  0.1926  0.2638
  340MOL0     C45818   0.641   0.459   8.778 -1.0105  0.2955 -0.7612
  340MOL0     C45819   0.540   0.373   8.829 -0.1128 -0.0593 -0.1943
  340MOL0     C45820   0.235   0.174   9.079  0.5367  0.5929  0.6608
  340MOL0     C45821   0.229   0.034   9.069  0.4266  1.4194  0.3641
  340MOL0     C45822   0.118  -0.044   9.117 -0.3517  0.0206 -0.0020
  340MOL0     C45823   0.024   0.031   9.186 -0.1404 -0.1141 -0.3746
  340MOL0     O45824  -0.078  -0.036   9.252  0.7109 -0.3325  0.5122
  340MOL0     C45825  -0.125  -0.173   9.214  0.4596  0.4884 -0.3242
  340MOL0     C45826  -0.255  -0.192   9.276  0.2647 -0.0133 -0.9100
  340MOL0     C45827  -0.232  -0.238   9.425 -0.6272 -1.2780  0.2253
  340MOL0     C45828  -0.356  -0.279   9.499 -0.8237  0.5120 -0.4817
  340MOL0     C45829  -0.327  -0.339   9.632  0.5684  0.6969  0.0218
  340MOL0     C45830  -0.279  -0.392   9.725 -0.4579 -0.1093 -0.7000
  340MOL0     C45831   0.030   0.169   9.204  0.0668  0.1937  1.2207
  340MOL0     C45832   0.137   0.237   9.154 -0.0558  0.3549 -0.5961
  340MOL0     H45833   0.736   0.199   9.061  2.6360 -0.8027 -2.5447
  340MOL0     H45834   0.892   0.315   8.964 -0.7948 -0.1823  0.9342
  340MOL0     H45835   0.982   0.562   8.964  0.1279  2.3780  0.2763
  340MOL0     H45836   1.044   0.430   8.874 -0.9802 -0.3409 -0.1179
  340MOL0     H45837   1.057   0.732   8.802 -4.8044 -1.3417  0.6652
  340MOL0     H45838   1.182   0.632   8.850 -0.5504 -0.3057  0.5113
  340MOL0     H45839   1.136   0.500   8.614  1.2030 -0.8818  0.3959
  340MOL0     H45840   1.028   0.622   8.585  1.9179  2.0927 -2.4822
  340MOL0     H45841   1.218   0.807   8.602 -1.3102 -1.8151  0.7340
  340MOL0     H45842   1.333   0.664   8.610  0.5332  1.7513  3.8917
  340MOL0     H45843   1.269   0.588   8.409  0.8085  1.0715  0.4475
  340MOL0     H45844   1.107   0.666   8.408 -0.6357  0.7712 -0.1131
  340MOL0     H45845   1.210   0.865   8.333  1.1919  1.2045 -1.7678
  340MOL0     H45846   1.369   0.812   8.402  0.2253  1.0323  0.3211
  340MOL0     H45847   1.383   0.642   8.210 -1.2484 -1.8600 -0.3642
  340MOL0     H45848   1.225   0.721   8.147  0.0258  2.3182 -0.6231
  340MOL0     H45849   1.475   0.882   8.190 -0.4099  1.7603 -0.8814
  340MOL0     H45850   1.329   0.933   8.122  0.7937  1.1325  0.4036
  340MOL0     H45851   1.585   0.953   7.969 -2.7131  0.3559  3.7288
  340MOL0     H45852   1.578   0.884   7.638  0.9099 -2.4377 -2.1300
  340MOL0     H45853   1.705   0.926   7.743 -0.2838  0.1194  0.9398
  340MOL0     H45854   1.765   0.804   7.543  2.1565  0.1357  0.5772
  340MOL0     H45855   1.701   0.653   7.614 -1.9616  0.8154  0.4737
  340MOL0     H45856   1.923   0.810   7.750 -2.7083  0.6489  1.7198
  340MOL0     H45857   1.956   0.687   7.640 -1.6924 -1.3896 -1.4611
  340MOL0     H45858   1.855   0.508   7.779  3.0136 -1.0051 -1.2870
  340MOL0     H45859   1.781   0.620   7.887  0.7760 -2.4005  1.5402
  340MOL0     H45860   1.837   0.677   8.121  0.0986  0.0180  2.4673
  340MOL0     H45861   1.868   0.926   8.368  0.9124 -0.3299  3.3210
  340MOL0     H45862   1.783   0.779   8.301 -0.9603  2.7664  0.7357
  340MOL0     H45863   1.919   0.771   8.418 -3.3682 -2.7720 -0.1363
  340MOL0     H45864   2.124   1.264   8.461  0.5192  1.0636  1.5648
  340MOL0     H45865   2.295   1.360   8.614 -0.0495 -1.9155  0.5735
  340MOL0     H45866   2.712   1.302   8.508  1.4735 -3.9345  1.2545
  340MOL0     H45867   2.738   1.367   8.674  2.4727 -3.5669  1.1793
  340MOL0     H45868   2.688   1.182   8.779  0.8903 -0.8853 -0.1657
  340MOL0     H45869   2.636   1.086   8.632 -2.7393  0.7662  2.2070
  340MOL0     H45870   2.919   1.193   8.681  1.0678 -0.1071 -0.1341
  340MOL0     H45871   2.843   1.104   8.534  2.0377  0.4006  0.7605
  340MOL0     H45872   2.906   1.013   8.812 -2.8440 -2.8257  0.5856
  340MOL0     H45873   2.786   0.933   8.717  0.1743 -1.7001  0.2345
  340MOL0     H45874   3.071   0.988   8.612  0.7231  0.5117  0.9286
  340MOL0     H45875   2.952   0.873   8.539 -2.1128  3.9165 -0.0096
  340MOL0     H45876   3.079   0.868   8.811 -1.8103 -0.9924  1.1532
  340MOL0     H45877   2.957   0.762   8.761  1.4130 -1.0273  2.6429
  340MOL0     H45878   3.244   0.783   8.635  0.0841  1.3402  0.8027
  340MOL0     H45879   3.117   0.667   8.581 -0.5457 -0.5605  1.0527
  340MOL0     H45880   3.105   0.621   8.840 -1.1356  1.2838 -0.6052
  340MOL0     H45881   3.268   0.676   8.843  1.0815 -2.2537  1.4356
  340MOL0     H45882   2.609   1.163   8.385 -0.4429  0.0770 -0.7108
  340MOL0     H45883   2.443   1.102   8.222 -1.2592  0.3968 -0.5566
  340MOL0     H45884   2.245   0.928   8.043  2.3106 -3.8937  2.5246
  340MOL0     H45885   2.171   0.776   7.878  0.8803  2.2315 -0.3286
  340MOL0     H45886   0.613   0.537   8.707 -2.8630 -1.9507 -2.6899
  340MOL0     H45887   0.444   0.388   8.781  1.0454 -1.8778 -3.3944
  340MOL0     H45888   0.313  -0.020   9.026  1.3273  2.7970  0.3182
  340MOL0     H45889   0.126  -0.153   9.121 -0.7886  0.0309  1.7296
  340MOL0     H45890  -0.131  -0.175   9.105  1.5801 -2.1617 -0.4250
  340MOL0     H45891  -0.057  -0.254   9.242 -0.5136 -0.2116  0.0826
  340MOL0     H45892  -0.312  -0.263   9.217 -1.7170  1.7937 -1.2958
  340MOL0     H45893  -0.310  -0.097   9.271 -2.3719 -1.3873  0.5292
  340MOL0     H45894  -0.182  -0.159   9.481  2.1114 -1.1309 -2.1940
  340MOL0     H45895  -0.160  -0.319   9.436  0.0449 -0.8098 -0.5827
  340MOL0     H45896  -0.395  -0.362   9.439  2.6701 -3.4995  2.1389
  340MOL0     H45897  -0.429  -0.198   9.499 -3.5778 -1.7822  1.4732
  340MOL0     H45898  -0.245  -0.454   9.805 -3.5344 -1.4961 -0.3168
  340MOL0     H45899  -0.042   0.226   9.262  0.0269  1.7485 -0.2748
  340MOL0     H45900   0.140   0.343   9.179 -2.8344  0.1960  0.8281
  341MOL0     O45901   5.657   2.675   3.675  0.3755 -0.9006  0.1714
  341MOL0     C45902   5.565   2.671   3.590 -0.4634 -0.0637  0.1936
  341MOL0     O45903   5.580   2.669   3.451 -0.1297 -0.6043  0.0334
  341MOL0     C45904   5.700   2.679   3.397  0.5460 -0.1974 -0.6061
  341MOL0     C45905   5.797   2.590   3.410 -0.0877  0.1605  0.1066
  341MOL0     C45906   5.921   2.609   3.361 -0.5139 -0.3237  0.5347
  341MOL0     C45907   5.948   2.729   3.292 -0.3358  0.0717 -0.2892
  341MOL0     O45908   6.075   2.738   3.249  0.5472 -0.0751 -0.3283
  341MOL0     C45909   6.137   2.873   3.252 -0.3683  0.5726 -0.3664
  341MOL0     C45910   6.290   2.854   3.257  0.1650  0.2641 -0.1772
  341MOL0     C45911   6.375   2.966   3.300 -0.5063 -0.0050  0.4585
  341MOL0     C45912   6.387   3.077   3.199 -0.8855  0.4355  0.1813
  341MOL0     C45913   6.461   3.202   3.264 -0.2110  0.0082 -0.1507
  341MOL0     C45914   6.406   3.334   3.212 -0.3342  1.0611 -0.2743
  341MOL0     C45915   6.492   3.452   3.267 -0.3739 -0.8692 -0.8337
  341MOL0     C45916   6.626   3.468   3.205  0.2720  0.1849  0.1123
  341MOL0     N45917   6.649   3.606   3.144 -0.1681 -0.1830 -0.7582
  341MOL0     C45918   6.626   3.724   3.216  0.8703 -0.2308 -1.0171
  341MOL0     C45919   6.624   3.820   3.121  0.2120 -0.2521 -0.5429
  341MOL0     C45920   6.588   3.963   3.147 -0.6617 -0.2272  0.5222
  341MOL0     C45921   6.716   4.042   3.197 -0.0709 -0.1223 -0.2438
  341MOL0     C45922   6.825   4.008   3.106  0.0311 -0.7509 -1.4368
  341MOL0     C45923   6.947   4.093   3.119  0.3180  0.1927 -1.3597
  341MOL0     O45924   7.015   4.072   3.248 -0.2419  0.3453 -0.7724
  341MOL0     C45925   7.132   4.139   3.277  0.2368  0.0802  0.2369
  341MOL0     C45926   7.185   4.115   3.401  0.3041 -0.3295 -0.1657
  341MOL0     C45927   7.290   4.196   3.460 -0.3396  0.5375 -0.0343
  341MOL0     C45928   7.351   4.170   3.597 -0.0955 -0.1914 -0.6340
  341MOL0     C45929   7.340   4.303   3.384  0.1647  0.2103  0.5584
  341MOL0     C45930   7.406   4.415   3.444 -0.7610 -0.3251  0.6400
  341MOL0     O45931   7.330   4.527   3.463 -0.8341  0.3931  0.0923
  341MOL0     C45932   7.365   4.590   3.583  0.0400  0.7160  1.1884
  341MOL0     C45933   7.308   4.557   3.705 -0.2154 -1.2621 -0.6993
  341MOL0     C45934   7.342   4.610   3.839  0.9076 -0.7835  0.1662
  341MOL0     C45935   7.446   4.716   3.831  0.4051  0.5744  0.6857
  341MOL0     O45936   7.496   4.767   3.946 -0.1934  0.1813  0.1754
  341MOL0     C45937   7.502   4.677   4.061  0.1144 -0.7712 -1.3612
  341MOL0     C45938   7.582   4.758   4.162  0.1596 -1.3970 -0.4590
  341MOL0     C45939   7.728   4.730   4.153 -0.2398 -0.0106 -0.8778
  341MOL0     C45940   7.779   4.707   4.298 -0.2463 -0.0322  0.2654
  341MOL0     C45941   7.776   4.828   4.384  0.1664 -0.2277  0.4801
  341MOL0     C45942   7.772   4.788   4.539 -0.2907  0.0599 -0.6902
  341MOL0     C45943   7.769   4.918   4.622  0.6193 -0.7726  1.6540
  341MOL0     C45944   7.822   4.884   4.761 -1.1854  0.3394  0.6716
  341MOL0    Cl45945   7.999   4.864   4.757 -0.5474  0.1461  0.0186
  341MOL0     C45946   7.492   4.757   3.702  0.2629 -1.3025  0.3516
  341MOL0     C45947   7.455   4.694   3.579  0.3303 -0.4486  0.2712
  341MOL0     O45948   7.530   4.412   3.460  0.6437 -0.1120 -0.1236
  341MOL0     C45949   7.301   4.311   3.250 -0.1408 -0.0711 -0.1473
  341MOL0     C45950   7.206   4.232   3.194 -0.4218  0.4916 -0.0508
  341MOL0     N45951   6.642   3.768   2.994  0.7724 -0.2286 -0.0812
  341MOL0     N45952   6.667   3.636   3.014 -0.3903  0.2316 -0.6091
  341MOL0     C45953   5.849   2.822   3.276  0.3545 -0.5928 -0.5443
  341MOL0     C45954   5.727   2.801   3.326  0.6394 -0.3564  0.0982
  341MOL0     C45955   5.426   2.632   3.642  0.0301  0.5711 -0.1101
  341MOL0     C45956   5.324   2.616   3.543 -0.0918  0.1560 -1.2075
  341MOL0     C45957   5.203   2.557   3.581  0.0692 -0.2297 -0.6502
  341MOL0     C45958   5.168   2.530   3.715 -0.4663 -0.4183  0.7419
  341MOL0     O45959   5.058   2.457   3.745 -0.2837  0.1491  0.8804
  341MOL0     C45960   5.060   2.325   3.794 -0.7951  0.5682  0.1545
  341MOL0     C45961   5.005   2.233   3.690  0.3755  0.2473 -0.2587
  341MOL0     C45962   5.007   2.090   3.745 -0.1733 -0.0983 -0.1040
  341MOL0     C45963   4.927   1.980   3.675 -0.3275 -0.6160 -0.6813
  341MOL0     C45964   4.978   1.980   3.533  0.4906 -0.5921  0.2962
  341MOL0     C45965   5.031   1.980   3.429  0.7416  0.1983  1.0661
  341MOL0     C45966   5.269   2.558   3.815  0.6241 -0.4445  1.1264
  341MOL0     C45967   5.395   2.608   3.776 -0.1019 -0.4508  0.0167
  341MOL0     H45968   5.781   2.499   3.468  0.8753 -1.6024 -2.1876
  341MOL0     H45969   5.998   2.533   3.369 -2.8534 -2.6791  2.3181
  341MOL0     H45970   6.120   2.921   3.155  0.5595 -2.1596 -2.0203
  341MOL0     H45971   6.104   2.944   3.328  2.5640  0.0015  1.6189
  341MOL0     H45972   6.319   2.771   3.321  0.2106 -1.1248 -1.9118
  341MOL0     H45973   6.321   2.813   3.160 -2.8915 -1.3863 -0.5770
  341MOL0     H45974   6.328   3.011   3.388 -0.5289 -0.9386  0.9316
  341MOL0     H45975   6.478   2.936   3.319 -0.8831  0.3501  3.5045
  341MOL0     H45976   6.440   3.059   3.105  2.1253  1.2812  1.6154
  341MOL0     H45977   6.286   3.095   3.160 -0.5618  0.9202 -0.4420
  341MOL0     H45978   6.454   3.207   3.373 -2.1756 -1.2999 -0.1643
  341MOL0     H45979   6.566   3.198   3.236 -0.1030 -0.2632  0.2825
  341MOL0     H45980   6.401   3.341   3.103  1.1605  0.5507 -0.3959
  341MOL0     H45981   6.302   3.337   3.247 -0.7659 -1.3815 -1.1812
  341MOL0     H45982   6.442   3.548   3.251  0.9222  0.0963  0.6577
  341MOL0     H45983   6.492   3.444   3.376 -0.3849 -1.2714 -0.8613
  341MOL0     H45984   6.647   3.390   3.131  0.4015  1.1028 -0.8432
  341MOL0     H45985   6.700   3.451   3.283  1.1381  0.8990 -0.5309
  341MOL0     H45986   6.611   3.728   3.324  1.5537 -2.2470 -0.8063
  341MOL0     H45987   6.546   3.998   3.053 -1.3135  1.4835  1.4105
  341MOL0     H45988   6.511   3.968   3.225 -3.7516 -1.9088 -2.1961
  341MOL0     H45989   6.753   4.018   3.297  2.3882 -1.4639 -1.3836
  341MOL0     H45990   6.697   4.149   3.183  2.4520  0.3327 -0.6822
  341MOL0     H45991   6.802   4.016   3.000 -0.3294 -1.1484 -1.3888
  341MOL0     H45992   6.863   3.909   3.132  1.4335  0.7456  3.4596
  341MOL0     H45993   6.922   4.197   3.096  1.0677  0.1495 -2.4572
  341MOL0     H45994   7.015   4.060   3.040  0.5377 -0.6184 -0.8382
  341MOL0     H45995   7.141   4.033   3.458 -1.1197 -0.2088 -1.0384
  341MOL0     H45996   7.369   4.267   3.644  0.8421 -0.5592 -0.2032
  341MOL0     H45997   7.275   4.104   3.640 -2.3406  1.8042 -1.2996
  341MOL0     H45998   7.447   4.118   3.586  0.4503  0.6451  0.0944
  341MOL0     H45999   7.225   4.489   3.693 -2.9066  0.9546  2.9813
  341MOL0     H46000   7.293   4.581   3.931  0.8345 -3.5399 -0.6598
  341MOL0     H46001   7.400   4.673   4.101  1.1980  4.5435  3.1394
  341MOL0     H46002   7.536   4.575   4.043 -0.4959 -1.8569  2.6584
  341MOL0     H46003   7.569   4.866   4.156 -2.7081 -1.7114 -1.4334
  341MOL0     H46004   7.543   4.729   4.261 -0.3150  2.7125  0.7749
  341MOL0     H46005   7.772   4.817   4.103  1.5284 -0.6311 -0.4759
  341MOL0     H46006   7.746   4.634   4.104 -1.4669 -0.5752 -0.2609
  341MOL0     H46007   7.714   4.627   4.337 -0.7060  1.1996  2.2033
  341MOL0     H46008   7.878   4.662   4.293 -1.1752 -2.2748  0.7597
  341MOL0     H46009   7.687   4.889   4.361 -1.0172 -2.0727 -0.0065
  341MOL0     H46010   7.865   4.890   4.372  0.5490 -1.1097 -1.4907
  341MOL0     H46011   7.692   4.721   4.572  0.6362 -0.6216  0.2420
  341MOL0     H46012   7.865   4.736   4.562  1.1286  1.2999 -3.1782
  341MOL0     H46013   7.665   4.951   4.634  0.6090  1.1491 -2.1488
  341MOL0     H46014   7.825   5.002   4.579  0.1436 -0.0962  2.3190
  341MOL0     H46015   7.774   4.792   4.796  0.5176 -0.3994  1.1905
  341MOL0     H46016   7.807   4.960   4.838  0.5454  0.2842  1.1239
  341MOL0     H46017   7.568   4.834   3.697  3.6871 -4.4204 -3.9579
  341MOL0     H46018   7.502   4.723   3.485  3.0912 -0.8640  1.4318
  341MOL0     H46019   7.350   4.384   3.186 -0.4715  2.5895  2.3864
  341MOL0     H46020   7.193   4.256   3.089  4.3870  2.6877 -0.4259
  341MOL0     H46021   5.863   2.909   3.213  0.5814  1.1171  1.7439
  341MOL0     H46022   5.659   2.885   3.325  2.0679  0.9616  2.7102
  341MOL0     H46023   5.342   2.633   3.438  2.3917  2.1395 -0.5462
  341MOL0     H46024   5.138   2.543   3.496  1.5395  0.2138 -1.8918
  341MOL0     H46025   5.162   2.292   3.818  0.1033  2.3335 -0.9404
  341MOL0     H46026   5.000   2.323   3.884  1.6982 -2.3026  1.9454
  341MOL0     H46027   5.042   2.256   3.590 -0.1676 -0.5510 -0.6533
  341MOL0     H46028   4.898   2.251   3.675 -0.3352 -2.6600  0.6467
  341MOL0     H46029   4.981   2.088   3.851 -0.5953 -1.8100 -0.1980
  341MOL0     H46030   5.111   2.056   3.753  0.1842  0.1097 -2.9529
  341MOL0     H46031   4.822   2.011   3.670 -0.1893 -0.1703 -0.8753
  341MOL0     H46032   4.927   1.881   3.722 -2.4804 -0.3842 -0.0606
  341MOL0     H46033   5.071   1.969   3.330  2.0341 -3.2702  1.8175
  341MOL0     H46034   5.244   2.536   3.919 -0.2124 -0.1556  0.9938
  341MOL0     H46035   5.472   2.619   3.852 -0.4474  0.4426  0.2573
  342MOL0     O46036   0.648   9.056   6.006 -0.1297  0.0369  0.2920
  342MOL0     C46037   0.745   9.136   6.020 -0.2477 -0.2439  0.9324
  342MOL0     O46038   0.858   9.136   5.949  0.0060  0.1015 -0.4650
  342MOL0     C46039   0.873   9.061   5.835  0.2965 -0.1211  0.4209
  342MOL0     C46040   0.777   9.055   5.734 -0.3757 -0.6252  0.6699
  342MOL0     C46041   0.798   8.973   5.624 -0.4613 -0.3611  0.1520
  342MOL0     C46042   0.925   8.926   5.586 -0.4660 -0.0027 -0.9425
  342MOL0     O46043   0.958   8.838   5.481 -0.3155 -0.4379  0.1738
  342MOL0     C46044   0.860   8.741   5.428 -0.3840 -0.0684 -0.1647
  342MOL0     C46045   0.843   8.633   5.540 -0.0526  0.0969  0.8340
  342MOL0     C46046   0.756   8.518   5.491 -0.8328 -0.4376  0.2105
  342MOL0     C46047   0.732   8.419   5.604  0.1629 -0.2363 -0.1663
  342MOL0     C46048   0.644   8.312   5.552 -0.7872  0.2424 -0.7440
  342MOL0     C46049   0.612   8.197   5.653 -0.7374  0.4744 -0.1254
  342MOL0     C46050   0.736   8.122   5.706 -0.3907 -0.7586 -0.9748
  342MOL0     C46051   0.696   8.018   5.803  0.0711  0.2666 -0.2962
  342MOL0     N46052   0.637   8.071   5.930  0.7493 -0.3346  0.0190
  342MOL0     C46053   0.715   8.115   6.035 -0.3601 -0.1807  0.2401
  342MOL0     C46054   0.627   8.174   6.123 -0.5097 -1.0482  0.8615
  342MOL0     C46055   0.656   8.251   6.260 -1.0118  0.6930  0.1527
  342MOL0     C46056   0.635   8.411   6.252 -0.7846  0.8591  0.5803
  342MOL0     C46057   0.627   8.483   6.386 -0.3631  0.5415  0.3354
  342MOL0     C46058   0.607   8.632   6.372  0.1607  1.8539  0.0245
  342MOL0     O46059   0.584   8.701   6.495 -0.5252  0.3479 -0.2461
  342MOL0     C46060   0.691   8.722   6.577 -0.1088  0.5915 -0.4374
  342MOL0     C46061   0.664   8.779   6.705 -0.2578 -1.1338 -0.3885
  342MOL0     C46062   0.765   8.808   6.799 -0.2625  0.2480  0.7463
  342MOL0     C46063   0.714   8.859   6.935 -0.0160 -0.2153  0.3116
  342MOL0     C46064   0.897   8.767   6.780  0.2980  1.1032  0.5171
  342MOL0     C46065   1.013   8.801   6.865 -0.0488 -0.2081 -0.4717
  342MOL0     O46066   0.983   8.900   6.954 -0.0404 -0.5975 -0.0347
  342MOL0     C46067   1.096   8.933   7.020  0.0915  0.5853 -0.4877
  342MOL0     C46068   1.185   9.010   6.955 -0.2245  0.6726 -0.6431
  342MOL0     C46069   1.306   9.039   7.014 -0.9393 -0.3649 -1.4098
  342MOL0     C46070   1.334   9.006   7.150  0.0548  0.3968  0.1764
  342MOL0     O46071   1.450   9.048   7.198  0.0896 -0.6391  0.0253
  342MOL0     C46072   1.460   9.078   7.342 -0.5590 -1.3526  0.4572
  342MOL0     C46073   1.594   9.142   7.354  0.5575 -0.2124 -0.6108
  342MOL0     C46074   1.590   9.287   7.298 -0.3288 -0.0482  0.1687
  342MOL0     C46075   1.704   9.380   7.353 -0.6183  0.7301 -0.0111
  342MOL0     C46076   1.642   9.517   7.346  0.2719  0.0409  0.1561
  342MOL0     C46077   1.772   9.599   7.365 -0.2814  0.2641  0.4513
  342MOL0     C46078   1.762   9.752   7.378 -0.3759  0.2486 -0.3523
  342MOL0     C46079   1.667   9.788   7.493 -0.0558 -0.2547 -0.3021
  342MOL0    Cl46080   1.674   9.963   7.531  0.0865  0.7973 -0.1781
  342MOL0     C46081   1.237   8.918   7.213  0.0161 -0.2586  0.4423
  342MOL0     C46082   1.114   8.886   7.146  0.4138 -0.7096  0.4682
  342MOL0     O46083   1.107   8.716   6.874  0.1106  0.0717 -0.7972
  342MOL0     C46084   0.920   8.700   6.657 -0.2883 -0.5749 -0.8264
  342MOL0     C46085   0.822   8.683   6.558 -0.1039 -0.6234  0.2903
  342MOL0     N46086   0.497   8.158   6.071 -0.7058 -0.7078  0.4198
  342MOL0     N46087   0.502   8.092   5.960 -1.2308 -0.1197  0.6202
  342MOL0     C46088   1.025   8.948   5.683 -0.6153 -0.4960  0.0931
  342MOL0     C46089   1.005   9.017   5.803  0.0057 -0.0428  0.3398
  342MOL0     C46090   0.745   9.233   6.127 -0.0415  0.5352 -0.1474
  342MOL0     C46091   0.639   9.239   6.222 -0.3794 -0.1751 -0.5787
  342MOL0     C46092   0.640   9.343   6.308  0.7850 -0.7421  0.1801
  342MOL0     C46093   0.753   9.430   6.326  0.2080 -0.6786  0.5231
  342MOL0     O46094   0.757   9.534   6.413 -0.4505 -0.3981  0.4457
  342MOL0     C46095   0.636   9.584   6.446 -0.0159  0.0383  0.1147
  342MOL0     C46096   0.539   9.653   6.345 -0.6039 -0.0791 -0.0742
  342MOL0     C46097   0.625   9.767   6.273 -0.5713 -0.2196 -0.9469
  342MOL0     C46098   0.548   9.854   6.169 -0.6700  0.4635  0.1211
  342MOL0     C46099   0.490   9.759   6.073 -0.0479  0.4191  0.4420
  342MOL0     C46100   0.441   9.678   5.996  0.1612 -0.2271 -0.5330
  342MOL0     C46101   0.863   9.414   6.245  1.0570 -0.4751  0.8568
  342MOL0     C46102   0.850   9.326   6.137  0.1187 -0.9067  0.1739
  342MOL0     H46103   0.675   9.092   5.737 -0.0260  0.3944  0.1208
  342MOL0     H46104   0.712   8.948   5.564  0.1133 -0.3666 -0.6787
  342MOL0     H46105   0.767   8.790   5.397  0.9524  1.8765 -1.3778
  342MOL0     H46106   0.910   8.701   5.340 -1.6167 -1.4923 -0.2627
  342MOL0     H46107   0.938   8.589   5.573  1.4633  0.7342 -2.2215
  342MOL0     H46108   0.794   8.675   5.628 -1.6848 -3.0832  1.5781
  342MOL0     H46109   0.655   8.554   5.466 -0.4650  0.8878  0.5200
  342MOL0     H46110   0.804   8.468   5.407  0.9064 -1.2190  1.5976
  342MOL0     H46111   0.824   8.378   5.649 -0.2743 -0.2750  0.7227
  342MOL0     H46112   0.678   8.460   5.689 -0.8142 -2.1290  0.1939
  342MOL0     H46113   0.548   8.360   5.531 -1.8561 -1.9174 -1.0706
  342MOL0     H46114   0.683   8.270   5.458 -0.9044 -0.1140 -0.6372
  342MOL0     H46115   0.569   8.240   5.743 -0.1188  0.9964 -0.0722
  342MOL0     H46116   0.540   8.125   5.611 -1.6827  0.3199  1.6811
  342MOL0     H46117   0.809   8.079   5.637  0.7212 -1.1965  0.4156
  342MOL0     H46118   0.786   8.206   5.755 -1.6033 -1.6224  1.9968
  342MOL0     H46119   0.786   7.957   5.822 -0.0995 -0.1259 -0.7173
  342MOL0     H46120   0.612   7.959   5.766  0.0513 -1.9868  2.9206
  342MOL0     H46121   0.823   8.104   6.028 -0.4676 -0.0475 -3.4622
  342MOL0     H46122   0.586   8.205   6.331 -0.9202 -2.7935 -1.8139
  342MOL0     H46123   0.758   8.221   6.285 -0.2934  0.8076 -2.4434
  342MOL0     H46124   0.543   8.433   6.195  0.7088  5.5614 -0.4488
  342MOL0     H46125   0.723   8.452   6.201 -0.3253  0.6891  1.2299
  342MOL0     H46126   0.724   8.463   6.433 -0.1889 -1.4336 -0.7774
  342MOL0     H46127   0.551   8.435   6.449  2.6644 -1.8596  2.5158
  342MOL0     H46128   0.522   8.645   6.305  0.0345  0.1845 -0.1765
  342MOL0     H46129   0.693   8.672   6.317 -0.5002  0.2184 -2.3647
  342MOL0     H46130   0.560   8.808   6.720 -0.5081 -1.7380 -0.8835
  342MOL0     H46131   0.751   8.957   6.967  2.9913 -1.4322  0.9159
  342MOL0     H46132   0.606   8.844   6.933  0.2532 -2.6823  1.1810
  342MOL0     H46133   0.742   8.787   7.012 -3.0420 -0.2052  1.5702
  342MOL0     H46134   1.150   9.057   6.864 -3.0703  0.9802  0.4888
  342MOL0     H46135   1.372   9.109   6.963 -1.3233  1.1835  0.1658
  342MOL0     H46136   1.380   9.147   7.372  0.1045 -0.9666  1.3710
  342MOL0     H46137   1.465   8.990   7.406  1.4368 -0.9902  0.8459
  342MOL0     H46138   1.605   9.151   7.462 -0.9873  1.9057 -0.5858
  342MOL0     H46139   1.683   9.087   7.322  1.7221  1.2546 -0.0318
  342MOL0     H46140   1.492   9.334   7.314  1.3392  3.0334  2.0878
  342MOL0     H46141   1.592   9.280   7.189  1.7325  0.5709  0.1379
  342MOL0     H46142   1.728   9.343   7.453 -0.9701  1.2521  0.2701
  342MOL0     H46143   1.790   9.375   7.286 -0.2171 -0.8328  0.5682
  342MOL0     H46144   1.571   9.520   7.429  0.1448  0.2559  0.0401
  342MOL0     H46145   1.587   9.542   7.255  0.2186 -0.3469  0.0785
  342MOL0     H46146   1.820   9.560   7.455 -3.0436  0.6340  2.2187
  342MOL0     H46147   1.836   9.587   7.278  1.3475  0.5119  1.5758
  342MOL0     H46148   1.730   9.796   7.283  0.6066  1.9666  0.0668
  342MOL0     H46149   1.856   9.802   7.401 -0.2472  0.3938 -1.1647
  342MOL0     H46150   1.686   9.725   7.580 -0.7522 -2.4691 -1.6670
  342MOL0     H46151   1.570   9.749   7.463  1.3416 -3.5505 -0.9689
  342MOL0     H46152   1.252   8.888   7.316  0.1687 -1.4201  0.1033
  342MOL0     H46153   1.042   8.818   7.191  1.4734  0.0977  3.7210
  342MOL0     H46154   1.016   8.652   6.641  2.1591  3.7228 -0.6354
  342MOL0     H46155   0.850   8.628   6.469 -3.0156  1.5026 -2.1456
  342MOL0     H46156   1.126   8.920   5.656 -0.6394  0.4405 -1.0195
  342MOL0     H46157   1.082   9.040   5.875  0.8326 -0.9126 -0.2465
  342MOL0     H46158   0.562   9.163   6.208  1.4823 -2.7539  1.8624
  342MOL0     H46159   0.548   9.352   6.365  1.9521 -0.4877  2.1117
  342MOL0     H46160   0.573   9.513   6.500 -0.6135 -1.0755 -1.9498
  342MOL0     H46161   0.658   9.666   6.514  1.8041 -0.3794  0.0799
  342MOL0     H46162   0.448   9.692   6.391 -1.1522 -0.0464 -1.1499
  342MOL0     H46163   0.507   9.570   6.281 -3.5796  0.4895  0.5163
  342MOL0     H46164   0.715   9.721   6.231  1.4134  3.3620 -0.9666
  342MOL0     H46165   0.660   9.832   6.354 -0.1793 -3.3330  1.5689
  342MOL0     H46166   0.621   9.919   6.118 -0.0820  2.0897  2.8453
  342MOL0     H46167   0.480   9.927   6.213  0.4382  0.5556  1.7641
  342MOL0     H46168   0.416   9.601   5.926 -0.7966 -0.4408  0.0326
  342MOL0     H46169   0.944   9.485   6.260  0.5503  2.2280 -5.6379
  342MOL0     H46170   0.928   9.337   6.063 -0.1947  1.4178  0.1325
  343MOL0     O46171   8.784   8.580   6.093  0.4519  0.1470  0.2652
  343MOL0     C46172   8.871   8.632   6.016  1.0670 -0.0922  1.3074
  343MOL0     O46173   8.981   8.709   6.053 -0.0415 -0.1274 -0.0458
  343MOL0     C46174   8.983   8.753   6.178 -0.9668 -0.1707  0.5055
  343MOL0     C46175   8.919   8.867   6.211  0.1486 -0.5985  1.0616
  343MOL0     C46176   8.915   8.923   6.343 -0.0674  0.0596  1.0785
  343MOL0     C46177   8.989   8.856   6.442 -0.6755  0.2575  0.8371
  343MOL0     O46178   8.974   8.914   6.562 -0.0558 -0.0163 -0.7715
  343MOL0     C46179   9.049   8.874   6.676 -0.9396 -0.1894  0.6654
  343MOL0     C46180   8.986   8.978   6.780 -0.0132  0.2913  0.3085
  343MOL0     C46181   8.961   8.923   6.923 -1.3892 -0.3448 -0.6278
  343MOL0     C46182   8.873   9.023   6.996  0.8316 -0.3675  0.5360
  343MOL0     C46183   8.860   8.976   7.148 -0.0607 -0.2690 -0.0799
  343MOL0     C46184   8.775   9.073   7.225 -0.5523 -0.0255  0.6888
  343MOL0     C46185   8.628   9.049   7.192 -0.7107 -0.6319 -0.4065
  343MOL0     C46186   8.565   9.172   7.246 -0.0071 -0.5434 -0.0524
  343MOL0     N46187   8.562   9.273   7.139  0.6625  0.3762  0.3273
  343MOL0     C46188   8.450   9.321   7.078 -0.1419 -0.3202 -0.1822
  343MOL0     C46189   8.491   9.406   6.985  0.6875 -0.0934  0.0202
  343MOL0     C46190   8.406   9.461   6.871 -0.1970 -0.4545  0.5314
  343MOL0     C46191   8.341   9.590   6.904 -0.3150 -0.7733  0.3816
  343MOL0     C46192   8.431   9.719   6.930  0.1302 -0.3798  0.9327
  343MOL0     C46193   8.337   9.826   6.971  0.3468 -0.0913 -0.0810
  343MOL0     O46194   8.418   9.938   6.995  0.1263 -0.4377  0.2322
  343MOL0     C46195   8.355  10.051   6.984 -0.2634 -0.5096 -0.9597
  343MOL0     C46196   8.240  10.084   7.065 -0.4736  0.1748 -0.1270
  343MOL0     C46197   8.162  10.198   7.038  0.0019  0.0236 -0.4454
  343MOL0     C46198   8.042  10.216   7.133  0.1535  0.3296 -0.6880
  343MOL0     C46199   8.221  10.291   6.948 -0.0467  0.0210  0.8380
  343MOL0     C46200   8.161  10.423   6.916 -0.2662 -0.1628 -0.1134
  343MOL0     O46201   8.032  10.456   6.978  0.0840  0.3435 -0.2654
  343MOL0     C46202   7.962  10.573   6.964  0.0724  0.2691  0.1545
  343MOL0     C46203   7.826  10.574   6.995  0.2138 -0.4591 -0.1473
  343MOL0     C46204   7.751  10.693   7.009 -0.0726 -0.1518 -0.2449
  343MOL0     C46205   7.811  10.813   6.967 -0.6960  0.3478  0.4999
  343MOL0     O46206   7.754  10.939   6.972 -0.3959  0.0413 -0.0626
  343MOL0     C46207   7.683  10.978   7.093  0.1825 -0.6353 -0.0622
  343MOL0     C46208   7.646  11.121   7.080  0.5583  0.5403  0.1499
  343MOL0     C46209   7.604  11.169   7.227 -0.3460 -0.5687  0.4118
  343MOL0     C46210   7.543  11.313   7.230  0.7790 -0.3232  0.5156
  343MOL0     C46211   7.415  11.307   7.145 -0.5144 -0.7584  0.4246
  343MOL0     C46212   7.318  11.428   7.153 -1.0049 -0.7095  0.0754
  343MOL0     C46213   7.212  11.436   7.044  0.4145 -0.4956 -0.3049
  343MOL0     C46214   7.089  11.352   7.089  0.3255 -0.2425  0.2074
  343MOL0    Cl46215   7.015  11.413   7.242  0.4806 -0.4610 -0.3870
  343MOL0     C46216   7.938  10.810   6.915 -0.8902  0.3548  0.0939
  343MOL0     C46217   8.012  10.694   6.919 -0.7595  0.4429  0.7378
  343MOL0     O46218   8.227  10.511   6.857 -0.0969  0.7181 -0.0080
  343MOL0     C46219   8.341  10.263   6.874 -0.1316 -0.0280 -0.0310
  343MOL0     C46220   8.410  10.145   6.896 -0.1581  0.2953 -0.3168
  343MOL0     N46221   8.629   9.425   6.999  0.3945  0.6388  0.2610
  343MOL0     N46222   8.669   9.345   7.092  0.1132 -0.0907  0.2317
  343MOL0     C46223   9.068   8.738   6.409 -0.5759 -0.1889 -0.3420
  343MOL0     C46224   9.054   8.690   6.272 -1.2688 -0.1449  0.4416
  343MOL0     C46225   8.832   8.655   5.869 -0.0506  0.4097 -0.1356
  343MOL0     C46226   8.919   8.709   5.766 -0.1406 -0.6773 -0.3428
  343MOL0     C46227   8.871   8.743   5.641 -0.3310  0.3101 -0.0860
  343MOL0     C46228   8.741   8.731   5.612  0.2016  0.3862 -0.2738
  343MOL0     O46229   8.702   8.774   5.490  0.2617 -0.3549  0.2043
  343MOL0     C46230   8.560   8.793   5.470 -0.4412  0.0038 -0.1524
  343MOL0     C46231   8.507   8.923   5.540 -0.3315 -0.0125 -0.5959
  343MOL0     C46232   8.566   9.044   5.474  0.1943  0.2509 -0.0512
  343MOL0     C46233   8.491   9.086   5.350 -0.0034  0.0501  0.2487
  343MOL0     C46234   8.565   9.186   5.273 -0.8039 -0.1026  0.9017
  343MOL0     C46235   8.625   9.268   5.207  0.1386  0.3859  0.4936
  343MOL0     C46236   8.654   8.670   5.708 -0.0541  0.9801  0.1942
  343MOL0     C46237   8.699   8.626   5.834 -0.3783 -0.4331  0.2296
  343MOL0     H46238   8.874   8.914   6.124  0.4331 -2.0865  0.0609
  343MOL0     H46239   8.866   9.018   6.358 -2.8001 -0.2498 -3.8018
  343MOL0     H46240   9.050   8.765   6.683  4.1474 -0.5390 -1.5700
  343MOL0     H46241   9.154   8.905   6.675 -0.6795 -1.0393  1.3177
  343MOL0     H46242   9.055   9.063   6.782  0.5269 -0.1468  0.7554
  343MOL0     H46243   8.890   9.015   6.744  0.0718  0.6400  0.4461
  343MOL0     H46244   8.914   8.824   6.925 -2.8006  0.2949 -0.8604
  343MOL0     H46245   9.060   8.907   6.968 -0.0684  0.3320 -3.0909
  343MOL0     H46246   8.921   9.121   7.007  0.0378 -0.1149  1.9479
  343MOL0     H46247   8.778   9.021   6.942 -0.9405 -0.6319  3.4357
  343MOL0     H46248   8.802   8.884   7.161 -0.2912  0.0266  1.0254
  343MOL0     H46249   8.960   8.960   7.189  0.0896  1.0504  0.1017
  343MOL0     H46250   8.801   9.062   7.331  2.1509  0.8426  0.2023
  343MOL0     H46251   8.814   9.170   7.192  0.8282 -0.5052  0.8605
  343MOL0     H46252   8.614   9.043   7.084 -2.3826 -3.1243 -0.1302
  343MOL0     H46253   8.589   8.958   7.239 -2.1829  0.1336 -0.1075
  343MOL0     H46254   8.611   9.214   7.335 -2.5507  0.9772  0.6368
  343MOL0     H46255   8.465   9.146   7.282 -1.5166  0.5151 -3.1405
  343MOL0     H46256   8.354   9.273   7.089  0.5312 -1.4806  0.9518
  343MOL0     H46257   8.466   9.479   6.781 -0.5197  3.6138  0.9418
  343MOL0     H46258   8.331   9.385   6.847  0.6444 -1.2163  0.2449
  343MOL0     H46259   8.275   9.587   6.991  0.6290  1.2782  1.2536
  343MOL0     H46260   8.273   9.614   6.821 -0.0231 -0.7286  0.1520
  343MOL0     H46261   8.466   9.759   6.834 -0.2613 -0.2511  0.8421
  343MOL0     H46262   8.508   9.699   7.005  1.0216  0.6016  0.3109
  343MOL0     H46263   8.269   9.800   7.053  0.7670 -1.7920 -0.2269
  343MOL0     H46264   8.262   9.851   6.895 -1.5464 -0.7128  1.4971
  343MOL0     H46265   8.208  10.009   7.137  0.2551 -0.5448 -0.5500
  343MOL0     H46266   8.074  10.269   7.223 -0.2252 -0.2984 -0.1832
  343MOL0     H46267   7.956  10.268   7.089 -0.0850 -0.4185 -1.1080
  343MOL0     H46268   8.006  10.119   7.169 -2.8580  1.9721  1.1875
  343MOL0     H46269   7.779  10.491   7.046  0.2584 -0.0394  0.6005
  343MOL0     H46270   7.651  10.701   7.051 -0.3303 -0.6616 -0.7423
  343MOL0     H46271   7.593  10.916   7.095  1.7901 -3.2557 -1.9977
  343MOL0     H46272   7.746  10.969   7.182 -0.2121 -0.3180  0.2580
  343MOL0     H46273   7.732  11.176   7.040  0.8938  1.0523  1.4928
  343MOL0     H46274   7.563  11.129   7.010  1.3354 -1.1589 -1.0479
  343MOL0     H46275   7.692  11.173   7.292 -1.0965 -3.6529  1.8187
  343MOL0     H46276   7.532  11.098   7.268 -0.4361 -1.3592 -1.0711
  343MOL0     H46277   7.515  11.347   7.330  1.6837 -1.1360  1.0564
  343MOL0     H46278   7.610  11.390   7.190  1.4514 -0.7234  0.8635
  343MOL0     H46279   7.360  11.212   7.151 -2.9256  0.0649 -4.1008
  343MOL0     H46280   7.447  11.300   7.041  1.2542 -2.7120  0.9977
  343MOL0     H46281   7.274  11.452   7.251 -1.3660  3.0561 -0.8474
  343MOL0     H46282   7.386  11.511   7.131 -1.3805 -0.0858  1.1769
  343MOL0     H46283   7.248  11.388   6.952  3.9867 -0.1928  0.7864
  343MOL0     H46284   7.183  11.541   7.043  0.3490 -0.4676  1.8078
  343MOL0     H46285   7.128  11.252   7.111  1.4355  0.4159  1.4089
  343MOL0     H46286   7.014  11.337   7.011  1.3103 -0.6346 -0.7015
  343MOL0     H46287   7.982  10.900   6.873 -1.2022 -0.3090 -1.7448
  343MOL0     H46288   8.113  10.705   6.881 -0.6552  2.0568  1.3870
  343MOL0     H46289   8.376  10.332   6.798 -0.0742  1.1709  1.0504
  343MOL0     H46290   8.499  10.128   6.836  0.1971 -0.3781  0.3824
  343MOL0     H46291   9.130   8.687   6.483  1.4253 -0.0763 -1.8560
  343MOL0     H46292   9.109   8.601   6.242 -0.2190  0.4558  0.5116
  343MOL0     H46293   9.026   8.712   5.784  0.1798 -5.5044 -0.1378
  343MOL0     H46294   8.934   8.782   5.562 -1.8537  1.0663 -0.9634
  343MOL0     H46295   8.536   8.814   5.366 -0.4295  1.4247  0.1087
  343MOL0     H46296   8.500   8.706   5.499 -0.1458 -0.5856 -1.2820
  343MOL0     H46297   8.539   8.916   5.644 -1.2714  0.1031 -0.2920
  343MOL0     H46298   8.398   8.921   5.554 -0.1934 -1.5584  0.4295
  343MOL0     H46299   8.672   9.021   5.461  0.4720 -1.2779  3.7142
  343MOL0     H46300   8.562   9.133   5.537  0.7091  1.7735 -2.0516
  343MOL0     H46301   8.396   9.139   5.366 -0.6370 -0.4573 -1.5334
  343MOL0     H46302   8.483   9.000   5.283 -1.6274  0.2106  0.1821
  343MOL0     H46303   8.691   9.343   5.169 -0.6756  1.4972  1.1961
  343MOL0     H46304   8.547   8.657   5.693 -0.6931  1.3007  3.5396
  343MOL0     H46305   8.622   8.592   5.901 -2.8929  3.8812 -0.0937
  344MOL0     O46306   1.380  10.202   6.919  0.2790 -0.4873  0.4506
  344MOL0     C46307   1.268  10.189   6.870 -0.4380 -0.6690 -0.1713
  344MOL0     O46308   1.239  10.121   6.758 -0.3350  0.5761  0.3729
  344MOL0     C46309   1.339  10.031   6.721  0.2789  0.1012  0.2906
  344MOL0     C46310   1.362  10.023   6.583  0.0262 -0.9135 -1.0997
  344MOL0     C46311   1.451   9.938   6.520  0.3003  0.4619  1.1254
  344MOL0     C46312   1.511   9.839   6.599 -0.6565  0.3059  0.1554
  344MOL0     O46313   1.596   9.739   6.546 -0.1036  0.0419  0.7975
  344MOL0     C46314   1.616   9.730   6.397 -0.6691 -0.6008  0.0243
  344MOL0     C46315   1.683   9.605   6.351  0.3570  0.4779  0.1950
  344MOL0     C46316   1.679   9.604   6.197  0.3061 -0.3706  0.4292
  344MOL0     C46317   1.781   9.699   6.128  0.1861 -0.1465 -0.1698
  344MOL0     C46318   1.770   9.672   5.973  0.1070  0.6412 -0.3772
  344MOL0     C46319   1.843   9.556   5.922 -0.6389  0.8643 -0.3745
  344MOL0     C46320   1.846   9.564   5.767 -0.7217  0.0405 -0.4015
  344MOL0     C46321   1.905   9.440   5.702 -0.9146  0.6667  0.0394
  344MOL0     N46322   1.841   9.310   5.735  0.2003 -0.0186 -0.4176
  344MOL0     C46323   1.717   9.272   5.716  0.4870 -0.3082 -0.5358
  344MOL0     C46324   1.707   9.147   5.770 -0.4141 -0.1798 -0.7483
  344MOL0     C46325   1.584   9.068   5.767 -0.5447 -0.3673 -0.4738
  344MOL0     C46326   1.522   9.052   5.632 -0.1671 -0.9996  0.9500
  344MOL0     C46327   1.426   8.940   5.639 -0.1234  0.2576 -0.0318
  344MOL0     C46328   1.365   8.922   5.502  0.0085  0.0109  0.1106
  344MOL0     O46329   1.465   8.894   5.403  0.4777  0.8470 -0.3017
  344MOL0     C46330   1.423   8.876   5.273 -0.1202  0.3632  0.3176
  344MOL0     C46331   1.288   8.863   5.239  0.8998  1.0533  0.2743
  344MOL0     C46332   1.237   8.848   5.111 -0.4590  0.2789  0.4539
  344MOL0     C46333   1.090   8.822   5.104  0.2595  0.3526  0.5036
  344MOL0     C46334   1.334   8.829   5.012  0.0704  0.5655 -0.2267
  344MOL0     C46335   1.297   8.816   4.870 -0.0539 -0.8538  0.3067
  344MOL0     O46336   1.397   8.764   4.791 -0.1617 -0.4116  0.4719
  344MOL0     C46337   1.388   8.771   4.651 -0.2105  0.4045  0.5299
  344MOL0     C46338   1.394   8.655   4.576  0.3147  0.1172 -0.4829
  344MOL0     C46339   1.389   8.662   4.441 -0.3896 -0.2921  0.3733
  344MOL0     C46340   1.393   8.791   4.373 -0.1521 -0.0557  1.3167
  344MOL0     O46341   1.374   8.787   4.244  0.7248  0.9142  0.4420
  344MOL0     C46342   1.434   8.890   4.167  0.5900 -0.0284 -0.5598
  344MOL0     C46343   1.468   8.833   4.024 -0.6431  0.4755 -1.0635
  344MOL0     C46344   1.559   8.706   4.039 -0.0842  0.0946  0.0748
  344MOL0     C46345   1.611   8.661   3.901  1.2578 -0.6321  0.2936
  344MOL0     C46346   1.658   8.510   3.888 -0.6938 -0.1338  0.1127
  344MOL0     C46347   1.772   8.471   3.978 -0.8730 -1.1909 -0.3246
  344MOL0     C46348   1.803   8.322   3.956 -0.4668  0.9811 -0.0983
  344MOL0     C46349   1.943   8.306   4.024 -0.5452  0.7617  0.2235
  344MOL0    Cl46350   1.927   8.322   4.199 -0.2128 -0.1939 -0.1435
  344MOL0     C46351   1.398   8.908   4.454 -0.6521 -0.2156 -0.2864
  344MOL0     C46352   1.393   8.895   4.587  0.2886  0.2712  0.3316
  344MOL0     O46353   1.191   8.872   4.832  0.1972 -0.2263 -0.0664
  344MOL0     C46354   1.467   8.832   5.045 -0.1264 -0.2520  0.0374
  344MOL0     C46355   1.515   8.846   5.174  0.1306 -1.9952 -0.5123
  344MOL0     N46356   1.829   9.116   5.820 -0.5999 -0.1388  0.1127
  344MOL0     N46357   1.911   9.211   5.799  0.4414  0.6483  0.2713
  344MOL0     C46358   1.506   9.851   6.742 -0.4500  0.4450 -0.5512
  344MOL0     C46359   1.417   9.949   6.801 -0.1460  0.0858  0.2352
  344MOL0     C46360   1.154  10.253   6.938  0.2417 -0.5365  0.2614
  344MOL0     C46361   1.187  10.365   7.028 -0.2821  0.4708  0.3661
  344MOL0     C46362   1.086  10.445   7.081  0.3536  0.2492 -0.3082
  344MOL0     C46363   0.951  10.432   7.025 -0.7806 -0.5849 -0.0226
  344MOL0     O46364   0.843  10.503   7.058 -0.3373 -0.6962  0.2058
  344MOL0     C46365   0.840  10.595   7.170  0.5372 -0.4995  1.0551
  344MOL0     C46366   0.750  10.708   7.134  0.1143  0.6169  0.0343
  344MOL0     C46367   0.728  10.806   7.255  0.1967 -0.3861 -0.1990
  344MOL0     C46368   0.692  10.738   7.391 -0.6507  0.3314  0.2251
  344MOL0     C46369   0.554  10.708   7.397 -0.4156 -1.3918  0.7229
  344MOL0     C46370   0.437  10.700   7.423  0.9021 -0.3661 -0.7186
  344MOL0     C46371   0.928  10.325   6.937 -0.7326  1.0346 -0.7621
  344MOL0     C46372   1.020  10.235   6.894  0.7098 -0.3078 -0.0401
  344MOL0     H46373   1.335  10.108   6.520  2.3441  0.4242 -0.4382
  344MOL0     H46374   1.461   9.950   6.412 -4.2166 -0.4871  0.4050
  344MOL0     H46375   1.518   9.736   6.348  0.4502 -1.0434 -2.4674
  344MOL0     H46376   1.675   9.813   6.357  0.0988 -2.0256 -1.9905
  344MOL0     H46377   1.788   9.613   6.382 -0.1148  1.7332  1.6049
  344MOL0     H46378   1.626   9.516   6.381 -0.8061  0.3204 -2.2259
  344MOL0     H46379   1.698   9.502   6.164  0.7526  0.2271 -1.2363
  344MOL0     H46380   1.584   9.643   6.161  1.1564  0.7216 -0.7510
  344MOL0     H46381   1.741   9.799   6.152 -1.1611 -0.8526  0.6373
  344MOL0     H46382   1.885   9.672   6.149  0.4645  0.4833 -0.7201
  344MOL0     H46383   1.666   9.669   5.939  0.0203  0.4507 -0.0915
  344MOL0     H46384   1.813   9.764   5.931  0.7437  1.6016  2.2020
  344MOL0     H46385   1.942   9.567   5.968 -1.4823  1.1960  1.4569
  344MOL0     H46386   1.815   9.458   5.961  1.2207  0.4958  0.1464
  344MOL0     H46387   1.740   9.573   5.738 -1.5413 -0.0416  2.3051
  344MOL0     H46388   1.899   9.651   5.727 -0.8556  0.2250 -0.1826
  344MOL0     H46389   2.008   9.438   5.738 -0.7920 -3.7606 -0.0430
  344MOL0     H46390   1.936   9.453   5.598  4.6036 -0.6343  1.2010
  344MOL0     H46391   1.639   9.332   5.669 -0.5268 -1.2264 -0.0753
  344MOL0     H46392   1.604   8.969   5.811  0.8181  0.2318  0.3210
  344MOL0     H46393   1.516   9.127   5.829  1.7414  1.5702  0.3486
  344MOL0     H46394   1.605   9.036   5.563 -0.6784 -0.9640  0.3218
  344MOL0     H46395   1.475   9.150   5.616  0.0307 -0.9874  0.4248
  344MOL0     H46396   1.349   8.972   5.710  0.9771  0.6574  1.0190
  344MOL0     H46397   1.468   8.849   5.683 -2.5438  0.7443  3.6824
  344MOL0     H46398   1.309   9.010   5.470  0.5832 -0.0965 -1.2709
  344MOL0     H46399   1.287   8.846   5.518 -0.3278  0.5054  0.9032
  344MOL0     H46400   1.208   8.858   5.312 -0.9666  0.8582 -1.7085
  344MOL0     H46401   1.031   8.914   5.090 -0.9655  0.0642  3.1814
  344MOL0     H46402   1.072   8.747   5.027 -0.7486 -0.5869  1.6238
  344MOL0     H46403   1.052   8.786   5.200 -1.9198  1.7504  0.2497
  344MOL0     H46404   1.386   8.555   4.618  0.2626  1.4164  2.9683
  344MOL0     H46405   1.374   8.572   4.382 -0.0265 -0.5629  0.6910
  344MOL0     H46406   1.368   8.976   4.153  0.1346 -0.8241 -4.6126
  344MOL0     H46407   1.531   8.917   4.210  1.1706 -0.2660 -1.6740
  344MOL0     H46408   1.381   8.809   3.962 -0.3348 -3.9673 -0.1397
  344MOL0     H46409   1.529   8.902   3.965  2.0338 -0.4302  0.4543
  344MOL0     H46410   1.496   8.629   4.084 -1.4701  0.7137 -0.7252
  344MOL0     H46411   1.640   8.716   4.112 -2.3861 -0.5963  2.8971
  344MOL0     H46412   1.531   8.672   3.826 -0.8689 -1.2269  2.3610
  344MOL0     H46413   1.695   8.730   3.886  2.0749 -1.3122  1.5712
  344MOL0     H46414   1.694   8.496   3.785  1.7553 -0.3311  0.9152
  344MOL0     H46415   1.576   8.445   3.920 -0.8541  0.7729  1.6315
  344MOL0     H46416   1.862   8.529   3.957 -1.7401  0.0199 -0.7791
  344MOL0     H46417   1.743   8.491   4.082  1.5335  0.1182  0.1606
  344MOL0     H46418   1.813   8.291   3.852 -1.9217 -1.6115  0.4322
  344MOL0     H46419   1.733   8.257   4.009  0.2162  1.1422  1.0480
  344MOL0     H46420   2.020   8.370   3.979  0.2467 -1.3280 -1.5498
  344MOL0     H46421   1.962   8.200   4.006 -1.6617  0.4490  0.7506
  344MOL0     H46422   1.392   9.008   4.414 -0.0033  0.0484  0.2669
  344MOL0     H46423   1.390   8.980   4.655 -1.1740 -1.1540  2.1565
  344MOL0     H46424   1.541   8.823   4.966  1.0772  1.2433  0.9353
  344MOL0     H46425   1.623   8.845   5.186  0.2544 -1.3931 -1.4633
  344MOL0     H46426   1.574   9.788   6.797 -0.0283  0.8493 -0.5974
  344MOL0     H46427   1.406   9.939   6.908 -0.5750 -2.2089  0.0289
  344MOL0     H46428   1.292  10.382   7.049 -0.7902  3.8458  0.6869
  344MOL0     H46429   1.106  10.528   7.148 -0.5136 -1.8117  2.7003
  344MOL0     H46430   0.809  10.543   7.261 -0.5115  0.4032  1.2392
  344MOL0     H46431   0.940  10.637   7.186  0.4151  0.7511 -1.1001
  344MOL0     H46432   0.650  10.677   7.106 -0.2250  0.8190  0.9766
  344MOL0     H46433   0.789  10.763   7.048 -2.1455  0.5738 -1.0846
  344MOL0     H46434   0.652  10.878   7.224  1.5382  0.5727 -1.4360
  344MOL0     H46435   0.818  10.866   7.272  0.1875 -0.0863 -1.1634
  344MOL0     H46436   0.709  10.820   7.461  1.3339 -0.7707  1.1107
  344MOL0     H46437   0.754  10.652   7.418  0.9556  0.9247 -1.3229
  344MOL0     H46438   0.330  10.697   7.430  0.6935  0.6349 -2.7828
  344MOL0     H46439   0.825  10.321   6.901 -1.2408 -0.6167  0.7424
  344MOL0     H46440   0.989  10.157   6.825 -5.4621 -1.0044  2.8029
  345MOL0     O46441   0.130   2.269   8.251  0.7387  0.4650 -0.4114
  345MOL0     C46442   0.254   2.271   8.247 -0.0541 -0.3031  0.9296
  345MOL0     O46443   0.337   2.283   8.357  0.0808 -0.2262 -0.2658
  345MOL0     C46444   0.292   2.332   8.474  0.0810 -0.4208 -0.5951
  345MOL0     C46445   0.195   2.434   8.480 -1.1844  0.5750 -0.6243
  345MOL0     C46446   0.149   2.481   8.603 -1.3029 -0.8829  0.2028
  345MOL0     C46447   0.209   2.429   8.722 -0.0403 -0.4614 -0.3352
  345MOL0     O46448   0.150   2.465   8.841 -0.0830 -0.2916  0.3571
  345MOL0     C46449   0.251   2.514   8.943 -0.8072 -0.4500 -0.0657
  345MOL0     C46450   0.182   2.574   9.053 -0.0453 -0.2198 -0.4598
  345MOL0     C46451   0.097   2.696   9.019  0.6009  0.0425 -0.1372
  345MOL0     C46452   0.131   2.799   9.137 -0.2760 -0.5325  0.7850
  345MOL0     C46453   0.043   2.926   9.141 -0.6725 -0.0740 -0.0613
  345MOL0     C46454  -0.085   2.901   9.217 -0.5082  0.2735  0.2340
  345MOL0     C46455  -0.163   3.032   9.249  0.6192  0.3859 -0.4920
  345MOL0     C46456  -0.294   3.012   9.332 -1.0078  0.2517 -0.2263
  345MOL0     N46457  -0.335   3.136   9.391 -0.7243 -1.0441  0.4416
  345MOL0     C46458  -0.379   3.152   9.520 -0.2714  0.1686 -0.5933
  345MOL0     C46459  -0.421   3.285   9.528 -0.1552 -0.1585 -0.7390
  345MOL0     C46460  -0.498   3.343   9.643 -0.0105 -0.0006  0.0166
  345MOL0     C46461  -0.637   3.268   9.667 -0.0392 -0.4765 -0.5128
  345MOL0     C46462  -0.733   3.346   9.764  0.0987 -0.9796 -0.1016
  345MOL0     C46463  -0.863   3.266   9.786 -0.8570 -0.4075 -0.2028
  345MOL0     O46464  -0.944   3.279   9.669  0.8943  0.1908  0.9998
  345MOL0     C46465  -1.074   3.230   9.660  0.1479  0.8476 -0.9558
  345MOL0     C46466  -1.131   3.140   9.755 -0.1208  1.3455  0.5560
  345MOL0     C46467  -1.248   3.076   9.724  0.8766  1.1179 -0.1186
  345MOL0     C46468  -1.303   2.978   9.827  0.6219 -0.3766 -0.5694
  345MOL0     C46469  -1.311   3.097   9.597 -0.6600  0.4881 -0.3213
  345MOL0     C46470  -1.445   3.044   9.559 -0.1071  0.4513  0.8846
  345MOL0     O46471  -1.471   3.029   9.419 -0.0507  0.1057 -0.1798
  345MOL0     C46472  -1.594   2.971   9.383 -0.0854 -0.5856  0.4933
  345MOL0     C46473  -1.610   2.833   9.378  0.2298  0.9226  0.2045
  345MOL0     C46474  -1.728   2.774   9.365 -0.7283 -0.5263  0.1811
  345MOL0     C46475  -1.849   2.847   9.344 -0.5823  0.4852 -0.1328
  345MOL0     O46476  -1.974   2.792   9.338  0.0133  0.4432 -0.7170
  345MOL0     C46477  -1.999   2.669   9.251  0.5373  0.4069  0.6288
  345MOL0     C46478  -1.978   2.701   9.097 -0.3216  0.4923 -1.0616
  345MOL0     C46479  -2.051   2.837   9.067  0.6702 -0.3551  0.3635
  345MOL0     C46480  -1.975   2.911   8.952  0.8247  0.0922 -0.3492
  345MOL0     C46481  -2.040   3.049   8.923  0.2802  0.3460 -0.2248
  345MOL0     C46482  -2.156   3.056   8.829  0.3167  0.1790  0.2858
  345MOL0     C46483  -2.154   2.965   8.698  0.5299  0.1355 -0.2556
  345MOL0     C46484  -2.038   2.984   8.600  0.5443 -0.5047  0.0690
  345MOL0    Cl46485  -2.050   3.150   8.546  0.1460 -0.4293 -0.4003
  345MOL0     C46486  -1.829   2.988   9.344  0.3030 -0.0503  0.7337
  345MOL0     C46487  -1.707   3.043   9.360  0.3539 -0.1788 -0.4034
  345MOL0     O46488  -1.530   3.037   9.647 -0.5498 -1.0602  1.0254
  345MOL0     C46489  -1.255   3.192   9.497 -0.4355  0.7545 -0.2010
  345MOL0     C46490  -1.131   3.249   9.530 -0.8363 -0.8373 -0.1673
  345MOL0     N46491  -0.393   3.345   9.410 -0.0696 -0.0415 -0.6326
  345MOL0     N46492  -0.339   3.259   9.332  0.3210  0.6109  1.3213
  345MOL0     C46493   0.305   2.342   8.719  0.0224  0.1426  0.0392
  345MOL0     C46494   0.344   2.291   8.596  0.1075  0.3006 -1.0287
  345MOL0     C46495   0.311   2.232   8.113  0.5378  0.3005 -0.7653
  345MOL0     C46496   0.429   2.158   8.109  0.3809  0.3730 -0.7768
  345MOL0     C46497   0.488   2.119   7.991  0.6574  0.4095 -0.8030
  345MOL0     C46498   0.428   2.151   7.870  0.2426  0.4494  0.0231
  345MOL0     O46499   0.475   2.130   7.740 -0.5667  0.1065  0.0916
  345MOL0     C46500   0.592   2.048   7.723 -0.0852 -0.4176 -0.7383
  345MOL0     C46501   0.561   1.902   7.723  0.1658  0.0196  0.2153
  345MOL0     C46502   0.683   1.816   7.723 -0.3422  0.3636  0.4849
  345MOL0     C46503   0.769   1.826   7.592 -0.6496  0.2695 -1.2817
  345MOL0     C46504   0.705   1.744   7.483  0.6440  0.0277 -0.5393
  345MOL0     C46505   0.644   1.688   7.401 -0.1684 -0.3626  0.0967
  345MOL0     C46506   0.306   2.227   7.879  0.4149 -0.9576  0.2573
  345MOL0     C46507   0.248   2.261   7.996  0.2404  0.3561  0.0787
  345MOL0     H46508   0.168   2.479   8.385 -0.4846 -1.8773 -2.0842
  345MOL0     H46509   0.068   2.553   8.609 -0.3078  0.4125 -1.0926
  345MOL0     H46510   0.310   2.435   8.990  1.7534  1.7495  0.6105
  345MOL0     H46511   0.323   2.587   8.904  0.6030 -1.1434  1.1591
  345MOL0     H46512   0.114   2.499   9.096  1.0871  0.0275  1.9177
  345MOL0     H46513   0.267   2.599   9.116  1.1550  1.3615 -2.5689
  345MOL0     H46514   0.135   2.738   8.925  0.3564 -3.5000 -1.9608
  345MOL0     H46515  -0.012   2.686   9.017  0.7296 -2.7395  1.4928
  345MOL0     H46516   0.134   2.754   9.237  2.1843  0.2169  1.1151
  345MOL0     H46517   0.234   2.831   9.123 -0.1099 -0.2160  2.4902
  345MOL0     H46518   0.092   3.010   9.192 -1.2845 -1.1503  2.4553
  345MOL0     H46519   0.022   2.945   9.036  1.3684  2.1973 -0.1693
  345MOL0     H46520  -0.144   2.833   9.155 -0.8104  1.0204 -0.3044
  345MOL0     H46521  -0.064   2.859   9.316  1.0743  1.9955  0.6950
  345MOL0     H46522  -0.091   3.083   9.313  3.7769 -0.5024 -3.1098
  345MOL0     H46523  -0.181   3.097   9.163  0.1742  1.9949  0.7599
  345MOL0     H46524  -0.278   2.935   9.409 -1.3793  0.9142  0.5291
  345MOL0     H46525  -0.366   2.963   9.265 -1.5640  1.3849 -0.4847
  345MOL0     H46526  -0.394   3.067   9.585  1.0527 -0.0188 -0.5013
  345MOL0     H46527  -0.437   3.334   9.734  0.8090 -2.0530 -0.6814
  345MOL0     H46528  -0.515   3.450   9.630 -0.6237 -0.0021  0.7469
  345MOL0     H46529  -0.606   3.171   9.706  0.7991 -0.6596 -1.5824
  345MOL0     H46530  -0.685   3.248   9.571  0.8571 -1.6146 -0.7497
  345MOL0     H46531  -0.752   3.443   9.717 -0.5183 -0.2084  1.6372
  345MOL0     H46532  -0.698   3.358   9.867  0.1613  1.9360 -0.3781
  345MOL0     H46533  -0.922   3.304   9.870 -0.3429 -1.0772  0.4761
  345MOL0     H46534  -0.835   3.166   9.821 -1.0873 -1.2692 -2.3385
  345MOL0     H46535  -1.099   3.107   9.852  1.1141  0.6841 -0.0631
  345MOL0     H46536  -1.391   3.022   9.877  1.6416  1.1307 -0.0253
  345MOL0     H46537  -1.326   2.881   9.783  1.2949 -0.7616 -0.0760
  345MOL0     H46538  -1.242   2.960   9.916 -2.4950  1.5918  2.2439
  345MOL0     H46539  -1.526   2.769   9.402  0.7827  0.8851 -1.6747
  345MOL0     H46540  -1.745   2.667   9.366 -2.0456 -0.3316 -0.3319
  345MOL0     H46541  -1.952   2.576   9.284  1.3525  0.2088 -0.9998
  345MOL0     H46542  -2.105   2.648   9.271  1.4003 -1.7249  3.6533
  345MOL0     H46543  -1.869   2.710   9.086  0.5122  0.2781  4.0789
  345MOL0     H46544  -2.025   2.619   9.043  1.3526 -2.1921  1.2440
  345MOL0     H46545  -2.051   2.906   9.152  1.1179 -0.9287  0.8378
  345MOL0     H46546  -2.157   2.813   9.054 -0.3232  1.1370  4.2442
  345MOL0     H46547  -1.873   2.938   8.982 -0.3349  2.7865  1.6019
  345MOL0     H46548  -1.973   2.855   8.858 -1.0781  1.5661 -1.3468
  345MOL0     H46549  -1.956   3.105   8.879  1.1013 -0.6709  0.0065
  345MOL0     H46550  -2.060   3.091   9.022  1.3057 -4.8889  2.5449
  345MOL0     H46551  -2.247   3.035   8.887  0.2097  0.3257  0.1709
  345MOL0     H46552  -2.151   3.156   8.784  2.4421 -0.1407 -0.2936
  345MOL0     H46553  -2.246   2.973   8.640  0.6367 -0.6566 -0.5567
  345MOL0     H46554  -2.150   2.861   8.733  0.4027 -0.0138 -0.6808
  345MOL0     H46555  -2.050   2.926   8.508  2.3248 -2.5794  1.0690
  345MOL0     H46556  -1.938   2.969   8.641 -0.2207  0.8237  2.6161
  345MOL0     H46557  -1.916   3.053   9.337 -0.7643 -1.4646  0.0688
  345MOL0     H46558  -1.688   3.150   9.368 -1.5705  0.5149 -3.4424
  345MOL0     H46559  -1.316   3.212   9.409 -2.0945 -3.5663 -0.2711
  345MOL0     H46560  -1.081   3.316   9.461  0.5272 -1.6610 -0.0089
  345MOL0     H46561   0.358   2.307   8.807  0.0536  2.1118  0.8535
  345MOL0     H46562   0.413   2.208   8.608  0.5448  0.9540  1.5307
  345MOL0     H46563   0.475   2.123   8.201 -2.1605 -2.3370 -0.3700
  345MOL0     H46564   0.585   2.070   7.997 -0.1912 -1.5591 -2.0123
  345MOL0     H46565   0.646   2.082   7.634  0.9588 -0.1084 -0.0052
  345MOL0     H46566   0.651   2.069   7.813  0.7344  0.9894 -1.5770
  345MOL0     H46567   0.495   1.884   7.637  0.8744 -1.8266  0.0081
  345MOL0     H46568   0.510   1.876   7.816  0.4692 -1.1226  0.0806
  345MOL0     H46569   0.636   1.717   7.720 -2.5989  1.4037 -1.6688
  345MOL0     H46570   0.745   1.824   7.813 -2.0974  0.1168  1.7765
  345MOL0     H46571   0.866   1.782   7.616  0.3387  1.4649 -2.8852
  345MOL0     H46572   0.785   1.927   7.552 -4.1470  0.6295 -2.1573
  345MOL0     H46573   0.592   1.643   7.319  0.5980  0.9591 -1.1399
  345MOL0     H46574   0.265   2.268   7.788 -2.9936  2.0844  2.8633
  345MOL0     H46575   0.154   2.314   8.009 -0.0944 -0.1742 -0.1293
  346MOL0     O46576   2.582   3.664   9.505  0.2442 -0.1440  0.3743
  346MOL0     C46577   2.494   3.618   9.581 -0.4782  0.3940 -0.9954
  346MOL0     O46578   2.362   3.656   9.587 -0.1323 -0.4354  1.1796
  346MOL0     C46579   2.317   3.762   9.508  0.4992 -0.3289  0.2964
  346MOL0     C46580   2.254   3.854   9.584  1.2942  0.3131 -0.1534
  346MOL0     C46581   2.193   3.959   9.529 -0.4648 -0.4186  0.2347
  346MOL0     C46582   2.192   3.977   9.390 -0.2868  0.0932 -0.2438
  346MOL0     O46583   2.161   4.099   9.339  0.3949  0.3141  0.4314
  346MOL0     C46584   2.029   4.144   9.376  0.2829  0.0947 -0.0087
  346MOL0     C46585   1.919   4.053   9.317 -0.2474 -0.0144 -0.1365
  346MOL0     C46586   1.876   4.088   9.182  0.5571 -0.4021 -0.6459
  346MOL0     C46587   1.952   4.025   9.066  1.1853 -0.3760  0.0970
  346MOL0     C46588   1.964   4.116   8.942  0.6613 -0.1065  0.5051
  346MOL0     C46589   2.040   4.046   8.827  0.6011 -0.7759 -0.4035
  346MOL0     C46590   2.191   4.013   8.854 -0.0237 -0.4171  0.6493
  346MOL0     C46591   2.285   4.115   8.913  0.2948 -0.5314 -0.3376
  346MOL0     N46592   2.286   4.245   8.844 -0.2757  0.3020 -0.4793
  346MOL0     C46593   2.291   4.253   8.709  0.9029 -0.0205 -0.2437
  346MOL0     C46594   2.223   4.365   8.677  0.9861  0.4888  0.1723
  346MOL0     C46595   2.200   4.417   8.534 -0.2714 -0.8581 -0.6759
  346MOL0     C46596   2.321   4.465   8.458 -0.5656  0.0506 -0.3888
  346MOL0     C46597   2.291   4.533   8.324  0.1720  0.2549  0.5563
  346MOL0     C46598   2.417   4.608   8.278 -1.2200  0.2173  0.5081
  346MOL0     O46599   2.389   4.702   8.179 -0.1806  0.9199  0.0135
  346MOL0     C46600   2.500   4.751   8.113 -0.2837  0.3402 -0.3849
  346MOL0     C46601   2.522   4.890   8.130  0.6859  0.4546  0.2381
  346MOL0     C46602   2.641   4.952   8.080 -0.1092  0.1508 -0.7185
  346MOL0     C46603   2.636   5.094   8.112  0.1279  0.2520  0.3480
  346MOL0     C46604   2.739   4.878   8.008 -0.1295  0.5018 -0.9624
  346MOL0     C46605   2.858   4.937   7.956  0.6500 -0.1794 -1.1290
  346MOL0     O46606   2.948   4.849   7.920 -0.0975 -0.2043  0.3140
  346MOL0     C46607   3.054   4.893   7.842  0.4221  0.7886  0.1920
  346MOL0     C46608   3.035   4.929   7.706  0.3035 -0.4029 -0.3303
  346MOL0     C46609   3.146   4.953   7.626  0.1891  0.2043 -0.4289
  346MOL0     C46610   3.267   4.963   7.687  0.2295 -0.7985  0.4920
  346MOL0     O46611   3.360   5.007   7.597  1.1969 -0.3438 -0.1002
  346MOL0     C46612   3.487   4.942   7.601 -0.2432  0.2392  0.2732
  346MOL0     C46613   3.562   4.990   7.474 -0.1494  0.1468  0.3846
  346MOL0     C46614   3.594   5.139   7.459  0.2822 -0.5720  0.1919
  346MOL0     C46615   3.706   5.153   7.356  0.0824  1.0529 -0.4271
  346MOL0     C46616   3.842   5.148   7.427 -0.5132 -0.6353 -0.4467
  346MOL0     C46617   3.953   5.179   7.326 -0.0150  0.0218  0.2669
  346MOL0     C46618   4.087   5.166   7.392  0.3476  0.6914 -0.6658
  346MOL0     C46619   4.192   5.156   7.280 -0.0279 -0.9835  0.0550
  346MOL0    Cl46620   4.207   5.000   7.214 -0.4207  0.4839  0.1896
  346MOL0     C46621   3.284   4.937   7.824  0.7817  0.1855  0.0451
  346MOL0     C46622   3.173   4.899   7.896  0.6451 -0.4592 -0.1772
  346MOL0     O46623   2.867   5.058   7.941 -0.1021 -0.6021  0.1307
  346MOL0     C46624   2.714   4.740   7.993  0.0288  0.4974  0.5153
  346MOL0     C46625   2.595   4.684   8.045  0.0936  0.2102 -0.0680
  346MOL0     N46626   2.200   4.430   8.798  0.7270  0.4776 -0.9763
  346MOL0     N46627   2.238   4.356   8.897 -0.6915  0.4150 -0.0720
  346MOL0     C46628   2.276   3.891   9.316 -0.2305  0.3612  0.0240
  346MOL0     C46629   2.333   3.779   9.376 -0.2221 -0.5580 -1.2542
  346MOL0     C46630   2.537   3.513   9.675 -0.1354  0.5444 -0.6456
  346MOL0     C46631   2.451   3.451   9.774 -0.7867  0.6907 -0.2614
  346MOL0     C46632   2.497   3.368   9.880  0.7547  0.2013 -0.3863
  346MOL0     C46633   2.626   3.337   9.891  0.1068  0.3352  0.6745
  346MOL0     O46634   2.667   3.266  10.004 -0.3975 -0.8059  0.5070
  346MOL0     C46635   2.720   3.353  10.102  0.2795  0.3841  0.2636
  346MOL0     C46636   2.757   3.259  10.218  0.7091 -0.1542  0.2272
  346MOL0     C46637   2.628   3.217  10.286  0.1819  0.0666 -0.2230
  346MOL0     C46638   2.644   3.069  10.346  0.1627 -1.4059  0.0674
  346MOL0     C46639   2.560   3.035  10.459 -0.1129 -0.3717 -0.0009
  346MOL0     C46640   2.485   3.021  10.553  0.7058 -1.2048  0.3379
  346MOL0     C46641   2.719   3.399   9.807  0.6342 -1.0146  0.7935
  346MOL0     C46642   2.676   3.486   9.691 -0.0653 -0.1647 -0.0325
  346MOL0     H46643   2.261   3.833   9.690  0.3740  1.7297  0.2284
  346MOL0     H46644   2.146   4.031   9.596 -2.2370  0.6764 -2.0309
  346MOL0     H46645   2.023   4.148   9.485  0.7917 -0.7289  0.0583
  346MOL0     H46646   2.030   4.246   9.337 -1.1956  0.3954  0.6812
  346MOL0     H46647   1.954   3.950   9.309  1.8511  0.7244 -1.2744
  346MOL0     H46648   1.833   4.060   9.384 -0.4988 -0.5251 -0.4041
  346MOL0     H46649   1.767   4.079   9.180  0.0770  2.1720  3.4098
  346MOL0     H46650   1.887   4.196   9.176 -0.1560 -0.3488 -1.0266
  346MOL0     H46651   2.057   4.001   9.084  1.9060  0.6616 -2.2740
  346MOL0     H46652   1.903   3.932   9.036 -0.9800  1.1892 -1.5432
  346MOL0     H46653   1.866   4.136   8.898 -0.7461 -3.6234  1.7039
  346MOL0     H46654   2.019   4.208   8.967  1.3802 -0.3269 -0.2235
  346MOL0     H46655   1.992   3.948   8.815 -0.9179 -0.2892  1.3324
  346MOL0     H46656   2.026   4.114   8.743  1.4375  0.7814  0.6812
  346MOL0     H46657   2.177   3.930   8.924  0.5542 -0.7457  0.3796
  346MOL0     H46658   2.238   3.975   8.763 -2.4594  2.2612 -1.9338
  346MOL0     H46659   2.387   4.076   8.915  0.0736 -1.2728 -1.9765
  346MOL0     H46660   2.251   4.129   9.016 -0.1642  0.9397 -0.6607
  346MOL0     H46661   2.325   4.183   8.634 -3.5490 -1.2382 -1.4040
  346MOL0     H46662   2.148   4.334   8.486 -1.3162 -1.4809  1.3994
  346MOL0     H46663   2.132   4.503   8.538  2.1403  1.2838 -2.7723
  346MOL0     H46664   2.396   4.387   8.440  0.2199  1.0399 -1.6197
  346MOL0     H46665   2.374   4.539   8.520 -2.9930  0.8919  0.7931
  346MOL0     H46666   2.211   4.607   8.327 -1.5646 -1.4416 -1.1307
  346MOL0     H46667   2.261   4.451   8.258 -0.2450 -0.7896  2.0007
  346MOL0     H46668   2.492   4.538   8.240  0.5490  2.6202 -0.6416
  346MOL0     H46669   2.472   4.658   8.358 -1.3021 -2.6869  2.5176
  346MOL0     H46670   2.441   4.947   8.174  1.3522  1.9808 -0.4495
  346MOL0     H46671   2.572   5.150   8.043 -2.8738 -1.5668  1.4626
  346MOL0     H46672   2.586   5.108   8.208 -1.0935 -0.9972 -0.0646
  346MOL0     H46673   2.738   5.132   8.107  0.3457 -0.4816 -1.7275
  346MOL0     H46674   2.943   4.903   7.655 -0.0649 -1.2567  0.7342
  346MOL0     H46675   3.127   4.978   7.522  1.3136  0.0443 -0.6803
  346MOL0     H46676   3.539   4.964   7.695 -0.2383  4.7478 -0.5521
  346MOL0     H46677   3.475   4.833   7.598  0.3634  0.1892 -0.3866
  346MOL0     H46678   3.652   4.929   7.461  0.3177  0.9117  0.0020
  346MOL0     H46679   3.483   4.962   7.403 -0.4321 -0.5934  0.9678
  346MOL0     H46680   3.629   5.188   7.550  0.2350  0.6829 -0.4516
  346MOL0     H46681   3.500   5.173   7.416 -0.6372 -2.4198  0.6351
  346MOL0     H46682   3.693   5.067   7.290 -0.0436  1.1692 -0.5532
  346MOL0     H46683   3.704   5.238   7.287 -1.4212  0.1430 -1.5760
  346MOL0     H46684   3.859   5.050   7.473  1.3877 -0.4103 -0.6129
  346MOL0     H46685   3.858   5.224   7.504  3.9403 -0.6546 -1.1101
  346MOL0     H46686   3.938   5.119   7.236 -1.7435 -1.2699  1.3498
  346MOL0     H46687   3.934   5.284   7.303 -1.2274 -0.7108 -2.5036
  346MOL0     H46688   4.081   5.084   7.464 -0.9828  1.8389  0.6097
  346MOL0     H46689   4.110   5.254   7.454 -1.1110  0.3260  0.4751
  346MOL0     H46690   4.286   5.187   7.326  0.3994  1.0116 -1.9488
  346MOL0     H46691   4.165   5.227   7.201 -1.2980 -0.5789  0.8193
  346MOL0     H46692   3.382   4.926   7.870  0.3643  0.3663  1.0099
  346MOL0     H46693   3.201   4.868   7.997  0.7468  0.5619  0.1202
  346MOL0     H46694   2.786   4.673   7.946  0.5352  2.0147 -0.9924
  346MOL0     H46695   2.592   4.576   8.035  4.3913  0.1060 -2.2760
  346MOL0     H46696   2.295   3.915   9.212  0.9005  0.3183  0.2009
  346MOL0     H46697   2.395   3.709   9.321  0.5548  0.6780 -1.9729
  346MOL0     H46698   2.345   3.474   9.781 -0.5078  2.0001  0.0387
  346MOL0     H46699   2.431   3.328   9.956  1.7338 -4.5637 -1.6881
  346MOL0     H46700   2.808   3.396  10.051  0.7211 -1.3645 -0.5199
  346MOL0     H46701   2.651   3.432  10.134 -1.5838 -0.3945 -1.6120
  346MOL0     H46702   2.831   3.295  10.290  0.2585  0.6939  0.2712
  346MOL0     H46703   2.806   3.171  10.174  0.2387  1.3614 -3.7061
  346MOL0     H46704   2.551   3.212  10.209 -0.9962  0.4260  0.8982
  346MOL0     H46705   2.607   3.284  10.370  2.4409 -2.5925  2.7195
  346MOL0     H46706   2.747   3.053  10.380  0.7907  0.2495 -0.9403
  346MOL0     H46707   2.620   3.007  10.259  0.3385 -3.4273  1.3964
  346MOL0     H46708   2.422   3.014  10.639  0.0175  2.1169  0.2383
  346MOL0     H46709   2.823   3.370   9.817  1.4556 -1.0319 -4.5349
  346MOL0     H46710   2.751   3.524   9.623 -0.1838  1.1126  0.5280
  347MOL0     O46711   0.261   1.452   4.550  0.6019 -0.2597  0.8077
  347MOL0     C46712   0.301   1.444   4.665  1.2960  0.4421  0.3931
  347MOL0     O46713   0.213   1.431   4.774 -1.1482 -0.7651 -0.0369
  347MOL0     C46714   0.082   1.395   4.755 -0.5591  0.4766 -0.7955
  347MOL0     C46715  -0.012   1.472   4.683 -0.7400 -0.6568  0.2630
  347MOL0     C46716  -0.141   1.425   4.661 -0.3422 -0.3034 -0.6897
  347MOL0     C46717  -0.182   1.298   4.711 -0.6500 -0.4823  0.2993
  347MOL0     O46718  -0.311   1.251   4.685 -0.3450 -0.1205 -0.6177
  347MOL0     C46719  -0.322   1.110   4.681 -0.0678 -0.0220 -0.8966
  347MOL0     C46720  -0.237   1.055   4.565  0.4726 -0.5242  0.4289
  347MOL0     C46721  -0.260   1.122   4.435  0.3757 -0.5836 -0.8076
  347MOL0     C46722  -0.172   1.053   4.333 -0.0476 -0.0347 -0.3428
  347MOL0     C46723  -0.058   1.153   4.305 -0.7871 -0.0224 -0.7828
  347MOL0     C46724   0.061   1.067   4.262  1.2401 -0.1740  0.1223
  347MOL0     C46725   0.177   1.165   4.254 -0.6167  1.3750  0.6242
  347MOL0     C46726   0.308   1.086   4.218  0.0820 -0.0765 -1.8859
  347MOL0     N46727   0.417   1.175   4.173  0.0144  0.0355 -0.3917
  347MOL0     C46728   0.411   1.224   4.051 -1.0475  0.2720  0.4477
  347MOL0     C46729   0.508   1.322   4.052  0.3382  0.5747 -0.3699
  347MOL0     C46730   0.544   1.404   3.937 -0.4100 -0.1524  0.0744
  347MOL0     C46731   0.621   1.317   3.832 -1.0142  0.4255  0.3761
  347MOL0     C46732   0.654   1.390   3.698  0.8767  0.2323 -0.0314
  347MOL0     C46733   0.539   1.408   3.603  0.0975  0.4547  0.0113
  347MOL0     O46734   0.512   1.281   3.542  0.0409 -0.3563 -0.2015
  347MOL0     C46735   0.411   1.273   3.454  0.0122  0.0714 -1.0147
  347MOL0     C46736   0.422   1.189   3.341 -0.3455 -0.2682 -0.0254
  347MOL0     C46737   0.316   1.169   3.250  0.3973  0.7586 -0.6506
  347MOL0     C46738   0.333   1.051   3.161 -0.6662 -0.1002  0.4177
  347MOL0     C46739   0.192   1.234   3.265 -0.1126  0.3980 -0.6246
  347MOL0     C46740   0.071   1.220   3.172  0.4388 -0.6333 -0.5074
  347MOL0     O46741   0.093   1.151   3.057  0.3068  1.3495  0.6506
  347MOL0     C46742  -0.010   1.163   2.974 -0.0717  0.6429  0.0427
  347MOL0     C46743  -0.018   1.265   2.879 -0.3136  0.3462  0.6528
  347MOL0     C46744  -0.111   1.266   2.775  0.0362 -1.0105 -0.6253
  347MOL0     C46745  -0.217   1.173   2.761  0.9505  0.3393 -1.0549
  347MOL0     O46746  -0.305   1.196   2.659  1.1572  0.4970 -0.3320
  347MOL0     C46747  -0.415   1.110   2.642 -0.3805 -0.3368 -1.0433
  347MOL0     C46748  -0.358   0.987   2.567 -0.3982  0.3293  0.0076
  347MOL0     C46749  -0.472   0.889   2.535  1.0070 -0.1683 -0.3137
  347MOL0     C46750  -0.597   0.955   2.467 -0.5732  0.3387  0.0422
  347MOL0     C46751  -0.698   0.841   2.443 -1.3435 -0.4513  0.4716
  347MOL0     C46752  -0.806   0.893   2.358 -0.6376 -0.8557  0.3665
  347MOL0     C46753  -0.892   0.785   2.312 -0.5036 -1.0340  0.1097
  347MOL0     C46754  -1.014   0.842   2.235 -0.3647  0.7184 -0.3286
  347MOL0    Cl46755  -1.122   0.930   2.348 -0.1654 -0.0881 -0.2403
  347MOL0     C46756  -0.203   1.061   2.854 -0.0869  0.2123  0.4890
  347MOL0     C46757  -0.096   1.053   2.953  1.0330 -0.3128  0.3999
  347MOL0     O46758  -0.038   1.266   3.207 -0.2143  1.0355 -0.3104
  347MOL0     C46759   0.179   1.321   3.384  0.2082 -0.4140  0.5920
  347MOL0     C46760   0.284   1.333   3.478  0.0962  0.5142 -0.8994
  347MOL0     N46761   0.557   1.340   4.179  0.1845 -0.5931 -0.0177
  347MOL0     N46762   0.497   1.255   4.259 -0.1326 -0.2222  0.0588
  347MOL0     C46763  -0.087   1.230   4.791 -0.2027 -0.2500  0.0553
  347MOL0     C46764   0.043   1.278   4.808 -0.1253 -0.0357  0.0763
  347MOL0     C46765   0.441   1.429   4.688 -0.0353  0.6480 -0.5615
  347MOL0     C46766   0.532   1.409   4.586 -0.4418 -0.3303 -0.1682
  347MOL0     C46767   0.671   1.401   4.604 -0.4561 -0.1191  0.4844
  347MOL0     C46768   0.733   1.416   4.731  0.7305  0.2211 -0.6387
  347MOL0     O46769   0.863   1.422   4.759 -0.3947  0.5576 -0.3164
  347MOL0     C46770   0.942   1.484   4.656  0.8903 -0.3336  0.4599
  347MOL0     C46771   1.059   1.550   4.729 -0.9197  0.0877 -0.6467
  347MOL0     C46772   1.140   1.439   4.803  0.9112 -0.3363  0.7394
  347MOL0     C46773   1.270   1.482   4.860  0.0328 -0.1476  0.8089
  347MOL0     C46774   1.377   1.514   4.760 -0.2018  0.0468  0.4439
  347MOL0     C46775   1.458   1.542   4.669  0.2094  0.1523 -1.0183
  347MOL0     C46776   0.639   1.444   4.836  0.1999 -1.0387  0.1342
  347MOL0     C46777   0.498   1.447   4.812  0.1217 -0.1283 -0.0095
  347MOL0     H46778   0.012   1.573   4.652  1.9003 -0.4608  2.5618
  347MOL0     H46779  -0.195   1.489   4.592  1.8663 -0.1007 -2.3523
  347MOL0     H46780  -0.307   1.057   4.775 -0.4505 -1.8904 -1.8443
  347MOL0     H46781  -0.424   1.079   4.660  0.1698 -1.3584 -0.1619
  347MOL0     H46782  -0.131   1.038   4.586  0.2322 -1.3309  1.0342
  347MOL0     H46783  -0.273   0.955   4.541  2.4932 -1.0883 -0.4913
  347MOL0     H46784  -0.365   1.109   4.408 -0.4229  2.5607  0.3236
  347MOL0     H46785  -0.241   1.230   4.435 -0.6776 -0.3602  0.8659
  347MOL0     H46786  -0.127   0.963   4.377  0.0756 -0.7594 -1.9061
  347MOL0     H46787  -0.212   1.016   4.239 -0.2302 -0.6958 -0.0107
  347MOL0     H46788  -0.081   1.224   4.225  0.8731  0.1774 -1.1230
  347MOL0     H46789  -0.038   1.210   4.396 -2.6652 -3.1614  1.8312
  347MOL0     H46790   0.084   0.973   4.314  1.9439 -0.2319 -0.2968
  347MOL0     H46791   0.034   1.039   4.160 -0.3139  2.4579 -0.2929
  347MOL0     H46792   0.163   1.221   4.161 -0.3433 -0.0238 -0.2957
  347MOL0     H46793   0.187   1.227   4.344 -0.3493 -0.7384  2.1472
  347MOL0     H46794   0.285   0.998   4.156  2.8584 -2.4868  0.2559
  347MOL0     H46795   0.346   1.030   4.303  1.1526  1.0120 -1.6171
  347MOL0     H46796   0.361   1.186   3.962  0.5334  1.7033 -1.1176
  347MOL0     H46797   0.464   1.467   3.895  1.7240  1.5192 -1.7009
  347MOL0     H46798   0.614   1.477   3.976  2.6357 -3.2920  0.9965
  347MOL0     H46799   0.582   1.218   3.804  3.4685 -1.0110 -1.7446
  347MOL0     H46800   0.711   1.278   3.881 -2.7880 -5.0337  0.0114
  347MOL0     H46801   0.719   1.329   3.634  0.9249 -4.6852  4.0743
  347MOL0     H46802   0.710   1.482   3.716  1.2342  0.0089  0.0197
  347MOL0     H46803   0.569   1.489   3.535  1.7540 -1.8265 -2.1942
  347MOL0     H46804   0.461   1.451   3.666  0.6934 -2.3323  2.9225
  347MOL0     H46805   0.512   1.134   3.315 -1.6431 -2.2488 -0.5268
  347MOL0     H46806   0.343   1.077   3.055  0.3041 -0.6761  0.3503
  347MOL0     H46807   0.421   0.987   3.176 -0.5179 -0.4262 -1.5067
  347MOL0     H46808   0.248   0.984   3.177 -0.9674 -0.0419 -0.7874
  347MOL0     H46809   0.046   1.350   2.902  3.1405 -1.7043 -0.6623
  347MOL0     H46810  -0.102   1.344   2.700 -0.4052  0.1335  0.4787
  347MOL0     H46811  -0.464   1.072   2.732 -2.0315 -1.3538 -2.3061
  347MOL0     H46812  -0.490   1.154   2.576 -1.7722 -0.4455  0.3874
  347MOL0     H46813  -0.313   1.026   2.475  0.7380 -1.9769 -0.4766
  347MOL0     H46814  -0.285   0.926   2.620 -0.1590  0.2447 -0.4144
  347MOL0     H46815  -0.493   0.836   2.629 -0.1363 -0.6071 -0.8002
  347MOL0     H46816  -0.436   0.817   2.462 -2.2499 -0.3997 -1.8791
  347MOL0     H46817  -0.646   1.038   2.518 -2.9199 -1.0277  0.1488
  347MOL0     H46818  -0.554   0.991   2.373  1.7591  0.1409  0.9618
  347MOL0     H46819  -0.741   0.810   2.538  1.4927  1.4644  2.5558
  347MOL0     H46820  -0.644   0.755   2.401 -0.5662  0.5170 -0.5654
  347MOL0     H46821  -0.868   0.967   2.408 -0.8388 -0.5435 -0.3372
  347MOL0     H46822  -0.751   0.939   2.275  2.7275  1.3108  3.4717
  347MOL0     H46823  -0.928   0.730   2.399  0.4526 -0.2066  1.0477
  347MOL0     H46824  -0.844   0.707   2.252 -2.1216  0.0568 -2.8150
  347MOL0     H46825  -1.068   0.753   2.200  1.4066 -1.3890  1.9245
  347MOL0     H46826  -0.989   0.900   2.146 -2.5145 -0.1037 -1.5242
  347MOL0     H46827  -0.267   0.974   2.850  1.2595 -0.7486 -1.9517
  347MOL0     H46828  -0.090   0.969   3.021 -1.3770 -1.7125 -0.9843
  347MOL0     H46829   0.080   1.361   3.404  0.7762  1.4560 -0.1175
  347MOL0     H46830   0.279   1.395   3.567  3.1056  0.4957 -0.6057
  347MOL0     H46831  -0.110   1.134   4.836  0.4974 -0.8005 -0.7304
  347MOL0     H46832   0.127   1.238   4.865  0.6793  1.0795 -0.2938
  347MOL0     H46833   0.497   1.393   4.484 -0.4235  3.3353 -0.8874
  347MOL0     H46834   0.726   1.368   4.517  0.0476  1.4215  0.2009
  347MOL0     H46835   0.982   1.404   4.593 -0.0505 -1.2143  0.9581
  347MOL0     H46836   0.883   1.558   4.601  2.3030  0.8207  0.4022
  347MOL0     H46837   1.026   1.626   4.801  0.8109  1.5622 -1.3333
  347MOL0     H46838   1.127   1.603   4.662  1.5052 -1.4655  0.4624
  347MOL0     H46839   1.166   1.353   4.742  0.1920  0.0198 -0.0785
  347MOL0     H46840   1.076   1.399   4.882  1.0948 -0.4623  0.8255
  347MOL0     H46841   1.294   1.393   4.919  2.2709 -0.3019 -0.2172
  347MOL0     H46842   1.260   1.573   4.920  2.7994  1.3475 -0.7837
  347MOL0     H46843   1.536   1.567   4.600  0.5692 -0.9934 -1.0506
  347MOL0     H46844   0.684   1.465   4.932 -0.9925  0.5208  0.3886
  347MOL0     H46845   0.436   1.477   4.896  2.7433  1.6278  1.4287
  348MOL0     O46846   3.888   3.015   4.524  0.6758 -0.2336  0.3470
  348MOL0     C46847   3.820   2.986   4.424  0.0058 -0.4896 -0.4388
  348MOL0     O46848   3.769   2.865   4.397 -0.6761  0.8056 -0.1740
  348MOL0     C46849   3.824   2.751   4.457  0.8111 -0.2215  0.6007
  348MOL0     C46850   3.944   2.739   4.522  0.1485  0.3968 -0.2046
  348MOL0     C46851   3.970   2.609   4.571  0.1771  0.1118 -0.3966
  348MOL0     C46852   3.883   2.502   4.563 -0.1648  1.1243  0.4257
  348MOL0     O46853   3.934   2.382   4.607  0.1364 -0.9823  0.3342
  348MOL0     C46854   3.853   2.267   4.590  0.0754  0.3322 -0.2860
  348MOL0     C46855   3.903   2.199   4.458 -0.0741 -0.1641 -0.1583
  348MOL0     C46856   3.828   2.075   4.428  0.6446 -0.1577  0.8131
  348MOL0     C46857   3.679   2.091   4.386  0.6109  0.6784  0.0130
  348MOL0     C46858   3.609   1.957   4.372  0.4046 -0.3206  0.4091
  348MOL0     C46859   3.579   1.900   4.516 -0.5434  0.2536 -0.3471
  348MOL0     C46860   3.498   1.768   4.508 -0.0121  0.0551  0.0509
  348MOL0     C46861   3.543   1.671   4.398 -0.3828 -0.1784 -0.3549
  348MOL0     N46862   3.434   1.571   4.394 -0.5654 -0.0667 -0.1412
  348MOL0     C46863   3.361   1.514   4.501 -0.4934 -1.6588 -0.0406
  348MOL0     C46864   3.251   1.462   4.433 -0.6515 -0.6849 -0.2327
  348MOL0     C46865   3.129   1.437   4.510 -0.1705 -0.2309 -0.4608
  348MOL0     C46866   3.063   1.579   4.552 -0.7246  0.6190 -0.3188
  348MOL0     C46867   2.944   1.567   4.644  0.1112 -0.4286  0.1656
  348MOL0     C46868   2.887   1.697   4.686  0.2698  0.0331  0.2584
  348MOL0     O46869   2.768   1.685   4.758  0.0151 -0.4413  0.1991
  348MOL0     C46870   2.717   1.797   4.815  0.3986 -0.0374 -1.2791
  348MOL0     C46871   2.664   1.783   4.945  0.6564  0.5933  0.5382
  348MOL0     C46872   2.576   1.875   4.997  0.9638  0.4862 -0.5277
  348MOL0     C46873   2.502   1.839   5.122 -0.2440 -0.1344  0.1046
  348MOL0     C46874   2.549   1.998   4.931 -0.2649 -0.8694  0.7115
  348MOL0     C46875   2.459   2.105   4.983 -0.1412  0.3804  0.3720
  348MOL0     O46876   2.482   2.245   4.951  0.5251 -0.0013 -0.5577
  348MOL0     C46877   2.367   2.317   4.988  0.2830  0.4946  0.2514
  348MOL0     C46878   2.387   2.400   5.102 -0.2322 -0.6030  0.2958
  348MOL0     C46879   2.288   2.494   5.137 -0.3870 -0.2402  0.3870
  348MOL0     C46880   2.170   2.494   5.062 -0.3423 -0.0637  0.4226
  348MOL0     O46881   2.087   2.595   5.092  0.1739 -0.3624  0.9434
  348MOL0     C46882   2.056   2.674   4.983  0.5689 -1.0921 -0.3536
  348MOL0     C46883   1.978   2.805   5.027 -0.8389 -0.9836  0.7319
  348MOL0     C46884   1.947   2.889   4.902  0.1892 -0.4425  0.4237
  348MOL0     C46885   1.883   3.023   4.958 -1.0789  0.3376 -0.2370
  348MOL0     C46886   1.804   3.111   4.868  0.3976  0.4568  0.3365
  348MOL0     C46887   1.856   3.105   4.727  0.2259  0.1402  0.8327
  348MOL0     C46888   1.787   3.219   4.647 -0.4989  0.6291  0.2323
  348MOL0     C46889   1.865   3.264   4.519  0.1622  0.4666 -1.0645
  348MOL0    Cl46890   1.929   3.113   4.440  0.0429 -0.2992 -0.0551
  348MOL0     C46891   2.154   2.407   4.953 -0.5045  0.3886  0.1550
  348MOL0     C46892   2.250   2.319   4.919 -0.5527  0.4897  0.0500
  348MOL0     O46893   2.361   2.063   5.036  1.0230 -0.5669 -0.8287
  348MOL0     C46894   2.630   2.024   4.811  0.9882  0.7857  0.0562
  348MOL0     C46895   2.706   1.924   4.756 -1.3080 -0.4027  0.2859
  348MOL0     N46896   3.268   1.477   4.300  0.5954  1.2912  0.9593
  348MOL0     N46897   3.373   1.546   4.276  0.8601  0.5036 -0.2551
  348MOL0     C46898   3.767   2.517   4.490 -0.3864 -0.2954  1.1769
  348MOL0     C46899   3.734   2.643   4.452 -0.1634 -0.7515  0.0783
  348MOL0     C46900   3.773   3.100   4.342 -0.6986  0.7506  0.0948
  348MOL0     C46901   3.687   3.070   4.240  0.0779  0.3122  1.1476
  348MOL0     C46902   3.637   3.174   4.159 -0.2583  0.1636 -0.7459
  348MOL0     C46903   3.658   3.312   4.190  0.4921  0.4451  0.0519
  348MOL0     O46904   3.611   3.419   4.118 -0.8161 -0.1194 -0.5914
  348MOL0     C46905   3.518   3.393   4.010 -0.2400 -0.9879  0.9249
  348MOL0     C46906   3.464   3.527   3.949  0.6061  0.9491  0.7840
  348MOL0     C46907   3.566   3.632   3.924 -0.1952 -0.4846 -0.2265
  348MOL0     C46908   3.507   3.754   3.847  0.8782 -0.0503 -0.4091
  348MOL0     C46909   3.589   3.874   3.863 -0.4044 -0.0682 -0.2350
  348MOL0     C46910   3.675   3.962   3.876  0.7465  0.5565  0.1127
  348MOL0     C46911   3.744   3.336   4.298 -0.7213 -0.2065  0.2295
  348MOL0     C46912   3.805   3.230   4.370 -0.5464  0.8510 -0.5557
  348MOL0     H46913   4.019   2.814   4.548  0.3439  0.7717 -1.7570
  348MOL0     H46914   4.063   2.604   4.627  0.3570  3.8320 -0.0930
  348MOL0     H46915   3.873   2.205   4.678  5.2258  0.2803 -1.2021
  348MOL0     H46916   3.747   2.294   4.597 -0.0679 -0.3811  0.5041
  348MOL0     H46917   3.885   2.268   4.376 -3.3937 -3.1895 -2.2260
  348MOL0     H46918   4.009   2.173   4.470 -0.3032 -0.9222  0.3551
  348MOL0     H46919   3.885   2.020   4.353  0.5805 -0.0508  0.6846
  348MOL0     H46920   3.816   2.026   4.525  0.3952  2.7915  2.3877
  348MOL0     H46921   3.628   2.155   4.459 -1.9788  2.0142 -2.7270
  348MOL0     H46922   3.666   2.135   4.286 -1.0013 -1.3199 -0.7221
  348MOL0     H46923   3.519   1.962   4.311  0.8704 -1.8630 -0.4519
  348MOL0     H46924   3.677   1.892   4.317  0.3541 -1.1898  1.3403
  348MOL0     H46925   3.674   1.872   4.563  0.1693  1.6141 -0.9241
  348MOL0     H46926   3.521   1.967   4.579 -0.4833 -0.9627  1.0682
  348MOL0     H46927   3.496   1.728   4.609 -4.0779  1.5956  0.7562
  348MOL0     H46928   3.395   1.793   4.481  0.2236  1.5014  0.4073
  348MOL0     H46929   3.641   1.630   4.427  0.4783  2.7305  1.2127
  348MOL0     H46930   3.554   1.706   4.296  2.2004 -1.9522 -0.7855
  348MOL0     H46931   3.368   1.531   4.608 -0.7770 -0.2818 -0.2137
  348MOL0     H46932   3.056   1.382   4.448  0.1501 -2.2537  0.8766
  348MOL0     H46933   3.140   1.373   4.597  0.1400  0.6866  0.1821
  348MOL0     H46934   3.044   1.639   4.462 -1.1763  1.1157  0.0983
  348MOL0     H46935   3.147   1.628   4.603  0.4118 -1.2839 -0.2748
  348MOL0     H46936   2.965   1.508   4.734 -0.2812  0.6783  1.0116
  348MOL0     H46937   2.874   1.510   4.583  1.1016 -3.5607  1.7331
  348MOL0     H46938   2.860   1.753   4.597 -6.0545 -2.7290 -0.0904
  348MOL0     H46939   2.966   1.756   4.735 -0.7440  1.1702  0.5592
  348MOL0     H46940   2.669   1.683   4.987 -0.7582 -0.3907 -1.4571
  348MOL0     H46941   2.402   1.801   5.098  0.5990 -2.3796 -0.0502
  348MOL0     H46942   2.568   1.770   5.176  1.5208 -1.0820 -3.0384
  348MOL0     H46943   2.493   1.927   5.187  0.4421  0.7355 -0.9423
  348MOL0     H46944   2.484   2.395   5.150  0.4606 -1.3804 -1.1311
  348MOL0     H46945   2.307   2.569   5.213 -0.3539 -1.1898  1.3552
  348MOL0     H46946   2.145   2.716   4.936 -1.1599  1.3320 -1.7287
  348MOL0     H46947   1.985   2.637   4.909 -0.7807  0.2853  0.1859
  348MOL0     H46948   1.886   2.757   5.061 -0.8064 -1.8680 -0.3866
  348MOL0     H46949   2.030   2.867   5.101 -1.9565  2.1339 -0.9012
  348MOL0     H46950   1.868   2.844   4.841  0.0384 -1.4735  1.3519
  348MOL0     H46951   2.035   2.916   4.843  0.8419 -0.2842  1.4406
  348MOL0     H46952   1.829   3.008   5.052 -2.5150  2.9799 -0.5667
  348MOL0     H46953   1.975   3.078   4.980 -2.0883  2.4039 -0.9253
  348MOL0     H46954   1.806   3.214   4.907 -1.4213  1.1846 -1.3472
  348MOL0     H46955   1.702   3.081   4.890  0.9676  0.6631  3.8643
  348MOL0     H46956   1.965   3.109   4.725  0.2033  0.5743 -0.5037
  348MOL0     H46957   1.838   3.005   4.686  2.6419 -0.9014  2.1221
  348MOL0     H46958   1.789   3.310   4.708  2.9285  0.9059 -0.0505
  348MOL0     H46959   1.682   3.197   4.626 -0.1558 -1.7119  0.6963
  348MOL0     H46960   1.944   3.321   4.570 -0.5666  0.8564 -0.3393
  348MOL0     H46961   1.802   3.326   4.455 -1.6411  0.3007  0.4636
  348MOL0     H46962   2.064   2.414   4.892 -1.9743 -0.6582  2.1084
  348MOL0     H46963   2.248   2.247   4.839 -1.7112  0.7707 -0.1954
  348MOL0     H46964   2.617   2.115   4.753  1.5102  0.9844  0.2451
  348MOL0     H46965   2.760   1.944   4.664 -1.3749 -0.2014  0.2885
  348MOL0     H46966   3.699   2.438   4.460 -1.2857  0.0748  2.1525
  348MOL0     H46967   3.636   2.666   4.413  0.7552 -0.0021 -1.9558
  348MOL0     H46968   3.652   2.973   4.207 -0.5098  2.1973 -4.9741
  348MOL0     H46969   3.576   3.140   4.076 -2.3115 -4.3822  2.1845
  348MOL0     H46970   3.562   3.331   3.931  1.7126  1.3965  0.0064
  348MOL0     H46971   3.439   3.324   4.042 -1.2940 -0.1294  0.2187
  348MOL0     H46972   3.389   3.573   4.014 -1.0061  1.3662 -1.2732
  348MOL0     H46973   3.419   3.495   3.855  3.0745  1.8598 -0.8054
  348MOL0     H46974   3.652   3.594   3.870  2.9286  1.6442  2.8130
  348MOL0     H46975   3.600   3.658   4.025 -1.2302 -2.7744  0.7932
  348MOL0     H46976   3.409   3.782   3.885  1.1182 -0.4200  0.5172
  348MOL0     H46977   3.494   3.714   3.746  0.1045 -1.8612  0.3727
  348MOL0     H46978   3.752   4.036   3.884  0.6461  0.8807 -1.6318
  348MOL0     H46979   3.756   3.440   4.327 -0.3819 -0.2897  0.3971
  348MOL0     H46980   3.864   3.255   4.457  2.6955  1.8804 -2.8184
  349MOL0     O46981   7.787   1.858   6.086 -0.4335  0.0122  0.2367
  349MOL0     C46982   7.855   1.888   5.985 -0.1626  0.5974  0.3933
  349MOL0     O46983   7.795   1.920   5.863  0.0673 -0.2787  0.2169
  349MOL0     C46984   7.658   1.910   5.862 -0.5942  1.6990  0.5239
  349MOL0     C46985   7.580   2.017   5.902  0.4183 -0.6508  0.2552
  349MOL0     C46986   7.440   2.009   5.890  0.7241  0.6517 -0.3364
  349MOL0     C46987   7.378   1.898   5.845 -0.4197  0.9359  0.1094
  349MOL0     O46988   7.238   1.904   5.856  0.2575 -0.5979 -0.6671
  349MOL0     C46989   7.164   1.794   5.812 -0.8453  0.0300  0.5380
  349MOL0     C46990   7.154   1.682   5.910 -0.4795 -1.5299 -0.2150
  349MOL0     C46991   7.065   1.571   5.867  0.8870 -0.7334 -0.7120
  349MOL0     C46992   7.112   1.440   5.936  0.0565  1.2672  0.2902
  349MOL0     C46993   6.998   1.333   5.909 -0.4674  0.0909 -0.2584
  349MOL0     C46994   7.058   1.184   5.947  0.7021 -1.3790  0.4202
  349MOL0     C46995   7.031   1.150   6.098  0.7253  0.0121  0.2245
  349MOL0     C46996   7.054   1.000   6.131 -1.0990  0.1231 -0.5452
  349MOL0     N46997   6.990   0.959   6.258 -0.3862 -0.2656  0.6185
  349MOL0     C46998   6.860   0.924   6.292  0.3734  0.4080  0.3810
  349MOL0     C46999   6.870   0.900   6.421  0.3920 -0.4820 -0.9101
  349MOL0     C47000   6.756   0.852   6.507  0.1127 -0.8570 -0.5938
  349MOL0     C47001   6.674   0.978   6.556 -1.0761  0.7343 -0.4738
  349MOL0     C47002   6.748   1.115   6.559  0.1372 -0.3892  0.3026
  349MOL0     C47003   6.664   1.223   6.618  0.0497 -0.2330  0.5300
  349MOL0     O47004   6.625   1.187   6.752  0.1412  0.3116  0.4939
  349MOL0     C47005   6.519   1.265   6.795  1.0343  0.8043 -0.3283
  349MOL0     C47006   6.448   1.199   6.891 -0.6241 -0.3463 -1.1966
  349MOL0     C47007   6.339   1.270   6.952  0.3774  0.3136 -0.6685
  349MOL0     C47008   6.257   1.176   7.038 -0.7362  0.1742 -0.0423
  349MOL0     C47009   6.295   1.394   6.905 -0.2636 -0.2822 -0.6161
  349MOL0     C47010   6.180   1.473   6.965  0.3644  1.3109 -0.1649
  349MOL0     O47011   6.119   1.561   6.892  0.3701 -0.2907 -0.7782
  349MOL0     C47012   6.004   1.612   6.944 -0.1501  0.0592 -1.1233
  349MOL0     C47013   6.010   1.728   7.025  0.8153 -0.1126 -0.3141
  349MOL0     C47014   5.892   1.788   7.077 -0.6524 -0.7356 -0.9416
  349MOL0     C47015   5.768   1.728   7.054  0.4070 -0.3706 -0.0878
  349MOL0     O47016   5.641   1.779   7.096 -0.3735 -0.5295 -0.2375
  349MOL0     C47017   5.638   1.895   7.196  0.1910  0.3759  1.1117
  349MOL0     C47018   5.506   1.887   7.254  0.1131  0.5986 -0.5950
  349MOL0     C47019   5.461   2.031   7.309 -0.1041 -0.1466  0.4338
  349MOL0     C47020   5.321   2.011   7.370 -0.0134  0.3777 -0.0044
  349MOL0     C47021   5.248   2.127   7.436  0.6177  0.7354 -0.2904
  349MOL0     C47022   5.254   2.256   7.351 -0.5902 -0.0882 -0.0366
  349MOL0     C47023   5.163   2.359   7.421 -0.1225 -0.8973 -0.6618
  349MOL0     C47024   5.176   2.505   7.365  0.2074 -0.5048 -0.0043
  349MOL0    Cl47025   5.088   2.619   7.468  0.3118 -0.3862 -0.1042
  349MOL0     C47026   5.763   1.618   6.967  0.3160 -0.0323  0.2502
  349MOL0     C47027   5.875   1.560   6.907 -0.2793 -0.3272  0.7777
  349MOL0     O47028   6.145   1.444   7.083  0.9576 -0.5254 -0.1585
  349MOL0     C47029   6.369   1.455   6.812 -0.0401  0.1432 -0.0337
  349MOL0     C47030   6.486   1.395   6.756 -0.5217  0.1829 -0.8208
  349MOL0     N47031   6.995   0.922   6.476 -0.4796 -0.6525  0.3290
  349MOL0     N47032   7.059   0.971   6.372  0.5370  0.2164 -0.0212
  349MOL0     C47033   7.454   1.792   5.784  0.0235 -1.0572 -0.1586
  349MOL0     C47034   7.597   1.798   5.806  0.2153  0.4374 -0.6640
  349MOL0     C47035   8.000   1.896   5.987  1.4380 -0.3011  0.3660
  349MOL0     C47036   8.072   1.889   6.108  0.3307 -0.3538  0.3010
  349MOL0     C47037   8.213   1.898   6.109 -0.5750  0.3628  0.5327
  349MOL0     C47038   8.278   1.914   5.986 -0.8760 -0.4262  0.4503
  349MOL0     O47039   8.417   1.931   5.983  0.6587 -0.3936 -0.6187
  349MOL0     C47040   8.496   1.853   5.903  0.0562  0.2587 -0.1977
  349MOL0     C47041   8.525   1.717   5.981  0.2721 -0.6994  0.3339
  349MOL0     C47042   8.610   1.738   6.107 -0.7462 -0.0057  0.0377
  349MOL0     C47043   8.631   1.607   6.189  0.2278  0.5162 -0.3669
  349MOL0     C47044   8.774   1.604   6.222  0.1495 -0.1027  0.8145
  349MOL0     C47045   8.895   1.599   6.240  0.2608 -0.0140 -0.4559
  349MOL0     C47046   8.205   1.922   5.868  0.1753 -1.3835 -0.9225
  349MOL0     C47047   8.068   1.905   5.868  0.6564 -0.4858  0.0038
  349MOL0     H47048   7.636   2.103   5.941  3.6827 -2.8779  0.9249
  349MOL0     H47049   7.372   2.084   5.929  2.9882  1.2851  2.8077
  349MOL0     H47050   7.065   1.826   5.782 -0.2561  1.1007 -0.3070
  349MOL0     H47051   7.217   1.756   5.724 -0.4642 -1.6787  1.4385
  349MOL0     H47052   7.253   1.640   5.928  0.0534  0.7573  2.9979
  349MOL0     H47053   7.107   1.713   6.004  2.2641 -1.8018  1.3494
  349MOL0     H47054   6.962   1.596   5.890  1.0437 -0.6289 -0.1102
  349MOL0     H47055   7.070   1.567   5.757 -0.3006  2.0209 -0.9436
  349MOL0     H47056   7.206   1.415   5.886  0.4910  0.9657  1.2330
  349MOL0     H47057   7.126   1.451   6.044  4.4033 -3.4769  0.5987
  349MOL0     H47058   6.913   1.354   5.974  1.4775 -0.0046  2.4745
  349MOL0     H47059   6.978   1.343   5.802 -0.5352  1.3106 -0.1413
  349MOL0     H47060   7.006   1.116   5.879 -2.8071  1.3333  0.1171
  349MOL0     H47061   7.167   1.176   5.934  0.7929 -1.4492  1.1831
  349MOL0     H47062   7.086   1.221   6.160  1.3748 -1.3096  1.2134
  349MOL0     H47063   6.925   1.173   6.114  0.5256 -0.3344 -0.5543
  349MOL0     H47064   7.159   0.972   6.122 -0.8384  0.9486 -0.1441
  349MOL0     H47065   7.006   0.956   6.043  1.7886  3.1324 -3.9686
  349MOL0     H47066   6.775   0.917   6.225 -0.4093  0.3864  1.3531
  349MOL0     H47067   6.695   0.778   6.455  0.5595 -0.8745 -1.1073
  349MOL0     H47068   6.795   0.818   6.604  0.4280  1.4482  0.1604
  349MOL0     H47069   6.625   0.954   6.651 -1.8099 -1.7197 -1.4007
  349MOL0     H47070   6.596   0.993   6.481  0.7810 -1.0488 -2.8754
  349MOL0     H47071   6.763   1.136   6.453  0.5471  0.5497  0.5300
  349MOL0     H47072   6.846   1.108   6.608 -1.4058 -1.9995  3.3975
  349MOL0     H47073   6.574   1.219   6.557  0.2046  1.5934  0.1359
  349MOL0     H47074   6.706   1.324   6.614  0.5484 -0.4795 -0.6119
  349MOL0     H47075   6.471   1.102   6.932  0.0866  0.3235  0.0480
  349MOL0     H47076   6.153   1.177   7.003 -0.4977 -2.9759 -1.1659
  349MOL0     H47077   6.285   1.072   7.058  4.0834  1.7054  2.8630
  349MOL0     H47078   6.251   1.219   7.138 -0.7577  1.5779 -0.6209
  349MOL0     H47079   6.104   1.780   7.039  1.6163 -1.9904  1.7194
  349MOL0     H47080   5.899   1.880   7.135  2.5379 -2.6447  2.1023
  349MOL0     H47081   5.721   1.872   7.264 -1.1755 -1.4242  2.2449
  349MOL0     H47082   5.645   1.987   7.136 -1.9805 -0.3064 -0.2904
  349MOL0     H47083   5.424   1.851   7.191 -0.5130  2.1131 -0.6817
  349MOL0     H47084   5.506   1.814   7.335 -1.0864 -1.0921 -2.0554
  349MOL0     H47085   5.456   2.107   7.230 -0.4797  1.4081  1.8840
  349MOL0     H47086   5.535   2.070   7.380  0.6080  2.9130 -1.7828
  349MOL0     H47087   5.248   1.963   7.304 -0.4419  0.9457  0.0471
  349MOL0     H47088   5.318   1.932   7.445 -1.2037 -0.5093 -0.9421
  349MOL0     H47089   5.283   2.138   7.539  0.0966 -3.4654  0.5033
  349MOL0     H47090   5.141   2.110   7.452  0.8104  1.9507  3.1550
  349MOL0     H47091   5.358   2.290   7.346 -1.5443  2.9234 -2.2759
  349MOL0     H47092   5.205   2.236   7.256  1.4779 -0.3125 -1.1229
  349MOL0     H47093   5.175   2.348   7.530 -2.4088 -1.2551 -0.3925
  349MOL0     H47094   5.059   2.333   7.400 -1.2762  3.0923 -0.5905
  349MOL0     H47095   5.151   2.520   7.260  2.7991 -1.4154 -0.8240
  349MOL0     H47096   5.279   2.535   7.386 -0.4950  0.7541  1.9391
  349MOL0     H47097   5.667   1.575   6.938  1.3639 -0.4595 -3.0268
  349MOL0     H47098   5.867   1.482   6.831  4.7084 -0.6141  0.2611
  349MOL0     H47099   6.340   1.556   6.785 -1.4539  0.0849  1.1135
  349MOL0     H47100   6.536   1.440   6.671  1.9808  2.1295  1.4928
  349MOL0     H47101   7.415   1.702   5.738  2.0031 -2.6571  1.1468
  349MOL0     H47102   7.652   1.709   5.778 -0.3691  0.0973 -0.7457
  349MOL0     H47103   8.013   1.876   6.198 -2.0780  1.6168 -0.8807
  349MOL0     H47104   8.263   1.893   6.206  1.1461  0.4737 -0.3188
  349MOL0     H47105   8.446   1.828   5.809 -0.7782  1.9207 -0.2206
  349MOL0     H47106   8.584   1.916   5.883 -1.7972  2.2176 -2.9015
  349MOL0     H47107   8.578   1.649   5.915 -1.4027 -0.9400 -0.8159
  349MOL0     H47108   8.429   1.667   5.998  1.1741 -2.4297  0.5619
  349MOL0     H47109   8.554   1.803   6.176 -0.9814  1.3278 -1.3500
  349MOL0     H47110   8.709   1.777   6.081  0.5059 -1.9640  1.5295
  349MOL0     H47111   8.624   1.522   6.122 -1.0029  2.1087 -2.3953
  349MOL0     H47112   8.566   1.599   6.277  2.9064 -2.4249  1.5620
  349MOL0     H47113   8.998   1.582   6.263  0.7063  1.1767 -1.4778
  349MOL0     H47114   8.266   1.936   5.779 -0.6702 -1.5836 -1.5368
  349MOL0     H47115   8.019   1.901   5.771  1.0509  3.7412 -0.5525
  350MOL0     O47116   1.998   4.482   7.245  0.3113  0.5001 -0.7237
  350MOL0     C47117   2.083   4.540   7.310 -0.7854 -0.7110  0.8007
  350MOL0     O47118   2.054   4.624   7.409  0.0534  0.1526 -0.4499
  350MOL0     C47119   1.926   4.644   7.450  0.5142 -0.5295 -0.1938
  350MOL0     C47120   1.845   4.736   7.388 -0.1309  0.0814  0.3929
  350MOL0     C47121   1.726   4.780   7.445 -0.3236  0.0904 -1.1233
  350MOL0     C47122   1.677   4.715   7.561  0.3707 -0.1900  0.5637
  350MOL0     O47123   1.557   4.761   7.627  0.1142  0.4307  0.2853
  350MOL0     C47124   1.551   4.799   7.767  0.0033 -0.8118 -0.0701
  350MOL0     C47125   1.424   4.886   7.790 -0.2263 -0.4791 -0.6169
  350MOL0     C47126   1.414   5.005   7.704  0.0875 -0.2932 -0.3107
  350MOL0     C47127   1.272   5.060   7.696  0.0146 -0.3401 -0.2532
  350MOL0     C47128   1.205   5.113   7.820  0.3755  0.4661 -0.9806
  350MOL0     C47129   1.277   5.223   7.897 -0.6181  0.3815 -0.1848
  350MOL0     C47130   1.204   5.248   8.032 -0.2489 -0.9056  0.2433
  350MOL0     C47131   1.075   5.322   8.009 -0.8110 -0.1912 -0.9474
  350MOL0     N47132   0.967   5.221   8.028  0.2461 -0.7572  0.4789
  350MOL0     C47133   0.908   5.201   8.149 -0.9848  0.5419 -0.4661
  350MOL0     C47134   0.800   5.128   8.121  0.4936 -0.1325 -0.0717
  350MOL0     C47135   0.701   5.067   8.217 -1.1918 -0.1152  0.5215
  350MOL0     C47136   0.572   5.142   8.243 -0.7689  0.2006 -0.1446
  350MOL0     C47137   0.585   5.287   8.283  0.2217  0.2527  0.1123
  350MOL0     C47138   0.462   5.360   8.348  0.5570 -0.4344 -0.4226
  350MOL0     O47139   0.349   5.362   8.267  0.4958 -0.0630 -0.5013
  350MOL0     C47140   0.237   5.418   8.314  1.0261 -0.8614 -0.5267
  350MOL0     C47141   0.120   5.397   8.239  0.3716  0.0976  0.2052
  350MOL0     C47142  -0.004   5.446   8.279  0.8528  0.2847 -0.3672
  350MOL0     C47143  -0.122   5.406   8.194 -0.4700  0.0207  0.0430
  350MOL0     C47144  -0.011   5.524   8.394 -0.4114 -0.0989  0.0370
  350MOL0     C47145  -0.139   5.597   8.435 -0.1828  0.6294  0.5537
  350MOL0     O47146  -0.127   5.663   8.551 -0.1787  0.3413 -0.0490
  350MOL0     C47147  -0.211   5.758   8.596  0.3158 -0.8062 -0.3165
  350MOL0     C47148  -0.248   5.878   8.527  0.2608 -0.4916 -1.5231
  350MOL0     C47149  -0.336   5.967   8.581  0.8899  0.4939 -0.1302
  350MOL0     C47150  -0.389   5.956   8.713  0.1223  0.4355 -0.1905
  350MOL0     O47151  -0.481   6.040   8.775 -0.5794 -0.3597 -0.2361
  350MOL0     C47152  -0.608   5.979   8.816 -0.7087  0.2085  0.6578
  350MOL0     C47153  -0.712   6.079   8.856 -0.7209  0.1140 -0.7686
  350MOL0     C47154  -0.659   6.183   8.966  0.2931  0.5193  0.2814
  350MOL0     C47155  -0.774   6.279   9.017  0.5893 -1.1438  0.2857
  350MOL0     C47156  -0.724   6.407   9.079  0.5723 -0.0141 -0.0203
  350MOL0     C47157  -0.644   6.368   9.211  0.1168 -0.0469 -0.5975
  350MOL0     C47158  -0.615   6.488   9.304 -0.5204 -0.4213  0.1645
  350MOL0     C47159  -0.582   6.442   9.449  0.2907  0.3934 -0.3385
  350MOL0    Cl47160  -0.453   6.330   9.439 -0.0860 -0.5248 -0.1359
  350MOL0     C47161  -0.340   5.842   8.782  0.8101 -0.6869  0.3933
  350MOL0     C47162  -0.251   5.744   8.725  1.2528 -0.5227  0.3567
  350MOL0     O47163  -0.232   5.611   8.349 -1.2338  0.7535 -0.2440
  350MOL0     C47164   0.104   5.536   8.477 -0.3664  0.1418  0.0999
  350MOL0     C47165   0.226   5.480   8.440 -0.0095  0.0839  1.1527
  350MOL0     N47166   0.779   5.129   7.983 -0.5004 -0.4296  0.2822
  350MOL0     N47167   0.875   5.186   7.931 -0.5736  0.4955 -0.0582
  350MOL0     C47168   1.751   4.605   7.612 -0.2871  0.0427  0.6231
  350MOL0     C47169   1.877   4.576   7.562  0.1553 -0.4730  0.4513
  350MOL0     C47170   2.224   4.511   7.269 -0.3449  0.2000  0.5306
  350MOL0     C47171   2.255   4.482   7.133  0.6485  0.5609 -0.7150
  350MOL0     C47172   2.393   4.462   7.099 -0.7559 -0.0646 -0.1747
  350MOL0     C47173   2.497   4.494   7.193 -0.8308 -0.4903 -1.1833
  350MOL0     O47174   2.633   4.499   7.167 -0.1218  0.3460 -0.0897
  350MOL0     C47175   2.675   4.466   7.039 -0.0166  0.2390 -0.6232
  350MOL0     C47176   2.825   4.449   7.041 -0.3194 -0.4255 -0.3256
  350MOL0     C47177   2.880   4.342   7.132  0.1309  0.1742  0.2992
  350MOL0     C47178   2.832   4.206   7.091  0.8404  0.6868  0.2436
  350MOL0     C47179   2.901   4.111   7.175 -0.3107 -0.0946 -0.0940
  350MOL0     C47180   2.966   4.036   7.240 -0.4405  0.0114  0.1655
  350MOL0     C47181   2.460   4.533   7.321  0.1727 -0.0980  0.0472
  350MOL0     C47182   2.328   4.548   7.355 -0.0100 -0.5992  0.4022
  350MOL0     H47183   1.888   4.789   7.303  0.4196 -0.5113  0.2957
  350MOL0     H47184   1.681   4.872   7.409 -1.9406 -1.0196 -2.1376
  350MOL0     H47185   1.529   4.717   7.836 -1.6536  1.1433  1.8479
  350MOL0     H47186   1.644   4.848   7.798 -0.9420 -0.5390  2.5341
  350MOL0     H47187   1.333   4.827   7.777 -3.6471  3.8289  1.0523
  350MOL0     H47188   1.415   4.914   7.895 -2.9672 -0.6947 -0.7241
  350MOL0     H47189   1.484   5.081   7.738 -0.0495 -0.1235 -0.4046
  350MOL0     H47190   1.433   4.980   7.600  1.7286 -0.5058  0.0118
  350MOL0     H47191   1.285   5.140   7.623  2.0958  0.3219  0.7457
  350MOL0     H47192   1.198   4.993   7.654 -1.9618  1.5718  0.0115
  350MOL0     H47193   1.109   5.159   7.794 -0.2844  0.3969  1.1182
  350MOL0     H47194   1.185   5.024   7.881  2.4625 -0.6299 -1.8094
  350MOL0     H47195   1.379   5.190   7.918 -0.8110  0.5612  1.1534
  350MOL0     H47196   1.290   5.321   7.851 -0.6316  1.1600  1.3951
  350MOL0     H47197   1.194   5.161   8.098  0.2370 -0.2295  1.2303
  350MOL0     H47198   1.270   5.316   8.087  0.4151 -0.7909 -0.6701
  350MOL0     H47199   1.073   5.360   7.906 -3.2948 -0.2367 -0.9674
  350MOL0     H47200   1.066   5.408   8.077 -0.8698 -1.6532  0.9829
  350MOL0     H47201   0.933   5.231   8.250 -3.0771 -2.5462  1.1254
  350MOL0     H47202   0.685   4.972   8.167  1.2978  0.4983 -1.6922
  350MOL0     H47203   0.752   5.047   8.312 -0.8765 -3.9123 -0.2911
  350MOL0     H47204   0.533   5.085   8.328 -3.2213  2.4226  0.3602
  350MOL0     H47205   0.501   5.131   8.161  0.1682 -0.2846 -0.9037
  350MOL0     H47206   0.607   5.330   8.185  1.3107  1.1316  0.7091
  350MOL0     H47207   0.670   5.304   8.350  1.3906  0.8113 -1.4378
  350MOL0     H47208   0.493   5.462   8.370 -3.3507  0.2980  2.9006
  350MOL0     H47209   0.444   5.314   8.446 -2.1030  3.0256  0.9474
  350MOL0     H47210   0.125   5.351   8.141 -0.9770 -0.1913  0.2482
  350MOL0     H47211  -0.146   5.500   8.145  2.5589  1.0777  0.3322
  350MOL0     H47212  -0.098   5.332   8.118 -0.8735  2.3415 -2.5154
  350MOL0     H47213  -0.202   5.364   8.256 -1.3489 -0.2750 -1.2757
  350MOL0     H47214  -0.206   5.917   8.435  0.6670  0.8413 -0.8020
  350MOL0     H47215  -0.381   6.042   8.517  2.8162  0.1794 -1.9197
  350MOL0     H47216  -0.642   5.919   8.732  1.2641  0.1484 -0.1480
  350MOL0     H47217  -0.590   5.915   8.903  1.2720 -0.1685  0.0106
  350MOL0     H47218  -0.740   6.125   8.761  1.6257 -2.5759 -2.9530
  350MOL0     H47219  -0.797   6.024   8.898  1.1462 -2.8356 -0.5035
  350MOL0     H47220  -0.580   6.240   8.916 -1.9419  1.1040 -2.8735
  350MOL0     H47221  -0.627   6.129   9.056  0.4529  2.1228  1.2337
  350MOL0     H47222  -0.833   6.313   8.932  0.5123 -0.1508  0.7279
  350MOL0     H47223  -0.842   6.228   9.086 -0.8938  2.1070  1.3806
  350MOL0     H47224  -0.811   6.469   9.102  1.0022  0.8722 -0.6851
  350MOL0     H47225  -0.655   6.459   9.012 -1.1375  0.0594 -1.8004
  350MOL0     H47226  -0.705   6.293   9.263  1.1424  1.0729  2.3981
  350MOL0     H47227  -0.550   6.319   9.183  1.3578  1.6488  0.3847
  350MOL0     H47228  -0.696   6.561   9.296 -1.2869 -1.4022 -1.7094
  350MOL0     H47229  -0.533   6.547   9.262 -0.1700  0.3818  1.8857
  350MOL0     H47230  -0.664   6.389   9.499  1.1990 -0.6947  0.0420
  350MOL0     H47231  -0.555   6.528   9.511 -1.5476  0.2218  0.7609
  350MOL0     H47232  -0.374   5.830   8.884  1.9995 -1.3395  0.7231
  350MOL0     H47233  -0.217   5.655   8.776 -2.3428 -1.5214  1.3379
  350MOL0     H47234   0.102   5.596   8.568 -1.3136  2.0809 -1.1434
  350MOL0     H47235   0.312   5.496   8.504 -0.2557  1.7454  1.1057
  350MOL0     H47236   1.721   4.548   7.699 -0.1489 -0.6624  0.2171
  350MOL0     H47237   1.939   4.497   7.603  1.0204  1.5223  3.2945
  350MOL0     H47238   2.184   4.474   7.052 -0.2747 -3.1649  0.2739
  350MOL0     H47239   2.416   4.426   6.999 -1.0090  2.2728 -1.1359
  350MOL0     H47240   2.625   4.375   7.003 -0.0484  0.8655 -2.2389
  350MOL0     H47241   2.651   4.547   6.969  2.2863  2.0565  0.5266
  350MOL0     H47242   2.878   4.528   7.095  2.4235 -3.5655  1.9601
  350MOL0     H47243   2.857   4.443   6.937 -5.4070  1.6719 -2.3692
  350MOL0     H47244   2.840   4.353   7.233 -1.6253 -0.0278 -0.3419
  350MOL0     H47245   2.990   4.342   7.129  0.1205  1.2294 -1.8429
  350MOL0     H47246   2.859   4.191   6.986 -1.4718 -1.1981 -0.1697
  350MOL0     H47247   2.724   4.199   7.106  1.1348 -0.0765  2.3267
  350MOL0     H47248   3.021   3.951   7.274  1.0273  1.3024  1.1486
  350MOL0     H47249   2.537   4.566   7.390  1.0705 -0.7804 -0.6042
  350MOL0     H47250   2.311   4.584   7.456  1.3099  1.2687  0.0030
  351MOL0     O47251   5.227   1.712   6.830 -0.2937 -0.4614 -0.2603
  351MOL0     C47252   5.191   1.591   6.814  0.5792 -0.3734 -0.9835
  351MOL0     O47253   5.062   1.543   6.844 -0.4580  0.4211  0.6203
  351MOL0     C47254   4.963   1.638   6.858 -0.3834  1.3639  0.2613
  351MOL0     C47255   4.934   1.720   6.745 -0.1871 -1.0121 -0.3405
  351MOL0     C47256   4.833   1.818   6.748  0.9779 -0.1610  0.8091
  351MOL0     C47257   4.761   1.838   6.874  0.5879  0.6206 -0.2948
  351MOL0     O47258   4.664   1.938   6.872  0.4673  0.2484 -0.6795
  351MOL0     C47259   4.634   2.012   6.988 -0.8263 -0.1532 -0.0253
  351MOL0     C47260   4.518   2.111   6.964 -0.1204  0.7811 -0.8599
  351MOL0     C47261   4.514   2.223   7.074  0.3666 -0.0753 -0.6511
  351MOL0     C47262   4.386   2.274   7.089 -0.5637 -0.7877  0.1704
  351MOL0     C47263   4.370   2.390   7.190  0.2778 -0.5339 -0.5439
  351MOL0     C47264   4.249   2.480   7.144 -0.1602 -1.1025 -0.3199
  351MOL0     C47265   4.119   2.415   7.191  0.0217  0.2620  0.6947
  351MOL0     C47266   4.002   2.528   7.174  1.1130 -0.0886 -1.3952
  351MOL0     N47267   3.870   2.464   7.183 -0.6368  0.6583 -0.2642
  351MOL0     C47268   3.811   2.405   7.074 -0.2710 -1.3298  1.0013
  351MOL0     C47269   3.692   2.357   7.119 -0.2856  0.1161  0.0223
  351MOL0     C47270   3.591   2.281   7.037 -0.0320  0.0890 -0.4630
  351MOL0     C47271   3.506   2.383   6.954 -0.5499 -0.2048 -0.3562
  351MOL0     C47272   3.382   2.318   6.890 -0.0699 -0.8593  0.2979
  351MOL0     C47273   3.316   2.433   6.822  0.4654 -0.7987  0.0278
  351MOL0     O47274   3.209   2.392   6.743 -0.0809  0.7000 -0.5322
  351MOL0     C47275   3.131   2.489   6.680  0.9411 -0.4564  0.9451
  351MOL0     C47276   3.177   2.620   6.659 -0.8410 -0.9408 -0.1643
  351MOL0     C47277   3.084   2.716   6.605  0.2683 -0.0507 -0.0900
  351MOL0     C47278   3.140   2.850   6.570  0.8844  0.2979  0.3065
  351MOL0     C47279   2.950   2.683   6.589 -0.4418 -0.3343 -0.1993
  351MOL0     C47280   2.845   2.782   6.557 -0.6495 -0.1192 -0.4277
  351MOL0     O47281   2.743   2.713   6.506  0.3896 -0.3035 -0.1257
  351MOL0     C47282   2.627   2.783   6.461 -0.0397  0.0627 -0.6378
  351MOL0     C47283   2.503   2.716   6.473 -0.2368 -0.3884 -0.9387
  351MOL0     C47284   2.386   2.781   6.434 -0.3214  0.7349  0.2826
  351MOL0     C47285   2.389   2.911   6.382 -0.7491 -0.4506 -0.6579
  351MOL0     O47286   2.279   2.979   6.341  0.1586 -0.0128 -0.3712
  351MOL0     C47287   2.177   3.011   6.425 -0.4587  0.0473  0.5650
  351MOL0     C47288   2.085   3.124   6.375  0.1773  0.5154  0.8612
  351MOL0     C47289   2.036   3.102   6.232  0.0933  0.6697  0.1512
  351MOL0     C47290   1.976   3.226   6.185 -0.0547 -0.7517  0.1605
  351MOL0     C47291   1.874   3.199   6.067 -0.2955  0.9148 -0.0129
  351MOL0     C47292   1.882   3.315   5.963  0.2873  0.3470  0.0898
  351MOL0     C47293   1.822   3.452   6.001 -0.1016  0.7106  0.0984
  351MOL0     C47294   1.674   3.459   5.978 -0.5263 -0.1879 -0.0173
  351MOL0    Cl47295   1.617   3.416   5.813 -0.1535 -0.1680 -0.2885
  351MOL0     C47296   2.511   2.978   6.367 -0.7943 -0.3917 -0.5290
  351MOL0     C47297   2.629   2.915   6.418  0.4133 -0.4322 -0.2346
  351MOL0     O47298   2.850   2.906   6.582  0.0192  0.2039  0.2902
  351MOL0     C47299   2.914   2.546   6.616 -0.0357  0.7270  0.0187
  351MOL0     C47300   3.006   2.451   6.648  0.6742  0.6493  0.1470
  351MOL0     N47301   3.693   2.376   7.259 -0.1727 -0.6482 -0.3826
  351MOL0     N47302   3.795   2.440   7.301  0.7540 -0.1523 -0.3969
  351MOL0     C47303   4.763   1.736   6.973 -0.0037 -0.3898  0.8655
  351MOL0     C47304   4.875   1.646   6.966  0.6712  0.0277  0.3276
  351MOL0     C47305   5.284   1.499   6.742 -0.3970  0.6395  0.7080
  351MOL0     C47306   5.240   1.363   6.713  0.4899 -0.9763 -0.0751
  351MOL0     C47307   5.319   1.272   6.647 -0.8907 -0.5347 -0.0422
  351MOL0     C47308   5.448   1.313   6.596 -0.6871  0.4246  0.6760
  351MOL0     O47309   5.524   1.230   6.527 -0.0650 -0.3552 -0.1124
  351MOL0     C47310   5.492   1.089   6.545 -0.6757 -0.0825  0.8114
  351MOL0     C47311   5.614   1.015   6.483  0.0995 -0.2355  0.5078
  351MOL0     C47312   5.600   0.868   6.511  0.9193 -0.1650  0.0787
  351MOL0     C47313   5.734   0.802   6.507  0.1064  0.9072  0.7433
  351MOL0     C47314   5.736   0.658   6.565 -0.3341 -0.1016 -0.0988
  351MOL0     C47315   5.738   0.550   6.613  0.9655  0.7146  0.1249
  351MOL0     C47316   5.500   1.441   6.628  1.0817 -0.3626  0.3085
  351MOL0     C47317   5.417   1.540   6.700  0.3066  0.2851 -0.5048
  351MOL0     H47318   5.009   1.716   6.667 -0.8043 -0.8800 -0.9530
  351MOL0     H47319   4.818   1.877   6.658  0.7252 -2.8900 -1.0582
  351MOL0     H47320   4.611   1.946   7.073 -0.4670  1.5443  1.4437
  351MOL0     H47321   4.723   2.066   7.024 -0.1828 -0.2805 -1.3622
  351MOL0     H47322   4.526   2.160   6.866 -2.7120 -0.1491 -1.6099
  351MOL0     H47323   4.433   2.044   6.973 -0.7228  1.7335  0.8453
  351MOL0     H47324   4.548   2.193   7.174  1.1317 -0.4580 -1.0140
  351MOL0     H47325   4.590   2.294   7.039  1.5382  0.8072  3.1662
  351MOL0     H47326   4.344   2.304   6.992 -0.0445 -1.5410 -0.2915
  351MOL0     H47327   4.319   2.199   7.132 -2.0688 -0.5949 -1.7088
  351MOL0     H47328   4.356   2.369   7.297 -3.2608  0.5341 -0.6728
  351MOL0     H47329   4.460   2.451   7.185  0.8493 -1.4355 -4.6248
  351MOL0     H47330   4.252   2.577   7.193 -0.5863 -0.3503 -1.7123
  351MOL0     H47331   4.248   2.494   7.035  2.4419 -3.0599 -0.6927
  351MOL0     H47332   4.113   2.338   7.113  2.0260  2.1019 -1.3939
  351MOL0     H47333   4.109   2.373   7.292 -4.3241 -2.6351 -0.6207
  351MOL0     H47334   4.018   2.587   7.084  3.3391  4.1192  1.3819
  351MOL0     H47335   4.017   2.600   7.255 -1.0139  0.7552 -1.7121
  351MOL0     H47336   3.857   2.385   6.978  0.9718  3.1452  0.4500
  351MOL0     H47337   3.638   2.204   6.976  1.2366 -0.3527  1.0078
  351MOL0     H47338   3.525   2.215   7.095  0.2137 -1.3223 -1.7177
  351MOL0     H47339   3.578   2.427   6.885  3.4412  0.7533  3.8661
  351MOL0     H47340   3.463   2.458   7.022 -0.0576  0.5636 -0.8822
  351MOL0     H47341   3.317   2.278   6.968 -2.7361  1.9506 -0.2969
  351MOL0     H47342   3.408   2.243   6.814  0.9720  0.4471 -0.7031
  351MOL0     H47343   3.384   2.486   6.755 -2.6849  1.8836 -1.3219
  351MOL0     H47344   3.301   2.502   6.906  1.5901 -1.9779  1.2591
  351MOL0     H47345   3.282   2.640   6.680 -1.0652 -1.5575  1.7307
  351MOL0     H47346   3.164   2.902   6.664 -2.1044  0.7291  0.9148
  351MOL0     H47347   3.236   2.824   6.524  0.6749 -2.3935  1.2227
  351MOL0     H47348   3.073   2.912   6.509 -1.1169 -3.0364 -1.1384
  351MOL0     H47349   2.493   2.609   6.487 -0.1902 -0.6303 -2.5382
  351MOL0     H47350   2.298   2.720   6.455  0.5995 -0.6323  0.2830
  351MOL0     H47351   2.116   2.924   6.450 -1.4936  0.7632  0.6274
  351MOL0     H47352   2.228   3.049   6.514 -0.7391 -0.7088  1.0562
  351MOL0     H47353   1.998   3.138   6.440 -0.3681  1.5213 -0.0522
  351MOL0     H47354   2.133   3.223   6.373  0.6550  0.2793  0.0886
  351MOL0     H47355   1.967   3.018   6.234 -0.4021  1.0678  2.2496
  351MOL0     H47356   2.117   3.076   6.163 -2.0697  0.1899 -2.3191
  351MOL0     H47357   1.910   3.277   6.256 -1.3976 -0.7680 -1.0071
  351MOL0     H47358   2.045   3.307   6.159 -1.2044 -0.1327 -1.1072
  351MOL0     H47359   1.772   3.177   6.100 -1.4275  1.4028 -2.8959
  351MOL0     H47360   1.908   3.107   6.018  4.0804  2.2758  0.0160
  351MOL0     H47361   1.985   3.323   5.927  0.6896  0.0313  1.1540
  351MOL0     H47362   1.818   3.272   5.885  0.6879 -1.8312  0.8995
  351MOL0     H47363   1.873   3.527   5.939  0.1410  0.9762  0.6150
  351MOL0     H47364   1.843   3.483   6.103 -0.0075  2.5848 -0.4453
  351MOL0     H47365   1.635   3.559   5.998  2.1767  0.6655  1.6080
  351MOL0     H47366   1.628   3.380   6.039 -1.9209  0.1490 -0.5997
  351MOL0     H47367   2.517   3.068   6.307  1.9226 -0.4142 -0.4126
  351MOL0     H47368   2.714   2.980   6.399 -1.8275  2.9212  0.2962
  351MOL0     H47369   2.815   2.506   6.592 -1.2296  2.2075  2.0927
  351MOL0     H47370   2.970   2.350   6.664 -2.6836  2.0204  2.4662
  351MOL0     H47371   4.688   1.746   7.052 -0.3045  1.8704  0.3759
  351MOL0     H47372   4.894   1.583   7.053 -0.2836  0.7320  1.0627
  351MOL0     H47373   5.143   1.343   6.759  0.2651 -0.5770 -0.3750
  351MOL0     H47374   5.281   1.170   6.639 -0.6066 -0.6031 -0.5999
  351MOL0     H47375   5.480   1.061   6.650 -0.7341 -0.6377  0.6624
  351MOL0     H47376   5.401   1.068   6.489  0.9811  0.0735 -2.1357
  351MOL0     H47377   5.702   1.049   6.537 -0.1759 -1.7334  1.9768
  351MOL0     H47378   5.628   1.041   6.378  1.3904  0.2863  0.7924
  351MOL0     H47379   5.530   0.818   6.443 -1.9142  4.1763 -0.5474
  351MOL0     H47380   5.566   0.853   6.613  0.4108  0.8546  0.0619
  351MOL0     H47381   5.797   0.867   6.567  1.1258  1.4478 -0.8693
  351MOL0     H47382   5.756   0.804   6.400 -2.5775  3.7830  0.1106
  351MOL0     H47383   5.734   0.456   6.663 -1.9931  2.1485  2.9678
  351MOL0     H47384   5.594   1.480   6.590  0.8591 -0.2728 -0.1568
  351MOL0     H47385   5.460   1.638   6.716 -1.8388  1.5822 -2.1234
  352MOL0     O47386   5.037   2.875   6.098 -0.0073 -0.1712  0.2888
  352MOL0     C47387   4.989   2.964   6.025  0.0827  0.6095  0.7256
  352MOL0     O47388   5.036   3.086   6.013 -0.2097  0.4581  0.2752
  352MOL0     C47389   5.161   3.112   6.068  0.2752  0.0600  0.1283
  352MOL0     C47390   5.278   3.061   6.009  0.1405  0.0243 -0.3951
  352MOL0     C47391   5.402   3.125   6.033  0.3015  0.1433 -0.2938
  352MOL0     C47392   5.422   3.225   6.122  0.3578 -0.2896 -0.4266
  352MOL0     O47393   5.548   3.269   6.149 -0.1039  0.2215 -0.2966
  352MOL0     C47394   5.565   3.377   6.236  0.1935  0.3581  0.8627
  352MOL0     C47395   5.717   3.409   6.239 -0.4379  0.5997  0.2634
  352MOL0     C47396   5.749   3.478   6.378  0.4855 -0.5312  0.2340
  352MOL0     C47397   5.834   3.607   6.357  0.2454 -0.6666 -0.9019
  352MOL0     C47398   5.851   3.699   6.482  0.2905  0.8610  0.6492
  352MOL0     C47399   5.724   3.720   6.545 -1.0744  0.9296  0.4796
  352MOL0     C47400   5.735   3.803   6.660  0.9045  0.9421 -0.8006
  352MOL0     C47401   5.600   3.809   6.749  0.0644  0.3664 -0.3815
  352MOL0     N47402   5.557   3.677   6.796  0.3011 -0.5871 -0.2021
  352MOL0     C47403   5.600   3.600   6.908 -0.0794  0.0115 -0.6683
  352MOL0     C47404   5.532   3.488   6.910 -0.2746 -0.1636  0.0580
  352MOL0     C47405   5.541   3.357   6.995  0.1071 -0.1636 -0.4407
  352MOL0     C47406   5.412   3.297   7.039 -0.4383 -0.2712 -0.2321
  352MOL0     C47407   5.306   3.381   7.097  0.8807  0.5460 -0.8377
  352MOL0     C47408   5.324   3.391   7.253 -0.0912 -0.3049  0.4538
  352MOL0     O47409   5.431   3.480   7.287 -0.0957 -0.1317 -0.0689
  352MOL0     C47410   5.389   3.603   7.330  0.2185 -0.4969 -0.1225
  352MOL0     C47411   5.487   3.674   7.407 -0.1961  0.0900  0.0084
  352MOL0     C47412   5.469   3.800   7.449 -1.0424  0.2018  0.3739
  352MOL0     C47413   5.593   3.869   7.503 -0.3376  0.4958  0.2770
  352MOL0     C47414   5.341   3.864   7.441  0.1301 -0.6872 -0.9564
  352MOL0     C47415   5.295   3.998   7.504  0.1143 -0.1085 -0.5864
  352MOL0     O47416   5.164   4.050   7.491  0.6804  0.4769  1.0648
  352MOL0     C47417   5.119   4.175   7.532 -0.0860  0.5663 -0.8323
  352MOL0     C47418   5.196   4.276   7.592  0.1671 -0.6560 -0.0601
  352MOL0     C47419   5.141   4.403   7.613  0.3957 -0.5893 -0.3495
  352MOL0     C47420   5.010   4.442   7.579 -0.1151  0.6904 -0.1622
  352MOL0     O47421   4.962   4.570   7.603  0.2712 -0.2201  0.6684
  352MOL0     C47422   4.913   4.598   7.736  0.3183 -0.6940 -0.3896
  352MOL0     C47423   4.842   4.731   7.738 -0.0032 -0.1105 -0.5445
  352MOL0     C47424   4.813   4.749   7.883  0.2379  0.1871 -0.4432
  352MOL0     C47425   4.702   4.860   7.910  1.0887  0.0158 -0.5298
  352MOL0     C47426   4.725   4.918   8.055 -0.2196  0.6736  0.4241
  352MOL0     C47427   4.712   4.810   8.162 -1.1514  0.5065  0.1393
  352MOL0     C47428   4.571   4.746   8.177  0.1831  0.7279  0.7662
  352MOL0     C47429   4.451   4.845   8.169 -0.3006 -0.3126  0.2558
  352MOL0    Cl47430   4.306   4.746   8.214 -0.0389  0.6911  0.0743
  352MOL0     C47431   4.933   4.334   7.522 -0.7017 -0.3902 -0.1642
  352MOL0     C47432   4.988   4.209   7.496  0.0722  0.1900  0.2993
  352MOL0     O47433   5.393   4.060   7.561 -0.0332  0.0420  0.1657
  352MOL0     C47434   5.239   3.795   7.366 -0.6817  1.5561  0.8923
  352MOL0     C47435   5.264   3.671   7.308 -0.5481  0.7760 -0.5106
  352MOL0     N47436   5.451   3.495   6.792  0.2667  0.1986 -0.6931
  352MOL0     N47437   5.452   3.610   6.733  0.4115 -0.0453  0.1931
  352MOL0     C47438   5.302   3.277   6.180 -1.0028  0.4172 -0.1024
  352MOL0     C47439   5.178   3.231   6.141  1.1448 -0.8911  0.8389
  352MOL0     C47440   4.881   2.929   5.925 -0.5575 -0.8575  0.1994
  352MOL0     C47441   4.796   3.029   5.870  0.7135 -0.0832  0.6369
  352MOL0     C47442   4.712   2.993   5.760  0.1019 -0.0391  0.5361
  352MOL0     C47443   4.697   2.858   5.714 -0.7551 -0.3860  0.2291
  352MOL0     O47444   4.610   2.810   5.626  0.6585 -0.2310  0.2010
  352MOL0     C47445   4.484   2.877   5.624  0.3335 -0.3409 -0.6877
  352MOL0     C47446   4.380   2.822   5.729  0.1885 -0.5503  0.2034
  352MOL0     C47447   4.288   2.922   5.793  0.5361 -0.4588 -0.7060
  352MOL0     C47448   4.174   2.849   5.869 -0.7324  0.5786 -0.2913
  352MOL0     C47449   4.067   2.807   5.778  0.1220 -0.1813  0.3149
  352MOL0     C47450   3.959   2.816   5.707 -0.5080  0.2418  0.1703
  352MOL0     C47451   4.768   2.760   5.779  0.5238  0.1663  0.4397
  352MOL0     C47452   4.866   2.796   5.874 -0.2515  1.4458 -0.6989
  352MOL0     H47453   5.268   2.969   5.952 -0.8861 -0.1948  0.1138
  352MOL0     H47454   5.493   3.084   5.991  0.7414  2.4608 -1.7987
  352MOL0     H47455   5.504   3.462   6.206  0.2411  0.0546 -0.1388
  352MOL0     H47456   5.522   3.357   6.335  1.2618  0.4409  1.3546
  352MOL0     H47457   5.787   3.325   6.234 -1.8368 -0.9454  3.6164
  352MOL0     H47458   5.731   3.465   6.146 -1.2758 -3.0076 -2.2749
  352MOL0     H47459   5.653   3.504   6.425  0.5125  1.6649 -0.7780
  352MOL0     H47460   5.802   3.409   6.443  0.0396 -2.0841 -1.0012
  352MOL0     H47461   5.935   3.578   6.327  0.7331 -2.1461  1.8374
  352MOL0     H47462   5.782   3.661   6.277  0.8914 -0.8401 -1.4519
  352MOL0     H47463   5.916   3.647   6.553  0.3235  1.2457  0.9035
  352MOL0     H47464   5.906   3.790   6.452  0.8524 -0.1460 -1.6335
  352MOL0     H47465   5.654   3.762   6.474  1.2320  1.8959 -1.3464
  352MOL0     H47466   5.684   3.624   6.580 -1.8046  2.4031  4.1392
  352MOL0     H47467   5.811   3.757   6.723 -1.5938  0.2807  1.9555
  352MOL0     H47468   5.773   3.903   6.636 -0.5547  2.4500  2.4666
  352MOL0     H47469   5.525   3.861   6.688  3.3054  4.4200 -1.3372
  352MOL0     H47470   5.625   3.877   6.831  1.7320 -0.0316 -0.5189
  352MOL0     H47471   5.676   3.616   6.984 -1.0139  0.6456  0.1597
  352MOL0     H47472   5.591   3.284   6.931 -1.7789 -1.2469 -0.7375
  352MOL0     H47473   5.593   3.372   7.091 -3.1439  1.0735  1.2757
  352MOL0     H47474   5.426   3.211   7.106 -4.2558 -2.6470 -2.0889
  352MOL0     H47475   5.361   3.258   6.950 -1.8112 -0.9301  0.8064
  352MOL0     H47476   5.216   3.320   7.085  2.0325 -1.8622  1.6809
  352MOL0     H47477   5.303   3.473   7.039 -0.5447 -0.4143 -2.3743
  352MOL0     H47478   5.339   3.289   7.290  1.1410 -0.4719 -0.4350
  352MOL0     H47479   5.227   3.424   7.291 -0.2076 -0.3900  0.2281
  352MOL0     H47480   5.582   3.622   7.400 -0.1318 -0.1064  1.7974
  352MOL0     H47481   5.683   3.808   7.511  0.6504  1.8256 -0.1808
  352MOL0     H47482   5.617   3.956   7.441  1.7108  2.2388  3.2470
  352MOL0     H47483   5.578   3.902   7.606  1.1675 -2.2234  1.4669
  352MOL0     H47484   5.301   4.268   7.618  0.5864  0.1857 -1.3858
  352MOL0     H47485   5.216   4.476   7.642  0.5872 -0.0920 -1.9962
  352MOL0     H47486   4.837   4.523   7.761 -1.9167  2.0230  1.5447
  352MOL0     H47487   4.997   4.590   7.806  0.6159 -1.8059 -0.8384
  352MOL0     H47488   4.910   4.811   7.705 -1.4443  1.7539  0.8069
  352MOL0     H47489   4.751   4.735   7.678 -1.0269 -2.1741  0.7844
  352MOL0     H47490   4.904   4.770   7.939  0.4978 -1.8970 -0.0046
  352MOL0     H47491   4.778   4.655   7.925  1.8461 -0.4536 -0.4860
  352MOL0     H47492   4.702   4.950   7.848  0.5270  1.1616  1.0533
  352MOL0     H47493   4.597   4.827   7.907 -0.3108  4.0254 -2.6011
  352MOL0     H47494   4.646   4.992   8.072 -1.1222 -0.0381 -0.5629
  352MOL0     H47495   4.823   4.966   8.055 -1.1752  2.8268 -1.0259
  352MOL0     H47496   4.777   4.724   8.145 -2.5189 -0.2752 -1.4539
  352MOL0     H47497   4.733   4.860   8.257  3.5034 -2.7818  1.1779
  352MOL0     H47498   4.558   4.686   8.267 -3.2418  0.8228  0.4501
  352MOL0     H47499   4.560   4.685   8.087  0.9469  0.5937  0.7551
  352MOL0     H47500   4.451   4.897   8.073 -0.4168 -2.5046 -1.0095
  352MOL0     H47501   4.468   4.925   8.242  0.6661  0.3564 -0.6834
  352MOL0     H47502   4.830   4.363   7.500 -1.4035 -2.7934 -0.3037
  352MOL0     H47503   4.938   4.124   7.452  0.4253 -0.5733  1.3243
  352MOL0     H47504   5.135   3.821   7.355 -1.6801 -2.3411 -0.4986
  352MOL0     H47505   5.176   3.622   7.267  0.7638 -1.6782 -0.5939
  352MOL0     H47506   5.296   3.354   6.257 -1.6662 -0.3322  0.6161
  352MOL0     H47507   5.091   3.276   6.188  0.8805  2.0209 -2.0497
  352MOL0     H47508   4.800   3.134   5.896 -1.2130  0.4061 -0.8685
  352MOL0     H47509   4.652   3.074   5.720  1.3233  1.3119  1.3390
  352MOL0     H47510   4.485   2.985   5.638 -0.3582 -0.3688 -0.3784
  352MOL0     H47511   4.440   2.858   5.525  0.6818  1.3162 -1.1948
  352MOL0     H47512   4.436   2.770   5.807  3.5244  2.5061  0.1008
  352MOL0     H47513   4.322   2.746   5.676  2.8593 -1.2016 -2.0262
  352MOL0     H47514   4.253   2.981   5.708  1.5883 -1.5670 -1.9598
  352MOL0     H47515   4.343   2.980   5.868  0.1059  1.1430 -1.5877
  352MOL0     H47516   4.121   2.906   5.946 -1.0513  0.5386 -0.4789
  352MOL0     H47517   4.209   2.760   5.922 -0.2707  0.7882 -0.2420
  352MOL0     H47518   3.867   2.815   5.652 -2.5866  1.0293  3.3298
  352MOL0     H47519   4.752   2.656   5.754 -1.2107  1.0510 -2.8046
  352MOL0     H47520   4.915   2.712   5.922 -0.7085  2.1353  1.0621
  353MOL0     O47521   2.640   8.037  10.853 -0.7197 -0.0201  0.3547
  353MOL0     C47522   2.660   7.915  10.841  0.4618  0.1275 -0.1337
  353MOL0     O47523   2.730   7.843  10.744 -0.4729 -0.7649  0.1600
  353MOL0     C47524   2.790   7.928  10.649  0.9381 -0.5018 -0.2800
  353MOL0     C47525   2.915   7.980  10.682  0.8239 -0.2892 -0.3078
  353MOL0     C47526   2.978   8.069  10.598 -0.0995  0.3582  0.1084
  353MOL0     C47527   2.927   8.100  10.472 -0.7129  0.4839  0.4071
  353MOL0     O47528   2.994   8.181  10.382 -0.5372 -0.4811 -0.0273
  353MOL0     C47529   3.136   8.211  10.413  0.4175  0.8053 -0.5279
  353MOL0     C47530   3.206   8.277  10.299  0.5891 -0.2152  0.7247
  353MOL0     C47531   3.194   8.211  10.161 -0.6128  0.1877 -0.5309
  353MOL0     C47532   3.263   8.072  10.155 -0.3734 -0.0404 -0.6580
  353MOL0     C47533   3.320   8.027  10.024  0.0992 -0.0245  0.0498
  353MOL0     C47534   3.347   7.878  10.008  0.1634 -0.2491 -0.2874
  353MOL0     C47535   3.347   7.833   9.863  0.0852 -0.1234  0.1042
  353MOL0     C47536   3.339   7.684   9.854  0.8096 -1.0326  0.0272
  353MOL0     N47537   3.282   7.653   9.725 -0.6983 -0.8407  0.2100
  353MOL0     C47538   3.341   7.644   9.608 -0.2860  0.6588  0.2544
  353MOL0     C47539   3.262   7.574   9.526 -0.1624  0.1096 -0.7826
  353MOL0     C47540   3.273   7.545   9.378 -0.5889 -0.3796 -0.4206
  353MOL0     C47541   3.272   7.394   9.360 -0.4326 -0.6247  0.2986
  353MOL0     C47542   3.392   7.328   9.421 -0.3428  0.4750 -0.5711
  353MOL0     C47543   3.404   7.178   9.402  0.5526  0.3278  0.7747
  353MOL0     O47544   3.460   7.140   9.280 -0.1281 -0.1890 -0.4636
  353MOL0     C47545   3.480   7.004   9.265  0.3903  0.4430  0.3610
  353MOL0     C47546   3.554   6.974   9.154 -0.2970  1.3781 -0.2963
  353MOL0     C47547   3.567   6.839   9.105  0.3298  0.4591 -1.0327
  353MOL0     C47548   3.630   6.822   8.983 -0.4936 -0.6176  1.1308
  353MOL0     C47549   3.517   6.726   9.179  0.3291 -0.1415 -0.5420
  353MOL0     C47550   3.533   6.585   9.151 -0.6697  0.1546  0.2288
  353MOL0     O47551   3.447   6.499   9.227 -0.3701  0.5259 -0.7126
  353MOL0     C47552   3.481   6.364   9.257  0.2425  0.0211  0.2984
  353MOL0     C47553   3.411   6.323   9.369  0.3635  0.3509 -0.6413
  353MOL0     C47554   3.429   6.189   9.412  0.6221 -0.1530 -0.5706
  353MOL0     C47555   3.511   6.096   9.346  0.7026  0.3195 -0.2386
  353MOL0     O47556   3.556   5.976   9.391 -0.3996 -0.1587  0.8389
  353MOL0     C47557   3.597   5.975   9.530 -0.1996  0.6586  0.5015
  353MOL0     C47558   3.667   5.847   9.555  0.9509 -0.1635 -0.3942
  353MOL0     C47559   3.572   5.716   9.551  1.1982 -0.3332 -0.4337
  353MOL0     C47560   3.639   5.594   9.614 -0.5146 -0.0258 -0.0631
  353MOL0     C47561   3.574   5.556   9.752 -0.7584 -0.2353  1.2295
  353MOL0     C47562   3.458   5.465   9.722  0.0316 -0.3805  0.0943
  353MOL0     C47563   3.369   5.445   9.850  0.6645 -0.1364 -0.4929
  353MOL0     C47564   3.450   5.386   9.971  0.8806 -0.4937  0.5981
  353MOL0    Cl47565   3.326   5.374  10.099  0.1611  0.1102  0.3290
  353MOL0     C47566   3.559   6.141   9.222  1.3938 -0.7446 -0.1086
  353MOL0     C47567   3.545   6.270   9.176 -0.0539  1.0831 -0.0749
  353MOL0     O47568   3.609   6.543   9.060 -0.4141 -0.0451 -0.6150
  353MOL0     C47569   3.446   6.762   9.303 -0.1644  0.0571 -0.1218
  353MOL0     C47570   3.414   6.902   9.330 -0.3408 -1.0736 -0.1010
  353MOL0     N47571   3.151   7.543   9.601  0.6837  0.1403 -1.1250
  353MOL0     N47572   3.176   7.568   9.718 -0.0868 -0.2722 -0.8565
  353MOL0     C47573   2.806   8.040  10.429 -0.6626  0.1710 -0.9566
  353MOL0     C47574   2.733   7.956  10.521 -0.5422  0.2411 -0.0851
  353MOL0     C47575   2.597   7.835  10.949  0.2289 -0.8644  0.0930
  353MOL0     C47576   2.567   7.703  10.923  0.5146  0.7465 -0.1465
  353MOL0     C47577   2.514   7.617  11.020  0.1944 -0.0108 -0.1150
  353MOL0     C47578   2.474   7.667  11.148 -0.0051  0.7015  0.5033
  353MOL0     O47579   2.415   7.593  11.255  0.0670  0.4148  0.5151
  353MOL0     C47580   2.440   7.446  11.245 -0.1251 -1.4676  0.2332
  353MOL0     C47581   2.448   7.390  11.390 -0.3115 -0.5209  0.2332
  353MOL0     C47582   2.553   7.456  11.478 -0.4034 -0.6684  0.5102
  353MOL0     C47583   2.584   7.384  11.605  0.6052 -0.0227 -0.5429
  353MOL0     C47584   2.654   7.254  11.590 -0.0101 -0.4330  0.4487
  353MOL0     C47585   2.733   7.158  11.584 -0.6272 -0.2828  0.1299
  353MOL0     C47586   2.494   7.803  11.168 -0.7815  0.5565 -0.1272
  353MOL0     C47587   2.560   7.888  11.076  0.9729  0.0719  0.7472
  353MOL0     H47588   2.955   7.954  10.780 -1.5071 -2.6137  0.1424
  353MOL0     H47589   3.067   8.119  10.636  0.5205  0.2211 -1.1307
  353MOL0     H47590   3.153   8.274  10.500 -1.5202  1.5314 -0.6053
  353MOL0     H47591   3.179   8.114  10.440 -2.8391  0.2616  3.8567
  353MOL0     H47592   3.167   8.378  10.289  1.1586  0.1033  1.5805
  353MOL0     H47593   3.312   8.303  10.313  0.7264 -0.6913  0.6046
  353MOL0     H47594   3.090   8.206  10.129 -0.5040 -1.3437 -0.7581
  353MOL0     H47595   3.254   8.275  10.097 -1.4712 -0.1179 -1.6603
  353MOL0     H47596   3.346   8.070  10.227 -0.9625  0.3063  0.0485
  353MOL0     H47597   3.194   7.996  10.193 -0.6165 -1.4303 -3.6256
  353MOL0     H47598   3.258   8.061   9.940  0.0611 -0.0694  0.0596
  353MOL0     H47599   3.415   8.074  10.000 -0.9145  3.0522  1.5951
  353MOL0     H47600   3.445   7.860  10.052 -0.4736 -1.9563  0.5033
  353MOL0     H47601   3.271   7.820  10.060  1.8427  1.0468  4.0499
  353MOL0     H47602   3.261   7.882   9.817 -0.7398 -1.7486 -0.1598
  353MOL0     H47603   3.440   7.869   9.818  1.0377  0.3719  2.3188
  353MOL0     H47604   3.275   7.635   9.928 -0.2445  0.0739 -0.1288
  353MOL0     H47605   3.439   7.642   9.865  1.6576  0.9897  0.4744
  353MOL0     H47606   3.438   7.689   9.590 -0.9076  1.4936 -1.2386
  353MOL0     H47607   3.190   7.590   9.322 -0.4348 -1.4500 -1.5610
  353MOL0     H47608   3.369   7.590   9.354 -0.5712  0.7313  1.5193
  353MOL0     H47609   3.266   7.383   9.251  0.0308  1.1633  0.0647
  353MOL0     H47610   3.180   7.367   9.414 -1.0529 -0.4700 -0.6585
  353MOL0     H47611   3.374   7.345   9.528 -2.6293 -3.1408 -0.2096
  353MOL0     H47612   3.487   7.368   9.386 -0.8647 -0.1951 -2.8906
  353MOL0     H47613   3.313   7.122   9.425  0.8022 -0.1165  0.6927
  353MOL0     H47614   3.463   7.140   9.486 -1.3294  2.5996  3.3333
  353MOL0     H47615   3.611   7.051   9.101  1.5309 -1.4957 -2.8641
  353MOL0     H47616   3.553   6.793   8.911  1.3273 -1.7157 -0.4818
  353MOL0     H47617   3.672   6.917   8.949 -2.3586  0.3279  1.3243
  353MOL0     H47618   3.712   6.749   8.991 -1.5183 -1.5981  3.8660
  353MOL0     H47619   3.354   6.400   9.421  2.0734  2.2932 -1.5310
  353MOL0     H47620   3.385   6.156   9.506 -1.1076  1.1187 -0.8783
  353MOL0     H47621   3.657   6.065   9.545  0.9877  0.5273 -2.6989
  353MOL0     H47622   3.510   5.978   9.596  0.7624  0.7168  1.8082
  353MOL0     H47623   3.745   5.833   9.480  0.0855 -1.4868 -1.0888
  353MOL0     H47624   3.714   5.861   9.652  1.5975  3.3830 -1.0945
  353MOL0     H47625   3.530   5.698   9.452 -2.3822  0.1529  0.8616
  353MOL0     H47626   3.485   5.747   9.610 -1.8595 -2.3967 -3.5238
  353MOL0     H47627   3.630   5.508   9.546  0.7215  0.8160 -1.3552
  353MOL0     H47628   3.745   5.620   9.621 -0.5596  0.8503 -1.9182
  353MOL0     H47629   3.546   5.650   9.801 -0.7368 -0.6788  2.1219
  353MOL0     H47630   3.650   5.505   9.812  4.0291 -0.3816 -4.1620
  353MOL0     H47631   3.395   5.510   9.645  0.4883 -2.5349 -1.6230
  353MOL0     H47632   3.486   5.363   9.695  0.1823 -0.0569 -1.0421
  353MOL0     H47633   3.279   5.385   9.831  0.7613 -0.0392 -1.2847
  353MOL0     H47634   3.335   5.547   9.874  2.3056  0.4608 -0.5709
  353MOL0     H47635   3.526   5.460   9.998  1.9546 -1.0709 -0.6868
  353MOL0     H47636   3.496   5.291   9.942  3.8974  1.3471 -1.1949
  353MOL0     H47637   3.614   6.063   9.170  1.4630  0.2406 -1.5562
  353MOL0     H47638   3.580   6.312   9.082 -2.0791  2.1204 -0.4225
  353MOL0     H47639   3.401   6.689   9.370  0.3049 -1.5145 -1.4439
  353MOL0     H47640   3.348   6.923   9.413 -0.6343 -3.1047  0.2212
  353MOL0     H47641   2.766   8.068  10.332  2.1487  0.8889 -2.0180
  353MOL0     H47642   2.647   7.893  10.503 -1.3218  1.0956  0.5560
  353MOL0     H47643   2.601   7.655  10.832 -0.0502  0.1068 -0.0239
  353MOL0     H47644   2.514   7.511  10.998  0.9873 -0.3327  1.2654
  353MOL0     H47645   2.356   7.401  11.191 -0.3206  0.4685 -1.1898
  353MOL0     H47646   2.535   7.424  11.195 -0.7148 -1.9952 -0.6669
  353MOL0     H47647   2.479   7.285  11.386  4.9755  0.6151  2.5012
  353MOL0     H47648   2.351   7.398  11.441 -0.9145  1.1684 -1.0700
  353MOL0     H47649   2.526   7.560  11.496  1.2934  0.2614 -1.7615
  353MOL0     H47650   2.646   7.464  11.421 -0.9033  1.8656 -0.0695
  353MOL0     H47651   2.489   7.384  11.659 -0.2515  3.3528 -1.8254
  353MOL0     H47652   2.641   7.451  11.670 -1.0410  0.4546  0.4662
  353MOL0     H47653   2.804   7.077  11.581  0.6314  0.7002  1.6408
  353MOL0     H47654   2.457   7.849  11.259  3.4289  1.0700  1.5744
  353MOL0     H47655   2.561   7.995  11.098 -4.2259  0.4179  0.6063
  354MOL0     O47656   0.713   2.577  11.038 -0.3430  0.1658 -0.0161
  354MOL0     C47657   0.611   2.511  11.052 -0.9099 -0.1597 -0.7423
  354MOL0     O47658   0.505   2.516  10.968 -0.1862 -0.1542  0.2568
  354MOL0     C47659   0.517   2.570  10.838  0.3795 -0.4478 -0.0981
  354MOL0     C47660   0.435   2.509  10.736 -0.1206  0.0582  0.2352
  354MOL0     C47661   0.441   2.549  10.603  0.7813  0.0336  0.5007
  354MOL0     C47662   0.519   2.661  10.568  0.7560 -0.9591  0.2175
  354MOL0     O47663   0.540   2.694  10.437 -0.0075  0.2891 -0.4808
  354MOL0     C47664   0.472   2.627  10.332 -0.6608  0.0099  0.2918
  354MOL0     C47665   0.316   2.651  10.311 -1.1496 -0.5006  1.1980
  354MOL0     C47666   0.284   2.799  10.335  0.5324 -0.5011 -0.3780
  354MOL0     C47667   0.141   2.837  10.301  0.6867  0.3489  0.2992
  354MOL0     C47668   0.100   2.976  10.355 -0.5525 -0.0590  0.0667
  354MOL0     C47669   0.145   3.096  10.263 -0.0951  0.4814 -0.1939
  354MOL0     C47670   0.070   3.218  10.320 -0.8340 -0.6240  0.4702
  354MOL0     C47671   0.150   3.347  10.269  0.4358  0.0450  0.3010
  354MOL0     N47672   0.155   3.346  10.119 -0.0428 -0.1915 -0.3242
  354MOL0     C47673   0.274   3.327  10.049  0.7735  0.0579 -0.0024
  354MOL0     C47674   0.243   3.332   9.920  0.3974 -0.0678 -0.3671
  354MOL0     C47675   0.338   3.295   9.811  0.3888 -0.4929 -0.6625
  354MOL0     C47676   0.333   3.374   9.684 -0.4254  0.2805 -0.3295
  354MOL0     C47677   0.393   3.521   9.719 -0.2609 -0.2539  0.3924
  354MOL0     C47678   0.441   3.593   9.588 -0.5042 -0.2076  0.4749
  354MOL0     O47679   0.569   3.668   9.600  0.1807  0.2275 -0.1051
  354MOL0     C47680   0.608   3.748   9.497 -0.2475  0.1101 -0.0903
  354MOL0     C47681   0.687   3.866   9.529 -0.9195  0.0923  0.1091
  354MOL0     C47682   0.751   3.945   9.422  0.1503 -0.4932  0.4028
  354MOL0     C47683   0.849   4.050   9.469 -0.5368 -0.0241 -0.7519
  354MOL0     C47684   0.724   3.922   9.282 -0.6187  0.8205  0.0240
  354MOL0     C47685   0.762   4.004   9.162  0.4887  0.8677 -0.2999
  354MOL0     O47686   0.679   3.973   9.055 -0.5291 -0.2437 -0.3559
  354MOL0     C47687   0.686   4.032   8.932 -0.9386 -0.2919 -0.0263
  354MOL0     C47688   0.803   4.109   8.883 -1.1292 -0.0600  0.4481
  354MOL0     C47689   0.795   4.166   8.749 -0.5441 -0.7805 -0.3039
  354MOL0     C47690   0.683   4.140   8.671  0.1409  0.3297  0.3721
  354MOL0     O47691   0.696   4.190   8.539  0.2287  0.4231 -0.5582
  354MOL0     C47692   0.597   4.153   8.442 -0.4511 -0.0697  0.4237
  354MOL0     C47693   0.665   4.195   8.312  0.8795  0.6221 -0.0327
  354MOL0     C47694   0.683   4.345   8.305 -0.8018  0.5200 -0.1011
  354MOL0     C47695   0.557   4.415   8.265  0.4838  0.6283  0.3663
  354MOL0     C47696   0.583   4.550   8.199  0.3592 -0.2004 -0.0633
  354MOL0     C47697   0.453   4.643   8.182  0.0449  0.8426 -0.2204
  354MOL0     C47698   0.390   4.640   8.035 -0.8150  0.7673  0.3244
  354MOL0     C47699   0.461   4.740   7.951  0.2517  0.3723  0.1472
  354MOL0    Cl47700   0.428   4.916   7.998  0.3921 -0.2853  0.6094
  354MOL0     C47701   0.578   4.062   8.724 -0.0686  1.1643 -0.2067
  354MOL0     C47702   0.574   4.018   8.852 -0.1518 -0.4029 -0.7380
  354MOL0     O47703   0.856   4.082   9.169 -0.8434 -0.8167 -0.6252
  354MOL0     C47704   0.644   3.801   9.268 -0.3450  0.3421 -0.0186
  354MOL0     C47705   0.595   3.718   9.366  1.3779 -0.0615  0.2730
  354MOL0     N47706   0.106   3.355   9.903  0.2115 -0.1716  0.1692
  354MOL0     N47707   0.058   3.371  10.024  0.9975 -0.2133 -0.5349
  354MOL0     C47708   0.574   2.728  10.676 -0.1982 -0.5253  0.2139
  354MOL0     C47709   0.592   2.685  10.800 -0.2439 -0.6549 -1.0245
  354MOL0     C47710   0.609   2.428  11.173 -0.0058  0.3025  0.0009
  354MOL0     C47711   0.517   2.328  11.192  0.3568 -0.3441 -0.0661
  354MOL0     C47712   0.509   2.253  11.311  0.3243 -0.3577 -0.0722
  354MOL0     C47713   0.603   2.278  11.419  0.8336 -0.2431  0.0444
  354MOL0     O47714   0.604   2.210  11.542  0.5551 -0.4482 -1.2855
  354MOL0     C47715   0.507   2.108  11.571 -0.6116 -0.2995  0.0184
  354MOL0     C47716   0.596   1.984  11.539  0.0697  0.1926 -0.1452
  354MOL0     C47717   0.498   1.863  11.510  0.1550  0.0719  0.3966
  354MOL0     C47718   0.587   1.750  11.490  0.8398  0.0236 -0.4608
  354MOL0     C47719   0.503   1.635  11.448  0.0717 -0.0965 -0.0930
  354MOL0     C47720   0.431   1.540  11.434  0.4401 -0.6342  1.4064
  354MOL0     C47721   0.679   2.391  11.404 -0.4475  0.0371  0.5805
  354MOL0     C47722   0.692   2.456  11.284  0.3792 -0.0749  0.1641
  354MOL0     H47723   0.368   2.427  10.760  1.1049 -0.9115  0.4712
  354MOL0     H47724   0.382   2.485  10.537  1.0120 -0.3782  0.6935
  354MOL0     H47725   0.525   2.650  10.239  1.2153  3.1781  1.9821
  354MOL0     H47726   0.481   2.520  10.353  0.7626 -0.1465 -0.9521
  354MOL0     H47727   0.283   2.631  10.209 -1.0199  0.6362  0.9138
  354MOL0     H47728   0.256   2.585  10.374 -1.1280  0.1774  1.9520
  354MOL0     H47729   0.285   2.812  10.444  0.4834 -5.9020  0.5433
  354MOL0     H47730   0.361   2.863  10.292  1.8159 -0.0575  2.3494
  354MOL0     H47731   0.125   2.848  10.193 -2.8967  0.9492  0.7687
  354MOL0     H47732   0.073   2.762  10.342  1.1222  0.4230  1.1651
  354MOL0     H47733  -0.009   2.981  10.367 -0.3416  0.8011  2.0522
  354MOL0     H47734   0.137   2.981  10.458 -1.1059 -1.1019  0.3393
  354MOL0     H47735   0.253   3.109  10.273 -0.3575  0.7930  3.7916
  354MOL0     H47736   0.108   3.076  10.162  0.0293  3.1018 -0.8092
  354MOL0     H47737  -0.036   3.217  10.292 -0.9183 -0.3939  0.7818
  354MOL0     H47738   0.085   3.234  10.427  0.8480 -1.2707  0.3635
  354MOL0     H47739   0.251   3.345  10.311  0.4617 -2.0548  0.2275
  354MOL0     H47740   0.090   3.433  10.301 -3.1625 -1.1245 -2.5961
  354MOL0     H47741   0.371   3.301  10.092 -0.4669 -1.8196  1.8567
  354MOL0     H47742   0.443   3.303   9.838  0.0116  2.1307  0.3518
  354MOL0     H47743   0.303   3.195   9.786 -2.1498 -0.3042  1.6605
  354MOL0     H47744   0.234   3.383   9.639 -2.0428  1.7985  3.1970
  354MOL0     H47745   0.391   3.327   9.604  0.5336 -0.1985  0.6175
  354MOL0     H47746   0.476   3.530   9.790  0.8210 -2.3123 -0.5104
  354MOL0     H47747   0.310   3.578   9.760 -1.6895 -0.2753 -2.3044
  354MOL0     H47748   0.371   3.666   9.547  1.4742  0.7708 -1.3517
  354MOL0     H47749   0.456   3.515   9.512  1.1691 -1.9359  2.4383
  354MOL0     H47750   0.700   3.903   9.630 -0.9621 -1.2522  0.6247
  354MOL0     H47751   0.840   4.145   9.415 -3.0623  1.0051  1.2667
  354MOL0     H47752   0.833   4.078   9.573  4.7099 -2.0979  0.9700
  354MOL0     H47753   0.954   4.021   9.462 -1.5870 -4.1020 -2.8253
  354MOL0     H47754   0.899   4.107   8.934 -0.4439 -0.4690 -0.8198
  354MOL0     H47755   0.865   4.231   8.699 -1.8993  1.8048  0.9618
  354MOL0     H47756   0.581   4.045   8.448  3.6131 -0.7711  3.3149
  354MOL0     H47757   0.504   4.207   8.461 -0.5819 -0.3614  0.6215
  354MOL0     H47758   0.764   4.149   8.321  1.4362  2.0816  1.9099
  354MOL0     H47759   0.611   4.156   8.225  2.7011 -2.5063  0.0894
  354MOL0     H47760   0.761   4.355   8.229 -2.0844  2.4195 -1.2358
  354MOL0     H47761   0.725   4.382   8.398 -0.7238 -1.5445  0.7400
  354MOL0     H47762   0.509   4.354   8.188  1.7092 -0.2379  0.2577
  354MOL0     H47763   0.496   4.427   8.356 -0.3575 -0.6677 -0.0022
  354MOL0     H47764   0.634   4.543   8.103 -0.4229  1.9470 -0.7023
  354MOL0     H47765   0.651   4.604   8.266  0.6231 -2.3160  1.4930
  354MOL0     H47766   0.389   4.616   8.266  3.1662 -2.8646  1.2761
  354MOL0     H47767   0.482   4.746   8.204 -0.4721  0.5600  2.1211
  354MOL0     H47768   0.282   4.657   8.034 -0.2337  6.0486 -0.2710
  354MOL0     H47769   0.400   4.543   7.984 -2.7526  1.0177 -0.6532
  354MOL0     H47770   0.437   4.741   7.844 -0.6771 -1.8090  0.2867
  354MOL0     H47771   0.569   4.723   7.954  0.5472  2.1019  1.9922
  354MOL0     H47772   0.489   4.043   8.664  0.7890 -0.6443 -0.9777
  354MOL0     H47773   0.484   3.973   8.891  0.4973 -0.6782  0.5222
  354MOL0     H47774   0.615   3.765   9.170  0.6232 -1.5509  0.3323
  354MOL0     H47775   0.535   3.634   9.331 -3.2085  3.4413 -1.3594
  354MOL0     H47776   0.630   2.818  10.651 -1.8643  0.6763  0.6483
  354MOL0     H47777   0.660   2.735  10.868 -2.2419 -0.6319  1.0721
  354MOL0     H47778   0.451   2.297  11.112  1.0185 -0.4497 -0.5819
  354MOL0     H47779   0.441   2.169  11.311 -2.3006  1.5817 -2.3828
  354MOL0     H47780   0.465   2.102  11.672 -3.0225  0.8902 -0.8337
  354MOL0     H47781   0.419   2.106  11.506 -0.2593 -1.4777 -0.4505
  354MOL0     H47782   0.667   1.956  11.617 -1.3882 -2.2890  0.4040
  354MOL0     H47783   0.654   2.005  11.449  1.2520  0.2694  0.6075
  354MOL0     H47784   0.432   1.885  11.425  2.2530  3.3146 -0.5922
  354MOL0     H47785   0.438   1.839  11.598  0.5682 -2.6497  0.0038
  354MOL0     H47786   0.619   1.719  11.589 -1.4861 -0.6155  0.1554
  354MOL0     H47787   0.670   1.768  11.421  0.2257 -0.0320 -1.2366
  354MOL0     H47788   0.370   1.453  11.418 -1.1692  0.8256 -0.9068
  354MOL0     H47789   0.747   2.414  11.485 -2.0967 -1.6938  2.6220
  354MOL0     H47790   0.765   2.534  11.263  1.4244 -1.3189 -1.0662
  355MOL0     O47791   0.179   6.448   7.311  0.6405 -0.1967  0.3121
  355MOL0     C47792   0.218   6.424   7.197 -0.6747  0.2021  0.3422
  355MOL0     O47793   0.139   6.421   7.094  0.6790  0.4540 -0.6608
  355MOL0     C47794   0.003   6.396   7.107 -0.9863  0.6864  0.5261
  355MOL0     C47795  -0.080   6.435   6.997  0.3095  0.0662  0.2634
  355MOL0     C47796  -0.218   6.416   6.991  0.7363  0.2357 -0.7691
  355MOL0     C47797  -0.279   6.362   7.111 -0.2497 -0.5367  0.0227
  355MOL0     O47798  -0.417   6.373   7.128 -0.4757 -0.5411 -0.4825
  355MOL0     C47799  -0.501   6.420   7.020  0.1768  0.4340 -0.5321
  355MOL0     C47800  -0.646   6.408   7.056  0.7478 -0.4585  0.0256
  355MOL0     C47801  -0.689   6.263   7.061 -0.2412  0.1759  0.6362
  355MOL0     C47802  -0.828   6.255   7.123 -0.6549  0.8666 -0.1763
  355MOL0     C47803  -0.898   6.118   7.097 -0.1512  0.0291 -0.1795
  355MOL0     C47804  -0.809   6.004   7.103 -1.0571  0.0390  0.1288
  355MOL0     C47805  -0.899   5.885   7.096 -1.2133 -0.8401  0.7182
  355MOL0     C47806  -0.824   5.748   7.079  0.6219  0.0734  0.0641
  355MOL0     N47807  -0.920   5.635   7.090  0.0869 -0.4579 -0.3837
  355MOL0     C47808  -0.990   5.602   7.203 -0.0725 -0.1284 -0.9161
  355MOL0     C47809  -1.100   5.533   7.161 -0.4434  0.2613  0.6581
  355MOL0     C47810  -1.213   5.487   7.250 -0.6952 -0.2096 -0.2966
  355MOL0     C47811  -1.325   5.420   7.169 -0.3753  0.8827 -0.3684
  355MOL0     C47812  -1.412   5.320   7.252  0.4563 -0.5975  0.0491
  355MOL0     C47813  -1.460   5.208   7.174 -0.6544 -0.4704  0.0847
  355MOL0     O47814  -1.476   5.087   7.254  0.3862 -0.0507  0.2812
  355MOL0     C47815  -1.473   4.962   7.190 -0.8246  0.4742 -0.6767
  355MOL0     C47816  -1.555   4.927   7.078 -0.9442 -1.0788  0.1498
  355MOL0     C47817  -1.558   4.796   7.025 -0.0150 -0.4184  0.6020
  355MOL0     C47818  -1.656   4.784   6.910 -0.6462  0.2740 -0.3009
  355MOL0     C47819  -1.475   4.700   7.070  0.7303  0.4959 -0.6358
  355MOL0     C47820  -1.455   4.559   7.012 -0.2737  0.3570  1.2656
  355MOL0     O47821  -1.344   4.484   7.057  0.1305 -1.0265 -0.5262
  355MOL0     C47822  -1.320   4.358   7.022 -0.0659 -0.1138 -1.5771
  355MOL0     C47823  -1.305   4.316   6.890  0.1456  1.2254  0.9027
  355MOL0     C47824  -1.277   4.179   6.871  0.1373 -1.3459  0.1665
  355MOL0     C47825  -1.262   4.090   6.971  0.3909  1.0129  0.8723
  355MOL0     O47826  -1.244   3.954   6.950 -0.2112  1.0803  0.5468
  355MOL0     C47827  -1.112   3.892   6.986 -0.7222 -0.1934  0.0939
  355MOL0     C47828  -1.136   3.736   6.988  0.0425 -1.0773  0.0828
  355MOL0     C47829  -0.991   3.660   6.978 -0.0118  0.2620  0.5282
  355MOL0     C47830  -1.009   3.512   7.026  0.4236 -0.0080  0.3258
  355MOL0     C47831  -0.866   3.456   7.039  1.1834  1.5753 -0.7030
  355MOL0     C47832  -0.869   3.299   7.038  0.1949 -1.1305 -0.6990
  355MOL0     C47833  -0.735   3.237   7.075  0.3633  0.1711 -0.9896
  355MOL0     C47834  -0.742   3.085   7.059 -0.3501  0.4639 -0.2193
  355MOL0    Cl47835  -0.581   3.027   7.097 -0.2679  0.4089 -0.0537
  355MOL0     C47836  -1.265   4.131   7.104  0.4777 -0.2484  0.5079
  355MOL0     C47837  -1.300   4.266   7.129 -0.2018 -0.4834 -0.1289
  355MOL0     O47838  -1.557   4.516   6.950 -0.3108 -0.2838 -0.8834
  355MOL0     C47839  -1.394   4.727   7.182 -0.7379  1.1904 -0.9724
  355MOL0     C47840  -1.380   4.862   7.232 -0.5305 -0.8564  0.5758
  355MOL0     N47841  -1.081   5.502   7.025 -0.6660 -0.6764  0.8055
  355MOL0     N47842  -0.981   5.582   6.980 -0.4394  0.0131 -0.4720
  355MOL0     C47843  -0.201   6.317   7.217 -1.1953  0.7004  0.7318
  355MOL0     C47844  -0.063   6.328   7.215 -0.1365  0.1203 -0.1237
  355MOL0     C47845   0.360   6.376   7.183 -0.6382  0.4243 -0.5580
  355MOL0     C47846   0.424   6.333   7.071 -0.1351 -0.5354  0.6193
  355MOL0     C47847   0.560   6.288   7.072  0.1769  0.6804 -0.4597
  355MOL0     C47848   0.627   6.281   7.194 -0.1553 -0.8184 -0.6725
  355MOL0     O47849   0.752   6.237   7.194 -0.4308  0.4592  0.0733
  355MOL0     C47850   0.796   6.140   7.295  0.3908 -0.1756  1.0518
  355MOL0     C47851   0.742   5.995   7.277 -0.3760 -0.5448  0.1763
  355MOL0     C47852   0.689   5.927   7.407  0.4731  0.4224 -0.0258
  355MOL0     C47853   0.786   5.928   7.523  0.1982  0.6375 -0.4475
  355MOL0     C47854   0.904   5.839   7.500 -0.3523  0.8125 -0.6804
  355MOL0     C47855   1.008   5.784   7.460  0.0471 -0.2876  0.8294
  355MOL0     C47856   0.569   6.328   7.311 -0.4850  0.3439 -0.0193
  355MOL0     C47857   0.438   6.374   7.301 -0.1300  0.1296 -0.2068
  355MOL0     H47858  -0.032   6.480   6.911  2.2645 -3.9294 -1.0154
  355MOL0     H47859  -0.269   6.449   6.900  1.5417  1.9233 -0.6568
  355MOL0     H47860  -0.468   6.519   6.988 -0.4818  2.0803  3.3177
  355MOL0     H47861  -0.489   6.347   6.940  2.2513  0.2204 -0.0985
  355MOL0     H47862  -0.689   6.468   7.136 -2.5748 -1.2994 -0.9402
  355MOL0     H47863  -0.702   6.445   6.970 -0.5582 -2.8500 -0.2593
  355MOL0     H47864  -0.690   6.221   6.960 -0.2358  0.4208  0.5330
  355MOL0     H47865  -0.624   6.203   7.126 -1.1482  1.5917  2.9633
  355MOL0     H47866  -0.825   6.280   7.230  2.0083  2.3887 -0.5261
  355MOL0     H47867  -0.888   6.333   7.075  0.0677  3.9264  3.3749
  355MOL0     H47868  -0.976   6.104   7.172 -2.8142  0.9711 -2.6075
  355MOL0     H47869  -0.946   6.124   6.999 -2.8201  2.2894  1.1376
  355MOL0     H47870  -0.729   6.010   7.029 -0.2842  0.4945  0.9701
  355MOL0     H47871  -0.760   6.019   7.200  0.1118  0.6240 -0.5287
  355MOL0     H47872  -0.951   5.888   7.192  1.9664 -0.2248  2.5518
  355MOL0     H47873  -0.957   5.903   7.005  0.6851 -1.3778 -0.6623
  355MOL0     H47874  -0.759   5.754   7.167  1.0607  0.3114 -0.2679
  355MOL0     H47875  -0.789   5.746   6.975  0.0291 -1.2714 -0.1303
  355MOL0     H47876  -0.961   5.620   7.306 -0.4142  0.3505 -0.9002
  355MOL0     H47877  -1.172   5.412   7.318  0.5407  0.6590 -0.0507
  355MOL0     H47878  -1.252   5.574   7.304 -1.5896 -1.7208  1.5917
  355MOL0     H47879  -1.275   5.358   7.094 -1.1378 -0.1197 -0.0600
  355MOL0     H47880  -1.386   5.498   7.123  0.3560  2.0714  0.6257
  355MOL0     H47881  -1.484   5.378   7.310  0.9750 -0.5274  0.6355
  355MOL0     H47882  -1.342   5.269   7.319  3.6307  0.5042 -2.1619
  355MOL0     H47883  -1.395   5.190   7.088 -2.5169  0.5673 -1.6078
  355MOL0     H47884  -1.555   5.229   7.124  0.4384  2.0881 -1.0565
  355MOL0     H47885  -1.627   5.007   7.061  0.1801  0.3415  1.6352
  355MOL0     H47886  -1.713   4.874   6.886  0.4619  0.9478 -0.4510
  355MOL0     H47887  -1.584   4.762   6.831 -0.1266 -0.2201  0.2950
  355MOL0     H47888  -1.722   4.697   6.920  0.4428 -0.6091 -0.6160
  355MOL0     H47889  -1.312   4.389   6.811 -0.3225 -1.7054 -1.9812
  355MOL0     H47890  -1.270   4.155   6.765 -1.2031 -0.2200 -0.2141
  355MOL0     H47891  -1.038   3.909   6.907 -1.0158  1.8163  0.2007
  355MOL0     H47892  -1.064   3.919   7.081 -2.7868 -2.4465  1.9176
  355MOL0     H47893  -1.188   3.718   7.082  1.6703 -2.7147  0.7395
  355MOL0     H47894  -1.203   3.711   6.906  0.1427 -3.0854  0.5481
  355MOL0     H47895  -0.918   3.716   7.038  1.0418 -1.2966  0.7437
  355MOL0     H47896  -0.953   3.655   6.876 -1.3102 -0.7472  0.0671
  355MOL0     H47897  -1.068   3.508   7.117 -1.6210 -0.3375 -0.9452
  355MOL0     H47898  -1.063   3.460   6.946  2.6854  0.9999 -2.0077
  355MOL0     H47899  -0.836   3.480   7.142 -3.3723 -1.9900  1.8568
  355MOL0     H47900  -0.803   3.492   6.958  1.0280  1.1019 -1.0379
  355MOL0     H47901  -0.946   3.276   7.113  1.1303  1.0370  1.0424
  355MOL0     H47902  -0.903   3.262   6.941  0.2970 -0.9533 -0.8014
  355MOL0     H47903  -0.723   3.263   7.181 -1.2498 -1.2897 -0.3932
  355MOL0     H47904  -0.658   3.276   7.008  0.6299 -0.6950 -1.1911
  355MOL0     H47905  -0.758   3.072   6.952 -1.0875 -0.6193  0.0058
  355MOL0     H47906  -0.820   3.047   7.127  2.0926 -0.6258  2.1598
  355MOL0     H47907  -1.236   4.053   7.174  2.0589 -2.5543 -2.4660
  355MOL0     H47908  -1.310   4.300   7.232  4.1702  0.4409  0.1996
  355MOL0     H47909  -1.329   4.650   7.222 -0.4234  0.3588 -2.9567
  355MOL0     H47910  -1.316   4.879   7.318 -0.9445 -0.2767  0.7806
  355MOL0     H47911  -0.242   6.279   7.311  2.1659 -2.1355  1.2326
  355MOL0     H47912  -0.012   6.279   7.297 -2.1234 -0.6401  0.7204
  355MOL0     H47913   0.383   6.342   6.971 -0.3762 -1.6448  0.6078
  355MOL0     H47914   0.629   6.245   6.999 -0.2022 -1.2992  0.2811
  355MOL0     H47915   0.905   6.128   7.302  0.0593 -4.4721  1.8728
  355MOL0     H47916   0.773   6.177   7.395 -2.3545  0.8516  0.1165
  355MOL0     H47917   0.824   5.935   7.234  1.1718 -0.0178  2.2525
  355MOL0     H47918   0.659   6.003   7.206 -0.3550  1.4024  0.3200
  355MOL0     H47919   0.664   5.822   7.391 -1.1038  0.7722 -0.0499
  355MOL0     H47920   0.594   5.970   7.441  1.6090  1.9588  1.3971
  355MOL0     H47921   0.745   5.886   7.615 -1.2632 -1.2732 -1.8880
  355MOL0     H47922   0.826   6.028   7.540 -0.7120  0.5551  3.1213
  355MOL0     H47923   1.098   5.745   7.417  0.7527  1.1789  0.8912
  355MOL0     H47924   0.619   6.328   7.407  0.0649  0.4576 -0.2992
  355MOL0     H47925   0.407   6.414   7.397  2.3229  0.1900  0.6444
  356MOL0     O47926   6.949  11.305   8.280 -0.3025 -0.2836 -0.0369
  356MOL0     C47927   6.927  11.410   8.224 -0.3738 -0.7197  0.4138
  356MOL0     O47928   6.832  11.433   8.126 -0.2920 -0.1712  0.7440
  356MOL0     C47929   6.733  11.331   8.113 -0.6438  0.0143 -0.0599
  356MOL0     C47930   6.615  11.344   8.183 -1.3895  0.4081  0.3887
  356MOL0     C47931   6.516  11.243   8.181 -0.7287  0.9487  0.0315
  356MOL0     C47932   6.543  11.129   8.096 -0.8328  0.2141 -0.5829
  356MOL0     O47933   6.462  11.024   8.072  0.4061  0.4934 -0.0839
  356MOL0     C47934   6.356  11.005   8.171 -0.6854 -0.0346  0.3139
  356MOL0     C47935   6.346  10.854   8.186 -0.1536  0.2170 -0.2969
  356MOL0     C47936   6.283  10.780   8.078  0.4348  1.7675  1.4228
  356MOL0     C47937   6.186  10.661   8.108  0.0157 -0.3914 -0.0458
  356MOL0     C47938   6.055  10.707   8.185 -0.6161  0.4912 -0.1976
  356MOL0     C47939   5.961  10.791   8.099 -0.1973 -0.5152 -0.2409
  356MOL0     C47940   5.908  10.734   7.978 -0.8189  0.4470  0.5393
  356MOL0     C47941   5.797  10.816   7.909  0.2431 -0.4806  0.5993
  356MOL0     N47942   5.854  10.952   7.877  0.3890  0.4826 -0.7590
  356MOL0     C47943   5.833  11.071   7.937 -0.2696 -0.1338 -0.1518
  356MOL0     C47944   5.923  11.156   7.879  0.1312 -0.6804  0.2557
  356MOL0     C47945   5.935  11.304   7.918  0.5190 -0.4769  0.1542
  356MOL0     C47946   5.802  11.374   7.921 -0.6772 -0.1366 -0.2697
  356MOL0     C47947   5.793  11.531   7.925 -0.2120 -0.3518  0.4422
  356MOL0     C47948   5.684  11.586   8.007 -0.2716  0.4443 -0.1543
  356MOL0     O47949   5.724  11.563   8.146  0.6325  0.2972  0.4079
  356MOL0     C47950   5.745  11.672   8.229 -0.4410 -0.8331 -0.5461
  356MOL0     C47951   5.837  11.770   8.189 -0.0977 -0.1566 -0.8333
  356MOL0     C47952   5.880  11.864   8.277  0.0079  0.5599  0.2068
  356MOL0     C47953   5.992  11.967   8.231 -0.1462  0.2558 -0.5565
  356MOL0     C47954   5.801  11.874   8.398 -0.0195 -0.0249 -0.2266
  356MOL0     C47955   5.826  11.979   8.498  0.2045  0.2964  0.2289
  356MOL0     O47956   5.827  11.931   8.633  0.0164  0.4162  0.7041
  356MOL0     C47957   5.837  12.020   8.737 -0.9805  0.9624  0.1048
  356MOL0     C47958   5.907  11.980   8.850 -0.2899 -0.8991 -0.5377
  356MOL0     C47959   5.912  12.069   8.962  0.4623 -0.7302 -0.3988
  356MOL0     C47960   5.883  12.211   8.957 -0.5500  0.3549  1.2700
  356MOL0     O47961   5.910  12.281   9.063 -0.4616 -0.5448 -0.9072
  356MOL0     C47962   5.881  12.420   9.065 -0.7129 -0.7640 -0.8185
  356MOL0     C47963   5.876  12.478   9.205 -1.1789 -0.2488 -0.7828
  356MOL0     C47964   5.833  12.626   9.212  0.0071  0.8601  0.2090
  356MOL0     C47965   5.689  12.644   9.178  1.0206 -0.4086  1.3649
  356MOL0     C47966   5.667  12.797   9.176  0.3158  0.8930  0.0950
  356MOL0     C47967   5.543  12.843   9.109  0.3452 -0.0461 -0.2782
  356MOL0     C47968   5.411  12.795   9.183  0.1453  0.2017  0.2427
  356MOL0     C47969   5.394  12.834   9.334 -0.4419 -0.0171  0.9522
  356MOL0    Cl47970   5.411  13.009   9.367  0.2171  0.4825  0.4386
  356MOL0     C47971   5.829  12.253   8.831  0.3327  0.6438  0.6652
  356MOL0     C47972   5.803  12.153   8.729  0.4670 -0.0959  0.3440
  356MOL0     O47973   5.862  12.091   8.462 -0.6277 -0.8006  0.7500
  356MOL0     C47974   5.702  11.776   8.443 -0.9811  0.2974 -0.8405
  356MOL0     C47975   5.680  11.676   8.353 -0.5352  0.0816  0.2933
  356MOL0     N47976   5.995  11.092   7.788 -0.0550  0.6260 -0.3359
  356MOL0     N47977   5.956  10.968   7.789 -0.0935 -0.1061 -0.9999
  356MOL0     C47978   6.662  11.116   8.033 -1.2505 -0.6043 -0.3792
  356MOL0     C47979   6.755  11.214   8.044 -0.3585  0.5497  0.3792
  356MOL0     C47980   7.003  11.532   8.253 -0.2199  0.0073  0.1714
  356MOL0     C47981   7.125  11.519   8.336 -0.7545 -0.2530  0.5095
  356MOL0     C47982   7.193  11.632   8.366  0.0067 -0.7246  0.1061
  356MOL0     C47983   7.146  11.762   8.341 -0.4401  0.9101  0.1929
  356MOL0     O47984   7.216  11.862   8.402 -0.6735  0.3864 -1.0674
  356MOL0     C47985   7.150  11.987   8.395  0.7708 -0.5928 -0.3196
  356MOL0     C47986   7.207  12.088   8.490 -0.1013  0.1670  0.4620
  356MOL0     C47987   7.168  12.078   8.633 -0.5483 -0.1341 -0.7126
  356MOL0     C47988   7.212  11.943   8.681  0.2921  0.0659 -0.6980
  356MOL0     C47989   7.218  11.933   8.829  0.2183  0.6580  0.7885
  356MOL0     C47990   7.224  11.931   8.952  0.3552 -0.6827  0.3820
  356MOL0     C47991   7.033  11.762   8.245 -0.6304 -0.6417 -0.8535
  356MOL0     C47992   6.972  11.650   8.208  0.9217  0.7589 -0.0543
  356MOL0     H47993   6.600  11.430   8.247 -0.3074 -0.6386  2.1306
  356MOL0     H47994   6.418  11.251   8.227  0.2050  0.9727  2.1492
  356MOL0     H47995   6.385  11.038   8.271 -2.6074 -0.4821  1.0612
  356MOL0     H47996   6.258  11.043   8.138  0.2810  1.4641 -0.9638
  356MOL0     H47997   6.448  10.815   8.195  0.3124  1.2229 -0.9908
  356MOL0     H47998   6.287  10.835   8.277  0.6572  0.2591  0.2470
  356MOL0     H47999   6.243  10.850   8.004  0.5237  0.3649  0.0146
  356MOL0     H48000   6.360  10.731   8.019 -1.0079  0.6590  0.3876
  356MOL0     H48001   6.156  10.597   8.024 -0.3394  0.4651 -0.5937
  356MOL0     H48002   6.251  10.602   8.173 -0.8827  1.8055  3.0986
  356MOL0     H48003   6.008  10.613   8.217 -0.7895  0.8178  0.5112
  356MOL0     H48004   6.073  10.766   8.274  0.9949 -0.3292  0.0501
  356MOL0     H48005   5.876  10.815   8.163 -0.1244  1.2315 -0.7419
  356MOL0     H48006   6.019  10.882   8.078 -0.9640  0.7052  2.4916
  356MOL0     H48007   5.987  10.718   7.903 -1.5498  3.2463 -0.9886
  356MOL0     H48008   5.866  10.638   8.010  0.8002 -0.7679 -0.7698
  356MOL0     H48009   5.709  10.814   7.975  2.3380 -0.6197  3.6153
  356MOL0     H48010   5.771  10.756   7.821 -0.1011 -2.8457  2.2099
  356MOL0     H48011   5.779  11.094   8.028  2.1606  0.4519  1.2227
  356MOL0     H48012   5.985  11.312   8.015 -1.1011 -1.5442  1.1262
  356MOL0     H48013   5.999  11.355   7.845 -0.6335 -0.8498 -1.1740
  356MOL0     H48014   5.742  11.324   7.998 -4.1849  1.8429 -1.4785
  356MOL0     H48015   5.762  11.340   7.825 -0.5162  0.2297 -0.4689
  356MOL0     H48016   5.786  11.560   7.820  1.7897 -1.7270 -0.1423
  356MOL0     H48017   5.894  11.567   7.946 -0.3184  0.8802 -1.0065
  356MOL0     H48018   5.592  11.534   7.979 -0.6224  0.6171  0.6656
  356MOL0     H48019   5.680  11.694   7.990  0.9211  0.5170 -0.0142
  356MOL0     H48020   5.897  11.751   8.100  0.3064  0.0962 -0.6183
  356MOL0     H48021   6.051  11.920   8.152  0.8015  0.8574 -0.2291
  356MOL0     H48022   5.951  12.056   8.184  1.0057  0.2104 -1.7075
  356MOL0     H48023   6.057  11.993   8.315 -0.7416  1.4104 -0.4364
  356MOL0     H48024   5.945  11.879   8.858 -1.6397 -1.4017 -0.2093
  356MOL0     H48025   5.956  12.027   9.052  0.4218 -0.6454 -0.3390
  356MOL0     H48026   5.952  12.471   8.999 -1.4213 -0.4654 -1.3540
  356MOL0     H48027   5.784  12.446   9.023 -0.2351  1.5804 -0.6183
  356MOL0     H48028   5.806  12.415   9.261 -0.4733 -0.1848  0.1958
  356MOL0     H48029   5.972  12.455   9.250 -3.0894 -4.5836  1.6816
  356MOL0     H48030   5.904  12.681   9.149 -3.1323  2.5511 -2.0976
  356MOL0     H48031   5.859  12.657   9.314 -2.0521  2.9354  0.1617
  356MOL0     H48032   5.665  12.600   9.081 -1.4077 -1.6069  2.4142
  356MOL0     H48033   5.625  12.595   9.252 -2.2223 -1.0133 -1.6102
  356MOL0     H48034   5.758  12.835   9.129  1.6474 -1.8321  0.2786
  356MOL0     H48035   5.651  12.817   9.282 -3.0862 -2.0488  0.3175
  356MOL0     H48036   5.528  12.951   9.101 -4.5853 -0.5532 -0.9668
  356MOL0     H48037   5.547  12.807   9.006 -0.2699 -1.8966  0.3010
  356MOL0     H48038   5.398  12.686   9.183  1.2119  0.0536  1.0423
  356MOL0     H48039   5.327  12.843   9.132 -0.1884  0.1441  0.7296
  356MOL0     H48040   5.465  12.774   9.391  1.6685  0.1178 -1.3568
  356MOL0     H48041   5.300  12.798   9.377 -0.7593  1.0027  1.1532
  356MOL0     H48042   5.789  12.352   8.814 -1.8070 -0.2214  0.4334
  356MOL0     H48043   5.761  12.197   8.638 -0.2243 -0.1657  0.6244
  356MOL0     H48044   5.650  11.783   8.538  0.2055  0.2438 -0.1677
  356MOL0     H48045   5.607  11.597   8.370 -0.5667 -0.2011 -1.0851
  356MOL0     H48046   6.689  11.023   7.984  2.3044 -0.9492  1.7997
  356MOL0     H48047   6.847  11.209   7.987  1.0816  0.4555  2.6123
  356MOL0     H48048   7.166  11.424   8.367  1.3573  1.5938  4.0677
  356MOL0     H48049   7.289  11.623   8.416  1.1433  1.7161 -1.4239
  356MOL0     H48050   7.169  12.020   8.293 -1.9874  1.6836 -0.2131
  356MOL0     H48051   7.042  11.972   8.404  0.7809  0.1657  1.7006
  356MOL0     H48052   7.177  12.187   8.455  0.9234  0.0291 -0.8795
  356MOL0     H48053   7.316  12.076   8.490 -0.2186 -1.2735 -1.2679
  356MOL0     H48054   7.061  12.097   8.645 -1.1360 -2.2588 -2.0138
  356MOL0     H48055   7.222  12.161   8.680 -1.5974  1.1802 -1.7386
  356MOL0     H48056   7.312  11.913   8.648  0.1908 -0.1688 -0.7964
  356MOL0     H48057   7.139  11.867   8.652  0.6536 -1.3086  1.7093
  356MOL0     H48058   7.222  11.926   9.059 -2.1598 -1.3073  0.3695
  356MOL0     H48059   6.998  11.857   8.207 -0.4458  0.3034  1.2140
  356MOL0     H48060   6.883  11.664   8.147 -0.1780 -3.3665  0.2961
  357MOL0     O48061  11.322   4.608   5.155  0.3455 -0.2180  0.0365
  357MOL0     C48062  11.378   4.526   5.084 -0.5311 -0.1778 -0.0331
  357MOL0     O48063  11.317   4.429   5.021 -0.1692  0.5981  0.9902
  357MOL0     C48064  11.196   4.453   4.964  0.4754 -1.5981  0.5358
  357MOL0     C48065  11.169   4.559   4.872 -0.0181 -0.4044  0.1813
  357MOL0     C48066  11.042   4.584   4.810 -0.4347  1.1055 -0.7397
  357MOL0     C48067  10.941   4.492   4.847  0.6522  0.4823  0.7779
  357MOL0     O48068  10.820   4.496   4.786  0.0975 -0.0073  0.5743
  357MOL0     C48069  10.814   4.505   4.640  0.0677 -0.0937  0.2888
  357MOL0     C48070  10.769   4.369   4.578 -0.5351 -0.5407 -0.5015
  357MOL0     C48071  10.640   4.308   4.643 -0.5854  0.0532  0.1663
  357MOL0     C48072  10.514   4.396   4.616 -0.0968 -0.6294 -0.0500
  357MOL0     C48073  10.398   4.351   4.712 -0.4772 -0.9843 -0.2663
  357MOL0     C48074  10.330   4.220   4.660  0.3455  0.9063  0.4835
  357MOL0     C48075  10.206   4.252   4.569  1.0840 -0.1289 -0.7859
  357MOL0     C48076  10.112   4.136   4.555 -0.5700 -0.1012  0.6145
  357MOL0     N48077  10.021   4.117   4.670 -0.2109  0.4790  0.8090
  357MOL0     C48078   9.959   4.220   4.739 -0.5311  0.4150 -0.7271
  357MOL0     C48079   9.907   4.167   4.852  0.5141  0.5208  0.0732
  357MOL0     C48080   9.833   4.238   4.968 -0.3925 -0.5918  0.0953
  357MOL0     C48081   9.840   4.387   4.955  0.3123 -0.2941  0.6935
  357MOL0     C48082   9.788   4.461   5.070  0.9435 -0.7746 -0.6000
  357MOL0     C48083   9.884   4.486   5.190 -0.3866 -0.9301  0.1987
  357MOL0     O48084   9.995   4.577   5.152 -0.2010  0.4988 -0.3912
  357MOL0     C48085  10.082   4.580   5.249  0.6753  0.6222 -0.3260
  357MOL0     C48086  10.165   4.475   5.278  0.4781  0.8842  0.8119
  357MOL0     C48087  10.254   4.458   5.389 -0.4303  0.3863  0.6317
  357MOL0     C48088  10.315   4.317   5.397 -0.0326 -0.8100 -0.5524
  357MOL0     C48089  10.265   4.574   5.468 -0.4485 -0.4314  0.0119
  357MOL0     C48090  10.364   4.578   5.572  0.1532  0.1384  0.5276
  357MOL0     O48091  10.357   4.691   5.649 -0.6310 -0.3866  0.1897
  357MOL0     C48092  10.406   4.681   5.782  0.0866 -0.3213 -0.3056
  357MOL0     C48093  10.388   4.566   5.862 -1.2676  0.0832 -0.2240
  357MOL0     C48094  10.442   4.550   5.988  0.0192  0.0604  1.2632
  357MOL0     C48095  10.510   4.658   6.054  0.0832 -0.3877  0.1325
  357MOL0     O48096  10.584   4.633   6.170  0.2956 -0.3314  0.3968
  357MOL0     C48097  10.501   4.592   6.282  0.3379 -0.0735  0.5398
  357MOL0     C48098  10.584   4.553   6.402 -0.9244 -0.0074  1.3126
  357MOL0     C48099  10.491   4.472   6.482  0.4984 -0.1185  0.3404
  357MOL0     C48100  10.567   4.438   6.612  0.1993 -0.7449 -0.1718
  357MOL0     C48101  10.458   4.376   6.711 -0.1601  0.0006 -0.1300
  357MOL0     C48102  10.490   4.410   6.862  0.3327 -0.9244 -0.4884
  357MOL0     C48103  10.611   4.335   6.909 -0.0274 -0.2377  1.1381
  357MOL0     C48104  10.660   4.364   7.047 -0.0471  0.0943  0.1820
  357MOL0    Cl48105  10.554   4.293   7.168  0.3998  0.0252 -0.0192
  357MOL0     C48106  10.522   4.772   5.973  0.5614 -0.4538 -0.7128
  357MOL0     C48107  10.480   4.782   5.843  0.4115  0.6679 -0.1851
  357MOL0     O48108  10.450   4.493   5.583 -0.1382  0.3578  0.2913
  357MOL0     C48109  10.197   4.690   5.426 -0.4729  0.6104 -0.1896
  357MOL0     C48110  10.106   4.691   5.330 -0.5858 -0.2348 -0.2992
  357MOL0     N48111   9.938   4.036   4.854  0.4107  0.2292 -0.8189
  357MOL0     N48112  10.014   4.008   4.754 -0.3545  0.2521  0.4180
  357MOL0     C48113  10.963   4.391   4.943 -0.3282  0.5896  0.5643
  357MOL0     C48114  11.091   4.371   5.006 -0.3491  0.6097 -1.2239
  357MOL0     C48115  11.528   4.496   5.098  0.0846  0.1317  0.2197
  357MOL0     C48116  11.587   4.418   4.996 -0.9232 -0.2147  0.4643
  357MOL0     C48117  11.728   4.417   4.981 -0.0580 -0.2952 -0.1822
  357MOL0     C48118  11.808   4.477   5.076  0.5187  0.1689  0.5435
  357MOL0     O48119  11.943   4.475   5.055 -0.7347  0.2561 -0.0582
  357MOL0     C48120  12.006   4.584   4.990 -0.0844  0.2556  0.3402
  357MOL0     C48121  12.018   4.574   4.839  0.8257 -0.4170 -0.1573
  357MOL0     C48122  12.076   4.449   4.764  0.5181 -0.5614 -0.3631
  357MOL0     C48123  12.185   4.479   4.669  0.0989 -0.4555 -0.3082
  357MOL0     C48124  12.220   4.361   4.586  0.1297  0.0052 -0.6408
  357MOL0     C48125  12.216   4.281   4.495  0.2117  0.6408  0.6974
  357MOL0     C48126  11.747   4.522   5.193  0.0418  0.5626 -0.1856
  357MOL0     C48127  11.618   4.548   5.196  0.4118 -0.0454  1.0016
  357MOL0     H48128  11.250   4.628   4.851 -1.9128  1.5101 -1.3883
  357MOL0     H48129  11.030   4.669   4.744 -0.4436  2.6700  1.1544
  357MOL0     H48130  10.737   4.578   4.610 -2.6601 -3.4624 -1.7090
  357MOL0     H48131  10.908   4.538   4.594 -0.4661 -0.7012 -1.3015
  357MOL0     H48132  10.766   4.386   4.470  2.1686 -1.2075 -0.7599
  357MOL0     H48133  10.846   4.293   4.597 -0.4862 -0.3280  0.1788
  357MOL0     H48134  10.633   4.205   4.607  0.3117  0.4115 -1.1281
  357MOL0     H48135  10.660   4.316   4.750  0.3960 -0.4404  0.0336
  357MOL0     H48136  10.531   4.501   4.641 -2.8976  0.1390 -1.1009
  357MOL0     H48137  10.499   4.390   4.508  1.7324 -0.5398 -0.3530
  357MOL0     H48138  10.422   4.344   4.818  0.6014 -0.1165 -0.4332
  357MOL0     H48139  10.324   4.432   4.710 -2.3245 -2.5828 -2.0027
  357MOL0     H48140  10.407   4.169   4.601 -0.4063 -0.8908  0.9928
  357MOL0     H48141  10.302   4.160   4.747  1.3515 -2.3155 -1.2452
  357MOL0     H48142  10.153   4.339   4.609  1.8416 -0.8452  1.9822
  357MOL0     H48143  10.258   4.284   4.478  0.0909  0.5007 -1.1463
  357MOL0     H48144  10.176   4.049   4.535  0.1514  0.3469  0.9233
  357MOL0     H48145  10.037   4.163   4.480 -1.3093  1.4928  1.8901
  357MOL0     H48146   9.960   4.327   4.718  0.9575  1.2907  3.0198
  357MOL0     H48147   9.729   4.204   4.971 -0.4271 -0.7940 -2.1006
  357MOL0     H48148   9.878   4.210   5.064 -1.3265 -0.3726  0.6131
  357MOL0     H48149   9.778   4.404   4.867 -1.3820  1.1162  2.0938
  357MOL0     H48150   9.940   4.427   4.935  0.2867  0.0805  1.2843
  357MOL0     H48151   9.699   4.406   5.103  2.0902 -3.9018 -2.3470
  357MOL0     H48152   9.766   4.561   5.029  2.1533 -1.0858 -2.0993
  357MOL0     H48153   9.926   4.395   5.235 -1.4969 -0.3495  2.5674
  357MOL0     H48154   9.823   4.538   5.264 -3.2856 -0.5898 -2.2473
  357MOL0     H48155  10.147   4.389   5.214  1.6851  1.1103  0.1385
  357MOL0     H48156  10.283   4.256   5.312 -0.9799  1.9995 -2.3532
  357MOL0     H48157  10.423   4.330   5.387 -0.3076  1.9551 -0.6905
  357MOL0     H48158  10.295   4.269   5.493  0.1200  1.1739  0.5250
  357MOL0     H48159  10.326   4.486   5.823 -1.9781  0.7365 -0.4644
  357MOL0     H48160  10.427   4.460   6.047  0.7875  0.5781  2.2799
  357MOL0     H48161  10.437   4.674   6.315  1.0458 -0.5701  3.4906
  357MOL0     H48162  10.428   4.515   6.255  0.3790 -0.1193  0.5568
  357MOL0     H48163  10.674   4.496   6.376 -2.5714 -0.8412 -3.7969
  357MOL0     H48164  10.614   4.642   6.457  1.9482 -1.9095  3.0794
  357MOL0     H48165  10.469   4.384   6.420  0.6274  1.4315 -2.0200
  357MOL0     H48166  10.399   4.529   6.497  1.9654  3.6444 -3.2413
  357MOL0     H48167  10.641   4.365   6.579 -1.4629 -3.9016  2.5588
  357MOL0     H48168  10.625   4.523   6.649  0.7790 -1.6262  0.9930
  357MOL0     H48169  10.463   4.268   6.697  1.5741 -0.0342  0.4289
  357MOL0     H48170  10.357   4.415   6.699  0.2429  2.3410  2.7679
  357MOL0     H48171  10.497   4.519   6.874 -1.0741 -0.8062 -0.5379
  357MOL0     H48172  10.405   4.379   6.924 -0.6287  0.9511 -0.7800
  357MOL0     H48173  10.691   4.350   6.836 -2.2159 -2.2754 -1.9270
  357MOL0     H48174  10.594   4.227   6.902 -0.0366 -0.3663  2.8759
  357MOL0     H48175  10.651   4.470   7.073 -0.9075  0.8719 -2.9262
  357MOL0     H48176  10.763   4.339   7.077 -0.1478 -2.0655 -1.0597
  357MOL0     H48177  10.569   4.858   6.021  3.9511 -1.6535 -1.5608
  357MOL0     H48178  10.507   4.869   5.785  0.4858  1.0318  0.3832
  357MOL0     H48179  10.202   4.773   5.496 -0.5278 -1.4382  2.4388
  357MOL0     H48180  10.037   4.773   5.318 -1.9667 -1.6867 -3.6426
  357MOL0     H48181  10.887   4.321   4.977 -0.9536  1.3796  0.8415
  357MOL0     H48182  11.104   4.301   5.088 -0.8207  1.2857 -0.5629
  357MOL0     H48183  11.524   4.368   4.923  0.9752 -0.4806 -1.0700
  357MOL0     H48184  11.767   4.366   4.893 -0.1433 -3.5447  1.5014
  357MOL0     H48185  11.953   4.677   5.014 -1.1314 -0.6869  1.8786
  357MOL0     H48186  12.105   4.595   5.035 -1.3775  5.9792  2.7662
  357MOL0     H48187  12.092   4.653   4.824  1.9184 -1.6905 -1.7755
  357MOL0     H48188  11.927   4.620   4.798  1.1098  1.8224  1.5065
  357MOL0     H48189  11.995   4.397   4.712 -0.3666  2.6315 -2.4961
  357MOL0     H48190  12.103   4.383   4.847  0.3077 -3.1418 -2.2227
  357MOL0     H48191  12.266   4.529   4.722 -1.1205  0.2588  0.9212
  357MOL0     H48192  12.140   4.554   4.603 -3.9051 -2.5082 -0.2327
  357MOL0     H48193  12.216   4.210   4.415  0.2451 -1.5319  2.5345
  357MOL0     H48194  11.804   4.564   5.275 -0.8784 -0.4617  1.0295
  357MOL0     H48195  11.585   4.605   5.282  0.3028 -2.0942  2.4076
  358MOL0     O48196  10.467   8.364   3.598 -0.7775 -0.1619 -0.1048
  358MOL0     C48197  10.579   8.421   3.603  0.7380 -0.6150  0.0035
  358MOL0     O48198  10.696   8.369   3.564 -0.3045  0.5367  0.5928
  358MOL0     C48199  10.701   8.250   3.498  1.0346  0.3932 -0.5511
  358MOL0     C48200  10.819   8.229   3.427 -0.0699 -0.2890 -0.6630
  358MOL0     C48201  10.843   8.116   3.350 -0.1023 -0.0893 -0.1621
  358MOL0     C48202  10.738   8.021   3.333  0.7446 -0.3988 -0.0085
  358MOL0     O48203  10.769   7.907   3.265 -0.0889  0.3404  0.3399
  358MOL0     C48204  10.763   7.780   3.324 -1.7949  0.1504 -0.6873
  358MOL0     C48205  10.904   7.768   3.377 -0.2773 -0.5208 -0.1124
  358MOL0     C48206  11.011   7.772   3.264  0.4067  0.0855 -0.2072
  358MOL0     C48207  11.158   7.755   3.320  0.1323  0.6672  0.0594
  358MOL0     C48208  11.259   7.716   3.220 -0.1112  0.0188  0.2620
  358MOL0     C48209  11.402   7.718   3.259 -0.2856  1.4703  0.1993
  358MOL0     C48210  11.487   7.621   3.170 -0.7403  0.6103  0.0951
  358MOL0     C48211  11.630   7.605   3.215 -0.4314 -1.1143  0.6716
  358MOL0     N48212  11.719   7.716   3.168 -1.0785  0.0456  0.9678
  358MOL0     C48213  11.770   7.725   3.042  0.3187  0.6153 -0.3737
  358MOL0     C48214  11.815   7.854   3.025 -0.4855  0.0919 -0.0234
  358MOL0     C48215  11.902   7.896   2.910 -0.0690  0.9658 -0.9183
  358MOL0     C48216  11.819   7.903   2.778 -0.6197 -0.5877 -0.4575
  358MOL0     C48217  11.685   7.974   2.788  0.2633  0.7184 -0.4902
  358MOL0     C48218  11.620   7.992   2.644  0.0213  0.5236 -0.5657
  358MOL0     O48219  11.621   7.869   2.571 -0.2316 -0.0513 -0.0606
  358MOL0     C48220  11.502   7.792   2.556  0.2533 -0.3540  0.4203
  358MOL0     C48221  11.429   7.742   2.670 -0.9375 -0.6037  0.1419
  358MOL0     C48222  11.310   7.658   2.662 -0.9126  0.3421  0.4609
  358MOL0     C48223  11.243   7.634   2.796 -0.2413  0.4162 -0.9699
  358MOL0     C48224  11.275   7.618   2.531  1.2738  0.2547 -0.3600
  358MOL0     C48225  11.188   7.503   2.512  0.1717  0.6354 -0.0656
  358MOL0     O48226  11.157   7.474   2.384  0.4296  0.6764  0.3275
  358MOL0     C48227  11.058   7.377   2.362  1.0051  0.2485 -0.2516
  358MOL0     C48228  11.101   7.271   2.284 -0.9711  0.2245 -0.1751
  358MOL0     C48229  11.012   7.172   2.245  0.4242  0.0661 -0.1202
  358MOL0     C48230  10.881   7.178   2.282 -0.6391 -0.1928  0.5619
  358MOL0     O48231  10.816   7.069   2.239 -0.9223 -0.8325 -0.2858
  358MOL0     C48232  10.710   7.013   2.319 -0.3849 -0.1173 -1.1347
  358MOL0     C48233  10.720   6.859   2.323 -0.6664  1.0349  0.2812
  358MOL0     C48234  10.853   6.804   2.370 -0.7426  0.5068 -1.6763
  358MOL0     C48235  10.835   6.658   2.402 -0.4422 -0.0864 -0.5891
  358MOL0     C48236  10.964   6.612   2.474  0.1019  0.3887 -0.2821
  358MOL0     C48237  10.947   6.477   2.530  0.5137  0.4153  0.1822
  358MOL0     C48238  10.902   6.378   2.423 -0.8096  0.0683 -0.8367
  358MOL0     C48239  10.942   6.232   2.455 -0.5997 -0.7915  0.8951
  358MOL0    Cl48240  10.910   6.147   2.302  0.2201  0.2087 -0.4542
  358MOL0     C48241  10.830   7.294   2.339 -0.5324 -0.2728  0.6245
  358MOL0     C48242  10.917   7.391   2.379 -0.9432  0.1964  0.8510
  358MOL0     O48243  11.175   7.429   2.612  0.5317  0.3501  0.5365
  358MOL0     C48244  11.341   7.675   2.415  1.1877  0.7823  0.0136
  358MOL0     C48245  11.449   7.759   2.430  0.0891 -0.2270  1.0516
  358MOL0     N48246  11.791   7.916   3.151  0.7559  0.4358  0.0671
  358MOL0     N48247  11.720   7.839   3.228 -0.5146 -0.2212 -0.5889
  358MOL0     C48248  10.623   8.037   3.405  0.3727 -0.0726 -0.5627
  358MOL0     C48249  10.600   8.146   3.490 -0.6630  0.1881  0.0415
  358MOL0     C48250  10.576   8.563   3.646 -0.7174 -0.7226 -0.0661
  358MOL0     C48251  10.459   8.627   3.697  0.0968 -0.1918 -0.0379
  358MOL0     C48252  10.461   8.766   3.722 -0.9272 -0.5903 -0.1175
  358MOL0     C48253  10.580   8.834   3.716 -1.2681 -0.0647 -0.3244
  358MOL0     O48254  10.556   8.965   3.743 -0.3447  0.5686 -0.8483
  358MOL0     C48255  10.660   9.059   3.755 -0.2639 -0.7060 -0.2721
  358MOL0     C48256  10.721   9.047   3.893 -0.5860  0.7045  0.2894
  358MOL0     C48257  10.798   9.174   3.910  0.2076  0.0167 -1.2923
  358MOL0     C48258  10.891   9.163   4.034  0.1273  0.4571  0.9227
  358MOL0     C48259  10.822   9.150   4.153 -0.1643  0.6148 -0.3624
  358MOL0     C48260  10.764   9.148   4.265 -0.2115 -0.3986  0.6721
  358MOL0     C48261  10.695   8.773   3.671  0.7611  0.1818 -1.2318
  358MOL0     C48262  10.692   8.643   3.625 -0.0528  0.1922 -0.3194
  358MOL0     H48263  10.893   8.309   3.427 -0.3714 -0.0022  0.1394
  358MOL0     H48264  10.932   8.089   3.293 -0.5044  1.0448 -1.3877
  358MOL0     H48265  10.688   7.765   3.402 -0.2421 -0.9382  0.6620
  358MOL0     H48266  10.736   7.714   3.240 -4.4353 -2.9403  2.2916
  358MOL0     H48267  10.931   7.844   3.451 -2.3833  1.8877 -1.6550
  358MOL0     H48268  10.918   7.671   3.425  0.4840  0.5437  1.9116
  358MOL0     H48269  10.998   7.695   3.187  2.4737 -1.0079  0.4488
  358MOL0     H48270  11.005   7.865   3.207 -1.9900  0.0709 -0.0730
  358MOL0     H48271  11.186   7.845   3.375  3.2846 -0.6435  0.7895
  358MOL0     H48272  11.151   7.674   3.393 -3.7515  0.4410 -0.3263
  358MOL0     H48273  11.224   7.615   3.197  0.7515 -0.6120  1.6053
  358MOL0     H48274  11.246   7.777   3.130 -0.2168  1.9022  1.5196
  358MOL0     H48275  11.444   7.819   3.254  1.7321  0.6900  0.5076
  358MOL0     H48276  11.410   7.675   3.359 -1.9577 -0.3117 -0.3803
  358MOL0     H48277  11.439   7.523   3.175  1.2164 -0.3953 -0.0253
  358MOL0     H48278  11.484   7.650   3.064  0.7217 -0.4819 -0.2694
  358MOL0     H48279  11.655   7.508   3.170 -2.3301 -0.7669 -1.3112
  358MOL0     H48280  11.642   7.606   3.323  3.3827 -0.2615  0.4157
  358MOL0     H48281  11.788   7.653   2.963  0.2174 -0.0220  0.1820
  358MOL0     H48282  11.964   7.985   2.924  1.9579 -0.3910 -0.8344
  358MOL0     H48283  11.973   7.814   2.896 -1.7994 -0.7286 -0.1219
  358MOL0     H48284  11.802   7.797   2.755 -1.7656 -1.1240  2.3536
  358MOL0     H48285  11.879   7.957   2.705 -0.9721 -0.4593 -0.6551
  358MOL0     H48286  11.687   8.070   2.842 -0.1427 -0.5981  2.0085
  358MOL0     H48287  11.621   7.904   2.842 -1.0100  0.5433 -2.1619
  358MOL0     H48288  11.674   8.077   2.602 -2.2469  2.6915  0.5648
  358MOL0     H48289  11.515   8.022   2.653  0.1572  0.7899  0.2072
  358MOL0     H48290  11.473   7.766   2.766  0.1535 -2.1965  0.0761
  358MOL0     H48291  11.143   7.590   2.801 -0.4679  1.0551  2.6532
  358MOL0     H48292  11.301   7.565   2.859 -1.8750  2.3779  3.0262
  358MOL0     H48293  11.240   7.724   2.857 -1.0812  1.7007 -2.8386
  358MOL0     H48294  11.209   7.276   2.272 -0.4092 -3.6453  1.7735
  358MOL0     H48295  11.046   7.087   2.187  2.5877  0.7670  0.0105
  358MOL0     H48296  10.716   7.049   2.422 -1.5383 -1.8355 -0.4071
  358MOL0     H48297  10.616   7.045   2.273 -0.4466 -0.2698 -1.1140
  358MOL0     H48298  10.645   6.818   2.391 -1.6893 -0.6954 -1.7867
  358MOL0     H48299  10.709   6.820   2.221  1.7549  0.4986  0.1796
  358MOL0     H48300  10.899   6.863   2.450 -2.6604  2.6003 -2.0169
  358MOL0     H48301  10.924   6.813   2.287 -2.3651  0.7303 -3.0981
  358MOL0     H48302  10.748   6.619   2.455  1.4051 -0.0408  2.7339
  358MOL0     H48303  10.821   6.595   2.313 -0.1161 -3.5659  1.6546
  358MOL0     H48304  10.990   6.688   2.548 -0.3644  2.7961 -2.4571
  358MOL0     H48305  11.043   6.604   2.400 -0.0809 -1.0465 -0.3539
  358MOL0     H48306  11.044   6.450   2.572  0.3613 -0.7920 -0.1851
  358MOL0     H48307  10.868   6.488   2.605 -1.4676  3.0701 -2.0869
  358MOL0     H48308  10.969   6.406   2.341 -0.5198  0.6069 -0.4243
  358MOL0     H48309  10.795   6.381   2.402 -1.1311  0.8080  0.7415
  358MOL0     H48310  10.869   6.192   2.526 -0.7829  1.9174  2.3385
  358MOL0     H48311  11.047   6.212   2.478 -0.1693  0.4159  0.0647
  358MOL0     H48312  10.724   7.306   2.357 -0.3282 -0.6791  2.2496
  358MOL0     H48313  10.875   7.473   2.437  1.0574  1.3533  0.7637
  358MOL0     H48314  11.314   7.651   2.313 -0.6350  3.7458 -0.3109
  358MOL0     H48315  11.491   7.802   2.340 -4.3638  2.3468 -0.1413
  358MOL0     H48316  10.550   7.957   3.413 -0.1546  0.6226  3.9095
  358MOL0     H48317  10.502   8.144   3.536 -0.5712  0.2513  0.2407
  358MOL0     H48318  10.375   8.561   3.716 -0.3521  0.4396  0.2136
  358MOL0     H48319  10.369   8.817   3.750 -1.3541 -2.5279  2.3566
  358MOL0     H48320  10.731   9.031   3.677 -1.8490 -2.6214 -1.1457
  358MOL0     H48321  10.605   9.153   3.746  0.3612 -0.4553 -1.7314
  358MOL0     H48322  10.794   8.966   3.890 -1.2176  0.1656 -0.8773
  358MOL0     H48323  10.647   9.029   3.971 -1.8789  1.1283 -0.8092
  358MOL0     H48324  10.734   9.261   3.929 -0.0616 -0.2789 -0.8232
  358MOL0     H48325  10.864   9.198   3.826  3.3112 -1.7504  0.4893
  358MOL0     H48326  10.949   9.256   4.038  0.4843  0.2980 -0.2298
  358MOL0     H48327  10.958   9.078   4.021 -0.6439  0.1450 -1.4286
  358MOL0     H48328  10.700   9.142   4.351 -0.4478  1.1806  0.6306
  358MOL0     H48329  10.782   8.837   3.665 -1.2884  3.4495  0.6065
  358MOL0     H48330  10.782   8.613   3.573  0.6773  2.7398 -0.6590
  359MOL0     O48331   1.572  11.073  10.820 -0.4429  1.1283 -0.6338
  359MOL0     C48332   1.656  10.980  10.836  0.3282  0.5620  0.1875
  359MOL0     O48333   1.641  10.869  10.771 -0.4970  0.7059  0.6637
  359MOL0     C48334   1.539  10.849  10.671 -0.6420  0.0615 -0.1342
  359MOL0     C48335   1.575  10.850  10.538  0.1590 -0.2068 -0.1268
  359MOL0     C48336   1.483  10.813  10.445 -0.1687  0.5785 -0.5523
  359MOL0     C48337   1.353  10.773  10.476  0.4441 -0.3893 -0.0604
  359MOL0     O48338   1.251  10.737  10.387 -0.0264  0.3749 -0.8785
  359MOL0     C48339   1.274  10.763  10.250  0.7343  0.5213 -1.0168
  359MOL0     C48340   1.265  10.908  10.207 -0.2450 -0.0477 -0.1328
  359MOL0     C48341   1.143  10.982  10.258 -0.0190 -0.7093  0.3405
  359MOL0     C48342   1.153  11.126  10.196  0.6187 -0.4720 -0.2377
  359MOL0     C48343   1.032  11.206  10.242  0.0168 -1.0280  0.0116
  359MOL0     C48344   1.050  11.279  10.379  0.2516 -0.3908 -0.3693
  359MOL0     C48345   1.172  11.379  10.379  0.3614  0.7654  0.1873
  359MOL0     C48346   1.157  11.496  10.480  0.0256 -0.1310  0.2402
  359MOL0     N48347   1.039  11.589  10.447 -0.7727 -0.7760 -0.0070
  359MOL0     C48348   1.004  11.660  10.341  1.3662 -0.1101 -0.3093
  359MOL0     C48349   0.891  11.716  10.375  1.4071  0.2472 -0.0689
  359MOL0     C48350   0.812  11.800  10.275 -0.2046 -0.1500 -0.4864
  359MOL0     C48351   0.673  11.837  10.339  0.1614 -1.2920 -0.5180
  359MOL0     C48352   0.567  11.744  10.291  0.0697 -0.2824  0.1364
  359MOL0     C48353   0.575  11.597  10.342  0.4702 -1.1438 -0.8264
  359MOL0     O48354   0.460  11.520  10.296  0.0152 -0.3450 -0.0797
  359MOL0     C48355   0.341  11.523  10.371 -0.2640  0.7008  0.6956
  359MOL0     C48356   0.241  11.443  10.318 -0.4225  0.3795 -0.3750
  359MOL0     C48357   0.115  11.414  10.374  0.0164 -1.0529  0.5810
  359MOL0     C48358   0.019  11.324  10.293 -0.0899 -0.8208 -0.1937
  359MOL0     C48359   0.092  11.478  10.505  0.4337  0.9232  0.3346
  359MOL0     C48360  -0.032  11.461  10.580 -0.0890  1.1748 -0.3298
  359MOL0     O48361  -0.048  11.539  10.697 -0.2762  0.0642  0.7798
  359MOL0     C48362  -0.157  11.524  10.781  0.1128 -0.0980  0.4736
  359MOL0     C48363  -0.201  11.397  10.834 -0.8703  0.4660 -0.3488
  359MOL0     C48364  -0.311  11.382  10.912  0.5927 -0.1890 -1.1036
  359MOL0     C48365  -0.397  11.494  10.925 -0.9237 -0.9201 -0.2145
  359MOL0     O48366  -0.510  11.468  10.998 -0.5965 -0.4765  0.2248
  359MOL0     C48367  -0.621  11.559  10.993 -0.1018  1.0066 -0.3362
  359MOL0     C48368  -0.707  11.519  10.877 -0.1110 -0.2364 -0.4870
  359MOL0     C48369  -0.810  11.406  10.914 -0.6038  0.0167  0.4571
  359MOL0     C48370  -0.868  11.337  10.783 -0.0994  0.0231  0.0608
  359MOL0     C48371  -0.968  11.221  10.791  0.4587 -0.1836 -0.8470
  359MOL0     C48372  -1.082  11.260  10.894  0.0627 -0.5725 -0.0615
  359MOL0     C48373  -1.168  11.141  10.926 -0.3719 -0.0352 -0.1992
  359MOL0     C48374  -1.294  11.113  10.854 -0.0782 -0.4758 -0.0129
  359MOL0    Cl48375  -1.398  11.246  10.854  0.4430  0.1206  0.3817
  359MOL0     C48376  -0.354  11.620  10.893  0.1156  0.1807  0.9362
  359MOL0     C48377  -0.231  11.635  10.820 -0.3357 -0.3870  1.1966
  359MOL0     O48378  -0.121  11.400  10.529  0.1566 -0.3423 -0.0029
  359MOL0     C48379   0.195  11.558  10.561  0.1251 -0.1303 -0.0927
  359MOL0     C48380   0.317  11.581  10.498  0.4744  0.0292  0.2401
  359MOL0     N48381   0.847  11.670  10.494  0.0551 -0.0600  0.4224
  359MOL0     N48382   0.941  11.597  10.544 -0.1320  0.1092  0.0644
  359MOL0     C48383   1.320  10.768  10.610 -0.2781 -0.7724 -0.7249
  359MOL0     C48384   1.414  10.805  10.707 -0.2387  1.3531 -0.5197
  359MOL0     C48385   1.771  10.996  10.930 -0.3174 -0.7420 -0.1456
  359MOL0     C48386   1.865  10.894  10.952  0.5293  0.5620 -0.3618
  359MOL0     C48387   1.965  10.910  11.041  0.3455 -0.2116  0.0569
  359MOL0     C48388   1.963  11.021  11.124  0.8160  0.9653 -0.4153
  359MOL0     O48389   2.051  11.047  11.223  0.3215 -0.3999  0.1829
  359MOL0     C48390   2.168  10.975  11.231 -0.2301 -0.5156  0.1899
  359MOL0     C48391   2.241  11.013  11.367  1.5428 -0.0903 -0.3078
  359MOL0     C48392   2.345  10.902  11.388  0.5653  0.0214  0.4192
  359MOL0     C48393   2.429  10.946  11.513  0.4089  1.0761 -0.1474
  359MOL0     C48394   2.528  11.043  11.469 -1.1810  0.2589  0.1539
  359MOL0     C48395   2.612  11.130  11.435 -1.8163  0.2317 -0.0510
  359MOL0     C48396   1.865  11.118  11.106 -0.1160 -0.3974  0.1186
  359MOL0     C48397   1.761  11.099  11.024 -0.0121  0.1955 -0.5740
  359MOL0     H48398   1.676  10.882  10.518  0.9647 -2.3386  0.2599
  359MOL0     H48399   1.505  10.828  10.340 -2.3518  2.7025 -0.8020
  359MOL0     H48400   1.369  10.722  10.213  0.7042 -1.4801  0.8912
  359MOL0     H48401   1.204  10.698  10.196  0.7480 -1.0726  0.7868
  359MOL0     H48402   1.356  10.957  10.242 -0.1120  1.5676 -2.4837
  359MOL0     H48403   1.252  10.918  10.099 -0.7791 -0.4404 -0.1098
  359MOL0     H48404   1.051  10.931  10.226  0.9345 -0.5441 -3.0379
  359MOL0     H48405   1.137  10.986  10.367 -0.6706 -2.2458  0.3954
  359MOL0     H48406   1.248  11.175  10.219  0.9731 -1.9003  1.6786
  359MOL0     H48407   1.153  11.114  10.087 -0.2890  0.6156 -0.3687
  359MOL0     H48408   1.020  11.273  10.157 -2.9477 -1.6238 -0.1604
  359MOL0     H48409   0.935  11.156  10.235 -2.5635  2.6892  3.8001
  359MOL0     H48410   0.957  11.327  10.409  1.7057  2.6861 -0.4148
  359MOL0     H48411   1.076  11.199  10.450  2.1538 -1.0917 -1.7639
  359MOL0     H48412   1.263  11.320  10.393 -0.2224 -0.8883 -2.3404
  359MOL0     H48413   1.169  11.424  10.280  1.0870  1.6840  0.5680
  359MOL0     H48414   1.241  11.565  10.485  0.2694 -0.4859  1.3941
  359MOL0     H48415   1.148  11.455  10.581 -0.3603  1.0068  0.6767
  359MOL0     H48416   1.053  11.677  10.246 -0.0898 -0.4499 -1.1442
  359MOL0     H48417   0.866  11.895  10.266  2.1872 -1.1596  1.7375
  359MOL0     H48418   0.814  11.754  10.176  3.5222 -0.8852 -0.2260
  359MOL0     H48419   0.647  11.935  10.298 -0.2346 -0.8922  0.6619
  359MOL0     H48420   0.671  11.862  10.445  1.9410  4.5467 -1.4939
  359MOL0     H48421   0.571  11.730  10.183  1.4290  3.4464 -0.4610
  359MOL0     H48422   0.465  11.778  10.312  0.1339  0.0599 -0.0979
  359MOL0     H48423   0.578  11.610  10.451  1.6322  0.1613 -0.9810
  359MOL0     H48424   0.670  11.557  10.306  0.5985 -0.9025 -0.7657
  359MOL0     H48425   0.259  11.407  10.217  2.2205  2.0221 -0.5947
  359MOL0     H48426  -0.061  11.382  10.246  0.4145 -0.2892 -0.4015
  359MOL0     H48427   0.066  11.272  10.209  0.4752  1.9077 -1.6598
  359MOL0     H48428  -0.028  11.252  10.361 -0.8013  1.6950  2.1469
  359MOL0     H48429  -0.130  11.318  10.807 -0.5036  0.1791  1.3729
  359MOL0     H48430  -0.351  11.294  10.962 -1.2971  1.6618  0.8177
  359MOL0     H48431  -0.683  11.543  11.081  0.3408  0.5070 -0.1017
  359MOL0     H48432  -0.586  11.662  10.993 -0.1408  1.0964  2.3247
  359MOL0     H48433  -0.770  11.604  10.850 -2.8413 -1.5043  1.4600
  359MOL0     H48434  -0.646  11.500  10.788 -0.4444 -1.1626 -0.5288
  359MOL0     H48435  -0.886  11.457  10.974 -2.5768  1.3194 -2.8275
  359MOL0     H48436  -0.763  11.325  10.969 -1.2685 -0.8949 -0.2917
  359MOL0     H48437  -0.904  11.418  10.719 -1.2111  0.6253  1.4042
  359MOL0     H48438  -0.787  11.296  10.723 -0.8025 -2.7872  0.9036
  359MOL0     H48439  -0.914  11.139  10.838  1.2426  1.0882  0.5752
  359MOL0     H48440  -1.015  11.200  10.694 -0.4484 -2.5473  0.0379
  359MOL0     H48441  -1.042  11.300  10.987 -0.0602 -0.2193 -0.1586
  359MOL0     H48442  -1.142  11.342  10.854  1.2550  1.1492  1.5271
  359MOL0     H48443  -1.186  11.145  11.034  1.9928 -1.3951  0.3120
  359MOL0     H48444  -1.110  11.048  10.930  0.5856  0.5282 -0.7536
  359MOL0     H48445  -1.339  11.028  10.907 -1.8031 -0.1554 -0.8840
  359MOL0     H48446  -1.266  11.080  10.754  2.6692 -2.3828  1.2736
  359MOL0     H48447  -0.408  11.711  10.918  0.7206  0.8799 -0.2130
  359MOL0     H48448  -0.198  11.733  10.788  2.7467 -1.5153  0.5555
  359MOL0     H48449   0.168  11.609  10.653 -0.2540 -0.1586 -0.1873
  359MOL0     H48450   0.392  11.640  10.550 -0.4694 -2.6364  5.1451
  359MOL0     H48451   1.221  10.729  10.626 -0.3497 -1.2155 -2.1364
  359MOL0     H48452   1.381  10.808  10.810 -1.5670  3.3039 -0.9328
  359MOL0     H48453   1.878  10.812  10.881  0.6365  0.6668 -0.4632
  359MOL0     H48454   2.037  10.829  11.046  2.0684  1.2446 -0.2501
  359MOL0     H48455   2.141  10.870  11.215  0.3488 -0.7128  0.4626
  359MOL0     H48456   2.240  11.002  11.153  2.5541 -0.9846  2.4199
  359MOL0     H48457   2.174  11.019  11.454  0.1212  1.5627 -1.4526
  359MOL0     H48458   2.297  11.103  11.342 -0.5181  1.4319  0.2340
  359MOL0     H48459   2.403  10.884  11.297 -0.2080 -2.9550  0.4052
  359MOL0     H48460   2.302  10.804  11.410  0.4475 -0.4430 -1.6492
  359MOL0     H48461   2.484  10.856  11.544  1.5542  1.0853 -1.9680
  359MOL0     H48462   2.367  10.987  11.593 -2.9201 -0.0008 -1.9835
  359MOL0     H48463   2.682  11.202  11.396 -0.1233 -1.5529 -0.4554
  359MOL0     H48464   1.862  11.207  11.168 -2.1869  0.2980 -0.8923
  359MOL0     H48465   1.677  11.168  11.024 -0.1626  0.0485  0.8976
  360MOL0     O48466   8.162   7.477   4.660  0.1538 -0.6865  0.3237
  360MOL0     C48467   8.050   7.466   4.613  0.7528 -0.1244 -0.5765
  360MOL0     O48468   8.020   7.429   4.486 -0.0678  0.2134 -0.1429
  360MOL0     C48469   8.121   7.379   4.395  0.3228 -0.7006 -0.7570
  360MOL0     C48470   8.137   7.456   4.280 -0.1078  0.1753 -0.3153
  360MOL0     C48471   8.191   7.400   4.162 -0.5635 -0.5568 -0.5045
  360MOL0     C48472   8.257   7.276   4.172  1.1401  0.7684  0.4292
  360MOL0     O48473   8.336   7.211   4.079  0.2150  0.5907  0.1235
  360MOL0     C48474   8.322   7.245   3.945  0.2470 -0.5323  0.8530
  360MOL0     C48475   8.431   7.179   3.860 -0.2383 -0.4793 -0.3361
  360MOL0     C48476   8.416   7.203   3.703  0.0318 -0.3342 -0.8358
  360MOL0     C48477   8.474   7.339   3.672  0.0407  0.0426 -0.3469
  360MOL0     C48478   8.453   7.378   3.520 -0.3771  0.4018 -0.0542
  360MOL0     C48479   8.312   7.359   3.466 -0.4274 -0.6482  0.3807
  360MOL0     C48480   8.217   7.454   3.544 -0.3368  1.2043  0.5020
  360MOL0     C48481   8.076   7.468   3.490 -0.2323 -1.3019  0.6920
  360MOL0     N48482   8.072   7.544   3.367  0.4025  0.0009  0.1007
  360MOL0     C48483   8.019   7.497   3.254  0.6749 -0.2603 -0.3269
  360MOL0     C48484   8.008   7.603   3.171 -0.3929 -0.3149 -0.4451
  360MOL0     C48485   7.940   7.601   3.033  1.1300 -0.6270 -0.1968
  360MOL0     C48486   8.028   7.517   2.940  0.7560 -0.2790  0.5428
  360MOL0     C48487   8.000   7.563   2.792 -0.0989  0.3183  0.5892
  360MOL0     C48488   8.069   7.470   2.697  0.0159 -0.0104 -0.5223
  360MOL0     O48489   8.033   7.518   2.568 -1.1128  0.3547  0.9679
  360MOL0     C48490   8.102   7.473   2.457 -0.5110 -0.7222 -0.1664
  360MOL0     C48491   8.066   7.536   2.340 -0.4547 -0.4329  0.8423
  360MOL0     C48492   8.128   7.511   2.210  0.0754 -0.4521 -0.8171
  360MOL0     C48493   8.067   7.572   2.089  0.5931 -0.6202  0.4311
  360MOL0     C48494   8.250   7.421   2.208  0.1564  0.1562  0.5171
  360MOL0     C48495   8.333   7.379   2.086  0.7550 -0.7646 -0.4277
  360MOL0     O48496   8.386   7.257   2.096 -0.8219 -0.0746 -0.2515
  360MOL0     C48497   8.480   7.207   2.002  0.3668  0.1866  1.1204
  360MOL0     C48498   8.575   7.110   2.040 -0.2313  0.2490 -0.1847
  360MOL0     C48499   8.660   7.049   1.946 -0.6019 -0.1710  0.5920
  360MOL0     C48500   8.661   7.087   1.816  0.3523 -0.8106  0.7591
  360MOL0     O48501   8.746   7.041   1.718  0.3144 -0.7816  0.1952
  360MOL0     C48502   8.851   6.939   1.752 -0.6831 -1.2470  0.0378
  360MOL0     C48503   8.867   6.843   1.638 -0.1938 -0.4280 -0.2597
  360MOL0     C48504   9.006   6.854   1.575 -0.1530  0.5155 -0.2013
  360MOL0     C48505   9.020   6.773   1.450 -0.2072  0.4609  0.1058
  360MOL0     C48506   9.015   6.625   1.494 -0.0836  0.2901 -0.9454
  360MOL0     C48507   9.059   6.550   1.371 -0.1379 -0.0888 -0.3381
  360MOL0     C48508   9.097   6.411   1.391  0.5442  0.4463  0.2562
  360MOL0     C48509   8.990   6.308   1.442  0.4008 -0.0833 -0.8518
  360MOL0    Cl48510   9.070   6.144   1.419  0.0970  0.0608 -0.4410
  360MOL0     C48511   8.561   7.173   1.766 -0.3296 -0.0069  0.0894
  360MOL0     C48512   8.468   7.231   1.854 -0.4492  0.2146  0.3411
  360MOL0     O48513   8.327   7.450   1.984  0.3962 -0.6548  0.3402
  360MOL0     C48514   8.288   7.360   2.331 -0.6522 -0.1617 -0.0599
  360MOL0     C48515   8.217   7.379   2.448  0.0078 -0.6020 -0.2855
  360MOL0     N48516   8.073   7.705   3.231  0.4495 -0.3249 -0.1462
  360MOL0     N48517   8.115   7.672   3.347  0.1568 -0.0311 -0.8833
  360MOL0     C48518   8.253   7.205   4.300  0.0041  0.5132  0.2919
  360MOL0     C48519   8.177   7.251   4.407  0.7032  0.5337 -0.0213
  360MOL0     C48520   7.931   7.481   4.706 -1.0336  0.4001  0.0965
  360MOL0     C48521   7.807   7.409   4.676 -0.2608  0.2112  0.1558
  360MOL0     C48522   7.712   7.409   4.771 -0.2365  0.2755 -0.1973
  360MOL0     C48523   7.722   7.477   4.896  0.1596 -1.3702  0.2324
  360MOL0     O48524   7.621   7.472   4.995  0.3561  0.3845  0.5737
  360MOL0     C48525   7.539   7.588   5.011  0.8960  0.4017 -0.5300
  360MOL0     C48526   7.390   7.571   4.973  0.3888 -0.2534 -0.3615
  360MOL0     C48527   7.305   7.557   5.105  0.0907  0.6104  0.3827
  360MOL0     C48528   7.348   7.445   5.202  0.2957  0.1759  0.0921
  360MOL0     C48529   7.263   7.437   5.316  0.3620  0.1640  0.7783
  360MOL0     C48530   7.203   7.430   5.422  0.5267  0.1104  0.9676
  360MOL0     C48531   7.838   7.552   4.914 -1.3078  0.8047 -1.0909
  360MOL0     C48532   7.943   7.548   4.823 -0.5116  0.5044 -0.0683
  360MOL0     H48533   8.092   7.555   4.286  2.4078  1.3629  0.5889
  360MOL0     H48534   8.182   7.462   4.073 -1.3278 -0.7942 -0.5975
  360MOL0     H48535   8.221   7.218   3.911 -0.5983  0.8904  2.0877
  360MOL0     H48536   8.348   7.350   3.925  1.3806 -1.5416 -4.9974
  360MOL0     H48537   8.530   7.216   3.889 -1.0450 -0.1949  2.2771
  360MOL0     H48538   8.426   7.072   3.882 -0.0648 -0.2147  1.0634
  360MOL0     H48539   8.483   7.132   3.655  3.8251 -0.0352  3.3407
  360MOL0     H48540   8.309   7.192   3.683 -0.8340  1.3455  2.1323
  360MOL0     H48541   8.437   7.423   3.733  1.7901  0.2919  0.4482
  360MOL0     H48542   8.582   7.341   3.690  0.3821 -0.2701 -2.2296
  360MOL0     H48543   8.467   7.484   3.500 -1.8440  0.1405 -3.0067
  360MOL0     H48544   8.528   7.328   3.458  0.6650  1.5659  0.2117
  360MOL0     H48545   8.318   7.378   3.359  3.5297 -0.8865  0.4369
  360MOL0     H48546   8.287   7.253   3.471  0.0068 -0.8451 -1.1176
  360MOL0     H48547   8.207   7.410   3.643  1.1288  0.5105  0.3701
  360MOL0     H48548   8.262   7.553   3.556  2.0500  0.2210  0.4373
  360MOL0     H48549   8.019   7.531   3.558 -1.9623  1.9177 -3.3390
  360MOL0     H48550   8.016   7.377   3.483  0.4649 -1.6356 -1.8329
  360MOL0     H48551   7.970   7.402   3.235 -0.9685  0.5241 -0.2049
  360MOL0     H48552   7.839   7.558   3.037  1.2036 -1.1890 -2.8347
  360MOL0     H48553   7.940   7.707   3.006 -0.4103 -0.7651 -0.8421
  360MOL0     H48554   8.002   7.412   2.953  2.6326 -0.8382  0.0568
  360MOL0     H48555   8.133   7.539   2.960  0.0337  4.1957  0.4308
  360MOL0     H48556   8.016   7.670   2.772 -1.7829  0.5296  0.2180
  360MOL0     H48557   7.896   7.550   2.761 -0.7426 -2.3214  3.4287
  360MOL0     H48558   8.037   7.365   2.699  1.1300 -0.3520  0.1524
  360MOL0     H48559   8.177   7.467   2.716 -0.0095  4.0334  1.5128
  360MOL0     H48560   7.990   7.613   2.342 -1.1119 -1.0607  2.7632
  360MOL0     H48561   7.963   7.539   2.086 -0.3102  1.8688  1.6070
  360MOL0     H48562   8.083   7.679   2.104  0.0992 -0.4502 -0.2235
  360MOL0     H48563   8.108   7.539   1.993 -1.0850  1.5054 -1.1059
  360MOL0     H48564   8.581   7.085   2.145  0.6261 -0.9083 -0.4870
  360MOL0     H48565   8.720   6.968   1.986 -0.9159 -1.4372 -1.3535
  360MOL0     H48566   8.938   7.002   1.771  0.5712 -3.6440  3.3102
  360MOL0     H48567   8.832   6.884   1.845 -0.9488 -0.3695  0.5149
  360MOL0     H48568   8.833   6.740   1.657  0.6925 -0.7014 -0.1203
  360MOL0     H48569   8.801   6.882   1.560 -0.3243 -0.0358  0.0492
  360MOL0     H48570   9.089   6.829   1.642 -0.1317  0.1356 -0.3642
  360MOL0     H48571   9.033   6.957   1.550  1.9419 -0.4211 -2.2513
  360MOL0     H48572   8.945   6.798   1.374  0.0407 -2.9784 -1.4855
  360MOL0     H48573   9.117   6.793   1.403 -0.6490  3.4491  0.2685
  360MOL0     H48574   8.921   6.591   1.536  1.6220 -1.9107  1.3585
  360MOL0     H48575   9.101   6.609   1.559 -1.1391  0.3033  0.4979
  360MOL0     H48576   8.995   6.562   1.284 -1.0282  0.7921  0.4137
  360MOL0     H48577   9.157   6.593   1.345  1.4268  0.0051  4.6505
  360MOL0     H48578   9.184   6.421   1.457  0.1217  0.1494  0.8659
  360MOL0     H48579   9.133   6.362   1.300 -0.6960 -1.1593  0.5939
  360MOL0     H48580   8.893   6.319   1.393  1.4250  3.7119 -2.4354
  360MOL0     H48581   8.988   6.326   1.550  0.5022  0.0017 -0.8635
  360MOL0     H48582   8.561   7.183   1.658  2.0649 -1.9890 -0.1802
  360MOL0     H48583   8.406   7.292   1.789  0.1671 -3.6351 -4.3912
  360MOL0     H48584   8.375   7.295   2.342 -3.0464 -3.3082  1.9791
  360MOL0     H48585   8.248   7.336   2.543  2.7719  1.0466 -0.3296
  360MOL0     H48586   8.293   7.105   4.317 -0.1951  0.4849  0.5914
  360MOL0     H48587   8.142   7.191   4.490  0.7694  1.6532  0.8449
  360MOL0     H48588   7.803   7.356   4.582  2.0698  1.3622 -0.6840
  360MOL0     H48589   7.615   7.361   4.759 -1.0324  1.7269  0.2281
  360MOL0     H48590   7.532   7.633   5.111  1.6525  0.2034 -0.3836
  360MOL0     H48591   7.577   7.659   4.937 -3.2918  0.1782 -3.1758
  360MOL0     H48592   7.377   7.483   4.909 -1.1388 -0.0574 -0.3590
  360MOL0     H48593   7.340   7.653   4.921 -4.0542 -0.5380  2.8769
  360MOL0     H48594   7.196   7.551   5.098  0.1183 -0.7430  0.7609
  360MOL0     H48595   7.312   7.660   5.142 -0.3070  1.0256 -0.6640
  360MOL0     H48596   7.450   7.462   5.237  1.2592 -1.7272 -1.6038
  360MOL0     H48597   7.352   7.345   5.158  3.2504 -1.0301  2.6604
  360MOL0     H48598   7.164   7.429   5.522 -0.6804  1.0427  0.5361
  360MOL0     H48599   7.861   7.609   5.004 -1.7243  0.3250 -0.6698
  360MOL0     H48600   8.034   7.595   4.859 -1.1459 -0.1305  2.6016
  361MOL0     O48601   0.290   1.101  10.683  0.0679 -0.9957 -0.2793
  361MOL0     C48602   0.304   0.982  10.690  0.7379  0.4529  1.5221
  361MOL0     O48603   0.316   0.908  10.802 -0.3988  0.0569  0.6247
  361MOL0     C48604   0.331   0.957  10.932  0.3295  0.0723 -0.3683
  361MOL0     C48605   0.309   0.860  11.029  0.7614 -0.2022 -0.3595
  361MOL0     C48606   0.295   0.892  11.165  1.0641  0.0496 -0.6376
  361MOL0     C48607   0.347   1.006  11.215 -0.1354  0.5547  0.2992
  361MOL0     O48608   0.370   1.019  11.347  0.1694  0.2414 -0.4042
  361MOL0     C48609   0.384   1.154  11.392 -0.3498 -0.4395 -1.4025
  361MOL0     C48610   0.378   1.156  11.550  0.0206 -0.6124  0.2220
  361MOL0     C48611   0.502   1.101  11.618  0.7400  0.7477  0.4054
  361MOL0     C48612   0.465   1.059  11.763  0.0140  0.4857 -0.5953
  361MOL0     C48613   0.571   0.982  11.844  0.3677  0.6033  0.6291
  361MOL0     C48614   0.698   1.065  11.839 -0.7265  0.8215  0.1116
  361MOL0     C48615   0.825   1.004  11.917  0.3804 -0.2626  0.5036
  361MOL0     C48616   0.941   1.100  11.921 -1.0996 -0.7143  0.0495
  361MOL0     N48617   1.062   1.046  11.990  0.0252 -0.4600 -0.2532
  361MOL0     C48618   1.062   0.993  12.109  0.1054  0.0573 -0.9315
  361MOL0     C48619   1.198   0.982  12.143  0.8222 -0.7010  0.6940
  361MOL0     C48620   1.251   0.958  12.279 -0.1500  0.9991  0.7453
  361MOL0     C48621   1.391   0.893  12.286 -0.5175  0.0161 -0.3717
  361MOL0     C48622   1.498   1.000  12.315  0.7276 -0.1493  0.2774
  361MOL0     C48623   1.642   0.953  12.306  0.9675 -0.7676  0.6005
  361MOL0     O48624   1.719   1.061  12.346 -0.2107 -0.9599 -0.1772
  361MOL0     C48625   1.857   1.051  12.357  0.0004 -0.1730  1.2331
  361MOL0     C48626   1.931   0.943  12.319  0.5228  0.0237  0.2744
  361MOL0     C48627   2.072   0.952  12.323  0.6503 -0.4465  0.0792
  361MOL0     C48628   2.149   0.819  12.309  0.8509  0.4992  0.9160
  361MOL0     C48629   2.142   1.066  12.369  0.3082 -1.2281 -0.2399
  361MOL0     C48630   2.292   1.076  12.366  0.6798 -0.5429 -0.3091
  361MOL0     O48631   2.343   1.160  12.455 -0.4750  0.6151 -0.4503
  361MOL0     C48632   2.477   1.174  12.465  0.1796  0.5814 -0.0108
  361MOL0     C48633   2.546   1.211  12.346 -1.0316 -0.8811 -0.5509
  361MOL0     C48634   2.687   1.216  12.356 -0.5142  0.1722  0.1838
  361MOL0     C48635   2.756   1.196  12.478 -0.8398 -0.4342 -0.8560
  361MOL0     O48636   2.893   1.219  12.498 -0.6762  0.8587  0.1464
  361MOL0     C48637   2.975   1.106  12.501 -0.8687  0.9624  0.0653
  361MOL0     C48638   3.093   1.147  12.594 -0.8028 -0.2578  0.5175
  361MOL0     C48639   3.163   1.029  12.651 -0.3328  0.4316  0.0021
  361MOL0     C48640   3.282   1.081  12.744 -0.1000 -0.0226  0.4783
  361MOL0     C48641   3.253   1.064  12.891 -0.7121 -0.0518  0.3096
  361MOL0     C48642   3.114   1.099  12.956 -0.7541  0.3046 -1.2598
  361MOL0     C48643   3.116   1.059  13.105 -0.8720 -0.1454 -0.0154
  361MOL0     C48644   3.017   1.137  13.188  1.3787 -0.2928  0.9149
  361MOL0    Cl48645   3.093   1.300  13.193 -0.2844 -0.5408 -0.2222
  361MOL0     C48646   2.674   1.159  12.591  0.4791  0.4980  0.0699
  361MOL0     C48647   2.535   1.151  12.584 -0.1421  0.4464 -0.6115
  361MOL0     O48648   2.354   1.005  12.298 -0.2975 -0.5717 -0.3323
  361MOL0     C48649   2.062   1.174  12.403 -0.2401 -0.3224 -0.5569
  361MOL0     C48650   1.925   1.164  12.389 -0.9527 -0.1448 -0.4026
  361MOL0     N48651   1.274   1.026  12.037  0.1856 -0.0434  0.4554
  361MOL0     N48652   1.190   1.059  11.940  0.6632 -0.0569  0.4794
  361MOL0     C48653   0.392   1.102  11.117  0.5490  0.0395 -0.7916
  361MOL0     C48654   0.363   1.083  10.973  0.5735 -0.0262 -0.3130
  361MOL0     C48655   0.286   0.897  10.564 -2.0611 -0.3744 -0.3456
  361MOL0     C48656   0.372   0.790  10.528  0.8757 -0.0256  0.3553
  361MOL0     C48657   0.341   0.713  10.412  0.7833  0.5014  0.9054
  361MOL0     C48658   0.212   0.729  10.349 -0.5256 -0.4431  0.5541
  361MOL0     O48659   0.174   0.648  10.242 -0.4174 -0.5004  0.8991
  361MOL0     C48660   0.254   0.563  10.157  0.4185 -0.2362  0.2217
  361MOL0     C48661   0.203   0.420  10.179 -0.7122  0.2498  0.0921
  361MOL0     C48662   0.055   0.402  10.151  0.1553  0.2357  0.9330
  361MOL0     C48663   0.007   0.258  10.206  0.2819  0.8793  0.3361
  361MOL0     C48664  -0.130   0.223  10.177  0.3904  0.3518  0.3893
  361MOL0     C48665  -0.240   0.222  10.131  0.6461 -0.3533  0.4878
  361MOL0     C48666   0.122   0.826  10.393  0.2661 -0.2709 -0.0161
  361MOL0     C48667   0.163   0.914  10.494  0.2089  0.3446 -0.1512
  361MOL0     H48668   0.298   0.754  11.008 -1.4553 -0.2642  0.7854
  361MOL0     H48669   0.262   0.817  11.236  2.2695  0.8141  0.8128
  361MOL0     H48670   0.488   1.185  11.372  0.2948 -0.1837  1.8741
  361MOL0     H48671   0.306   1.217  11.348 -1.6544 -1.6814 -0.9418
  361MOL0     H48672   0.360   1.255  11.594  1.3010 -2.0537  4.4517
  361MOL0     H48673   0.279   1.111  11.562 -0.7120  0.4480 -1.4531
  361MOL0     H48674   0.544   1.007  11.580  0.0558 -0.1697  1.8350
  361MOL0     H48675   0.575   1.183  11.618  1.0636  0.4588 -0.1019
  361MOL0     H48676   0.431   1.145  11.822 -0.2783  1.1387 -1.6827
  361MOL0     H48677   0.375   0.998  11.752  1.0215 -0.9143 -1.3989
  361MOL0     H48678   0.535   0.973  11.947 -0.0550  0.3559  0.4600
  361MOL0     H48679   0.589   0.882  11.803 -1.6039  0.5383 -0.1692
  361MOL0     H48680   0.730   1.062  11.734  0.0921 -3.7759  0.2680
  361MOL0     H48681   0.674   1.166  11.870 -0.7305  0.6502  0.6729
  361MOL0     H48682   0.798   0.991  12.022  0.3603  1.3250  0.7195
  361MOL0     H48683   0.848   0.910  11.867  2.1085  1.1507 -1.5656
  361MOL0     H48684   0.913   1.190  11.977  0.3073 -2.0388  3.0683
  361MOL0     H48685   0.976   1.134  11.823  2.0550  1.7401  1.8439
  361MOL0     H48686   0.978   0.973  12.175 -3.1693  3.5829 -3.5785
  361MOL0     H48687   1.265   1.059  12.319  0.8615  1.4944 -0.7686
  361MOL0     H48688   1.172   0.903  12.331 -1.0505  2.4463  0.9459
  361MOL0     H48689   1.414   0.836  12.196  1.7481 -1.2696  0.9233
  361MOL0     H48690   1.393   0.833  12.378  1.3563 -0.2478 -0.5449
  361MOL0     H48691   1.474   1.032  12.417 -1.7968  0.2728 -0.3688
  361MOL0     H48692   1.476   1.086  12.251 -2.3287  0.9627  2.5189
  361MOL0     H48693   1.659   0.926  12.202  0.4064  0.8652  0.0614
  361MOL0     H48694   1.667   0.866  12.368 -4.0627 -2.1569  1.1605
  361MOL0     H48695   1.886   0.846  12.297  2.0714 -1.1191  1.8415
  361MOL0     H48696   2.081   0.734  12.293 -1.0701  2.2100 -0.6785
  361MOL0     H48697   2.227   0.813  12.233  2.4107  0.8252  2.4376
  361MOL0     H48698   2.191   0.809  12.409  0.2190  0.3920  1.1799
  361MOL0     H48699   2.496   1.233  12.252  1.2444 -1.4201 -1.9661
  361MOL0     H48700   2.742   1.252  12.270 -0.6065 -1.7042 -0.7180
  361MOL0     H48701   2.920   1.019  12.537  0.5452  0.5665  1.3564
  361MOL0     H48702   3.017   1.091  12.401 -1.2004  1.1041 -0.0958
  361MOL0     H48703   3.156   1.212  12.533 -3.1262  0.4586 -1.2771
  361MOL0     H48704   3.064   1.204  12.682 -0.1896  4.2490 -1.8751
  361MOL0     H48705   3.195   0.962  12.572 -1.1375  0.6624 -0.5282
  361MOL0     H48706   3.098   0.975  12.720  1.5827 -0.3423  1.2879
  361MOL0     H48707   3.366   1.019  12.711 -1.6799 -1.6736 -0.5976
  361MOL0     H48708   3.295   1.190  12.743 -3.2055  0.4283  1.3506
  361MOL0     H48709   3.338   1.111  12.942 -1.6016  0.3453  1.4989
  361MOL0     H48710   3.267   0.957  12.906 -1.3542 -0.0568  0.9311
  361MOL0     H48711   3.105   1.208  12.948  0.0738  0.4362 -0.4995
  361MOL0     H48712   3.027   1.058  12.904 -1.6480  0.2373  0.2281
  361MOL0     H48713   3.211   1.057  13.158 -0.4722  2.0169 -0.5675
  361MOL0     H48714   3.084   0.954  13.106 -0.8990 -0.1457 -0.6395
  361MOL0     H48715   2.997   1.092  13.285  1.9283 -2.4111  0.1000
  361MOL0     H48716   2.918   1.130  13.143  0.9037  2.6433  1.3214
  361MOL0     H48717   2.729   1.142  12.683 -2.2548 -1.2880  1.5404
  361MOL0     H48718   2.482   1.116  12.672  0.1188  1.3254 -0.0836
  361MOL0     H48719   2.100   1.270  12.437 -0.4114 -0.0259 -1.1864
  361MOL0     H48720   1.860   1.248  12.414  0.3687  0.0435  2.7726
  361MOL0     H48721   0.412   1.207  11.136  3.0183 -0.8476  2.2238
  361MOL0     H48722   0.361   1.168  10.906 -1.4070  1.4927  1.4837
  361MOL0     H48723   0.465   0.795  10.584  1.5150  3.1473 -0.7405
  361MOL0     H48724   0.420   0.648  10.377  1.2613  1.0177  1.0113
  361MOL0     H48725   0.242   0.580  10.050 -1.6001  0.6027  0.5114
  361MOL0     H48726   0.360   0.559  10.182  0.1409 -0.2202  1.5133
  361MOL0     H48727   0.228   0.398  10.283 -1.5506  2.5603  0.8464
  361MOL0     H48728   0.253   0.345  10.117 -2.7957 -0.9178 -0.2626
  361MOL0     H48729   0.054   0.415  10.042 -1.4861  0.7669  0.9852
  361MOL0     H48730  -0.015   0.477  10.188 -0.7410 -1.6377  3.2649
  361MOL0     H48731   0.018   0.278  10.313 -0.1405 -0.6522  0.6901
  361MOL0     H48732   0.072   0.170  10.197 -0.7819 -0.1653  2.2319
  361MOL0     H48733  -0.334   0.202  10.082  1.7336 -1.8109 -1.1390
  361MOL0     H48734   0.022   0.849  10.358  0.2674 -1.3427 -0.7775
  361MOL0     H48735   0.097   0.996  10.522  0.6952 -0.1414  2.7929
  362MOL0     O48736   5.509   6.678   2.449  0.5280  0.4357 -0.1766
  362MOL0     C48737   5.562   6.786   2.453  0.0042  0.4330  0.1200
  362MOL0     O48738   5.593   6.857   2.572  0.6452  0.5838 -0.4846
  362MOL0     C48739   5.543   6.816   2.691 -0.0242 -0.0458  0.6809
  362MOL0     C48740   5.633   6.759   2.772  0.0778 -0.5168  0.1010
  362MOL0     C48741   5.592   6.720   2.900 -0.2729 -0.2552  0.1231
  362MOL0     C48742   5.465   6.741   2.956 -0.8208  0.2676  0.3828
  362MOL0     O48743   5.424   6.696   3.078  0.1231  0.2387 -0.8197
  362MOL0     C48744   5.522   6.642   3.172 -0.0079 -0.7062 -0.0288
  362MOL0     C48745   5.450   6.631   3.302 -0.4189 -0.2309 -0.1535
  362MOL0     C48746   5.445   6.767   3.379  0.5472 -0.5565  0.0799
  362MOL0     C48747   5.329   6.773   3.476  1.0788 -0.4438 -0.2746
  362MOL0     C48748   5.325   6.910   3.524 -0.8214  0.0900 -0.1774
  362MOL0     C48749   5.294   7.032   3.432  0.0106 -0.6105  0.2986
  362MOL0     C48750   5.166   7.021   3.353  0.3580  0.5572  0.3689
  362MOL0     C48751   5.128   7.152   3.275 -0.0268  0.2441 -0.1236
  362MOL0     N48752   4.979   7.154   3.235 -0.7614  0.0671 -0.4641
  362MOL0     C48753   4.923   7.069   3.144  0.9867  0.3367 -0.2186
  362MOL0     C48754   4.789   7.072   3.170 -0.6798 -0.8884  0.0225
  362MOL0     C48755   4.682   7.008   3.093 -0.1326 -0.5157  0.6721
  362MOL0     C48756   4.618   6.916   3.187  1.0272  0.3273  0.7688
  362MOL0     C48757   4.689   6.844   3.297  0.3768  0.2239 -0.2800
  362MOL0     C48758   4.818   6.773   3.261  0.8179 -0.1215  0.0590
  362MOL0     O48759   4.816   6.651   3.332  0.2028  0.4052 -0.4261
  362MOL0     C48760   4.896   6.635   3.446  0.0355 -0.2810 -0.0025
  362MOL0     C48761   4.938   6.510   3.478 -1.0972  0.7538  0.3050
  362MOL0     C48762   5.026   6.475   3.582  0.1986 -0.1026 -0.1052
  362MOL0     C48763   5.088   6.343   3.602 -0.1358  0.3113 -0.5512
  362MOL0     C48764   5.067   6.581   3.668  1.1515  0.0843  0.3021
  362MOL0     C48765   5.143   6.556   3.788 -0.4426  0.5343  0.4208
  362MOL0     O48766   5.100   6.451   3.863  0.7653 -0.5136  0.0397
  362MOL0     C48767   5.181   6.370   3.942 -0.0317 -0.3398  0.2919
  362MOL0     C48768   5.311   6.326   3.904  1.3121 -0.0601  0.4622
  362MOL0     C48769   5.375   6.239   3.983  0.2936  1.0615  0.1718
  362MOL0     C48770   5.314   6.177   4.092  0.7908 -0.4183 -0.0492
  362MOL0     O48771   5.391   6.093   4.169  1.2208 -0.4041  0.4470
  362MOL0     C48772   5.338   5.963   4.169  0.6989 -0.1573  0.0473
  362MOL0     C48773   5.407   5.896   4.290 -0.0388 -0.0668  0.0568
  362MOL0     C48774   5.416   5.971   4.429 -0.2942 -0.3509 -0.5989
  362MOL0     C48775   5.288   5.991   4.510 -0.2914  0.4828 -0.5384
  362MOL0     C48776   5.309   6.067   4.642  0.1062  0.1541 -0.4332
  362MOL0     C48777   5.337   6.214   4.630  1.0183 -0.2110 -0.1652
  362MOL0     C48778   5.237   6.279   4.542  0.5168 -0.1424  0.3494
  362MOL0     C48779   5.104   6.285   4.604  0.1482 -0.5274 -0.0266
  362MOL0    Cl48780   5.015   6.436   4.553 -0.7180  0.6568  0.0784
  362MOL0     C48781   5.187   6.220   4.133 -0.3159  1.2204  0.4125
  362MOL0     C48782   5.124   6.319   4.059  0.1188 -0.1570  0.7986
  362MOL0     O48783   5.242   6.623   3.809 -0.5555 -0.4660 -0.9955
  362MOL0     C48784   5.016   6.709   3.643 -0.2187 -0.2451  0.8551
  362MOL0     C48785   4.928   6.741   3.533  0.7125 -0.3268 -0.6090
  362MOL0     N48786   4.774   7.167   3.266  0.5881  0.3557 -0.4521
  362MOL0     N48787   4.880   7.216   3.305 -0.9227  0.4588  0.6392
  362MOL0     C48788   5.372   6.792   2.869 -0.5721 -1.0806  0.1445
  362MOL0     C48789   5.408   6.835   2.737  0.5100  0.5845  0.4750
  362MOL0     C48790   5.602   6.846   2.324  0.3880  0.0895 -0.6979
  362MOL0     C48791   5.679   6.961   2.305  0.0102  0.0205 -0.3379
  362MOL0     C48792   5.703   7.029   2.181 -0.2631  0.4875 -0.2012
  362MOL0     C48793   5.651   6.978   2.070 -0.2346 -0.0796  0.1010
  362MOL0     O48794   5.676   7.050   1.954 -0.3333 -0.1521 -0.4998
  362MOL0     C48795   5.792   6.986   1.887  0.3074 -0.9257 -0.0401
  362MOL0     C48796   5.936   7.020   1.952 -0.2590  0.0334  0.1690
  362MOL0     C48797   6.035   7.003   1.834  0.1939 -0.3144 -0.2921
  362MOL0     C48798   6.059   6.850   1.795  0.0568  0.2391  0.1463
  362MOL0     C48799   6.204   6.812   1.793  0.3753 -0.2574  0.1661
  362MOL0     C48800   6.313   6.783   1.801 -0.5266 -0.3012 -0.2151
  362MOL0     C48801   5.561   6.865   2.077 -0.1701  0.0423 -0.3507
  362MOL0     C48802   5.545   6.800   2.205 -0.1893 -1.0999  0.0817
  362MOL0     H48803   5.734   6.744   2.734 -0.3920  0.2017 -1.4982
  362MOL0     H48804   5.680   6.686   2.955  1.7341  3.3686 -0.5281
  362MOL0     H48805   5.566   6.547   3.140  0.4333 -0.3992 -0.3545
  362MOL0     H48806   5.600   6.719   3.168 -1.6116  1.0679  1.1972
  362MOL0     H48807   5.351   6.589   3.283 -1.4572  2.2916 -0.6219
  362MOL0     H48808   5.510   6.557   3.355  2.7321 -1.0661 -4.2977
  362MOL0     H48809   5.540   6.787   3.431  0.2676  2.2455 -0.3586
  362MOL0     H48810   5.437   6.834   3.294  1.1983 -1.0702 -0.3938
  362MOL0     H48811   5.231   6.758   3.431  0.2172  3.7727 -0.2644
  362MOL0     H48812   5.359   6.708   3.558  0.6533 -0.1453  0.1218
  362MOL0     H48813   5.248   6.926   3.601  0.8114  2.4212  1.1048
  362MOL0     H48814   5.419   6.931   3.576 -0.6693 -0.4689 -0.2289
  362MOL0     H48815   5.288   7.118   3.500 -1.0148  0.5121 -1.1524
  362MOL0     H48816   5.366   7.047   3.352 -2.8616  1.1723 -2.1857
  362MOL0     H48817   5.152   6.939   3.283 -0.7783  0.0875  1.1176
  362MOL0     H48818   5.095   7.006   3.435  0.9247  0.3597  0.8366
  362MOL0     H48819   5.197   7.161   3.190  2.5622 -2.1150  1.5514
  362MOL0     H48820   5.143   7.243   3.334  0.0857  2.3040 -3.0881
  362MOL0     H48821   4.970   7.002   3.073 -0.8715 -0.7505 -0.4782
  362MOL0     H48822   4.605   7.079   3.061  0.3821 -0.8247 -1.3861
  362MOL0     H48823   4.717   6.958   3.002 -1.4704 -1.7059  0.7965
  362MOL0     H48824   4.564   6.849   3.120  0.5937 -0.2730  1.7001
  362MOL0     H48825   4.545   6.977   3.241  1.2705  2.0073 -0.7069
  362MOL0     H48826   4.628   6.770   3.349 -0.1516  3.0465  3.6065
  362MOL0     H48827   4.705   6.920   3.375  2.1779 -0.8742  0.4959
  362MOL0     H48828   4.900   6.839   3.291  2.4876 -1.3613 -1.5762
  362MOL0     H48829   4.817   6.752   3.154 -1.2443 -2.8841  0.4941
  362MOL0     H48830   4.896   6.440   3.406  0.7202 -0.6723  0.5619
  362MOL0     H48831   5.189   6.348   3.643 -0.4322 -0.8526  0.3776
  362MOL0     H48832   5.024   6.278   3.663 -1.1618 -0.1807 -2.0863
  362MOL0     H48833   5.106   6.292   3.506 -0.6194  0.9502 -0.9901
  362MOL0     H48834   5.350   6.348   3.805  0.4080 -0.5991 -0.0377
  362MOL0     H48835   5.469   6.195   3.950 -1.6800 -0.0697 -4.9803
  362MOL0     H48836   5.234   5.961   4.202  0.6801  1.0573  0.1120
  362MOL0     H48837   5.339   5.913   4.072 -0.8369 -1.7925  0.8070
  362MOL0     H48838   5.376   5.793   4.306 -2.3794  0.5229 -0.2842
  362MOL0     H48839   5.510   5.884   4.253 -0.0629  1.0068 -0.4035
  362MOL0     H48840   5.444   6.073   4.401 -2.5808  0.2201 -1.0085
  362MOL0     H48841   5.492   5.926   4.495 -1.5719 -1.3057  0.2691
  362MOL0     H48842   5.204   6.039   4.458 -1.2903 -0.6466 -0.0144
  362MOL0     H48843   5.247   5.890   4.522 -1.1261  1.0160  1.7363
  362MOL0     H48844   5.385   6.023   4.709  3.2361  2.0312 -2.4789
  362MOL0     H48845   5.220   6.055   4.704  0.0566 -0.8294 -0.6693
  362MOL0     H48846   5.325   6.260   4.728  0.2438 -1.4345  0.3332
  362MOL0     H48847   5.428   6.249   4.579  0.0183  2.7743 -0.0946
  362MOL0     H48848   5.241   6.236   4.442 -2.0589 -3.0294  1.3045
  362MOL0     H48849   5.268   6.384   4.537 -1.6088  0.6555  2.0314
  362MOL0     H48850   5.099   6.276   4.713 -0.9533  1.0515  0.0873
  362MOL0     H48851   5.055   6.195   4.563 -0.3359  0.2747 -1.2696
  362MOL0     H48852   5.142   6.181   4.223 -2.2006  1.9049 -0.1824
  362MOL0     H48853   5.031   6.364   4.091 -0.1312 -0.7094  0.8528
  362MOL0     H48854   5.049   6.795   3.701  0.0670  0.6225 -0.5406
  362MOL0     H48855   4.895   6.844   3.526  3.4276  1.2249  4.4592
  362MOL0     H48856   5.270   6.797   2.906  0.1591  0.8027  2.1299
  362MOL0     H48857   5.332   6.870   2.667 -0.2318 -4.4364 -1.6389
  362MOL0     H48858   5.724   7.005   2.393 -1.0548  1.6696 -0.5811
  362MOL0     H48859   5.756   7.124   2.182  1.5399 -0.4796 -1.1747
  362MOL0     H48860   5.778   6.878   1.890 -0.7163 -0.7806  0.7390
  362MOL0     H48861   5.789   7.025   1.784  0.3756 -1.5340 -0.2757
  362MOL0     H48862   5.962   6.947   2.030  2.5160  1.8791  1.1056
  362MOL0     H48863   5.943   7.119   1.998 -1.5995  1.2712 -2.1120
  362MOL0     H48864   6.131   7.036   1.874 -0.3646 -3.5405  4.5941
  362MOL0     H48865   6.010   7.068   1.750 -0.7414 -0.8193 -0.4161
  362MOL0     H48866   6.013   6.842   1.696  1.8095  0.1563 -0.7145
  362MOL0     H48867   6.007   6.779   1.859 -1.0896 -1.6252 -2.6674
  362MOL0     H48868   6.418   6.762   1.809 -0.5139  0.0682  0.7623
  362MOL0     H48869   5.499   6.821   2.000 -2.9969  1.9947  0.6445
  362MOL0     H48870   5.472   6.720   2.212  2.0890 -3.4837 -1.7041
  363MOL0     O48871   8.656   9.420   0.768  0.0136 -0.6479  0.0390
  363MOL0     C48872   8.539   9.453   0.804 -1.1433  0.5813  0.4546
  363MOL0     O48873   8.456   9.371   0.872  0.2332  0.1635  0.1446
  363MOL0     C48874   8.496   9.246   0.894 -1.3693  0.3537 -0.7821
  363MOL0     C48875   8.398   9.147   0.899  0.1452 -0.2787  0.2602
  363MOL0     C48876   8.419   9.017   0.953 -0.7241  0.1650 -0.5955
  363MOL0     C48877   8.549   8.980   0.993  0.9683  0.0137  0.6110
  363MOL0     O48878   8.588   8.857   1.045 -0.2868 -0.5049 -0.1794
  363MOL0     C48879   8.506   8.741   1.021 -0.2666 -1.0942 -0.1022
  363MOL0     C48880   8.564   8.622   1.099 -0.3100 -0.0768 -0.5234
  363MOL0     C48881   8.503   8.473   1.076  0.2327  0.4122 -0.6602
  363MOL0     C48882   8.565   8.372   1.176  0.8837 -0.0896 -0.1752
  363MOL0     C48883   8.476   8.248   1.199 -0.4908 -0.1285 -0.9927
  363MOL0     C48884   8.561   8.135   1.254 -0.4095  0.4379  0.7797
  363MOL0     C48885   8.589   8.010   1.166 -0.5733  0.7555  0.3736
  363MOL0     C48886   8.678   8.032   1.045 -0.0280 -0.4322 -0.6855
  363MOL0     N48887   8.714   7.919   0.971 -0.4419  0.6101 -0.9545
  363MOL0     C48888   8.811   7.832   1.008 -0.3079 -0.0891 -0.1763
  363MOL0     C48889   8.807   7.731   0.919  0.8348  0.3777  1.1240
  363MOL0     C48890   8.903   7.617   0.906 -0.0387  0.5579  0.6338
  363MOL0     C48891   9.012   7.637   0.798 -0.2159 -0.5738 -0.4764
  363MOL0     C48892   8.937   7.664   0.661  0.5989 -0.5934 -0.8586
  363MOL0     C48893   9.044   7.652   0.558  0.0917 -0.6116  0.3974
  363MOL0     O48894   9.147   7.749   0.574 -0.3621 -0.4014 -0.0511
  363MOL0     C48895   9.273   7.702   0.537  0.0318  0.0864 -0.0235
  363MOL0     C48896   9.326   7.739   0.416  0.5105 -0.5782 -0.4230
  363MOL0     C48897   9.456   7.700   0.377  0.1562 -0.4214 -0.2703
  363MOL0     C48898   9.504   7.758   0.251 -0.3326 -0.2930  1.2148
  363MOL0     C48899   9.527   7.605   0.452  0.5340  0.2911  0.4242
  363MOL0     C48900   9.667   7.562   0.416  0.2513  0.0341 -0.4940
  363MOL0     O48901   9.691   7.429   0.433  0.5615  0.0478  1.6786
  363MOL0     C48902   9.804   7.375   0.476 -1.2572  0.3959 -0.4291
  363MOL0     C48903   9.913   7.457   0.526  0.8803 -0.1321  0.3214
  363MOL0     C48904  10.034   7.405   0.573 -0.2830 -0.0752  0.6464
  363MOL0     C48905  10.062   7.273   0.543  0.0206 -0.3459  0.1632
  363MOL0     O48906  10.182   7.213   0.558 -0.1927  0.2655 -0.5861
  363MOL0     C48907  10.289   7.256   0.645  0.4133  0.5569 -0.1705
  363MOL0     C48908  10.271   7.201   0.784  0.4068  0.1609 -0.6719
  363MOL0     C48909  10.357   7.261   0.901  0.0835  0.3181  1.0959
  363MOL0     C48910  10.297   7.236   1.039  0.2008 -0.2768  0.2338
  363MOL0     C48911  10.367   7.305   1.157  0.2118 -0.3187  0.4982
  363MOL0     C48912  10.515   7.272   1.184  0.1489  0.6546 -0.6533
  363MOL0     C48913  10.553   7.125   1.190  0.1274 -0.7728  0.3933
  363MOL0     C48914  10.488   7.056   1.314  0.2720 -0.3548 -0.1940
  363MOL0    Cl48915  10.514   7.145   1.465  0.0890 -0.1683 -0.3453
  363MOL0     C48916   9.956   7.192   0.496  0.1882  0.4503 -0.4155
  363MOL0     C48917   9.824   7.241   0.469  0.8472  0.3859  0.0384
  363MOL0     O48918   9.746   7.642   0.358  0.8696  0.0592 -0.7567
  363MOL0     C48919   9.471   7.544   0.560 -0.1628 -0.8317 -0.3403
  363MOL0     C48920   9.348   7.606   0.613  0.0983 -0.2927  0.8097
  363MOL0     N48921   8.681   7.739   0.867 -0.0130  0.4563  0.2550
  363MOL0     N48922   8.638   7.852   0.883 -0.3145  0.0088  0.3350
  363MOL0     C48923   8.647   9.080   0.990 -0.1740  0.3122 -0.1897
  363MOL0     C48924   8.615   9.205   0.956 -0.4850  0.1276  0.8985
  363MOL0     C48925   8.498   9.592   0.775  0.0528 -0.2892  0.5482
  363MOL0     C48926   8.365   9.630   0.775 -1.0730 -0.4058 -0.1610
  363MOL0     C48927   8.339   9.768   0.758 -0.0588 -0.3373  0.4810
  363MOL0     C48928   8.431   9.871   0.750 -0.5318  0.2819 -0.2635
  363MOL0     O48929   8.373   9.994   0.746  0.0186 -0.1341  0.7102
  363MOL0     C48930   8.462  10.116   0.741 -0.2187  0.1612 -0.6304
  363MOL0     C48931   8.379  10.234   0.782  1.0744  0.0001 -0.1989
  363MOL0     C48932   8.325  10.327   0.672 -0.0532  0.2715  0.2140
  363MOL0     C48933   8.271  10.257   0.546 -0.1579 -0.2456  0.4371
  363MOL0     C48934   8.152  10.178   0.592  0.6279 -0.0814 -0.2396
  363MOL0     C48935   8.078  10.102   0.649  0.8051 -0.9875 -0.1728
  363MOL0     C48936   8.565   9.820   0.757  1.1237  0.7648 -0.1207
  363MOL0     C48937   8.596   9.690   0.771 -1.2169  0.3878  0.2884
  363MOL0     H48938   8.298   9.175   0.869  0.0973 -0.7323 -0.0170
  363MOL0     H48939   8.342   8.941   0.963  2.6573 -3.4688  0.3860
  363MOL0     H48940   8.405   8.763   1.057 -0.0013 -0.8849  0.5269
  363MOL0     H48941   8.493   8.705   0.918 -3.1161 -2.1107  0.5145
  363MOL0     H48942   8.673   8.620   1.084 -0.2403  2.1689 -0.5892
  363MOL0     H48943   8.550   8.646   1.205 -1.2947  1.0428 -0.8924
  363MOL0     H48944   8.394   8.479   1.088  0.1192 -1.1465 -0.6812
  363MOL0     H48945   8.518   8.440   0.973 -1.3428  2.1148 -1.4938
  363MOL0     H48946   8.657   8.333   1.130 -0.3646 -2.0127 -1.1891
  363MOL0     H48947   8.587   8.438   1.261 -0.0532  0.5364 -0.4013
  363MOL0     H48948   8.404   8.287   1.272  0.1224  0.6987 -0.8179
  363MOL0     H48949   8.424   8.219   1.107  2.1624 -0.9792 -2.2958
  363MOL0     H48950   8.655   8.168   1.299 -1.1174 -0.4499  3.0706
  363MOL0     H48951   8.508   8.098   1.342 -1.0170  0.0579  0.2660
  363MOL0     H48952   8.638   7.931   1.223 -0.1081 -0.7249 -1.9298
  363MOL0     H48953   8.498   7.964   1.125  0.5495 -0.3887 -0.9762
  363MOL0     H48954   8.770   8.078   1.081 -0.1943  0.2510 -1.1187
  363MOL0     H48955   8.629   8.111   0.988  0.3744 -1.5517 -2.6721
  363MOL0     H48956   8.884   7.859   1.084  1.5680  0.2776 -2.0217
  363MOL0     H48957   8.955   7.605   1.002  2.0250 -0.3244 -0.5152
  363MOL0     H48958   8.843   7.529   0.885  1.2725 -1.2305  3.6491
  363MOL0     H48959   9.081   7.552   0.796  1.5234  0.6686  1.7984
  363MOL0     H48960   9.071   7.723   0.832 -1.0666 -0.0317 -0.3603
  363MOL0     H48961   8.902   7.768   0.663  2.0832 -0.0637 -0.6742
  363MOL0     H48962   8.843   7.612   0.644 -0.3753 -0.6582  3.5196
  363MOL0     H48963   9.017   7.682   0.456 -0.0521  3.9799  1.5530
  363MOL0     H48964   9.078   7.549   0.547 -2.0717 -1.2208 -1.4186
  363MOL0     H48965   9.270   7.808   0.354 -3.1538 -1.6742  1.3923
  363MOL0     H48966   9.434   7.822   0.196  0.7143  1.0207  1.3625
  363MOL0     H48967   9.585   7.829   0.266 -1.0932  1.0180 -0.5212
  363MOL0     H48968   9.518   7.677   0.179 -2.6304 -0.4502  0.8708
  363MOL0     H48969   9.902   7.564   0.538 -0.8653  0.3358 -3.7786
  363MOL0     H48970  10.101   7.481   0.611  1.5652 -0.5530 -1.4558
  363MOL0     H48971  10.386   7.221   0.607 -0.1444  0.4326 -1.5398
  363MOL0     H48972  10.296   7.366   0.649 -1.9667  0.7254  2.0562
  363MOL0     H48973  10.165   7.219   0.804 -1.4662 -2.5168 -6.1922
  363MOL0     H48974  10.276   7.092   0.776 -1.7939 -0.2098  1.7853
  363MOL0     H48975  10.367   7.370   0.892  2.4181  0.1324  0.7280
  363MOL0     H48976  10.459   7.225   0.887 -0.4256 -1.0573  0.8254
  363MOL0     H48977  10.192   7.267   1.040  0.2910  0.0375  1.6742
  363MOL0     H48978  10.299   7.128   1.055  2.0443 -0.7630 -2.5687
  363MOL0     H48979  10.310   7.278   1.246 -0.7268 -1.0178 -0.2931
  363MOL0     H48980  10.366   7.407   1.117  2.4159 -0.0522  0.9991
  363MOL0     H48981  10.576   7.315   1.103  0.3782  1.5613 -0.0144
  363MOL0     H48982  10.548   7.329   1.271  1.4187 -0.3699 -0.4324
  363MOL0     H48983  10.663   7.120   1.194  0.3108  2.5251  2.5828
  363MOL0     H48984  10.526   7.070   1.099 -0.9007  0.8945 -0.3496
  363MOL0     H48985  10.526   6.954   1.328 -0.8536 -0.5296  1.9933
  363MOL0     H48986  10.380   7.047   1.298  0.3102 -0.1551 -0.6011
  363MOL0     H48987   9.969   7.084   0.492  3.9982  0.6017  2.4985
  363MOL0     H48988   9.739   7.180   0.441  1.4622 -1.4906  1.9448
  363MOL0     H48989   9.512   7.454   0.606  0.1258  0.2385  1.6300
  363MOL0     H48990   9.291   7.563   0.695 -2.5297  2.7421  0.7636
  363MOL0     H48991   8.740   9.055   1.038 -1.3316  1.1637  2.6782
  363MOL0     H48992   8.689   9.282   0.976 -2.7012  2.6506 -0.0041
  363MOL0     H48993   8.283   9.561   0.787 -2.7824  1.8618  2.3474
  363MOL0     H48994   8.234   9.794   0.760  0.0600  0.1406  3.0727
  363MOL0     H48995   8.549  10.096   0.804 -1.3233  0.0773  0.9046
  363MOL0     H48996   8.498  10.123   0.637  0.6553 -0.0529 -0.3550
  363MOL0     H48997   8.436  10.285   0.860  1.5410 -2.1883  0.9855
  363MOL0     H48998   8.298  10.206   0.850  0.5579  0.4838 -0.6029
  363MOL0     H48999   8.404  10.394   0.637  0.1580  1.2520  2.4423
  363MOL0     H49000   8.250  10.385   0.726  1.4626 -0.0668  2.8079
  363MOL0     H49001   8.339  10.197   0.485  1.0904  3.8057 -2.6210
  363MOL0     H49002   8.226  10.324   0.472 -0.5762 -0.0925  0.8268
  363MOL0     H49003   8.021  10.028   0.700  1.8407 -0.9675  1.0808
  363MOL0     H49004   8.644   9.892   0.776  0.4150  0.8657  2.9223
  363MOL0     H49005   8.697   9.652   0.788 -2.0375 -1.9225  0.3620
  364MOL0     O49006   4.526   9.451   2.617 -0.8505 -0.3035  0.5448
  364MOL0     C49007   4.575   9.389   2.520  0.6940 -0.0397 -0.2694
  364MOL0     O49008   4.530   9.400   2.391 -0.2146 -0.6839 -0.0848
  364MOL0     C49009   4.411   9.474   2.368 -1.0301 -0.1573 -1.0684
  364MOL0     C49010   4.420   9.598   2.314 -0.3371  0.6874  0.3642
  364MOL0     C49011   4.300   9.668   2.277 -0.2192 -1.0602 -0.0914
  364MOL0     C49012   4.176   9.611   2.306 -0.4881  0.2226 -0.0892
  364MOL0     O49013   4.066   9.676   2.257 -0.6324  0.5573  0.5387
  364MOL0     C49014   3.968   9.598   2.184  0.0589  0.0132 -0.1435
  364MOL0     C49015   3.884   9.691   2.105  0.1577  0.6922 -0.3626
  364MOL0     C49016   3.783   9.623   2.013  0.0337 -1.4600 -0.7909
  364MOL0     C49017   3.660   9.716   1.969  0.5047  0.5027 -1.3250
  364MOL0     C49018   3.577   9.659   1.853  0.2351 -0.0933 -1.3552
  364MOL0     C49019   3.465   9.749   1.810  0.0490 -0.1225  0.0668
  364MOL0     C49020   3.410   9.703   1.675  0.9842 -0.6809  0.5069
  364MOL0     C49021   3.300   9.812   1.640  0.3787 -0.3885 -0.3968
  364MOL0     N49022   3.350   9.952   1.615  1.0806 -0.3490  0.0236
  364MOL0     C49023   3.427   9.999   1.507 -0.3895 -1.0232 -0.4681
  364MOL0     C49024   3.441  10.127   1.523  0.3759 -0.4237 -1.6730
  364MOL0     C49025   3.517  10.221   1.437  0.4443  0.9786 -0.2481
  364MOL0     C49026   3.509  10.361   1.487  0.1403 -0.2520  0.8552
  364MOL0     C49027   3.600  10.445   1.389 -0.4915  1.8125 -0.9040
  364MOL0     C49028   3.579  10.590   1.424 -0.3724  0.5522  0.0918
  364MOL0     O49029   3.687  10.662   1.359  0.9445  0.1637 -0.3745
  364MOL0     C49030   3.694  10.797   1.356  0.0003 -0.1592 -0.3344
  364MOL0     C49031   3.801  10.849   1.296  0.1571 -0.5623 -0.6329
  364MOL0     C49032   3.814  10.986   1.276 -0.4920  0.5452  0.6695
  364MOL0     C49033   3.914  11.036   1.175 -0.1425 -0.5195 -0.2706
  364MOL0     C49034   3.722  11.068   1.341  0.0746 -0.3406 -0.1776
  364MOL0     C49035   3.718  11.212   1.320 -0.5999  0.3674  0.5359
  364MOL0     O49036   3.816  11.278   1.375  0.1031 -0.3371  0.0389
  364MOL0     C49037   3.816  11.415   1.362  0.2410  0.3791  0.1442
  364MOL0     C49038   3.726  11.484   1.449 -0.1828 -1.5881 -0.1789
  364MOL0     C49039   3.712  11.619   1.434 -0.3424  0.5634 -0.4213
  364MOL0     C49040   3.790  11.689   1.339 -0.6322  0.0072 -0.8121
  364MOL0     O49041   3.762  11.829   1.334  0.0660  0.5139  0.3958
  364MOL0     C49042   3.875  11.916   1.342 -1.0177 -1.1307 -0.2923
  364MOL0     C49043   3.899  12.004   1.220  0.0943  0.2515  0.3430
  364MOL0     C49044   4.020  12.091   1.220 -0.1930 -0.3058 -0.3908
  364MOL0     C49045   4.140  12.006   1.216  0.2879  0.2301 -0.0339
  364MOL0     C49046   4.273  12.088   1.188 -0.0892 -0.5152 -0.6182
  364MOL0     C49047   4.312  12.118   1.041 -0.2452 -0.2464 -0.1914
  364MOL0     C49048   4.352  11.987   0.981 -0.5427 -0.4727  0.1758
  364MOL0     C49049   4.432  12.008   0.850  0.2017  1.2167  0.3745
  364MOL0    Cl49050   4.484  11.856   0.760  0.5186  0.4871  0.0870
  364MOL0     C49051   3.882  11.616   1.266  0.0388 -0.8579  0.1747
  364MOL0     C49052   3.899  11.480   1.277  0.8890  0.6896 -0.0683
  364MOL0     O49053   3.625  11.252   1.256  0.0108  0.2154 -0.0514
  364MOL0     C49054   3.612  11.010   1.398  0.6543  0.4360 -0.3340
  364MOL0     C49055   3.590  10.876   1.407 -0.4009  0.2389  0.4032
  364MOL0     N49056   3.360  10.170   1.640 -0.9613 -0.4153  0.5340
  364MOL0     N49057   3.310  10.061   1.691  0.7702 -1.1758  0.1958
  364MOL0     C49058   4.170   9.489   2.368 -0.0467  0.5432  0.8801
  364MOL0     C49059   4.292   9.418   2.393 -0.0042 -0.4742 -0.5452
  364MOL0     C49060   4.700   9.311   2.550  0.2777 -0.0951 -0.5226
  364MOL0     C49061   4.796   9.310   2.444 -0.7574  0.1631  0.0231
  364MOL0     C49062   4.917   9.244   2.464  0.3416  0.1529  0.0320
  364MOL0     C49063   4.941   9.189   2.593  0.6969  0.2894 -0.2770
  364MOL0     O49064   5.063   9.134   2.636 -0.8755  1.1161 -0.6053
  364MOL0     C49065   5.177   9.141   2.550  0.3739  0.1793 -0.3183
  364MOL0     C49066   5.315   9.112   2.625  0.7991 -1.0279  0.3233
  364MOL0     C49067   5.409   9.037   2.529 -0.3336 -0.9139 -0.2898
  364MOL0     C49068   5.541   9.004   2.585  0.6436 -0.0345  0.1427
  364MOL0     C49069   5.540   8.933   2.710 -0.0082 -1.1100  0.4083
  364MOL0     C49070   5.527   8.888   2.821  0.1890  0.0004  0.1054
  364MOL0     C49071   4.841   9.189   2.694 -0.7417  0.6333  0.6237
  364MOL0     C49072   4.719   9.245   2.677 -0.0709  0.4982 -0.0533
  364MOL0     H49073   4.516   9.641   2.284 -0.5838  0.3637 -0.9624
  364MOL0     H49074   4.299   9.767   2.234 -0.1002  1.0125  4.1955
  364MOL0     H49075   4.018   9.528   2.117  0.7461  0.9064 -0.5709
  364MOL0     H49076   3.901   9.558   2.261  0.7413 -0.3275  0.2844
  364MOL0     H49077   3.824   9.745   2.179 -2.1907 -3.0594  0.7552
  364MOL0     H49078   3.949   9.752   2.041  0.2006  0.5552 -0.4492
  364MOL0     H49079   3.837   9.588   1.924  1.8575 -0.0553 -0.2879
  364MOL0     H49080   3.735   9.538   2.062  0.5186 -0.2968  1.8616
  364MOL0     H49081   3.597   9.736   2.056 -0.1992 -1.1122 -1.4138
  364MOL0     H49082   3.704   9.813   1.947  0.7359  0.9833  0.9579
  364MOL0     H49083   3.650   9.655   1.771 -1.6588  0.7482 -3.1733
  364MOL0     H49084   3.545   9.558   1.879  2.4178 -1.4410 -3.4006
  364MOL0     H49085   3.383   9.728   1.880 -3.6804 -0.3216 -3.8908
  364MOL0     H49086   3.490   9.854   1.828 -3.5172  1.1187 -1.3052
  364MOL0     H49087   3.488   9.721   1.601  1.9211  1.2487  1.8646
  364MOL0     H49088   3.362   9.605   1.669  1.0383 -0.6358 -1.2695
  364MOL0     H49089   3.235   9.826   1.727 -0.8720 -2.5951 -0.8742
  364MOL0     H49090   3.235   9.780   1.558 -4.0001  1.2416  2.1101
  364MOL0     H49091   3.477   9.949   1.424  3.3015  0.2832  0.7438
  364MOL0     H49092   3.621  10.186   1.444  0.6275  1.7230  0.9993
  364MOL0     H49093   3.475  10.208   1.337  0.1122 -0.2470  0.0338
  364MOL0     H49094   3.544  10.368   1.591 -2.5680  2.0908  1.7441
  364MOL0     H49095   3.408  10.403   1.481 -0.6223 -1.9190  1.4813
  364MOL0     H49096   3.568  10.425   1.286 -1.2310 -0.4759 -0.2919
  364MOL0     H49097   3.701  10.407   1.407 -0.4978  0.8628 -2.6149
  364MOL0     H49098   3.588  10.595   1.533 -0.2961 -1.3083  0.2038
  364MOL0     H49099   3.480  10.630   1.403 -1.1811 -1.2657  0.2518
  364MOL0     H49100   3.855  10.766   1.251  0.3488 -0.9377  0.2658
  364MOL0     H49101   3.852  11.066   1.091 -0.6703  2.6875  1.1171
  364MOL0     H49102   3.966  11.124   1.214  0.2695  0.1767 -2.2939
  364MOL0     H49103   3.995  10.963   1.160  1.6759  1.2046  0.5822
  364MOL0     H49104   3.656  11.445   1.522  2.3221 -0.2020  3.2086
  364MOL0     H49105   3.636  11.679   1.485 -1.9198 -0.1309 -1.8417
  364MOL0     H49106   3.868  11.974   1.434  0.5279 -0.8014 -0.3550
  364MOL0     H49107   3.964  11.854   1.361 -0.0676  0.6970  1.6874
  364MOL0     H49108   3.912  11.926   1.144  1.9631  0.8872 -0.0218
  364MOL0     H49109   3.811  12.064   1.195 -1.6431 -2.0344  0.6074
  364MOL0     H49110   4.024  12.165   1.302 -2.0696 -0.5842  0.0095
  364MOL0     H49111   4.015  12.152   1.129 -3.3330 -0.6967 -0.5763
  364MOL0     H49112   4.158  11.965   1.316  1.3315 -2.2406 -1.1373
  364MOL0     H49113   4.123  11.915   1.157 -3.7375 -0.4423  1.8213
  364MOL0     H49114   4.356  12.040   1.242 -0.1864  1.4546  1.4158
  364MOL0     H49115   4.266  12.176   1.252  1.2681 -0.7995 -0.0293
  364MOL0     H49116   4.238  12.162   0.973  0.2411 -0.8189 -1.1128
  364MOL0     H49117   4.392  12.192   1.034 -1.0961  0.6905 -0.3399
  364MOL0     H49118   4.258  11.934   0.966 -1.2328  0.9293 -0.6286
  364MOL0     H49119   4.417  11.944   1.057 -0.8840  1.5789  1.7380
  364MOL0     H49120   4.509  12.085   0.851 -1.1020  2.5687 -0.3061
  364MOL0     H49121   4.366  12.052   0.774  2.7985  3.4777 -0.7170
  364MOL0     H49122   3.930  11.652   1.176  0.3250 -0.4251  0.5012
  364MOL0     H49123   3.957  11.424   1.204  2.0270  0.5953  0.8671
  364MOL0     H49124   3.543  11.074   1.452  0.8642 -0.3002  0.8382
  364MOL0     H49125   3.504  10.839   1.462 -2.6615  0.9065 -2.4111
  364MOL0     H49126   4.075   9.442   2.389 -0.4448  2.1461  3.0116
  364MOL0     H49127   4.294   9.320   2.440  0.5462  0.8385  2.3944
  364MOL0     H49128   4.768   9.334   2.342 -2.1680  0.8483  0.5419
  364MOL0     H49129   4.996   9.242   2.389  1.3213 -2.8816  1.0093
  364MOL0     H49130   5.164   9.077   2.463  0.6345 -0.0700 -0.1763
  364MOL0     H49131   5.173   9.248   2.526  0.2592  0.6063  1.4026
  364MOL0     H49132   5.293   9.046   2.710  0.9937 -0.5614  0.7421
  364MOL0     H49133   5.362   9.208   2.649  2.4062 -1.0186 -2.4574
  364MOL0     H49134   5.426   9.095   2.438 -0.9395 -0.7157 -0.2836
  364MOL0     H49135   5.368   8.939   2.505  3.4657 -3.3527  2.2072
  364MOL0     H49136   5.604   9.090   2.607  0.2169 -0.3611  2.9678
  364MOL0     H49137   5.593   8.936   2.518  0.7590 -1.3302  1.4937
  364MOL0     H49138   5.525   8.826   2.909  1.9614  0.3864  0.4524
  364MOL0     H49139   4.859   9.142   2.791  1.5157  0.1933  0.0503
  364MOL0     H49140   4.650   9.247   2.761  0.4706  0.0323  0.4122
  365MOL0     O49141   0.595   1.709   2.784 -0.1920  0.6791  0.1357
  365MOL0     C49142   0.677   1.621   2.794 -0.0234  0.0578  0.6177
  365MOL0     O49143   0.696   1.536   2.903  0.1900 -0.0567 -0.8576
  365MOL0     C49144   0.636   1.568   3.017  0.6768  0.5998  0.4483
  365MOL0     C49145   0.536   1.472   3.055  0.6205  0.2961 -0.8232
  365MOL0     C49146   0.465   1.502   3.173  0.7298  0.9147  0.0348
  365MOL0     C49147   0.497   1.609   3.257 -0.7910  0.1013  1.0534
  365MOL0     O49148   0.436   1.642   3.371  0.6350 -0.1800  0.3201
  365MOL0     C49149   0.301   1.693   3.346  0.7393 -0.2849  0.4607
  365MOL0     C49150   0.227   1.709   3.482 -0.5837  0.0060 -0.1181
  365MOL0     C49151   0.086   1.787   3.463 -0.2530 -0.5434 -0.6066
  365MOL0     C49152   0.011   1.807   3.599  0.1694  0.7217  1.2460
  365MOL0     C49153   0.076   1.927   3.679 -1.1959 -0.1913 -0.9689
  365MOL0     C49154   0.015   1.929   3.821  0.4352 -0.6130  0.1574
  365MOL0     C49155  -0.138   1.963   3.806 -0.3465  0.1013  0.3310
  365MOL0     C49156  -0.195   2.021   3.934  1.0397 -0.1937  0.0840
  365MOL0     N49157  -0.339   2.061   3.930 -0.3561 -0.0729 -0.3532
  365MOL0     C49158  -0.432   1.966   3.961  0.3533  0.3687 -1.0516
  365MOL0     C49159  -0.550   2.031   3.934  0.4058  0.1277  0.1837
  365MOL0     C49160  -0.679   1.958   3.956 -0.4933  0.1148 -0.2576
  365MOL0     C49161  -0.704   1.855   3.847 -0.2533  0.5697 -0.1945
  365MOL0     C49162  -0.773   1.905   3.719 -0.1226 -0.2825 -0.2778
  365MOL0     C49163  -0.693   2.015   3.641 -0.2744  0.5111 -0.5783
  365MOL0     O49164  -0.756   2.050   3.515 -0.5151  0.1159 -0.1272
  365MOL0     C49165  -0.684   2.138   3.430 -0.4859  0.3824 -0.0842
  365MOL0     C49166  -0.602   2.229   3.481  0.6628 -0.0533  0.1269
  365MOL0     C49167  -0.560   2.336   3.405  0.4776 -1.2000  0.8340
  365MOL0     C49168  -0.478   2.439   3.474 -0.6492 -0.6138 -0.6083
  365MOL0     C49169  -0.581   2.343   3.266 -0.0832  0.1166  0.4172
  365MOL0     C49170  -0.515   2.443   3.182 -0.2592 -0.0367  0.3045
  365MOL0     O49171  -0.428   2.537   3.229 -0.1344 -0.0615 -0.3002
  365MOL0     C49172  -0.430   2.653   3.151  0.5576  0.6098  0.0182
  365MOL0     C49173  -0.510   2.765   3.183  0.3438 -0.0061 -0.1519
  365MOL0     C49174  -0.501   2.878   3.106  0.5764 -0.4377  0.2510
  365MOL0     C49175  -0.430   2.878   2.988  0.2437 -0.6002 -0.1916
  365MOL0     O49176  -0.427   2.996   2.922 -0.5324  0.3073  0.5445
  365MOL0     C49177  -0.354   3.016   2.800 -0.1635 -0.3905  0.2289
  365MOL0     C49178  -0.377   3.156   2.749  0.4372 -0.3482 -0.1059
  365MOL0     C49179  -0.296   3.173   2.620 -0.6239  0.4240  0.1483
  365MOL0     C49180  -0.356   3.290   2.536 -0.7015 -0.5476 -0.3588
  365MOL0     C49181  -0.271   3.330   2.416  0.9254  0.2477  0.7675
  365MOL0     C49182  -0.246   3.217   2.314  1.1390  0.3904  0.0037
  365MOL0     C49183  -0.364   3.176   2.223 -0.1203 -0.0210 -0.7519
  365MOL0     C49184  -0.381   3.259   2.097  0.3532 -1.7611 -0.6082
  365MOL0    Cl49185  -0.258   3.203   1.979  0.4083 -0.1875 -0.0294
  365MOL0     C49186  -0.371   2.766   2.941  0.2413 -0.0246 -0.1002
  365MOL0     C49187  -0.370   2.656   3.024  0.0101  0.0434  0.3137
  365MOL0     O49188  -0.557   2.441   3.062 -0.1120 -0.2660 -0.0292
  365MOL0     C49189  -0.658   2.242   3.200 -0.4781  0.1081 -0.6353
  365MOL0     C49190  -0.711   2.142   3.290  0.6943 -0.4756  0.0508
  365MOL0     N49191  -0.515   2.160   3.902 -0.4451 -0.0598  0.0807
  365MOL0     N49192  -0.389   2.170   3.888 -0.2053 -0.1553 -0.0329
  365MOL0     C49193   0.617   1.680   3.227  0.3316 -0.2703  0.1319
  365MOL0     C49194   0.682   1.668   3.108  0.0141  0.7569  0.1593
  365MOL0     C49195   0.756   1.602   2.672  0.4120 -0.5818  0.6820
  365MOL0     C49196   0.884   1.539   2.689 -0.8460  0.1062  0.1052
  365MOL0     C49197   0.980   1.560   2.594  1.4336  0.5924  0.2781
  365MOL0     C49198   0.950   1.614   2.470 -0.0755 -1.2278  0.3272
  365MOL0     O49199   1.048   1.619   2.376  0.1989  0.1578  0.8812
  365MOL0     C49200   1.027   1.658   2.239  0.6201  0.2957  0.2694
  365MOL0     C49201   1.126   1.610   2.139 -0.8564  0.7931  0.1850
  365MOL0     C49202   1.137   1.456   2.136  0.1350  0.2674 -0.7893
  365MOL0     C49203   1.227   1.394   2.033 -0.8318  0.1600  0.0265
  365MOL0     C49204   1.196   1.391   1.897  0.2836  0.5591 -0.1121
  365MOL0     C49205   1.162   1.396   1.783  0.4751  0.6203 -0.4347
  365MOL0     C49206   0.820   1.663   2.448 -0.0637  0.9353 -0.4109
  365MOL0     C49207   0.726   1.669   2.546  0.2248  0.5749  0.1584
  365MOL0     H49208   0.529   1.371   3.015 -2.3936 -2.6660  5.5901
  365MOL0     H49209   0.396   1.423   3.205  2.4741 -0.0700  1.5808
  365MOL0     H49210   0.308   1.784   3.285  0.1571 -0.2877  0.3840
  365MOL0     H49211   0.237   1.623   3.291  0.8570  0.8751 -1.2528
  365MOL0     H49212   0.199   1.611   3.522  0.0399  0.3966  1.3737
  365MOL0     H49213   0.294   1.760   3.552  0.3321  1.4310 -1.9428
  365MOL0     H49214   0.104   1.887   3.423 -0.7999  0.4798  1.5690
  365MOL0     H49215   0.023   1.727   3.396 -2.0347  0.0979  0.4522
  365MOL0     H49216  -0.093   1.834   3.581  0.8116  3.6596  1.4317
  365MOL0     H49217   0.014   1.715   3.658  0.2398  0.6766  1.1732
  365MOL0     H49218   0.185   1.918   3.687 -1.0456  2.0133  0.2408
  365MOL0     H49219   0.060   2.014   3.616 -0.9948 -0.2434 -1.0915
  365MOL0     H49220   0.028   1.831   3.869  1.3432 -0.4124  0.3391
  365MOL0     H49221   0.065   2.009   3.876 -0.9417 -0.6896  1.5868
  365MOL0     H49222  -0.145   2.039   3.728 -0.0226 -0.8374 -0.6389
  365MOL0     H49223  -0.201   1.879   3.776 -0.1198  0.1398 -0.2509
  365MOL0     H49224  -0.130   2.106   3.960  1.0633 -0.2053  0.0619
  365MOL0     H49225  -0.190   1.949   4.016 -2.0463 -0.7926 -0.1413
  365MOL0     H49226  -0.421   1.865   4.001  1.0446  0.5598 -0.7381
  365MOL0     H49227  -0.668   1.915   4.056 -1.5198  0.9869  0.2529
  365MOL0     H49228  -0.756   2.035   3.963  0.8633  1.4436  0.9277
  365MOL0     H49229  -0.760   1.773   3.892 -1.7221  0.5332 -1.9794
  365MOL0     H49230  -0.605   1.819   3.814 -0.4581  2.9470 -3.9882
  365MOL0     H49231  -0.871   1.950   3.737  0.7454  0.6358  2.6364
  365MOL0     H49232  -0.778   1.817   3.653  2.6134 -1.6683  1.1823
  365MOL0     H49233  -0.591   1.978   3.628 -1.3126 -2.1491 -1.8846
  365MOL0     H49234  -0.680   2.102   3.706  1.3314 -0.5369  0.5701
  365MOL0     H49235  -0.581   2.232   3.588 -0.2825  1.0328  0.3017
  365MOL0     H49236  -0.518   2.538   3.452 -0.9570 -0.2805  1.2931
  365MOL0     H49237  -0.496   2.441   3.582 -1.7961 -2.3679 -0.7308
  365MOL0     H49238  -0.373   2.444   3.445 -0.3039 -2.2768  0.2427
  365MOL0     H49239  -0.559   2.761   3.279  1.5738 -1.4400  0.4709
  365MOL0     H49240  -0.541   2.973   3.138  1.6150  0.6686 -1.5488
  365MOL0     H49241  -0.251   2.984   2.815 -0.9241 -1.5411  4.4940
  365MOL0     H49242  -0.390   2.942   2.728 -1.5088  0.0828  0.3804
  365MOL0     H49243  -0.483   3.166   2.728  0.4712 -2.0681 -1.3158
  365MOL0     H49244  -0.342   3.222   2.829 -0.1341  2.1309 -1.7912
  365MOL0     H49245  -0.287   3.078   2.568  2.8824  0.0596  1.1697
  365MOL0     H49246  -0.187   3.184   2.621 -0.1726 -2.5542 -2.4785
  365MOL0     H49247  -0.458   3.268   2.502 -0.5768  0.4217 -1.4220
  365MOL0     H49248  -0.359   3.381   2.596  2.2892 -0.8094  0.3279
  365MOL0     H49249  -0.174   3.365   2.452  1.0464  1.2423 -0.4495
  365MOL0     H49250  -0.323   3.415   2.369 -1.8955 -1.1801  1.0604
  365MOL0     H49251  -0.161   3.246   2.251  1.7787 -2.2550 -0.4409
  365MOL0     H49252  -0.220   3.127   2.370 -0.7607 -0.3739 -0.2889
  365MOL0     H49253  -0.457   3.187   2.279  0.3418  1.4224 -0.2364
  365MOL0     H49254  -0.348   3.075   2.183  2.6307  0.1388 -0.2688
  365MOL0     H49255  -0.363   3.367   2.105 -1.1199 -1.5374  0.1073
  365MOL0     H49256  -0.482   3.245   2.057 -1.6345  3.6404  1.4592
  365MOL0     H49257  -0.336   2.764   2.838  1.1662 -3.0530  0.1892
  365MOL0     H49258  -0.301   2.576   2.999 -0.2667 -0.5520  1.3915
  365MOL0     H49259  -0.697   2.244   3.099 -1.1385  2.2935 -0.3777
  365MOL0     H49260  -0.790   2.074   3.260 -0.6937  0.9117  0.4348
  365MOL0     H49261   0.642   1.756   3.300 -1.6412  0.5262  0.0492
  365MOL0     H49262   0.757   1.736   3.069 -2.4373  2.6421 -1.6228
  365MOL0     H49263   0.928   1.510   2.784  3.8446 -1.1551 -2.1723
  365MOL0     H49264   1.078   1.532   2.632  1.2783  2.4664  2.2064
  365MOL0     H49265   0.929   1.615   2.215 -0.2305 -0.7141  4.5777
  365MOL0     H49266   1.018   1.766   2.230  1.7051  0.3359 -0.4474
  365MOL0     H49267   1.221   1.658   2.162 -1.1022  2.1460 -1.4752
  365MOL0     H49268   1.099   1.652   2.042  1.3363 -0.1205 -0.8866
  365MOL0     H49269   1.040   1.410   2.117  0.3248 -1.9713  2.8127
  365MOL0     H49270   1.158   1.424   2.238 -2.7067  1.2681  0.2130
  365MOL0     H49271   1.224   1.288   2.062  0.7452 -0.0724 -0.5522
  365MOL0     H49272   1.324   1.440   2.051  0.1767 -0.7544 -2.6084
  365MOL0     H49273   1.155   1.382   1.677  0.9314 -4.5076 -0.0018
  365MOL0     H49274   0.800   1.717   2.356  1.7412  1.5235 -0.4916
  365MOL0     H49275   0.628   1.710   2.522 -0.0882 -1.0561 -1.5422
  366MOL0     O49276   2.575   3.817  10.966 -0.1141 -0.1873 -0.2813
  366MOL0     C49277   2.483   3.849  11.041  0.4739 -0.1134 -0.4450
  366MOL0     O49278   2.352   3.805  11.031 -0.2607  0.1617 -0.2199
  366MOL0     C49279   2.313   3.712  10.939  0.3847 -1.0022  0.3814
  366MOL0     C49280   2.226   3.611  10.969  0.0714 -0.2455 -0.2047
  366MOL0     C49281   2.168   3.530  10.868 -0.3101  0.1500  0.3852
  366MOL0     C49282   2.207   3.536  10.737  0.9115 -0.8873 -0.4170
  366MOL0     O49283   2.153   3.438  10.651 -0.8577 -0.5391  0.1444
  366MOL0     C49284   2.256   3.369  10.585 -0.1880  1.2649 -0.6228
  366MOL0     C49285   2.210   3.272  10.468 -0.8233  0.5485  0.6485
  366MOL0     C49286   2.169   3.347  10.343  0.7591  0.3882 -0.5611
  366MOL0     C49287   2.259   3.463  10.285 -1.0401  1.0822 -0.3057
  366MOL0     C49288   2.211   3.505  10.142  0.0037  0.1251 -0.4089
  366MOL0     C49289   2.084   3.579  10.142 -0.2701 -0.0991 -0.1331
  366MOL0     C49290   2.045   3.632   9.997 -0.6302  0.3831  0.3110
  366MOL0     C49291   1.967   3.758  10.017  0.4221 -0.9849  0.4446
  366MOL0     N49292   1.896   3.806   9.898 -0.2203 -0.1703  0.0136
  366MOL0     C49293   1.800   3.743   9.825 -0.0959  0.1612  0.0452
  366MOL0     C49294   1.792   3.820   9.711  0.3622  0.1349 -0.7805
  366MOL0     C49295   1.710   3.799   9.577 -0.1685 -0.4841 -0.8057
  366MOL0     C49296   1.762   3.665   9.519  0.5498 -0.2361 -0.5087
  366MOL0     C49297   1.701   3.636   9.375 -0.6454  1.0985 -0.6263
  366MOL0     C49298   1.588   3.534   9.370  0.3580 -0.4381  0.2009
  366MOL0     O49299   1.624   3.404   9.399  1.0462 -0.3738  0.1030
  366MOL0     C49300   1.703   3.345   9.318 -0.8363  0.3273  0.0820
  366MOL0     C49301   1.760   3.229   9.358  0.4944 -0.1354 -0.2661
  366MOL0     C49302   1.851   3.158   9.293  0.2363  0.7581 -1.3061
  366MOL0     C49303   1.920   3.050   9.375 -0.1528 -0.1588 -0.6331
  366MOL0     C49304   1.883   3.198   9.160 -0.8707 -0.8890 -0.0229
  366MOL0     C49305   1.979   3.119   9.076 -0.0496 -0.1601 -1.2343
  366MOL0     O49306   2.036   3.009   9.131  0.2782  0.1210  0.2772
  366MOL0     C49307   2.146   2.956   9.066  0.1415 -0.6060 -0.3024
  366MOL0     C49308   2.256   3.022   9.008  0.4705 -1.0895  0.8736
  366MOL0     C49309   2.365   2.942   8.946  0.1424  0.0334 -0.4825
  366MOL0     C49310   2.361   2.803   8.940  0.9626  0.4762  0.8305
  366MOL0     O49311   2.447   2.718   8.889 -0.0809 -0.9282  0.2620
  366MOL0     C49312   2.583   2.736   8.937 -0.0925  0.7189 -0.7865
  366MOL0     C49313   2.675   2.636   8.873 -0.4733 -0.4065 -0.1418
  366MOL0     C49314   2.604   2.498   8.889 -0.2036  0.1512 -0.2989
  366MOL0     C49315   2.681   2.367   8.842  0.5890 -1.1950 -0.7050
  366MOL0     C49316   2.727   2.382   8.693 -0.0865 -0.1177 -0.5387
  366MOL0     C49317   2.840   2.271   8.666  1.4116 -0.6380  0.7251
  366MOL0     C49318   2.894   2.298   8.526  0.0018 -0.4586  0.2202
  366MOL0     C49319   2.955   2.165   8.464 -0.4849  0.7308  0.4000
  366MOL0    Cl49320   3.097   2.115   8.581 -0.1662  0.3369  0.2133
  366MOL0     C49321   2.244   2.741   8.998  0.0774  0.7071 -0.1974
  366MOL0     C49322   2.143   2.816   9.060 -0.8137  0.5258 -0.4211
  366MOL0     O49323   2.001   3.169   8.970  0.3229  0.6267 -0.3933
  366MOL0     C49324   1.817   3.306   9.101  1.1927 -0.3739  0.5212
  366MOL0     C49325   1.731   3.385   9.185  0.6202 -0.0915 -0.5520
  366MOL0     N49326   1.870   3.929   9.726  0.6670 -0.1999 -0.5318
  366MOL0     N49327   1.936   3.918   9.831 -0.7014 -0.7492  0.1583
  366MOL0     C49328   2.287   3.647  10.699 -0.4936  0.9252  0.3328
  366MOL0     C49329   2.339   3.734  10.800 -0.2831 -0.5979 -0.2227
  366MOL0     C49330   2.512   3.927  11.165 -0.7214  0.0991  0.8581
  366MOL0     C49331   2.423   3.942  11.273  0.4225  0.4806  0.2360
  366MOL0     C49332   2.460   4.015  11.382 -0.7475 -0.3829 -0.2904
  366MOL0     C49333   2.589   4.069  11.404  0.2001  0.7668  0.0339
  366MOL0     O49334   2.623   4.138  11.525  0.2308 -0.2382 -0.7120
  366MOL0     C49335   2.541   4.124  11.640  0.1450 -0.0988 -0.0941
  366MOL0     C49336   2.591   4.207  11.746 -0.0649 -0.3021  0.4959
  366MOL0     C49337   2.714   4.148  11.826 -0.5480 -1.0194  0.9983
  366MOL0     C49338   2.831   4.118  11.729 -0.3516 -0.1803 -0.5825
  366MOL0     C49339   2.951   4.100  11.803 -0.0426  0.9680  0.3119
  366MOL0     C49340   3.038   4.069  11.881 -0.6833  0.1742 -1.1120
  366MOL0     C49341   2.676   4.057  11.295  0.3949  0.4969  0.0375
  366MOL0     C49342   2.642   3.982  11.179 -0.6577  0.3200  0.0439
  366MOL0     H49343   2.201   3.602  11.074  3.4164  0.4962  0.7723
  366MOL0     H49344   2.093   3.454  10.884  1.5803 -1.4775  2.0819
  366MOL0     H49345   2.331   3.433  10.536 -1.0580  2.4705 -0.4353
  366MOL0     H49346   2.305   3.309  10.661 -0.3287 -0.0752 -1.5621
  366MOL0     H49347   2.298   3.215  10.438 -1.7107  0.2826 -1.6783
  366MOL0     H49348   2.129   3.204  10.498 -0.3950 -0.0058  0.5576
  366MOL0     H49349   2.163   3.271  10.264 -1.7858 -1.0886  0.9072
  366MOL0     H49350   2.068   3.384  10.362 -0.5240 -4.0187  3.1669
  366MOL0     H49351   2.271   3.545  10.357 -1.2314 -0.6336  1.7951
  366MOL0     H49352   2.362   3.427  10.280 -1.6593 -1.0923  1.1471
  366MOL0     H49353   2.285   3.579  10.112  0.3571  0.3672  0.9929
  366MOL0     H49354   2.203   3.424  10.068 -1.4682  2.1293 -2.5949
  366MOL0     H49355   1.997   3.520  10.172 -1.1853  1.6902  0.8269
  366MOL0     H49356   2.091   3.656  10.219 -1.3608 -0.1584  0.0341
  366MOL0     H49357   2.141   3.635   9.944 -1.3834 -1.9542 -1.3339
  366MOL0     H49358   1.971   3.563   9.954 -1.0002  0.0256  1.4963
  366MOL0     H49359   2.033   3.839  10.048  0.6407 -0.5880 -0.9915
  366MOL0     H49360   1.891   3.739  10.094 -0.6344  0.7849 -0.1050
  366MOL0     H49361   1.736   3.657   9.843  0.2633 -0.2534 -0.6118
  366MOL0     H49362   1.602   3.789   9.596  0.1277  0.6427  1.9493
  366MOL0     H49363   1.734   3.879   9.507  1.4887  0.6006  0.9161
  366MOL0     H49364   1.730   3.582   9.583  0.7490 -2.5324 -3.1886
  366MOL0     H49365   1.870   3.667   9.506  0.6535 -1.5789 -0.0281
  366MOL0     H49366   1.784   3.611   9.309 -0.6402 -1.0023  0.0868
  366MOL0     H49367   1.653   3.729   9.343 -2.5757  1.2601  2.3382
  366MOL0     H49368   1.546   3.541   9.269 -1.6384 -1.1148  0.9393
  366MOL0     H49369   1.512   3.574   9.437 -2.4658  0.3905 -3.1578
  366MOL0     H49370   1.717   3.192   9.450  5.7074 -1.2990  2.0507
  366MOL0     H49371   2.027   3.069   9.379 -0.2345  0.2989 -0.5504
  366MOL0     H49372   1.889   3.048   9.480  2.3364 -0.3196  0.1655
  366MOL0     H49373   1.902   2.956   9.321 -0.3122  0.4044 -1.5792
  366MOL0     H49374   2.269   3.129   9.003 -1.7276 -0.8273 -0.9899
  366MOL0     H49375   2.446   3.008   8.918  1.8729 -1.4249  0.7764
  366MOL0     H49376   2.625   2.837   8.924 -1.2614  1.9110  3.2215
  366MOL0     H49377   2.574   2.723   9.045  2.7569 -1.6526 -0.6971
  366MOL0     H49378   2.693   2.652   8.766  3.1822 -1.8952  0.1279
  366MOL0     H49379   2.777   2.632   8.912 -1.4525 -0.1882  2.6587
  366MOL0     H49380   2.506   2.500   8.840 -0.8473  1.9678  0.9434
  366MOL0     H49381   2.580   2.497   8.996  2.2233 -1.8904  0.3192
  366MOL0     H49382   2.766   2.355   8.909 -0.0723  1.4308  0.7454
  366MOL0     H49383   2.624   2.273   8.849 -2.2157  0.4495  0.1273
  366MOL0     H49384   2.776   2.478   8.678  2.5851 -1.7484 -3.1887
  366MOL0     H49385   2.649   2.374   8.617 -0.0050 -1.2010 -0.5254
  366MOL0     H49386   2.923   2.285   8.736  0.6539  1.3743  1.3194
  366MOL0     H49387   2.794   2.172   8.659  0.0738  0.0479 -0.9784
  366MOL0     H49388   2.962   2.384   8.523  2.0292 -1.9829 -3.0989
  366MOL0     H49389   2.814   2.321   8.454 -0.2745  1.0671  0.9683
  366MOL0     H49390   2.990   2.178   8.361 -1.3424 -1.1141 -0.1649
  366MOL0     H49391   2.878   2.089   8.455 -0.8435  1.2121 -0.7168
  366MOL0     H49392   2.228   2.634   8.991 -0.1800  0.8562 -3.9190
  366MOL0     H49393   2.055   2.763   9.097 -0.5684 -0.2720 -0.9421
  366MOL0     H49394   1.835   3.327   8.996  0.8683  1.9790  0.8835
  366MOL0     H49395   1.691   3.466   9.125 -0.0703 -0.4184 -0.5454
  366MOL0     H49396   2.296   3.674  10.595  1.9648 -0.7855  0.0271
  366MOL0     H49397   2.387   3.822  10.761 -0.4439 -0.8782 -1.0616
  366MOL0     H49398   2.324   3.898  11.273  0.6404 -0.0206 -0.9227
  366MOL0     H49399   2.384   4.025  11.459 -1.4379  1.3175 -1.1339
  366MOL0     H49400   2.444   4.166  11.613  0.1338  1.9519  2.7405
  366MOL0     H49401   2.543   4.022  11.679  0.9323  0.2916  0.9550
  366MOL0     H49402   2.513   4.208  11.823 -1.4469 -1.4023 -0.8323
  366MOL0     H49403   2.603   4.312  11.716 -1.9597  0.2190  1.4238
  366MOL0     H49404   2.684   4.055  11.875 -0.1699 -0.9623  1.3447
  366MOL0     H49405   2.747   4.221  11.901  1.8331 -1.6614  0.6530
  366MOL0     H49406   2.851   4.195  11.654 -0.6163  3.2678  2.5637
  366MOL0     H49407   2.802   4.024  11.682  1.7063 -1.4249  0.4923
  366MOL0     H49408   3.107   4.063  11.962  0.6805  0.7671 -2.1776
  366MOL0     H49409   2.778   4.091  11.284  0.9665 -1.8035 -3.0813
  366MOL0     H49410   2.717   3.961  11.104 -0.5641  1.7120 -0.2868
  367MOL0     O49411   6.537   1.273   2.504  0.4206 -0.4677  0.3545
  367MOL0     C49412   6.548   1.307   2.620 -0.5759 -1.2004  0.8775
  367MOL0     O49413   6.462   1.398   2.687  0.4856  0.9189 -0.8564
  367MOL0     C49414   6.374   1.471   2.618 -0.1412  0.0305 -0.7621
  367MOL0     C49415   6.245   1.493   2.669 -0.4644  0.1465 -0.1121
  367MOL0     C49416   6.160   1.572   2.605  0.0625  0.3219  0.0656
  367MOL0     C49417   6.204   1.651   2.499  0.8417  0.1605  0.2073
  367MOL0     O49418   6.115   1.742   2.445 -0.4298  1.0716 -0.2920
  367MOL0     C49419   6.101   1.721   2.306 -0.8375 -0.9354  0.1267
  367MOL0     C49420   6.013   1.834   2.240  1.2429  1.3061 -0.4772
  367MOL0     C49421   6.045   1.971   2.283 -0.6912  0.1490 -0.3088
  367MOL0     C49422   5.962   2.071   2.210 -0.5060 -0.8666 -0.3639
  367MOL0     C49423   6.040   2.195   2.151 -0.3867 -1.2290  0.2990
  367MOL0     C49424   5.938   2.311   2.117 -0.3659 -0.4367 -0.2665
  367MOL0     C49425   5.994   2.377   1.987  0.5734  0.1649  0.0382
  367MOL0     C49426   5.946   2.519   1.952  1.0567 -0.4929 -0.3217
  367MOL0     N49427   5.800   2.534   1.941 -0.7239  0.2727  0.1639
  367MOL0     C49428   5.709   2.620   2.002  0.2500  0.9887 -0.5273
  367MOL0     C49429   5.590   2.611   1.935 -0.8451 -0.8739  0.2688
  367MOL0     C49430   5.466   2.685   1.957  0.6234  0.2207 -0.1872
  367MOL0     C49431   5.419   2.667   2.099  0.9678 -1.2535 -0.5580
  367MOL0     C49432   5.368   2.524   2.129 -0.6613  0.4993  0.7075
  367MOL0     C49433   5.343   2.510   2.273 -0.0756  0.4636 -0.1355
  367MOL0     O49434   5.342   2.363   2.309 -0.0928 -0.5382  0.1654
  367MOL0     C49435   5.343   2.330   2.444  0.7672  0.2006  0.1659
  367MOL0     C49436   5.354   2.197   2.478 -0.0170 -0.7217 -0.0639
  367MOL0     C49437   5.340   2.167   2.618  0.9759 -0.3129  0.9696
  367MOL0     C49438   5.333   2.020   2.654 -1.1785  0.1238 -0.4630
  367MOL0     C49439   5.333   2.268   2.719 -0.7741  0.6524 -0.2216
  367MOL0     C49440   5.358   2.253   2.869 -0.2335 -0.8325  0.6613
  367MOL0     O49441   5.283   2.326   2.955 -0.0683 -0.3761  1.2768
  367MOL0     C49442   5.310   2.317   3.093  0.1527  0.8484 -0.4158
  367MOL0     C49443   5.200   2.287   3.172 -0.9463  0.6335  0.1324
  367MOL0     C49444   5.223   2.275   3.307  0.0187 -0.3361  0.6315
  367MOL0     C49445   5.344   2.298   3.365  0.0637 -0.3353  0.5763
  367MOL0     O49446   5.343   2.291   3.503 -0.2364 -0.8144 -0.4308
  367MOL0     C49447   5.474   2.283   3.575  0.0156  0.9463 -0.2137
  367MOL0     C49448   5.458   2.255   3.727  0.3122  0.4593  0.2446
  367MOL0     C49449   5.581   2.229   3.813  0.3267  0.5053  0.2174
  367MOL0     C49450   5.616   2.083   3.804 -0.9118  0.1702 -1.2499
  367MOL0     C49451   5.751   2.042   3.871  0.4285  0.4573  0.6498
  367MOL0     C49452   5.764   1.888   3.907  0.7858 -0.0932 -0.0035
  367MOL0     C49453   5.701   1.841   4.040 -0.0970 -0.5591 -0.4228
  367MOL0     C49454   5.589   1.739   4.023 -0.4269 -0.1661  0.8860
  367MOL0    Cl49455   5.565   1.668   4.183  0.4252  0.0028 -0.2466
  367MOL0     C49456   5.450   2.343   3.284  0.5276 -0.1272 -0.1788
  367MOL0     C49457   5.431   2.347   3.147 -0.2489 -0.2144  0.3629
  367MOL0     O49458   5.438   2.168   2.898 -0.4522  0.0717 -0.5161
  367MOL0     C49459   5.323   2.391   2.678 -0.4056 -0.7755 -0.1422
  367MOL0     C49460   5.334   2.425   2.542 -0.3863 -0.6018 -0.5353
  367MOL0     N49461   5.609   2.493   1.859  0.5898  0.5853  0.2529
  367MOL0     N49462   5.727   2.450   1.865  0.6053 -0.8099  0.2669
  367MOL0     C49463   6.331   1.637   2.454  0.6906 -0.0754 -0.3171
  367MOL0     C49464   6.420   1.544   2.511  1.1528 -0.8913  0.2499
  367MOL0     C49465   6.663   1.276   2.701  0.7459  0.2262 -0.6001
  367MOL0     C49466   6.650   1.270   2.840  0.8544  0.0492 -1.1225
  367MOL0     C49467   6.754   1.231   2.918 -0.2156 -0.5385 -0.6338
  367MOL0     C49468   6.881   1.218   2.865 -0.6634 -0.6982 -0.1916
  367MOL0     O49469   6.985   1.196   2.952  0.0576  0.5104 -0.4402
  367MOL0     C49470   7.124   1.214   2.926 -0.0315 -0.0416  0.2838
  367MOL0     C49471   7.188   1.292   3.039  0.0702  0.2572 -0.3263
  367MOL0     C49472   7.206   1.205   3.173  0.1964 -0.8876  0.9794
  367MOL0     C49473   7.217   1.287   3.309  0.1361 -0.4344  0.7140
  367MOL0     C49474   7.078   1.306   3.353  0.2100 -0.2014 -0.0350
  367MOL0     C49475   6.972   1.325   3.402  0.4840  0.9301  0.2785
  367MOL0     C49476   6.899   1.237   2.729 -0.3552  0.9521  0.9203
  367MOL0     C49477   6.794   1.262   2.641 -0.1788 -0.3245  0.2697
  367MOL0     H49478   6.203   1.430   2.746 -1.4942 -0.0148 -0.7848
  367MOL0     H49479   6.067   1.594   2.657  1.4007 -1.1767  3.3792
  367MOL0     H49480   6.200   1.727   2.259 -0.0070  0.2870  1.9227
  367MOL0     H49481   6.054   1.626   2.280 -4.1450  0.3237  0.9436
  367MOL0     H49482   6.029   1.826   2.132 -2.1664 -3.0940 -0.9668
  367MOL0     H49483   5.906   1.823   2.258  0.9893  1.2952 -1.8772
  367MOL0     H49484   6.025   1.977   2.391 -4.4190  1.3036 -0.9040
  367MOL0     H49485   6.149   1.993   2.259  0.5201  1.0354  4.5393
  367MOL0     H49486   5.903   2.038   2.124  2.8565 -0.7748 -2.9612
  367MOL0     H49487   5.901   2.125   2.283 -0.0418  0.3434 -0.8301
  367MOL0     H49488   6.108   2.232   2.228  0.2981  0.8290 -1.1862
  367MOL0     H49489   6.099   2.163   2.064  0.5094  0.6856  0.1587
  367MOL0     H49490   5.833   2.284   2.103 -1.3097  2.3098  0.7693
  367MOL0     H49491   5.943   2.379   2.203 -2.8830  1.4347 -1.4857
  367MOL0     H49492   6.103   2.384   1.988  0.6676 -1.0881 -0.0207
  367MOL0     H49493   5.961   2.314   1.903 -0.0331 -2.2262  1.9627
  367MOL0     H49494   5.996   2.555   1.861  0.6493  0.3427 -0.2218
  367MOL0     H49495   5.981   2.586   2.031 -0.9295  1.7973 -1.2793
  367MOL0     H49496   5.719   2.700   2.075 -2.5997 -0.9114  2.2146
  367MOL0     H49497   5.508   2.784   1.937  0.2971  0.5121  0.5623
  367MOL0     H49498   5.389   2.672   1.880 -1.1783  0.2830  1.5210
  367MOL0     H49499   5.339   2.737   2.126  2.1742 -0.9916  2.8055
  367MOL0     H49500   5.507   2.682   2.161 -2.2256  1.5598  3.9577
  367MOL0     H49501   5.445   2.451   2.103 -2.2670 -1.8581  2.2169
  367MOL0     H49502   5.282   2.506   2.063  1.0896 -1.4725 -1.1753
  367MOL0     H49503   5.251   2.560   2.307  0.0068  0.1364  0.5924
  367MOL0     H49504   5.426   2.548   2.333 -0.2439  0.4922  0.0842
  367MOL0     H49505   5.364   2.122   2.400  1.6889 -2.1366  1.4304
  367MOL0     H49506   5.279   2.013   2.749 -4.1504  1.8087 -1.8863
  367MOL0     H49507   5.270   1.962   2.585  0.3865 -0.6256 -1.3106
  367MOL0     H49508   5.435   1.981   2.663 -1.2018 -0.1670 -1.3566
  367MOL0     H49509   5.108   2.250   3.129  0.1993 -3.2497  0.6641
  367MOL0     H49510   5.143   2.230   3.364 -1.1973  0.1178 -0.6646
  367MOL0     H49511   5.543   2.215   3.525 -1.4500  1.6810 -3.5011
  367MOL0     H49512   5.537   2.372   3.569  2.5465 -0.7901 -0.8479
  367MOL0     H49513   5.421   2.348   3.770  0.7227  0.8033 -0.1359
  367MOL0     H49514   5.397   2.164   3.726 -0.6734  1.0530  2.0442
  367MOL0     H49515   5.568   2.248   3.920  0.1197 -1.6089  0.6125
  367MOL0     H49516   5.660   2.297   3.779 -0.4127  1.3207  0.0749
  367MOL0     H49517   5.529   2.030   3.845 -2.3654  1.7285 -2.1552
  367MOL0     H49518   5.623   2.045   3.702 -0.9472 -1.9501 -0.5042
  367MOL0     H49519   5.738   2.100   3.964 -4.0906  2.5857 -0.9864
  367MOL0     H49520   5.830   2.088   3.812 -0.6343 -0.8213 -1.9100
  367MOL0     H49521   5.710   1.849   3.820  0.9287  1.8734 -1.0274
  367MOL0     H49522   5.868   1.857   3.897  0.3948 -1.2693 -0.6589
  367MOL0     H49523   5.667   1.931   4.092 -1.5568 -1.0944 -0.4260
  367MOL0     H49524   5.779   1.795   4.101  0.1506  2.3264  1.6629
  367MOL0     H49525   5.616   1.666   3.947 -1.2851  1.5492 -1.1580
  367MOL0     H49526   5.492   1.783   3.998 -1.5193 -1.9926  1.7331
  367MOL0     H49527   5.542   2.377   3.332  0.1592  0.0152  0.4328
  367MOL0     H49528   5.504   2.385   3.075 -2.0911  0.2250 -1.3393
  367MOL0     H49529   5.305   2.458   2.762 -0.6256 -1.3927  0.3160
  367MOL0     H49530   5.328   2.531   2.524 -1.4417 -0.8344 -1.6464
  367MOL0     H49531   6.362   1.716   2.387 -1.8817  0.8986 -0.4825
  367MOL0     H49532   6.527   1.532   2.495  0.8775 -1.8046 -1.0137
  367MOL0     H49533   6.554   1.291   2.885  0.5477 -0.5805 -1.4707
  367MOL0     H49534   6.751   1.231   3.027  3.0674 -1.5112 -0.4211
  367MOL0     H49535   7.172   1.116   2.917  2.1474  0.7261  2.4708
  367MOL0     H49536   7.137   1.284   2.843  1.4234 -0.6938 -0.0718
  367MOL0     H49537   7.138   1.389   3.047  1.5321  1.4715 -4.0189
  367MOL0     H49538   7.290   1.328   3.023  0.9810 -0.4786  3.0198
  367MOL0     H49539   7.282   1.129   3.153  1.3704  0.7864 -1.2918
  367MOL0     H49540   7.115   1.144   3.165 -0.9749  0.9562 -0.7392
  367MOL0     H49541   7.275   1.377   3.289  0.8128 -1.0452 -0.1626
  367MOL0     H49542   7.272   1.227   3.382  3.2953  2.3173  0.8405
  367MOL0     H49543   6.880   1.321   3.457  0.4478  0.0627  0.1750
  367MOL0     H49544   7.000   1.222   2.695 -0.1170 -0.8651  2.2811
  367MOL0     H49545   6.817   1.264   2.535  0.0367 -2.0897  0.2514
  368MOL0     O49546   6.008   0.417   7.457 -0.0751 -0.5505  0.0671
  368MOL0     C49547   5.976   0.512   7.389  0.6502 -0.4260  0.1578
  368MOL0     O49548   6.058   0.603   7.340  0.1550 -0.8353 -0.4583
  368MOL0     C49549   6.185   0.630   7.399  0.4280  0.2384 -0.7193
  368MOL0     C49550   6.293   0.533   7.429  0.2591 -0.3903 -0.1273
  368MOL0     C49551   6.415   0.566   7.480 -0.2541 -0.6294 -0.0885
  368MOL0     C49552   6.442   0.703   7.506  0.1950  0.1992  0.5377
  368MOL0     O49553   6.571   0.745   7.532  0.5619 -0.6222 -0.1356
  368MOL0     C49554   6.623   0.704   7.655 -0.1579  0.0510 -0.1972
  368MOL0     C49555   6.655   0.822   7.745  0.3692 -0.1470  0.0001
  368MOL0     C49556   6.752   0.914   7.676 -0.2808 -0.2642 -0.4610
  368MOL0     C49557   6.808   1.016   7.779  0.4987 -1.5371 -0.3021
  368MOL0     C49558   6.921   1.086   7.719  1.9657 -0.5771  1.3355
  368MOL0     C49559   6.981   1.205   7.803 -0.0910 -0.6129 -0.3697
  368MOL0     C49560   7.122   1.233   7.754 -0.1284 -0.3332 -0.2407
  368MOL0     C49561   7.220   1.110   7.767 -0.7663  0.2730 -0.5470
  368MOL0     N49562   7.353   1.163   7.746 -0.3496 -0.1666  0.6767
  368MOL0     C49563   7.399   1.218   7.630 -0.7789  0.1467  0.2016
  368MOL0     C49564   7.483   1.316   7.676  0.2328  0.2600  0.0610
  368MOL0     C49565   7.576   1.396   7.584  0.3302 -0.2172 -0.8963
  368MOL0     C49566   7.550   1.542   7.585 -0.0992  0.0445  0.4801
  368MOL0     C49567   7.642   1.602   7.477  0.7331  0.4082 -0.7905
  368MOL0     C49568   7.595   1.745   7.450 -1.1418  0.7533  0.4844
  368MOL0     O49569   7.470   1.743   7.386 -0.0232 -0.1228  0.0197
  368MOL0     C49570   7.398   1.863   7.384  0.3732 -0.1529  0.2709
  368MOL0     C49571   7.270   1.847   7.330  0.3425 -0.3594 -0.5333
  368MOL0     C49572   7.185   1.952   7.300  0.1552  0.2229 -0.2148
  368MOL0     C49573   7.041   1.926   7.262 -1.1128  0.6333 -0.6672
  368MOL0     C49574   7.244   2.081   7.329  0.6692  0.2566  0.1530
  368MOL0     C49575   7.157   2.205   7.328  0.5617  0.7239 -0.0589
  368MOL0     O49576   7.049   2.200   7.252 -0.5629 -0.7061 -0.6332
  368MOL0     C49577   6.947   2.291   7.269  0.0649  0.2523 -0.7456
  368MOL0     C49578   6.953   2.416   7.208 -0.7137 -0.5962 -0.5956
  368MOL0     C49579   6.833   2.499   7.213  0.3866  0.2592 -0.1903
  368MOL0     C49580   6.715   2.452   7.275  0.3058 -0.3928 -0.4439
  368MOL0     O49581   6.600   2.529   7.295 -0.1113  0.3410  0.6107
  368MOL0     C49582   6.616   2.667   7.279  0.7532 -0.0047 -0.9981
  368MOL0     C49583   6.471   2.735   7.297 -0.1205 -0.2022 -0.0848
  368MOL0     C49584   6.477   2.887   7.289 -0.6298 -0.9387 -0.3455
  368MOL0     C49585   6.339   2.961   7.285 -0.0467 -0.6657 -0.1580
  368MOL0     C49586   6.350   3.112   7.255  0.6915  0.5754  0.3927
  368MOL0     C49587   6.208   3.166   7.230 -0.0182 -0.4947  0.2928
  368MOL0     C49588   6.205   3.277   7.118 -0.2432 -0.1557  0.9200
  368MOL0     C49589   6.265   3.409   7.157 -0.8734 -0.5857 -0.0466
  368MOL0    Cl49590   6.218   3.536   7.029  0.1895  0.2824  0.0177
  368MOL0     C49591   6.725   2.330   7.350 -0.1487  0.2806 -1.1039
  368MOL0     C49592   6.838   2.250   7.344  0.2124 -0.1183 -0.1275
  368MOL0     O49593   7.174   2.268   7.425  0.4037 -0.0378 -0.1918
  368MOL0     C49594   7.369   2.097   7.380 -0.0170  0.0819 -0.1557
  368MOL0     C49595   7.446   1.986   7.421 -0.1213 -0.9598 -0.5184
  368MOL0     N49596   7.502   1.313   7.813 -0.6493  0.3410 -0.1140
  368MOL0     N49597   7.422   1.220   7.852  0.3261  0.0922 -0.3180
  368MOL0     C49598   6.347   0.796   7.465  0.0701 -0.4899 -0.1046
  368MOL0     C49599   6.217   0.764   7.435 -0.3116  0.5286  0.2151
  368MOL0     C49600   5.839   0.543   7.338  0.3842 -0.3180  0.4289
  368MOL0     C49601   5.818   0.634   7.230  0.4800  0.3998 -0.5644
  368MOL0     C49602   5.695   0.663   7.190  0.2627 -0.3960  0.0605
  368MOL0     C49603   5.591   0.589   7.240  0.3346  0.5614  0.8228
  368MOL0     O49604   5.468   0.616   7.198 -0.5144 -0.1322  0.7905
  368MOL0     C49605   5.386   0.671   7.296  1.2134  0.6253  0.5235
  368MOL0     C49606   5.262   0.726   7.223 -0.2829 -0.1851 -0.2667
  368MOL0     C49607   5.182   0.612   7.149 -0.1738  1.2911  0.2405
  368MOL0     C49608   5.106   0.678   7.031 -0.8652 -0.2284  0.7444
  368MOL0     C49609   5.025   0.581   6.958  0.3252 -0.1134  0.6057
  368MOL0     C49610   4.973   0.487   6.897 -0.5410 -0.1113 -0.1940
  368MOL0     C49611   5.601   0.484   7.333 -0.1368 -0.3613 -0.4550
  368MOL0     C49612   5.729   0.466   7.384  0.1853  0.3004  0.0816
  368MOL0     H49613   6.271   0.428   7.410 -1.9549  0.2881 -1.7151
  368MOL0     H49614   6.484   0.485   7.502 -1.5577 -1.9424 -0.6156
  368MOL0     H49615   6.549   0.640   7.702  0.0971 -0.1972 -0.1283
  368MOL0     H49616   6.711   0.639   7.652 -1.5578 -1.9451  0.1130
  368MOL0     H49617   6.563   0.877   7.765  0.7809  0.5365  0.0592
  368MOL0     H49618   6.688   0.785   7.842 -0.8606 -1.7373 -0.1550
  368MOL0     H49619   6.831   0.844   7.648 -0.9605 -1.8079  1.3078
  368MOL0     H49620   6.702   0.955   7.588  1.1191  0.8126 -0.7955
  368MOL0     H49621   6.737   1.091   7.816  3.5181  1.9903 -1.0424
  368MOL0     H49622   6.836   0.960   7.869 -2.0255 -1.2480  0.7582
  368MOL0     H49623   6.993   1.017   7.673 -0.5199 -1.1384 -2.0809
  368MOL0     H49624   6.873   1.146   7.641  1.9667 -2.7802 -0.4467
  368MOL0     H49625   6.921   1.295   7.785  1.7288  0.6218 -0.5974
  368MOL0     H49626   6.970   1.184   7.910 -2.2026  2.0534  0.0467
  368MOL0     H49627   7.115   1.256   7.648 -3.7843 -1.1356 -0.2802
  368MOL0     H49628   7.154   1.322   7.810 -1.2723  0.1442 -0.3134
  368MOL0     H49629   7.207   1.024   7.701  0.9210 -0.1731 -0.3570
  368MOL0     H49630   7.221   1.088   7.874 -0.6151  0.1940 -0.5636
  368MOL0     H49631   7.383   1.193   7.525  0.1797  0.2668  0.0117
  368MOL0     H49632   7.675   1.372   7.622  0.1782  0.6302  0.0617
  368MOL0     H49633   7.548   1.362   7.483 -1.6321 -2.1883  0.2292
  368MOL0     H49634   7.564   1.590   7.682  1.1957 -0.9535  0.8209
  368MOL0     H49635   7.448   1.554   7.546 -0.1919 -1.3603  0.2353
  368MOL0     H49636   7.643   1.554   7.379  2.9378  2.5356 -1.8850
  368MOL0     H49637   7.748   1.599   7.501  0.4240 -2.3059  0.6876
  368MOL0     H49638   7.659   1.809   7.389 -2.5890  0.7013 -1.1873
  368MOL0     H49639   7.602   1.785   7.551  0.6221 -3.7539  2.4201
  368MOL0     H49640   7.242   1.745   7.308  0.9767 -0.8016  0.6090
  368MOL0     H49641   7.007   1.976   7.170  0.0517 -0.3012 -1.6480
  368MOL0     H49642   7.045   1.817   7.247  4.4919  0.6750 -1.4347
  368MOL0     H49643   6.971   1.954   7.341 -0.8999 -0.9768  0.1277
  368MOL0     H49644   7.037   2.439   7.143  0.2596 -2.0041  0.1110
  368MOL0     H49645   6.840   2.591   7.156  0.2128  0.5407  0.2393
  368MOL0     H49646   6.680   2.704   7.359 -1.0608 -0.7157  0.8757
  368MOL0     H49647   6.657   2.679   7.178  4.4196 -3.1698 -0.1296
  368MOL0     H49648   6.401   2.697   7.222  0.6588  0.0397 -0.9581
  368MOL0     H49649   6.443   2.707   7.399  2.2695 -0.5199  0.5364
  368MOL0     H49650   6.524   2.911   7.193 -2.0124  0.5625 -0.6989
  368MOL0     H49651   6.544   2.923   7.368 -0.9280  1.5766 -1.1463
  368MOL0     H49652   6.279   2.909   7.210 -0.0614 -0.1570 -0.5008
  368MOL0     H49653   6.284   2.944   7.378 -1.2641 -2.1347 -1.1058
  368MOL0     H49654   6.415   3.122   7.168 -0.9331 -0.8466 -1.0560
  368MOL0     H49655   6.386   3.168   7.341  0.1983 -1.1240  1.7657
  368MOL0     H49656   6.155   3.082   7.184  0.1493  0.2458 -1.3270
  368MOL0     H49657   6.162   3.198   7.323 -2.1686 -0.0509 -0.8598
  368MOL0     H49658   6.098   3.295   7.100 -0.3968 -1.8617 -0.0527
  368MOL0     H49659   6.254   3.229   7.033 -0.0607 -1.6854  1.8520
  368MOL0     H49660   6.374   3.400   7.170 -1.0684 -0.9765  1.4094
  368MOL0     H49661   6.227   3.429   7.257  2.6738 -0.1951  1.3881
  368MOL0     H49662   6.650   2.303   7.423  1.2342  0.3538  0.4018
  368MOL0     H49663   6.863   2.162   7.401  0.2866 -2.3102 -3.3093
  368MOL0     H49664   7.401   2.197   7.407  0.1728  0.0124 -0.1184
  368MOL0     H49665   7.545   2.002   7.463 -0.2553 -1.7760  0.1395
  368MOL0     H49666   6.375   0.900   7.454 -2.8229  0.6764  2.0296
  368MOL0     H49667   6.154   0.847   7.403  0.5447  1.1065 -0.0102
  368MOL0     H49668   5.902   0.683   7.181  2.3323 -2.1796 -0.1670
  368MOL0     H49669   5.679   0.745   7.121 -1.2274 -2.1571 -1.8427
  368MOL0     H49670   5.349   0.604   7.373 -0.1815  0.8848  0.1005
  368MOL0     H49671   5.428   0.753   7.355 -0.1037 -0.3059  2.8706
  368MOL0     H49672   5.299   0.803   7.154 -0.6609  2.0982  1.9237
  368MOL0     H49673   5.194   0.774   7.295 -0.7533 -0.2369 -0.6758
  368MOL0     H49674   5.117   0.570   7.225  1.6608 -2.5957 -0.1264
  368MOL0     H49675   5.245   0.530   7.113  0.9628  0.7604  3.1759
  368MOL0     H49676   5.173   0.737   6.967  1.3956 -0.7380  2.5269
  368MOL0     H49677   5.031   0.749   7.066 -2.0208 -1.1443  0.2234
  368MOL0     H49678   4.939   0.403   6.840  0.1195 -1.5149  1.4122
  368MOL0     H49679   5.515   0.435   7.376 -0.3491  0.4803  0.0906
  368MOL0     H49680   5.735   0.386   7.458  1.1676 -1.6074 -1.9144
  369MOL0     O49681   3.667   7.652   9.713  0.2482 -0.0830  0.1103
  369MOL0     C49682   3.731   7.599   9.797 -0.2209  0.5071  0.0173
  369MOL0     O49683   3.831   7.659   9.871  0.6663  0.0266  0.4448
  369MOL0     C49684   3.834   7.797   9.873 -0.1659  1.0760  0.3220
  369MOL0     C49685   3.908   7.870   9.778  0.6550  0.3957 -0.5626
  369MOL0     C49686   3.897   8.022   9.769  0.3543  0.1434 -0.7205
  369MOL0     C49687   3.826   8.090   9.874  0.0746  0.4163  0.0810
  369MOL0     O49688   3.836   8.226   9.872  0.1057 -0.1924  1.4399
  369MOL0     C49689   3.786   8.312   9.977 -0.7711 -0.0610  0.8017
  369MOL0     C49690   3.640   8.346   9.974 -0.8930  0.3327 -0.5828
  369MOL0     C49691   3.627   8.459  10.067  0.3138 -0.5089 -0.1348
  369MOL0     C49692   3.484   8.498  10.090 -0.2026  0.2413  1.1141
  369MOL0     C49693   3.462   8.626  10.183  0.2114  0.1121  0.1287
  369MOL0     C49694   3.518   8.610  10.322 -0.1217 -0.2245  0.4947
  369MOL0     C49695   3.538   8.749  10.377 -0.2196  0.2413 -0.2660
  369MOL0     C49696   3.403   8.824  10.393  0.0789  0.3003  0.5333
  369MOL0     N49697   3.424   8.950  10.465  0.1926 -0.1383 -0.0439
  369MOL0     C49698   3.454   8.958  10.604 -0.1688 -0.1340  0.5848
  369MOL0     C49699   3.430   9.086  10.629 -0.4644 -2.0975  0.3404
  369MOL0     C49700   3.414   9.148  10.757 -0.2772 -0.6473 -0.6314
  369MOL0     C49701   3.272   9.114  10.817 -0.2351  0.1799 -0.2520
  369MOL0     C49702   3.246   9.204  10.939  0.7252 -0.6805  0.9588
  369MOL0     C49703   3.098   9.190  10.975  0.6756  0.3653  0.2713
  369MOL0     O49704   3.066   9.053  11.020  0.3923  0.8418  1.1784
  369MOL0     C49705   3.085   9.024  11.151  0.5226 -0.7978  0.4115
  369MOL0     C49706   3.032   8.896  11.182 -0.2147 -0.6727  1.1113
  369MOL0     C49707   3.037   8.847  11.317 -0.1610  0.2791  1.3102
  369MOL0     C49708   2.981   8.701  11.343 -0.8510 -0.3028  0.6986
  369MOL0     C49709   3.094   8.922  11.409  0.2767 -0.7944 -0.6748
  369MOL0     C49710   3.104   8.867  11.545  0.2928 -0.2805  0.3102
  369MOL0     O49711   3.040   8.939  11.639 -0.2896 -0.1701  0.2024
  369MOL0     C49712   3.076   8.904  11.768 -0.4621  0.6766  0.0543
  369MOL0     C49713   3.169   8.993  11.831  0.3779  0.1808 -0.2747
  369MOL0     C49714   3.209   8.966  11.967  0.5717 -0.7628  1.0661
  369MOL0     C49715   3.145   8.853  12.044 -0.0851  0.1949 -0.1352
  369MOL0     O49716   3.190   8.821  12.164 -0.0788  0.0259 -0.0947
  369MOL0     C49717   3.326   8.786  12.178 -0.0322  0.1465  0.3956
  369MOL0     C49718   3.355   8.688  12.288  0.5060  0.7423  0.1557
  369MOL0     C49719   3.289   8.544  12.286  0.1961  0.2204 -0.3265
  369MOL0     C49720   3.364   8.439  12.212 -0.6372 -0.0796 -0.2060
  369MOL0     C49721   3.274   8.312  12.200 -0.2818 -0.7097  0.4520
  369MOL0     C49722   3.220   8.244  12.332  0.3743  0.1555  0.5248
  369MOL0     C49723   3.270   8.104  12.337  0.1638  0.1299 -0.7967
  369MOL0     C49724   3.208   8.037  12.473  0.7739 -0.1172 -0.5328
  369MOL0    Cl49725   3.020   8.031  12.452 -0.3392 -0.3821 -0.7062
  369MOL0     C49726   3.052   8.774  11.976  0.0450  0.2935  0.6036
  369MOL0     C49727   3.026   8.794  11.839  1.2708  0.2274  0.5058
  369MOL0     O49728   3.187   8.782  11.559  0.4562 -0.2200  0.3602
  369MOL0     C49729   3.142   9.046  11.379  0.8230 -0.2255 -0.0055
  369MOL0     C49730   3.140   9.106  11.252 -1.0473  0.4300 -0.4817
  369MOL0     N49731   3.398   9.157  10.514  0.3875  0.0496 -1.1228
  369MOL0     N49732   3.396   9.073  10.416 -0.5099 -0.9648 -0.2769
  369MOL0     C49733   3.762   8.016   9.971  0.8317 -0.1649  0.8484
  369MOL0     C49734   3.752   7.870   9.956 -0.3000 -0.1336 -0.9952
  369MOL0     C49735   3.705   7.456   9.820 -0.1274  0.2089  0.1617
  369MOL0     C49736   3.788   7.380   9.902  0.2200 -0.4784 -0.7057
  369MOL0     C49737   3.768   7.246   9.933 -0.0904  0.2416  0.7501
  369MOL0     C49738   3.639   7.194   9.882  0.3171 -0.0831 -0.7459
  369MOL0     O49739   3.614   7.064   9.918  0.1061 -0.0988  0.3284
  369MOL0     C49740   3.541   6.975   9.833 -0.1289 -0.6174  0.5339
  369MOL0     C49741   3.612   6.947   9.700 -0.6402  0.3376  0.9150
  369MOL0     C49742   3.749   6.891   9.714 -0.0978 -0.1849 -0.4929
  369MOL0     C49743   3.753   6.740   9.732  1.4496 -0.0781 -0.9000
  369MOL0     C49744   3.673   6.651   9.652  0.2617 -0.4438  0.0049
  369MOL0     C49745   3.630   6.571   9.572 -0.3514  0.1230 -0.9468
  369MOL0     C49746   3.553   7.270   9.807 -0.7902 -0.7291  1.1805
  369MOL0     C49747   3.590   7.396   9.765 -0.3006 -0.4874  0.2672
  369MOL0     H49748   3.983   7.804   9.735  0.3017  0.4311 -1.2604
  369MOL0     H49749   3.951   8.081   9.696  1.1276  0.0111 -0.2640
  369MOL0     H49750   3.825   8.291  10.077 -0.8733  0.1873  0.8967
  369MOL0     H49751   3.825   8.410   9.949 -0.1961 -0.7633 -1.0459
  369MOL0     H49752   3.604   8.375   9.875 -0.0447 -0.8961 -1.2776
  369MOL0     H49753   3.583   8.269  10.028  0.1335  1.0484  1.6775
  369MOL0     H49754   3.676   8.437  10.163 -1.3542 -2.4142  0.3417
  369MOL0     H49755   3.688   8.539  10.024  3.1714 -2.7302 -0.4575
  369MOL0     H49756   3.449   8.529   9.991  1.8877 -4.1833 -1.3321
  369MOL0     H49757   3.422   8.411  10.114  3.6804 -2.7735  1.1768
  369MOL0     H49758   3.510   8.707  10.127 -0.2453 -0.9754 -1.9558
  369MOL0     H49759   3.354   8.639  10.187  0.2381  0.1100  2.2741
  369MOL0     H49760   3.444   8.552  10.379 -2.4703  1.8769 -0.2330
  369MOL0     H49761   3.608   8.549  10.333  1.5881  2.5905  4.4995
  369MOL0     H49762   3.596   8.740  10.469  0.3314  0.6415 -0.5670
  369MOL0     H49763   3.611   8.799  10.313 -2.2654  3.6181 -0.1620
  369MOL0     H49764   3.342   8.751  10.448  3.3654 -1.7744  1.7867
  369MOL0     H49765   3.363   8.844  10.294  0.4122 -3.9096 -0.6421
  369MOL0     H49766   3.472   8.882  10.679 -3.3927 -1.1411  0.4930
  369MOL0     H49767   3.491   9.113  10.826  0.5497  1.4351 -0.4267
  369MOL0     H49768   3.433   9.256  10.761 -2.8795 -0.1416  0.1780
  369MOL0     H49769   3.248   9.011  10.847 -0.6104  0.2723 -0.2301
  369MOL0     H49770   3.194   9.145  10.747  0.5401  1.7427 -0.4555
  369MOL0     H49771   3.260   9.307  10.904 -1.9722 -0.2713  0.8199
  369MOL0     H49772   3.309   9.183  11.025 -3.3406 -1.5158  4.0400
  369MOL0     H49773   3.036   9.218  10.889  2.4549  3.1379 -0.2289
  369MOL0     H49774   3.066   9.265  11.049 -1.0142  0.4797 -0.5322
  369MOL0     H49775   2.988   8.837  11.102 -0.0760  0.6496  0.0125
  369MOL0     H49776   2.951   8.648  11.252 -0.0460 -1.0360  0.8492
  369MOL0     H49777   3.066   8.648  11.385 -0.5344  2.2096  3.5395
  369MOL0     H49778   2.893   8.710  11.407 -0.7119  1.5001  0.6970
  369MOL0     H49779   3.217   9.073  11.775  0.6101 -0.3654 -0.8700
  369MOL0     H49780   3.276   9.033  12.021  0.0665  2.0871 -1.5420
  369MOL0     H49781   3.369   8.731  12.094  0.8772 -1.6972  1.9767
  369MOL0     H49782   3.382   8.880  12.183  0.9983 -0.2005 -2.5825
  369MOL0     H49783   3.462   8.676  12.304  0.4084 -0.2051  0.1816
  369MOL0     H49784   3.317   8.732  12.380 -2.0708 -1.9961  0.5528
  369MOL0     H49785   3.189   8.551  12.243 -0.4163 -4.8557 -0.2895
  369MOL0     H49786   3.285   8.510  12.390  0.4523 -0.0685 -0.4115
  369MOL0     H49787   3.389   8.483  12.115 -0.3316 -0.2204 -0.1923
  369MOL0     H49788   3.462   8.417  12.256  0.2149  3.1546 -0.2584
  369MOL0     H49789   3.313   8.236  12.132 -0.3068 -3.0969  2.9456
  369MOL0     H49790   3.195   8.354  12.138  1.7593 -0.2671 -2.0030
  369MOL0     H49791   3.240   8.302  12.422 -3.4034  2.6775  0.0048
  369MOL0     H49792   3.112   8.247  12.314  0.3312 -0.8787  0.5411
  369MOL0     H49793   3.379   8.112  12.342  0.2695 -1.7367  1.0725
  369MOL0     H49794   3.241   8.048  12.247 -0.9529 -1.2927  0.4011
  369MOL0     H49795   3.211   8.108  12.556 -0.1141 -0.6626 -0.0203
  369MOL0     H49796   3.250   7.940  12.502 -1.9404 -0.8223  1.4643
  369MOL0     H49797   2.997   8.689  12.014  0.9898 -1.3373 -1.4945
  369MOL0     H49798   2.964   8.726  11.781  1.3458  0.7186 -0.1622
  369MOL0     H49799   3.178   9.105  11.463 -2.1784 -0.7532  1.8208
  369MOL0     H49800   3.171   9.207  11.226  3.4032 -0.4713  0.6131
  369MOL0     H49801   3.685   8.056  10.035 -2.1437 -1.7198 -1.5187
  369MOL0     H49802   3.702   7.834  10.045  1.0180  0.8334  0.1982
  369MOL0     H49803   3.864   7.435   9.955 -1.3570  1.4392 -0.3260
  369MOL0     H49804   3.835   7.191   9.997  0.2154 -1.5316 -0.9874
  369MOL0     H49805   3.527   6.877   9.880 -1.8878 -0.7008 -0.1159
  369MOL0     H49806   3.445   7.021   9.808  1.0242  1.1987 -0.7963
  369MOL0     H49807   3.624   7.041   9.647 -0.3731  0.9421  2.0177
  369MOL0     H49808   3.544   6.887   9.639  1.2601  1.8683 -3.0109
  369MOL0     H49809   3.811   6.923   9.798  4.8785 -1.1573 -3.3323
  369MOL0     H49810   3.808   6.914   9.625  1.1843  0.7894  0.5701
  369MOL0     H49811   3.734   6.723   9.838 -0.0063  1.1948 -0.9254
  369MOL0     H49812   3.854   6.699   9.715  0.8441 -1.0466 -2.4042
  369MOL0     H49813   3.602   6.485   9.515 -0.5936 -1.5532  1.5120
  369MOL0     H49814   3.466   7.230   9.756 -0.0874 -4.1355  2.4269
  369MOL0     H49815   3.534   7.455   9.693 -1.4242  0.6548  1.9880
  370MOL0     O49816   0.633   0.716   2.700  0.3301  0.4494  0.6742
  370MOL0     C49817   0.599   0.687   2.810  0.8291 -0.9311 -0.6413
  370MOL0     O49818   0.505   0.756   2.880  0.6634  0.2827 -0.1400
  370MOL0     C49819   0.420   0.834   2.816 -0.4127  0.0889  0.9233
  370MOL0     C49820   0.331   0.773   2.722 -0.3352 -0.0416  0.3155
  370MOL0     C49821   0.234   0.855   2.661 -0.1250 -0.0313 -0.4194
  370MOL0     C49822   0.220   0.991   2.683 -0.3157 -0.0249  0.3800
  370MOL0     O49823   0.149   1.079   2.605  0.5788  0.1705 -0.5125
  370MOL0     C49824   0.058   1.032   2.508 -0.0024 -1.1143  0.5332
  370MOL0     C49825  -0.003   1.158   2.423  0.3085 -0.0247 -0.3668
  370MOL0     C49826   0.091   1.226   2.321 -0.1651 -0.1742  0.3045
  370MOL0     C49827   0.012   1.345   2.255 -0.6198  0.0182  0.7922
  370MOL0     C49828   0.117   1.442   2.203  0.7379  0.9777  0.3299
  370MOL0     C49829   0.181   1.381   2.075 -0.5699 -0.4058 -0.6250
  370MOL0     C49830   0.287   1.471   2.017 -0.6102 -0.3079  0.6794
  370MOL0     C49831   0.419   1.481   2.095  0.6179  0.5378 -1.0042
  370MOL0     N49832   0.549   1.514   2.026  0.6275 -0.1801 -0.4997
  370MOL0     C49833   0.643   1.438   1.957  1.0738 -0.2040  0.6674
  370MOL0     C49834   0.734   1.522   1.920 -0.3190 -0.2433 -0.1023
  370MOL0     C49835   0.836   1.508   1.818 -0.2631 -0.6379 -0.5404
  370MOL0     C49836   0.792   1.456   1.677 -0.7001 -0.2284 -0.3235
  370MOL0     C49837   0.707   1.554   1.589  0.0708  0.6242  0.6484
  370MOL0     C49838   0.561   1.518   1.615  0.4600 -0.4574  0.7459
  370MOL0     O49839   0.479   1.616   1.547  0.4043 -0.5607 -0.0413
  370MOL0     C49840   0.354   1.642   1.604 -0.1695  0.2152 -0.2045
  370MOL0     C49841   0.303   1.768   1.579  0.0183 -0.6056  0.7879
  370MOL0     C49842   0.181   1.815   1.639 -0.0552 -0.2805 -1.1556
  370MOL0     C49843   0.134   1.962   1.603 -0.1910  0.3516  0.1330
  370MOL0     C49844   0.102   1.718   1.711 -0.2794  0.0435  0.9247
  370MOL0     C49845  -0.019   1.751   1.784 -0.4663  0.5413  0.1049
  370MOL0     O49846  -0.035   1.662   1.882  0.4302 -0.1442 -0.2169
  370MOL0     C49847  -0.087   1.706   2.005 -0.4521 -0.1784  0.2283
  370MOL0     C49848  -0.052   1.823   2.055  0.3793  0.5878 -0.5474
  370MOL0     C49849  -0.114   1.856   2.180 -0.1070 -0.5981 -0.7825
  370MOL0     C49850  -0.184   1.760   2.256  0.9609  0.2839  0.1364
  370MOL0     O49851  -0.211   1.777   2.388  0.5047 -0.6743  0.0481
  370MOL0     C49852  -0.342   1.826   2.422 -1.0208  0.0884 -0.0577
  370MOL0     C49853  -0.411   1.729   2.516 -0.6670 -0.6712  0.1680
  370MOL0     C49854  -0.504   1.630   2.437 -0.3691 -0.2744  0.2097
  370MOL0     C49855  -0.630   1.685   2.378 -0.5965  0.5766  1.3042
  370MOL0     C49856  -0.732   1.575   2.341  0.3828  0.4799 -0.5327
  370MOL0     C49857  -0.820   1.550   2.475 -0.0266  0.4788 -0.0599
  370MOL0     C49858  -0.945   1.469   2.450 -1.2077  0.1500  0.2274
  370MOL0     C49859  -0.920   1.312   2.465  0.6776 -0.2949  0.0212
  370MOL0    Cl49860  -0.814   1.244   2.333 -0.1170  0.2289 -0.3799
  370MOL0     C49861  -0.218   1.635   2.203 -1.1359  0.3331 -0.2847
  370MOL0     C49862  -0.168   1.611   2.072  0.7220  0.0759  0.2461
  370MOL0     O49863  -0.078   1.853   1.768 -0.7200 -0.0154 -0.6639
  370MOL0     C49864   0.156   1.589   1.719  0.2918 -0.5384 -0.9696
  370MOL0     C49865   0.276   1.553   1.670  0.1627  1.3784 -1.1055
  370MOL0     N49866   0.713   1.649   1.972  1.2008  1.0242 -0.6669
  370MOL0     N49867   0.598   1.639   2.032  0.3866 -0.1733 -0.6213
  370MOL0     C49868   0.313   1.054   2.765  0.8893 -0.2300  0.6264
  370MOL0     C49869   0.404   0.978   2.837 -0.4972  1.0243 -0.1417
  370MOL0     C49870   0.661   0.572   2.875 -0.1213 -0.0926 -0.1109
  370MOL0     C49871   0.638   0.543   3.013 -0.0864 -0.6600 -0.2110
  370MOL0     C49872   0.689   0.429   3.077 -0.2440  0.6014 -0.6619
  370MOL0     C49873   0.793   0.361   3.012  0.0821  0.8578  0.8548
  370MOL0     O49874   0.847   0.257   3.087  0.5649 -0.5007  0.0366
  370MOL0     C49875   0.956   0.181   3.029  0.6459  0.1952 -0.1318
  370MOL0     C49876   1.079   0.264   3.017  0.2323  0.2964 -0.5061
  370MOL0     C49877   1.217   0.191   3.014  0.6798  1.0033 -0.7490
  370MOL0     C49878   1.218   0.068   2.913  0.2200  0.0949  0.2482
  370MOL0     C49879   1.175   0.115   2.776  0.4295  0.6069  0.3591
  370MOL0     C49880   1.131   0.135   2.669  0.8322 -0.0274 -0.2014
  370MOL0     C49881   0.819   0.380   2.879  0.4933 -0.0158  0.5895
  370MOL0     C49882   0.740   0.480   2.810 -0.0650  0.1708 -1.4516
  370MOL0     H49883   0.337   0.670   2.688  0.6082  1.0479 -3.2789
  370MOL0     H49884   0.181   0.813   2.576  0.1896  1.4043 -1.3453
  370MOL0     H49885   0.100   0.959   2.438 -0.5868 -2.2182  1.2988
  370MOL0     H49886  -0.023   0.981   2.561 -0.9839  0.5752  0.7409
  370MOL0     H49887  -0.084   1.112   2.366  0.0060  3.0483 -2.6147
  370MOL0     H49888  -0.051   1.233   2.487 -0.0535 -0.8652  0.3826
  370MOL0     H49889   0.184   1.260   2.368 -0.1399  1.0797 -0.5946
  370MOL0     H49890   0.122   1.156   2.244  1.0923  1.2148 -0.5054
  370MOL0     H49891  -0.045   1.300   2.174 -0.2219  3.1131 -1.3546
  370MOL0     H49892  -0.045   1.400   2.331 -0.6336  2.0841 -0.6428
  370MOL0     H49893   0.079   1.541   2.175  2.8011  1.9877  0.9481
  370MOL0     H49894   0.198   1.460   2.274  1.7519  0.3368 -0.6319
  370MOL0     H49895   0.227   1.284   2.096 -1.4219 -0.7631 -0.3748
  370MOL0     H49896   0.105   1.378   1.996 -0.2506 -2.4042 -0.9042
  370MOL0     H49897   0.302   1.423   1.920 -2.0764 -0.9110  0.7195
  370MOL0     H49898   0.245   1.569   1.993  1.4001  0.2727 -0.7243
  370MOL0     H49899   0.428   1.386   2.148 -0.6358  0.5085 -0.8273
  370MOL0     H49900   0.410   1.556   2.175 -0.7504  1.0255 -1.5847
  370MOL0     H49901   0.633   1.333   1.930 -2.4632  0.4471 -1.1762
  370MOL0     H49902   0.880   1.602   1.784  2.8650 -1.9990 -0.6224
  370MOL0     H49903   0.920   1.455   1.863 -0.5747 -0.6009  0.1023
  370MOL0     H49904   0.734   1.366   1.697 -1.6257  0.5186  0.4399
  370MOL0     H49905   0.880   1.429   1.618 -0.3064 -0.7292  0.4879
  370MOL0     H49906   0.742   1.548   1.486  0.0760 -1.6547  0.7212
  370MOL0     H49907   0.728   1.655   1.625  1.0101  0.2578  1.1689
  370MOL0     H49908   0.544   1.519   1.723 -2.7901 -4.3776  0.5225
  370MOL0     H49909   0.532   1.417   1.586 -0.0195 -0.0126 -0.3890
  370MOL0     H49910   0.371   1.841   1.536 -0.7332 -0.1171  0.3998
  370MOL0     H49911   0.116   2.022   1.693 -2.3970  1.3461 -0.8836
  370MOL0     H49912   0.224   2.010   1.564 -0.5892  1.6611  0.7622
  370MOL0     H49913   0.055   1.978   1.529  2.1120  1.9805 -2.1857
  370MOL0     H49914   0.002   1.897   1.998 -0.1862  0.6502 -1.0208
  370MOL0     H49915  -0.062   1.938   2.229 -0.2593 -2.0481  1.9433
  370MOL0     H49916  -0.328   1.918   2.478  2.1280  0.7061 -1.6376
  370MOL0     H49917  -0.405   1.841   2.334  0.6284  1.8155 -0.9958
  370MOL0     H49918  -0.328   1.683   2.571  1.2771  3.2464  0.8749
  370MOL0     H49919  -0.469   1.778   2.594  0.6781  0.4178  0.5208
  370MOL0     H49920  -0.529   1.550   2.507 -1.6211  1.9879  2.5293
  370MOL0     H49921  -0.443   1.585   2.358  3.4022  1.6020  1.8174
  370MOL0     H49922  -0.656   1.774   2.435  0.3111  1.9399 -0.3087
  370MOL0     H49923  -0.610   1.724   2.277  1.0403 -1.9029  0.5763
  370MOL0     H49924  -0.681   1.485   2.306  2.5954  1.2174  0.6163
  370MOL0     H49925  -0.802   1.617   2.268 -0.5689  1.3944  0.8407
  370MOL0     H49926  -0.763   1.497   2.552  0.3814  0.7909 -0.1400
  370MOL0     H49927  -0.837   1.647   2.524  0.1346  1.0057 -1.0106
  370MOL0     H49928  -0.979   1.481   2.347 -2.8726 -1.2953  0.5537
  370MOL0     H49929  -1.034   1.494   2.508 -1.6378 -1.1087  0.1402
  370MOL0     H49930  -1.014   1.256   2.470 -0.4563  1.3375 -1.8801
  370MOL0     H49931  -0.868   1.296   2.560 -3.6649  0.0210  2.7173
  370MOL0     H49932  -0.266   1.551   2.251  1.7214  0.0379  2.3740
  370MOL0     H49933  -0.188   1.514   2.029 -2.3782 -0.0762  1.7766
  370MOL0     H49934   0.103   1.508   1.768 -2.3398  0.9519 -1.2276
  370MOL0     H49935   0.304   1.449   1.671 -2.0871  0.6974  1.4479
  370MOL0     H49936   0.305   1.162   2.774  1.6619 -0.1533  0.4450
  370MOL0     H49937   0.468   1.030   2.907 -1.2158  1.6691  0.0466
  370MOL0     H49938   0.565   0.590   3.078  1.1661  1.3841 -0.1746
  370MOL0     H49939   0.655   0.410   3.179 -2.1679 -2.5867 -1.7696
  370MOL0     H49940   0.986   0.101   3.097  0.1612  0.9308  0.9719
  370MOL0     H49941   0.918   0.135   2.937 -5.2507  1.1981  1.3742
  370MOL0     H49942   1.081   0.322   3.109 -3.8990 -1.2930  0.7994
  370MOL0     H49943   1.068   0.330   2.930 -4.6784  0.4740 -0.0280
  370MOL0     H49944   1.238   0.143   3.110  0.5416  0.9280 -0.7565
  370MOL0     H49945   1.294   0.267   2.998  0.6799  0.7531 -2.0622
  370MOL0     H49946   1.164  -0.021   2.944  1.1651 -0.8620 -0.7733
  370MOL0     H49947   1.323   0.036   2.909 -0.0019 -1.3662  3.3568
  370MOL0     H49948   1.097   0.171   2.574  0.6892 -0.2852 -0.2499
  370MOL0     H49949   0.893   0.326   2.822  2.5765  1.7355  1.5013
  370MOL0     H49950   0.745   0.498   2.703 -0.7776 -1.8490 -1.8699
  371MOL0     O49951   3.967   3.430   4.810  0.2721  0.0489 -0.0737
  371MOL0     C49952   3.965   3.537   4.876  0.3113 -0.0107  0.1757
  371MOL0     O49953   4.006   3.653   4.833 -0.5366  0.8479  0.0685
  371MOL0     C49954   4.060   3.660   4.703  0.0856  0.1056  0.0919
  371MOL0     C49955   4.182   3.736   4.691  0.1106  1.4753 -0.0945
  371MOL0     C49956   4.265   3.718   4.582  0.1623 -0.5123 -0.3579
  371MOL0     C49957   4.227   3.630   4.481  1.0114 -0.8331  0.1979
  371MOL0     O49958   4.328   3.609   4.393  0.1849 -0.5359  0.2643
  371MOL0     C49959   4.311   3.507   4.285 -1.0209 -0.0495 -0.6817
  371MOL0     C49960   4.294   3.575   4.155  0.0716  0.2253 -0.0673
  371MOL0     C49961   4.200   3.703   4.157  0.7015  0.2799  0.7467
  371MOL0     C49962   4.171   3.762   4.016 -0.2672 -0.6849 -0.7684
  371MOL0     C49963   4.135   3.911   4.036  0.4150  0.2709 -0.0574
  371MOL0     C49964   4.077   3.964   3.907 -0.1092  0.4033  0.7938
  371MOL0     C49965   4.036   4.108   3.914 -1.5524  0.4896 -0.0697
  371MOL0     C49966   4.166   4.203   3.898  0.6634  0.0185  0.1699
  371MOL0     N49967   4.234   4.196   3.773 -0.6720  0.5254  0.1589
  371MOL0     C49968   4.175   4.222   3.651 -0.3837  0.8915 -0.8838
  371MOL0     C49969   4.276   4.182   3.567 -1.3079 -0.9736  0.0190
  371MOL0     C49970   4.285   4.220   3.425 -0.5289 -0.3402 -0.4579
  371MOL0     C49971   4.270   4.368   3.384  0.3975  0.2200 -0.3137
  371MOL0     C49972   4.229   4.385   3.233  0.5193 -0.3193 -0.2122
  371MOL0     C49973   4.306   4.300   3.129  0.3803  0.0903 -0.7701
  371MOL0     O49974   4.247   4.168   3.135 -0.3068 -0.1181  0.2391
  371MOL0     C49975   4.303   4.070   3.061  0.1217  0.1806  0.5402
  371MOL0     C49976   4.244   3.948   3.050 -0.2226  0.7621  0.2885
  371MOL0     C49977   4.306   3.845   2.972 -0.0500 -0.9609 -0.0309
  371MOL0     C49978   4.223   3.721   2.939 -0.1849 -0.0706 -0.1922
  371MOL0     C49979   4.435   3.866   2.915 -0.2676  0.3271  0.6540
  371MOL0     C49980   4.500   3.753   2.842  1.0076  0.3812  0.5687
  371MOL0     O49981   4.585   3.778   2.744  0.4688 -0.4232 -0.1381
  371MOL0     C49982   4.654   3.687   2.663 -0.8477 -0.7004 -1.1456
  371MOL0     C49983   4.793   3.718   2.646 -0.4331  0.9950  0.6877
  371MOL0     C49984   4.865   3.625   2.570  0.6431  0.2125 -0.0593
  371MOL0     C49985   4.813   3.503   2.517 -0.6427 -0.0944 -0.2417
  371MOL0     O49986   4.902   3.412   2.450  0.2991  0.3710 -0.1099
  371MOL0     C49987   4.848   3.287   2.412  0.3226 -0.5159  0.2164
  371MOL0     C49988   4.787   3.291   2.276  0.7034  0.2419  0.8618
  371MOL0     C49989   4.754   3.148   2.217 -0.7559 -0.7656 -0.2093
  371MOL0     C49990   4.674   3.063   2.313 -0.0059 -0.2268 -0.4671
  371MOL0     C49991   4.564   2.986   2.246  0.0959  0.0035 -1.1026
  371MOL0     C49992   4.523   2.855   2.326 -0.3322 -0.7515 -0.5485
  371MOL0     C49993   4.393   2.805   2.266 -0.5143  0.0687  0.1024
  371MOL0     C49994   4.440   2.691   2.171 -0.3384  0.6778  0.5937
  371MOL0    Cl49995   4.299   2.621   2.080  0.4101 -0.2286  0.3559
  371MOL0     C49996   4.678   3.477   2.552 -0.1831 -0.2828  0.3812
  371MOL0     C49997   4.603   3.567   2.624  0.8863  0.5052 -0.4407
  371MOL0     O49998   4.483   3.641   2.889 -0.0745 -0.0029 -0.0479
  371MOL0     C49999   4.491   3.995   2.931 -0.0677 -0.4405 -0.2140
  371MOL0     C50000   4.425   4.093   3.005  0.1478 -0.6315  0.0293
  371MOL0     N50001   4.368   4.108   3.637 -0.0535  0.3553 -1.2240
  371MOL0     N50002   4.335   4.113   3.766 -0.3389  0.0419  0.3910
  371MOL0     C50003   4.104   3.563   4.485 -0.0692  0.3301 -0.3299
  371MOL0     C50004   4.022   3.582   4.591  0.2874  0.1770  0.4774
  371MOL0     C50005   3.909   3.540   5.013 -0.1092 -0.2288 -0.1349
  371MOL0     C50006   3.848   3.658   5.064  1.1548  0.1802  0.6613
  371MOL0     C50007   3.786   3.656   5.185  1.0303 -0.2968 -0.5132
  371MOL0     C50008   3.813   3.555   5.277 -0.1107  0.1133 -0.0773
  371MOL0     O50009   3.743   3.557   5.397  0.0484 -0.0025 -0.6496
  371MOL0     C50010   3.704   3.424   5.456 -0.4172  0.2056  0.2730
  371MOL0     C50011   3.623   3.442   5.582 -0.2193 -0.0472 -0.3704
  371MOL0     C50012   3.695   3.535   5.688  0.2995  0.0811  0.8446
  371MOL0     C50013   3.615   3.560   5.812  0.3078  0.6618  0.2797
  371MOL0     C50014   3.678   3.660   5.905 -0.0612 -0.3889  0.4770
  371MOL0     C50015   3.718   3.743   5.981 -0.3069  0.2706 -0.1617
  371MOL0     C50016   3.893   3.445   5.235 -0.6857 -0.3652  0.5664
  371MOL0     C50017   3.917   3.427   5.094  0.4002 -0.4395 -0.9026
  371MOL0     H50018   4.214   3.798   4.774 -2.8413  0.0588  2.2901
  371MOL0     H50019   4.367   3.753   4.577 -0.0059  0.0582  0.0382
  371MOL0     H50020   4.404   3.448   4.289 -0.1808  1.2504  3.7471
  371MOL0     H50021   4.228   3.438   4.301 -1.5527  0.5969 -0.6635
  371MOL0     H50022   4.392   3.613   4.126  0.3167 -0.9928 -0.9028
  371MOL0     H50023   4.256   3.513   4.073  0.3221  1.6499 -1.3151
  371MOL0     H50024   4.102   3.675   4.196  0.0743  0.3307 -0.7115
  371MOL0     H50025   4.247   3.779   4.220  1.6645 -2.0492  2.9598
  371MOL0     H50026   4.262   3.750   3.956  1.5296  0.1911  1.6246
  371MOL0     H50027   4.081   3.708   3.982 -0.9442  0.8809 -1.5452
  371MOL0     H50028   4.056   3.917   4.112  0.0430  1.4568 -0.5136
  371MOL0     H50029   4.231   3.955   4.066 -0.3685  0.8631  1.7394
  371MOL0     H50030   4.148   3.945   3.826  1.8047 -1.4995  2.7896
  371MOL0     H50031   3.985   3.909   3.886  0.4671 -0.2891  0.0037
  371MOL0     H50032   3.966   4.137   3.835 -0.6415  0.2843 -0.9643
  371MOL0     H50033   3.981   4.139   4.004 -0.2936 -0.0621  0.9277
  371MOL0     H50034   4.238   4.187   3.978 -0.5606 -2.7848  0.8255
  371MOL0     H50035   4.122   4.303   3.908 -0.8479 -0.6030  0.0352
  371MOL0     H50036   4.081   4.270   3.624 -1.1140  0.2029  0.3671
  371MOL0     H50037   4.371   4.188   3.365 -0.8063 -0.4189 -0.8184
  371MOL0     H50038   4.199   4.175   3.373 -0.5626 -0.8192  0.0071
  371MOL0     H50039   4.366   4.416   3.402 -0.5213  1.8545  0.4378
  371MOL0     H50040   4.188   4.401   3.449 -0.3486  0.5942 -1.4265
  371MOL0     H50041   4.266   4.484   3.206  0.6397  0.0077  1.1118
  371MOL0     H50042   4.121   4.376   3.219 -0.0068 -0.7632  3.2415
  371MOL0     H50043   4.409   4.309   3.163 -0.0117  1.4847  0.1429
  371MOL0     H50044   4.303   4.353   3.033  0.7913  2.0321  0.2294
  371MOL0     H50045   4.149   3.924   3.099  0.3459 -3.3832 -0.2750
  371MOL0     H50046   4.114   3.728   2.946 -0.3779 -2.3907 -0.4198
  371MOL0     H50047   4.231   3.701   2.832 -1.3053  3.4832 -1.1075
  371MOL0     H50048   4.264   3.648   3.009 -0.0373  1.5363  1.4958
  371MOL0     H50049   4.842   3.813   2.666 -2.3683  2.0243  0.7431
  371MOL0     H50050   4.970   3.644   2.547  1.2303  0.5051  2.5995
  371MOL0     H50051   4.937   3.223   2.411  0.5745 -0.3194  2.8920
  371MOL0     H50052   4.781   3.253   2.492  0.2344  1.4111  1.0155
  371MOL0     H50053   4.707   3.365   2.264 -1.5123 -2.3522 -2.9253
  371MOL0     H50054   4.873   3.333   2.224  0.5483  0.0714  0.4598
  371MOL0     H50055   4.845   3.109   2.170  0.7670  1.2869  0.8827
  371MOL0     H50056   4.687   3.170   2.133 -3.9770 -0.3658  2.2570
  371MOL0     H50057   4.735   2.993   2.372  0.6092 -1.1580 -2.1292
  371MOL0     H50058   4.628   3.132   2.384  2.6343  1.0781  0.0927
  371MOL0     H50059   4.604   2.946   2.152 -0.7518  1.4967 -2.1421
  371MOL0     H50060   4.472   3.036   2.214 -0.5329 -0.6328 -0.3216
  371MOL0     H50061   4.605   2.783   2.321 -0.3981 -0.8912  0.2658
  371MOL0     H50062   4.500   2.880   2.430 -0.7542  1.8324 -1.2085
  371MOL0     H50063   4.332   2.880   2.215  0.5964  2.5393  2.2253
  371MOL0     H50064   4.335   2.758   2.345 -0.3551  0.2621  0.3358
  371MOL0     H50065   4.483   2.606   2.226  2.4810  0.0952 -2.2127
  371MOL0     H50066   4.516   2.735   2.106 -2.9944  0.9861 -2.5156
  371MOL0     H50067   4.627   3.384   2.530 -0.8766 -1.2489  5.0322
  371MOL0     H50068   4.505   3.534   2.655  1.4169  0.2932  1.0951
  371MOL0     H50069   4.579   4.034   2.880  0.9773 -2.0964  0.2651
  371MOL0     H50070   4.481   4.186   3.015  2.1580 -1.6936 -0.6900
  371MOL0     H50071   4.089   3.472   4.428  2.4720 -1.8290  2.1480
  371MOL0     H50072   3.925   3.534   4.605 -0.3238  1.6258  1.4882
  371MOL0     H50073   3.864   3.744   5.000  2.1035 -0.1613  0.4152
  371MOL0     H50074   3.741   3.746   5.227 -2.6868 -2.3724  0.3833
  371MOL0     H50075   3.656   3.371   5.372 -1.7267 -0.1758  1.2239
  371MOL0     H50076   3.790   3.366   5.489  0.1364  0.8253 -0.0630
  371MOL0     H50077   3.604   3.341   5.620 -3.0259 -0.4280 -2.4430
  371MOL0     H50078   3.528   3.482   5.545 -1.3834 -0.5364  1.9110
  371MOL0     H50079   3.720   3.631   5.642 -1.2787  2.3262  4.1864
  371MOL0     H50080   3.787   3.484   5.719 -0.4209 -0.1665  2.7388
  371MOL0     H50081   3.597   3.466   5.866  2.0066 -0.4844 -1.0086
  371MOL0     H50082   3.512   3.585   5.786  0.5387  0.4287 -0.9247
  371MOL0     H50083   3.751   3.822   6.045  1.4222 -1.2615  0.9628
  371MOL0     H50084   3.930   3.365   5.298 -0.5953  2.0560  3.7998
  371MOL0     H50085   3.957   3.339   5.045  1.1928  0.6182 -2.2433
  372MOL0     O50086   6.647   0.899   9.507 -0.5589  0.5110 -0.1017
  372MOL0     C50087   6.733   0.916   9.596  0.5268 -0.4942  0.4774
  372MOL0     O50088   6.814   0.821   9.659 -0.1927 -0.2159 -0.2055
  372MOL0     C50089   6.808   0.693   9.618  1.2975  0.6498 -0.2835
  372MOL0     C50090   6.922   0.617   9.629  0.2892 -0.2901 -0.7158
  372MOL0     C50091   6.924   0.484   9.597  0.1037 -0.7302  0.6198
  372MOL0     C50092   6.803   0.419   9.570 -0.4162 -0.3732  0.2721
  372MOL0     O50093   6.795   0.285   9.543 -0.6092 -0.4321 -0.0280
  372MOL0     C50094   6.899   0.198   9.555 -1.9982  0.2715 -0.0900
  372MOL0     C50095   6.913   0.160   9.705 -0.1288  0.0329  0.1162
  372MOL0     C50096   6.783   0.101   9.769 -0.1965  0.4502 -0.4981
  372MOL0     C50097   6.772  -0.052   9.767  0.4349  0.3233  0.4385
  372MOL0     C50098   6.628  -0.102   9.817  0.2313  0.5159 -0.3770
  372MOL0     C50099   6.591  -0.245   9.776 -0.1367 -0.0457  0.4481
  372MOL0     C50100   6.709  -0.341   9.815  0.5635  0.3111 -0.1190
  372MOL0     C50101   6.644  -0.477   9.829 -0.5613  0.3109 -0.0131
  372MOL0     N50102   6.734  -0.581   9.880 -0.5026  0.7403  0.3617
  372MOL0     C50103   6.813  -0.576   9.982  0.8443  0.9036 -0.1736
  372MOL0     C50104   6.858  -0.702  10.002 -1.0961  0.2765 -0.1559
  372MOL0     C50105   6.962  -0.743  10.113  1.3837 -0.1567  1.9660
  372MOL0     C50106   6.958  -0.890  10.172  0.8821 -0.5649 -0.1186
  372MOL0     C50107   6.981  -0.995  10.062  0.0732  0.0347  1.6766
  372MOL0     C50108   6.993  -1.135  10.115  0.7557  0.2255  0.4359
  372MOL0     O50109   7.110  -1.160  10.194  0.0322  0.2082  0.2005
  372MOL0     C50110   7.231  -1.200  10.143  0.4486  0.2150  0.1690
  372MOL0     C50111   7.239  -1.235  10.006 -0.1350  0.1642  0.8457
  372MOL0     C50112   7.362  -1.284   9.967  0.1565 -0.9206  0.5974
  372MOL0     C50113   7.369  -1.317   9.815  0.1015  0.2336  0.2569
  372MOL0     C50114   7.470  -1.301  10.046 -0.0194  1.0210  0.3862
  372MOL0     C50115   7.598  -1.365  10.017  0.5573 -0.0021 -0.1568
  372MOL0     O50116   7.708  -1.325  10.085 -0.1035  0.0376  1.2439
  372MOL0     C50117   7.820  -1.397  10.062 -0.8569 -0.2455  0.4232
  372MOL0     C50118   7.826  -1.525  10.112 -0.1648  1.1062  0.1603
  372MOL0     C50119   7.944  -1.599  10.081  0.0830  0.4920 -0.1909
  372MOL0     C50120   8.053  -1.539  10.029  0.0380 -0.3842 -0.0058
  372MOL0     O50121   8.165  -1.603   9.998  0.0024  0.0652  0.2677
  372MOL0     C50122   8.186  -1.738  10.044 -1.0008 -0.8349  0.4162
  372MOL0     C50123   8.311  -1.797   9.988  0.2666  0.2454  0.4871
  372MOL0     C50124   8.344  -1.939  10.047 -0.4459  0.3841  0.2495
  372MOL0     C50125   8.248  -2.058   9.998  0.0398  0.4498  0.5821
  372MOL0     C50126   8.299  -2.109   9.861  0.3454 -0.5464  0.5757
  372MOL0     C50127   8.410  -2.214   9.884 -0.4235  0.4630  0.2372
  372MOL0     C50128   8.485  -2.232   9.754 -0.4862 -0.3596 -0.3404
  372MOL0     C50129   8.493  -2.369   9.698 -0.9063 -0.4775 -0.7791
  372MOL0    Cl50130   8.643  -2.378   9.620 -0.6093 -0.1758  0.1667
  372MOL0     C50131   8.043  -1.401  10.002  0.2340 -0.5652  0.2260
  372MOL0     C50132   7.929  -1.334  10.018 -0.4682 -0.1209 -0.3392
  372MOL0     O50133   7.597  -1.452   9.928 -0.1517 -0.2465 -0.7016
  372MOL0     C50134   7.465  -1.251  10.176 -0.0633  0.4985  0.1186
  372MOL0     C50135   7.339  -1.210  10.222  0.7103  0.3643 -1.1569
  372MOL0     N50136   6.807  -0.778   9.896  0.7056 -0.1038 -0.1334
  372MOL0     N50137   6.719  -0.711   9.828 -0.7514 -0.1073 -0.1636
  372MOL0     C50138   6.681   0.492   9.559  0.4065  0.5016 -0.2915
  372MOL0     C50139   6.683   0.628   9.593  0.4083  0.8217 -0.2127
  372MOL0     C50140   6.753   1.059   9.648  0.4447  0.6740  0.3719
  372MOL0     C50141   6.838   1.089   9.748 -1.5567 -0.7051 -0.3965
  372MOL0     C50142   6.843   1.220   9.807 -0.3917 -0.2835  1.3744
  372MOL0     C50143   6.765   1.317   9.749  0.0694 -0.7145  0.1072
  372MOL0     O50144   6.771   1.455   9.784  0.6939  0.3737 -0.1443
  372MOL0     C50145   6.854   1.500   9.896  0.1017  0.5725  0.0519
  372MOL0     C50146   6.917   1.636   9.864 -0.1225  0.0520  0.0695
  372MOL0     C50147   6.809   1.741   9.810 -0.2845  0.0095  0.1853
  372MOL0     C50148   6.698   1.788   9.908 -1.3260  1.0404  0.2861
  372MOL0     C50149   6.656   1.921   9.869  0.7103 -0.1293 -0.4073
  372MOL0     C50150   6.633   2.032   9.823  0.3053 -0.9811 -0.6331
  372MOL0     C50151   6.674   1.287   9.652  0.3135  0.0130 -0.1740
  372MOL0     C50152   6.660   1.153   9.612  0.4036 -0.2477  1.6389
  372MOL0     H50153   7.013   0.666   9.662  0.0250 -0.2896  0.0242
  372MOL0     H50154   7.022   0.440   9.608  1.2654  2.0451  2.4336
  372MOL0     H50155   6.872   0.107   9.500 -2.2171 -0.1548  0.7040
  372MOL0     H50156   6.989   0.244   9.512 -2.1347  1.2730  0.6682
  372MOL0     H50157   6.992   0.090   9.733 -0.0688 -0.0257 -0.1931
  372MOL0     H50158   6.929   0.252   9.761 -0.0606 -0.0844  0.2904
  372MOL0     H50159   6.784   0.129   9.874 -0.5140  0.2362 -0.4372
  372MOL0     H50160   6.690   0.148   9.734 -0.9578 -1.8618 -1.7739
  372MOL0     H50161   6.779  -0.083   9.662  0.4502  0.6923  0.3307
  372MOL0     H50162   6.854  -0.103   9.817  0.7748  1.7964  1.4384
  372MOL0     H50163   6.613  -0.089   9.924 -3.2353 -1.2832 -0.5061
  372MOL0     H50164   6.554  -0.032   9.777 -3.4576 -2.4814  0.5351
  372MOL0     H50165   6.496  -0.271   9.823 -0.1938 -0.2872  0.2012
  372MOL0     H50166   6.568  -0.242   9.669 -3.0706 -2.1579  0.9304
  372MOL0     H50167   6.790  -0.347   9.742  0.8769 -3.6616  0.3227
  372MOL0     H50168   6.739  -0.308   9.915  0.3903 -0.6509  0.2636
  372MOL0     H50169   6.608  -0.508   9.730  0.7406  0.2199 -0.4772
  372MOL0     H50170   6.559  -0.463   9.897 -1.1015  2.0195 -0.9883
  372MOL0     H50171   6.824  -0.495  10.053 -1.4063 -0.2036  1.5763
  372MOL0     H50172   7.060  -0.713  10.075  0.3216  0.8839 -0.1230
  372MOL0     H50173   6.927  -0.679  10.194 -2.1483  2.6086 -1.3834
  372MOL0     H50174   6.866  -0.895  10.231  0.3578  2.1057 -0.5676
  372MOL0     H50175   7.044  -0.898  10.239  0.0006  4.5290  2.0736
  372MOL0     H50176   7.069  -0.977  10.001 -0.6183 -0.9288  0.3555
  372MOL0     H50177   6.894  -1.003   9.996 -2.1674 -0.8147  4.5088
  372MOL0     H50178   6.985  -1.207  10.032 -1.5431 -1.4878  2.0174
  372MOL0     H50179   6.909  -1.148  10.183  1.5827  1.4629  1.7391
  372MOL0     H50180   7.163  -1.221   9.929 -1.1473 -0.6033  1.6845
  372MOL0     H50181   7.472  -1.318   9.778  0.1809  1.9401  0.3808
  372MOL0     H50182   7.308  -1.402   9.782 -1.3319  1.8820 -1.5680
  372MOL0     H50183   7.311  -1.242   9.760  0.4778 -1.0456 -2.0002
  372MOL0     H50184   7.745  -1.568  10.169  1.4839 -1.1917  0.9598
  372MOL0     H50185   7.933  -1.702  10.112  0.0319  1.2414  2.6081
  372MOL0     H50186   8.203  -1.741  10.152 -0.0291 -0.5798  0.2818
  372MOL0     H50187   8.096  -1.794  10.017 -2.5197  1.3080  0.7494
  372MOL0     H50188   8.293  -1.814   9.882  3.4240 -1.4093  0.0926
  372MOL0     H50189   8.400  -1.733   9.989 -0.8600  1.8822  1.0193
  372MOL0     H50190   8.352  -1.931  10.156 -3.9515  2.4197  0.4944
  372MOL0     H50191   8.444  -1.972  10.018  0.7781  2.8688  1.2741
  372MOL0     H50192   8.250  -2.135  10.075 -1.7226 -3.4753 -2.8631
  372MOL0     H50193   8.146  -2.019   9.993  0.0927  0.7372  1.5516
  372MOL0     H50194   8.333  -2.025   9.801 -2.1733  1.5723  1.9340
  372MOL0     H50195   8.221  -2.165   9.810  1.1447 -0.7361 -0.4705
  372MOL0     H50196   8.478  -2.178   9.961  1.8039  0.8418 -1.8020
  372MOL0     H50197   8.357  -2.304   9.916 -2.0572  1.0365 -0.6778
  372MOL0     H50198   8.584  -2.199   9.789 -1.9591  2.4728  1.5580
  372MOL0     H50199   8.451  -2.166   9.675 -0.4541  2.2345  1.6568
  372MOL0     H50200   8.413  -2.375   9.623  0.3232  0.0738 -2.1819
  372MOL0     H50201   8.484  -2.451   9.770 -2.0571  0.3026 -0.0005
  372MOL0     H50202   8.132  -1.360   9.955  0.2763  0.1154  0.8865
  372MOL0     H50203   7.919  -1.232   9.982  1.5581 -1.1255 -4.2765
  372MOL0     H50204   7.549  -1.264  10.242  1.9474  0.0819 -2.3785
  372MOL0     H50205   7.336  -1.165  10.321  1.1297 -2.5511  0.2873
  372MOL0     H50206   6.587   0.442   9.538  1.4218 -2.0435  0.8292
  372MOL0     H50207   6.597   0.692   9.606  0.4567  0.5212  2.1103
  372MOL0     H50208   6.890   1.003   9.790 -0.5241 -0.0795 -0.3503
  372MOL0     H50209   6.918   1.237   9.884 -0.1171  0.4196  0.9538
  372MOL0     H50210   6.803   1.523   9.990  0.5728  1.3136  0.1291
  372MOL0     H50211   6.929   1.423   9.917 -3.9891 -3.5600  1.1641
  372MOL0     H50212   6.993   1.615   9.789 -2.8399  2.4440 -3.6885
  372MOL0     H50213   6.965   1.662   9.959  0.8027 -4.1203  0.9260
  372MOL0     H50214   6.744   1.710   9.728  0.1825  1.6726 -0.8604
  372MOL0     H50215   6.870   1.826   9.779  0.1478  0.0361  1.0572
  372MOL0     H50216   6.737   1.804  10.009  1.3256 -1.8297 -0.1298
  372MOL0     H50217   6.617   1.714   9.917 -0.2695 -0.0925  0.8268
  372MOL0     H50218   6.619   2.133   9.790 -2.6624 -1.1325 -0.1217
  372MOL0     H50219   6.610   1.372   9.630  0.0406  0.3112  1.6200
  372MOL0     H50220   6.578   1.122   9.548  2.6822  1.4215 -2.4716
  373MOL0     O50221   3.753   2.578  10.222 -0.2854  0.3165 -0.8528
  373MOL0     C50222   3.776   2.694  10.251 -0.1621 -1.3687  0.6317
  373MOL0     O50223   3.840   2.746  10.363  0.1811  0.4055  0.1895
  373MOL0     C50224   3.884   2.663  10.456 -0.1374  0.6670 -0.7857
  373MOL0     C50225   3.896   2.714  10.585 -0.1843 -0.6774 -0.4895
  373MOL0     C50226   3.960   2.647  10.686 -0.7699 -0.4963  0.5463
  373MOL0     C50227   3.985   2.514  10.669 -1.3328  0.3259 -0.2797
  373MOL0     O50228   4.032   2.425  10.764  0.5481  0.5130  0.1307
  373MOL0     C50229   3.930   2.388  10.859  1.3364  0.3913 -0.4252
  373MOL0     C50230   3.806   2.318  10.800  0.2037 -0.8277 -0.1522
  373MOL0     C50231   3.780   2.185  10.871  0.1406  0.1465  0.2233
  373MOL0     C50232   3.899   2.079  10.869  0.8658  0.6186  0.6796
  373MOL0     C50233   3.849   1.945  10.818  0.0277  0.9224 -0.0015
  373MOL0     C50234   3.756   1.888  10.925  0.7547 -0.9526  0.1821
  373MOL0     C50235   3.665   1.772  10.875 -0.2153  0.6683 -0.5035
  373MOL0     C50236   3.591   1.802  10.741 -0.3626  0.5164  0.1787
  373MOL0     N50237   3.495   1.917  10.737 -1.0641 -0.4802  1.0045
  373MOL0     C50238   3.439   1.979  10.848  0.7450  0.2707  0.2647
  373MOL0     C50239   3.389   2.094  10.803  0.2764 -0.1246 -1.1221
  373MOL0     C50240   3.338   2.197  10.898  0.1934 -0.2328  0.5343
  373MOL0     C50241   3.451   2.257  10.979  0.1715  0.2126  0.9636
  373MOL0     C50242   3.387   2.350  11.087  0.1365 -0.8210  1.0503
  373MOL0     C50243   3.495   2.417  11.165 -0.8843 -0.5545 -0.3848
  373MOL0     O50244   3.602   2.487  11.093 -0.8282 -0.5789  0.8294
  373MOL0     C50245   3.680   2.572  11.172 -0.0826  0.0086 -0.5285
  373MOL0     C50246   3.754   2.661  11.106  0.4474  0.2938 -0.4142
  373MOL0     C50247   3.841   2.746  11.170 -0.0431  0.5992  1.0000
  373MOL0     C50248   3.912   2.843  11.084 -0.7514  0.5017 -0.0136
  373MOL0     C50249   3.863   2.738  11.308  0.1251  0.2874  0.9585
  373MOL0     C50250   3.949   2.828  11.393 -0.4004 -0.0021 -0.5267
  373MOL0     O50251   4.037   2.909  11.329 -0.0245  0.3943 -0.8024
  373MOL0     C50252   4.070   3.019  11.399  0.2284 -0.4976  0.1940
  373MOL0     C50253   4.195   3.024  11.490  0.4938  0.2855 -0.7937
  373MOL0     C50254   4.230   3.148  11.558 -0.0718 -0.2173  0.6588
  373MOL0     C50255   4.166   3.259  11.524  0.3002 -0.8099  0.4829
  373MOL0     O50256   4.206   3.378  11.585  0.1902  0.2202  1.0715
  373MOL0     C50257   4.292   3.454  11.500  0.0719  0.6513  0.9020
  373MOL0     C50258   4.224   3.587  11.474  0.0867 -0.3911 -0.2267
  373MOL0     C50259   4.189   3.659  11.605  0.0622  0.3632 -0.3764
  373MOL0     C50260   4.161   3.806  11.582 -0.3931  0.6765 -0.0483
  373MOL0     C50261   4.131   3.883  11.716  0.2581  0.2499 -0.0351
  373MOL0     C50262   4.118   4.031  11.687 -1.0088  1.2800  0.8865
  373MOL0     C50263   4.086   4.112  11.808 -0.6075 -0.3227 -0.5687
  373MOL0     C50264   4.209   4.186  11.857  0.8533  0.3295 -0.4266
  373MOL0    Cl50265   4.160   4.306  11.981  0.2373 -0.2324  0.1370
  373MOL0     C50266   4.059   3.266  11.423 -0.3168  0.7465  0.7697
  373MOL0     C50267   4.020   3.144  11.368  0.4706  0.0568  0.3979
  373MOL0     O50268   3.938   2.825  11.513 -0.5336 -0.2089  0.3022
  373MOL0     C50269   3.798   2.635  11.380  0.4977 -0.8541  0.2842
  373MOL0     C50270   3.717   2.547  11.305  0.1396 -0.1639  0.1661
  373MOL0     N50271   3.409   2.105  10.665  0.3048  0.2927  1.0021
  373MOL0     N50272   3.477   1.994  10.630 -0.4893 -0.5257  0.7001
  373MOL0     C50273   3.984   2.456  10.541  0.8370  0.5243 -0.3988
  373MOL0     C50274   3.931   2.531  10.426 -1.0796  0.5270  0.1453
  373MOL0     C50275   3.726   2.795  10.158 -0.5533 -0.8674  0.0540
  373MOL0     C50276   3.737   2.932  10.195  0.7795  0.2167 -0.6225
  373MOL0     C50277   3.687   3.036  10.107 -0.2438  0.2391  0.2023
  373MOL0     C50278   3.625   3.000   9.980  0.1373 -0.1067 -0.6546
  373MOL0     O50279   3.559   3.100   9.918  0.7322 -0.4139 -0.3315
  373MOL0     C50280   3.559   3.089   9.772 -0.0048  0.1082  0.2608
  373MOL0     C50281   3.538   3.234   9.707  0.0691 -0.2254  0.2023
  373MOL0     C50282   3.669   3.309   9.688 -0.0235  1.1542 -0.1876
  373MOL0     C50283   3.653   3.465   9.688 -0.5184  0.4730 -0.0329
  373MOL0     C50284   3.569   3.494   9.569  0.1477 -0.4254 -0.7231
  373MOL0     C50285   3.511   3.528   9.470  0.5940  0.8245 -0.3808
  373MOL0     C50286   3.620   2.867   9.942  0.1099 -0.4666  1.0681
  373MOL0     C50287   3.667   2.767  10.030  0.1796 -1.1525 -0.0488
  373MOL0     H50288   3.893   2.822  10.597 -0.3990 -0.6571 -0.6977
  373MOL0     H50289   3.997   2.701  10.772  2.3941  0.1754 -1.0928
  373MOL0     H50290   3.969   2.325  10.940 -5.0127 -1.8699  1.4547
  373MOL0     H50291   3.884   2.478  10.902 -2.9195 -0.9648 -1.6594
  373MOL0     H50292   3.727   2.393  10.806  1.1998  0.3669 -1.2265
  373MOL0     H50293   3.821   2.304  10.692 -0.9455  0.7160 -0.5503
  373MOL0     H50294   3.756   2.183  10.978 -0.4198 -0.7848  0.0916
  373MOL0     H50295   3.691   2.149  10.819 -0.9106  4.1905 -1.1073
  373MOL0     H50296   3.979   2.116  10.805 -1.1721  1.5250 -1.4883
  373MOL0     H50297   3.931   2.073  10.974 -0.2611  1.4420  1.0857
  373MOL0     H50298   3.797   1.954  10.722 -0.8150 -2.4916  0.0002
  373MOL0     H50299   3.931   1.874  10.806 -1.7148 -1.0783 -0.6141
  373MOL0     H50300   3.819   1.846  11.005 -0.4608 -1.9785  0.6462
  373MOL0     H50301   3.692   1.964  10.971  0.1710 -1.4875  0.2864
  373MOL0     H50302   3.738   1.691  10.865  1.9623  2.3179  1.1672
  373MOL0     H50303   3.592   1.744  10.951  1.0130  3.9693  2.0951
  373MOL0     H50304   3.537   1.712  10.710  5.4632 -2.2300 -3.7918
  373MOL0     H50305   3.658   1.815  10.655  1.2038 -1.4436  1.0208
  373MOL0     H50306   3.424   1.928  10.943 -1.1108 -0.6354 -0.4755
  373MOL0     H50307   3.289   2.272  10.835 -0.1503 -0.9184 -0.0318
  373MOL0     H50308   3.266   2.154  10.968  1.0226  0.7034  2.0095
  373MOL0     H50309   3.514   2.316  10.912 -0.5927 -0.1551 -0.1197
  373MOL0     H50310   3.510   2.171  11.012  1.5416 -0.2865 -2.3644
  373MOL0     H50311   3.319   2.302  11.157  0.1647 -0.3021  1.4388
  373MOL0     H50312   3.330   2.433  11.045  0.0839  0.3022  3.2165
  373MOL0     H50313   3.535   2.334  11.223 -0.5516  0.6156  1.1181
  373MOL0     H50314   3.452   2.492  11.231  0.7686  1.2666 -1.2526
  373MOL0     H50315   3.746   2.672  10.998 -0.4773 -0.1803 -0.3997
  373MOL0     H50316   3.902   2.944  11.125 -0.8089  0.0222  1.2025
  373MOL0     H50317   4.019   2.820  11.085 -0.5726  1.2912  1.1170
  373MOL0     H50318   3.887   2.830  10.979 -1.0056  1.6030 -0.1038
  373MOL0     H50319   4.245   2.931  11.517  1.3056  0.7897 -0.5327
  373MOL0     H50320   4.303   3.161  11.637  0.4524  1.8537 -0.1132
  373MOL0     H50321   4.387   3.454  11.554 -0.5431  1.4069  2.0268
  373MOL0     H50322   4.311   3.410  11.402  3.3608  1.5790  1.0226
  373MOL0     H50323   4.290   3.644  11.408 -2.6621  1.8769 -1.2502
  373MOL0     H50324   4.135   3.578  11.410  0.9158  0.4032 -1.5310
  373MOL0     H50325   4.263   3.653  11.684  1.1363  4.3872 -0.8513
  373MOL0     H50326   4.099   3.601  11.629  0.9561 -2.2741 -2.8571
  373MOL0     H50327   4.249   3.857  11.542 -0.2269  0.8051  0.4787
  373MOL0     H50328   4.070   3.807  11.521 -1.5758  0.2521  1.6277
  373MOL0     H50329   4.227   3.867  11.765  1.2034 -1.8945 -2.3701
  373MOL0     H50330   4.047   3.831  11.763 -0.6735  1.5614 -0.1767
  373MOL0     H50331   4.202   4.078  11.635 -0.2328 -0.8446  0.1241
  373MOL0     H50332   4.041   4.039  11.610  2.6178  1.6555 -3.0633
  373MOL0     H50333   4.043   4.052  11.889  1.7147  0.2926  1.2233
  373MOL0     H50334   4.029   4.202  11.781  0.0920  0.2830 -0.0736
  373MOL0     H50335   4.247   4.234  11.766 -0.9480 -1.4512 -2.2350
  373MOL0     H50336   4.290   4.119  11.887  0.7433  0.5109  0.2854
  373MOL0     H50337   4.011   3.361  11.403 -1.2677 -0.1939 -1.8253
  373MOL0     H50338   3.941   3.139  11.295 -0.3614 -0.6991  1.3221
  373MOL0     H50339   3.831   2.608  11.480 -0.3046 -1.2318  0.4562
  373MOL0     H50340   3.691   2.463  11.369 -0.1912  0.7730  1.3101
  373MOL0     H50341   4.019   2.354  10.536  0.1728  0.3475 -2.0868
  373MOL0     H50342   3.938   2.483  10.330  0.9487  0.4476  0.2981
  373MOL0     H50343   3.785   2.964  10.287  2.1686 -0.4690 -1.0887
  373MOL0     H50344   3.692   3.135  10.151  0.2693 -0.8665  2.8344
  373MOL0     H50345   3.653   3.051   9.733 -0.8656  1.1135 -3.1985
  373MOL0     H50346   3.493   3.016   9.725 -0.0660  0.4883 -0.2636
  373MOL0     H50347   3.478   3.298   9.773 -0.9964 -0.5069 -0.4626
  373MOL0     H50348   3.496   3.219   9.607 -0.4062 -1.9004  0.6250
  373MOL0     H50349   3.729   3.262   9.609  1.4252  1.6096  0.5921
  373MOL0     H50350   3.730   3.281   9.774 -0.8968  1.8040  0.6545
  373MOL0     H50351   3.752   3.508   9.676 -0.0229 -0.2284  1.3138
  373MOL0     H50352   3.615   3.505   9.783  0.3046 -1.8260  1.3271
  373MOL0     H50353   3.449   3.556   9.387 -1.0074 -1.4748 -0.0365
  373MOL0     H50354   3.569   2.842   9.849  2.7158  0.1635 -0.6597
  373MOL0     H50355   3.663   2.661  10.005  1.3515 -0.9770 -1.0674
  374MOL0     O50356   8.449   6.831  10.820  0.0378  0.5946 -0.5390
  374MOL0     C50357   8.542   6.913  10.816 -0.0861 -0.2513 -0.0560
  374MOL0     O50358   8.624   6.928  10.910  0.8403 -0.2530 -0.8405
  374MOL0     C50359   8.647   6.832  11.002 -0.7382 -0.5378 -0.1401
  374MOL0     C50360   8.667   6.861  11.133  0.3192 -0.4283 -0.0130
  374MOL0     C50361   8.688   6.770  11.233  0.1385 -0.1710  0.0824
  374MOL0     C50362   8.703   6.635  11.207  0.1574 -0.3012 -0.9485
  374MOL0     O50363   8.715   6.545  11.309  1.2373  0.1135  0.7727
  374MOL0     C50364   8.801   6.434  11.278  0.1461  0.3164 -0.0494
  374MOL0     C50365   8.838   6.338  11.395 -0.4406  0.2649  0.6995
  374MOL0     C50366   8.704   6.301  11.465 -0.3974  0.3664 -0.4272
  374MOL0     C50367   8.703   6.170  11.541 -0.2513  0.0249 -0.0702
  374MOL0     C50368   8.586   6.162  11.636  0.4953 -0.3356 -0.1955
  374MOL0     C50369   8.460   6.157  11.557 -0.5528  0.7283  0.1215
  374MOL0     C50370   8.335   6.133  11.642 -0.4674  0.1777 -0.3918
  374MOL0     C50371   8.205   6.129  11.570 -0.5825  0.5368 -0.7885
  374MOL0     N50372   8.181   6.005  11.501 -0.4263 -0.4127 -0.5928
  374MOL0     C50373   8.071   5.925  11.509 -0.7038 -1.6184 -0.4371
  374MOL0     C50374   8.072   5.842  11.399 -0.5995 -0.5692  0.3174
  374MOL0     C50375   7.970   5.746  11.354 -0.7631 -0.1002 -0.7803
  374MOL0     C50376   7.835   5.798  11.422 -0.0571  0.1538  0.4661
  374MOL0     C50377   7.718   5.730  11.349 -0.0168 -0.0003  0.3071
  374MOL0     C50378   7.576   5.761  11.399  0.0753 -0.5005 -0.5456
  374MOL0     O50379   7.575   5.800  11.535  0.2452  0.3227  0.0068
  374MOL0     C50380   7.582   5.704  11.635 -1.3312 -0.5874  0.1375
  374MOL0     C50381   7.571   5.567  11.609 -0.1969  0.7354 -0.4433
  374MOL0     C50382   7.595   5.458  11.704 -0.2888 -0.1438  0.5508
  374MOL0     C50383   7.588   5.318  11.641 -0.1504 -0.4611  1.0763
  374MOL0     C50384   7.618   5.489  11.831  0.7270  0.1470 -0.1941
  374MOL0     C50385   7.633   5.382  11.940  0.3929 -0.1610  0.4783
  374MOL0     O50386   7.651   5.435  12.063 -0.6633  0.4426  0.6075
  374MOL0     C50387   7.667   5.362  12.171  0.9228 -0.8090 -0.3511
  374MOL0     C50388   7.642   5.415  12.294  0.9441  0.4449 -0.4934
  374MOL0     C50389   7.666   5.336  12.417  0.0571 -0.2767 -0.3118
  374MOL0     C50390   7.726   5.210  12.415  0.2248 -0.9301  0.1510
  374MOL0     O50391   7.743   5.143  12.535 -0.3894  0.4135  0.0801
  374MOL0     C50392   7.818   5.027  12.524  0.5609  0.7812 -0.4261
  374MOL0     C50393   7.733   4.906  12.492 -0.5233  0.2817 -0.7239
  374MOL0     C50394   7.603   4.903  12.575  0.1795 -1.0328  0.0165
  374MOL0     C50395   7.520   4.779  12.544 -0.3497 -0.2750 -0.2630
  374MOL0     C50396   7.405   4.761  12.640  0.2636 -0.3649  0.3661
  374MOL0     C50397   7.275   4.834  12.622 -0.6790  0.0829  0.5617
  374MOL0     C50398   7.180   4.834  12.742 -0.5086 -0.0419 -0.7520
  374MOL0     C50399   7.115   4.699  12.751  1.0809 -0.1968 -0.4279
  374MOL0    Cl50400   6.999   4.707  12.889 -0.1184 -0.3359 -0.4655
  374MOL0     C50401   7.762   5.168  12.279  0.5302  0.8710 -1.5760
  374MOL0     C50402   7.732   5.239  12.163  0.0830 -0.5164  0.4041
  374MOL0     O50403   7.591   5.266  11.921 -0.3029 -0.6702  0.1243
  374MOL0     C50404   7.631   5.632  11.865  0.3166  0.2844 -0.3177
  374MOL0     C50405   7.628   5.731  11.766  0.4103  0.5735  0.1183
  374MOL0     N50406   8.181   5.878  11.322  0.9881 -0.4568 -0.3348
  374MOL0     N50407   8.251   5.969  11.387 -0.6018  0.4100 -0.0001
  374MOL0     C50408   8.694   6.595  11.069 -0.2063  0.5093 -0.3552
  374MOL0     C50409   8.662   6.695  10.972  0.0749 -0.5803  0.4158
  374MOL0     C50410   8.538   7.024  10.718 -0.9063  0.6326  0.4205
  374MOL0     C50411   8.665   7.059  10.658  0.2466  0.3899 -0.0717
  374MOL0     C50412   8.673   7.176  10.581  0.0213  0.9866  1.2538
  374MOL0     C50413   8.556   7.248  10.554  0.0443  0.8148  0.1578
  374MOL0     O50414   8.541   7.358  10.474 -0.9633  0.6367  0.4343
  374MOL0     C50415   8.652   7.405  10.389  0.8989  0.9731 -0.4332
  374MOL0     C50416   8.599   7.522  10.322  0.1559 -0.4486  0.6227
  374MOL0     C50417   8.685   7.558  10.203 -0.1875 -0.7654 -1.2011
  374MOL0     C50418   8.652   7.706  10.147 -0.0070 -0.2875  0.5031
  374MOL0     C50419   8.511   7.732  10.110  0.3118 -0.3468  0.0379
  374MOL0     C50420   8.399   7.763  10.069 -0.0938 -0.3969 -0.5708
  374MOL0     C50421   8.432   7.201  10.604 -0.3374  0.0353 -0.0266
  374MOL0     C50422   8.426   7.081  10.681  1.5230 -0.9733  0.0660
  374MOL0     H50423   8.651   6.964  11.162 -0.0147 -0.5529  0.2383
  374MOL0     H50424   8.703   6.801  11.336  0.0811  0.2751 -0.0411
  374MOL0     H50425   8.754   6.367  11.206 -1.3176  0.2944  0.9006
  374MOL0     H50426   8.897   6.470  11.237  0.4133  0.2081  0.4706
  374MOL0     H50427   8.883   6.254  11.341 -1.1780 -1.0129  2.0063
  374MOL0     H50428   8.911   6.373  11.468 -0.8380  0.2359  1.1084
  374MOL0     H50429   8.681   6.379  11.538  1.6302 -0.6030  1.3922
  374MOL0     H50430   8.631   6.292  11.385 -0.8609  2.1455 -0.2442
  374MOL0     H50431   8.690   6.094  11.463  1.7666 -1.5794  1.0527
  374MOL0     H50432   8.791   6.154  11.604 -1.2817 -0.7187  1.2681
  374MOL0     H50433   8.606   6.086  11.712 -0.6139 -0.3059  0.1448
  374MOL0     H50434   8.588   6.260  11.685 -0.3727  0.5174 -1.8189
  374MOL0     H50435   8.457   6.235  11.480  0.1091 -2.1207 -3.0534
  374MOL0     H50436   8.464   6.066  11.495 -2.1267  0.0877  0.9319
  374MOL0     H50437   8.346   6.039  11.697 -2.9916  0.1290  0.1475
  374MOL0     H50438   8.329   6.215  11.714 -2.5866 -0.6465  0.4729
  374MOL0     H50439   8.199   6.224  11.515 -0.1837  1.2596  0.3870
  374MOL0     H50440   8.130   6.144  11.648  0.2208  1.4680 -0.1705
  374MOL0     H50441   8.002   5.936  11.591 -1.2009  1.3599 -1.1174
  374MOL0     H50442   7.976   5.749  11.245 -0.7910 -0.0374 -0.7793
  374MOL0     H50443   7.992   5.644  11.388  1.2756  0.5788  0.0839
  374MOL0     H50444   7.823   5.905  11.401  0.3195  0.5659  2.2117
  374MOL0     H50445   7.843   5.786  11.530  1.8018  2.0677  0.6277
  374MOL0     H50446   7.737   5.623  11.365  1.0099  0.2011  0.4684
  374MOL0     H50447   7.732   5.745  11.241  0.3988  0.3747  0.4139
  374MOL0     H50448   7.505   5.681  11.375 -0.2402 -0.9655  1.7193
  374MOL0     H50449   7.526   5.842  11.345 -0.2285  0.8206  1.5873
  374MOL0     H50450   7.563   5.535  11.505 -2.1185  2.0920 -0.7635
  374MOL0     H50451   7.496   5.265  11.668 -0.5179 -1.0221 -1.0425
  374MOL0     H50452   7.600   5.316  11.532 -2.6680  0.4510  0.7022
  374MOL0     H50453   7.683   5.273  11.670  1.7745  1.3274 -1.8973
  374MOL0     H50454   7.594   5.513  12.294 -2.3567 -1.0043  0.3432
  374MOL0     H50455   7.648   5.388  12.511  3.0639  0.3014  0.0374
  374MOL0     H50456   7.909   5.021  12.463  1.7303 -0.8738  1.3642
  374MOL0     H50457   7.860   4.999  12.621 -2.2922 -5.7972 -0.5492
  374MOL0     H50458   7.707   4.903  12.385  2.0145  1.0212 -1.4215
  374MOL0     H50459   7.804   4.826  12.514 -1.5868 -0.2160  1.1285
  374MOL0     H50460   7.538   4.990  12.558  0.0679 -0.9490  0.8372
  374MOL0     H50461   7.629   4.895  12.681  0.6757 -1.5726 -0.1401
  374MOL0     H50462   7.481   4.788  12.442 -0.0650  3.7522 -0.1466
  374MOL0     H50463   7.580   4.687  12.543 -1.1891 -0.9142  2.1876
  374MOL0     H50464   7.433   4.798  12.739 -1.8543  3.7525 -0.3358
  374MOL0     H50465   7.384   4.655  12.652  1.5279 -0.7165 -0.2901
  374MOL0     H50466   7.291   4.940  12.599 -0.1505 -0.1423 -0.1310
  374MOL0     H50467   7.231   4.785  12.536  1.9294  0.8282 -1.3396
  374MOL0     H50468   7.102   4.908  12.725 -2.2049 -1.6789 -0.4313
  374MOL0     H50469   7.247   4.837  12.829  2.3386 -2.6578 -2.6345
  374MOL0     H50470   7.188   4.621  12.775  1.9260  0.5367 -0.5919
  374MOL0     H50471   7.056   4.677  12.662  0.2125 -0.0166  0.0866
  374MOL0     H50472   7.804   5.069  12.267 -2.8697 -1.1025  0.8184
  374MOL0     H50473   7.761   5.207  12.064  1.3112  1.5523  0.0307
  374MOL0     H50474   7.647   5.658  11.969  1.1595  1.6075 -0.7505
  374MOL0     H50475   7.629   5.837  11.789 -1.0022  1.1345 -2.0855
  374MOL0     H50476   8.721   6.493  11.044 -1.5853 -0.1621  0.7034
  374MOL0     H50477   8.651   6.642  10.878 -0.5966 -3.2115  1.8778
  374MOL0     H50478   8.754   7.001  10.680  1.1008  0.5077 -2.8545
  374MOL0     H50479   8.772   7.200  10.542 -0.2150 -2.0559 -1.7529
  374MOL0     H50480   8.730   7.432  10.461  3.7723 -2.1380 -2.0881
  374MOL0     H50481   8.685   7.325  10.322  2.3101  2.0814 -1.1079
  374MOL0     H50482   8.602   7.611  10.386  2.4813 -1.0052  1.3762
  374MOL0     H50483   8.500   7.496  10.282  0.4051  0.8112 -0.8755
  374MOL0     H50484   8.665   7.489  10.120  0.8653 -0.5688 -1.6365
  374MOL0     H50485   8.789   7.565  10.234 -0.6069 -2.8794  0.8890
  374MOL0     H50486   8.707   7.717  10.053 -0.0414 -0.2678  0.4856
  374MOL0     H50487   8.689   7.781  10.218  1.6186 -1.1972  0.6537
  374MOL0     H50488   8.304   7.794  10.032 -0.0223 -1.3915 -1.6534
  374MOL0     H50489   8.341   7.261  10.602 -0.2117  0.3614  1.9717
  374MOL0     H50490   8.331   7.043  10.717  0.0359 -0.9990 -3.5565
  375MOL0     O50491   5.963   5.064   9.895  0.1890  0.1489 -1.6389
  375MOL0     C50492   5.917   5.129   9.986 -0.9771  0.4069  0.4159
  375MOL0     O50493   5.786   5.137  10.015  0.0393  0.0901 -0.1635
  375MOL0     C50494   5.693   5.049   9.960  0.7512  0.4707  0.4880
  375MOL0     C50495   5.639   5.055   9.836 -0.7633  0.4083 -0.0128
  375MOL0     C50496   5.548   4.959   9.791  0.0242  0.3103 -0.4353
  375MOL0     C50497   5.500   4.860   9.879 -1.4513  0.3914 -0.3557
  375MOL0     O50498   5.416   4.758   9.854  0.9845 -0.4316 -0.2847
  375MOL0     C50499   5.300   4.804   9.785 -0.1574  0.3425  0.4873
  375MOL0     C50500   5.204   4.684   9.782 -1.3032  0.8035  0.9990
  375MOL0     C50501   5.262   4.550   9.727  0.4116  0.4825  0.6105
  375MOL0     C50502   5.149   4.438   9.751 -0.2142 -0.6571 -0.3467
  375MOL0     C50503   5.196   4.304   9.680 -0.7258 -0.8400  0.4388
  375MOL0     C50504   5.105   4.188   9.735 -0.1182  0.1118  0.7185
  375MOL0     C50505   5.115   4.053   9.659  0.0952 -0.5840 -0.8142
  375MOL0     C50506   5.037   4.051   9.517  0.7390  0.0068 -0.8275
  375MOL0     N50507   5.123   4.016   9.407  0.5735  1.4495 -0.1910
  375MOL0     C50508   5.159   4.093   9.299  0.5730 -0.3020  0.5482
  375MOL0     C50509   5.214   4.012   9.211 -0.0643  0.5755  0.0325
  375MOL0     C50510   5.234   4.055   9.071 -1.0650  0.7417 -0.8872
  375MOL0     C50511   5.263   4.204   9.049  0.4678 -0.0576 -0.4567
  375MOL0     C50512   5.270   4.242   8.902 -0.1020 -0.1375  0.6631
  375MOL0     C50513   5.286   4.392   8.891 -0.6706 -0.9053  0.8526
  375MOL0     O50514   5.170   4.467   8.926  0.2205 -0.2757 -0.6156
  375MOL0     C50515   5.179   4.599   8.915 -0.0840 -0.4857  0.2676
  375MOL0     C50516   5.266   4.668   8.830 -0.5157 -0.0746  0.5469
  375MOL0     C50517   5.265   4.810   8.809  0.1652 -0.1246  0.3055
  375MOL0     C50518   5.364   4.864   8.717 -0.0884 -0.3084  0.0484
  375MOL0     C50519   5.180   4.884   8.895 -0.4236  0.2660 -0.0849
  375MOL0     C50520   5.189   5.033   8.915 -1.1437 -0.3304  0.5114
  375MOL0     O50521   5.078   5.107   8.941 -0.3339 -0.2206 -0.2709
  375MOL0     C50522   5.054   5.239   8.896 -0.7384 -0.6339 -0.2923
  375MOL0     C50523   5.092   5.301   8.774 -0.7022  0.1020 -0.4539
  375MOL0     C50524   5.065   5.433   8.739 -0.1265 -0.4961 -0.7774
  375MOL0     C50525   4.981   5.509   8.824 -0.0604  0.0228  0.0326
  375MOL0     O50526   4.949   5.636   8.779 -0.0826  0.1048 -0.0267
  375MOL0     C50527   4.824   5.704   8.801  0.5385 -0.2910 -0.5025
  375MOL0     C50528   4.799   5.781   8.675 -0.7227  0.6115 -0.3083
  375MOL0     C50529   4.655   5.829   8.661 -0.2058 -0.3008 -0.3086
  375MOL0     C50530   4.614   5.942   8.767  0.3968  0.5243 -0.0907
  375MOL0     C50531   4.469   5.985   8.745 -0.1841  0.1311  0.1951
  375MOL0     C50532   4.454   6.102   8.648  0.3629  0.6884 -0.3475
  375MOL0     C50533   4.316   6.181   8.662  0.3046  0.8321  0.6108
  375MOL0     C50534   4.190   6.084   8.676  0.0296  0.4967  0.5556
  375MOL0    Cl50535   4.047   6.161   8.605  0.3945 -0.5314 -0.0292
  375MOL0     C50536   4.926   5.449   8.933  0.1742  0.0381  0.4105
  375MOL0     C50537   4.969   5.321   8.973  0.7307  0.3684  0.0189
  375MOL0     O50538   5.296   5.080   8.882 -0.3053  1.3504  0.1052
  375MOL0     C50539   5.101   4.815   8.988  0.1477 -0.6507  0.6209
  375MOL0     C50540   5.093   4.678   8.993  0.7333 -0.3438  0.3027
  375MOL0     N50541   5.218   3.884   9.261 -0.3656  0.6032  0.1977
  375MOL0     N50542   5.158   3.883   9.376  0.2927 -0.1684  0.0578
  375MOL0     C50543   5.581   4.841   9.989  0.5130  0.4306  0.6690
  375MOL0     C50544   5.669   4.932  10.030 -0.2755  0.0486 -0.3620
  375MOL0     C50545   6.013   5.207  10.070 -0.1503  0.8430 -0.3220
  375MOL0     C50546   5.963   5.284  10.166  1.2428 -0.0119 -0.1099
  375MOL0     C50547   6.035   5.383  10.234 -0.3591  0.0248 -0.5462
  375MOL0     C50548   6.169   5.402  10.192 -0.5693  0.8155 -0.3278
  375MOL0     O50549   6.250   5.500  10.239  0.2388 -0.5372  1.0594
  375MOL0     C50550   6.224   5.564  10.364  0.6073  0.1347 -0.0389
  375MOL0     C50551   6.360   5.621  10.415 -0.1604  1.0471 -0.0456
  375MOL0     C50552   6.437   5.500  10.470  0.7192  0.2662 -0.1111
  375MOL0     C50553   6.422   5.481  10.626  0.2989  0.8337 -0.4612
  375MOL0     C50554   6.493   5.589  10.695  0.1789  0.5175 -0.8117
  375MOL0     C50555   6.547   5.669  10.760  0.6188 -0.7234 -0.0607
  375MOL0     C50556   6.228   5.326  10.089  0.2386  0.2666  0.5446
  375MOL0     C50557   6.147   5.229  10.025 -0.1565  0.0374  0.3644
  375MOL0     H50558   5.682   5.126   9.765  0.6594  2.8019  2.9886
  375MOL0     H50559   5.506   4.974   9.692 -0.5844 -1.1823 -0.4267
  375MOL0     H50560   5.229   4.870   9.836  1.6107  0.5916  2.7310
  375MOL0     H50561   5.320   4.841   9.684  1.5694  3.6651  1.8885
  375MOL0     H50562   5.164   4.674   9.883  0.4274 -0.8349  1.5785
  375MOL0     H50563   5.117   4.710   9.720 -1.0465  0.2374  0.3910
  375MOL0     H50564   5.285   4.558   9.620 -5.3504  2.7304 -0.8563
  375MOL0     H50565   5.356   4.517   9.772 -0.4757 -1.6871  0.9947
  375MOL0     H50566   5.131   4.423   9.858  2.7612 -1.5619  0.1128
  375MOL0     H50567   5.057   4.477   9.707  2.3175  2.6371 -3.2400
  375MOL0     H50568   5.184   4.306   9.571  1.0451 -0.8242  0.2125
  375MOL0     H50569   5.300   4.276   9.699 -0.1234  0.5910 -0.5271
  375MOL0     H50570   5.139   4.163   9.836 -2.2867 -4.2069  0.6117
  375MOL0     H50571   5.001   4.222   9.734 -0.3784 -0.4188 -2.7718
  375MOL0     H50572   5.222   4.038   9.643  0.6828  2.3505 -0.2090
  375MOL0     H50573   5.079   3.976   9.728  1.6826  0.1307  0.8928
  375MOL0     H50574   4.980   4.144   9.505  0.4929  0.1095  0.8925
  375MOL0     H50575   4.971   3.964   9.521  2.3688 -1.2716 -0.5137
  375MOL0     H50576   5.136   4.199   9.297  1.3535 -0.0454  2.5299
  375MOL0     H50577   5.333   4.016   9.043  0.0203 -0.3191  3.5983
  375MOL0     H50578   5.160   4.016   9.001  2.3896 -0.5859 -4.1567
  375MOL0     H50579   5.349   4.244   9.105 -1.0408  2.7887  0.0202
  375MOL0     H50580   5.176   4.260   9.084  1.3624  2.3772 -1.8087
  375MOL0     H50581   5.179   4.201   8.858 -0.6874  0.1393  1.5805
  375MOL0     H50582   5.359   4.198   8.854  1.8207  4.4360 -0.4986
  375MOL0     H50583   5.315   4.404   8.786 -0.4790  1.0470  1.0955
  375MOL0     H50584   5.371   4.426   8.950 -1.3568 -2.4419  2.8722
  375MOL0     H50585   5.331   4.606   8.769 -2.4531 -1.0205 -0.6283
  375MOL0     H50586   5.307   4.934   8.655 -2.1615 -0.2937  1.8443
  375MOL0     H50587   5.453   4.905   8.766  1.0728 -2.1757 -0.3999
  375MOL0     H50588   5.400   4.781   8.656 -2.7924 -2.5026  1.1591
  375MOL0     H50589   5.142   5.243   8.697  1.0104  2.3632 -1.1624
  375MOL0     H50590   5.095   5.476   8.644 -0.8785  0.9548 -0.3886
  375MOL0     H50591   4.748   5.630   8.828 -0.6004  1.5006  1.4851
  375MOL0     H50592   4.839   5.770   8.887  2.8330  0.7828 -1.6383
  375MOL0     H50593   4.871   5.863   8.679  0.5176 -0.4809  2.3602
  375MOL0     H50594   4.817   5.713   8.592 -2.9373 -2.2514  1.3645
  375MOL0     H50595   4.582   5.749   8.658 -0.7573  0.1788  0.1573
  375MOL0     H50596   4.657   5.890   8.569  2.1350 -1.1693 -0.9147
  375MOL0     H50597   4.623   5.894   8.864 -2.9915 -0.0609  0.0534
  375MOL0     H50598   4.677   6.032   8.764 -1.0418  1.6214  0.9174
  375MOL0     H50599   4.428   6.020   8.840  1.5079  3.0563 -0.0295
  375MOL0     H50600   4.415   5.895   8.714  1.9878 -1.3987  0.6353
  375MOL0     H50601   4.534   6.176   8.663  0.5449  0.3973  0.1221
  375MOL0     H50602   4.454   6.050   8.551  2.1806 -1.4441  0.7117
  375MOL0     H50603   4.304   6.239   8.570 -0.3935  0.3834  0.4050
  375MOL0     H50604   4.326   6.253   8.743  2.6640  1.6628 -0.3375
  375MOL0     H50605   4.176   6.063   8.782 -0.1078 -0.4398  0.3604
  375MOL0     H50606   4.204   5.987   8.627  3.3156  1.8581 -1.5396
  375MOL0     H50607   4.856   5.512   8.987  0.6062 -0.1845  1.2504
  375MOL0     H50608   4.940   5.277   9.068 -1.9249 -1.0972 -1.3445
  375MOL0     H50609   5.042   4.869   9.062 -1.7286  0.5787 -1.6220
  375MOL0     H50610   5.016   4.637   9.057  0.5953  1.9805  1.7305
  375MOL0     H50611   5.564   4.762  10.062  1.1269  2.1332  2.7260
  375MOL0     H50612   5.718   4.923  10.127 -0.7752 -0.4440 -0.1512
  375MOL0     H50613   5.860   5.289  10.200  1.6427 -1.9637  1.6292
  375MOL0     H50614   5.986   5.448  10.305 -1.3073  4.5113 -4.7628
  375MOL0     H50615   6.160   5.652  10.364  1.7192  1.0060  1.8264
  375MOL0     H50616   6.189   5.496  10.442 -0.1334  0.7027  0.1316
  375MOL0     H50617   6.337   5.697  10.490  0.6118 -2.1185  3.7369
  375MOL0     H50618   6.425   5.663  10.338 -1.3728 -1.6702 -2.7509
  375MOL0     H50619   6.546   5.501  10.464  0.7330 -0.8403 -0.2125
  375MOL0     H50620   6.404   5.413  10.412  1.3297 -0.1825  0.2163
  375MOL0     H50621   6.473   5.390  10.657 -2.2706 -0.8090 -0.8037
  375MOL0     H50622   6.319   5.465  10.659  1.0511 -1.1145  1.1660
  375MOL0     H50623   6.602   5.751  10.802  2.4390 -0.6358 -2.4197
  375MOL0     H50624   6.323   5.347  10.041 -0.9789  1.2349 -1.6354
  375MOL0     H50625   6.177   5.187   9.929  0.2329  2.8411 -0.8318
  376MOL0     O50626   6.529   0.187   3.384  0.1732  0.2928  0.3792
  376MOL0     C50627   6.603   0.100   3.349  0.2422  1.3944  0.1571
  376MOL0     O50628   6.584   0.029   3.228 -0.3027 -0.7188  0.1332
  376MOL0     C50629   6.509   0.090   3.133 -0.1165 -0.5724 -0.8000
  376MOL0     C50630   6.395   0.040   3.073 -0.2088  0.8526 -0.3855
  376MOL0     C50631   6.320   0.114   2.980  1.1185  0.3735 -0.3947
  376MOL0     C50632   6.351   0.251   2.951  0.8291  1.0081  0.6452
  376MOL0     O50633   6.277   0.323   2.858 -0.4500 -0.2197  0.2931
  376MOL0     C50634   6.198   0.257   2.760  0.4184  0.5715  0.1615
  376MOL0     C50635   6.134   0.361   2.667  0.3939  0.7635 -0.4975
  376MOL0     C50636   6.220   0.418   2.550 -0.0776 -0.0730 -0.1460
  376MOL0     C50637   6.160   0.531   2.475 -0.2724 -0.0389 -0.2088
  376MOL0     C50638   6.014   0.513   2.422 -1.4513  0.3389 -0.7723
  376MOL0     C50639   5.999   0.389   2.323  0.4365 -0.8757  0.0198
  376MOL0     C50640   6.094   0.400   2.206 -0.1741 -0.2588  0.1475
  376MOL0     C50641   6.044   0.302   2.090  0.3958  0.7359 -0.1796
  376MOL0     N50642   6.113   0.319   1.965 -0.9688  0.1759  0.6915
  376MOL0     C50643   6.238   0.282   1.938 -0.2545 -0.6223  0.2065
  376MOL0     C50644   6.272   0.342   1.820  0.0528 -0.7661 -0.8620
  376MOL0     C50645   6.393   0.327   1.729 -0.2385 -0.0597 -0.1412
  376MOL0     C50646   6.514   0.406   1.765 -0.6160  0.5772 -0.7884
  376MOL0     C50647   6.628   0.372   1.668 -0.2029  0.6810  0.5146
  376MOL0     C50648   6.752   0.450   1.698 -0.0254  0.0370 -0.3342
  376MOL0     O50649   6.824   0.388   1.807  0.0165  0.4783 -0.7085
  376MOL0     C50650   6.937   0.458   1.853  0.5583 -0.6386  0.1535
  376MOL0     C50651   7.008   0.566   1.787  0.8664  0.7640 -0.0501
  376MOL0     C50652   7.120   0.628   1.843  0.3140  0.0732 -1.1606
  376MOL0     C50653   7.180   0.742   1.763 -0.1022  0.2114 -0.9499
  376MOL0     C50654   7.174   0.582   1.966  0.1909  0.9607  0.5488
  376MOL0     C50655   7.287   0.634   2.045  0.5352 -0.3297  0.7830
  376MOL0     O50656   7.333   0.575   2.159 -1.5425 -0.0018  0.3643
  376MOL0     C50657   7.436   0.644   2.223 -0.3896 -0.7246 -0.8692
  376MOL0     C50658   7.403   0.738   2.324  0.1939 -0.4823  0.2368
  376MOL0     C50659   7.507   0.791   2.393  0.3672  0.0592 -0.6675
  376MOL0     C50660   7.648   0.781   2.358 -0.7658  0.0147 -0.0127
  376MOL0     O50661   7.739   0.868   2.417 -0.4391 -0.1439 -0.3927
  376MOL0     C50662   7.874   0.826   2.410  0.1335 -0.2223 -0.6947
  376MOL0     C50663   7.955   0.920   2.495 -0.0472 -0.0996  0.9738
  376MOL0     C50664   8.084   0.866   2.551 -0.3383  1.0387 -0.3253
  376MOL0     C50665   8.147   0.976   2.625  0.3296 -0.1366  0.1906
  376MOL0     C50666   8.091   0.995   2.772  0.7864  0.1169 -0.0677
  376MOL0     C50667   8.184   1.091   2.848  0.1508 -0.2977 -1.0470
  376MOL0     C50668   8.116   1.150   2.970  0.0964  0.8303 -0.2719
  376MOL0     C50669   8.211   1.233   3.048 -0.5193  0.2416 -0.0053
  376MOL0    Cl50670   8.181   1.237   3.218  0.1322 -0.3224  0.2047
  376MOL0     C50671   7.674   0.686   2.261 -0.1550  0.5982  1.0447
  376MOL0     C50672   7.571   0.614   2.188 -0.0139 -0.7958  0.2132
  376MOL0     O50673   7.334   0.735   1.996 -0.0934  0.2270 -0.3079
  376MOL0     C50674   7.111   0.469   2.017 -0.5022 -0.1790  0.5261
  376MOL0     C50675   7.001   0.411   1.963 -0.2451 -0.0105 -0.1381
  376MOL0     N50676   6.170   0.430   1.782 -1.2706 -0.2724 -1.0272
  376MOL0     N50677   6.075   0.404   1.864  0.2622 -0.3174  0.2294
  376MOL0     C50678   6.468   0.299   3.008 -0.7720  1.3137 -0.1756
  376MOL0     C50679   6.547   0.220   3.096  0.4195  0.0966  0.1548
  376MOL0     C50680   6.717   0.063   3.440 -0.1517  0.1285  0.7163
  376MOL0     C50681   6.727   0.134   3.561  0.6479 -0.0295 -0.8596
  376MOL0     C50682   6.840   0.116   3.642  0.2104  0.0624 -0.4714
  376MOL0     C50683   6.940   0.035   3.599  0.2800  0.3564  0.6549
  376MOL0     O50684   7.056   0.011   3.675 -0.3513  0.0396 -0.4478
  376MOL0     C50685   7.150   0.112   3.684  0.2007  0.1082 -1.1087
  376MOL0     C50686   7.278   0.063   3.748  0.2431 -0.6295  1.0147
  376MOL0     C50687   7.367  -0.011   3.644  0.2496  0.6205  0.1843
  376MOL0     C50688   7.513  -0.053   3.687  0.4500  0.8379 -0.0727
  376MOL0     C50689   7.601   0.040   3.762 -0.4512  0.1679  0.7594
  376MOL0     C50690   7.669   0.122   3.825  1.0814  0.4624  0.4632
  376MOL0     C50691   6.925  -0.035   3.485  0.4837  0.2010 -1.7295
  376MOL0     C50692   6.810  -0.032   3.407 -0.6209 -0.1736 -0.0467
  376MOL0     H50693   6.382  -0.068   3.082  1.9421  0.7265  3.9230
  376MOL0     H50694   6.230   0.070   2.938 -0.5434  0.6833  2.4815
  376MOL0     H50695   6.261   0.193   2.697 -1.0542 -2.1036  1.2137
  376MOL0     H50696   6.120   0.195   2.806 -0.3076  0.0213 -1.6962
  376MOL0     H50697   6.039   0.327   2.625  0.5575  1.1850 -1.2263
  376MOL0     H50698   6.095   0.438   2.734  0.1154  1.8914 -1.9113
  376MOL0     H50699   6.308   0.461   2.599  0.3952  0.3977 -1.3698
  376MOL0     H50700   6.248   0.336   2.483  0.3950  0.4091 -0.5491
  376MOL0     H50701   6.167   0.616   2.544  1.7939  0.7230 -1.2528
  376MOL0     H50702   6.225   0.546   2.388 -1.5165 -1.6089 -1.4468
  376MOL0     H50703   5.942   0.509   2.504  0.1820  0.7823  0.7128
  376MOL0     H50704   5.984   0.602   2.365 -1.0269  1.0586  0.1226
  376MOL0     H50705   6.014   0.294   2.375  1.3423 -1.1301 -0.6833
  376MOL0     H50706   5.895   0.389   2.289  0.6097 -2.7307 -0.5877
  376MOL0     H50707   6.103   0.502   2.168  4.6295 -1.4121 -2.5979
  376MOL0     H50708   6.195   0.370   2.234  0.0477 -1.4452 -1.7400
  376MOL0     H50709   5.936   0.317   2.081 -0.2618 -0.5972  3.6120
  376MOL0     H50710   6.052   0.198   2.120 -0.0329  0.4468 -1.0524
  376MOL0     H50711   6.308   0.212   1.982 -0.4682 -2.9746 -2.8555
  376MOL0     H50712   6.405   0.219   1.737 -1.4866 -0.1757  0.5614
  376MOL0     H50713   6.365   0.352   1.626  0.0507 -1.1061 -0.4885
  376MOL0     H50714   6.539   0.372   1.865  2.0303  1.4146 -1.0786
  376MOL0     H50715   6.492   0.512   1.777 -3.2542  0.0251 -0.1159
  376MOL0     H50716   6.589   0.405   1.571 -0.4244 -0.2899  0.2616
  376MOL0     H50717   6.670   0.271   1.665 -0.4838  0.5326  1.4408
  376MOL0     H50718   6.729   0.555   1.719  1.0655 -0.1770  2.1761
  376MOL0     H50719   6.813   0.449   1.607  2.9841 -0.9179  1.5583
  376MOL0     H50720   6.963   0.609   1.698  1.1329  1.8951  0.3452
  376MOL0     H50721   7.193   0.827   1.832 -1.3040 -0.8036  0.6096
  376MOL0     H50722   7.277   0.707   1.727 -1.9318 -3.8023 -2.4964
  376MOL0     H50723   7.108   0.773   1.687 -0.6731 -2.1607 -1.4474
  376MOL0     H50724   7.301   0.763   2.352  0.4147  1.6505 -0.7439
  376MOL0     H50725   7.485   0.865   2.469 -1.2278  1.0298 -2.0024
  376MOL0     H50726   7.893   0.723   2.440  1.2738  0.3385  0.6521
  376MOL0     H50727   7.914   0.834   2.308 -0.2816 -0.9733 -0.9223
  376MOL0     H50728   7.979   1.009   2.436 -0.0846  0.4891  1.8171
  376MOL0     H50729   7.888   0.951   2.577 -0.8899 -0.8857  0.5999
  376MOL0     H50730   8.163   0.843   2.478  2.6305 -0.1294  2.9841
  376MOL0     H50731   8.076   0.783   2.622 -0.9401  0.1660 -1.3796
  376MOL0     H50732   8.250   0.951   2.653  1.9437  0.8017 -4.1426
  376MOL0     H50733   8.141   1.069   2.568 -2.2752 -1.3363 -1.6576
  376MOL0     H50734   8.090   0.896   2.819  3.7712 -0.4306 -0.9687
  376MOL0     H50735   7.987   1.028   2.761  0.2631 -1.5353 -0.4866
  376MOL0     H50736   8.271   1.029   2.871 -0.8172 -0.9768  1.0876
  376MOL0     H50737   8.203   1.182   2.791 -0.6255  2.2118  2.4062
  376MOL0     H50738   8.101   1.065   3.036 -2.8659  1.0542 -0.5485
  376MOL0     H50739   8.028   1.206   2.936  0.0590 -0.7290 -3.1278
  376MOL0     H50740   8.203   1.338   3.017 -4.0282 -0.2510 -1.2469
  376MOL0     H50741   8.305   1.178   3.045 -1.4773 -1.4142 -1.2203
  376MOL0     H50742   7.778   0.666   2.239 -0.7745 -0.3127 -1.4130
  376MOL0     H50743   7.598   0.544   2.109 -0.5586  0.4174 -1.1011
  376MOL0     H50744   7.151   0.427   2.108  2.0523  3.8241  1.4965
  376MOL0     H50745   6.954   0.329   2.017 -1.7784  0.0579 -1.2967
  376MOL0     H50746   6.488   0.406   3.001  1.9390  0.7601 -3.0708
  376MOL0     H50747   6.636   0.266   3.137  1.4226 -0.0759 -1.6917
  376MOL0     H50748   6.645   0.195   3.598  1.4433 -0.2362  1.4047
  376MOL0     H50749   6.858   0.156   3.741  2.2635 -0.4258 -0.6069
  376MOL0     H50750   7.175   0.151   3.585 -0.4676  0.9784 -0.9519
  376MOL0     H50751   7.123   0.199   3.746 -0.5905 -0.1013 -1.1502
  376MOL0     H50752   7.258  -0.027   3.807  3.3768 -2.0258  0.1688
  376MOL0     H50753   7.329   0.141   3.804 -0.5711  1.2973 -0.7810
  376MOL0     H50754   7.373   0.052   3.555  3.4702  2.2044  1.3535
  376MOL0     H50755   7.313  -0.104   3.626 -4.7168  2.3820  3.6087
  376MOL0     H50756   7.569  -0.099   3.604  0.2501 -3.7877  2.0201
  376MOL0     H50757   7.497  -0.139   3.753 -0.2111  1.7296  0.9501
  376MOL0     H50758   7.733   0.185   3.882  0.3082  0.3702  1.4625
  376MOL0     H50759   6.994  -0.114   3.459  2.3804 -0.7957  4.6012
  376MOL0     H50760   6.801  -0.094   3.319 -0.6124  0.1516 -0.2778
  377MOL0     O50761   6.502   3.978   0.365 -0.1335 -0.0887  0.5215
  377MOL0     C50762   6.523   3.858   0.374 -0.1498 -0.2189 -0.2433
  377MOL0     O50763   6.514   3.785   0.490  1.0491  1.0772  0.2783
  377MOL0     C50764   6.530   3.847   0.608  0.2590 -0.2010  0.3898
  377MOL0     C50765   6.425   3.882   0.686  0.3782  0.9348  1.0543
  377MOL0     C50766   6.441   3.962   0.797  0.0301  0.4773 -0.3141
  377MOL0     C50767   6.566   3.985   0.833  0.4675 -1.1547  0.2562
  377MOL0     O50768   6.571   4.069   0.944  0.0800  0.3469  0.1489
  377MOL0     C50769   6.497   4.190   0.946 -0.1886  0.6879  0.5678
  377MOL0     C50770   6.398   4.172   1.068 -0.5967 -0.1926  0.1591
  377MOL0     C50771   6.474   4.164   1.207  0.3918  0.5596  1.0075
  377MOL0     C50772   6.553   4.284   1.252 -0.8656 -0.4781  0.6787
  377MOL0     C50773   6.569   4.272   1.405 -1.6007  0.6840  0.1907
  377MOL0     C50774   6.642   4.394   1.442  0.3058 -0.4252 -0.5143
  377MOL0     C50775   6.726   4.395   1.566 -0.7827  0.5794 -0.4441
  377MOL0     C50776   6.644   4.374   1.693 -0.4402 -0.7826  0.1813
  377MOL0     N50777   6.722   4.361   1.814 -0.4373 -0.6776  0.5116
  377MOL0     C50778   6.805   4.257   1.850  0.4110 -0.0434  0.5614
  377MOL0     C50779   6.838   4.278   1.980  0.7456 -0.1257  0.4983
  377MOL0     C50780   6.914   4.188   2.069  0.0857 -0.2995  0.4194
  377MOL0     C50781   6.993   4.256   2.175 -0.3690 -0.6806 -0.7459
  377MOL0     C50782   7.089   4.358   2.115 -0.0932  0.2806  0.1118
  377MOL0     C50783   7.149   4.439   2.229  0.1067  0.2100 -0.7779
  377MOL0     O50784   7.228   4.359   2.312  0.4377  0.4159 -0.3832
  377MOL0     C50785   7.251   4.399   2.448  0.2892 -0.4062 -0.4832
  377MOL0     C50786   7.296   4.531   2.478  0.1911  0.0023  0.0662
  377MOL0     C50787   7.311   4.577   2.601 -0.7927 -0.0100 -0.8629
  377MOL0     C50788   7.373   4.719   2.619  0.1817 -0.6391 -0.2140
  377MOL0     C50789   7.283   4.493   2.710 -0.7818  0.3686  0.3574
  377MOL0     C50790   7.285   4.538   2.849 -0.6715  0.5541  0.1664
  377MOL0     O50791   7.245   4.665   2.870  0.8843  0.8863  0.1132
  377MOL0     C50792   7.256   4.724   2.990  0.0512 -1.1317 -0.1560
  377MOL0     C50793   7.183   4.845   3.008  0.6911  0.0645 -0.1520
  377MOL0     C50794   7.174   4.915   3.132  0.5850  0.1939 -0.1032
  377MOL0     C50795   7.259   4.878   3.235  0.2809 -0.6856 -0.3204
  377MOL0     O50796   7.268   4.929   3.359  1.2125 -0.4434  0.1446
  377MOL0     C50797   7.189   5.040   3.405  0.5646  0.6562 -0.1241
  377MOL0     C50798   7.270   5.112   3.511  0.2882  0.3773 -0.4752
  377MOL0     C50799   7.325   5.021   3.616  0.0014 -0.1801 -0.9398
  377MOL0     C50800   7.349   5.082   3.748 -0.8702  1.3978 -0.0358
  377MOL0     C50801   7.227   5.054   3.837 -0.5888 -0.4394  0.7257
  377MOL0     C50802   7.242   5.124   3.966  0.3732 -0.7085 -0.2224
  377MOL0     C50803   7.348   5.080   4.069  0.1688  0.1463  0.3759
  377MOL0     C50804   7.301   5.106   4.218 -0.0487 -0.0281 -0.4787
  377MOL0    Cl50805   7.239   5.269   4.254  0.5637  0.1703  0.2032
  377MOL0     C50806   7.338   4.773   3.215 -0.3610  0.8128  0.6328
  377MOL0     C50807   7.341   4.691   3.100 -0.0564 -1.4468 -0.3375
  377MOL0     O50808   7.304   4.456   2.941 -0.2781 -1.0983 -1.3577
  377MOL0     C50809   7.240   4.362   2.684 -0.2383 -0.7053 -0.1976
  377MOL0     C50810   7.218   4.321   2.554  0.0967 -0.0602  0.6594
  377MOL0     N50811   6.771   4.402   2.015  0.0389  1.0089 -0.0270
  377MOL0     N50812   6.717   4.456   1.907 -0.0473 -0.7863 -0.5488
  377MOL0     C50813   6.679   3.927   0.773  0.6072 -0.4759  0.3455
  377MOL0     C50814   6.664   3.868   0.647 -0.9938  0.1221 -0.2877
  377MOL0     C50815   6.560   3.782   0.251 -0.1369 -0.0419  0.3628
  377MOL0     C50816   6.560   3.839   0.124  0.0763  0.0175 -0.0058
  377MOL0     C50817   6.603   3.766   0.010 -0.4841 -0.4788 -0.6958
  377MOL0     C50818   6.650   3.631   0.019  0.0998 -0.9371  0.1465
  377MOL0     O50819   6.726   3.566  -0.074  0.1129  0.3260 -0.1349
  377MOL0     C50820   6.800   3.624  -0.184 -0.6821 -0.5354  0.6467
  377MOL0     C50821   6.833   3.515  -0.282  0.4760 -0.9715 -0.6002
  377MOL0     C50822   6.939   3.552  -0.386  0.1275  0.1226 -0.0643
  377MOL0     C50823   6.962   3.461  -0.507 -0.3028  0.0487 -0.7373
  377MOL0     C50824   7.063   3.360  -0.486 -0.3581  0.0481  1.3660
  377MOL0     C50825   7.146   3.274  -0.482  0.2706  0.3738  0.7220
  377MOL0     C50826   6.625   3.575   0.145 -0.8362 -0.0783 -0.4305
  377MOL0     C50827   6.583   3.645   0.259 -0.3264  0.4470 -0.6364
  377MOL0     H50828   6.327   3.845   0.660  2.2091 -2.2753 -2.3626
  377MOL0     H50829   6.361   3.988   0.867  2.3262  2.6765  1.7158
  377MOL0     H50830   6.569   4.271   0.952  0.5010  0.1802 -0.5471
  377MOL0     H50831   6.435   4.205   0.857  1.8207 -3.7322 -1.9488
  377MOL0     H50832   6.324   4.251   1.083 -1.3925 -0.8409 -0.2520
  377MOL0     H50833   6.342   4.081   1.043 -2.2669  1.0656 -0.8729
  377MOL0     H50834   6.398   4.146   1.284 -0.8925  0.3106 -0.2920
  377MOL0     H50835   6.541   4.078   1.200  1.3144  1.3996 -1.3424
  377MOL0     H50836   6.645   4.302   1.196  0.5735 -2.7887  2.1192
  377MOL0     H50837   6.494   4.371   1.222  1.7451  0.8722 -0.8969
  377MOL0     H50838   6.473   4.259   1.455 -2.1907  2.5286 -0.3914
  377MOL0     H50839   6.622   4.180   1.430 -1.7253  1.2050  2.5900
  377MOL0     H50840   6.706   4.433   1.363 -2.5859  1.3255 -2.1670
  377MOL0     H50841   6.563   4.468   1.437 -0.7895 -1.3977  1.4062
  377MOL0     H50842   6.810   4.325   1.556 -0.3509  1.2317 -1.5615
  377MOL0     H50843   6.763   4.498   1.567 -0.2406  0.4595 -2.6461
  377MOL0     H50844   6.587   4.282   1.680 -0.3266 -0.7515 -0.5860
  377MOL0     H50845   6.581   4.464   1.698  1.1393  0.3969 -0.1925
  377MOL0     H50846   6.828   4.162   1.802  1.2915  0.0635  0.7672
  377MOL0     H50847   6.839   4.128   2.120  1.4357  0.7597  3.9890
  377MOL0     H50848   6.973   4.129   1.999  0.7743  1.2750 -0.3783
  377MOL0     H50849   7.053   4.175   2.218  0.9187  1.9817  3.0925
  377MOL0     H50850   6.927   4.288   2.257 -1.5217 -4.5987  0.0502
  377MOL0     H50851   7.039   4.432   2.052 -1.7337 -0.6098  0.3266
  377MOL0     H50852   7.167   4.307   2.057  2.0070  1.1009  2.0590
  377MOL0     H50853   7.068   4.473   2.293  0.9639  0.1507  0.3746
  377MOL0     H50854   7.211   4.526   2.204 -0.7809  2.6756  4.3178
  377MOL0     H50855   7.320   4.607   2.404 -1.6905  3.2788  2.5418
  377MOL0     H50856   7.461   4.712   2.554 -1.9540  0.3111 -3.4503
  377MOL0     H50857   7.311   4.798   2.574  1.8391  0.8535 -0.0024
  377MOL0     H50858   7.412   4.746   2.717  1.5845 -2.0543 -0.3513
  377MOL0     H50859   7.135   4.884   2.919 -0.6072  0.1999  0.5872
  377MOL0     H50860   7.102   4.995   3.144 -0.2567 -0.6884  1.0239
  377MOL0     H50861   7.162   5.110   3.325 -1.2227 -2.3375 -2.3605
  377MOL0     H50862   7.109   4.990   3.460  1.0794 -0.1365 -0.0755
  377MOL0     H50863   7.341   5.177   3.459 -1.9383  1.7133 -1.9598
  377MOL0     H50864   7.199   5.176   3.563 -0.3525  0.9762 -2.0208
  377MOL0     H50865   7.422   4.978   3.589 -0.2260 -1.1846 -0.2196
  377MOL0     H50866   7.253   4.940   3.629  0.2730 -0.0202  2.9323
  377MOL0     H50867   7.439   5.035   3.790  1.3081  3.4892 -2.0618
  377MOL0     H50868   7.370   5.188   3.733  1.2504  0.7719 -2.0352
  377MOL0     H50869   7.209   4.947   3.845 -3.9702  0.0892  1.8617
  377MOL0     H50870   7.149   5.107   3.782 -0.0014 -0.4552 -0.1382
  377MOL0     H50871   7.253   5.232   3.953 -0.6783 -0.3565  1.5088
  377MOL0     H50872   7.141   5.117   4.008 -1.0290 -1.0283 -3.3708
  377MOL0     H50873   7.443   5.133   4.055  1.1362 -1.4770  0.4701
  377MOL0     H50874   7.379   4.976   4.053  1.2229  0.5620 -0.4105
  377MOL0     H50875   7.389   5.075   4.276 -0.3349  0.5715  0.2850
  377MOL0     H50876   7.218   5.039   4.244 -0.1700 -1.4182 -3.8213
  377MOL0     H50877   7.409   4.754   3.295  2.9533  0.0132 -2.2652
  377MOL0     H50878   7.418   4.615   3.099  2.3076  0.7913 -1.6982
  377MOL0     H50879   7.223   4.299   2.772 -3.0037  0.2036 -0.0012
  377MOL0     H50880   7.167   4.229   2.529  0.9690  0.2553 -2.8251
  377MOL0     H50881   6.780   3.936   0.812  0.0590 -2.3702  2.3754
  377MOL0     H50882   6.751   3.849   0.586  0.5552  0.2744  1.7590
  377MOL0     H50883   6.528   3.941   0.106 -3.2424 -1.4720 -4.2200
  377MOL0     H50884   6.604   3.814  -0.087  0.1678  3.6942  1.1140
  377MOL0     H50885   6.754   3.697  -0.250  2.3595 -1.0410 -2.3211
  377MOL0     H50886   6.891   3.675  -0.150 -0.9503  1.5791 -1.5256
  377MOL0     H50887   6.735   3.488  -0.323 -1.9473  0.3076  3.6543
  377MOL0     H50888   6.864   3.422  -0.233  2.3124  0.2614  0.7166
  377MOL0     H50889   7.032   3.544  -0.329 -1.0215 -1.0505  1.7176
  377MOL0     H50890   6.930   3.655  -0.423  2.9233 -0.1002 -1.6592
  377MOL0     H50891   6.992   3.523  -0.592  0.2603  2.1795  0.9390
  377MOL0     H50892   6.868   3.409  -0.526  0.3959 -0.9675 -1.5573
  377MOL0     H50893   7.207   3.188  -0.465 -0.0464  0.4227  2.2859
  377MOL0     H50894   6.641   3.470   0.167  1.0133  0.3782  0.5835
  377MOL0     H50895   6.596   3.597   0.356  0.5508  1.1251 -0.3959
  378MOL0     O50896   3.852  11.337   8.668 -0.0701 -0.1832 -0.0103
  378MOL0     C50897   3.775  11.354   8.579  0.2059  0.1654  0.8866
  378MOL0     O50898   3.691  11.249   8.529  0.1986 -0.6252 -0.0667
  378MOL0     C50899   3.679  11.131   8.588 -0.3855 -0.8612 -1.0587
  378MOL0     C50900   3.747  11.019   8.534  1.1900  0.1767  0.2196
  378MOL0     C50901   3.768  10.906   8.617  0.5982  0.1383 -0.0094
  378MOL0     C50902   3.693  10.888   8.729  0.0226 -0.3721 -1.4775
  378MOL0     O50903   3.698  10.768   8.790  0.8797 -0.0211 -0.4257
  378MOL0     C50904   3.666  10.755   8.936  0.7662 -0.4654 -0.1479
  378MOL0     C50905   3.545  10.661   8.959  0.3443  0.3394  0.5129
  378MOL0     C50906   3.512  10.695   9.107 -0.2051  0.3771 -0.5745
  378MOL0     C50907   3.410  10.598   9.159  0.7547  0.0828 -0.5007
  378MOL0     C50908   3.340  10.661   9.292  0.3073  0.4400  0.0550
  378MOL0     C50909   3.214  10.750   9.255  1.4143  0.9624 -0.2772
  378MOL0     C50910   3.149  10.806   9.384  0.5295  0.4923 -0.5473
  378MOL0     C50911   3.253  10.864   9.486  0.1384  0.1476  0.2355
  378MOL0     N50912   3.327  10.975   9.427  0.1127 -0.3433  0.1469
  378MOL0     C50913   3.289  11.087   9.341 -0.2999 -0.1244 -0.1155
  378MOL0     C50914   3.396  11.169   9.328  0.1197  0.3457  0.4483
  378MOL0     C50915   3.385  11.298   9.246 -0.0644 -0.0637  0.3664
  378MOL0     C50916   3.378  11.422   9.334 -0.1353  0.4994 -0.4237
  378MOL0     C50917   3.516  11.480   9.358  0.1018  0.4797  0.0022
  378MOL0     C50918   3.522  11.581   9.466  0.7714  0.5156 -0.3990
  378MOL0     O50919   3.390  11.647   9.479  0.1336  0.1442 -0.4294
  378MOL0     C50920   3.374  11.763   9.408  0.6458  0.2530 -0.4473
  378MOL0     C50921   3.252  11.777   9.339  0.1975  0.3408 -0.0229
  378MOL0     C50922   3.208  11.882   9.256  0.3640  0.0738 -0.5794
  378MOL0     C50923   3.085  11.854   9.169  0.1144  0.0717  0.4954
  378MOL0     C50924   3.301  11.998   9.251  0.8065 -0.0085  0.2617
  378MOL0     C50925   3.275  12.125   9.173 -0.1223 -0.4614 -0.4064
  378MOL0     O50926   3.383  12.194   9.138  0.4376 -0.1986 -0.5223
  378MOL0     C50927   3.358  12.323   9.090 -0.6830  0.8498  0.8169
  378MOL0     C50928   3.306  12.429   9.165 -0.2460  1.4785  0.3104
  378MOL0     C50929   3.277  12.542   9.095  0.1710  0.2305  0.1259
  378MOL0     C50930   3.302  12.562   8.960 -0.6672  0.3591  0.6681
  378MOL0     O50931   3.259  12.675   8.893  0.2043  0.0381 -0.0543
  378MOL0     C50932   3.348  12.785   8.920  0.1487 -0.7419 -1.0092
  378MOL0     C50933   3.270  12.921   8.892  0.4254  0.0762  0.2689
  378MOL0     C50934   3.268  12.953   8.737  0.7128  0.3444 -0.1671
  378MOL0     C50935   3.150  13.048   8.696 -0.2063 -1.0824 -1.0933
  378MOL0     C50936   3.149  13.108   8.551  0.3974 -0.0014  0.2075
  378MOL0     C50937   3.293  13.161   8.521 -0.5823 -0.1285  0.0765
  378MOL0     C50938   3.303  13.273   8.413 -0.3312  0.7650 -0.1509
  378MOL0     C50939   3.422  13.359   8.425  0.1771  0.2720  0.3677
  378MOL0    Cl50940   3.581  13.269   8.404 -0.1379 -0.3784  0.0807
  378MOL0     C50941   3.352  12.457   8.886  0.7390  0.1168 -0.1079
  378MOL0     C50942   3.382  12.341   8.959  0.1038  0.0965  0.2890
  378MOL0     O50943   3.156  12.157   9.157  0.2017  0.4660  1.0751
  378MOL0     C50944   3.422  11.985   9.321  0.0322  0.1338 -0.5488
  378MOL0     C50945   3.464  11.863   9.395 -0.1508 -0.7296  0.2929
  378MOL0     N50946   3.502  11.107   9.393  0.4472  0.2421  0.4639
  378MOL0     N50947   3.456  11.007   9.454 -0.0807 -0.4314  0.6660
  378MOL0     C50948   3.607  10.992   8.769  0.4075  0.1915 -0.3236
  378MOL0     C50949   3.608  11.115   8.706  0.0750 -0.1691 -1.3273
  378MOL0     C50950   3.776  11.483   8.505 -0.5109 -0.6260  0.1540
  378MOL0     C50951   3.667  11.561   8.488 -0.8373 -0.3898  0.0815
  378MOL0     C50952   3.667  11.680   8.419  1.0961  0.2381  1.1850
  378MOL0     C50953   3.786  11.737   8.369 -0.6243  0.5417  0.2001
  378MOL0     O50954   3.795  11.855   8.297 -0.2551  0.4355  1.2444
  378MOL0     C50955   3.816  11.968   8.383 -0.0149 -0.0747 -0.0387
  378MOL0     C50956   3.747  12.090   8.322 -0.1983  1.0162 -0.0729
  378MOL0     C50957   3.783  12.210   8.401 -0.5769  0.0905  1.0612
  378MOL0     C50958   3.731  12.200   8.550  0.5115  0.3884  0.7486
  378MOL0     C50959   3.680  12.327   8.598 -0.0967 -0.0644  0.8755
  378MOL0     C50960   3.634  12.430   8.635  0.3885 -0.2848 -0.4112
  378MOL0     C50961   3.901  11.661   8.388 -0.0351 -0.2316 -0.4440
  378MOL0     C50962   3.898  11.536   8.453  0.3513  0.5727  0.5328
  378MOL0     H50963   3.813  11.039   8.450  0.7174  1.9874  0.2452
  378MOL0     H50964   3.841  10.830   8.590  0.2960 -0.1058 -0.1406
  378MOL0     H50965   3.755  10.710   8.979  1.5592  0.5416 -0.6908
  378MOL0     H50966   3.651  10.855   8.979 -1.4151  0.0977 -2.0198
  378MOL0     H50967   3.457  10.672   8.895  2.1271  1.0071 -1.9602
  378MOL0     H50968   3.585  10.564   8.928 -1.4244 -0.6573  1.2161
  378MOL0     H50969   3.604  10.675   9.164  0.1265 -0.9792 -1.5170
  378MOL0     H50970   3.486  10.801   9.114  3.6497  1.7403 -3.4301
  378MOL0     H50971   3.337  10.590   9.078 -1.1792  1.2562  1.0508
  378MOL0     H50972   3.449  10.498   9.179 -0.7841 -0.3015  0.7648
  378MOL0     H50973   3.297  10.577   9.347 -0.2213 -0.3579 -1.5248
  378MOL0     H50974   3.408  10.716   9.359 -1.8453  2.7129  0.5021
  378MOL0     H50975   3.240  10.836   9.193  0.9098  0.9140 -0.5589
  378MOL0     H50976   3.153  10.692   9.184  1.4930  2.4558 -1.6084
  378MOL0     H50977   3.079  10.884   9.354  3.5136  2.4990 -2.8352
  378MOL0     H50978   3.092  10.720   9.422 -0.1229  0.1078 -2.2940
  378MOL0     H50979   3.327  10.791   9.520  0.1626 -0.2874 -0.7191
  378MOL0     H50980   3.205  10.895   9.579  1.4916  2.3383  0.2686
  378MOL0     H50981   3.197  11.111   9.289  2.3267  0.6732 -5.0014
  378MOL0     H50982   3.463  11.311   9.171 -0.9078  3.1016 -0.1318
  378MOL0     H50983   3.297  11.299   9.180  1.4117 -1.7286 -1.7526
  378MOL0     H50984   3.331  11.393   9.429  2.2054 -0.1442  0.6367
  378MOL0     H50985   3.318  11.500   9.286 -0.2792  0.7915  0.2176
  378MOL0     H50986   3.549  11.524   9.264 -0.9419 -0.1956 -0.7018
  378MOL0     H50987   3.580  11.397   9.389  2.4970  1.9585 -0.7107
  378MOL0     H50988   3.599  11.651   9.434 -0.6906  1.9328 -0.9514
  378MOL0     H50989   3.544  11.529   9.560 -1.8977 -0.1815 -0.0758
  378MOL0     H50990   3.184  11.695   9.355  1.9064 -1.0789  0.2716
  378MOL0     H50991   3.094  11.800   9.074 -6.7486 -0.9690 -0.0447
  378MOL0     H50992   3.012  11.793   9.222  1.3277 -0.7327  1.3102
  378MOL0     H50993   3.040  11.950   9.144 -1.0245 -0.2230  1.3306
  378MOL0     H50994   3.287  12.429   9.272  1.8307  0.1180  0.7487
  378MOL0     H50995   3.248  12.616   9.169  0.3445 -2.4062  3.0250
  378MOL0     H50996   3.366  12.787   9.027 -0.8389  1.2924 -0.8301
  378MOL0     H50997   3.442  12.784   8.864 -1.1600  0.1582 -3.3722
  378MOL0     H50998   3.169  12.900   8.928 -0.6420 -0.7449 -2.8520
  378MOL0     H50999   3.318  13.006   8.941  2.4594 -1.5886  1.3502
  378MOL0     H51000   3.255  12.861   8.679 -1.9508 -0.1787  1.0988
  378MOL0     H51001   3.362  12.999   8.705  1.3695 -0.2314  0.8704
  378MOL0     H51002   3.056  12.997   8.717  0.9122 -2.1676  1.6002
  378MOL0     H51003   3.167  13.132   8.765  0.2901 -1.0771 -1.2120
  378MOL0     H51004   3.067  13.180   8.543 -2.2657 -2.9392 -1.0551
  378MOL0     H51005   3.124  13.033   8.476  0.9984  1.4815 -1.5366
  378MOL0     H51006   3.329  13.214   8.610 -1.6109  3.4671 -1.4796
  378MOL0     H51007   3.362  13.077   8.505 -0.5764 -1.0405  3.9555
  378MOL0     H51008   3.206  13.325   8.423 -2.0197 -2.2070  0.0644
  378MOL0     H51009   3.300  13.221   8.317  0.1241 -1.0797  0.7875
  378MOL0     H51010   3.421  13.396   8.529 -2.1256 -0.7360  0.7721
  378MOL0     H51011   3.422  13.440   8.351 -2.1629  1.0215  1.0692
  378MOL0     H51012   3.365  12.475   8.779 -0.7276 -0.1387 -0.3406
  378MOL0     H51013   3.418  12.253   8.906 -1.8580 -1.8790  2.0592
  378MOL0     H51014   3.490  12.069   9.308  1.0427 -0.4578  0.7132
  378MOL0     H51015   3.552  11.860   9.458  0.0147  1.1906  0.1904
  378MOL0     H51016   3.543  10.985   8.857  2.0540 -1.1521  0.8208
  378MOL0     H51017   3.563  11.206   8.746  0.5875 -0.8922  0.9923
  378MOL0     H51018   3.569  11.531   8.524 -0.7759  1.5498  2.0697
  378MOL0     H51019   3.570  11.729   8.410 -2.3656 -5.5587  1.9055
  378MOL0     H51020   3.781  11.951   8.485  0.0202  1.2598  0.2070
  378MOL0     H51021   3.924  11.982   8.390  0.0080  0.4702 -1.3320
  378MOL0     H51022   3.639  12.080   8.329  0.1302 -3.0266  2.0163
  378MOL0     H51023   3.784  12.108   8.220  2.3038  1.4295  0.8272
  378MOL0     H51024   3.746  12.299   8.351  1.2810 -0.5214 -1.5910
  378MOL0     H51025   3.892  12.215   8.407 -0.3370 -2.6130  0.2337
  378MOL0     H51026   3.805  12.168   8.624  0.9482 -1.9373 -0.5892
  378MOL0     H51027   3.654  12.123   8.562  0.1849  0.7204  0.8113
  378MOL0     H51028   3.599  12.520   8.682  1.1608 -1.2553  2.1997
  378MOL0     H51029   3.996  11.702   8.355  1.4649 -3.1681 -0.1186
  378MOL0     H51030   3.988  11.480   8.473 -0.7082 -0.7002  2.0037
  379MOL0     O51031   4.272   4.963   4.651 -0.2984  0.3122  0.3697
  379MOL0     C51032   4.262   5.078   4.603 -0.0823 -0.2539 -0.4177
  379MOL0     O51033   4.173   5.172   4.652 -0.1026 -0.6358  0.0019
  379MOL0     C51034   4.082   5.155   4.755 -0.1380 -0.2263 -0.5723
  379MOL0     C51035   4.095   5.063   4.863 -1.5533 -0.2942 -0.0464
  379MOL0     C51036   4.023   5.089   4.979 -0.2086 -0.2949 -0.1040
  379MOL0     C51037   3.939   5.203   4.992 -0.5349 -0.1657 -0.2512
  379MOL0     O51038   3.867   5.229   5.106 -0.0535 -0.0554 -0.6991
  379MOL0     C51039   3.726   5.220   5.078 -0.4799  0.2573  0.8351
  379MOL0     C51040   3.658   5.193   5.201 -0.4893 -0.2728 -1.1762
  379MOL0     C51041   3.708   5.066   5.289  0.1271 -0.2004  0.7898
  379MOL0     C51042   3.613   4.952   5.275 -0.1101 -0.4113 -0.6319
  379MOL0     C51043   3.635   4.828   5.368  0.0806 -0.4227 -0.2910
  379MOL0     C51044   3.773   4.775   5.360  0.0015  1.0785  0.0635
  379MOL0     C51045   3.796   4.647   5.441  0.1869  0.4199  0.9011
  379MOL0     C51046   3.948   4.601   5.446 -0.4009 -0.0736 -0.5979
  379MOL0     N51047   4.045   4.694   5.505 -0.2799  0.2092  0.3805
  379MOL0     C51048   4.180   4.662   5.511  0.2876  0.3705 -0.4497
  379MOL0     C51049   4.234   4.735   5.613 -1.0050  0.1169 -0.8474
  379MOL0     C51050   4.387   4.751   5.652  0.9802  0.7971  0.3322
  379MOL0     C51051   4.442   4.886   5.620  0.0477 -0.2484 -0.5808
  379MOL0     C51052   4.482   4.890   5.466  0.3056 -0.3573  0.6156
  379MOL0     C51053   4.554   5.015   5.441 -0.0613  0.5130  0.0133
  379MOL0     O51054   4.686   4.994   5.474 -0.0853 -0.0082 -0.2485
  379MOL0     C51055   4.771   5.069   5.394 -0.7155  0.2128  0.2593
  379MOL0     C51056   4.898   5.013   5.366  0.6232 -0.0072  0.5412
  379MOL0     C51057   4.985   5.069   5.277  0.0522  0.2797 -0.6984
  379MOL0     C51058   5.122   5.002   5.265  1.5158  0.6965  0.5267
  379MOL0     C51059   4.952   5.189   5.211  1.1127  0.4168 -0.2706
  379MOL0     C51060   5.034   5.257   5.115 -0.2507 -0.0714 -0.1497
  379MOL0     O51061   5.004   5.391   5.080 -0.3900  0.0254  0.0237
  379MOL0     C51062   5.086   5.468   4.996  0.1750  1.2477 -0.1383
  379MOL0     C51063   5.111   5.603   5.023 -0.2034  0.1269  0.0453
  379MOL0     C51064   5.182   5.687   4.939  0.8253  0.3528 -0.2865
  379MOL0     C51065   5.233   5.631   4.822  0.1351  1.5903 -0.3555
  379MOL0     O51066   5.296   5.705   4.723  0.2562 -0.7231  0.1395
  379MOL0     C51067   5.430   5.678   4.694  0.4495  0.1431 -0.2999
  379MOL0     C51068   5.536   5.748   4.786 -0.5340  0.1760 -0.4516
  379MOL0     C51069   5.673   5.757   4.713 -0.5225  0.4897  0.0635
  379MOL0     C51070   5.723   5.625   4.649 -0.0432 -0.8079 -0.4695
  379MOL0     C51071   5.758   5.532   4.758  0.3198  0.4983  0.2820
  379MOL0     C51072   5.845   5.418   4.714  0.4719  0.5547 -0.0165
  379MOL0     C51073   5.846   5.318   4.824 -0.1313  0.5267 -0.2410
  379MOL0     C51074   5.916   5.186   4.786 -1.0393  0.2909  0.1451
  379MOL0    Cl51075   5.812   5.044   4.830 -0.1738  0.0211 -0.0615
  379MOL0     C51076   5.209   5.502   4.793 -1.1542 -0.1602 -0.1386
  379MOL0     C51077   5.131   5.420   4.868 -0.7199  0.7755  0.0946
  379MOL0     O51078   5.122   5.187   5.059  0.5091  0.1524 -0.1777
  379MOL0     C51079   4.833   5.250   5.242  0.1880 -0.6082 -0.5098
  379MOL0     C51080   4.744   5.194   5.327  0.8924 -0.3123 -0.0498
  379MOL0     N51081   4.130   4.822   5.645 -0.5065 -0.1768  0.8631
  379MOL0     N51082   4.017   4.796   5.587  0.2001  0.0187 -0.6970
  379MOL0     C51083   3.914   5.279   4.884  0.1258 -0.2544  0.1526
  379MOL0     C51084   3.992   5.262   4.766  0.6095 -0.8587 -0.2380
  379MOL0     C51085   4.326   5.108   4.481 -0.9379  0.6911  0.4079
  379MOL0     C51086   4.404   5.224   4.468  0.2392 -0.2897  0.7604
  379MOL0     C51087   4.452   5.255   4.338 -0.8406  0.0770 -0.5262
  379MOL0     C51088   4.425   5.174   4.234  0.0106 -0.0212  0.4745
  379MOL0     O51089   4.465   5.190   4.104 -0.2593  0.8036  0.0612
  379MOL0     C51090   4.494   5.320   4.067  0.6131 -0.3582 -0.2861
  379MOL0     C51091   4.568   5.317   3.932  0.2874  0.2567  0.1184
  379MOL0     C51092   4.471   5.270   3.819  1.6326  0.5879 -0.5221
  379MOL0     C51093   4.526   5.213   3.693  0.5251  0.1620 -0.0638
  379MOL0     C51094   4.587   5.309   3.597  1.2746  0.7862 -0.7892
  379MOL0     C51095   4.628   5.380   3.511 -0.9024 -0.3374 -0.3276
  379MOL0     C51096   4.372   5.052   4.249  0.4628 -0.4590  0.0483
  379MOL0     C51097   4.314   5.018   4.368  0.3764  0.2112  0.0444
  379MOL0     H51098   4.145   4.968   4.851 -2.2813 -0.4096 -2.6144
  379MOL0     H51099   4.032   5.016   5.059  2.1189 -0.9832 -0.8986
  379MOL0     H51100   3.694   5.317   5.039 -0.5598 -1.3353 -3.6304
  379MOL0     H51101   3.711   5.132   5.014  1.6676 -0.7309  1.5697
  379MOL0     H51102   3.666   5.284   5.263  1.7901 -1.1596 -0.0805
  379MOL0     H51103   3.556   5.164   5.176  0.3225 -3.2465 -1.3146
  379MOL0     H51104   3.809   5.039   5.259 -0.4043 -0.7957 -0.5597
  379MOL0     H51105   3.710   5.103   5.392 -1.1411  2.0769  0.0856
  379MOL0     H51106   3.510   4.988   5.291 -0.6249 -2.6022  1.6372
  379MOL0     H51107   3.631   4.907   5.177  4.2524  0.0575 -0.2056
  379MOL0     H51108   3.606   4.849   5.471 -1.5016 -1.6990 -0.4496
  379MOL0     H51109   3.571   4.747   5.331  1.2501 -0.8883 -1.3817
  379MOL0     H51110   3.797   4.755   5.256 -0.6179  0.9770 -0.0627
  379MOL0     H51111   3.845   4.854   5.385 -0.2175  2.0915 -2.2626
  379MOL0     H51112   3.763   4.664   5.545 -1.0309 -1.5026  0.8805
  379MOL0     H51113   3.733   4.570   5.396  0.7116  1.4057 -1.6986
  379MOL0     H51114   3.976   4.568   5.346 -2.3328  0.5855 -1.4142
  379MOL0     H51115   3.960   4.511   5.507 -1.0419 -1.0955 -1.9246
  379MOL0     H51116   4.241   4.588   5.461 -0.0920  0.9070 -1.7557
  379MOL0     H51117   4.394   4.713   5.754 -4.3032 -1.8809  0.0413
  379MOL0     H51118   4.434   4.675   5.589 -0.3203  0.4304 -0.2313
  379MOL0     H51119   4.525   4.912   5.687  0.7091  0.9699 -1.8248
  379MOL0     H51120   4.369   4.965   5.638 -1.0641 -1.6482  1.5032
  379MOL0     H51121   4.390   4.900   5.407 -0.2415  0.2051  1.5331
  379MOL0     H51122   4.540   4.804   5.430  0.8960  0.7671 -1.2654
  379MOL0     H51123   4.513   5.103   5.491 -1.7816 -0.7739  1.0092
  379MOL0     H51124   4.540   5.020   5.333  0.3454  1.1891 -0.0107
  379MOL0     H51125   4.907   4.917   5.415  0.1697 -1.5760 -2.2022
  379MOL0     H51126   5.209   5.065   5.246  2.0609  0.2423  1.4167
  379MOL0     H51127   5.147   4.953   5.360  0.9382 -2.2155 -0.7016
  379MOL0     H51128   5.104   4.923   5.192 -0.2185  2.0308 -0.5714
  379MOL0     H51129   5.070   5.633   5.119 -0.6057 -0.1211 -0.0484
  379MOL0     H51130   5.182   5.794   4.958  0.4000  0.1231  1.0554
  379MOL0     H51131   5.450   5.571   4.706  0.2797  0.1037 -0.3768
  379MOL0     H51132   5.452   5.704   4.590  1.5699 -0.6229 -0.2854
  379MOL0     H51133   5.505   5.851   4.805 -2.6415 -0.8733  2.6521
  379MOL0     H51134   5.541   5.703   4.885 -1.4246 -1.9115 -1.2945
  379MOL0     H51135   5.752   5.798   4.777  0.0857 -3.6470  2.2874
  379MOL0     H51136   5.665   5.833   4.635  0.8814 -0.9149 -1.5140
  379MOL0     H51137   5.654   5.589   4.572  1.6995  1.0457 -3.0836
  379MOL0     H51138   5.817   5.635   4.593  1.7867  0.0288  2.5632
  379MOL0     H51139   5.666   5.483   4.792  2.2267 -2.8054  1.1641
  379MOL0     H51140   5.812   5.581   4.840  1.6335 -0.4191 -0.0078
  379MOL0     H51141   5.802   5.373   4.624  0.8891  1.3808 -0.6383
  379MOL0     H51142   5.945   5.454   4.688  1.1909 -1.3639 -0.0433
  379MOL0     H51143   5.745   5.289   4.854  0.4930 -1.0371  0.4191
  379MOL0     H51144   5.899   5.356   4.913 -0.0844  1.5903 -0.7027
  379MOL0     H51145   6.010   5.176   4.841  0.4365 -2.7734 -2.6114
  379MOL0     H51146   5.964   5.177   4.688  0.2897 -2.3435  0.9740
  379MOL0     H51147   5.251   5.453   4.706  2.3606  1.4490  0.4850
  379MOL0     H51148   5.110   5.319   4.836  1.0597  0.3024  0.3521
  379MOL0     H51149   4.795   5.341   5.195 -0.9771 -1.3938 -1.1353
  379MOL0     H51150   4.646   5.238   5.341  0.0235 -1.2883 -2.6451
  379MOL0     H51151   3.846   5.364   4.884  0.2379 -0.1571 -0.7406
  379MOL0     H51152   4.010   5.356   4.714  2.1085 -0.5652  0.7176
  379MOL0     H51153   4.412   5.293   4.551 -2.4070  3.1135 -1.4989
  379MOL0     H51154   4.500   5.351   4.325 -1.3263  0.0135 -3.4718
  379MOL0     H51155   4.404   5.383   4.069  0.8912  0.0292  1.0090
  379MOL0     H51156   4.556   5.368   4.144  0.4745 -0.7985  0.1043
  379MOL0     H51157   4.664   5.265   3.939  0.4764  0.5420 -0.3462
  379MOL0     H51158   4.589   5.422   3.907 -3.1470  0.6733 -1.6792
  379MOL0     H51159   4.407   5.353   3.789 -1.5962 -1.9129 -1.0826
  379MOL0     H51160   4.412   5.186   3.857 -0.0355  1.3116 -1.4068
  379MOL0     H51161   4.440   5.168   3.643  0.0646 -0.8210  1.5498
  379MOL0     H51162   4.604   5.138   3.710 -1.7417 -2.3509 -0.1317
  379MOL0     H51163   4.645   5.448   3.430 -2.1617  0.0215 -0.3172
  379MOL0     H51164   4.336   4.994   4.165  2.5552 -1.4240 -0.2381
  379MOL0     H51165   4.245   4.935   4.370 -1.1039  1.4151  1.7399
  380MOL0     O51166  11.324   9.507   9.556  0.1634 -0.0824  0.3442
  380MOL0     C51167  11.388   9.464   9.653 -0.0228 -0.2833  0.4760
  380MOL0     O51168  11.514   9.506   9.677  0.5561  0.6189 -0.1018
  380MOL0     C51169  11.576   9.620   9.618  0.5592  0.0124  0.3064
  380MOL0     C51170  11.657   9.691   9.710  0.7545  0.1612  0.0994
  380MOL0     C51171  11.709   9.811   9.668  0.5092 -0.3440 -0.2076
  380MOL0     C51172  11.695   9.863   9.534  1.2053 -0.2092  0.5527
  380MOL0     O51173  11.766   9.976   9.500 -1.0319  0.3198 -0.0504
  380MOL0     C51174  11.797   9.988   9.358  0.2737  0.6576 -0.3804
  380MOL0     C51175  11.894  10.109   9.336  0.1896  0.0509  0.1089
  380MOL0     C51176  11.866  10.183   9.202 -0.4832  0.4538 -0.0089
  380MOL0     C51177  11.970  10.290   9.172  0.1287 -0.1327 -1.0294
  380MOL0     C51178  11.937  10.383   9.058 -0.3740  1.0611 -0.5377
  380MOL0     C51179  11.993  10.518   9.096  0.3357 -0.0039 -0.6027
  380MOL0     C51180  11.994  10.620   8.977  0.8275  0.2558  0.5363
  380MOL0     C51181  12.068  10.569   8.856  0.2258 -0.1784  0.1686
  380MOL0     N51182  12.073  10.669   8.741  0.2490  0.6565  0.3820
  380MOL0     C51183  12.109  10.801   8.739 -0.8232  0.6179  0.0390
  380MOL0     C51184  12.079  10.851   8.611  0.1123 -0.5237  0.5791
  380MOL0     C51185  12.104  10.991   8.563  0.5956 -1.1412  0.0279
  380MOL0     C51186  12.183  11.002   8.430  0.4840  0.3273 -0.9240
  380MOL0     C51187  12.084  10.991   8.317 -0.2016 -0.3185  0.8698
  380MOL0     C51188  12.147  11.025   8.182  0.5501  0.3351 -0.1001
  380MOL0     O51189  12.206  11.157   8.177  0.3664  0.1419 -0.1401
  380MOL0     C51190  12.298  11.185   8.073  0.2258 -0.0826  0.2514
  380MOL0     C51191  12.332  11.097   7.965 -0.2080  0.8355 -0.5732
  380MOL0     C51192  12.432  11.118   7.877  0.5462  0.4154  0.1598
  380MOL0     C51193  12.473  10.998   7.791  0.3068 -0.3834 -0.5029
  380MOL0     C51194  12.484  11.248   7.868 -0.8555  0.1544 -0.2962
  380MOL0     C51195  12.593  11.287   7.775  0.0416  0.4380  0.0715
  380MOL0     O51196  12.679  11.389   7.818 -0.2181  0.2638  0.5047
  380MOL0     C51197  12.760  11.449   7.726 -0.2427 -1.0511  0.0634
  380MOL0     C51198  12.827  11.556   7.790  0.6438 -0.8143  0.3875
  380MOL0     C51199  12.920  11.641   7.717 -0.0645  1.1383 -0.7109
  380MOL0     C51200  12.960  11.612   7.589  1.2694  0.7269 -0.5299
  380MOL0     O51201  13.065  11.678   7.536  0.6673 -0.0989 -0.1782
  380MOL0     C51202  13.136  11.612   7.434  0.9432 -0.7904 -0.4304
  380MOL0     C51203  13.256  11.700   7.387 -0.8322  0.2266 -1.2459
  380MOL0     C51204  13.330  11.642   7.268  0.5729  0.7579  0.1184
  380MOL0     C51205  13.245  11.623   7.149  0.2006 -0.2395 -0.1130
  380MOL0     C51206  13.334  11.587   7.017  0.1850  0.5007 -0.2960
  380MOL0     C51207  13.251  11.539   6.903  0.3168 -0.1334  0.3874
  380MOL0     C51208  13.349  11.511   6.788  0.3245  0.4251 -0.9760
  380MOL0     C51209  13.280  11.458   6.670  0.2272 -0.3689  0.1401
  380MOL0    Cl51210  13.398  11.424   6.548 -0.4731  0.0480  0.3598
  380MOL0     C51211  12.897  11.501   7.526  0.1176  0.6114 -0.0176
  380MOL0     C51212  12.804  11.419   7.595  0.2568  0.5553  0.1249
  380MOL0     O51213  12.591  11.231   7.665 -1.0097  0.1068 -0.5259
  380MOL0     C51214  12.447  11.354   7.962 -0.6816 -0.1960  0.8445
  380MOL0     C51215  12.351  11.315   8.063  0.0314 -0.3181  0.1380
  380MOL0     N51216  12.027  10.749   8.539  0.2573 -0.1648 -0.5068
  380MOL0     N51217  12.020  10.642   8.616  1.1352  0.2215  0.0199
  380MOL0     C51218  11.615   9.790   9.442 -0.0555  0.5371 -0.9616
  380MOL0     C51219  11.547   9.673   9.486  0.5897 -0.3300 -0.6263
  380MOL0     C51220  11.331   9.354   9.732  0.6142  0.0634 -0.3148
  380MOL0     C51221  11.404   9.281   9.815 -0.3097  0.2985 -0.1473
  380MOL0     C51222  11.339   9.179   9.887  0.4546 -0.4175  0.2554
  380MOL0     C51223  11.201   9.149   9.891 -0.6633  0.4088  0.9086
  380MOL0     O51224  11.154   9.060   9.976 -0.0271 -0.4957 -0.8381
  380MOL0     C51225  11.007   9.044   9.962  0.4089  0.8329 -0.2959
  380MOL0     C51226  10.961   8.935  10.046 -0.2143 -0.4504 -0.1306
  380MOL0     C51227  10.817   8.888  10.011  0.4104  0.8693  0.4677
  380MOL0     C51228  10.714   9.000  10.016  0.3416 -0.5865 -0.2087
  380MOL0     C51229  10.695   9.040  10.157 -0.9768 -0.4525 -0.5323
  380MOL0     C51230  10.678   9.072  10.273 -0.4390 -0.8107 -1.2885
  380MOL0     C51231  11.126   9.228   9.800 -0.0162 -0.0452 -1.3990
  380MOL0     C51232  11.186   9.323   9.724 -0.9404  0.4679  0.9245
  380MOL0     H51233  11.686   9.661   9.810  3.3437  0.2045 -0.5627
  380MOL0     H51234  11.774   9.871   9.731  1.4511 -0.8263 -0.7001
  380MOL0     H51235  11.851   9.902   9.317  2.0795  2.0312 -1.0336
  380MOL0     H51236  11.704   9.992   9.302  0.1570 -1.7219 -0.4924
  380MOL0     H51237  11.890  10.171   9.425  2.4320 -2.7498  2.3765
  380MOL0     H51238  11.997  10.076   9.348  0.0027 -2.1869 -3.0778
  380MOL0     H51239  11.879  10.114   9.118 -1.4814  0.0816  0.1257
  380MOL0     H51240  11.763  10.220   9.205 -0.9915 -0.9707  1.7675
  380MOL0     H51241  11.972  10.350   9.263 -0.2489 -0.4257 -0.8240
  380MOL0     H51242  12.062  10.234   9.154  1.2169  0.9998  0.7799
  380MOL0     H51243  11.980  10.327   8.974 -3.0951 -0.3663 -1.0823
  380MOL0     H51244  11.831  10.403   9.041 -0.4945 -0.7170 -2.3102
  380MOL0     H51245  11.931  10.557   9.177 -0.0527 -3.9228  1.2366
  380MOL0     H51246  12.096  10.512   9.133  0.4890 -0.5172 -1.0954
  380MOL0     H51247  11.890  10.648   8.959  1.1519  0.3246 -1.4336
  380MOL0     H51248  12.042  10.714   9.007  0.3312  0.2976  1.2329
  380MOL0     H51249  12.010  10.487   8.813  0.5717 -1.0254  1.2632
  380MOL0     H51250  12.173  10.544   8.876  0.7320  1.6239 -0.0486
  380MOL0     H51251  12.149  10.856   8.824 -1.4520 -1.8632  2.0699
  380MOL0     H51252  12.009  11.044   8.553  1.5248  0.5782 -0.1684
  380MOL0     H51253  12.163  11.038   8.642 -1.2280  0.8485  0.3072
  380MOL0     H51254  12.265  10.930   8.435  1.1899  1.1765  2.4271
  380MOL0     H51255  12.230  11.100   8.416  1.9099 -0.4068 -1.4662
  380MOL0     H51256  12.009  11.069   8.332  1.3895  0.9663  2.5699
  380MOL0     H51257  12.028  10.896   8.312 -1.2453  0.3332 -0.7360
  380MOL0     H51258  12.071  11.015   8.104 -3.6217  0.8852  3.5154
  380MOL0     H51259  12.217  10.943   8.163  0.6167 -0.3229  2.6228
  380MOL0     H51260  12.292  10.996   7.966 -1.6994  1.3773 -1.8282
  380MOL0     H51261  12.451  11.010   7.685  2.1975  3.4240 -0.6451
  380MOL0     H51262  12.580  10.984   7.811 -0.1234  0.2111  2.9844
  380MOL0     H51263  12.415  10.910   7.820 -0.7957  0.1725 -0.9312
  380MOL0     H51264  12.807  11.586   7.892  0.4329  0.2297  0.0548
  380MOL0     H51265  12.979  11.717   7.767 -1.5583  2.3798 -0.7582
  380MOL0     H51266  13.171  11.516   7.472  3.5599  0.4793  0.6866
  380MOL0     H51267  13.073  11.601   7.346  0.0297 -1.6373  0.3099
  380MOL0     H51268  13.214  11.796   7.354  1.3285  1.7104  0.0532
  380MOL0     H51269  13.323  11.736   7.466  0.3670 -0.6069 -1.8535
  380MOL0     H51270  13.367  11.547   7.308 -1.1533  1.4591  3.8204
  380MOL0     H51271  13.413  11.704   7.233  1.1098  1.7434  2.8658
  380MOL0     H51272  13.181  11.538   7.174  1.7868 -1.5762 -0.3635
  380MOL0     H51273  13.177  11.706   7.131  0.6507 -0.0322 -0.9103
  380MOL0     H51274  13.398  11.505   7.050 -0.9145 -0.0524  0.5586
  380MOL0     H51275  13.402  11.669   6.994  0.6391 -0.1660 -1.4048
  380MOL0     H51276  13.201  11.447   6.936 -0.0100 -0.1079 -0.0212
  380MOL0     H51277  13.184  11.623   6.879  0.2878 -0.2229  0.1462
  380MOL0     H51278  13.425  11.437   6.813  0.0814 -0.7333 -3.4168
  380MOL0     H51279  13.392  11.604   6.748 -2.1104  1.2801 -1.8171
  380MOL0     H51280  13.212  11.535   6.633  1.1634 -1.1469 -3.6390
  380MOL0     H51281  13.228  11.364   6.692 -1.7831  0.1985 -1.7951
  380MOL0     H51282  12.924  11.493   7.421 -0.6345  1.7324 -0.3164
  380MOL0     H51283  12.768  11.334   7.538  1.4519 -1.5638  2.3332
  380MOL0     H51284  12.483  11.456   7.952 -0.2043 -0.5822 -4.3948
  380MOL0     H51285  12.342  11.390   8.141  2.2256  0.6087 -0.4149
  380MOL0     H51286  11.597   9.816   9.338 -0.9196  3.2416 -0.2141
  380MOL0     H51287  11.485   9.625   9.410 -3.1443 -0.4820  2.2582
  380MOL0     H51288  11.510   9.303   9.820 -0.2025  1.1443 -3.5272
  380MOL0     H51289  11.394   9.113   9.953  0.6459  0.8959  1.4512
  380MOL0     H51290  10.951   9.134   9.992 -0.5769 -0.3858  1.7339
  380MOL0     H51291  10.981   9.017   9.860  0.8869  2.3299 -0.8453
  380MOL0     H51292  10.969   8.966  10.151 -0.1826 -1.3702  0.1514
  380MOL0     H51293  11.034   8.854  10.051  1.2548  0.8665  0.5208
  380MOL0     H51294  10.802   8.807  10.083  0.5251  0.2701 -0.1743
  380MOL0     H51295  10.817   8.847   9.910 -1.8018  0.1521  0.6966
  380MOL0     H51296  10.626   8.960   9.965  1.8114 -2.7830 -1.1746
  380MOL0     H51297  10.734   9.080   9.944  1.2807 -0.1214  0.5312
  380MOL0     H51298  10.680   9.128  10.364  1.4153 -1.4811 -0.8785
  380MOL0     H51299  11.019   9.210   9.793 -0.5880  2.3985 -0.3025
  380MOL0     H51300  11.122   9.370   9.650 -0.5457 -1.1615 -0.5337
  381MOL0     O51301   3.884   9.524   0.369 -0.3839  0.7408 -0.2947
  381MOL0     C51302   3.960   9.614   0.393  0.3594 -0.3381 -0.4799
  381MOL0     O51303   3.938   9.747   0.376  0.5976  0.5292  0.1489
  381MOL0     C51304   3.812   9.811   0.367 -0.8595  0.9660  0.6294
  381MOL0     C51305   3.821   9.943   0.315 -0.0307  0.7711  0.5214
  381MOL0     C51306   3.703  10.009   0.307  0.5373 -0.6503  0.1538
  381MOL0     C51307   3.577   9.969   0.360 -0.6209  0.5278  0.5011
  381MOL0     O51308   3.461  10.041   0.347 -0.0241  1.1290 -0.7715
  381MOL0     C51309   3.327   9.978   0.355 -0.4345 -0.1575 -0.0060
  381MOL0     C51310   3.218  10.082   0.327  0.2868  0.5211  0.1906
  381MOL0     C51311   3.074  10.028   0.324 -0.2289 -0.0938  0.2605
  381MOL0     C51312   2.973  10.131   0.316 -0.5343 -0.6724 -0.6228
  381MOL0     C51313   2.832  10.096   0.311 -0.4093  0.8754 -0.2485
  381MOL0     C51314   2.744  10.223   0.304  0.0220 -0.2102 -0.0021
  381MOL0     C51315   2.591  10.196   0.292 -0.1266  0.4565  0.4492
  381MOL0     C51316   2.530  10.158   0.429  0.1414  0.2785 -0.8889
  381MOL0     N51317   2.391  10.122   0.419 -1.1050  0.1043  0.5023
  381MOL0     C51318   2.286  10.204   0.431  0.2537  0.1851  0.0536
  381MOL0     C51319   2.177  10.123   0.422  0.2253  0.6223  0.0984
  381MOL0     C51320   2.042  10.168   0.389 -0.0805  0.5685 -0.3027
  381MOL0     C51321   1.986  10.235   0.517 -0.1511  0.3285  0.1757
  381MOL0     C51322   1.996  10.390   0.531 -0.1460  0.7029  0.8315
  381MOL0     C51323   1.891  10.466   0.610 -1.4545  0.2700 -0.2067
  381MOL0     O51324   1.757  10.410   0.593  0.9293 -0.1171 -0.7888
  381MOL0     C51325   1.660  10.469   0.671  0.0810  0.6360 -0.1801
  381MOL0     C51326   1.547  10.389   0.693 -0.5497  0.5526 -0.0717
  381MOL0     C51327   1.426  10.426   0.753  0.4219 -0.0801  0.9151
  381MOL0     C51328   1.315  10.323   0.771 -0.5899 -0.6197  0.0748
  381MOL0     C51329   1.417  10.555   0.814  0.1308  0.5393  0.0147
  381MOL0     C51330   1.296  10.603   0.888 -0.2950 -0.6967 -0.1997
  381MOL0     O51331   1.170  10.573   0.844 -0.1174  0.4067  0.0658
  381MOL0     C51332   1.069  10.657   0.879 -0.0701 -0.9976  0.0657
  381MOL0     C51333   0.939  10.615   0.906  0.3230 -0.6401 -0.6900
  381MOL0     C51334   0.837  10.709   0.914 -0.2449  0.0008  0.3951
  381MOL0     C51335   0.850  10.841   0.877 -0.4040 -0.4582 -0.5085
  381MOL0     O51336   0.739  10.922   0.876 -0.1150  0.5341  0.0346
  381MOL0     C51337   0.745  11.047   0.806 -0.2830 -0.0753  0.3529
  381MOL0     C51338   0.606  11.104   0.785  0.4646  0.9200 -0.0387
  381MOL0     C51339   0.611  11.255   0.750  0.0013  0.7549  0.8441
  381MOL0     C51340   0.479  11.296   0.688  0.3487  0.2092  0.2689
  381MOL0     C51341   0.484  11.441   0.673 -1.1556 -0.7134 -0.4937
  381MOL0     C51342   0.361  11.500   0.608 -0.5233 -1.1031  0.3440
  381MOL0     C51343   0.400  11.650   0.568  0.9620  0.4697 -0.6795
  381MOL0     C51344   0.278  11.733   0.546  0.1260 -0.6410  0.2840
  381MOL0    Cl51345   0.362  11.888   0.489  0.7132 -0.0383 -0.0964
  381MOL0     C51346   0.981  10.886   0.842  0.3947  0.8118 -0.7269
  381MOL0     C51347   1.087  10.792   0.842  0.4828  0.2500 -0.5332
  381MOL0     O51348   1.327  10.677   0.982  0.1053 -0.4212 -0.7253
  381MOL0     C51349   1.536  10.634   0.801  0.3595  0.3797 -0.2092
  381MOL0     C51350   1.649  10.596   0.730  0.5352 -0.0508  0.2620
  381MOL0     N51351   2.217   9.989   0.419 -0.3056 -0.0364  0.2183
  381MOL0     N51352   2.348   9.992   0.415 -0.4921  0.2684  0.7628
  381MOL0     C51353   3.580   9.839   0.415  0.1894  0.6221 -0.0327
  381MOL0     C51354   3.694   9.755   0.408  0.3188 -0.2192 -0.3034
  381MOL0     C51355   4.093   9.583   0.451 -0.1585 -0.5474 -0.7728
  381MOL0     C51356   4.186   9.688   0.458 -0.5224 -0.4981 -0.4753
  381MOL0     C51357   4.314   9.655   0.507 -0.3245 -0.3338 -0.4171
  381MOL0     C51358   4.357   9.524   0.538 -0.1253  0.3967 -0.5645
  381MOL0     O51359   4.486   9.500   0.567 -0.0413 -0.0046 -0.3274
  381MOL0     C51360   4.536   9.545   0.697 -0.1026  0.4582 -0.0190
  381MOL0     C51361   4.639   9.652   0.667  0.3003  0.6713 -0.5129
  381MOL0     C51362   4.699   9.707   0.799 -0.9165 -0.9689  0.5366
  381MOL0     C51363   4.854   9.713   0.790  0.7701  0.5605  0.3153
  381MOL0     C51364   4.903   9.747   0.919 -0.6762 -0.1658  0.7553
  381MOL0     C51365   4.946   9.780   1.030 -0.1023 -0.0029  0.0918
  381MOL0     C51366   4.263   9.421   0.519 -0.9496  0.2850  0.2405
  381MOL0     C51367   4.131   9.452   0.481  0.2150  0.3773  0.0359
  381MOL0     H51368   3.917   9.992   0.308  0.1285  0.4796  0.6149
  381MOL0     H51369   3.719  10.116   0.292 -0.0469 -0.5090  0.5124
  381MOL0     H51370   3.332   9.896   0.283 -0.2344 -1.7500  1.7406
  381MOL0     H51371   3.317   9.936   0.455 -2.6887 -1.5742 -0.7589
  381MOL0     H51372   3.226  10.170   0.391 -0.0552  1.2956 -0.8111
  381MOL0     H51373   3.245  10.118   0.227 -0.3055 -0.8534 -0.4940
  381MOL0     H51374   3.072   9.954   0.243  1.4929 -0.5637  0.5854
  381MOL0     H51375   3.058   9.969   0.415 -0.6888 -0.0096  0.2344
  381MOL0     H51376   2.988  10.185   0.410 -2.0493  0.7008 -1.1178
  381MOL0     H51377   2.984  10.194   0.227  0.2892  0.3460  0.1674
  381MOL0     H51378   2.808  10.034   0.224 -2.0131 -1.0882  1.4993
  381MOL0     H51379   2.816  10.041   0.404  0.9915 -0.0217 -0.5023
  381MOL0     H51380   2.770  10.274   0.397 -0.0086  1.3024 -0.7862
  381MOL0     H51381   2.780  10.279   0.218  0.2991 -1.6686 -0.8729
  381MOL0     H51382   2.544  10.289   0.260 -1.0434 -0.6592 -1.6392
  381MOL0     H51383   2.578  10.126   0.209  2.7472  0.0329  0.2290
  381MOL0     H51384   2.531  10.243   0.498  0.0350 -1.1004  0.8747
  381MOL0     H51385   2.590  10.083   0.482  0.8621  2.0507  0.9375
  381MOL0     H51386   2.279  10.312   0.427 -1.2830  0.3641  3.8019
  381MOL0     H51387   2.044  10.244   0.310  0.1515  0.1208 -0.7314
  381MOL0     H51388   1.984  10.079   0.363  0.7964 -0.1663  0.2065
  381MOL0     H51389   2.018  10.170   0.599 -1.1053 -0.7206 -0.2541
  381MOL0     H51390   1.879  10.214   0.507 -0.9370  4.0810 -0.7340
  381MOL0     H51391   1.976  10.436   0.434  0.0148 -1.8923 -0.5053
  381MOL0     H51392   2.092  10.414   0.578  0.4138 -0.6411  0.4071
  381MOL0     H51393   1.896  10.566   0.565  3.6453  1.1752  1.7220
  381MOL0     H51394   1.924  10.470   0.714 -2.7719 -0.4305  0.2698
  381MOL0     H51395   1.562  10.294   0.644  4.9659  1.8402 -1.4948
  381MOL0     H51396   1.346  10.227   0.812 -0.3495  0.2226  1.9956
  381MOL0     H51397   1.224  10.355   0.823 -0.5907 -0.3720 -0.0726
  381MOL0     H51398   1.276  10.283   0.677  2.2139 -1.9319 -0.6275
  381MOL0     H51399   0.911  10.513   0.932  2.2071 -0.1894  4.4124
  381MOL0     H51400   0.738  10.689   0.953 -1.2300  1.3499 -1.2847
  381MOL0     H51401   0.818  11.108   0.860  0.3605 -0.2942 -0.2446
  381MOL0     H51402   0.783  11.022   0.706  1.2053 -2.6636  1.4579
  381MOL0     H51403   0.563  11.048   0.702  0.1106 -1.0847  1.4203
  381MOL0     H51404   0.537  11.091   0.870 -2.0446 -0.0233 -2.1012
  381MOL0     H51405   0.693  11.269   0.679 -2.3861 -1.6666 -2.7607
  381MOL0     H51406   0.625  11.300   0.848  3.1632  0.6749  0.5015
  381MOL0     H51407   0.468  11.253   0.588  3.3158  0.9124 -0.4854
  381MOL0     H51408   0.393  11.268   0.749 -0.6463  1.9947 -0.2292
  381MOL0     H51409   0.578  11.446   0.617  0.5246 -1.2519  2.0908
  381MOL0     H51410   0.503  11.493   0.768 -0.2263 -0.4578 -0.8076
  381MOL0     H51411   0.337  11.436   0.522 -1.6518 -2.1577  1.4054
  381MOL0     H51412   0.268  11.489   0.664 -0.4440  0.9573  0.9346
  381MOL0     H51413   0.466  11.648   0.480 -1.0204  2.8407 -2.3340
  381MOL0     H51414   0.447  11.694   0.656  1.3008  0.8215 -1.0301
  381MOL0     H51415   0.227  11.758   0.640 -2.5696  0.6044 -1.3928
  381MOL0     H51416   0.208  11.691   0.474 -1.2495 -3.1120  2.8507
  381MOL0     H51417   1.002  10.991   0.827 -1.7582  1.5632  0.9780
  381MOL0     H51418   1.181  10.839   0.817  0.0776  0.8859 -0.8625
  381MOL0     H51419   1.542  10.738   0.833  0.6543  0.9457 -2.0147
  381MOL0     H51420   1.723  10.673   0.716  0.7512 -0.6735 -2.6574
  381MOL0     H51421   3.489   9.802   0.461 -0.7958  2.2136 -0.6301
  381MOL0     H51422   3.693   9.662   0.464 -0.3393  0.3007  0.5752
  381MOL0     H51423   4.169   9.794   0.448  0.1283  0.1459  3.3915
  381MOL0     H51424   4.392   9.731   0.513 -0.2861 -0.4783  1.6586
  381MOL0     H51425   4.456   9.576   0.764  1.4494  0.2289  2.0467
  381MOL0     H51426   4.586   9.457   0.740 -1.5833 -1.1157 -1.3485
  381MOL0     H51427   4.587   9.731   0.613  0.7937  1.3782  0.0303
  381MOL0     H51428   4.712   9.604   0.601 -1.8522 -0.2446 -2.3855
  381MOL0     H51429   4.668   9.640   0.879 -0.6902 -0.4648  1.0494
  381MOL0     H51430   4.657   9.800   0.838 -1.1666 -0.4505 -0.9042
  381MOL0     H51431   4.867   9.783   0.706 -3.8562 -0.1872 -1.3070
  381MOL0     H51432   4.897   9.619   0.755 -1.7456 -0.6047  0.1308
  381MOL0     H51433   4.978   9.837   1.115 -2.0031  2.1012 -0.4954
  381MOL0     H51434   4.289   9.317   0.535  0.6334  0.9132  2.1607
  381MOL0     H51435   4.056   9.373   0.479 -1.2932  1.7589 -0.9745
  382MOL0     O51436   8.226   2.739   7.838 -0.0381 -0.3699  0.3637
  382MOL0     C51437   8.295   2.765   7.743  0.4658  0.1657  0.0282
  382MOL0     O51438   8.427   2.726   7.741  0.0637 -0.5724  0.1339
  382MOL0     C51439   8.496   2.648   7.833  0.4103  0.1259 -0.1165
  382MOL0     C51440   8.438   2.536   7.903 -1.1533  0.0564 -0.1972
  382MOL0     C51441   8.512   2.468   7.998 -0.4296  0.0310 -0.5084
  382MOL0     C51442   8.649   2.504   8.029  0.0064 -0.3797  0.3110
  382MOL0     O51443   8.728   2.436   8.121 -0.2231  0.6001  0.3397
  382MOL0     C51444   8.663   2.364   8.230 -0.4505  1.0531  0.5098
  382MOL0     C51445   8.755   2.369   8.353  1.0851 -1.0412  0.7436
  382MOL0     C51446   8.889   2.307   8.319 -0.0852 -0.5158  0.3172
  382MOL0     C51447   8.975   2.250   8.438 -0.1297  0.3838 -0.3279
  382MOL0     C51448   9.007   2.358   8.536 -0.7463 -1.0720 -0.3196
  382MOL0     C51449   9.126   2.316   8.631 -0.3305  0.2529 -0.4318
  382MOL0     C51450   9.175   2.417   8.737  0.1207  0.2989  0.1485
  382MOL0     C51451   9.266   2.524   8.677  0.4611  0.0042  0.0055
  382MOL0     N51452   9.229   2.573   8.545 -0.2065  0.8619  0.4858
  382MOL0     C51453   9.294   2.526   8.427  0.2817  0.0890  0.0513
  382MOL0     C51454   9.264   2.627   8.346  0.0845 -0.8076  0.6939
  382MOL0     C51455   9.294   2.629   8.195 -0.3280 -0.1557 -0.7512
  382MOL0     C51456   9.301   2.498   8.119 -0.4540 -0.4439 -0.1441
  382MOL0     C51457   9.188   2.403   8.132  0.7876 -0.4722 -0.4247
  382MOL0     C51458   9.216   2.286   8.030  0.3641  0.9096 -0.1027
  382MOL0     O51459   9.145   2.176   8.094  0.1768  0.4774 -0.5275
  382MOL0     C51460   9.136   2.062   8.008 -0.2716  0.0937 -0.2548
  382MOL0     C51461   9.242   2.004   7.950  0.0790  0.2533 -0.3041
  382MOL0     C51462   9.232   1.883   7.891  0.3136 -0.4422  0.4409
  382MOL0     C51463   9.360   1.810   7.858 -0.1917  0.1058  0.2232
  382MOL0     C51464   9.104   1.829   7.862 -0.1076  1.1437 -1.0281
  382MOL0     C51465   9.092   1.714   7.773  0.4225  0.9089 -0.1649
  382MOL0     O51466   9.157   1.719   7.650  0.5179 -0.2057  0.6593
  382MOL0     C51467   9.166   1.610   7.571  0.1676  0.8106  0.8494
  382MOL0     C51468   9.113   1.609   7.442 -0.5858 -0.4312  0.7892
  382MOL0     C51469   9.133   1.504   7.355 -0.1199  0.9395  0.4559
  382MOL0     C51470   9.204   1.392   7.396  0.3002 -0.2233 -0.1689
  382MOL0     O51471   9.218   1.297   7.301 -0.4603  0.5370  0.1502
  382MOL0     C51472   9.284   1.169   7.330  0.0863 -0.3711  0.5203
  382MOL0     C51473   9.265   1.062   7.221  0.1290 -0.2100  0.4015
  382MOL0     C51474   9.347   0.944   7.239 -1.1672  0.8296 -0.3801
  382MOL0     C51475   9.328   0.838   7.124 -0.2627 -1.7295  0.0576
  382MOL0     C51476   9.433   0.721   7.136  0.1407 -0.3498 -0.3880
  382MOL0     C51477   9.575   0.743   7.091  0.2492 -0.3555 -0.0496
  382MOL0     C51478   9.598   0.771   6.938 -0.5064 -0.1559 -1.1401
  382MOL0     C51479   9.595   0.648   6.850 -0.1124 -0.2891  0.1264
  382MOL0    Cl51480   9.718   0.522   6.897  0.0103 -0.2483 -0.0801
  382MOL0     C51481   9.260   1.389   7.527  0.7492  0.2395  0.0993
  382MOL0     C51482   9.233   1.497   7.613 -1.1550 -0.3654 -0.1758
  382MOL0     O51483   9.028   1.621   7.822  0.3120  0.5983 -0.3739
  382MOL0     C51484   8.988   1.897   7.901 -0.3457 -0.5010 -0.3670
  382MOL0     C51485   9.004   2.008   7.982  0.1328  0.1046  0.0061
  382MOL0     N51486   9.184   2.728   8.407  0.4280  0.1180  0.7471
  382MOL0     N51487   9.174   2.691   8.527 -0.2837 -0.2372 -0.2446
  382MOL0     C51488   8.700   2.618   7.959 -0.4100  0.8632  0.4787
  382MOL0     C51489   8.622   2.684   7.864 -0.6332  0.7876 -0.6631
  382MOL0     C51490   8.241   2.844   7.639  0.3300  0.7837 -0.2211
  382MOL0     C51491   8.103   2.890   7.643  0.0725  0.2178  0.4256
  382MOL0     C51492   8.048   2.959   7.531  0.1122  0.6399 -0.3903
  382MOL0     C51493   8.129   2.965   7.411 -0.7017 -0.5097  0.6104
  382MOL0     O51494   8.087   2.992   7.285  1.0161  0.5997  0.0195
  382MOL0     C51495   7.958   3.069   7.268 -0.1207 -0.4005 -0.0342
  382MOL0     C51496   7.989   3.220   7.294 -0.1602  0.8960 -0.0802
  382MOL0     C51497   7.900   3.321   7.222  0.3742 -0.0266 -0.8422
  382MOL0     C51498   7.747   3.292   7.259  0.1126 -0.2757  0.3722
  382MOL0     C51499   7.707   3.338   7.396 -0.8920  0.6771 -0.1533
  382MOL0     C51500   7.682   3.366   7.512 -0.4052  0.2722 -0.5983
  382MOL0     C51501   8.256   2.919   7.412  0.8550  1.1497 -0.6081
  382MOL0     C51502   8.315   2.863   7.523 -0.0920  0.1183 -0.2930
  382MOL0     H51503   8.333   2.508   7.893 -1.8670  1.7959  1.5935
  382MOL0     H51504   8.474   2.378   8.045  2.4496 -1.8149 -1.4249
  382MOL0     H51505   8.565   2.405   8.257 -1.4581 -1.7908  1.5694
  382MOL0     H51506   8.639   2.261   8.204  1.8999  1.1932 -2.7424
  382MOL0     H51507   8.767   2.475   8.378  0.8406 -1.1793  1.4918
  382MOL0     H51508   8.704   2.322   8.438 -2.2705  1.7864  0.5439
  382MOL0     H51509   8.874   2.226   8.247 -0.5632 -0.4153  0.3025
  382MOL0     H51510   8.942   2.386   8.264 -1.8570  0.7521  0.3486
  382MOL0     H51511   8.923   2.172   8.494 -1.3312  0.5203 -1.2069
  382MOL0     H51512   9.060   2.195   8.398 -1.5129 -1.9426 -0.2664
  382MOL0     H51513   9.031   2.453   8.487 -0.6619  0.5719  2.6779
  382MOL0     H51514   8.915   2.384   8.588  1.8162 -0.9338  4.6857
  382MOL0     H51515   9.087   2.228   8.683  0.3040 -0.8893 -1.8143
  382MOL0     H51516   9.218   2.291   8.578 -0.3987 -0.2536 -0.3201
  382MOL0     H51517   9.092   2.480   8.770  1.1080  0.1118  3.4385
  382MOL0     H51518   9.216   2.372   8.828 -0.0069  1.7754  0.9663
  382MOL0     H51519   9.371   2.493   8.669 -0.0316 -1.2119 -2.5239
  382MOL0     H51520   9.262   2.615   8.738  0.0795 -1.4069  2.2220
  382MOL0     H51521   9.362   2.443   8.411 -1.5629 -1.5494  0.3244
  382MOL0     H51522   9.220   2.687   8.139 -2.4061 -2.3192 -0.3936
  382MOL0     H51523   9.394   2.669   8.173 -0.5222  0.7249 -0.1028
  382MOL0     H51524   9.390   2.440   8.140 -0.4912 -0.3224  0.3461
  382MOL0     H51525   9.299   2.524   8.012  0.8616 -0.5335 -0.2003
  382MOL0     H51526   9.093   2.456   8.115 -0.9182 -3.7443 -2.0741
  382MOL0     H51527   9.185   2.367   8.235  0.1742 -1.1622 -0.6683
  382MOL0     H51528   9.322   2.262   8.018  0.1854 -1.9598  2.6951
  382MOL0     H51529   9.183   2.303   7.927 -3.7723 -2.0206  0.4891
  382MOL0     H51530   9.332   2.056   7.983  1.1261  0.3804 -3.1126
  382MOL0     H51531   9.346   1.702   7.851 -0.8353 -0.0892  3.0593
  382MOL0     H51532   9.401   1.839   7.761 -1.1100  2.4283  0.4682
  382MOL0     H51533   9.443   1.823   7.928  3.3871 -0.3847 -3.5753
  382MOL0     H51534   9.071   1.697   7.395  2.1639  0.2226 -0.7024
  382MOL0     H51535   9.105   1.519   7.251  3.3874 -0.0787 -0.7844
  382MOL0     H51536   9.389   1.191   7.353 -0.1009  0.0816  0.9697
  382MOL0     H51537   9.248   1.129   7.425  1.8541 -3.3769  0.0515
  382MOL0     H51538   9.159   1.035   7.215  0.0710  0.2824 -0.9478
  382MOL0     H51539   9.285   1.108   7.124  0.8291 -0.7279  0.2970
  382MOL0     H51540   9.334   0.890   7.333  2.4666 -1.6057 -1.0551
  382MOL0     H51541   9.449   0.983   7.237 -1.8087  2.7897  1.4443
  382MOL0     H51542   9.229   0.796   7.143 -0.4498 -0.7184  1.5109
  382MOL0     H51543   9.341   0.883   7.025  0.0791 -0.9830  0.4316
  382MOL0     H51544   9.390   0.645   7.071 -0.1431  0.2103 -0.8693
  382MOL0     H51545   9.430   0.685   7.239 -3.0025  0.4257 -0.0852
  382MOL0     H51546   9.606   0.833   7.146  1.6991 -1.0017  0.2162
  382MOL0     H51547   9.641   0.664   7.126  1.6495  1.2027  1.0024
  382MOL0     H51548   9.704   0.795   6.929 -0.3269 -1.6381 -4.0926
  382MOL0     H51549   9.538   0.857   6.908 -1.2487 -0.6035 -0.9833
  382MOL0     H51550   9.622   0.690   6.753 -0.1706 -0.2267  0.1377
  382MOL0     H51551   9.491   0.616   6.835 -0.4952  2.3953 -4.7407
  382MOL0     H51552   9.323   1.306   7.556  1.2863  1.4212  2.5349
  382MOL0     H51553   9.293   1.494   7.703  1.2818 -1.4782 -1.7496
  382MOL0     H51554   8.895   1.853   7.865  0.0809 -3.7815  2.0540
  382MOL0     H51555   8.913   2.049   8.023  0.6692 -0.4465  1.8212
  382MOL0     H51556   8.807   2.635   7.964 -0.1102 -0.0227 -1.8727
  382MOL0     H51557   8.665   2.761   7.801 -1.1392  2.0544  0.4874
  382MOL0     H51558   8.035   2.874   7.726  0.7416  2.8558  1.6010
  382MOL0     H51559   7.946   2.997   7.532  0.4367  1.6258 -1.6552
  382MOL0     H51560   7.917   3.058   7.167  2.1318 -1.8090 -0.8763
  382MOL0     H51561   7.878   3.025   7.329 -1.4884 -1.2311 -2.3004
  382MOL0     H51562   8.094   3.234   7.269  0.2174  0.3513  1.1383
  382MOL0     H51563   7.986   3.237   7.402  2.8346  2.1592 -0.1150
  382MOL0     H51564   7.910   3.314   7.113  3.9656  0.8675 -0.6807
  382MOL0     H51565   7.927   3.422   7.252 -0.6412 -0.3690  1.4498
  382MOL0     H51566   7.729   3.186   7.240 -0.4126  0.2011 -2.0809
  382MOL0     H51567   7.693   3.355   7.188  0.6809 -0.2124 -0.0116
  382MOL0     H51568   7.645   3.399   7.607 -0.2983 -0.0262 -0.4510
  382MOL0     H51569   8.316   2.924   7.321  0.4947  0.1303 -0.9108
  382MOL0     H51570   8.417   2.825   7.523 -0.4261 -0.9096  1.6470
  383MOL0     O51571   9.821   8.176   1.144  0.0422 -0.4082 -0.0584
  383MOL0     C51572   9.887   8.269   1.183 -0.7146  0.0221  0.2874
  383MOL0     O51573   9.852   8.396   1.165 -0.0067 -0.2443  0.8215
  383MOL0     C51574   9.731   8.434   1.103 -0.4692 -0.1674  0.0374
  383MOL0     C51575   9.734   8.578   1.089  0.1948  0.8664  0.4801
  383MOL0     C51576   9.628   8.644   1.026 -0.0473  0.2788 -0.1354
  383MOL0     C51577   9.514   8.565   0.989  0.0630 -0.4322 -0.3451
  383MOL0     O51578   9.408   8.632   0.928 -0.4945  1.0164  0.7351
  383MOL0     C51579   9.276   8.623   0.985  0.1668 -0.5976  1.4062
  383MOL0     C51580   9.175   8.609   0.873  0.9270  0.6628 -0.1810
  383MOL0     C51581   9.202   8.474   0.787 -0.3095 -0.2293  0.2322
  383MOL0     C51582   9.106   8.458   0.670  0.1540 -0.0105  0.3875
  383MOL0     C51583   9.114   8.316   0.598  0.9716  0.4070 -0.3382
  383MOL0     C51584   8.999   8.297   0.499  1.6147  0.0912  1.1006
  383MOL0     C51585   8.992   8.153   0.456 -0.0050 -0.7857 -0.2844
  383MOL0     C51586   9.108   8.116   0.365  0.7580 -0.8486 -1.1208
  383MOL0     N51587   9.088   7.992   0.276  0.6404 -0.9846  0.5753
  383MOL0     C51588   9.118   7.979   0.143 -0.1041  0.6515  0.4134
  383MOL0     C51589   9.069   7.864   0.101  0.1471 -0.1383  0.3451
  383MOL0     C51590   9.086   7.790  -0.033 -1.0018 -0.6466 -0.3281
  383MOL0     C51591   8.956   7.730  -0.089 -0.0887 -0.1961 -0.3792
  383MOL0     C51592   8.854   7.819  -0.144  1.0793  0.0575  0.1094
  383MOL0     C51593   8.805   7.936  -0.059  0.2135  1.0197  0.0270
  383MOL0     O51594   8.878   8.043  -0.121 -0.1842 -0.0706  0.4970
  383MOL0     C51595   8.879   8.157  -0.042 -0.5473  0.9993  0.4270
  383MOL0     C51596   8.794   8.186   0.059  0.0705 -0.2280  0.3337
  383MOL0     C51597   8.795   8.312   0.129  0.5079 -0.9518  0.1965
  383MOL0     C51598   8.686   8.345   0.233 -0.7453  0.3427  0.5417
  383MOL0     C51599   8.901   8.409   0.106  0.5080 -0.5398 -0.3525
  383MOL0     C51600   8.913   8.553   0.163  0.4899  0.2012  0.2494
  383MOL0     O51601   9.021   8.627   0.123  0.2407  0.7061  0.7024
  383MOL0     C51602   9.044   8.744   0.184  0.1385 -0.0943 -1.0578
  383MOL0     C51603   8.984   8.865   0.154 -0.8082 -0.0278 -0.4620
  383MOL0     C51604   9.000   8.987   0.226  0.4483  0.8084 -0.1967
  383MOL0     C51605   9.086   8.982   0.342 -0.3076  0.2363  0.4894
  383MOL0     O51606   9.119   9.090   0.422 -1.0421  0.5363 -0.8160
  383MOL0     C51607   9.070   9.220   0.395  0.8626  0.2752  0.1838
  383MOL0     C51608   9.118   9.317   0.507  0.2555 -0.5838  1.0236
  383MOL0     C51609   9.269   9.299   0.534 -1.4723  0.5229 -0.3281
  383MOL0     C51610   9.353   9.357   0.424  0.2845  0.5415  0.2704
  383MOL0     C51611   9.499   9.312   0.429  0.2412  0.4238  0.1389
  383MOL0     C51612   9.514   9.163   0.358 -0.7712  0.1326  0.2045
  383MOL0     C51613   9.645   9.153   0.269  0.4098 -0.0001 -0.2329
  383MOL0     C51614   9.684   9.015   0.230  0.4790 -0.2656  0.2878
  383MOL0    Cl51615   9.545   8.956   0.145 -0.2352  0.0655 -0.2668
  383MOL0     C51616   9.165   8.862   0.363  0.2698 -0.4971  0.2464
  383MOL0     C51617   9.143   8.750   0.287 -0.0136  0.0211  0.2556
  383MOL0     O51618   8.816   8.604   0.225 -0.2538 -0.0075  0.1555
  383MOL0     C51619   8.997   8.361   0.012 -0.2333 -0.1425  0.5056
  383MOL0     C51620   8.987   8.243  -0.066  0.6830  0.5626  0.2653
  383MOL0     N51621   8.999   7.817   0.213 -0.8862  0.1646  0.2732
  383MOL0     N51622   8.995   7.897   0.307 -0.9048 -0.8046 -0.4870
  383MOL0     C51623   9.510   8.432   1.010  0.4851 -0.4725 -0.2125
  383MOL0     C51624   9.619   8.359   1.055  0.1350  0.3233  0.0402
  383MOL0     C51625  10.021   8.247   1.234  0.1359  0.0612  0.7027
  383MOL0     C51626  10.081   8.120   1.231 -0.5274 -0.4264 -0.8406
  383MOL0     C51627  10.210   8.101   1.274  0.5951 -0.5760  0.5153
  383MOL0     C51628  10.290   8.210   1.306 -0.1895  0.2193 -0.5584
  383MOL0     O51629  10.414   8.194   1.361  0.1240 -0.0395 -0.9552
  383MOL0     C51630  10.517   8.286   1.318  0.3062 -0.7189 -0.4598
  383MOL0     C51631  10.528   8.414   1.404 -0.0982 -1.4173  0.2508
  383MOL0     C51632  10.495   8.382   1.552  1.1539  0.1692 -0.0426
  383MOL0     C51633  10.489   8.514   1.633 -0.0164 -0.1688 -0.3808
  383MOL0     C51634  10.365   8.585   1.607  0.1322  1.2410  0.0515
  383MOL0     C51635  10.258   8.633   1.584 -0.1954  0.1167 -0.0819
  383MOL0     C51636  10.230   8.336   1.312 -0.1150  0.4005  0.2895
  383MOL0     C51637  10.101   8.353   1.280 -0.2604  0.2948  0.4848
  383MOL0     H51638   9.820   8.625   1.137 -1.9762  2.4994  3.0729
  383MOL0     H51639   9.623   8.753   1.021 -1.0351  0.1700 -3.7861
  383MOL0     H51640   9.262   8.545   1.061  0.6032  1.8189  4.1501
  383MOL0     H51641   9.258   8.719   1.034  1.6653  0.6484 -0.3497
  383MOL0     H51642   9.073   8.606   0.910  1.2772  2.7360  1.0603
  383MOL0     H51643   9.193   8.690   0.802  0.8583  0.4785 -0.4112
  383MOL0     H51644   9.308   8.465   0.763 -0.0752  0.9351  0.7800
  383MOL0     H51645   9.192   8.390   0.857 -0.7286  0.6825  1.2898
  383MOL0     H51646   9.000   8.466   0.699 -0.8355 -0.9275 -2.5639
  383MOL0     H51647   9.133   8.532   0.595  4.9068  1.6287  3.3182
  383MOL0     H51648   9.197   8.301   0.528 -0.7240 -3.7541 -1.7915
  383MOL0     H51649   9.126   8.244   0.680 -0.8986  1.8089  1.2643
  383MOL0     H51650   8.905   8.333   0.542  0.2006  0.2508 -1.8584
  383MOL0     H51651   9.012   8.359   0.410  1.4123 -2.0973 -0.5539
  383MOL0     H51652   8.994   8.082   0.539 -1.6807  2.1171  2.4521
  383MOL0     H51653   8.901   8.136   0.398 -0.5609  0.0917  0.3019
  383MOL0     H51654   9.185   8.085   0.436 -0.6097  0.8823  1.2188
  383MOL0     H51655   9.141   8.198   0.300 -1.2512 -0.2402 -1.4320
  383MOL0     H51656   9.173   8.044   0.075  2.6403  0.9380  2.7026
  383MOL0     H51657   9.117   7.863  -0.108 -1.4639  1.3762  1.3610
  383MOL0     H51658   9.164   7.715  -0.041 -0.5042 -0.0629 -1.0133
  383MOL0     H51659   8.902   7.681  -0.008 -1.8344  1.0780 -0.7261
  383MOL0     H51660   8.982   7.661  -0.170  2.2112  2.1650 -1.8004
  383MOL0     H51661   8.764   7.757  -0.152  0.7517  0.5164  0.1995
  383MOL0     H51662   8.880   7.849  -0.246 -2.3578  2.7252 -0.1554
  383MOL0     H51663   8.815   7.910   0.047  1.8042 -3.1086 -0.9670
  383MOL0     H51664   8.700   7.954  -0.085  0.2598  1.6171  0.2334
  383MOL0     H51665   8.725   8.107   0.084 -1.1149  1.0799  1.3482
  383MOL0     H51666   8.623   8.259   0.256 -0.2951  0.3990  2.0836
  383MOL0     H51667   8.748   8.376   0.318 -1.1197  0.7842  0.6609
  383MOL0     H51668   8.623   8.429   0.202 -3.6126 -2.2089 -1.0405
  383MOL0     H51669   8.924   8.849   0.065 -0.4980 -0.8719 -0.5362
  383MOL0     H51670   8.939   9.072   0.194 -0.4720  0.1251 -0.2967
  383MOL0     H51671   9.098   9.243   0.292 -0.2768 -0.6036 -0.3407
  383MOL0     H51672   8.961   9.216   0.405  0.7395  0.1877 -1.1078
  383MOL0     H51673   9.096   9.420   0.479 -4.3779 -0.4023  4.1843
  383MOL0     H51674   9.058   9.290   0.595  0.2594 -3.5728  0.2343
  383MOL0     H51675   9.305   9.199   0.560  3.6591  1.6562 -1.9835
  383MOL0     H51676   9.290   9.354   0.625  0.7444  0.6378 -0.8573
  383MOL0     H51677   9.314   9.327   0.326  2.0500 -2.0882  0.2693
  383MOL0     H51678   9.352   9.466   0.432 -0.9308  0.5488  0.2084
  383MOL0     H51679   9.547   9.310   0.527 -0.7576  1.9758  0.7124
  383MOL0     H51680   9.551   9.386   0.367 -1.5068  2.6397  1.1712
  383MOL0     H51681   9.511   9.090   0.440  1.4497 -1.2144 -0.8104
  383MOL0     H51682   9.426   9.143   0.296 -2.0652  1.0043  1.6903
  383MOL0     H51683   9.731   9.196   0.321  0.2396  2.7556 -2.0110
  383MOL0     H51684   9.649   9.217   0.180  3.5093  0.1574 -0.0872
  383MOL0     H51685   9.690   8.960   0.325 -1.1067  0.8849  1.0871
  383MOL0     H51686   9.779   9.015   0.176 -0.4355  0.5095 -1.3878
  383MOL0     H51687   9.236   8.865   0.445  0.5570  1.7840  0.0049
  383MOL0     H51688   9.208   8.666   0.309  4.0877  2.8996  0.2564
  383MOL0     H51689   9.082   8.424  -0.012  0.0271 -0.7656 -0.2192
  383MOL0     H51690   9.057   8.212  -0.143  0.8894  1.5955  0.0203
  383MOL0     H51691   9.422   8.371   0.993 -0.2505 -0.4153  2.7968
  383MOL0     H51692   9.618   8.252   1.067  3.4144  0.3952  1.8983
  383MOL0     H51693  10.027   8.041   1.179  1.4858 -2.6897  0.3164
  383MOL0     H51694  10.250   8.001   1.280  0.7974 -0.4024  4.3783
  383MOL0     H51695  10.613   8.235   1.306 -0.6901 -2.4442 -1.4104
  383MOL0     H51696  10.487   8.306   1.215 -0.4379  0.1132 -0.0984
  383MOL0     H51697  10.465   8.494   1.364 -2.2794 -4.3370 -2.8216
  383MOL0     H51698  10.627   8.459   1.398 -1.6256  2.0882 -0.8213
  383MOL0     H51699  10.578   8.320   1.585  0.1120 -0.1477  2.1112
  383MOL0     H51700  10.397   8.334   1.551  0.2785  1.8607 -1.2645
  383MOL0     H51701  10.574   8.575   1.600  3.0696 -2.5726  2.3282
  383MOL0     H51702  10.491   8.501   1.742  0.1381 -1.8809 -0.5577
  383MOL0     H51703  10.160   8.673   1.566 -0.1235  0.2163 -0.2564
  383MOL0     H51704  10.269   8.432   1.346 -2.7520  2.7523 -2.7186
  383MOL0     H51705  10.048   8.447   1.293  0.1898  0.7141 -0.5572
  384MOL0     O51706   8.399   1.092   9.710 -0.3748 -0.2692  0.9122
  384MOL0     C51707   8.521   1.070   9.701  1.0713 -0.0947  0.4642
  384MOL0     O51708   8.608   1.094   9.593 -0.7566  0.7655  1.0650
  384MOL0     C51709   8.552   1.121   9.468 -0.4592 -0.9824 -0.0763
  384MOL0     C51710   8.483   1.248   9.454 -0.7592  0.8342  0.0709
  384MOL0     C51711   8.414   1.279   9.327 -0.5653  0.6950 -0.5527
  384MOL0     C51712   8.415   1.188   9.222 -0.4116  0.1904 -0.1378
  384MOL0     O51713   8.335   1.186   9.113 -0.6758 -0.4516  0.5358
  384MOL0     C51714   8.222   1.270   9.114 -0.3856  0.9852 -0.2464
  384MOL0     C51715   8.121   1.237   9.000 -0.1692  0.2572 -0.1194
  384MOL0     C51716   8.050   1.109   9.029 -0.8777 -0.2401  0.1307
  384MOL0     C51717   7.927   1.095   8.937 -0.0637 -0.2049 -0.1194
  384MOL0     C51718   7.853   0.960   8.949  0.4061  0.0548  0.0948
  384MOL0     C51719   7.955   0.846   8.929  0.3763  0.1857  0.7512
  384MOL0     C51720   7.893   0.714   8.956 -0.2971  0.3783 -0.3727
  384MOL0     C51721   7.851   0.692   9.096  0.5990 -0.1002 -0.4145
  384MOL0     N51722   7.804   0.555   9.112 -0.7832 -0.4858  0.6774
  384MOL0     C51723   7.680   0.503   9.086 -0.2973  0.3945  0.0612
  384MOL0     C51724   7.675   0.377   9.142  1.0405  0.1094  0.1122
  384MOL0     C51725   7.551   0.288   9.154  0.5991 -0.6984 -0.4682
  384MOL0     C51726   7.564   0.187   9.256  0.6532 -0.1051 -1.1662
  384MOL0     C51727   7.463   0.074   9.248 -0.4674  0.6794  0.4139
  384MOL0     C51728   7.321   0.121   9.277  0.1502  0.1162  0.3405
  384MOL0     O51729   7.237   0.007   9.258  0.3533  0.8014  0.0321
  384MOL0     C51730   7.214  -0.039   9.135 -0.5857 -1.2670  0.1664
  384MOL0     C51731   7.191   0.045   9.030 -0.0792 -0.1308  0.1627
  384MOL0     C51732   7.163  -0.002   8.901  0.0183 -0.2205 -0.0853
  384MOL0     C51733   7.131   0.115   8.807 -0.6171 -0.6333  0.3032
  384MOL0     C51734   7.161  -0.138   8.869  0.2067 -0.5276  0.0789
  384MOL0     C51735   7.133  -0.199   8.737  0.1563 -0.1260 -0.1128
  384MOL0     O51736   7.116  -0.337   8.738 -0.6266  0.1009 -0.3478
  384MOL0     C51737   7.043  -0.403   8.647  0.4270  0.8119 -0.2777
  384MOL0     C51738   6.962  -0.352   8.539 -0.5963 -0.0271 -0.0616
  384MOL0     C51739   6.915  -0.434   8.441  0.7774  0.1501  0.2290
  384MOL0     C51740   6.937  -0.570   8.444  0.5216  0.0869  0.3850
  384MOL0     O51741   6.902  -0.664   8.352  0.2677  0.1201  0.6137
  384MOL0     C51742   6.812  -0.636   8.245 -0.7355  0.6640 -0.0255
  384MOL0     C51743   6.740  -0.772   8.210  0.0676  0.3529 -0.0460
  384MOL0     C51744   6.716  -0.871   8.321 -0.1123 -0.6470  0.3730
  384MOL0     C51745   6.628  -0.981   8.260 -0.4349  0.6668 -0.8871
  384MOL0     C51746   6.576  -1.062   8.387  0.7921 -0.3686 -0.3857
  384MOL0     C51747   6.459  -1.149   8.371 -0.3712  0.2398  0.3668
  384MOL0     C51748   6.424  -1.216   8.500  0.2006 -0.3767 -0.5770
  384MOL0     C51749   6.287  -1.278   8.501  0.3798  0.1019  0.7370
  384MOL0    Cl51750   6.171  -1.140   8.511  0.2034 -0.0358 -0.1109
  384MOL0     C51751   6.996  -0.625   8.560  0.1170  0.0201 -0.1562
  384MOL0     C51752   7.045  -0.538   8.659  0.0472 -0.0852 -0.8688
  384MOL0     O51753   7.124  -0.130   8.635  0.1161 -0.5599  0.0484
  384MOL0     C51754   7.195  -0.218   8.981  0.9555 -0.4461 -1.1118
  384MOL0     C51755   7.207  -0.168   9.113 -0.3577 -0.1031  0.3920
  384MOL0     N51756   7.788   0.363   9.212  0.5026 -0.0744 -0.4529
  384MOL0     N51757   7.864   0.470   9.198  0.2080  0.0603 -0.1192
  384MOL0     C51758   8.503   1.073   9.234  0.6187  0.4168  0.7230
  384MOL0     C51759   8.570   1.042   9.353  0.2716 -0.0161  0.3926
  384MOL0     C51760   8.585   1.027   9.824 -0.0571  0.9275  0.2039
  384MOL0     C51761   8.506   0.981   9.935  0.5232 -0.2485  0.6817
  384MOL0     C51762   8.561   0.934  10.055  0.1472 -0.7739 -0.0993
  384MOL0     C51763   8.702   0.948  10.076  0.4940 -0.9403  0.1351
  384MOL0     O51764   8.771   0.920  10.187 -0.0103 -0.2130 -0.0326
  384MOL0     C51765   8.697   0.872  10.302  0.0568  0.6713 -0.2992
  384MOL0     C51766   8.660   0.728  10.301  0.1035  0.0006 -0.6997
  384MOL0     C51767   8.783   0.642  10.348 -0.7301  0.8251  0.9001
  384MOL0     C51768   8.734   0.493  10.372 -0.1134  0.2643  0.3949
  384MOL0     C51769   8.847   0.398  10.356  0.8068 -0.0644  0.4080
  384MOL0     C51770   8.932   0.321  10.329 -0.7339 -0.4564 -0.2548
  384MOL0     C51771   8.770   1.010   9.976  0.1209  0.1936  0.2664
  384MOL0     C51772   8.715   1.039   9.846 -0.5566 -1.0410 -0.5466
  384MOL0     H51773   8.481   1.326   9.529 -1.1541  2.7773 -1.8753
  384MOL0     H51774   8.343   1.360   9.313 -1.3776 -0.2479 -2.3007
  384MOL0     H51775   8.160   1.266   9.204 -1.3019  0.8054 -0.8772
  384MOL0     H51776   8.246   1.376   9.101 -2.4902  1.2632 -2.6851
  384MOL0     H51777   8.047   1.317   8.997 -2.7379 -2.0266 -2.4873
  384MOL0     H51778   8.181   1.228   8.909 -0.3998  0.7687 -0.3262
  384MOL0     H51779   8.133   1.039   9.022 -0.0417  0.7352  0.1549
  384MOL0     H51780   8.031   1.103   9.136 -0.7110  0.6605  0.2180
  384MOL0     H51781   7.861   1.180   8.958 -0.6807 -0.7710  0.2820
  384MOL0     H51782   7.957   1.120   8.835  3.4196 -0.6500  0.6765
  384MOL0     H51783   7.809   0.958   9.049 -0.3378  2.4155 -0.1073
  384MOL0     H51784   7.770   0.956   8.877  0.8647 -0.9065 -0.3973
  384MOL0     H51785   8.004   0.850   8.832 -0.5274  0.9356  0.3096
  384MOL0     H51786   8.037   0.852   9.001  0.2554 -2.1413  1.1639
  384MOL0     H51787   7.809   0.708   8.887 -0.4956  0.0288 -0.1065
  384MOL0     H51788   7.967   0.637   8.933  1.0345  0.9625  1.7147
  384MOL0     H51789   7.767   0.758   9.118 -0.2641 -0.5213 -2.2390
  384MOL0     H51790   7.939   0.702   9.161  1.3961 -3.5763 -0.7589
  384MOL0     H51791   7.604   0.549   9.024  1.7020  1.1083 -2.0569
  384MOL0     H51792   7.463   0.345   9.184 -0.1467 -1.8298 -0.4526
  384MOL0     H51793   7.532   0.243   9.056  0.5581  0.9860 -1.2507
  384MOL0     H51794   7.551   0.222   9.359  1.4136 -1.4386 -0.6017
  384MOL0     H51795   7.661   0.136   9.257  0.9337  0.4031  0.2042
  384MOL0     H51796   7.492  -0.020   9.296  0.6789 -0.2760 -2.0132
  384MOL0     H51797   7.480   0.050   9.143 -0.2116  3.2587 -0.1902
  384MOL0     H51798   7.287   0.209   9.222  0.8902  1.0822  1.3727
  384MOL0     H51799   7.326   0.146   9.383  1.1675  1.5931 -0.0291
  384MOL0     H51800   7.206   0.153   9.032 -2.8066  0.3360  0.5517
  384MOL0     H51801   7.223   0.141   8.753 -1.7433  0.8124 -0.9909
  384MOL0     H51802   7.056   0.094   8.731  0.8297  0.2130 -1.4363
  384MOL0     H51803   7.100   0.204   8.861  2.0447  0.9016 -0.5222
  384MOL0     H51804   6.944  -0.246   8.534  0.0679  0.1997  1.6153
  384MOL0     H51805   6.872  -0.391   8.351 -0.1891 -0.9830  0.1202
  384MOL0     H51806   6.733  -0.565   8.271 -1.0707 -0.3425  1.9181
  384MOL0     H51807   6.866  -0.594   8.160  2.3277 -2.6126  0.0968
  384MOL0     H51808   6.643  -0.756   8.161  1.7037 -1.0092 -4.2202
  384MOL0     H51809   6.800  -0.823   8.134 -1.2280  1.0527 -1.5967
  384MOL0     H51810   6.659  -0.818   8.398 -0.3438 -1.8391  1.0503
  384MOL0     H51811   6.812  -0.908   8.357 -0.0392 -0.6081  0.2181
  384MOL0     H51812   6.541  -0.945   8.205 -1.6309 -2.6689 -1.3885
  384MOL0     H51813   6.689  -1.056   8.209 -1.5679 -3.2174  2.9150
  384MOL0     H51814   6.556  -0.990   8.466  1.1410 -2.1845  1.4455
  384MOL0     H51815   6.657  -1.126   8.424 -1.2734 -2.7367  0.2453
  384MOL0     H51816   6.368  -1.097   8.338 -3.0277 -2.1498  3.2390
  384MOL0     H51817   6.470  -1.217   8.286  2.3081  0.6412  0.3099
  384MOL0     H51818   6.429  -1.145   8.584 -1.0416 -0.2448 -0.5907
  384MOL0     H51819   6.487  -1.302   8.526  1.4108 -1.0270 -4.9505
  384MOL0     H51820   6.266  -1.328   8.596 -2.7922  2.2738  1.3478
  384MOL0     H51821   6.268  -1.346   8.417  2.7031  2.2428 -1.7507
  384MOL0     H51822   7.012  -0.732   8.572  2.1160  0.3014  0.0349
  384MOL0     H51823   7.100  -0.577   8.743 -2.0785  0.4643  0.8584
  384MOL0     H51824   7.213  -0.324   8.969  2.2983 -0.3825  0.1599
  384MOL0     H51825   7.216  -0.239   9.195  1.8247  0.1147  0.4127
  384MOL0     H51826   8.511   1.009   9.147  4.9501 -1.2825  2.1057
  384MOL0     H51827   8.636   0.956   9.361  2.4531  1.6003  0.4234
  384MOL0     H51828   8.400   1.001   9.926  0.8514  1.5574  0.3813
  384MOL0     H51829   8.493   0.908  10.136 -0.6690 -1.4637 -0.9941
  384MOL0     H51830   8.753   0.889  10.395  2.6611 -2.5653 -1.1004
  384MOL0     H51831   8.609   0.936  10.312 -0.7687 -0.4419 -0.3148
  384MOL0     H51832   8.604   0.699  10.212 -0.3177  0.0100 -0.4419
  384MOL0     H51833   8.600   0.731  10.392  2.9106  1.8937  1.2613
  384MOL0     H51834   8.809   0.670  10.451 -4.7939  1.9844  1.7763
  384MOL0     H51835   8.871   0.652  10.284  0.8392  0.7151  2.9353
  384MOL0     H51836   8.663   0.471  10.292 -0.0438  1.7523 -0.1128
  384MOL0     H51837   8.689   0.489  10.471 -0.1746 -2.7899  0.3266
  384MOL0     H51838   9.005   0.246  10.307  0.3270 -0.4659  2.8509
  384MOL0     H51839   8.877   1.024   9.983  0.1412  2.5274 -2.7537
  384MOL0     H51840   8.779   1.083   9.771  0.7068  1.0410  1.5899
  385MOL0     O51841   3.083  10.225   4.435  0.0026 -0.2655  0.1772
  385MOL0     C51842   3.160  10.263   4.518  0.3750  0.1193 -0.7729
  385MOL0     O51843   3.294  10.229   4.533  0.1772  0.0373  0.2931
  385MOL0     C51844   3.344  10.124   4.455 -0.0870 -0.1879 -0.1221
  385MOL0     C51845   3.449  10.155   4.366  0.5249 -0.7233 -0.8017
  385MOL0     C51846   3.497  10.062   4.279 -1.0616 -0.0203  0.0658
  385MOL0     C51847   3.457   9.925   4.296  1.5482  0.2822  0.5421
  385MOL0     O51848   3.526   9.834   4.213 -0.2421 -0.2498 -0.2600
  385MOL0     C51849   3.499   9.697   4.218 -0.5995  0.0250  0.2331
  385MOL0     C51850   3.562   9.641   4.090  0.1221 -0.7299 -0.3041
  385MOL0     C51851   3.714   9.646   4.093  0.4750  0.0918 -0.3307
  385MOL0     C51852   3.759   9.560   3.971 -0.7723 -0.1344 -0.0770
  385MOL0     C51853   3.904   9.517   3.972 -0.5451  0.1749 -0.6116
  385MOL0     C51854   3.946   9.402   4.071 -1.0042  0.1493 -0.4077
  385MOL0     C51855   4.099   9.366   4.085  0.7160 -0.8996  0.3991
  385MOL0     C51856   4.163   9.349   3.944 -0.2658 -0.3120 -0.2360
  385MOL0     N51857   4.303   9.304   3.957  0.4837 -1.0902 -0.1366
  385MOL0     C51858   4.388   9.313   4.062  0.7650 -0.9721  0.7457
  385MOL0     C51859   4.504   9.258   4.027  0.2817  0.1928  0.5227
  385MOL0     C51860   4.625   9.236   4.114  0.0867  0.5363 -0.4338
  385MOL0     C51861   4.749   9.240   4.023 -0.2944 -0.4717 -0.0924
  385MOL0     C51862   4.877   9.242   4.105 -0.1595  0.5337 -0.9808
  385MOL0     C51863   5.004   9.281   4.029  0.3589  0.2479  0.2830
  385MOL0     O51864   5.063   9.165   3.975 -0.3392 -0.5371  0.2810
  385MOL0     C51865   5.050   9.143   3.837 -0.9632  0.7838  0.3709
  385MOL0     C51866   5.087   9.240   3.747 -0.1144 -0.3385 -0.3196
  385MOL0     C51867   5.071   9.231   3.606 -0.2518 -0.0783  0.4256
  385MOL0     C51868   5.104   9.343   3.520 -0.1353 -0.3346  0.1640
  385MOL0     C51869   5.038   9.102   3.551  0.0494 -0.3455  0.4498
  385MOL0     C51870   5.046   9.075   3.406  0.3100 -0.3133  0.5986
  385MOL0     O51871   5.082   8.943   3.361  0.4574  0.3034 -0.8385
  385MOL0     C51872   5.081   8.900   3.235  0.3260  0.7674 -0.0809
  385MOL0     C51873   5.081   8.973   3.119 -0.2457  0.7370  0.0745
  385MOL0     C51874   5.090   8.910   2.989 -0.6343 -0.4062 -0.0642
  385MOL0     C51875   5.116   8.772   2.981  0.2987  0.4741 -0.3187
  385MOL0     O51876   5.135   8.716   2.854 -0.6288 -0.5213 -0.2028
  385MOL0     C51877   5.096   8.571   2.834  0.0008  0.1883 -0.5373
  385MOL0     C51878   5.085   8.519   2.694  0.6020 -0.8260 -0.5041
  385MOL0     C51879   5.012   8.380   2.685 -0.4096  1.1396 -0.0664
  385MOL0     C51880   4.999   8.334   2.533  1.1718  1.2036 -0.9446
  385MOL0     C51881   4.889   8.220   2.530  0.1576 -0.4587 -0.1509
  385MOL0     C51882   4.917   8.109   2.638 -0.0940 -0.8514  0.8244
  385MOL0     C51883   4.819   7.999   2.595  0.2612 -0.2726 -0.2288
  385MOL0     C51884   4.681   8.030   2.642  0.4814  0.5106 -0.9065
  385MOL0    Cl51885   4.583   7.885   2.602 -0.0217  0.1764  0.0255
  385MOL0     C51886   5.101   8.691   3.096 -1.5161 -0.2645  0.9965
  385MOL0     C51887   5.078   8.758   3.224 -0.1497  0.1608 -0.7356
  385MOL0     O51888   5.006   9.160   3.328 -0.3719 -0.4008  0.5578
  385MOL0     C51889   5.011   8.993   3.636 -0.2889  1.0452 -0.0253
  385MOL0     C51890   5.015   9.017   3.776 -0.3194  0.3467 -0.9240
  385MOL0     N51891   4.482   9.203   3.906 -0.1349 -0.2978  0.5605
  385MOL0     N51892   4.371   9.242   3.858  0.2665 -0.2825 -0.7699
  385MOL0     C51893   3.362   9.892   4.391 -0.0187  0.4969 -0.1951
  385MOL0     C51894   3.309   9.992   4.480 -0.5001  1.1374  0.2642
  385MOL0     C51895   3.118  10.372   4.604  0.9054 -0.1779  0.2074
  385MOL0     C51896   2.982  10.412   4.613  0.3371  0.5215 -0.6081
  385MOL0     C51897   2.936  10.527   4.689 -0.6799 -0.1358  0.2746
  385MOL0     C51898   3.024  10.598   4.763  0.3785  0.1811 -0.1071
  385MOL0     O51899   3.002  10.707   4.845  0.2453  0.6096  0.4811
  385MOL0     C51900   2.866  10.710   4.901 -0.2571 -1.7922  0.1840
  385MOL0     C51901   2.842  10.823   5.003 -1.0396  0.4400  0.3728
  385MOL0     C51902   2.870  10.961   4.936  0.3335 -0.6082  0.3259
  385MOL0     C51903   2.811  11.080   5.006 -0.2377 -0.1887  1.1283
  385MOL0     C51904   2.668  11.071   4.996  0.2474  0.0076  0.8006
  385MOL0     C51905   2.553  11.058   4.970 -1.2161 -0.2265  0.5379
  385MOL0     C51906   3.158  10.556   4.761  0.1595  0.1077 -0.5637
  385MOL0     C51907   3.205  10.444   4.688  0.0116 -0.1145 -0.7853
  385MOL0     H51908   3.481  10.259   4.374  1.1740 -1.0337  1.2148
  385MOL0     H51909   3.562  10.099   4.201 -0.6868  1.2366  0.9326
  385MOL0     H51910   3.543   9.653   4.308  2.0909 -4.0721 -2.6980
  385MOL0     H51911   3.391   9.675   4.222 -0.8980  1.3551 -0.0582
  385MOL0     H51912   3.536   9.535   4.081  3.3792 -1.7486  0.8966
  385MOL0     H51913   3.524   9.694   4.002 -2.0468 -4.0430 -1.5887
  385MOL0     H51914   3.754   9.747   4.086  1.2923 -0.1870  0.1681
  385MOL0     H51915   3.761   9.600   4.181  0.8562 -1.8255 -1.4617
  385MOL0     H51916   3.708   9.464   3.961  0.5603 -1.0453  1.3389
  385MOL0     H51917   3.754   9.610   3.874  1.3703 -0.8150 -0.5939
  385MOL0     H51918   3.922   9.494   3.867  0.5093 -0.5122 -0.3017
  385MOL0     H51919   3.962   9.609   3.986 -3.3428  2.0514 -0.6085
  385MOL0     H51920   3.912   9.430   4.171  0.0479  3.2415 -0.8155
  385MOL0     H51921   3.889   9.311   4.046 -0.0888 -0.5239 -0.1011
  385MOL0     H51922   4.150   9.448   4.137 -1.4994  1.9234 -1.5385
  385MOL0     H51923   4.097   9.276   4.146  0.3452  0.2105  2.1100
  385MOL0     H51924   4.160   9.449   3.899  2.8287 -0.6064 -1.3488
  385MOL0     H51925   4.104   9.285   3.877  0.1462 -0.5396 -0.3781
  385MOL0     H51926   4.371   9.355   4.160 -0.9565 -0.2142  0.1653
  385MOL0     H51927   4.630   9.302   4.201 -2.1649  0.9225 -0.5291
  385MOL0     H51928   4.625   9.134   4.155 -3.0301 -0.4133 -2.4126
  385MOL0     H51929   4.736   9.333   3.968  0.5954  0.4965  1.2686
  385MOL0     H51930   4.756   9.147   3.966 -0.2527 -0.4354 -0.1453
  385MOL0     H51931   4.898   9.140   4.140  0.6929  0.4994 -1.5901
  385MOL0     H51932   4.873   9.312   4.189 -0.9185  1.2198 -1.5672
  385MOL0     H51933   5.074   9.329   4.099  0.4568  2.7047 -1.3568
  385MOL0     H51934   4.982   9.362   3.958 -2.5289  1.6589  2.5665
  385MOL0     H51935   5.130   9.332   3.786  2.8234 -1.8324  0.2867
  385MOL0     H51936   5.185   9.323   3.450 -0.9347  2.8962 -1.9110
  385MOL0     H51937   5.015   9.364   3.460  0.9266  1.4563 -0.8658
  385MOL0     H51938   5.127   9.429   3.584 -3.2343  1.2778 -0.6566
  385MOL0     H51939   5.059   9.080   3.116 -0.4365  0.8962  3.6485
  385MOL0     H51940   5.087   8.962   2.894  2.6742 -0.8584 -0.5349
  385MOL0     H51941   5.174   8.514   2.886 -1.6936 -0.5454  1.3552
  385MOL0     H51942   5.004   8.546   2.888  2.6782 -0.1839  4.3851
  385MOL0     H51943   5.026   8.591   2.637  0.9145  0.0855  0.2924
  385MOL0     H51944   5.188   8.513   2.656  2.1367  0.6426  2.9936
  385MOL0     H51945   4.908   8.392   2.716 -1.2274 -2.1538 -1.1238
  385MOL0     H51946   5.069   8.307   2.741  1.1969  1.2991 -1.4154
  385MOL0     H51947   4.964   8.417   2.470 -2.0149 -0.5715 -1.6895
  385MOL0     H51948   5.091   8.295   2.489 -0.3295 -0.0236 -3.1278
  385MOL0     H51949   4.888   8.181   2.428  3.2612 -1.9290  0.2715
  385MOL0     H51950   4.790   8.263   2.547  0.1471 -0.4737 -0.1745
  385MOL0     H51951   5.018   8.068   2.637  0.4792  0.3937 -1.6669
  385MOL0     H51952   4.899   8.145   2.739  1.2496 -2.6456  1.7674
  385MOL0     H51953   4.846   7.899   2.632  1.4562  0.2427  0.3216
  385MOL0     H51954   4.825   7.987   2.486  2.0369  0.8589 -0.2998
  385MOL0     H51955   4.626   8.113   2.596  0.2169  0.4100 -0.7763
  385MOL0     H51956   4.676   8.028   2.751  0.3022 -2.7167 -0.8794
  385MOL0     H51957   5.119   8.584   3.096  1.7233  0.1634  1.1446
  385MOL0     H51958   5.079   8.717   3.324  0.1859 -2.3784 -1.7234
  385MOL0     H51959   4.986   8.897   3.594  0.3978  0.5528  0.6617
  385MOL0     H51960   4.984   8.936   3.842  2.8621 -0.8351 -0.6951
  385MOL0     H51961   3.311   9.796   4.396 -4.0212  2.2666 -2.4012
  385MOL0     H51962   3.232   9.953   4.546 -1.7327  0.8565 -1.2855
  385MOL0     H51963   2.908  10.357   4.557  1.1026 -1.6273  0.3950
  385MOL0     H51964   2.830  10.549   4.682 -0.6241  0.1212  0.2330
  385MOL0     H51965   2.812  10.730   4.808  1.0372 -0.1945 -0.2747
  385MOL0     H51966   2.826  10.616   4.940 -2.3764  0.3969  3.7932
  385MOL0     H51967   2.913  10.828   5.086  0.2060 -0.2066 -0.6242
  385MOL0     H51968   2.743  10.814   5.049 -0.2184 -0.3497  2.0474
  385MOL0     H51969   2.843  10.957   4.830 -0.8998 -3.2983  0.6522
  385MOL0     H51970   2.977  10.979   4.948  0.2277 -0.1984  0.6742
  385MOL0     H51971   2.843  11.164   4.944 -2.5910 -0.7479 -1.0058
  385MOL0     H51972   2.836  11.078   5.113 -0.5379  1.2728  1.2415
  385MOL0     H51973   2.449  11.049   4.949 -0.8782 -2.8921 -0.3864
  385MOL0     H51974   3.228  10.610   4.824 -0.5025  0.3906 -0.0618
  385MOL0     H51975   3.306  10.414   4.712  0.4595  2.0710  0.3126
  386MOL0     O51976   7.963   2.679   2.804 -0.8841 -0.2705  0.1823
  386MOL0     C51977   8.034   2.697   2.712 -0.8559 -0.1717 -0.3514
  386MOL0     O51978   8.037   2.812   2.641  0.3330 -0.1365 -0.2769
  386MOL0     C51979   7.941   2.904   2.670  0.4395 -0.3768 -0.2555
  386MOL0     C51980   7.996   3.031   2.705 -0.8224  0.1911 -0.2850
  386MOL0     C51981   7.904   3.120   2.756  0.4858 -0.3050  0.5862
  386MOL0     C51982   7.764   3.093   2.770 -0.6006  0.4528 -0.0938
  386MOL0     O51983   7.683   3.189   2.811  0.0293 -0.1154 -0.1740
  386MOL0     C51984   7.552   3.184   2.761 -0.2371  0.7993  0.0639
  386MOL0     C51985   7.474   3.315   2.799 -0.2832 -0.1356 -1.0029
  386MOL0     C51986   7.343   3.328   2.720 -0.0317 -0.4354  0.3214
  386MOL0     C51987   7.283   3.457   2.702 -0.4551 -0.2048 -0.0517
  386MOL0     C51988   7.231   3.518   2.831  0.0019 -0.2644 -0.6976
  386MOL0     C51989   7.073   3.504   2.846 -0.5980  0.6304 -0.2925
  386MOL0     C51990   7.030   3.536   2.991  0.8204 -0.1135  0.4954
  386MOL0     C51991   7.023   3.687   3.022  0.6412 -0.4209 -0.7587
  386MOL0     N51992   7.147   3.743   3.058  0.5282  0.4001  0.4655
  386MOL0     C51993   7.227   3.701   3.158  0.0348  0.4081 -0.3862
  386MOL0     C51994   7.347   3.758   3.134  0.8914 -0.2046 -0.4516
  386MOL0     C51995   7.482   3.710   3.187 -0.2012  0.3038  0.8116
  386MOL0     C51996   7.537   3.586   3.135  0.1532 -1.0693  0.0073
  386MOL0     C51997   7.691   3.572   3.126  0.4456 -0.2015 -0.3505
  386MOL0     C51998   7.758   3.554   3.265 -0.0994 -0.0351  0.1328
  386MOL0     O51999   7.772   3.409   3.291  0.2688 -0.5200 -0.5507
  386MOL0     C52000   7.880   3.334   3.247 -0.2111 -0.5304 -0.0062
  386MOL0     C52001   7.967   3.364   3.145 -0.8932 -0.2431 -0.5965
  386MOL0     C52002   8.069   3.276   3.105 -1.1049 -1.2223  0.2352
  386MOL0     C52003   8.166   3.337   2.994  0.9430  0.5929 -0.3262
  386MOL0     C52004   8.086   3.155   3.176 -0.8511  0.3711 -0.2032
  386MOL0     C52005   8.195   3.063   3.141  0.5631 -0.7088 -0.5517
  386MOL0     O52006   8.262   3.073   3.027 -0.2676 -0.3400  0.3555
  386MOL0     C52007   8.365   2.986   3.019 -0.0724 -0.6934 -0.3897
  386MOL0     C52008   8.483   2.990   3.099  0.1284 -0.5143 -0.5509
  386MOL0     C52009   8.579   2.891   3.077  1.1661  0.1138  0.5972
  386MOL0     C52010   8.562   2.788   2.978 -0.7789  0.1640 -0.0029
  386MOL0     O52011   8.676   2.706   2.965  0.5049  0.2569 -0.5916
  386MOL0     C52012   8.658   2.597   2.869 -0.0892  0.2497 -0.4051
  386MOL0     C52013   8.776   2.497   2.873 -0.2393  0.0758 -0.8997
  386MOL0     C52014   8.914   2.563   2.840  0.1505  0.5476  0.0894
  386MOL0     C52015   9.009   2.454   2.784  0.1019 -0.3234 -0.6601
  386MOL0     C52016   8.988   2.423   2.634 -0.6019 -0.2472 -0.6822
  386MOL0     C52017   9.069   2.304   2.597 -0.5319  0.2803  0.5110
  386MOL0     C52018   9.084   2.285   2.451 -0.1968  0.0085  0.4884
  386MOL0     C52019   9.202   2.193   2.429 -0.1745 -0.1835  0.9510
  386MOL0    Cl52020   9.147   2.028   2.440 -0.1232  0.4809 -0.4805
  386MOL0     C52021   8.443   2.791   2.904 -0.9611 -0.4318 -0.9454
  386MOL0     C52022   8.342   2.879   2.931  0.2969 -0.4928 -1.0783
  386MOL0     O52023   8.214   2.969   3.224  0.3102  0.7881 -0.1072
  386MOL0     C52024   7.995   3.123   3.278  0.0121 -0.3332 -0.0715
  386MOL0     C52025   7.892   3.208   3.308  0.2798  1.0453 -0.8533
  386MOL0     N52026   7.330   3.845   3.028  0.3383 -0.1068  0.3918
  386MOL0     N52027   7.209   3.838   2.989 -0.9384  0.1506  0.6184
  386MOL0     C52028   7.718   2.971   2.728  0.2958  0.9382  0.9552
  386MOL0     C52029   7.807   2.877   2.674  0.4208  0.2594  0.7425
  386MOL0     C52030   8.141   2.595   2.690  0.7625  0.0471  0.2825
  386MOL0     C52031   8.257   2.637   2.622  0.6350 -0.2861  0.0540
  386MOL0     C52032   8.366   2.547   2.610  0.2879  0.1914 -0.1631
  386MOL0     C52033   8.362   2.420   2.677  0.7232 -0.0121 -0.5451
  386MOL0     O52034   8.469   2.340   2.659  0.4581 -0.5153 -0.0363
  386MOL0     C52035   8.474   2.215   2.733  0.7180 -0.2781  0.4573
  386MOL0     C52036   8.607   2.146   2.721 -0.1721 -0.1086 -0.6711
  386MOL0     C52037   8.661   2.126   2.584 -0.0441  0.1101  0.4406
  386MOL0     C52038   8.561   2.044   2.490  0.2955 -0.1369 -0.6779
  386MOL0     C52039   8.546   1.904   2.547  0.4535  0.3875 -0.0019
  386MOL0     C52040   8.552   1.792   2.595  0.4154  0.5190 -0.1162
  386MOL0     C52041   8.244   2.380   2.740  0.0809 -0.7515 -0.5342
  386MOL0     C52042   8.136   2.470   2.747  1.1551  0.1286 -0.3640
  386MOL0     H52043   8.101   3.056   2.696  0.1481 -3.1970  0.3764
  386MOL0     H52044   7.932   3.217   2.795 -0.2663 -0.7361  2.2940
  386MOL0     H52045   7.567   3.172   2.654  2.7863 -1.4040  0.6034
  386MOL0     H52046   7.485   3.100   2.785  1.0204 -0.2929 -0.1104
  386MOL0     H52047   7.448   3.324   2.905  1.1419  1.1484 -0.7272
  386MOL0     H52048   7.534   3.403   2.774  0.4833 -0.8454 -1.6962
  386MOL0     H52049   7.371   3.300   2.618 -0.9221 -2.7187  0.6472
  386MOL0     H52050   7.265   3.260   2.758 -0.3721  0.2496  0.8718
  386MOL0     H52051   7.347   3.523   2.644  0.8777 -2.5674 -1.4450
  386MOL0     H52052   7.199   3.445   2.633  0.9794 -1.3984 -1.6667
  386MOL0     H52053   7.267   3.474   2.924 -2.4924 -1.6203 -0.2844
  386MOL0     H52054   7.255   3.624   2.819  2.9234 -0.9289 -1.3990
  386MOL0     H52055   7.022   3.577   2.782  1.0625  3.1476  1.0794
  386MOL0     H52056   7.048   3.401   2.822 -0.7978  0.7372 -0.5417
  386MOL0     H52057   6.926   3.503   2.992  0.0889  1.2925 -4.0226
  386MOL0     H52058   7.089   3.492   3.071  0.6964  1.1653  1.3288
  386MOL0     H52059   6.956   3.705   3.106  2.7843 -1.3080  1.2524
  386MOL0     H52060   6.981   3.743   2.938 -0.1578  0.5697  0.2724
  386MOL0     H52061   7.213   3.621   3.230 -3.2513  0.8254 -0.3916
  386MOL0     H52062   7.548   3.785   3.143 -2.4648  1.0303 -1.5502
  386MOL0     H52063   7.494   3.711   3.296 -0.8059 -3.5914  1.0862
  386MOL0     H52064   7.506   3.578   3.031  2.4156  2.3988 -1.1139
  386MOL0     H52065   7.489   3.507   3.192 -3.7120  0.2849 -1.0845
  386MOL0     H52066   7.742   3.658   3.081  2.9116 -0.9593  0.7934
  386MOL0     H52067   7.714   3.481   3.070 -1.2948  0.0620 -1.5770
  386MOL0     H52068   7.694   3.589   3.346 -0.3703 -1.4993  0.5748
  386MOL0     H52069   7.852   3.607   3.281 -1.4325  2.9688 -1.1148
  386MOL0     H52070   7.960   3.458   3.091  1.3772 -0.4332 -1.3377
  386MOL0     H52071   8.153   3.271   2.907  3.4571 -0.3174 -0.1028
  386MOL0     H52072   8.120   3.431   2.964 -1.9622 -0.1799  1.3140
  386MOL0     H52073   8.270   3.342   3.028  1.4892  1.4698 -2.0163
  386MOL0     H52074   8.501   3.070   3.170 -1.9005  1.1190 -1.7335
  386MOL0     H52075   8.666   2.895   3.141  0.3278  0.1110  1.7562
  386MOL0     H52076   8.571   2.532   2.886  1.6505 -1.3564  3.8717
  386MOL0     H52077   8.656   2.630   2.765  2.0664 -0.0125 -0.5771
  386MOL0     H52078   8.776   2.450   2.972  0.0575 -0.8639 -1.3325
  386MOL0     H52079   8.762   2.413   2.804  0.8623  0.5663 -1.7638
  386MOL0     H52080   8.958   2.618   2.924 -2.0375  2.5840 -0.0046
  386MOL0     H52081   8.900   2.645   2.769 -2.8761 -0.7339 -0.9553
  386MOL0     H52082   9.108   2.496   2.802 -0.3048  0.2445  0.3954
  386MOL0     H52083   8.988   2.365   2.845  0.9361  1.9620  3.2818
  386MOL0     H52084   9.011   2.508   2.568 -3.2475 -0.4494 -1.9958
  386MOL0     H52085   8.882   2.403   2.617 -0.8501 -0.3123  0.8155
  386MOL0     H52086   9.168   2.333   2.631 -0.2714 -0.8383  0.7623
  386MOL0     H52087   9.036   2.212   2.647 -0.2806 -1.0608 -1.6219
  386MOL0     H52088   9.116   2.381   2.409 -1.9820  0.5769  0.3320
  386MOL0     H52089   8.997   2.252   2.393 -0.6342  0.9214  0.6124
  386MOL0     H52090   9.286   2.223   2.492  0.2268 -2.7482  1.7399
  386MOL0     H52091   9.227   2.212   2.324 -1.7012 -1.2240  0.3560
  386MOL0     H52092   8.434   2.718   2.825  0.2277 -1.1627 -0.4344
  386MOL0     H52093   8.250   2.875   2.874 -0.0450 -0.8117 -0.5157
  386MOL0     H52094   7.996   3.026   3.327  1.0735  0.5843  1.8242
  386MOL0     H52095   7.817   3.179   3.380 -0.8163 -1.6443 -2.9063
  386MOL0     H52096   7.612   2.952   2.725  0.4543 -1.4946  4.3238
  386MOL0     H52097   7.765   2.779   2.656 -2.8855  1.7814 -0.7907
  386MOL0     H52098   8.275   2.732   2.573  0.6905 -0.5752 -0.4842
  386MOL0     H52099   8.457   2.575   2.557  0.8849 -2.6830 -0.8295
  386MOL0     H52100   8.447   2.231   2.838 -2.9570 -0.4641 -0.3115
  386MOL0     H52101   8.397   2.160   2.678 -0.4433  0.7746  0.9959
  386MOL0     H52102   8.603   2.048   2.770  1.6217  0.1888  0.1342
  386MOL0     H52103   8.674   2.206   2.783 -0.1763 -0.9484  0.1774
  386MOL0     H52104   8.766   2.098   2.589  0.5434  1.8005 -1.0677
  386MOL0     H52105   8.674   2.226   2.541 -0.1649 -0.7247 -1.6867
  386MOL0     H52106   8.605   2.046   2.390  0.0557 -0.6868 -0.7953
  386MOL0     H52107   8.462   2.092   2.489  0.3904  0.0555 -1.2644
  386MOL0     H52108   8.556   1.690   2.630 -2.0443  0.8247  1.2668
  386MOL0     H52109   8.233   2.283   2.788 -2.9106  1.1685  3.1882
  386MOL0     H52110   8.040   2.444   2.791 -0.7164  4.3845 -1.4098
  387MOL0     O52111   1.266   5.443   7.586  0.0940 -0.6599 -0.2866
  387MOL0     C52112   1.353   5.483   7.660 -0.6469 -1.1232 -0.7633
  387MOL0     O52113   1.488   5.447   7.656 -0.2165 -0.3676 -0.5955
  387MOL0     C52114   1.528   5.378   7.552  0.2970 -0.7742 -0.2504
  387MOL0     C52115   1.503   5.426   7.417 -0.2592 -0.5123 -0.9021
  387MOL0     C52116   1.531   5.343   7.311 -0.1279  0.2518 -0.5365
  387MOL0     C52117   1.617   5.228   7.326  0.5579 -0.7056 -0.4770
  387MOL0     O52118   1.633   5.145   7.224 -0.3835  0.3230 -0.3485
  387MOL0     C52119   1.679   5.191   7.098 -0.1920 -0.7270 -0.9711
  387MOL0     C52120   1.824   5.140   7.068  1.0482  0.2107 -0.3323
  387MOL0     C52121   1.863   4.995   7.094 -1.3160  0.0703 -0.2126
  387MOL0     C52122   1.787   4.894   7.018 -0.3106  0.3044  0.2195
  387MOL0     C52123   1.828   4.758   7.023 -0.0749  0.2335  0.5110
  387MOL0     C52124   1.769   4.679   6.902 -0.8275 -0.1464  0.1324
  387MOL0     C52125   1.807   4.530   6.902  0.1420 -0.2892  0.0309
  387MOL0     C52126   1.946   4.510   6.859 -0.4753  0.6685 -0.3508
  387MOL0     N52127   1.975   4.369   6.851  0.2437 -0.0218 -0.6106
  387MOL0     C52128   1.999   4.296   6.968  0.0622 -0.1867  0.4477
  387MOL0     C52129   2.034   4.180   6.914 -0.1748  0.7443 -0.6131
  387MOL0     C52130   2.069   4.060   6.991  0.2638 -0.2898  0.4053
  387MOL0     C52131   2.173   4.075   7.107  0.9184 -0.4692  0.3658
  387MOL0     C52132   2.319   4.096   7.065 -0.1890 -0.2794 -0.1904
  387MOL0     C52133   2.386   3.964   7.020  0.0769 -1.3091 -0.8779
  387MOL0     O52134   2.515   4.005   6.982  0.0060  0.0050 -0.3089
  387MOL0     C52135   2.595   3.891   6.974  0.5368 -0.5378  0.2879
  387MOL0     C52136   2.662   3.862   7.089 -0.0434 -0.4726 -0.0330
  387MOL0     C52137   2.731   3.745   7.109 -0.1062  0.2044  0.2991
  387MOL0     C52138   2.796   3.713   7.242 -0.0011  0.1506  0.2282
  387MOL0     C52139   2.730   3.644   7.001  0.5415 -0.1058  0.5308
  387MOL0     C52140   2.780   3.509   7.013 -0.2906 -0.2853 -0.1517
  387MOL0     O52141   2.832   3.456   6.904  0.3962  0.2958 -0.5143
  387MOL0     C52142   2.882   3.328   6.916  0.3483 -0.6752  0.8258
  387MOL0     C52143   3.018   3.311   6.964  0.0073  0.5605 -0.6463
  387MOL0     C52144   3.067   3.177   6.963 -0.2141 -0.1225  0.9472
  387MOL0     C52145   2.995   3.071   6.929  1.4404  0.0993  1.0765
  387MOL0     O52146   3.067   2.954   6.917 -0.3059 -0.2709  0.7863
  387MOL0     C52147   3.002   2.835   6.927  0.4258  0.0849  1.0569
  387MOL0     C52148   3.116   2.723   6.944 -1.0987 -0.8373  0.6825
  387MOL0     C52149   3.179   2.727   7.080 -0.1097 -0.1961  0.2496
  387MOL0     C52150   3.130   2.615   7.182  0.5014 -0.0959 -0.0524
  387MOL0     C52151   3.213   2.622   7.311 -0.8607  0.4947 -0.9341
  387MOL0     C52152   3.173   2.523   7.418 -0.0773  0.1204  0.6085
  387MOL0     C52153   3.211   2.371   7.419  0.1081  0.0804 -0.3990
  387MOL0     C52154   3.357   2.346   7.375  0.1782 -0.7100 -0.0300
  387MOL0    Cl52155   3.388   2.179   7.429 -0.3098  0.0807  0.3489
  387MOL0     C52156   2.857   3.084   6.903 -0.2446 -0.0129 -0.1947
  387MOL0     C52157   2.806   3.213   6.896  0.0676 -1.0904  1.0330
  387MOL0     O52158   2.776   3.454   7.126  0.9346  0.2202  0.8929
  387MOL0     C52159   2.671   3.687   6.876 -0.3911 -0.5240  0.0513
  387MOL0     C52160   2.600   3.801   6.860  0.0202 -0.6838  0.7319
  387MOL0     N52161   2.048   4.188   6.773 -0.4936  0.1498 -0.6323
  387MOL0     N52162   2.016   4.306   6.741 -0.0540  0.2182  0.2084
  387MOL0     C52163   1.657   5.202   7.454  0.3750 -0.2094  0.6867
  387MOL0     C52164   1.608   5.264   7.571 -0.6352 -0.4265 -1.0726
  387MOL0     C52165   1.316   5.579   7.767  0.5858  0.3116 -0.6161
  387MOL0     C52166   1.370   5.567   7.898 -0.7733 -0.7056 -0.5680
  387MOL0     C52167   1.335   5.659   7.999  0.2950  0.2199 -0.5273
  387MOL0     C52168   1.240   5.764   7.970  0.4186  0.1267 -0.8311
  387MOL0     O52169   1.230   5.864   8.060  0.2991  0.0650 -0.3148
  387MOL0     C52170   1.103   5.940   8.061 -0.3308  0.9821 -0.1363
  387MOL0     C52171   1.094   6.019   8.193 -0.1348 -0.2836  0.1442
  387MOL0     C52172   1.231   6.093   8.210 -0.1265  0.6422 -0.6637
  387MOL0     C52173   1.249   6.169   8.346 -0.9067  0.0702  0.4443
  387MOL0     C52174   1.157   6.275   8.366  0.0129  0.4297 -0.9083
  387MOL0     C52175   1.076   6.365   8.382  0.2529  0.2956  0.7914
  387MOL0     C52176   1.193   5.775   7.834  0.1132  0.3695 -0.4068
  387MOL0     C52177   1.232   5.677   7.739  0.9605 -0.5347 -0.1934
  387MOL0     H52178   1.441   5.515   7.405 -3.2504 -2.0725  1.4259
  387MOL0     H52179   1.487   5.367   7.214  0.5658 -0.6608 -1.0932
  387MOL0     H52180   1.601   5.164   7.026 -0.6591 -2.0758  0.0059
  387MOL0     H52181   1.682   5.301   7.099 -0.5755 -0.7155 -0.3542
  387MOL0     H52182   1.835   5.156   6.960 -1.6867  0.9096 -0.5956
  387MOL0     H52183   1.891   5.209   7.119 -0.0871  1.4127 -0.4232
  387MOL0     H52184   1.969   4.998   7.066 -0.2095  1.2506  3.5082
  387MOL0     H52185   1.859   4.982   7.202  1.7492  0.7692  0.0861
  387MOL0     H52186   1.685   4.902   7.055  0.5811 -1.6604  3.5760
  387MOL0     H52187   1.784   4.913   6.911 -1.2842 -0.1341  0.1666
  387MOL0     H52188   1.937   4.761   7.007 -0.2166  1.1340 -0.4063
  387MOL0     H52189   1.819   4.715   7.123  0.4270  0.1278  0.5145
  387MOL0     H52190   1.661   4.695   6.907 -0.9922 -1.3027  0.5959
  387MOL0     H52191   1.797   4.738   6.814 -1.3635  1.4651  0.9966
  387MOL0     H52192   1.802   4.502   7.007  1.1887  1.6469  0.6574
  387MOL0     H52193   1.745   4.479   6.828 -1.6373  0.8300  0.6767
  387MOL0     H52194   1.991   4.550   6.950 -3.0496 -1.8741  2.2131
  387MOL0     H52195   1.982   4.554   6.765 -1.1818 -1.8869 -1.9027
  387MOL0     H52196   1.981   4.319   7.072 -0.3759 -1.7241  0.7400
  387MOL0     H52197   1.973   4.016   7.020 -0.1927 -0.7856 -1.7343
  387MOL0     H52198   2.124   3.990   6.928  0.8625 -2.2868  2.9505
  387MOL0     H52199   2.179   3.988   7.173 -0.5159  1.5156  3.2965
  387MOL0     H52200   2.134   4.158   7.166  4.1370  2.5129 -1.3140
  387MOL0     H52201   2.383   4.153   7.133 -0.4282 -0.9435  0.6216
  387MOL0     H52202   2.318   4.160   6.977  0.5494 -0.5913 -0.4319
  387MOL0     H52203   2.330   3.918   6.939 -3.7461 -2.6113  2.1718
  387MOL0     H52204   2.385   3.893   7.103 -1.5985 -0.1920  0.1178
  387MOL0     H52205   2.665   3.934   7.170  3.4788  3.8071 -3.4687
  387MOL0     H52206   2.898   3.674   7.233  1.1386  2.3135  2.6550
  387MOL0     H52207   2.807   3.800   7.308 -2.8491  1.4708 -0.8411
  387MOL0     H52208   2.732   3.638   7.289 -1.3136  0.8891 -0.3195
  387MOL0     H52209   3.078   3.394   6.999 -2.1548  2.1793 -0.5386
  387MOL0     H52210   3.171   3.159   6.985  0.3044  0.8562 -0.5448
  387MOL0     H52211   2.943   2.834   7.019 -3.2184  0.8681 -1.0654
  387MOL0     H52212   2.940   2.807   6.841  2.7737 -3.1041  0.1822
  387MOL0     H52213   3.080   2.623   6.920 -2.2591 -0.5398  1.1332
  387MOL0     H52214   3.196   2.738   6.871 -3.0743  0.7590 -1.3334
  387MOL0     H52215   3.155   2.829   7.112  2.3072  1.4034 -2.5121
  387MOL0     H52216   3.288   2.715   7.071  0.0637  1.6697 -0.5954
  387MOL0     H52217   3.024   2.619   7.207  0.5779 -1.9266  0.7443
  387MOL0     H52218   3.136   2.520   7.128 -1.2174 -2.7687  3.9680
  387MOL0     H52219   3.207   2.722   7.355  0.6666  0.9766 -1.7810
  387MOL0     H52220   3.320   2.609   7.293 -0.3553 -2.1562  2.7554
  387MOL0     H52221   3.208   2.564   7.513  2.0182 -0.5601  0.1814
  387MOL0     H52222   3.063   2.518   7.417 -0.1527  0.4268  2.7783
  387MOL0     H52223   3.162   2.325   7.333  1.1280  0.4755 -1.2129
  387MOL0     H52224   3.197   2.334   7.521  1.8662  3.5675  1.2828
  387MOL0     H52225   3.417   2.420   7.429  0.6971 -0.0425 -1.4695
  387MOL0     H52226   3.380   2.365   7.270  0.0369  2.6814  0.4529
  387MOL0     H52227   2.786   3.002   6.890  1.2907 -1.5038  0.5299
  387MOL0     H52228   2.707   3.223   6.853  0.1449 -1.0414  0.8669
  387MOL0     H52229   2.673   3.620   6.791 -1.2015 -0.2210 -0.2185
  387MOL0     H52230   2.553   3.821   6.764 -0.8703  3.1687  1.7709
  387MOL0     H52231   1.726   5.119   7.460  1.6543  0.5174 -2.3530
  387MOL0     H52232   1.661   5.237   7.662  1.5722  1.0906 -1.8277
  387MOL0     H52233   1.430   5.483   7.932  0.9366  0.0683 -1.4819
  387MOL0     H52234   1.371   5.645   8.100 -3.2718 -1.2768  0.7266
  387MOL0     H52235   1.093   6.011   7.978  0.4757  1.9921  0.6074
  387MOL0     H52236   1.020   5.870   8.049 -0.0472  0.5647  0.2822
  387MOL0     H52237   1.086   5.945   8.273  0.1118  0.4949  0.9082
  387MOL0     H52238   1.010   6.088   8.201  1.4928  1.7322  0.7323
  387MOL0     H52239   1.249   6.155   8.121 -1.6506 -0.4374 -1.7687
  387MOL0     H52240   1.319   6.028   8.209 -0.8217 -0.3135 -0.7950
  387MOL0     H52241   1.352   6.206   8.350 -0.1040 -1.5282 -2.2383
  387MOL0     H52242   1.245   6.098   8.429  1.5521  0.9739  1.4076
  387MOL0     H52243   1.003   6.443   8.392  1.2790  1.0735  2.5930
  387MOL0     H52244   1.122   5.853   7.808  1.8672  1.4013 -2.3518
  387MOL0     H52245   1.187   5.677   7.640  0.2785 -2.7890  0.0522
  388MOL0     O52246   9.380   8.911   4.204 -0.2421  0.0062 -0.4031
  388MOL0     C52247   9.368   8.798   4.254  0.1081 -0.0825 -0.4293
  388MOL0     O52248   9.445   8.743   4.351 -0.1862  0.1677 -0.8426
  388MOL0     C52249   9.561   8.810   4.402  0.2204 -0.1684 -0.2521
  388MOL0     C52250   9.560   8.939   4.452 -1.0474  0.1039 -0.1477
  388MOL0     C52251   9.677   9.003   4.499 -0.6863 -0.0116  0.2245
  388MOL0     C52252   9.797   8.934   4.489  0.3279  0.4533 -0.1848
  388MOL0     O52253   9.919   8.992   4.517 -0.1639  0.2061 -0.3247
  388MOL0     C52254   9.937   9.134   4.531  1.4310 -0.6833 -0.3248
  388MOL0     C52255  10.070   9.145   4.582 -0.4955 -0.4288 -0.0785
  388MOL0     C52256  10.105   9.294   4.603 -0.2064  0.1461  0.7192
  388MOL0     C52257  10.255   9.297   4.633  1.5591  0.6879  0.2088
  388MOL0     C52258  10.317   9.433   4.613 -0.3942 -0.4033  0.1742
  388MOL0     C52259  10.473   9.429   4.633  0.6496  0.2180  0.6960
  388MOL0     C52260  10.503   9.419   4.785 -1.2966 -0.2720  0.5681
  388MOL0     C52261  10.653   9.442   4.810  0.2167  0.1147 -0.0943
  388MOL0     N52262  10.726   9.332   4.743  0.0648  0.8559 -0.3528
  388MOL0     C52263  10.727   9.193   4.782  0.5418 -0.2567 -0.2019
  388MOL0     C52264  10.804   9.139   4.693 -1.2517  0.4030  1.0558
  388MOL0     C52265  10.850   8.992   4.694  0.5017 -0.3799 -0.3410
  388MOL0     C52266  10.751   8.908   4.616  0.3721 -0.6641 -0.2493
  388MOL0     C52267  10.815   8.780   4.545 -0.3893  1.0169 -0.5078
  388MOL0     C52268  10.706   8.680   4.501 -0.5796 -0.4547 -0.3457
  388MOL0     O52269  10.650   8.626   4.619  0.0993 -0.0646  0.1804
  388MOL0     C52270  10.602   8.503   4.611 -0.5673 -0.9599 -0.0477
  388MOL0     C52271  10.590   8.427   4.729  0.3562  0.0467 -0.0641
  388MOL0     C52272  10.529   8.298   4.732 -0.2760 -0.5828 -0.6758
  388MOL0     C52273  10.524   8.249   4.874 -0.0672  0.6204 -0.5228
  388MOL0     C52274  10.471   8.246   4.614 -1.0102 -0.8925  0.1475
  388MOL0     C52275  10.409   8.108   4.600  1.0212  0.3063 -0.0404
  388MOL0     O52276  10.420   8.018   4.701 -0.5624  0.2152  0.2109
  388MOL0     C52277  10.357   7.888   4.695 -0.2274 -0.2093 -0.0108
  388MOL0     C52278  10.312   7.836   4.815  0.5915 -0.1138  0.4547
  388MOL0     C52279  10.254   7.706   4.814 -0.2303  0.3614  0.6148
  388MOL0     C52280  10.249   7.625   4.702 -1.0382  0.0940 -0.4760
  388MOL0     O52281  10.196   7.494   4.711  0.1369 -0.0400  0.2090
  388MOL0     C52282  10.265   7.386   4.781 -0.0315  0.3455 -0.3307
  388MOL0     C52283  10.375   7.325   4.683  0.4565 -0.6734  0.2740
  388MOL0     C52284  10.435   7.193   4.731 -0.5130 -0.0766  0.1473
  388MOL0     C52285  10.341   7.071   4.698  1.1690 -1.1006  0.4349
  388MOL0     C52286  10.407   6.936   4.676  1.1129  0.1490 -0.1006
  388MOL0     C52287  10.408   6.881   4.817 -1.0895 -0.3514  1.2505
  388MOL0     C52288  10.488   6.750   4.826 -0.4568  0.6086  1.0994
  388MOL0     C52289  10.419   6.643   4.745  0.3956 -0.3048  1.1184
  388MOL0    Cl52290  10.468   6.475   4.812  0.1628 -0.3307  0.4068
  388MOL0     C52291  10.279   7.684   4.577  1.1092 -0.4880  0.4628
  388MOL0     C52292  10.326   7.812   4.573 -0.0017  0.2599 -0.8405
  388MOL0     O52293  10.354   8.084   4.492  0.6311  0.3186 -1.0300
  388MOL0     C52294  10.489   8.325   4.497  0.2536  0.4973 -0.4756
  388MOL0     C52295  10.566   8.443   4.495  0.4221  0.6430  0.4676
  388MOL0     N52296  10.865   9.234   4.612 -0.0977  0.4212 -0.9371
  388MOL0     N52297  10.808   9.349   4.633 -0.2979  0.6340 -0.2019
  388MOL0     C52298   9.797   8.808   4.421 -0.0859  0.5731 -0.0297
  388MOL0     C52299   9.683   8.746   4.391  0.0778 -0.1870  0.0733
  388MOL0     C52300   9.253   8.727   4.204  0.4150  0.5748 -1.1535
  388MOL0     C52301   9.183   8.770   4.083  0.4067 -0.4755  0.1530
  388MOL0     C52302   9.084   8.694   4.036 -0.7354  0.8850  0.8798
  388MOL0     C52303   9.040   8.573   4.100  0.0908  0.1489  0.5194
  388MOL0     O52304   8.936   8.507   4.045 -0.3957 -0.1529  0.0753
  388MOL0     C52305   8.899   8.383   4.102 -0.4333 -0.5871  0.2112
  388MOL0     C52306   8.802   8.312   4.012 -0.5639 -0.4357 -0.4352
  388MOL0     C52307   8.669   8.372   4.011 -1.1321 -0.0301 -0.0210
  388MOL0     C52308   8.569   8.270   3.967  0.3450 -0.0975  0.4379
  388MOL0     C52309   8.581   8.220   3.836  0.1866 -0.0460  0.0583
  388MOL0     C52310   8.614   8.175   3.727  0.1615  0.2221  0.9033
  388MOL0     C52311   9.112   8.529   4.210  0.4547  0.3760  0.2367
  388MOL0     C52312   9.215   8.605   4.261 -0.3618 -0.5862 -0.4373
  388MOL0     H52313   9.465   8.991   4.457 -0.3864  1.2000  1.5677
  388MOL0     H52314   9.678   9.106   4.532  0.7016  0.7794 -2.0623
  388MOL0     H52315   9.926   9.190   4.438 -0.8648  0.0599  0.3347
  388MOL0     H52316   9.867   9.173   4.605  2.5160  0.0406  0.3473
  388MOL0     H52317  10.073   9.094   4.679  1.3562 -0.9029 -0.3499
  388MOL0     H52318  10.143   9.099   4.514  0.5243 -0.9647  1.3350
  388MOL0     H52319  10.083   9.350   4.512 -1.2210  1.8912  1.9899
  388MOL0     H52320  10.039   9.337   4.679  0.0985  2.6246 -0.3096
  388MOL0     H52321  10.270   9.265   4.737  0.7561 -2.2658 -0.4839
  388MOL0     H52322  10.310   9.225   4.571  0.8346 -1.3077  1.7687
  388MOL0     H52323  10.294   9.480   4.516  1.5564  3.5060  1.3598
  388MOL0     H52324  10.276   9.495   4.693  2.7801  2.5748 -0.2651
  388MOL0     H52325  10.509   9.346   4.571  0.7237  2.6740 -2.8199
  388MOL0     H52326  10.509   9.527   4.603  0.4740 -0.1708 -0.8513
  388MOL0     H52327  10.443   9.496   4.833  0.4947  2.2366 -0.9744
  388MOL0     H52328  10.480   9.323   4.832 -0.1309 -0.8792 -0.0559
  388MOL0     H52329  10.674   9.441   4.917 -1.5463 -1.9465  0.3131
  388MOL0     H52330  10.686   9.532   4.757  1.9105 -0.5972 -0.3030
  388MOL0     H52331  10.667   9.155   4.864 -3.1345  1.3733 -1.9361
  388MOL0     H52332  10.953   8.982   4.657  2.0606  1.5332  2.9839
  388MOL0     H52333  10.849   8.970   4.801 -2.5150  3.6854  0.6932
  388MOL0     H52334  10.720   8.966   4.529 -0.7117  0.6420  0.9708
  388MOL0     H52335  10.668   8.880   4.681 -1.5989  3.1637 -0.8501
  388MOL0     H52336  10.860   8.717   4.623  0.4443  0.6410 -1.2772
  388MOL0     H52337  10.891   8.811   4.473  1.0087  1.6433  1.1789
  388MOL0     H52338  10.747   8.603   4.436 -3.4681  1.9882 -5.6800
  388MOL0     H52339  10.632   8.732   4.439 -0.9197  1.4039  1.4868
  388MOL0     H52340  10.634   8.472   4.818 -0.0577 -0.2973  0.3198
  388MOL0     H52341  10.602   8.285   4.941 -1.5602 -2.5732  3.3371
  388MOL0     H52342  10.430   8.279   4.922 -0.0138 -1.8863  1.3989
  388MOL0     H52343  10.533   8.140   4.874  0.7518  0.6708 -1.4105
  388MOL0     H52344  10.324   7.905   4.898 -0.5278 -0.0936  0.6198
  388MOL0     H52345  10.220   7.672   4.911 -1.7156 -0.1598 -0.0507
  388MOL0     H52346  10.285   7.420   4.883 -0.2459 -2.0982  0.5993
  388MOL0     H52347  10.189   7.310   4.804  2.2895 -2.3924 -1.0830
  388MOL0     H52348  10.366   7.328   4.574  3.3536  1.7483 -0.0368
  388MOL0     H52349  10.451   7.401   4.701 -2.0967  2.2578 -0.4647
  388MOL0     H52350  10.456   7.203   4.838 -2.3682  3.1093  0.3487
  388MOL0     H52351  10.533   7.181   4.685 -0.0607  2.6987  0.2025
  388MOL0     H52352  10.265   7.066   4.777  0.0709 -0.1944 -0.5190
  388MOL0     H52353  10.289   7.099   4.606  0.6296  0.6807  1.2393
  388MOL0     H52354  10.508   6.943   4.633  2.2577 -1.1024  2.1994
  388MOL0     H52355  10.357   6.867   4.608 -1.7948 -0.0226  2.0447
  388MOL0     H52356  10.454   6.949   4.889  1.6358  0.3679 -0.9980
  388MOL0     H52357  10.306   6.859   4.850 -1.7449  0.6633 -0.0182
  388MOL0     H52358  10.498   6.715   4.929  1.9884 -1.4615  0.2821
  388MOL0     H52359  10.591   6.753   4.789 -1.3648  2.1380 -1.5954
  388MOL0     H52360  10.470   6.650   4.648  2.1684  0.7301  2.0671
  388MOL0     H52361  10.313   6.654   4.719  1.0376  1.8448 -1.0058
  388MOL0     H52362  10.263   7.637   4.481 -2.9055 -0.1593  0.8221
  388MOL0     H52363  10.354   7.851   4.476  1.6436 -1.5950 -1.1638
  388MOL0     H52364  10.440   8.280   4.412  0.7695 -3.9385  1.3126
  388MOL0     H52365  10.566   8.490   4.397 -2.0105 -0.6344 -0.2436
  388MOL0     H52366   9.890   8.754   4.403 -3.0159 -4.7389 -1.2685
  388MOL0     H52367   9.672   8.644   4.353  0.8907 -0.6961  1.1354
  388MOL0     H52368   9.212   8.862   4.034  2.4550 -1.0372  0.2105
  388MOL0     H52369   9.019   8.718   3.952 -1.1274  1.6963  1.4022
  388MOL0     H52370   8.988   8.319   4.104 -1.5707 -2.2583 -0.4097
  388MOL0     H52371   8.858   8.394   4.203  1.1928 -1.1640  0.9690
  388MOL0     H52372   8.806   8.212   4.056  1.3604  1.0463  3.1748
  388MOL0     H52373   8.846   8.303   3.912  0.2905 -2.5714  0.0693
  388MOL0     H52374   8.654   8.454   3.941  0.9129 -1.0202 -1.7470
  388MOL0     H52375   8.656   8.409   4.113  0.1862  0.8552 -0.1418
  388MOL0     H52376   8.469   8.314   3.971  1.0132  1.3673  1.5437
  388MOL0     H52377   8.556   8.182   4.031  2.0589  0.6809  1.9450
  388MOL0     H52378   8.646   8.141   3.631 -2.4038  1.6026 -0.5300
  388MOL0     H52379   9.072   8.453   4.276  1.2512  0.4356  0.7938
  388MOL0     H52380   9.257   8.557   4.349 -1.4654  1.1559  1.1009
  389MOL0     O52381  11.236   6.226   7.928 -0.9103  0.1015 -0.0016
  389MOL0     C52382  11.170   6.289   7.844 -0.4198  0.1767  0.4487
  389MOL0     O52383  11.200   6.290   7.699  0.0645  0.3084 -0.6572
  389MOL0     C52384  11.292   6.203   7.654  0.3443  0.3211 -0.0781
  389MOL0     C52385  11.396   6.255   7.576 -0.7163  0.5857 -0.4823
  389MOL0     C52386  11.498   6.176   7.537  0.3277 -0.5759 -1.1843
  389MOL0     C52387  11.491   6.039   7.541 -0.3204  0.9455  0.2436
  389MOL0     O52388  11.591   5.955   7.484  0.3403  0.4597 -0.8968
  389MOL0     C52389  11.704   6.012   7.409  0.7568  0.2120  0.5772
  389MOL0     C52390  11.667   6.050   7.263  0.0550  0.6823  0.1714
  389MOL0     C52391  11.583   5.953   7.185 -0.6552  0.2218  0.0184
  389MOL0     C52392  11.584   5.996   7.039 -0.0649  0.5117  0.5449
  389MOL0     C52393  11.465   5.928   6.965  0.3960 -0.7682  0.7033
  389MOL0     C52394  11.493   5.781   6.920  0.4253  0.4585 -0.1282
  389MOL0     C52395  11.604   5.755   6.824  0.5732 -0.0994  0.4177
  389MOL0     C52396  11.565   5.739   6.681  0.3677  0.3207 -0.0693
  389MOL0     N52397  11.500   5.858   6.636  0.6987 -0.0186  0.3773
  389MOL0     C52398  11.548   5.982   6.613  0.0029 -0.0976  0.6649
  389MOL0     C52399  11.451   6.052   6.541 -0.0537  0.1287  0.9740
  389MOL0     C52400  11.454   6.196   6.505  0.3757  0.4196  0.9610
  389MOL0     C52401  11.447   6.281   6.630  0.6579 -0.4852  0.8769
  389MOL0     C52402  11.420   6.421   6.575 -0.0900 -0.0944 -0.1224
  389MOL0     C52403  11.271   6.453   6.556  0.0967  0.0189 -0.0238
  389MOL0     O52404  11.243   6.582   6.501 -0.1747 -0.1721 -0.6169
  389MOL0     C52405  11.105   6.600   6.466 -1.1125  0.0047  0.3180
  389MOL0     C52406  11.069   6.726   6.402 -0.6039 -0.0256  0.4525
  389MOL0     C52407  10.939   6.750   6.357 -0.5870 -0.8265  0.5614
  389MOL0     C52408  10.927   6.883   6.283  0.7169  0.3651 -0.1992
  389MOL0     C52409  10.834   6.656   6.383 -0.4835  0.2947  0.2081
  389MOL0     C52410  10.692   6.678   6.356  0.3286  0.6162  0.1338
  389MOL0     O52411  10.635   6.563   6.319  0.0597 -0.0376 -0.2045
  389MOL0     C52412  10.504   6.532   6.345 -0.1340 -0.8935 -0.1451
  389MOL0     C52413  10.452   6.429   6.270 -0.4657 -1.3227  0.3752
  389MOL0     C52414  10.328   6.387   6.295  0.3591  0.2178  0.4815
  389MOL0     C52415  10.241   6.456   6.373 -0.2430 -0.1582 -1.1039
  389MOL0     O52416  10.108   6.428   6.401 -0.0837  0.0933  0.2811
  389MOL0     C52417  10.033   6.340   6.324  1.0464  0.6950 -0.1000
  389MOL0     C52418   9.916   6.408   6.243 -0.9195 -0.4994 -0.1467
  389MOL0     C52419   9.829   6.507   6.338  0.1308  0.2025  0.7186
  389MOL0     C52420   9.705   6.559   6.261 -0.3510  0.5930  0.8146
  389MOL0     C52421   9.576   6.571   6.347  0.4597 -0.0259  0.6068
  389MOL0     C52422   9.591   6.646   6.481  0.2333 -0.4813 -0.2492
  389MOL0     C52423   9.485   6.614   6.582 -0.1442  0.3502  0.0886
  389MOL0     C52424   9.478   6.724   6.679  0.2074 -1.1222 -0.6408
  389MOL0    Cl52425   9.376   6.856   6.620 -0.4183 -0.0812 -0.3927
  389MOL0     C52426  10.291   6.565   6.450  0.0995  0.8239 -0.1350
  389MOL0     C52427  10.420   6.605   6.433  0.5025  0.2184 -0.6787
  389MOL0     O52428  10.639   6.783   6.364 -0.3133 -0.2800 -0.5217
  389MOL0     C52429  10.866   6.534   6.449 -0.1832 -0.3233 -0.8440
  389MOL0     C52430  11.004   6.507   6.485  1.1326 -0.5304 -0.3816
  389MOL0     N52431  11.349   5.960   6.511 -0.1772 -0.3537 -0.2338
  389MOL0     N52432  11.371   5.847   6.570  1.2109 -0.0680  0.3564
  389MOL0     C52433  11.377   5.984   7.599 -0.0182  0.3282  0.6937
  389MOL0     C52434  11.280   6.058   7.666  0.2845  0.6543  0.2102
  389MOL0     C52435  11.070   6.377   7.907  0.2836 -0.3196 -0.0513
  389MOL0     C52436  11.065   6.389   8.042  0.3502 -0.2855 -0.5032
  389MOL0     C52437  10.975   6.480   8.092 -0.0579  0.2425  0.1757
  389MOL0     C52438  10.893   6.557   8.011 -0.4271  0.0343 -0.4999
  389MOL0     O52439  10.826   6.650   8.089  0.7066  0.2201  0.0758
  389MOL0     C52440  10.749   6.743   8.005 -0.2011 -0.1677 -0.5204
  389MOL0     C52441  10.702   6.852   8.100  0.1272  0.7350 -0.2788
  389MOL0     C52442  10.818   6.936   8.177  1.1543  0.0768 -0.8580
  389MOL0     C52443  10.905   7.022   8.091 -0.0486 -0.1821  1.2584
  389MOL0     C52444  11.003   6.946   8.019 -0.5373  0.5783  0.2691
  389MOL0     C52445  11.065   6.892   7.931  0.3095  0.5830  0.0410
  389MOL0     C52446  10.914   6.545   7.871  0.1053 -0.1570  0.4898
  389MOL0     C52447  10.988   6.444   7.817 -0.5350 -0.5376 -1.0965
  389MOL0     H52448  11.416   6.362   7.580 -0.7535  0.6464  4.1922
  389MOL0     H52449  11.593   6.224   7.516  0.6477 -1.8100 -2.7348
  389MOL0     H52450  11.763   6.089   7.459  0.3693 -1.6466  4.2856
  389MOL0     H52451  11.769   5.924   7.401  0.9981  0.4357  0.0349
  389MOL0     H52452  11.606   6.142   7.261 -1.0992  0.0658  2.9229
  389MOL0     H52453  11.768   6.057   7.221  1.6614  1.5764  3.8278
  389MOL0     H52454  11.618   5.852   7.205  2.3445  1.2071  0.2727
  389MOL0     H52455  11.484   5.968   7.228 -0.3045  0.9822  0.5926
  389MOL0     H52456  11.572   6.104   7.034 -2.2973  0.3946  1.7987
  389MOL0     H52457  11.683   5.966   7.005 -0.4209  0.7719 -0.7479
  389MOL0     H52458  11.377   5.930   7.030  1.3525 -2.0028  2.1315
  389MOL0     H52459  11.437   5.989   6.879 -1.8752  0.1628  2.0021
  389MOL0     H52460  11.530   5.726   7.007  0.8375 -1.0770 -1.2345
  389MOL0     H52461  11.394   5.740   6.897  0.2146  0.1954  1.1565
  389MOL0     H52462  11.675   5.838   6.827  0.0042  0.3766  0.8153
  389MOL0     H52463  11.669   5.669   6.845  1.9298  0.9142  0.5569
  389MOL0     H52464  11.502   5.650   6.677  1.7475 -0.6883  0.1278
  389MOL0     H52465  11.657   5.737   6.621  0.3504 -2.3006 -0.0893
  389MOL0     H52466  11.638   6.030   6.648  1.3368 -1.8059 -0.2408
  389MOL0     H52467  11.546   6.219   6.451 -1.7548 -3.3044 -5.3131
  389MOL0     H52468  11.367   6.216   6.441 -0.5882 -3.8345  0.6733
  389MOL0     H52469  11.543   6.282   6.682  0.7913  2.1644  0.6797
  389MOL0     H52470  11.371   6.260   6.706  1.7012 -1.5019  1.6955
  389MOL0     H52471  11.476   6.427   6.481 -0.1042 -1.5211 -0.2499
  389MOL0     H52472  11.467   6.489   6.646  0.7897 -1.7522  0.9402
  389MOL0     H52473  11.215   6.436   6.648 -0.6657 -1.6788 -0.7556
  389MOL0     H52474  11.228   6.398   6.472 -2.2728  3.7890 -1.4950
  389MOL0     H52475  11.149   6.798   6.390 -1.2576  0.6137 -0.1549
  389MOL0     H52476  11.017   6.941   6.305  1.2010 -1.0172  1.7670
  389MOL0     H52477  10.915   6.857   6.178 -1.8935 -1.4263  0.4404
  389MOL0     H52478  10.834   6.935   6.311 -0.7746 -1.6818 -1.1367
  389MOL0     H52479  10.524   6.383   6.204  2.3803  0.1820  2.2039
  389MOL0     H52480  10.292   6.309   6.229 -0.4523  1.2923 -0.3871
  389MOL0     H52481  10.096   6.292   6.250  1.3627 -0.8145  1.0986
  389MOL0     H52482   9.987   6.258   6.380 -0.1330  0.9228 -0.6894
  389MOL0     H52483   9.953   6.472   6.163 -2.5357 -0.0834 -0.6024
  389MOL0     H52484   9.864   6.326   6.192  0.1537 -0.7625 -0.8411
  389MOL0     H52485   9.878   6.594   6.384 -3.3112  1.2715  2.7482
  389MOL0     H52486   9.795   6.453   6.426  0.9160  1.0891  1.5961
  389MOL0     H52487   9.725   6.656   6.214 -0.3455 -0.6509 -1.9667
  389MOL0     H52488   9.689   6.497   6.172  1.1940 -0.5417  1.2754
  389MOL0     H52489   9.542   6.470   6.368  0.4299 -0.2004 -0.2519
  389MOL0     H52490   9.489   6.612   6.295  0.8749  0.7813  0.5275
  389MOL0     H52491   9.693   6.625   6.517  0.4384  0.1130 -0.4662
  389MOL0     H52492   9.596   6.749   6.445  1.2156 -1.2039 -2.3376
  389MOL0     H52493   9.497   6.513   6.622 -1.8797 -0.7450 -1.9636
  389MOL0     H52494   9.389   6.598   6.531  0.4238  1.2222 -1.3120
  389MOL0     H52495   9.575   6.768   6.703 -0.7665 -0.1588  1.9842
  389MOL0     H52496   9.454   6.681   6.777 -0.1125 -2.0381 -1.1144
  389MOL0     H52497  10.239   6.597   6.540  3.7303 -0.5574  2.7180
  389MOL0     H52498  10.450   6.690   6.494 -1.7097 -0.2965  1.2760
  389MOL0     H52499  10.790   6.460   6.472 -0.9137  0.6450 -0.0701
  389MOL0     H52500  11.025   6.406   6.519  2.5470 -0.7726 -1.8556
  389MOL0     H52501  11.377   5.875   7.603 -2.2151  0.2706  0.1870
  389MOL0     H52502  11.194   6.012   7.714  0.0981 -1.8314 -2.2623
  389MOL0     H52503  11.126   6.337   8.116 -1.4483  0.7490  1.8215
  389MOL0     H52504  10.963   6.484   8.200 -0.7489  1.4810  0.0746
  389MOL0     H52505  10.813   6.787   7.929  2.0042 -1.0397  0.7449
  389MOL0     H52506  10.662   6.696   7.959 -1.8850  2.3184 -0.0727
  389MOL0     H52507  10.635   6.805   8.172  0.6256 -0.5625 -0.6295
  389MOL0     H52508  10.649   6.924   8.037  0.7402  0.6286 -0.9330
  389MOL0     H52509  10.876   6.868   8.240 -1.5224 -0.2598  1.4358
  389MOL0     H52510  10.769   6.994   8.256 -0.2462 -4.5942  2.0996
  389MOL0     H52511  10.955   7.095   8.155 -3.7007  1.6261  2.3374
  389MOL0     H52512  10.850   7.076   8.013 -0.1039 -1.9062  0.0573
  389MOL0     H52513  11.116   6.843   7.851 -0.3245  0.9832 -0.6228
  389MOL0     H52514  10.866   6.616   7.805 -0.4680 -1.8803 -1.0425
  389MOL0     H52515  10.987   6.433   7.709  0.9974 -2.5844 -0.9637
  390MOL0     O52516   6.487   0.610   1.421  0.1102 -0.4949 -0.2442
  390MOL0     C52517   6.417   0.593   1.328 -0.8132  0.1235  0.2064
  390MOL0     O52518   6.468   0.599   1.204  0.6891 -0.1576  1.0989
  390MOL0     C52519   6.602   0.646   1.196  0.3799 -0.0320  0.5908
  390MOL0     C52520   6.633   0.772   1.151 -1.2264 -1.1646  0.3695
  390MOL0     C52521   6.764   0.813   1.120  0.5988  0.8526 -0.0764
  390MOL0     C52522   6.871   0.725   1.154 -0.1908 -0.5529  0.1705
  390MOL0     O52523   6.999   0.767   1.142 -0.7095  0.5911 -0.4503
  390MOL0     C52524   7.051   0.875   1.219 -0.4872 -0.1794 -0.2718
  390MOL0     C52525   7.105   0.822   1.348  0.0134 -0.4097  0.2955
  390MOL0     C52526   7.218   0.724   1.362  0.5596  0.0942  0.6896
  390MOL0     C52527   7.324   0.734   1.246  0.2256 -0.0673 -0.0221
  390MOL0     C52528   7.402   0.864   1.261 -0.3816  0.2425 -0.4959
  390MOL0     C52529   7.515   0.880   1.162 -0.1830  0.2570 -1.3243
  390MOL0     C52530   7.558   1.026   1.151  0.4418  0.3381 -0.3566
  390MOL0     C52531   7.636   1.082   1.271 -0.1146 -0.7677 -0.2045
  390MOL0     N52532   7.699   1.213   1.240  0.9923  0.2204 -0.9896
  390MOL0     C52533   7.681   1.318   1.325 -0.5371  0.3421  0.5155
  390MOL0     C52534   7.770   1.410   1.272  0.4505 -0.0396 -0.2253
  390MOL0     C52535   7.779   1.550   1.305 -0.3242 -0.6614 -0.5757
  390MOL0     C52536   7.865   1.564   1.437  0.4869 -0.2969  1.0429
  390MOL0     C52537   7.780   1.517   1.562 -0.3338  0.6277 -0.0450
  390MOL0     C52538   7.822   1.578   1.697 -1.1247 -0.1002  0.1259
  390MOL0     O52539   7.744   1.538   1.801 -0.1658  0.2088 -0.4797
  390MOL0     C52540   7.626   1.593   1.831 -0.1362 -0.6189  0.3971
  390MOL0     C52541   7.552   1.546   1.943  0.4346  0.7759 -0.4250
  390MOL0     C52542   7.429   1.607   1.979  0.0564 -0.3259  1.0525
  390MOL0     C52543   7.358   1.543   2.081  0.7170  0.9906 -0.1453
  390MOL0     C52544   7.377   1.718   1.901  0.0278  0.9380  0.0616
  390MOL0     C52545   7.265   1.805   1.939  0.8445 -0.5174  0.2718
  390MOL0     O52546   7.219   1.783   2.065 -0.2464  0.0216  0.1080
  390MOL0     C52547   7.113   1.846   2.125 -0.1281  0.5785 -0.7884
  390MOL0     C52548   7.085   1.807   2.252 -0.1911 -0.3788 -0.2767
  390MOL0     C52549   6.961   1.850   2.317  0.3982  0.1861  0.4099
  390MOL0     C52550   6.869   1.940   2.255 -0.0941 -0.3167  0.2462
  390MOL0     O52551   6.757   1.963   2.329  0.8058 -0.4297  0.0424
  390MOL0     C52552   6.701   2.091   2.301 -0.9859  0.4127  0.5962
  390MOL0     C52553   6.594   2.125   2.417 -0.2131  0.4877 -0.8428
  390MOL0     C52554   6.470   2.035   2.417 -0.5789 -0.3169  0.2550
  390MOL0     C52555   6.409   2.027   2.559  0.3213 -0.4199 -0.5466
  390MOL0     C52556   6.289   2.121   2.576  0.0603 -0.6082 -0.8346
  390MOL0     C52557   6.335   2.262   2.601 -0.4124  0.4732  0.8169
  390MOL0     C52558   6.220   2.356   2.641  0.4627 -0.3650 -0.0101
  390MOL0     C52559   6.256   2.505   2.641 -0.8250  0.7388  0.6509
  390MOL0    Cl52560   6.394   2.530   2.750  0.4722 -0.1789 -0.0001
  390MOL0     C52561   6.909   1.982   2.122  0.3918  0.1613 -0.4855
  390MOL0     C52562   7.023   1.930   2.063 -0.2145  0.0922  0.1154
  390MOL0     O52563   7.251   1.909   1.877  0.0665 -1.2140 -0.3581
  390MOL0     C52564   7.451   1.756   1.782  0.3045  0.3019 -0.6624
  390MOL0     C52565   7.571   1.693   1.750 -0.1177  0.2332  0.1876
  390MOL0     N52566   7.844   1.349   1.181  0.1972  0.7668  0.6634
  390MOL0     N52567   7.796   1.236   1.154 -0.4406  0.0118 -0.0511
  390MOL0     C52568   6.842   0.601   1.209 -0.3683 -0.4725  0.1257
  390MOL0     C52569   6.713   0.560   1.235  0.7807 -0.4163  1.4363
  390MOL0     C52570   6.272   0.553   1.337 -0.3617 -0.0343  0.0364
  390MOL0     C52571   6.184   0.544   1.225  0.4523  0.0011 -0.3729
  390MOL0     C52572   6.053   0.533   1.244 -0.3271  0.3421 -0.1611
  390MOL0     C52573   5.994   0.528   1.371  0.8391 -0.9300  0.2842
  390MOL0     O52574   5.857   0.529   1.368  1.3796 -1.0580 -0.1151
  390MOL0     C52575   5.780   0.450   1.457 -0.9493 -0.9261 -0.1975
  390MOL0     C52576   5.711   0.328   1.379 -0.7823 -1.1724  0.7251
  390MOL0     C52577   5.593   0.288   1.461  0.5864 -0.0436 -0.3542
  390MOL0     C52578   5.516   0.174   1.404  0.6976  0.8340 -0.3574
  390MOL0     C52579   5.461   0.206   1.280  0.0905  0.3073 -0.2663
  390MOL0     C52580   5.440   0.254   1.173  0.2568 -0.0824  1.1465
  390MOL0     C52581   6.069   0.530   1.479 -1.0440  0.0223  0.3667
  390MOL0     C52582   6.206   0.545   1.459 -0.3815  0.1224 -0.3290
  390MOL0     H52583   6.552   0.842   1.133 -0.2646 -0.3713 -1.0716
  390MOL0     H52584   6.778   0.913   1.082  2.2983 -0.3637 -3.0001
  390MOL0     H52585   7.124   0.925   1.154 -1.6140  2.7105  0.5451
  390MOL0     H52586   6.974   0.950   1.242  1.3855  2.6480 -2.4703
  390MOL0     H52587   7.153   0.911   1.390 -0.0781 -1.3042  2.4286
  390MOL0     H52588   7.026   0.793   1.418  1.5955 -3.7788  0.8623
  390MOL0     H52589   7.274   0.744   1.453  1.7415  1.3730 -0.2654
  390MOL0     H52590   7.178   0.622   1.362  0.2593  0.1613 -1.3335
  390MOL0     H52591   7.400   0.656   1.240  3.4911  2.9792 -1.7205
  390MOL0     H52592   7.260   0.722   1.158 -0.9712 -0.0354  0.8031
  390MOL0     H52593   7.337   0.952   1.254 -1.6255 -0.8082 -3.7791
  390MOL0     H52594   7.456   0.870   1.356 -0.6971  0.2187 -0.3116
  390MOL0     H52595   7.607   0.824   1.179 -0.5948  0.6686  4.0414
  390MOL0     H52596   7.477   0.836   1.070 -0.2511  0.0068 -1.1756
  390MOL0     H52597   7.617   1.040   1.060  2.8077  0.8592  1.1697
  390MOL0     H52598   7.481   1.102   1.132  0.9533  0.7836 -0.6849
  390MOL0     H52599   7.702   1.005   1.312 -1.1297 -1.0588  0.9036
  390MOL0     H52600   7.570   1.085   1.357  1.4099 -3.6574  1.2093
  390MOL0     H52601   7.593   1.317   1.388  0.8170 -0.1998  2.4582
  390MOL0     H52602   7.820   1.591   1.212  0.0957 -1.8969 -0.9517
  390MOL0     H52603   7.674   1.577   1.323  0.2466  0.6975  0.9898
  390MOL0     H52604   7.888   1.669   1.454 -0.8191 -0.0181  1.1307
  390MOL0     H52605   7.963   1.516   1.427  1.8445  2.7552 -2.5784
  390MOL0     H52606   7.791   1.408   1.567 -0.8498  0.5631 -0.2273
  390MOL0     H52607   7.672   1.538   1.560 -0.5639  1.2983  5.0407
  390MOL0     H52608   7.837   1.686   1.691  0.4180 -0.2240  1.0676
  390MOL0     H52609   7.921   1.541   1.723 -1.4125  0.8608  2.9100
  390MOL0     H52610   7.597   1.462   1.995  1.3575  0.3770 -1.8278
  390MOL0     H52611   7.379   1.590   2.178  0.1848  0.5211  0.1991
  390MOL0     H52612   7.253   1.542   2.050  1.4225  1.6904 -2.8505
  390MOL0     H52613   7.394   1.441   2.072  3.5599  2.0663 -2.8281
  390MOL0     H52614   7.161   1.755   2.309  0.6589 -0.5066 -1.5061
  390MOL0     H52615   6.937   1.809   2.414  0.3370 -1.8045 -0.3990
  390MOL0     H52616   6.777   2.170   2.310 -0.0312 -0.6743  3.2376
  390MOL0     H52617   6.665   2.101   2.198 -1.2414 -0.9570  0.5393
  390MOL0     H52618   6.649   2.117   2.511  2.9883 -2.3491 -2.7603
  390MOL0     H52619   6.558   2.229   2.417 -0.4161  0.4182 -0.6595
  390MOL0     H52620   6.505   1.937   2.384 -1.3462 -0.7173  0.5966
  390MOL0     H52621   6.391   2.065   2.348 -1.0828 -0.7311  0.6431
  390MOL0     H52622   6.372   1.925   2.573 -1.7050  0.1763 -1.2351
  390MOL0     H52623   6.475   2.026   2.646 -1.6650  1.7435  1.1016
  390MOL0     H52624   6.233   2.087   2.664 -0.8858  0.5536 -0.9599
  390MOL0     H52625   6.222   2.121   2.490  1.1167 -2.1227 -1.6924
  390MOL0     H52626   6.424   2.261   2.665  0.5536 -3.9769 -0.2315
  390MOL0     H52627   6.371   2.304   2.507  2.8605  0.3414  1.8811
  390MOL0     H52628   6.179   2.340   2.741 -3.3839 -0.4574 -1.4327
  390MOL0     H52629   6.136   2.336   2.574  1.4337  2.5308 -2.3201
  390MOL0     H52630   6.165   2.560   2.664  0.0589  2.6927 -0.3211
  390MOL0     H52631   6.286   2.539   2.542  2.2625 -0.5122  1.0425
  390MOL0     H52632   6.839   2.040   2.062  4.5394  2.5241 -3.5569
  390MOL0     H52633   7.035   1.962   1.960 -1.8918 -1.8675 -0.7892
  390MOL0     H52634   7.418   1.840   1.720 -0.5038  1.6827  1.5023
  390MOL0     H52635   7.621   1.729   1.661 -3.7566  0.7409 -1.8431
  390MOL0     H52636   6.925   0.536   1.237  0.0269  0.1512  0.4163
  390MOL0     H52637   6.694   0.463   1.279  0.2181 -0.6050  0.8074
  390MOL0     H52638   6.235   0.548   1.129 -0.3233  1.6207 -0.7504
  390MOL0     H52639   5.988   0.526   1.157 -0.3589  1.9795 -0.2895
  390MOL0     H52640   5.835   0.427   1.548  1.6159  1.7218 -0.9453
  390MOL0     H52641   5.698   0.516   1.488  0.6670  2.2135 -2.1063
  390MOL0     H52642   5.787   0.250   1.371  0.5214  0.2500 -2.5996
  390MOL0     H52643   5.691   0.357   1.275 -0.4996 -1.5842  0.5519
  390MOL0     H52644   5.524   0.373   1.456  0.0872 -0.3606  0.8819
  390MOL0     H52645   5.617   0.285   1.568 -0.9904  1.7628  0.1047
  390MOL0     H52646   5.427   0.148   1.462  0.3362 -0.3546 -1.4168
  390MOL0     H52647   5.581   0.087   1.411 -0.1780  0.1651 -0.5029
  390MOL0     H52648   5.425   0.295   1.075  2.4310 -1.2394  0.2657
  390MOL0     H52649   6.029   0.514   1.578  0.8936 -2.8876  0.8039
  390MOL0     H52650   6.274   0.541   1.544  1.5687 -1.5137 -1.8334
  391MOL0     O52651   2.481   1.184   4.963 -0.4840 -0.5841 -0.2526
  391MOL0     C52652   2.395   1.241   5.021 -0.3363  0.6002 -0.4058
  391MOL0     O52653   2.392   1.275   5.151 -0.1404  0.7527 -0.4841
  391MOL0     C52654   2.507   1.249   5.219 -0.3231 -0.6339 -0.3104
  391MOL0     C52655   2.560   1.121   5.228 -0.4307  0.6870  0.6747
  391MOL0     C52656   2.668   1.093   5.316 -0.8207 -0.3487  1.1092
  391MOL0     C52657   2.717   1.195   5.391 -0.1002 -0.4114  0.0666
  391MOL0     O52658   2.804   1.168   5.488  0.2586 -0.6938 -0.0631
  391MOL0     C52659   2.939   1.184   5.432  0.8022  0.1321  0.0279
  391MOL0     C52660   3.031   1.070   5.472  0.2843 -1.3151  0.7327
  391MOL0     C52661   3.023   0.947   5.375  0.4040 -0.7438  0.4377
  391MOL0     C52662   3.098   0.825   5.437  0.1792  0.4420  0.1150
  391MOL0     C52663   3.061   0.700   5.346  0.1693 -1.1330 -0.1981
  391MOL0     C52664   3.003   0.574   5.416 -0.1454  0.6618  0.7602
  391MOL0     C52665   2.854   0.602   5.437  0.6783 -0.1095 -0.2665
  391MOL0     C52666   2.778   0.499   5.520 -0.3740 -0.9918 -0.4376
  391MOL0     N52667   2.632   0.535   5.516 -0.1379  0.0643 -0.2644
  391MOL0     C52668   2.576   0.638   5.593 -0.0229 -0.1093  0.1779
  391MOL0     C52669   2.442   0.636   5.570  0.4883 -0.6129  0.3166
  391MOL0     C52670   2.358   0.760   5.601 -0.2261  0.8139 -0.4059
  391MOL0     C52671   2.268   0.760   5.719 -0.7872 -0.0862 -0.1977
  391MOL0     C52672   2.184   0.894   5.728 -0.9475  0.6675 -0.1455
  391MOL0     C52673   2.092   0.884   5.847 -1.4463  0.1790  0.2649
  391MOL0     O52674   2.173   0.870   5.962 -0.4957 -0.1373 -0.6236
  391MOL0     C52675   2.128   0.893   6.088  0.4773 -0.7702  0.2425
  391MOL0     C52676   2.199   0.845   6.202  0.3025 -0.3615  0.8252
  391MOL0     C52677   2.167   0.851   6.336  0.0731  0.1862  0.0294
  391MOL0     C52678   2.254   0.795   6.442  0.1252 -0.8736 -0.2591
  391MOL0     C52679   2.046   0.913   6.366  0.3222  0.1188  0.1059
  391MOL0     C52680   2.003   0.953   6.512 -0.7095 -0.0751  1.0987
  391MOL0     O52681   1.943   1.068   6.525  0.2392  0.1096 -1.0765
  391MOL0     C52682   1.915   1.118   6.654  0.2542 -0.3712 -0.3031
  391MOL0     C52683   2.013   1.121   6.752 -0.2480 -0.0029  0.1664
  391MOL0     C52684   1.990   1.177   6.878 -0.0179 -1.0804 -0.3123
  391MOL0     C52685   1.863   1.228   6.914  0.6476 -0.0023  0.6428
  391MOL0     O52686   1.848   1.280   7.036  0.1966  0.4859 -0.1167
  391MOL0     C52687   1.761   1.391   7.063  0.4240  0.5783  0.3778
  391MOL0     C52688   1.730   1.375   7.214  0.7971 -0.3499 -0.1071
  391MOL0     C52689   1.647   1.493   7.268  0.6553 -0.2265  0.6518
  391MOL0     C52690   1.506   1.494   7.188 -0.1289 -0.2230 -0.6639
  391MOL0     C52691   1.402   1.579   7.260 -0.5064 -0.4197 -0.2224
  391MOL0     C52692   1.254   1.549   7.219 -0.1125  0.1029 -0.4685
  391MOL0     C52693   1.157   1.634   7.311 -1.2116  0.1259  0.3011
  391MOL0     C52694   1.019   1.569   7.287  0.0731 -0.9560 -0.0807
  391MOL0    Cl52695   0.991   1.431   7.400  0.0984 -0.4810  0.2082
  391MOL0     C52696   1.763   1.239   6.806 -0.0751  0.1139 -1.5451
  391MOL0     C52697   1.793   1.177   6.683 -0.2103  0.4647 -0.0927
  391MOL0     O52698   2.020   0.870   6.595  0.2012 -0.2658 -0.8636
  391MOL0     C52699   1.976   0.968   6.264 -0.2204 -0.2436  0.4888
  391MOL0     C52700   2.000   0.949   6.126 -0.6871  0.7344 -0.1236
  391MOL0     N52701   2.416   0.523   5.495 -0.4738 -0.2442  0.6865
  391MOL0     N52702   2.525   0.460   5.461 -0.1322  0.3653 -0.2016
  391MOL0     C52703   2.660   1.324   5.393 -0.7588  0.1772 -0.4363
  391MOL0     C52704   2.559   1.350   5.302 -0.7076 -0.1352  0.2611
  391MOL0     C52705   2.276   1.272   4.940  0.6488  0.4614 -0.2490
  391MOL0     C52706   2.195   1.391   4.979  0.6307  0.7574  0.3059
  391MOL0     C52707   2.074   1.413   4.904 -0.7667 -0.4314  0.2147
  391MOL0     C52708   2.053   1.352   4.783  0.3116 -0.2531 -0.5959
  391MOL0     O52709   1.951   1.405   4.720  0.1183 -0.3281 -0.0665
  391MOL0     C52710   1.859   1.318   4.646 -0.3145  0.1723 -1.2757
  391MOL0     C52711   1.723   1.326   4.720  0.0247  0.8093  0.3148
  391MOL0     C52712   1.727   1.286   4.862 -0.5971 -0.3586  0.0153
  391MOL0     C52713   1.703   1.405   4.958 -0.1337  0.1445 -0.0055
  391MOL0     C52714   1.751   1.374   5.092  0.4443 -0.2773  0.3321
  391MOL0     C52715   1.756   1.350   5.216  0.2680  0.1298 -0.2399
  391MOL0     C52716   2.145   1.252   4.736  0.1930  0.7702  0.6381
  391MOL0     C52717   2.256   1.214   4.815  0.5104  0.0309  0.3995
  391MOL0     H52718   2.514   1.041   5.171 -1.0924  0.9599  0.8169
  391MOL0     H52719   2.715   0.996   5.331  1.6502  0.2451 -1.6945
  391MOL0     H52720   2.937   1.192   5.323 -2.3265  0.9358  0.0487
  391MOL0     H52721   2.969   1.281   5.474 -0.5864 -0.4597  2.6541
  391MOL0     H52722   3.129   1.116   5.489 -0.7209  0.5893  1.7635
  391MOL0     H52723   2.987   1.038   5.567 -1.8522  1.6237  0.8548
  391MOL0     H52724   2.919   0.913   5.371  0.3497 -0.5423  0.0868
  391MOL0     H52725   3.058   0.976   5.275  0.1902  0.3361  0.6562
  391MOL0     H52726   3.207   0.833   5.435  0.2987  0.1311  2.5706
  391MOL0     H52727   3.061   0.823   5.540 -2.3766 -0.2682 -0.7446
  391MOL0     H52728   2.990   0.736   5.271  0.3962  0.9182  0.4975
  391MOL0     H52729   3.146   0.659   5.290  1.0183  0.4335 -0.1134
  391MOL0     H52730   3.006   0.482   5.357  1.0719  1.2492 -0.1134
  391MOL0     H52731   3.055   0.552   5.510 -0.3870 -2.5120  0.2347
  391MOL0     H52732   2.845   0.699   5.487 -2.5074  0.7021 -2.1241
  391MOL0     H52733   2.813   0.611   5.336  2.3174  2.4116 -0.7777
  391MOL0     H52734   2.810   0.499   5.625 -0.9228 -2.5391 -0.2432
  391MOL0     H52735   2.793   0.396   5.484 -1.8768 -1.8838  1.2859
  391MOL0     H52736   2.635   0.714   5.643  0.1585  0.9086 -1.4887
  391MOL0     H52737   2.441   0.827   5.626  0.3651  1.1752 -3.0001
  391MOL0     H52738   2.298   0.789   5.514 -3.4195  1.0004  1.6835
  391MOL0     H52739   2.318   0.739   5.814  0.9740  3.6662 -0.1031
  391MOL0     H52740   2.190   0.684   5.710  1.4009 -2.5564  0.3994
  391MOL0     H52741   2.130   0.920   5.636 -1.2845  1.2828  0.2208
  391MOL0     H52742   2.259   0.971   5.747 -0.5314  0.1773  0.2165
  391MOL0     H52743   2.026   0.797   5.837 -2.2824  0.9760 -1.5315
  391MOL0     H52744   2.024   0.968   5.833  0.1530  1.4022 -0.4420
  391MOL0     H52745   2.298   0.809   6.177  0.2768  1.6911 -2.9914
  391MOL0     H52746   2.208   0.727   6.514 -0.2943 -1.7046 -1.2867
  391MOL0     H52747   2.335   0.735   6.400 -0.4327 -1.2805 -0.7620
  391MOL0     H52748   2.297   0.877   6.500 -3.0791  1.2479 -0.6244
  391MOL0     H52749   2.115   1.088   6.732 -0.9538 -2.0649 -0.2583
  391MOL0     H52750   2.067   1.175   6.954 -0.3804  0.6640  0.1335
  391MOL0     H52751   1.810   1.488   7.049 -0.4383  0.8670 -0.8109
  391MOL0     H52752   1.676   1.391   6.994 -0.2321 -0.9445  1.1429
  391MOL0     H52753   1.678   1.283   7.242 -1.8342  0.9746 -0.3442
  391MOL0     H52754   1.829   1.373   7.261  1.0916  2.3785 -0.4572
  391MOL0     H52755   1.691   1.589   7.241  2.2681 -1.2040 -0.4165
  391MOL0     H52756   1.648   1.474   7.376  0.1328 -1.5197  0.4514
  391MOL0     H52757   1.524   1.517   7.083 -0.1345 -1.1838 -0.8810
  391MOL0     H52758   1.457   1.396   7.192 -3.7374  1.4306 -0.8334
  391MOL0     H52759   1.409   1.686   7.240 -0.1487 -0.5490 -0.8437
  391MOL0     H52760   1.415   1.566   7.367  0.6692  1.8457 -0.0358
  391MOL0     H52761   1.238   1.579   7.115 -3.1243  0.8964  0.1349
  391MOL0     H52762   1.236   1.444   7.241  1.0164 -0.0569 -0.2190
  391MOL0     H52763   1.157   1.739   7.280  0.9872 -0.5158 -2.1791
  391MOL0     H52764   1.175   1.617   7.418 -0.5892 -0.4154  0.1151
  391MOL0     H52765   1.008   1.535   7.184  0.2861  0.6392 -0.6524
  391MOL0     H52766   0.934   1.633   7.312  0.9981 -0.5448  2.3026
  391MOL0     H52767   1.670   1.285   6.836 -0.7069 -2.9767  2.1381
  391MOL0     H52768   1.725   1.177   6.598 -0.6369  2.1958  0.2133
  391MOL0     H52769   1.887   1.029   6.276  1.2174  1.9399  0.5351
  391MOL0     H52770   1.919   0.971   6.058 -2.1974  1.5195  1.8327
  391MOL0     H52771   2.699   1.406   5.453 -0.3491  1.6797 -2.6203
  391MOL0     H52772   2.525   1.453   5.293 -1.3854 -0.2346  1.5928
  391MOL0     H52773   2.227   1.435   5.073  4.9445  1.5010 -1.3034
  391MOL0     H52774   2.022   1.501   4.942  1.7872  1.8840 -1.1995
  391MOL0     H52775   1.847   1.362   4.547  1.0434  1.3572 -0.9492
  391MOL0     H52776   1.901   1.218   4.631  2.3107  1.1409 -1.0141
  391MOL0     H52777   1.656   1.258   4.666  2.1655  0.0504 -1.5634
  391MOL0     H52778   1.688   1.429   4.713 -1.4343  0.4008  1.2265
  391MOL0     H52779   1.816   1.230   4.889 -1.5058 -2.3107 -0.8395
  391MOL0     H52780   1.639   1.222   4.873 -0.3495 -1.2733 -2.5524
  391MOL0     H52781   1.598   1.433   4.969  0.7848  3.2213  2.6107
  391MOL0     H52782   1.754   1.494   4.921  0.0343 -0.3479 -0.9938
  391MOL0     H52783   1.780   1.340   5.319  0.3274 -0.2985 -0.2919
  391MOL0     H52784   2.126   1.208   4.638  1.2905 -0.5646  0.9763
  391MOL0     H52785   2.319   1.134   4.777  1.5152 -2.1259  5.7255
  392MOL0     O52786   1.422   6.757   8.131  1.0760  0.1126  0.5109
  392MOL0     C52787   1.402   6.636   8.134  0.5542  0.2214 -0.7174
  392MOL0     O52788   1.423   6.560   8.240  0.4152  0.0070  0.5505
  392MOL0     C52789   1.487   6.602   8.354 -0.4852  0.6033  0.1423
  392MOL0     C52790   1.423   6.623   8.482 -0.0540 -0.0270  0.8420
  392MOL0     C52791   1.500   6.672   8.588 -0.3397 -1.0273 -0.2229
  392MOL0     C52792   1.642   6.711   8.565 -0.2168 -0.0101 -0.4499
  392MOL0     O52793   1.712   6.755   8.677 -1.0563 -0.5349  1.2463
  392MOL0     C52794   1.767   6.649   8.756 -0.1805  0.0224  0.1721
  392MOL0     C52795   1.875   6.705   8.843  0.6247 -0.1929 -0.5995
  392MOL0     C52796   1.952   6.596   8.927  0.2643  0.0790  0.5923
  392MOL0     C52797   2.073   6.654   9.005  0.6051 -0.1274  0.0688
  392MOL0     C52798   2.038   6.737   9.135  0.1469 -0.8168  0.0482
  392MOL0     C52799   1.983   6.662   9.251 -0.2457 -0.1650 -0.2878
  392MOL0     C52800   1.936   6.754   9.376  0.9038 -0.0666  0.1462
  392MOL0     C52801   1.874   6.661   9.486  0.4021 -0.4219  0.0228
  392MOL0     N52802   1.975   6.610   9.580  0.9106  0.3969  1.1459
  392MOL0     C52803   2.032   6.677   9.686 -0.1943  0.0509  0.1377
  392MOL0     C52804   2.103   6.581   9.753  0.6213 -0.1723 -0.9113
  392MOL0     C52805   2.144   6.579   9.900  0.3012  0.3619  1.0391
  392MOL0     C52806   2.289   6.527   9.910 -0.1529 -0.3369 -0.1555
  392MOL0     C52807   2.280   6.373   9.938  0.1794  0.4971  1.0788
  392MOL0     C52808   2.252   6.315  10.080  0.4432 -0.6957  0.2777
  392MOL0     O52809   2.124   6.354  10.137 -0.2647  0.7299 -0.2152
  392MOL0     C52810   2.047   6.279  10.220 -0.5978  0.0852 -0.2426
  392MOL0     C52811   2.084   6.162  10.291  0.0190 -0.3173  0.0642
  392MOL0     C52812   1.997   6.097  10.384  0.0018  0.3353  0.7027
  392MOL0     C52813   2.057   5.975  10.454 -0.2263 -0.9369  0.6571
  392MOL0     C52814   1.863   6.144  10.386 -0.2635  0.6961 -0.4313
  392MOL0     C52815   1.761   6.075  10.474  0.5193 -0.1890 -0.5106
  392MOL0     O52816   1.646   6.152  10.484  0.3339 -0.7439  0.5407
  392MOL0     C52817   1.570   6.171  10.595  0.1214 -0.8752  0.3417
  392MOL0     C52818   1.483   6.284  10.598  0.5843 -0.8035 -0.1537
  392MOL0     C52819   1.384   6.286  10.693  0.0561  0.3267 -0.7814
  392MOL0     C52820   1.381   6.182  10.790  0.5432 -0.4456  1.2494
  392MOL0     O52821   1.279   6.199  10.894 -0.5382  0.3138 -0.4305
  392MOL0     C52822   1.211   6.077  10.939  0.3988  0.1838 -0.8220
  392MOL0     C52823   1.068   6.059  10.877 -0.8084 -0.4816 -0.1913
  392MOL0     C52824   1.075   6.043  10.730 -0.5618  0.6093 -0.7434
  392MOL0     C52825   1.055   6.169  10.648  0.0030 -0.4513 -0.0928
  392MOL0     C52826   1.080   6.127  10.507 -0.9260 -0.2906  1.4860
  392MOL0     C52827   1.051   6.241  10.408 -0.3907 -1.2296 -0.3108
  392MOL0     C52828   1.148   6.352  10.440  0.9966 -0.1208  0.0862
  392MOL0     C52829   1.148   6.459  10.331 -0.0259  0.1957  0.0045
  392MOL0    Cl52830   0.992   6.541  10.339  0.2000  0.4960  0.5363
  392MOL0     C52831   1.476   6.086  10.799 -0.0740 -0.1525  0.1247
  392MOL0     C52832   1.572   6.079  10.700 -0.2526 -0.3420  0.9000
  392MOL0     O52833   1.773   5.967  10.537  0.9301  0.3190  0.2319
  392MOL0     C52834   1.833   6.258  10.316 -0.4173 -0.0048  1.2250
  392MOL0     C52835   1.927   6.329  10.244  0.3148 -0.0050 -0.1816
  392MOL0     N52836   2.095   6.470   9.665  0.5228  0.0618  0.1256
  392MOL0     N52837   2.009   6.480   9.565 -1.1291  0.1689 -0.3043
  392MOL0     C52838   1.691   6.689   8.436  0.4777 -0.0802 -0.1772
  392MOL0     C52839   1.618   6.630   8.336  0.4354 -0.5819  0.3454
  392MOL0     C52840   1.330   6.581   8.022 -0.3409  0.3759  0.5714
  392MOL0     C52841   1.270   6.658   7.912 -0.6723  0.2588 -0.5536
  392MOL0     C52842   1.194   6.601   7.810  0.6811 -1.1699  0.0313
  392MOL0     C52843   1.163   6.460   7.810  0.2777 -0.0165 -0.2323
  392MOL0     O52844   1.113   6.410   7.696 -0.1737  0.2391  0.0152
  392MOL0     C52845   1.081   6.270   7.695  0.3395 -0.5701 -0.1835
  392MOL0     C52846   1.200   6.184   7.655 -0.1125  1.1356  0.3707
  392MOL0     C52847   1.269   6.241   7.521  0.5838  0.9574 -0.6886
  392MOL0     C52848   1.187   6.204   7.392 -0.5870  0.0943  0.0627
  392MOL0     C52849   1.222   6.074   7.335  0.1529  0.7586 -0.9753
  392MOL0     C52850   1.273   5.961   7.334 -0.5589  0.2123 -0.2203
  392MOL0     C52851   1.208   6.389   7.923  0.3365 -0.0573 -0.1443
  392MOL0     C52852   1.291   6.446   8.025  0.1619 -0.0266 -0.1236
  392MOL0     H52853   1.314   6.616   8.484 -0.5066  1.9634 -3.7265
  392MOL0     H52854   1.445   6.686   8.680  0.7563  3.7541 -0.0253
  392MOL0     H52855   1.689   6.605   8.820 -2.4995  1.2374 -1.6506
  392MOL0     H52856   1.812   6.571   8.694  1.4308  2.5633 -2.0847
  392MOL0     H52857   1.952   6.757   8.786  2.2747  0.3601  1.9603
  392MOL0     H52858   1.840   6.785   8.909  1.6301 -0.8357  0.7721
  392MOL0     H52859   1.883   6.548   8.997 -1.9415 -0.3637 -1.7245
  392MOL0     H52860   1.983   6.523   8.852 -0.9508 -0.3639  0.4897
  392MOL0     H52861   2.132   6.569   9.040 -0.6648 -0.6699  0.9520
  392MOL0     H52862   2.120   6.718   8.930 -2.9658  1.9752 -0.5804
  392MOL0     H52863   2.122   6.801   9.163 -2.2214  3.0382 -0.8756
  392MOL0     H52864   1.956   6.808   9.119  1.3109  0.7702  0.8420
  392MOL0     H52865   1.899   6.597   9.222 -1.6327  1.7338 -0.7134
  392MOL0     H52866   2.061   6.599   9.294 -1.6849 -1.2743  0.8130
  392MOL0     H52867   2.018   6.817   9.410 -0.0795  2.0542 -1.2067
  392MOL0     H52868   1.849   6.810   9.341 -0.9599 -3.1326 -0.5304
  392MOL0     H52869   1.827   6.577   9.434 -2.2339  1.4105 -0.7160
  392MOL0     H52870   1.797   6.711   9.545  1.3991 -0.4848  1.4193
  392MOL0     H52871   2.038   6.783   9.712 -0.0054 -0.0484  0.5129
  392MOL0     H52872   2.120   6.671   9.953 -0.4342  0.2980  0.8320
  392MOL0     H52873   2.085   6.500   9.948 -1.5715  0.5730 -0.7682
  392MOL0     H52874   2.346   6.584   9.983 -1.3947 -0.3141  0.8424
  392MOL0     H52875   2.340   6.541   9.814  1.2482  1.9325  0.8371
  392MOL0     H52876   2.378   6.336   9.908 -1.5069 -1.9330 -2.0527
  392MOL0     H52877   2.199   6.326   9.880 -0.4487  1.9530  0.7380
  392MOL0     H52878   2.328   6.356  10.147  0.3845  0.7991 -0.5419
  392MOL0     H52879   2.265   6.207  10.067  0.0170 -0.5127 -2.0091
  392MOL0     H52880   2.186   6.126  10.299  0.3492  0.6542  0.3604
  392MOL0     H52881   2.045   5.982  10.563  1.8762  0.7859  0.8340
  392MOL0     H52882   2.012   5.884  10.414  0.0060 -0.5399 -0.5232
  392MOL0     H52883   2.164   5.964  10.435  0.3411  1.8119  1.7806
  392MOL0     H52884   1.479   6.349  10.511 -4.5823 -0.0480  0.2767
  392MOL0     H52885   1.304   6.359  10.686 -0.3571  0.4018  2.7724
  392MOL0     H52886   1.271   5.986  10.932  0.2910 -0.0789  1.1477
  392MOL0     H52887   1.198   6.081  11.048  1.5102 -1.6427 -0.5779
  392MOL0     H52888   1.022   5.969  10.919 -1.7145 -0.0568 -0.2369
  392MOL0     H52889   1.006   6.143  10.910 -1.8101 -1.8466  1.5507
  392MOL0     H52890   0.998   5.969  10.707 -0.1991 -1.0728  2.8097
  392MOL0     H52891   1.173   6.000  10.708 -1.2695 -1.1933 -0.5396
  392MOL0     H52892   0.960   6.224  10.654  1.0686  1.3579  1.3862
  392MOL0     H52893   1.121   6.246  10.690 -2.1308  2.5134 -1.7946
  392MOL0     H52894   1.019   6.045  10.468 -1.5475  0.8624 -0.0439
  392MOL0     H52895   1.184   6.095  10.493 -1.3413 -1.2039  0.3196
  392MOL0     H52896   1.049   6.208  10.304 -0.6956 -2.2546  0.0052
  392MOL0     H52897   0.948   6.278  10.419 -0.5283 -0.2671 -3.7663
  392MOL0     H52898   1.246   6.308  10.461  0.7348 -0.3894  0.7740
  392MOL0     H52899   1.126   6.393  10.539  0.2083 -2.7622  1.1094
  392MOL0     H52900   1.163   6.401  10.240 -3.1737 -2.7438  1.1218
  392MOL0     H52901   1.227   6.533  10.343 -0.8234  1.1541 -0.4457
  392MOL0     H52902   1.479   6.016  10.882  3.1806 -0.1706  0.1108
  392MOL0     H52903   1.636   5.992  10.709 -1.0155 -1.3793 -2.3605
  392MOL0     H52904   1.738   6.312  10.321 -0.7250 -0.4807  0.5968
  392MOL0     H52905   1.895   6.427  10.210  1.7286  1.0618  1.4345
  392MOL0     H52906   1.790   6.716   8.399 -0.4795  1.6228 -1.6590
  392MOL0     H52907   1.663   6.627   8.236 -0.4746  0.8118 -0.1380
  392MOL0     H52908   1.290   6.764   7.903 -1.2934  0.7610  2.7692
  392MOL0     H52909   1.157   6.664   7.730 -0.3194  1.9490  2.7443
  392MOL0     H52910   1.042   6.249   7.795  0.1970  2.2552  0.4583
  392MOL0     H52911   0.998   6.260   7.624 -0.1970  2.5379 -0.1739
  392MOL0     H52912   1.159   6.085   7.636  1.3700  0.5552  0.0704
  392MOL0     H52913   1.287   6.183   7.722  0.2950  2.6221 -0.0983
  392MOL0     H52914   1.364   6.187   7.514 -1.2385 -2.6732  0.3019
  392MOL0     H52915   1.281   6.349   7.537 -1.1357  1.3709 -1.8910
  392MOL0     H52916   1.221   6.272   7.314  0.8638 -1.1514 -0.4278
  392MOL0     H52917   1.078   6.215   7.391 -0.8981 -0.5273 -5.7091
  392MOL0     H52918   1.328   5.869   7.329  0.2401  0.4560  2.3165
  392MOL0     H52919   1.182   6.284   7.923  3.5538 -1.0145 -2.7938
  392MOL0     H52920   1.320   6.381   8.106  0.2262 -1.5329 -1.3005
  393MOL0     O52921   8.201  11.388  10.029  0.1257  0.5338  0.0651
  393MOL0     C52922   8.290  11.442  10.092  0.3726 -0.8360 -0.3861
  393MOL0     O52923   8.336  11.412  10.213  0.1550 -0.9040  0.0435
  393MOL0     C52924   8.329  11.284  10.266 -0.9267  0.1252  0.3701
  393MOL0     C52925   8.364  11.272  10.401  0.3179 -0.2733 -0.0192
  393MOL0     C52926   8.343  11.155  10.470 -0.2352  0.0233 -0.4680
  393MOL0     C52927   8.336  11.040  10.402  0.6973 -0.4871  0.4568
  393MOL0     O52928   8.312  10.914  10.463  0.2239 -1.1773 -0.7337
  393MOL0     C52929   8.372  10.910  10.597 -0.1247 -0.1147  0.0963
  393MOL0     C52930   8.381  10.764  10.642  0.2401  0.0362  0.4263
  393MOL0     C52931   8.240  10.689  10.642 -0.5042 -0.4428 -0.0488
  393MOL0     C52932   8.261  10.544  10.692 -0.1478  0.0341  0.4385
  393MOL0     C52933   8.302  10.530  10.836 -0.5295 -0.1444 -0.3100
  393MOL0     C52934   8.209  10.442  10.929 -0.3385 -0.1248  0.9918
  393MOL0     C52935   8.231  10.474  11.076  0.4425 -0.0520 -0.3569
  393MOL0     C52936   8.142  10.392  11.171 -0.1778  0.2151 -0.7253
  393MOL0     N52937   8.203  10.258  11.209 -0.2152 -0.5101  0.4578
  393MOL0     C52938   8.332  10.249  11.260 -1.3053  0.6744 -0.7877
  393MOL0     C52939   8.346  10.118  11.297 -0.9197  0.7867 -0.7652
  393MOL0     C52940   8.477  10.052  11.358 -0.1389 -0.2869  0.3353
  393MOL0     C52941   8.598  10.037  11.272 -0.0407 -0.1510 -0.6949
  393MOL0     C52942   8.565   9.931  11.156  0.1403 -0.5927 -0.0698
  393MOL0     C52943   8.520   9.796  11.206  0.0582  1.1287  0.2227
  393MOL0     O52944   8.623   9.746  11.282 -0.8436  0.1294 -0.3143
  393MOL0     C52945   8.629   9.611  11.294  0.4140 -0.2000  0.8171
  393MOL0     C52946   8.726   9.566  11.375  0.6457  0.2969 -0.6775
  393MOL0     C52947   8.748   9.433  11.406  0.4230  0.5741 -0.5027
  393MOL0     C52948   8.862   9.396  11.501 -1.3057 -0.3788 -0.3725
  393MOL0     C52949   8.672   9.337  11.328  1.5154 -0.1938 -0.3201
  393MOL0     C52950   8.684   9.186  11.335  0.1523 -0.1701 -0.9011
  393MOL0     O52951   8.627   9.115  11.236 -0.0528  0.0032  0.3534
  393MOL0     C52952   8.648   8.982  11.222 -0.2746 -0.1817  0.4988
  393MOL0     C52953   8.756   8.906  11.271  0.1480  0.9853 -0.0855
  393MOL0     C52954   8.768   8.768  11.254 -0.0574  0.2287  0.3055
  393MOL0     C52955   8.682   8.704  11.173  0.2827 -0.5335 -0.8482
  393MOL0     O52956   8.692   8.569  11.150  0.0372 -0.1737 -0.0491
  393MOL0     C52957   8.829   8.512  11.114  0.6054 -0.0837 -0.3870
  393MOL0     C52958   8.813   8.396  11.022 -0.8223 -0.0914 -0.6749
  393MOL0     C52959   8.703   8.294  11.069 -0.4310  0.2356  0.3633
  393MOL0     C52960   8.736   8.161  11.003  0.9924 -0.9610  0.2768
  393MOL0     C52961   8.617   8.057  11.020  0.0811  0.9693  0.3216
  393MOL0     C52962   8.624   7.938  10.930 -0.7679  0.4472 -1.1875
  393MOL0     C52963   8.506   7.849  10.949 -0.5522  0.4238  0.9627
  393MOL0     C52964   8.479   7.780  10.810 -0.3969 -0.2534 -0.4761
  393MOL0    Cl52965   8.431   7.608  10.810 -0.8038 -0.3405 -0.0731
  393MOL0     C52966   8.572   8.772  11.135  0.0850  0.0568  1.3096
  393MOL0     C52967   8.550   8.910  11.152  0.1541 -0.1693 -1.2272
  393MOL0     O52968   8.755   9.143  11.431 -0.3443 -0.2121  0.2061
  393MOL0     C52969   8.568   9.386  11.245  0.5483  0.2351  0.1155
  393MOL0     C52970   8.546   9.519  11.223 -0.0346 -0.1903  0.4826
  393MOL0     N52971   8.227  10.047  11.252  0.0055  0.0049  0.3428
  393MOL0     N52972   8.149  10.134  11.196 -0.3890  0.1717  0.1249
  393MOL0     C52973   8.328  11.045  10.261 -0.3970  0.1344  1.4219
  393MOL0     C52974   8.318  11.166  10.188  0.2184  0.2012 -0.0192
  393MOL0     C52975   8.333  11.572  10.044  0.3341  0.6651  0.6233
  393MOL0     C52976   8.439  11.637  10.105 -0.4591 -0.4498  0.8789
  393MOL0     C52977   8.458  11.776  10.056 -0.1369 -0.2987 -0.3065
  393MOL0     C52978   8.382  11.837   9.955 -0.8010 -0.9285 -0.3934
  393MOL0     O52979   8.403  11.976   9.944 -0.1913 -0.3303 -0.5950
  393MOL0     C52980   8.357  12.048   9.832 -0.0347  1.0535 -0.2843
  393MOL0     C52981   8.423  11.999   9.703  0.1854  0.2262  0.6728
  393MOL0     C52982   8.340  12.031   9.572  1.3487  0.5375 -0.4767
  393MOL0     C52983   8.336  12.181   9.543 -0.2004 -0.4891 -0.1936
  393MOL0     C52984   8.245  12.204   9.427  0.0588 -0.9558  0.1696
  393MOL0     C52985   8.182  12.218   9.322 -0.2132 -0.4029 -0.5014
  393MOL0     C52986   8.285  11.764   9.891 -0.5419 -0.4114  0.3649
  393MOL0     C52987   8.255  11.637   9.940  0.1040  0.3220 -0.3968
  393MOL0     H52988   8.368  11.358  10.467  1.6076  0.4620 -1.0162
  393MOL0     H52989   8.347  11.154  10.579 -1.1425  1.0466 -0.4040
  393MOL0     H52990   8.470  10.958  10.597 -0.6298  1.1164 -2.8846
  393MOL0     H52991   8.310  10.958  10.674 -0.7687 -2.5351  1.1921
  393MOL0     H52992   8.447  10.706  10.576  0.7311 -0.5204  1.3761
  393MOL0     H52993   8.422  10.755  10.744 -0.3283  0.9969  0.7463
  393MOL0     H52994   8.175  10.749  10.707  1.5057  2.6936 -0.7183
  393MOL0     H52995   8.208  10.682  10.538  1.4441 -1.4070 -0.6454
  393MOL0     H52996   8.175  10.477  10.683 -1.1735  1.0364  2.2295
  393MOL0     H52997   8.346  10.495  10.644  0.0439  1.5047 -0.7993
  393MOL0     H52998   8.408  10.507  10.852 -0.0906  2.2016  0.5977
  393MOL0     H52999   8.301  10.633  10.872  3.2584  0.7941 -2.2646
  393MOL0     H53000   8.103  10.468  10.917 -0.6842 -1.7611  0.1877
  393MOL0     H53001   8.230  10.340  10.896  1.5743  0.7412 -0.6308
  393MOL0     H53002   8.339  10.469  11.092  1.0828  0.0627 -3.7544
  393MOL0     H53003   8.204  10.579  11.089 -0.9311 -0.4335  0.0429
  393MOL0     H53004   8.039  10.377  11.138 -0.7336 -0.6993  1.2668
  393MOL0     H53005   8.142  10.445  11.267 -3.2540 -4.0699  1.9540
  393MOL0     H53006   8.406  10.326  11.279 -1.5922  0.3964  1.8917
  393MOL0     H53007   8.495  10.123  11.439 -0.9518 -0.6985  0.8904
  393MOL0     H53008   8.443   9.959  11.403 -1.0092 -0.7750 -1.2502
  393MOL0     H53009   8.688  10.000  11.323 -0.0521 -1.2889 -1.4857
  393MOL0     H53010   8.625  10.136  11.233 -0.9956 -0.0022 -1.0004
  393MOL0     H53011   8.649   9.929  11.086  2.0132 -1.6287  2.0770
  393MOL0     H53012   8.472   9.961  11.108 -0.0193 -1.6250 -0.4210
  393MOL0     H53013   8.505   9.730  11.121  0.0948 -0.3819  1.3363
  393MOL0     H53014   8.427   9.790  11.264 -1.2150 -5.8964 -1.6578
  393MOL0     H53015   8.794   9.640  11.416  1.0082 -0.9700  1.1611
  393MOL0     H53016   8.825   9.326  11.577  0.7938 -1.4402 -0.2565
  393MOL0     H53017   8.945   9.347  11.450 -2.2759 -3.6647  0.9658
  393MOL0     H53018   8.911   9.474  11.560 -1.2436 -1.5375  1.1821
  393MOL0     H53019   8.836   8.956  11.325 -0.8927 -0.2225  2.8061
  393MOL0     H53020   8.840   8.703  11.303  0.5585 -0.2512 -1.1659
  393MOL0     H53021   8.891   8.581  11.056 -0.2697  0.2000 -1.0069
  393MOL0     H53022   8.888   8.480  11.201 -0.2575 -1.4929 -0.2880
  393MOL0     H53023   8.790   8.436  10.923 -0.6842  4.9462  1.0580
  393MOL0     H53024   8.904   8.335  11.019 -0.1001  0.9837 -3.4961
  393MOL0     H53025   8.604   8.324  11.033 -1.5304 -2.2432  1.0788
  393MOL0     H53026   8.708   8.293  11.178  0.6050 -1.9373  0.3553
  393MOL0     H53027   8.747   8.177  10.895  3.8775  1.4461  0.7818
  393MOL0     H53028   8.822   8.127  11.061  0.3311 -1.2410  1.1052
  393MOL0     H53029   8.525   8.112  10.995 -0.2460 -0.0716 -0.8917
  393MOL0     H53030   8.609   8.020  11.122  0.9880  0.5581  0.2604
  393MOL0     H53031   8.639   7.969  10.826  0.8912 -0.8633 -1.4028
  393MOL0     H53032   8.724   7.896  10.948 -0.2694  3.1475  4.3966
  393MOL0     H53033   8.411   7.900  10.968 -2.6048 -2.7359 -0.0441
  393MOL0     H53034   8.535   7.773  11.022  4.8624  0.8597 -0.2566
  393MOL0     H53035   8.569   7.771  10.748 -2.8828 -1.7764 -4.2481
  393MOL0     H53036   8.406   7.832  10.747 -0.8793 -4.1763 -3.5415
  393MOL0     H53037   8.488   8.723  11.087 -0.5147  1.3778  0.9713
  393MOL0     H53038   8.458   8.953  11.114  0.7429  3.0761  0.6016
  393MOL0     H53039   8.511   9.317  11.183  1.3681  0.9808 -1.5372
  393MOL0     H53040   8.477   9.546  11.143  0.8882  0.5761 -0.0706
  393MOL0     H53041   8.316  10.951  10.209  1.9421  0.1711  0.7075
  393MOL0     H53042   8.299  11.159  10.081  1.7523  2.6126 -0.5243
  393MOL0     H53043   8.492  11.612  10.197  0.4108  0.2366  0.5694
  393MOL0     H53044   8.530  11.839  10.107 -0.8116  1.0353 -0.9520
  393MOL0     H53045   8.250  12.035   9.819  0.2411 -0.9963 -0.7715
  393MOL0     H53046   8.379  12.152   9.858 -2.3147  0.7684  3.5907
  393MOL0     H53047   8.452  11.894   9.706 -1.6136 -0.3103  0.9974
  393MOL0     H53048   8.519  12.050   9.697 -0.9609  2.7000  1.9401
  393MOL0     H53049   8.240  11.987   9.586  1.2499  1.2759  1.2716
  393MOL0     H53050   8.382  11.980   9.484 -1.8609  1.4478 -2.7262
  393MOL0     H53051   8.434  12.220   9.517  0.5092 -1.4548  0.9054
  393MOL0     H53052   8.300  12.234   9.632  1.2426 -0.0511  0.1488
  393MOL0     H53053   8.119  12.215   9.235 -1.0197  1.5096 -0.0240
  393MOL0     H53054   8.222  11.818   9.822  0.0592  2.7769  2.1039
  393MOL0     H53055   8.165  11.585   9.912  0.1436  0.2186 -0.3319
  394MOL0     O53056   1.733   5.581   1.243  0.2504  0.5043  0.4432
  394MOL0     C53057   1.619   5.548   1.253  0.0554  0.5765 -0.5276
  394MOL0     O53058   1.516   5.617   1.202  0.2911 -0.3950 -0.0056
  394MOL0     C53059   1.567   5.727   1.130  0.2804  0.9798 -0.0192
  394MOL0     C53060   1.602   5.719   0.991  0.5317  0.4761  1.1051
  394MOL0     C53061   1.640   5.833   0.925 -0.2533 -0.0960 -0.6820
  394MOL0     C53062   1.637   5.954   0.991  0.7149  0.1461 -0.0163
  394MOL0     O53063   1.652   6.073   0.926 -0.8526  0.0004  0.4744
  394MOL0     C53064   1.715   6.177   1.000 -0.2972  0.0876  0.4555
  394MOL0     C53065   1.738   6.304   0.905 -0.0557  0.4467 -0.4670
  394MOL0     C53066   1.641   6.298   0.777  0.3395 -0.0455  0.3049
  394MOL0     C53067   1.671   6.431   0.703 -0.9252  0.0067  0.1400
  394MOL0     C53068   1.575   6.448   0.585 -0.2527  0.2454 -0.0220
  394MOL0     C53069   1.608   6.576   0.493 -0.5998 -0.4787  0.1116
  394MOL0     C53070   1.512   6.608   0.384 -0.5567  0.2695 -0.0098
  394MOL0     C53071   1.390   6.690   0.420  1.0483 -0.9137  0.3676
  394MOL0     N53072   1.329   6.750   0.300 -0.3107  0.0130  0.2816
  394MOL0     C53073   1.282   6.671   0.202  0.0139  0.4570  0.1282
  394MOL0     C53074   1.241   6.752   0.110 -0.8996  0.6730 -0.4620
  394MOL0     C53075   1.183   6.728  -0.025  0.7326  0.2111 -0.1979
  394MOL0     C53076   1.074   6.831  -0.055 -0.4589 -0.3983  0.3625
  394MOL0     C53077   0.958   6.837   0.039 -0.3090  0.3546 -0.5175
  394MOL0     C53078   0.875   6.704   0.046  0.3402 -0.3214 -0.3939
  394MOL0     O53079   0.791   6.669  -0.063 -0.3079  0.2562  0.7554
  394MOL0     C53080   0.720   6.762  -0.119  0.6831  0.1418  0.3676
  394MOL0     C53081   0.631   6.849  -0.063  0.8087  0.1940  0.3240
  394MOL0     C53082   0.565   6.952  -0.137 -0.0013 -0.1020 -0.0131
  394MOL0     C53083   0.486   7.057  -0.056 -0.4308 -0.4847 -0.0727
  394MOL0     C53084   0.593   6.954  -0.280  0.4332  0.0227 -0.1598
  394MOL0     C53085   0.556   7.062  -0.371  0.7751  0.1625  0.0417
  394MOL0     O53086   0.499   7.171  -0.313 -0.3122  0.3249 -0.2220
  394MOL0     C53087   0.516   7.290  -0.374  0.2219 -0.5043  0.0328
  394MOL0     C53088   0.633   7.352  -0.349 -0.6976 -0.0139 -0.6128
  394MOL0     C53089   0.675   7.468  -0.400  0.2422 -0.2186  0.2916
  394MOL0     C53090   0.579   7.543  -0.477 -0.8757 -0.4855  0.1098
  394MOL0     O53091   0.607   7.662  -0.530  0.2552  0.1077  0.5412
  394MOL0     C53092   0.706   7.745  -0.469 -0.4564  0.3760 -0.3217
  394MOL0     C53093   0.720   7.876  -0.550 -0.5410 -0.1243 -0.0609
  394MOL0     C53094   0.806   7.980  -0.480  0.8153 -1.1492 -0.8961
  394MOL0     C53095   0.890   8.061  -0.572  0.4696  0.0691  0.0016
  394MOL0     C53096   0.930   8.204  -0.514 -0.3640  0.1886  0.9280
  394MOL0     C53097   0.799   8.288  -0.495 -0.3093 -0.1785 -0.4826
  394MOL0     C53098   0.838   8.426  -0.467 -0.5181 -1.5075 -0.1540
  394MOL0     C53099   0.736   8.507  -0.395  0.2079  0.2101 -0.0545
  394MOL0    Cl53100   0.788   8.681  -0.395 -0.1374  0.5544  0.1307
  394MOL0     C53101   0.459   7.485  -0.510  1.3464 -0.7232  0.4049
  394MOL0     C53102   0.422   7.351  -0.464 -0.3059  0.6756 -0.0761
  394MOL0     O53103   0.574   7.046  -0.493  0.0520 -0.9953 -0.5931
  394MOL0     C53104   0.658   6.846  -0.337 -0.0751  1.1210  0.6651
  394MOL0     C53105   0.717   6.748  -0.257  0.0442  0.9050  0.2700
  394MOL0     N53106   1.285   6.884   0.143  0.0192 -0.7954 -0.2367
  394MOL0     N53107   1.344   6.875   0.265 -0.1877  0.6346  0.3472
  394MOL0     C53108   1.587   5.955   1.122 -0.7982  0.3863  0.4876
  394MOL0     C53109   1.559   5.846   1.199  0.2714  0.5332 -0.0220
  394MOL0     C53110   1.600   5.420   1.318  0.5804  1.1936 -1.0450
  394MOL0     C53111   1.472   5.371   1.329  0.8206 -0.4343  0.4510
  394MOL0     C53112   1.446   5.245   1.387  0.0005 -0.5205  0.2445
  394MOL0     C53113   1.546   5.165   1.438 -0.5385 -0.4579 -0.1825
  394MOL0     O53114   1.521   5.035   1.482  0.4381 -0.9414  0.8907
  394MOL0     C53115   1.602   4.931   1.534  0.2027 -0.0661 -0.2086
  394MOL0     C53116   1.517   4.817   1.577 -0.7983  0.0341 -0.5327
  394MOL0     C53117   1.599   4.699   1.618 -0.5872  0.7645  0.2612
  394MOL0     C53118   1.678   4.626   1.502 -0.8925  0.4355 -0.6870
  394MOL0     C53119   1.588   4.588   1.388 -0.7789 -0.1230 -0.3306
  394MOL0     C53120   1.500   4.570   1.303 -0.8941  0.9915 -0.4084
  394MOL0     C53121   1.681   5.211   1.424 -0.4613 -0.4122  0.2380
  394MOL0     C53122   1.711   5.340   1.370 -0.1693  0.3128  1.0243
  394MOL0     H53123   1.601   5.621   0.943  0.6030  2.1294 -2.6178
  394MOL0     H53124   1.664   5.824   0.820  2.5997 -2.0880  0.0454
  394MOL0     H53125   1.642   6.209   1.075 -0.8413 -1.1286  0.4653
  394MOL0     H53126   1.809   6.160   1.055  0.6920  4.4430  0.4915
  394MOL0     H53127   1.706   6.394   0.958 -0.8601  0.7364 -1.4083
  394MOL0     H53128   1.841   6.316   0.869 -1.0941  1.4017 -3.4876
  394MOL0     H53129   1.682   6.215   0.719 -0.5349 -0.6659  0.5618
  394MOL0     H53130   1.534   6.289   0.800 -0.1995  2.5579 -0.8117
  394MOL0     H53131   1.641   6.516   0.765 -6.1025  0.3410 -2.3096
  394MOL0     H53132   1.776   6.428   0.672  0.0035  1.6405  2.7946
  394MOL0     H53133   1.565   6.353   0.533  0.5371 -0.8131  1.6816
  394MOL0     H53134   1.478   6.473   0.631  0.8088  2.0683  1.3876
  394MOL0     H53135   1.606   6.656   0.567 -1.1038  4.7258 -4.8610
  394MOL0     H53136   1.708   6.566   0.449 -0.5183  0.7702 -0.0247
  394MOL0     H53137   1.578   6.666   0.319 -0.2340  1.8913  1.6781
  394MOL0     H53138   1.477   6.514   0.339  2.9210 -0.9677 -0.4227
  394MOL0     H53139   1.415   6.770   0.490  0.6269 -0.5721  0.1312
  394MOL0     H53140   1.325   6.615   0.466  1.9846 -4.8537 -3.9560
  394MOL0     H53141   1.282   6.563   0.215  1.8493  0.6974  2.9280
  394MOL0     H53142   1.259   6.730  -0.104 -0.6496 -2.5954 -1.7446
  394MOL0     H53143   1.147   6.625  -0.018 -0.4658  0.7320  2.7992
  394MOL0     H53144   1.037   6.811  -0.156 -1.5946  2.2085  0.1849
  394MOL0     H53145   1.113   6.933  -0.063  2.0019 -1.1848  1.5046
  394MOL0     H53146   0.899   6.924   0.008  1.9514  2.0440 -0.2976
  394MOL0     H53147   0.986   6.863   0.141 -0.8016 -0.6953 -0.0983
  394MOL0     H53148   0.814   6.704   0.137  2.3475 -0.0332  1.0276
  394MOL0     H53149   0.943   6.618   0.052 -0.0725 -0.5955  0.3909
  394MOL0     H53150   0.634   6.849   0.045  1.0292  0.7081  0.3200
  394MOL0     H53151   0.471   7.038   0.050  0.7189 -1.8898 -0.1377
  394MOL0     H53152   0.552   7.144  -0.061 -1.9973  0.6793 -1.4263
  394MOL0     H53153   0.389   7.074  -0.105 -1.0295 -1.1219  0.8670
  394MOL0     H53154   0.708   7.306  -0.285 -1.3317 -0.5682 -0.2623
  394MOL0     H53155   0.773   7.504  -0.369  1.1829 -2.3616 -0.0359
  394MOL0     H53156   0.677   7.757  -0.364  2.3394 -1.1287  0.7289
  394MOL0     H53157   0.801   7.692  -0.470 -1.0420 -0.7110 -0.0338
  394MOL0     H53158   0.773   7.849  -0.643  0.5930  1.9526 -0.0752
  394MOL0     H53159   0.623   7.912  -0.586  0.8037  1.9223 -1.8839
  394MOL0     H53160   0.890   7.940  -0.422  0.8727  0.0697 -0.0935
  394MOL0     H53161   0.740   8.039  -0.416 -0.2462 -0.6060 -2.4464
  394MOL0     H53162   0.980   8.000  -0.584  0.1073 -0.8790  1.8141
  394MOL0     H53163   0.833   8.066  -0.665 -1.8144 -0.5676  1.3160
  394MOL0     H53164   0.996   8.236  -0.595  0.4629 -2.9460  0.2283
  394MOL0     H53165   0.982   8.196  -0.418 -3.5331  0.0500  2.7710
  394MOL0     H53166   0.731   8.279  -0.580 -0.4901 -1.3498 -0.2382
  394MOL0     H53167   0.743   8.242  -0.413 -0.0057  1.2504  0.5640
  394MOL0     H53168   0.863   8.469  -0.565  1.1029 -3.1905 -0.5382
  394MOL0     H53169   0.929   8.433  -0.408  0.6775  1.7488 -2.1382
  394MOL0     H53170   0.726   8.469  -0.293  0.8254 -0.7369 -0.3345
  394MOL0     H53171   0.646   8.497  -0.457 -1.5420 -1.7253  2.6000
  394MOL0     H53172   0.385   7.527  -0.578  0.5672 -0.0982  1.5923
  394MOL0     H53173   0.334   7.297  -0.496  1.7925 -3.0152 -0.2944
  394MOL0     H53174   0.672   6.834  -0.444  0.3366  2.3289  0.5724
  394MOL0     H53175   0.785   6.677  -0.302  1.1049  1.2030  1.3564
  394MOL0     H53176   1.550   6.049   1.159  0.7418 -0.4521  4.7581
  394MOL0     H53177   1.533   5.841   1.305  1.0576 -0.1285  0.1485
  394MOL0     H53178   1.390   5.435   1.299  0.0514  0.4446  4.0301
  394MOL0     H53179   1.346   5.203   1.373  0.4071 -1.5370  0.2922
  394MOL0     H53180   1.677   4.900   1.460 -0.9205 -1.0382 -0.9681
  394MOL0     H53181   1.647   4.985   1.618 -2.1002 -0.4105  1.3222
  394MOL0     H53182   1.459   4.801   1.486  1.1181 -1.1036 -1.6214
  394MOL0     H53183   1.455   4.860   1.656 -0.2202 -0.9938  0.5120
  394MOL0     H53184   1.554   4.612   1.668 -3.3115  3.1591  2.2930
  394MOL0     H53185   1.682   4.745   1.671  1.0921  0.7325 -2.1600
  394MOL0     H53186   1.736   4.540   1.535  3.4221  3.6891  1.1522
  394MOL0     H53187   1.750   4.698   1.462  2.3209 -0.3644  3.0385
  394MOL0     H53188   1.415   4.576   1.238 -0.6061 -1.2369 -1.0899
  394MOL0     H53189   1.771   5.160   1.457  0.3231  1.5287  1.2451
  394MOL0     H53190   1.804   5.390   1.346 -0.1148 -0.2552 -0.0205
  395MOL0     O53191   2.301  10.816   5.262  0.3570  1.1561 -0.3209
  395MOL0     C53192   2.220  10.868   5.190 -0.4365 -0.0487 -0.0175
  395MOL0     O53193   2.233  10.883   5.059 -0.7280  1.3827 -0.2625
  395MOL0     C53194   2.319  10.811   4.976 -0.0748 -0.8078  1.0238
  395MOL0     C53195   2.267  10.791   4.847  0.7960  0.9665  0.2856
  395MOL0     C53196   2.324  10.701   4.756 -0.8491 -0.1074  0.5037
  395MOL0     C53197   2.454  10.647   4.788  0.0175 -0.1001 -0.0415
  395MOL0     O53198   2.512  10.561   4.696 -0.3932 -0.4463 -0.3258
  395MOL0     C53199   2.573  10.638   4.587 -0.6502 -0.1659 -0.2633
  395MOL0     C53200   2.632  10.547   4.478  0.6257 -0.3700 -0.7440
  395MOL0     C53201   2.518  10.485   4.394  1.0689  0.1585 -0.4504
  395MOL0     C53202   2.562  10.354   4.327 -0.1695 -0.3392  0.0783
  395MOL0     C53203   2.469  10.282   4.237  0.7200 -0.0948 -0.4229
  395MOL0     C53204   2.454  10.356   4.100  0.0306  0.2214 -0.1917
  395MOL0     C53205   2.358  10.274   4.019  0.2016  0.1577  0.4147
  395MOL0     C53206   2.343  10.342   3.884 -0.0040 -0.1737  0.8545
  395MOL0     N53207   2.464  10.341   3.800 -0.0761 -0.4094 -1.5543
  395MOL0     C53208   2.518  10.227   3.748  0.5010  0.4840 -0.3086
  395MOL0     C53209   2.605  10.278   3.653  0.7492 -0.6218 -0.8388
  395MOL0     C53210   2.680  10.210   3.543 -0.1966 -0.0040 -0.5140
  395MOL0     C53211   2.745  10.087   3.601  0.2974 -0.7509  0.0177
  395MOL0     C53212   2.864  10.117   3.691 -1.1852 -0.0219 -0.5547
  395MOL0     C53213   2.839  10.142   3.840 -0.0288  0.1099  0.0164
  395MOL0     O53214   2.773  10.033   3.903 -0.0713 -0.6549 -0.8674
  395MOL0     C53215   2.747  10.033   4.035  0.2201 -0.5786  0.2679
  395MOL0     C53216   2.682   9.921   4.082 -0.6614  0.5106 -1.4151
  395MOL0     C53217   2.656   9.897   4.218 -0.5480 -0.2203  0.2095
  395MOL0     C53218   2.589   9.767   4.263  0.1401 -0.0379 -0.0899
  395MOL0     C53219   2.699   9.996   4.313 -0.3480 -0.0852 -0.6760
  395MOL0     C53220   2.671   9.992   4.468 -0.0519  0.0580  0.7440
  395MOL0     O53221   2.725  10.095   4.534  0.9673 -0.1424  0.1513
  395MOL0     C53222   2.686  10.147   4.649 -0.0488 -0.1463  0.7391
  395MOL0     C53223   2.785  10.194   4.738  0.0996  0.3117  0.0324
  395MOL0     C53224   2.744  10.249   4.860 -0.0416 -0.6408  0.9703
  395MOL0     C53225   2.613  10.262   4.896 -0.1216  0.3348  0.2617
  395MOL0     O53226   2.590  10.322   5.019 -0.2425 -0.4721  0.1913
  395MOL0     C53227   2.462  10.322   5.074  0.8202 -0.8373  0.0248
  395MOL0     C53228   2.476  10.363   5.225  0.7987 -0.1617  0.6053
  395MOL0     C53229   2.356  10.314   5.302 -0.0418 -0.1482 -0.6745
  395MOL0     C53230   2.308  10.441   5.385 -0.1523  0.3570  0.7517
  395MOL0     C53231   2.194  10.402   5.472 -0.2150  0.1382 -0.1968
  395MOL0     C53232   2.106  10.520   5.522  0.1234  0.4400  0.4056
  395MOL0     C53233   2.000  10.479   5.623  0.4577 -0.3644 -0.2410
  395MOL0     C53234   2.055  10.426   5.750 -0.2054  0.2419  0.2748
  395MOL0    Cl53235   2.001  10.254   5.739  0.6329  0.3360 -0.1850
  395MOL0     C53236   2.512  10.227   4.802 -0.4236 -0.2436  0.2144
  395MOL0     C53237   2.552  10.166   4.682 -1.2243  0.1430  0.1907
  395MOL0     O53238   2.608   9.897   4.516  0.2142  0.3779  0.2975
  395MOL0     C53239   2.776  10.103   4.262  0.8649  0.6222  0.0154
  395MOL0     C53240   2.791  10.121   4.124  0.0775 -0.2186  0.2001
  395MOL0     N53241   2.610  10.417   3.664 -0.5227  0.6843 -0.9970
  395MOL0     N53242   2.533  10.449   3.757  0.2693 -0.4019  0.1195
  395MOL0     C53243   2.510  10.670   4.910 -0.1094 -0.7469 -0.5554
  395MOL0     C53244   2.439  10.748   5.008 -0.5488 -0.4090  0.0493
  395MOL0     C53245   2.099  10.920   5.246 -0.3110 -0.7103 -1.4720
  395MOL0     C53246   2.003  10.993   5.176 -0.1272  0.9738  0.7613
  395MOL0     C53247   1.878  11.032   5.235  0.5813  0.2031  0.5207
  395MOL0     C53248   1.851  10.998   5.364 -0.6201 -0.6432  1.1319
  395MOL0     O53249   1.728  11.019   5.420  0.3466 -0.0239  0.1318
  395MOL0     C53250   1.665  11.149   5.402  0.2431  0.2505 -0.4401
  395MOL0     C53251   1.756  11.266   5.443  0.5575  1.2856 -0.6807
  395MOL0     C53252   1.700  11.394   5.399 -0.0449  0.2534 -0.0081
  395MOL0     C53253   1.811  11.506   5.421  0.1665 -0.5241 -0.7228
  395MOL0     C53254   1.897  11.517   5.302 -1.0132 -0.5986 -0.6495
  395MOL0     C53255   1.965  11.538   5.208 -0.3508 -0.6414 -0.1040
  395MOL0     C53256   1.944  10.932   5.433 -0.5686  0.1527  0.6285
  395MOL0     C53257   2.067  10.893   5.382 -0.3307  0.4593  0.3790
  395MOL0     H53258   2.175  10.836   4.813  1.6958  2.0989 -0.7755
  395MOL0     H53259   2.278  10.679   4.660  1.0405 -1.3632 -0.1733
  395MOL0     H53260   2.503  10.701   4.532  0.3631 -0.5270 -2.0479
  395MOL0     H53261   2.650  10.704   4.629  1.6619 -2.1498 -1.1162
  395MOL0     H53262   2.710  10.600   4.423  1.9694 -0.9730  0.5270
  395MOL0     H53263   2.681  10.465   4.531  0.6607 -0.0740 -0.3235
  395MOL0     H53264   2.431  10.458   4.455  0.5538 -1.1280 -1.7039
  395MOL0     H53265   2.478  10.550   4.315 -0.1721  0.3123  0.2733
  395MOL0     H53266   2.658  10.364   4.275 -0.1721 -1.9025 -0.2696
  395MOL0     H53267   2.585  10.283   4.406 -1.0243  2.4476  3.0754
  395MOL0     H53268   2.506  10.180   4.219  1.5040  0.0423  0.3852
  395MOL0     H53269   2.370  10.271   4.281 -0.0152 -1.1429 -2.1906
  395MOL0     H53270   2.396  10.446   4.119 -0.2695 -0.1930  0.9561
  395MOL0     H53271   2.546  10.379   4.047  0.1485 -1.2869 -0.6920
  395MOL0     H53272   2.393  10.171   4.006  2.6203  0.9448  0.2363
  395MOL0     H53273   2.263  10.271   4.073  1.4306 -0.0580  2.6997
  395MOL0     H53274   2.305  10.445   3.887 -0.5685 -0.2873 -1.2744
  395MOL0     H53275   2.277  10.278   3.826 -1.4276  0.1021  2.0917
  395MOL0     H53276   2.497  10.125   3.778 -0.4725  1.1410  1.4067
  395MOL0     H53277   2.605  10.183   3.469 -0.7026 -1.4951  0.5086
  395MOL0     H53278   2.752  10.281   3.500  2.4907 -1.6948  0.9411
  395MOL0     H53279   2.778  10.037   3.509 -1.3953  0.5146 -1.3569
  395MOL0     H53280   2.666  10.025   3.645 -2.3342  1.4686 -1.2481
  395MOL0     H53281   2.912  10.211   3.665  1.5040 -1.7310 -2.2932
  395MOL0     H53282   2.940  10.039   3.683 -1.9147 -0.7664 -0.4158
  395MOL0     H53283   2.776  10.231   3.846 -2.9902 -1.6171 -2.2774
  395MOL0     H53284   2.934  10.163   3.889 -0.3783 -1.6703  1.5854
  395MOL0     H53285   2.662   9.837   4.017  2.2153 -2.7753  1.4727
  395MOL0     H53286   2.670   9.714   4.314  2.0430 -0.0944 -2.9278
  395MOL0     H53287   2.507   9.780   4.334  0.1620  0.8911 -0.2146
  395MOL0     H53288   2.563   9.709   4.174  1.5007  0.6994 -1.0085
  395MOL0     H53289   2.889  10.172   4.716  0.2133 -0.3596  1.1077
  395MOL0     H53290   2.832  10.279   4.915  0.0339  0.0660  0.4804
  395MOL0     H53291   2.402  10.404   5.033 -2.9955 -2.9887  0.9119
  395MOL0     H53292   2.402  10.232   5.060 -1.3875  0.7585 -1.3444
  395MOL0     H53293   2.570  10.319   5.259  0.4792 -0.3118  1.3080
  395MOL0     H53294   2.485  10.472   5.228 -3.5142  0.3411  3.0462
  395MOL0     H53295   2.398  10.235   5.365  0.0490  1.4815  1.4169
  395MOL0     H53296   2.278  10.267   5.241 -0.3573  1.8697 -1.9260
  395MOL0     H53297   2.396  10.481   5.437 -0.1842 -0.9282  1.8578
  395MOL0     H53298   2.274  10.506   5.304 -2.0901  1.5145  2.3729
  395MOL0     H53299   2.233  10.355   5.562 -0.9139  2.8110  1.6239
  395MOL0     H53300   2.117  10.337   5.430 -1.9036  1.4703  0.7276
  395MOL0     H53301   2.163  10.610   5.547  2.4184 -1.0132  0.6955
  395MOL0     H53302   2.067  10.548   5.424  2.3420  0.3117 -0.5597
  395MOL0     H53303   1.918  10.419   5.584 -1.8009  0.8235  2.3417
  395MOL0     H53304   1.955  10.573   5.656  1.5304  0.0492  0.0863
  395MOL0     H53305   2.008  10.485   5.829 -2.3407  1.4015 -1.7302
  395MOL0     H53306   2.164  10.434   5.750 -0.1387 -0.1404 -1.9491
  395MOL0     H53307   2.408  10.255   4.807  0.0599  1.9824 -0.8576
  395MOL0     H53308   2.482  10.140   4.603  0.0784  2.1463 -1.7285
  395MOL0     H53309   2.814  10.177   4.332  0.2916 -2.6438  4.1433
  395MOL0     H53310   2.832  10.213   4.082 -3.2982  1.5706  0.4537
  395MOL0     H53311   2.603  10.629   4.946 -0.6710 -0.3112  1.5013
  395MOL0     H53312   2.484  10.753   5.106  0.2206  1.2242 -0.3530
  395MOL0     H53313   2.020  11.013   5.071  1.8688 -1.6300  0.4706
  395MOL0     H53314   1.795  11.060   5.170 -0.2623  1.0173  1.9129
  395MOL0     H53315   1.652  11.148   5.293 -0.8901 -0.1221 -0.3136
  395MOL0     H53316   1.571  11.168   5.455 -0.0729 -0.6803 -0.6567
  395MOL0     H53317   1.856  11.269   5.399  1.8224  3.9419  2.0341
  395MOL0     H53318   1.771  11.257   5.551 -0.7669  0.7953 -0.5193
  395MOL0     H53319   1.608  11.423   5.451  1.2312  1.3313  1.7780
  395MOL0     H53320   1.682  11.399   5.291  2.0498  0.7879 -0.3871
  395MOL0     H53321   1.866  11.496   5.515 -0.6872 -2.4537 -0.3839
  395MOL0     H53322   1.770  11.607   5.425  1.3563 -0.0266  2.9553
  395MOL0     H53323   2.029  11.555   5.124 -2.7257 -1.2328 -2.1584
  395MOL0     H53324   1.903  10.906   5.531 -4.1824 -1.7634 -1.1805
  395MOL0     H53325   2.138  10.840   5.445 -0.3422  2.8894  2.6194
  396MOL0     O53326  10.879   0.732   4.181 -0.5369 -0.3154  1.0545
  396MOL0     C53327  10.811   0.644   4.231  0.2829  0.0072  1.0943
  396MOL0     O53328  10.820   0.604   4.356  0.2293  0.7460  0.4858
  396MOL0     C53329  10.933   0.635   4.429 -0.0174  0.8079  0.4720
  396MOL0     C53330  11.059   0.579   4.403  0.8403  0.4185  0.0764
  396MOL0     C53331  11.164   0.593   4.487  0.6934 -0.5614  0.0435
  396MOL0     C53332  11.155   0.688   4.592 -0.2248 -0.0064 -0.4307
  396MOL0     O53333  11.259   0.724   4.672  0.2527  0.6219 -0.3849
  396MOL0     C53334  11.402   0.708   4.636  0.6978  0.5098  0.2546
  396MOL0     C53335  11.488   0.732   4.760  0.4517  0.5371 -0.2406
  396MOL0     C53336  11.485   0.882   4.806  0.9209 -0.3015  0.5362
  396MOL0     C53337  11.488   0.899   4.956  0.0844 -0.1921 -1.3206
  396MOL0     C53338  11.623   0.860   5.024 -0.2621 -0.1675  0.7060
  396MOL0     C53339  11.644   0.931   5.164  0.2539  0.5919  0.0761
  396MOL0     C53340  11.549   0.871   5.272  0.0925 -0.4731 -0.3510
  396MOL0     C53341  11.525   0.958   5.398  0.6889 -0.3227 -0.3127
  396MOL0     N53342  11.458   1.079   5.351 -0.6134  0.9663  0.2663
  396MOL0     C53343  11.527   1.203   5.349 -0.2878 -0.2102  1.2823
  396MOL0     C53344  11.425   1.289   5.306  0.4571  1.1657  0.9541
  396MOL0     C53345  11.433   1.434   5.280  0.2975 -0.4133  0.2390
  396MOL0     C53346  11.341   1.484   5.169 -0.1898 -0.6925  1.0965
  396MOL0     C53347  11.384   1.618   5.121  0.9478  0.5643  0.6246
  396MOL0     C53348  11.383   1.724   5.222 -0.3810 -0.3467  0.1057
  396MOL0     O53349  11.384   1.844   5.151 -0.2423 -0.4430 -0.0813
  396MOL0     C53350  11.355   1.965   5.202 -0.1202  0.5092  1.2114
  396MOL0     C53351  11.343   1.986   5.342  0.7010 -0.6132 -0.3613
  396MOL0     C53352  11.314   2.120   5.396 -0.2931  0.6881  0.4698
  396MOL0     C53353  11.309   2.137   5.540 -0.2211  0.4702  0.5193
  396MOL0     C53354  11.302   2.227   5.300  1.1795 -0.2588 -0.0523
  396MOL0     C53355  11.284   2.368   5.341 -0.5063  0.4094  0.4712
  396MOL0     O53356  11.348   2.463   5.266  0.1626  0.0264 -0.7185
  396MOL0     C53357  11.374   2.588   5.315 -0.3935  0.7042  0.7749
  396MOL0     C53358  11.389   2.619   5.448  0.4535  0.1039 -0.0851
  396MOL0     C53359  11.424   2.752   5.485 -0.8176  0.3073  0.4759
  396MOL0     C53360  11.456   2.851   5.392 -0.6803  0.1150 -0.8762
  396MOL0     O53361  11.497   2.977   5.438 -0.5851  0.7193  0.1710
  396MOL0     C53362  11.529   3.074   5.339  0.9000  1.3877 -0.2860
  396MOL0     C53363  11.590   3.188   5.422  0.3856 -0.7108  0.1423
  396MOL0     C53364  11.614   3.317   5.342 -0.3104 -0.2567  0.0581
  396MOL0     C53365  11.491   3.417   5.338 -0.1999  0.3351 -0.5436
  396MOL0     C53366  11.505   3.517   5.224 -0.4862  0.1467  0.6805
  396MOL0     C53367  11.387   3.611   5.208 -0.3781  0.3755  0.3810
  396MOL0     C53368  11.412   3.724   5.105  0.2193 -0.1816  0.6694
  396MOL0     C53369  11.387   3.677   4.959 -0.8563  0.9722 -0.2076
  396MOL0    Cl53370  11.218   3.642   4.920  0.4827  0.1699  0.0471
  396MOL0     C53371  11.458   2.809   5.259  0.6188  0.3609  0.2983
  396MOL0     C53372  11.406   2.686   5.216 -0.2154 -1.3500 -0.0477
  396MOL0     O53373  11.212   2.389   5.436  0.5068  0.1910 -0.1323
  396MOL0     C53374  11.328   2.199   5.153  0.7720 -0.5267 -0.5635
  396MOL0     C53375  11.338   2.072   5.116  0.5305  0.3236  0.6620
  396MOL0     N53376  11.317   1.210   5.267 -0.8112 -0.7590  0.4320
  396MOL0     N53377  11.337   1.088   5.284 -0.1692  1.0498  0.1900
  396MOL0     C53378  11.035   0.742   4.623 -0.1635 -0.1496  0.2672
  396MOL0     C53379  10.920   0.713   4.544 -0.9977  0.7163 -0.1570
  396MOL0     C53380  10.728   0.563   4.139 -0.1893 -0.5449  0.0140
  396MOL0     C53381  10.718   0.584   4.006 -1.0430  0.2158  0.7017
  396MOL0     C53382  10.631   0.508   3.926 -0.3608  0.0873 -0.4457
  396MOL0     C53383  10.557   0.404   3.979  1.2221 -0.3460 -0.3158
  396MOL0     O53384  10.480   0.325   3.899 -0.1683 -0.1623  0.2645
  396MOL0     C53385  10.382   0.237   3.964  0.6538  0.4304 -0.6979
  396MOL0     C53386  10.305   0.152   3.864 -0.1777 -0.0430  0.9293
  396MOL0     C53387  10.178   0.225   3.816 -0.3032  0.5206 -0.5281
  396MOL0     C53388  10.200   0.345   3.719 -0.3509  0.5270 -0.3126
  396MOL0     C53389  10.086   0.365   3.632  0.0856 -0.1004 -0.3665
  396MOL0     C53390   9.994   0.389   3.556  0.3543  0.2861 -0.4956
  396MOL0     C53391  10.579   0.381   4.114  1.0258 -0.4527  0.9471
  396MOL0     C53392  10.663   0.456   4.191  0.3627 -0.2488  0.2662
  396MOL0     H53393  11.063   0.501   4.328  1.4814  0.4155  0.1056
  396MOL0     H53394  11.251   0.529   4.475  2.7439  1.8522  1.0635
  396MOL0     H53395  11.411   0.603   4.605  2.1027  0.3071  1.2423
  396MOL0     H53396  11.423   0.753   4.538  0.4069  0.0292 -0.0332
  396MOL0     H53397  11.475   0.665   4.845  1.5145  0.8762  0.2029
  396MOL0     H53398  11.591   0.712   4.728  1.0782  0.0082  1.9331
  396MOL0     H53399  11.565   0.934   4.751 -1.7660  1.7753 -1.6641
  396MOL0     H53400  11.391   0.914   4.761  1.0562 -2.7868 -1.7734
  396MOL0     H53401  11.467   1.000   4.991 -3.0801 -0.7618 -1.2258
  396MOL0     H53402  11.408   0.840   5.003 -0.3974  0.6492 -1.0567
  396MOL0     H53403  11.631   0.751   5.031  0.0292 -0.1782  0.2004
  396MOL0     H53404  11.698   0.903   4.957 -3.0656  2.2980 -1.0874
  396MOL0     H53405  11.745   0.924   5.205 -0.1730 -1.1009  0.9652
  396MOL0     H53406  11.614   1.036   5.165  0.5358  0.7552 -2.6329
  396MOL0     H53407  11.462   0.842   5.211  0.3037 -1.8304 -0.0543
  396MOL0     H53408  11.581   0.770   5.301 -1.9684 -1.7593 -2.1988
  396MOL0     H53409  11.616   0.971   5.457 -0.1589 -2.1625  1.5041
  396MOL0     H53410  11.457   0.902   5.461  3.1565 -0.5914  2.3120
  396MOL0     H53411  11.634   1.213   5.363  0.4522 -4.7565  0.5887
  396MOL0     H53412  11.421   1.493   5.371  0.1698 -1.6852  1.0865
  396MOL0     H53413  11.533   1.451   5.238 -0.5134 -1.9932 -2.6450
  396MOL0     H53414  11.240   1.496   5.207  0.5870  1.3163  2.7057
  396MOL0     H53415  11.352   1.418   5.083  2.6908 -2.6262  2.7875
  396MOL0     H53416  11.318   1.654   5.042  2.1790 -0.1798 -0.8060
  396MOL0     H53417  11.486   1.609   5.081  1.0162  0.8082  0.7437
  396MOL0     H53418  11.474   1.710   5.280 -0.9804  0.3128  1.2477
  396MOL0     H53419  11.292   1.722   5.283  0.0707 -0.4470  0.7904
  396MOL0     H53420  11.366   1.899   5.403 -0.2399 -0.6377 -0.0267
  396MOL0     H53421  11.389   2.202   5.577 -1.2112  1.6168  0.7313
  396MOL0     H53422  11.220   2.192   5.571  0.1360  0.4567  1.6122
  396MOL0     H53423  11.314   2.040   5.591  0.1727 -0.1862 -0.7379
  396MOL0     H53424  11.371   2.558   5.536  1.9854  0.4707  0.5063
  396MOL0     H53425  11.446   2.768   5.590  2.8111 -3.2203  0.5005
  396MOL0     H53426  11.605   3.043   5.267  0.4111 -0.0593 -0.2146
  396MOL0     H53427  11.441   3.112   5.287  0.4552  0.5908 -0.1354
  396MOL0     H53428  11.533   3.215   5.512  1.0520  0.1004  0.3345
  396MOL0     H53429  11.690   3.157   5.454  0.3537 -1.5949 -0.5815
  396MOL0     H53430  11.642   3.296   5.238  2.2371  1.9140  0.1975
  396MOL0     H53431  11.709   3.355   5.381 -0.5068 -0.2384  0.5296
  396MOL0     H53432  11.396   3.363   5.332 -1.1257  1.6643  1.2134
  396MOL0     H53433  11.491   3.475   5.431 -1.6754  2.5056 -1.8028
  396MOL0     H53434  11.534   3.460   5.135  2.2607  2.3453  0.0358
  396MOL0     H53435  11.598   3.573   5.238 -0.1156  0.0926 -1.3146
  396MOL0     H53436  11.301   3.545   5.191  1.3916 -1.6548 -1.3215
  396MOL0     H53437  11.372   3.666   5.301  0.8446 -0.1123  0.8822
  396MOL0     H53438  11.514   3.763   5.112  0.1450  0.3250 -0.7535
  396MOL0     H53439  11.345   3.807   5.128 -0.3668 -0.6351  0.6322
  396MOL0     H53440  11.450   3.591   4.933 -0.4878  1.4986 -1.1330
  396MOL0     H53441  11.410   3.767   4.901  2.5305  1.4653  1.6176
  396MOL0     H53442  11.495   2.883   5.188  2.1816  1.0491  1.7605
  396MOL0     H53443  11.396   2.665   5.110 -1.8993  3.3093 -1.0665
  396MOL0     H53444  11.323   2.280   5.082 -0.7863  0.2959  0.4168
  396MOL0     H53445  11.353   2.041   5.013  0.5299 -2.5864  1.4478
  396MOL0     H53446  11.029   0.820   4.698  2.4203  1.9837 -1.5627
  396MOL0     H53447  10.820   0.748   4.568 -0.0489  3.3592  0.2272
  396MOL0     H53448  10.767   0.672   3.965  0.4468 -0.7568  0.3284
  396MOL0     H53449  10.619   0.518   3.819  0.1474  1.2729 -0.4053
  396MOL0     H53450  10.420   0.166   4.038 -1.6130 -2.8512 -2.4440
  396MOL0     H53451  10.312   0.302   4.019  1.4971  2.1728 -1.6169
  396MOL0     H53452  10.279   0.054   3.905 -0.0305  0.0679  1.2880
  396MOL0     H53453  10.369   0.124   3.780  1.4581 -0.3637  2.2277
  396MOL0     H53454  10.108   0.248   3.896 -2.2049 -3.1797 -0.9327
  396MOL0     H53455  10.135   0.145   3.755 -0.9244 -0.7413  1.5121
  396MOL0     H53456  10.293   0.330   3.662  0.5769  0.0438  1.2752
  396MOL0     H53457  10.221   0.439   3.772 -1.6591  0.6924 -0.0743
  396MOL0     H53458   9.923   0.414   3.479  1.3095 -1.6066 -2.0736
  396MOL0     H53459  10.528   0.293   4.152 -0.9122 -0.4951 -1.4825
  396MOL0     H53460  10.661   0.424   4.295  0.0242 -2.6470 -0.3952
  397MOL0     O53461  10.152   9.304   5.966 -0.1482 -0.2484  0.9162
  397MOL0     C53462  10.195   9.418   5.981  0.4646  1.2206  0.3422
  397MOL0     O53463  10.131   9.531   5.936  0.3153 -0.3385 -0.5123
  397MOL0     C53464  10.029   9.514   5.843  0.5108 -0.4486  0.6799
  397MOL0     C53465   9.895   9.542   5.875 -0.2238 -0.6032  0.6907
  397MOL0     C53466   9.801   9.550   5.772  0.1625  0.0225  1.3477
  397MOL0     C53467   9.849   9.543   5.639 -0.1033  0.5233  0.0847
  397MOL0     O53468   9.766   9.537   5.528  0.1128 -0.1822 -0.0371
  397MOL0     C53469   9.641   9.598   5.537  0.7231 -0.5886  0.6071
  397MOL0     C53470   9.595   9.610   5.394  0.0039  0.3062 -0.9899
  397MOL0     C53471   9.676   9.720   5.322  0.8300 -0.0727  0.7165
  397MOL0     C53472   9.657   9.738   5.174  0.8002 -0.0477  0.2532
  397MOL0     C53473   9.712   9.872   5.120 -0.1736 -0.0848 -0.6349
  397MOL0     C53474   9.697   9.888   4.969 -0.2445 -0.2895  0.2129
  397MOL0     C53475   9.800   9.988   4.901  0.2102 -0.0528 -0.4270
  397MOL0     C53476   9.786  10.133   4.955  0.0457 -0.1851  0.7395
  397MOL0     N53477   9.872  10.225   4.884 -0.2960  0.4608  0.2950
  397MOL0     C53478   9.951  10.184   4.779 -0.0191  0.6738 -0.4955
  397MOL0     C53479  10.035  10.290   4.766  0.4957 -0.8290  0.9586
  397MOL0     C53480  10.137  10.296   4.657 -0.5391  0.0537 -0.1943
  397MOL0     C53481  10.078  10.370   4.535  0.3687 -0.5119  0.0819
  397MOL0     C53482  10.163  10.343   4.414  0.1813 -0.1387 -0.2874
  397MOL0     C53483  10.310  10.389   4.444 -0.0347  0.2555  0.5075
  397MOL0     O53484  10.411  10.365   4.342 -0.4746 -0.0990 -0.5501
  397MOL0     C53485  10.362  10.327   4.225 -0.0319 -0.9834  1.1284
  397MOL0     C53486  10.347  10.189   4.206 -0.5305 -0.8056 -0.2576
  397MOL0     C53487  10.301  10.135   4.084  0.1875 -0.0823 -1.0998
  397MOL0     C53488  10.290   9.976   4.080 -0.1927 -0.4857  0.5519
  397MOL0     C53489  10.265  10.217   3.975  0.1188 -0.2355 -0.3470
  397MOL0     C53490  10.216  10.180   3.839 -0.4687  0.0719 -0.4021
  397MOL0     O53491  10.195  10.283   3.756 -0.0297  0.3225  0.2266
  397MOL0     C53492  10.128  10.264   3.636 -0.3622 -0.8087 -0.6850
  397MOL0     C53493   9.999  10.317   3.611 -0.3814  0.3672 -0.1508
  397MOL0     C53494   9.948  10.318   3.480 -0.1980 -0.5158 -0.3238
  397MOL0     C53495  10.016  10.259   3.373  0.1168  0.1211  0.4515
  397MOL0     O53496   9.956  10.272   3.248 -0.6699 -0.8678  0.1955
  397MOL0     C53497  10.040  10.275   3.127 -0.6424  0.1140 -1.0284
  397MOL0     C53498   9.972  10.217   2.999 -0.4310  1.0395  0.1789
  397MOL0     C53499   9.817  10.231   3.005 -0.1047  0.3240 -0.1543
  397MOL0     C53500   9.752  10.158   2.885 -0.7330 -0.5908 -0.4888
  397MOL0     C53501   9.601  10.193   2.894 -0.0961  0.2202 -0.0338
  397MOL0     C53502   9.526  10.109   2.802 -1.0097  0.1058 -1.1107
  397MOL0     C53503   9.391  10.164   2.752 -0.1360  0.3688  0.6280
  397MOL0     C53504   9.304  10.066   2.669  0.5235  0.5521 -0.1383
  397MOL0    Cl53505   9.152  10.150   2.607 -0.5071 -0.1389 -0.2154
  397MOL0     C53506  10.141  10.203   3.397  0.3596  0.9591 -0.3971
  397MOL0     C53507  10.193  10.208   3.531  0.0073 -0.5731 -0.3347
  397MOL0     O53508  10.183  10.061   3.823 -0.1350 -0.1916  0.3492
  397MOL0     C53509  10.269  10.359   3.999 -0.4240  1.1477  1.1224
  397MOL0     C53510  10.328  10.411   4.120  0.5246  0.9183 -1.4045
  397MOL0     N53511   9.998  10.391   4.850 -0.6561 -0.7002 -0.8228
  397MOL0     N53512   9.914  10.342   4.934  0.7758  0.1238  1.0808
  397MOL0     C53513   9.979   9.518   5.613 -0.9226  0.8310 -0.6373
  397MOL0     C53514  10.071   9.510   5.712  0.0277 -0.2383 -0.6936
  397MOL0     C53515  10.299   9.431   6.073 -0.3429 -0.1759  0.4646
  397MOL0     C53516  10.352   9.318   6.147 -0.7558 -1.1041  0.3962
  397MOL0     C53517  10.427   9.339   6.261 -0.0175 -0.3112 -0.3769
  397MOL0     C53518  10.464   9.462   6.302  0.6186 -0.0617  0.0951
  397MOL0     O53519  10.529   9.476   6.425  0.1484 -0.3204  0.4711
  397MOL0     C53520  10.533   9.601   6.495 -0.4268  0.6053 -0.5692
  397MOL0     C53521  10.580   9.593   6.636 -0.9614  0.4515 -0.2732
  397MOL0     C53522  10.465   9.553   6.734 -0.6730  0.3806  0.3237
  397MOL0     C53523  10.377   9.434   6.699 -0.1795  0.9276  0.3796
  397MOL0     C53524  10.270   9.426   6.797 -0.3753  0.4432  0.0553
  397MOL0     C53525  10.186   9.412   6.883 -0.5312 -0.3049 -0.1176
  397MOL0     C53526  10.425   9.578   6.233  0.5263 -0.0083  0.4487
  397MOL0     C53527  10.343   9.567   6.115  0.0516 -0.0569 -0.8229
  397MOL0     H53528   9.862   9.556   5.977  0.8660 -0.4504  1.0411
  397MOL0     H53529   9.698   9.579   5.792 -0.2647 -1.2655  1.0887
  397MOL0     H53530   9.564   9.549   5.597  1.0680  1.2946  2.6769
  397MOL0     H53531   9.659   9.703   5.558  1.2206 -0.0932 -1.9778
  397MOL0     H53532   9.602   9.511   5.347  1.8358  0.4048 -1.0084
  397MOL0     H53533   9.492   9.645   5.396  0.6906  2.6572 -2.7208
  397MOL0     H53534   9.651   9.821   5.358  6.0582  1.8271 -0.1608
  397MOL0     H53535   9.784   9.706   5.321  0.9857  0.7325 -2.0523
  397MOL0     H53536   9.712   9.654   5.131  0.8367 -1.0925  2.2284
  397MOL0     H53537   9.549   9.728   5.156  1.2343 -3.4684 -1.4643
  397MOL0     H53538   9.667   9.954   5.178  2.3266  0.4660  0.6951
  397MOL0     H53539   9.821   9.883   5.131 -0.0504 -0.1315 -1.7127
  397MOL0     H53540   9.708   9.784   4.936 -1.8350 -0.5092  0.2697
  397MOL0     H53541   9.591   9.908   4.951 -0.2423 -1.4322 -1.2263
  397MOL0     H53542   9.899   9.952   4.932  0.6062 -1.0412 -2.6660
  397MOL0     H53543   9.781   9.987   4.794 -0.4241  3.4748 -0.4410
  397MOL0     H53544   9.807  10.129   5.063 -4.5912  0.0729  1.8965
  397MOL0     H53545   9.683  10.168   4.945 -0.0587 -0.5692  0.4699
  397MOL0     H53546   9.950  10.090   4.725  1.5050 -0.5788  1.5189
  397MOL0     H53547  10.224  10.353   4.692  1.2299 -2.6471  0.1499
  397MOL0     H53548  10.176  10.207   4.607  2.6320  1.9965 -1.5678
  397MOL0     H53549  10.076  10.478   4.548  2.0036 -0.5431  0.8386
  397MOL0     H53550   9.973  10.348   4.512  0.4608  1.5506 -2.7646
  397MOL0     H53551  10.125  10.400   4.329  0.1382 -1.0812 -0.9176
  397MOL0     H53552  10.160  10.236   4.394  0.4268 -0.5058  1.4757
  397MOL0     H53553  10.342  10.327   4.528 -1.6029 -1.0448  0.2008
  397MOL0     H53554  10.311  10.494   4.472 -1.8899  0.6431 -0.7059
  397MOL0     H53555  10.369  10.115   4.282  0.7780  0.2696  0.4571
  397MOL0     H53556  10.190   9.947   4.046  0.5993 -1.0233 -1.4994
  397MOL0     H53557  10.359   9.927   4.010  1.2132 -1.7891  2.7436
  397MOL0     H53558  10.301   9.933   4.180  0.3371 -1.0692  0.2500
  397MOL0     H53559   9.949  10.378   3.684  0.4794  0.2479  0.5590
  397MOL0     H53560   9.850  10.362   3.465 -0.5027 -0.1704  2.1701
  397MOL0     H53561  10.051  10.382   3.108 -2.0747  0.5380  0.3014
  397MOL0     H53562  10.135  10.225   3.145 -1.0390 -0.8217 -1.4392
  397MOL0     H53563  10.009  10.262   2.907  2.3631 -1.7909 -0.2584
  397MOL0     H53564   9.995  10.111   2.987  1.2257  1.5937 -2.2115
  397MOL0     H53565   9.801  10.339   2.996  1.4220  0.5943  0.0721
  397MOL0     H53566   9.769  10.194   3.097 -1.9422  1.3769 -0.6463
  397MOL0     H53567   9.791  10.209   2.797 -0.0932  4.2847  2.2280
  397MOL0     H53568   9.778  10.052   2.888  1.9384 -0.0056  2.9531
  397MOL0     H53569   9.590  10.301   2.876 -2.6664  0.1019  0.4567
  397MOL0     H53570   9.560  10.174   2.994 -0.4706 -3.1313 -0.7090
  397MOL0     H53571   9.584  10.087   2.712 -1.8544 -0.7196 -1.4667
  397MOL0     H53572   9.505  10.010   2.842 -1.4091 -1.4141 -4.7018
  397MOL0     H53573   9.410  10.259   2.699 -0.0809  0.7221  1.2732
  397MOL0     H53574   9.330  10.191   2.838  0.3653 -0.5942  1.3005
  397MOL0     H53575   9.285   9.981   2.736 -2.2920  2.5941  1.9006
  397MOL0     H53576   9.356  10.031   2.580  0.9852 -1.9703  1.0357
  397MOL0     H53577  10.210  10.169   3.321  3.1564  1.9705  1.5014
  397MOL0     H53578  10.290  10.163   3.548  1.9923  3.2934 -0.2846
  397MOL0     H53579  10.241  10.433   3.925  0.7584  0.5708  0.0457
  397MOL0     H53580  10.331  10.518   4.138 -0.7167  0.6618  0.5606
  397MOL0     H53581  10.015   9.511   5.511 -1.2521 -0.5798 -0.6840
  397MOL0     H53582  10.176   9.518   5.687  0.1037 -0.4396 -0.4491
  397MOL0     H53583  10.324   9.218   6.115 -0.0326 -0.3303 -3.0426
  397MOL0     H53584  10.461   9.251   6.314 -0.3381  0.6486  1.5208
  397MOL0     H53585  10.601   9.658   6.431 -0.8571  0.1720 -1.4409
  397MOL0     H53586  10.440   9.658   6.492  0.2952  2.0076  1.6169
  397MOL0     H53587  10.624   9.689   6.665 -3.3623  0.5402  3.8284
  397MOL0     H53588  10.653   9.511   6.634 -1.7829 -0.2976 -0.5559
  397MOL0     H53589  10.391   9.634   6.739 -2.7477 -0.8666 -4.4610
  397MOL0     H53590  10.511   9.544   6.833  0.8605 -2.6478 -0.5448
  397MOL0     H53591  10.436   9.343   6.710  0.8975  1.7859  1.9724
  397MOL0     H53592  10.326   9.441   6.602  0.7019  0.7235 -0.1133
  397MOL0     H53593  10.120   9.390   6.964 -1.0341  0.7539 -0.2169
  397MOL0     H53594  10.446   9.678   6.268 -2.1324  0.7211  0.1326
  397MOL0     H53595  10.299   9.651   6.061  0.5715  2.2443  2.0800
  398MOL0     O53596  10.953  10.584   5.902  0.1419  1.1178  0.6369
  398MOL0     C53597  10.842  10.598   5.952  0.0933  1.2813 -0.0481
  398MOL0     O53598  10.807  10.684   6.055 -0.4156  0.8244  0.4479
  398MOL0     C53599  10.898  10.745   6.138 -0.0920  0.7096 -0.7719
  398MOL0     C53600  11.036  10.712   6.155 -0.0043  0.2871  0.5381
  398MOL0     C53601  11.105  10.802   6.239 -1.2429 -0.2192  0.1656
  398MOL0     C53602  11.051  10.909   6.309  0.6738  0.3968  0.0455
  398MOL0     O53603  11.140  10.973   6.397  0.1368  0.2461 -0.1467
  398MOL0     C53604  11.089  11.048   6.505 -0.1851 -0.2158  0.9563
  398MOL0     C53605  11.169  11.169   6.547 -0.0588 -0.4834  0.4132
  398MOL0     C53606  11.309  11.184   6.475  0.9030  0.1695 -0.2094
  398MOL0     C53607  11.374  11.317   6.512 -0.6587  0.4225  0.4040
  398MOL0     C53608  11.309  11.446   6.455 -0.3333 -0.1424 -0.2503
  398MOL0     C53609  11.363  11.503   6.322  0.4324 -0.0813 -0.2385
  398MOL0     C53610  11.324  11.422   6.197  0.0224 -0.9142  0.4807
  398MOL0     C53611  11.171  11.418   6.168  0.2668 -0.5646 -0.6665
  398MOL0     N53612  11.171  11.419   6.021 -0.0351 -0.0813 -0.9728
  398MOL0     C53613  11.141  11.305   5.945  0.3830 -0.4657 -0.1935
  398MOL0     C53614  11.129  11.350   5.815  0.5518 -0.2299 -0.3646
  398MOL0     C53615  11.114  11.262   5.702  0.4417 -0.4446  0.1091
  398MOL0     C53616  10.993  11.163   5.711 -0.1131 -0.0269  1.1963
  398MOL0     C53617  10.870  11.206   5.630 -0.0589  0.1260 -0.5145
  398MOL0     C53618  10.811  11.333   5.689 -0.0124  0.9062 -0.0790
  398MOL0     O53619  10.762  11.292   5.816 -0.4880  0.1051  0.2175
  398MOL0     C53620  10.673  11.375   5.887 -0.4021 -0.6383  0.0732
  398MOL0     C53621  10.589  11.323   5.983 -0.2692 -0.1322  0.6732
  398MOL0     C53622  10.486  11.402   6.044 -0.3445  0.3807 -0.0625
  398MOL0     C53623  10.393  11.326   6.135 -0.3731 -0.4897 -0.0520
  398MOL0     C53624  10.458  11.532   6.006 -0.3365  0.0476  0.5484
  398MOL0     C53625  10.355  11.617   6.053  0.2022  0.6202  0.9867
  398MOL0     O53626  10.366  11.749   6.010 -0.2032  0.3755  0.3316
  398MOL0     C53627  10.278  11.844   6.060  0.4430  0.1317  1.0282
  398MOL0     C53628  10.211  11.933   5.973  0.4265  0.6989 -0.3193
  398MOL0     C53629  10.128  12.030   6.018 -0.2706 -0.8469 -0.0950
  398MOL0     C53630  10.115  12.051   6.157  0.6159 -0.1719  1.0243
  398MOL0     O53631  10.036  12.157   6.197 -0.4368  0.4536 -0.1007
  398MOL0     C53632  10.032  12.198   6.336  0.6487  0.1482  0.1316
  398MOL0     C53633   9.999  12.343   6.339 -0.3125  0.0387 -0.4617
  398MOL0     C53634   9.861  12.368   6.294  0.2053 -0.5931 -0.6846
  398MOL0     C53635   9.815  12.515   6.301  0.3633  0.1040  0.5113
  398MOL0     C53636   9.656  12.531   6.281 -0.0494 -0.5954 -0.2417
  398MOL0     C53637   9.617  12.685   6.314  0.3287 -0.5021  0.2000
  398MOL0     C53638   9.698  12.797   6.237  0.7023  0.6458  0.0185
  398MOL0     C53639   9.641  12.810   6.092 -0.3170  0.9127  0.0215
  398MOL0    Cl53640   9.725  12.682   5.993 -0.4385  0.1093  0.2955
  398MOL0     C53641  10.165  11.961   6.237  0.3772 -0.2078 -0.0184
  398MOL0     C53642  10.243  11.856   6.191  0.2859 -0.6734  0.0044
  398MOL0     O53643  10.261  11.563   6.115  0.6424 -0.2959  0.3709
  398MOL0     C53644  10.552  11.583   5.903 -0.0076 -0.4955  0.4861
  398MOL0     C53645  10.654  11.507   5.850 -0.4790  0.4207 -0.1135
  398MOL0     N53646  11.141  11.498   5.817  0.8680 -0.5111  1.0273
  398MOL0     N53647  11.168  11.533   5.944  0.0852  0.0144  0.2056
  398MOL0     C53648  10.916  10.930   6.297  1.2080  0.4192  0.3547
  398MOL0     C53649  10.843  10.847   6.211  0.2919  1.0734 -0.3242
  398MOL0     C53650  10.725  10.511   5.905 -0.3358  0.1934  0.5656
  398MOL0     C53651  10.736  10.434   5.795  0.2310  0.4859 -0.1122
  398MOL0     C53652  10.622  10.355   5.745 -0.4720  0.6715 -1.1968
  398MOL0     C53653  10.500  10.375   5.806 -0.0066 -0.3336 -0.4367
  398MOL0     O53654  10.398  10.285   5.780 -0.2151  0.1318  0.1632
  398MOL0     C53655  10.306  10.314   5.675  0.5709  0.1584 -0.2680
  398MOL0     C53656  10.195  10.401   5.718  0.4174 -0.4410  1.0973
  398MOL0     C53657  10.103  10.332   5.821 -0.0472 -0.2858 -0.2048
  398MOL0     C53658   9.963  10.392   5.791 -0.5720  0.6033  0.3839
  398MOL0     C53659   9.949  10.529   5.838 -0.3015 -0.0301 -0.1643
  398MOL0     C53660   9.941  10.645   5.881  0.2921  0.1421  0.1693
  398MOL0     C53661  10.487  10.466   5.911  0.3222  0.2865  0.1252
  398MOL0     C53662  10.597  10.530   5.966  0.2199  0.4404  0.1981
  398MOL0     H53663  11.089  10.634   6.101  1.9842  0.9227  1.4628
  398MOL0     H53664  11.209  10.783   6.265 -1.9026  0.2766  3.5780
  398MOL0     H53665  10.987  11.084   6.484 -0.0429 -0.0678  0.5097
  398MOL0     H53666  11.076  10.984   6.594 -0.0315 -0.0476  1.0985
  398MOL0     H53667  11.101  11.252   6.528  1.3322 -0.0869 -3.9932
  398MOL0     H53668  11.176  11.173   6.656 -3.4169  3.1866  0.7207
  398MOL0     H53669  11.367  11.098   6.510  1.8722  0.7589 -0.3422
  398MOL0     H53670  11.306  11.179   6.366  0.9519  2.7740 -0.3825
  398MOL0     H53671  11.376  11.330   6.621 -0.2783  3.3544  0.1165
  398MOL0     H53672  11.477  11.319   6.475 -0.9576  1.8734 -0.4071
  398MOL0     H53673  11.201  11.434   6.441 -0.3662 -1.5159  0.8810
  398MOL0     H53674  11.322  11.523   6.532 -4.9649 -0.1590  0.8745
  398MOL0     H53675  11.321  11.604   6.312  0.4265  0.1085  1.4418
  398MOL0     H53676  11.470  11.523   6.323  0.3187  0.5580  1.4757
  398MOL0     H53677  11.394  11.464   6.124  2.0149  2.7200  4.0642
  398MOL0     H53678  11.357  11.320   6.214  1.5542 -0.1901  2.2344
  398MOL0     H53679  11.122  11.508   6.207  0.7036 -0.6184  0.0231
  398MOL0     H53680  11.113  11.330   6.197 -1.9278  1.5554  2.0313
  398MOL0     H53681  11.143  11.204   5.984  2.7158  0.0173  1.1667
  398MOL0     H53682  11.112  11.309   5.604 -0.1595 -2.5395 -0.9416
  398MOL0     H53683  11.203  11.199   5.702  0.2625 -0.8281 -2.9681
  398MOL0     H53684  10.976  11.148   5.818  1.8275  0.1721  1.5852
  398MOL0     H53685  11.038  11.067   5.682  0.1387  0.5309 -0.3611
  398MOL0     H53686  10.791  11.132   5.643  0.0461 -0.2318 -1.8146
  398MOL0     H53687  10.891  11.211   5.523  2.2542 -2.8039 -0.3421
  398MOL0     H53688  10.733  11.365   5.619 -1.3478 -0.3969  0.7669
  398MOL0     H53689  10.876  11.421   5.685  1.5864 -0.2408 -3.3871
  398MOL0     H53690  10.610  11.219   6.007 -0.8727 -0.3241  0.3915
  398MOL0     H53691  10.292  11.310   6.096 -1.7895 -1.3943  3.6068
  398MOL0     H53692  10.436  11.227   6.150 -0.0678 -0.1368  1.6295
  398MOL0     H53693  10.381  11.384   6.227 -1.9496  2.6286 -2.0290
  398MOL0     H53694  10.238  11.919   5.869 -0.3936  1.4876 -0.6500
  398MOL0     H53695  10.084  12.111   5.962  3.1851  0.7045 -0.7877
  398MOL0     H53696   9.970  12.131   6.396 -1.7663  1.1768 -1.0471
  398MOL0     H53697  10.134  12.188   6.374  0.1724 -0.4629  1.2837
  398MOL0     H53698  10.019  12.373   6.442  1.9526  0.2531 -0.9091
  398MOL0     H53699  10.068  12.396   6.272 -0.3812 -0.8924 -1.2847
  398MOL0     H53700   9.800  12.314   6.366  1.3963 -1.7288 -0.4931
  398MOL0     H53701   9.844  12.326   6.195  2.7004 -0.0723 -1.4246
  398MOL0     H53702   9.845  12.536   6.405  0.6303  0.1598  0.4238
  398MOL0     H53703   9.876  12.576   6.234  2.1406 -1.1141  0.9080
  398MOL0     H53704   9.595  12.460   6.337  1.0859 -1.9323 -0.6375
  398MOL0     H53705   9.635  12.508   6.176  4.8968 -1.7696 -1.2410
  398MOL0     H53706   9.509  12.701   6.304 -0.1786 -1.9104  2.4678
  398MOL0     H53707   9.627  12.697   6.422 -0.0884 -3.1052  0.5911
  398MOL0     H53708   9.804  12.769   6.245  0.8489  0.7088 -1.4167
  398MOL0     H53709   9.673  12.896   6.276  2.5771  0.8632  0.7531
  398MOL0     H53710   9.663  12.913   6.063  0.9907  0.4333 -0.7768
  398MOL0     H53711   9.533  12.798   6.091 -0.3205  0.9849 -0.3105
  398MOL0     H53712  10.140  11.960   6.343 -1.0777 -1.9735 -0.3379
  398MOL0     H53713  10.278  11.785   6.265  3.0006 -0.3217 -0.8252
  398MOL0     H53714  10.555  11.684   5.865  1.4825  1.2333  4.5822
  398MOL0     H53715  10.709  11.552   5.767 -0.8633 -0.3340 -0.7979
  398MOL0     H53716  10.854  11.005   6.345 -0.8294 -0.3965 -0.8647
  398MOL0     H53717  10.741  10.877   6.187  0.3358  2.5466  1.1176
  398MOL0     H53718  10.828  10.446   5.740  1.2154  2.1946  1.7749
  398MOL0     H53719  10.630  10.287   5.661  0.4760 -2.2071  1.0980
  398MOL0     H53720  10.357  10.363   5.591 -1.0037 -1.2361 -2.1193
  398MOL0     H53721  10.267  10.223   5.629 -2.2960  0.7627  0.7595
  398MOL0     H53722  10.138  10.430   5.629  3.5906 -1.9971 -1.6522
  398MOL0     H53723  10.221  10.503   5.748 -2.0883  1.2921 -1.9293
  398MOL0     H53724  10.135  10.332   5.926 -1.8467  0.0151  0.3709
  398MOL0     H53725  10.095  10.228   5.789  1.5232 -0.2179 -0.9001
  398MOL0     H53726   9.899  10.322   5.847  2.0701 -2.7068 -0.3963
  398MOL0     H53727   9.935  10.374   5.687  0.7400 -0.7685  0.2360
  398MOL0     H53728   9.922  10.739   5.930 -1.4690 -1.4274  2.7619
  398MOL0     H53729  10.396  10.467   5.971  0.4041 -3.1175  0.4930
  398MOL0     H53730  10.572  10.601   6.045  2.2872  0.0132  1.3083
  399MOL0     O53731   0.187   5.692   8.767  0.3096 -0.1661 -0.4599
  399MOL0     C53732   0.237   5.722   8.872 -0.1832 -0.1512 -0.0354
  399MOL0     O53733   0.352   5.670   8.921 -0.6460 -0.1551  0.2661
  399MOL0     C53734   0.405   5.562   8.860 -0.1813  0.3394  0.2871
  399MOL0     C53735   0.339   5.443   8.815 -0.4407 -0.5293 -0.3155
  399MOL0     C53736   0.406   5.344   8.752  1.5084 -0.3915 -1.1801
  399MOL0     C53737   0.540   5.364   8.718  0.5305 -0.6570  1.1489
  399MOL0     O53738   0.598   5.263   8.634 -0.1149 -0.0194  0.2855
  399MOL0     C53739   0.701   5.197   8.702  0.3754  0.1785  0.4541
  399MOL0     C53740   0.661   5.125   8.835 -0.2844 -0.0992 -1.3755
  399MOL0     C53741   0.569   5.008   8.811 -0.0344  0.0887  0.5355
  399MOL0     C53742   0.615   4.889   8.728  0.4260 -0.0105  0.1466
  399MOL0     C53743   0.513   4.775   8.741 -0.1596  0.0001  2.0825
  399MOL0     C53744   0.492   4.699   8.609  0.4243 -0.3965 -0.8355
  399MOL0     C53745   0.380   4.588   8.625  0.5563  0.8321 -0.2318
  399MOL0     C53746   0.438   4.455   8.661 -0.8717 -0.7770  0.4341
  399MOL0     N53747   0.342   4.353   8.696 -0.7829 -0.5172 -0.3496
  399MOL0     C53748   0.339   4.304   8.826  1.0379  0.6146 -0.9945
  399MOL0     C53749   0.221   4.228   8.823  0.0744 -0.6708  0.4398
  399MOL0     C53750   0.156   4.163   8.927  0.9038  0.0436  0.1883
  399MOL0     C53751   0.169   4.012   8.909  1.1333  0.4258 -0.1700
  399MOL0     C53752   0.166   3.932   9.040  0.2261 -0.0711 -0.1641
  399MOL0     C53753   0.043   3.963   9.136  0.7288  0.3867 -0.6361
  399MOL0     O53754  -0.080   3.954   9.051 -1.1469 -0.2766 -0.1398
  399MOL0     C53755  -0.200   3.985   9.123  0.1155  0.3952  0.0889
  399MOL0     C53756  -0.210   4.003   9.264 -0.2362  0.1819  0.0754
  399MOL0     C53757  -0.335   4.038   9.322 -0.5490 -0.4703 -0.0162
  399MOL0     C53758  -0.323   4.032   9.476  0.2472  0.9278 -0.2629
  399MOL0     C53759  -0.455   4.048   9.245  0.0018 -0.2033  0.0634
  399MOL0     C53760  -0.584   4.083   9.298 -0.4099 -0.2651  0.5583
  399MOL0     O53761  -0.687   4.102   9.202 -0.8141 -0.2516 -0.4160
  399MOL0     C53762  -0.819   4.126   9.230  0.4598 -0.6611 -0.3827
  399MOL0     C53763  -0.906   4.083   9.128 -0.0489  0.0025  0.9486
  399MOL0     C53764  -1.039   4.104   9.136 -0.1284 -0.2296 -0.0792
  399MOL0     C53765  -1.093   4.151   9.259 -0.6121 -0.1416  0.5746
  399MOL0     O53766  -1.226   4.177   9.277 -0.1969 -0.0077 -0.5454
  399MOL0     C53767  -1.300   4.067   9.221  0.0455  0.1081  0.0183
  399MOL0     C53768  -1.425   4.030   9.305  0.2991 -0.1267 -0.0840
  399MOL0     C53769  -1.368   3.997   9.441 -0.4802  0.1028 -0.7557
  399MOL0     C53770  -1.485   3.983   9.544 -1.0004  0.0159  0.6911
  399MOL0     C53771  -1.431   3.914   9.674 -0.0991 -0.6848  0.0845
  399MOL0     C53772  -1.528   3.918   9.787 -0.0269 -0.4393  0.0132
  399MOL0     C53773  -1.487   3.834   9.914 -0.0539  0.4445  1.0324
  399MOL0     C53774  -1.547   3.896  10.035 -0.1886 -0.8247  0.7774
  399MOL0    Cl53775  -1.524   3.778  10.175 -0.2635  0.5965  0.0515
  399MOL0     C53776  -1.010   4.183   9.363  0.7051  0.4895 -0.3717
  399MOL0     C53777  -0.878   4.175   9.354 -0.2342 -0.0730  0.1485
  399MOL0     O53778  -0.603   4.081   9.416  0.3808  1.5838  0.8003
  399MOL0     C53779  -0.434   4.036   9.100  0.5207 -0.3922 -0.1836
  399MOL0     C53780  -0.314   3.988   9.043  0.1620 -0.0653  0.6181
  399MOL0     N53781   0.176   4.225   8.687  0.1137 -0.4237  0.5977
  399MOL0     N53782   0.249   4.302   8.613 -0.2004  0.7158 -0.5834
  399MOL0     C53783   0.612   5.475   8.763  0.2755 -0.6570  0.4361
  399MOL0     C53784   0.537   5.572   8.839 -1.3793  1.1712  0.0448
  399MOL0     C53785   0.172   5.833   8.935 -0.1986  0.1643  0.1780
  399MOL0     C53786   0.222   5.890   9.043 -0.0413  0.1175 -0.4916
  399MOL0     C53787   0.172   6.006   9.098  0.2929 -0.5549  0.2573
  399MOL0     C53788   0.054   6.066   9.042 -0.0727 -0.6524 -0.5909
  399MOL0     O53789   0.009   6.185   9.091 -0.2263 -0.0769  0.2475
  399MOL0     C53790   0.031   6.289   8.992  0.7212 -0.9113  0.7996
  399MOL0     C53791   0.171   6.330   8.976  0.3934 -0.0515 -0.1944
  399MOL0     C53792   0.222   6.416   9.089  0.1790 -0.1481  1.2213
  399MOL0     C53793   0.304   6.337   9.191  0.0301 -0.5659  0.6398
  399MOL0     C53794   0.433   6.306   9.131  0.8539 -0.5272 -0.6422
  399MOL0     C53795   0.518   6.273   9.052 -0.8805  0.2497  0.8754
  399MOL0     C53796  -0.010   5.996   8.933  0.6331 -1.1951 -1.1841
  399MOL0     C53797   0.060   5.891   8.876 -0.1372 -0.1476  0.2066
  399MOL0     H53798   0.235   5.444   8.846 -0.0458  0.7019  1.0931
  399MOL0     H53799   0.361   5.253   8.714 -0.1041  0.4767 -1.4350
  399MOL0     H53800   0.742   5.121   8.635  0.5319 -0.0804  0.8411
  399MOL0     H53801   0.786   5.262   8.726 -0.0413  1.2172 -0.7306
  399MOL0     H53802   0.747   5.092   8.893 -0.6512  0.0268 -0.7507
  399MOL0     H53803   0.603   5.190   8.900 -1.3656 -0.5095 -1.8913
  399MOL0     H53804   0.529   4.966   8.904  1.3158  1.9901  2.0802
  399MOL0     H53805   0.483   5.048   8.758 -0.3798  0.4459  1.3467
  399MOL0     H53806   0.623   4.925   8.626 -1.2331 -1.1830 -0.4417
  399MOL0     H53807   0.710   4.843   8.757 -0.3318 -0.8895  1.3427
  399MOL0     H53808   0.546   4.713   8.824  2.4950 -1.6255 -0.0117
  399MOL0     H53809   0.422   4.831   8.765  1.4469  3.6121  0.6050
  399MOL0     H53810   0.462   4.774   8.534 -1.4206  0.6623  0.8786
  399MOL0     H53811   0.586   4.654   8.575  2.8316  2.3787  1.5337
  399MOL0     H53812   0.338   4.625   8.719  3.0116  0.4534  1.0908
  399MOL0     H53813   0.303   4.584   8.547  0.1892  1.6774  0.0662
  399MOL0     H53814   0.517   4.475   8.733 -0.2812 -1.0352 -0.1284
  399MOL0     H53815   0.495   4.422   8.573  1.9291 -2.1139  2.5977
  399MOL0     H53816   0.407   4.341   8.901  1.9145  0.3898 -1.6622
  399MOL0     H53817   0.203   4.188   9.022 -3.2454 -0.0522  2.4749
  399MOL0     H53818   0.053   4.197   8.934  0.5897 -0.8355 -0.0358
  399MOL0     H53819   0.259   3.994   8.849 -0.0450  1.0236 -2.2457
  399MOL0     H53820   0.095   3.963   8.844  0.4962  0.9012  0.1822
  399MOL0     H53821   0.261   3.943   9.095 -0.3125 -0.9153  0.9624
  399MOL0     H53822   0.156   3.826   9.016  1.1783 -0.5154  1.2756
  399MOL0     H53823   0.060   4.057   9.190  0.8933 -0.0485  0.0909
  399MOL0     H53824   0.030   3.880   9.206  1.8642 -2.1034 -3.1778
  399MOL0     H53825  -0.123   3.992   9.327 -0.2387 -0.1427  0.0237
  399MOL0     H53826  -0.237   3.976   9.515  0.6045  1.8670  0.3287
  399MOL0     H53827  -0.311   4.132   9.517 -3.7788  0.3366  2.9697
  399MOL0     H53828  -0.404   3.976   9.523  1.3014 -1.7610 -1.4381
  399MOL0     H53829  -0.872   4.050   9.031 -2.5095 -0.9860  0.3473
  399MOL0     H53830  -1.103   4.083   9.051  0.6819 -1.6009 -0.3738
  399MOL0     H53831  -1.334   4.096   9.121 -2.8344 -0.8076  0.6244
  399MOL0     H53832  -1.239   3.977   9.208  0.3582  0.1829  0.9254
  399MOL0     H53833  -1.489   4.119   9.298 -2.0821 -1.7941 -1.3862
  399MOL0     H53834  -1.479   3.941   9.271 -0.1304  0.5064 -1.1317
  399MOL0     H53835  -1.298   4.069   9.484  1.7888 -2.3569 -0.0553
  399MOL0     H53836  -1.307   3.909   9.421  0.6878  0.4027  1.2138
  399MOL0     H53837  -1.520   4.085   9.564 -0.6700  0.0589  1.0729
  399MOL0     H53838  -1.560   3.920   9.496 -0.3599 -2.7129  3.0317
  399MOL0     H53839  -1.337   3.965   9.696 -0.3857 -0.3400  0.5239
  399MOL0     H53840  -1.413   3.808   9.655  3.5256 -0.2085  0.1537
  399MOL0     H53841  -1.532   4.024   9.815  2.2834  0.1051 -1.4044
  399MOL0     H53842  -1.629   3.890   9.758 -1.2082  1.4801  1.9589
  399MOL0     H53843  -1.381   3.852   9.934 -0.3667  2.0396  1.3663
  399MOL0     H53844  -1.507   3.727   9.903  1.5402  0.3214 -1.8090
  399MOL0     H53845  -1.652   3.917  10.015  0.8181  3.0777 -1.3723
  399MOL0     H53846  -1.496   3.990  10.058  0.4094 -1.1659  0.8740
  399MOL0     H53847  -1.047   4.210   9.461  2.3613  0.4603  0.2909
  399MOL0     H53848  -0.814   4.211   9.433  0.8106 -0.9408 -0.2735
  399MOL0     H53849  -0.517   4.045   9.031  0.5867 -0.5137 -0.2785
  399MOL0     H53850  -0.307   3.944   8.944  1.0939 -0.5975  0.9029
  399MOL0     H53851   0.715   5.481   8.729  0.5480 -4.1600  0.2916
  399MOL0     H53852   0.578   5.669   8.868 -0.7072  0.5240  1.3841
  399MOL0     H53853   0.314   5.845   9.080 -0.7535 -1.2955 -0.3975
  399MOL0     H53854   0.230   6.048   9.180  0.2671  1.1949 -0.5709
  399MOL0     H53855  -0.006   6.269   8.891  2.5244 -0.5963  0.0343
  399MOL0     H53856  -0.020   6.379   9.026 -2.3054 -1.7608 -1.0998
  399MOL0     H53857   0.173   6.385   8.882  0.9201 -1.0936 -0.8173
  399MOL0     H53858   0.230   6.239   8.961  0.9820  0.0980  1.1268
  399MOL0     H53859   0.137   6.459   9.143 -2.3701 -2.5833 -0.5987
  399MOL0     H53860   0.284   6.496   9.046 -2.3721  2.2275  1.7245
  399MOL0     H53861   0.257   6.244   9.224  0.8774 -1.9436 -1.7803
  399MOL0     H53862   0.317   6.393   9.284  0.1380  0.7036 -0.1191
  399MOL0     H53863   0.595   6.243   8.983 -1.1337 -2.3460  1.6582
  399MOL0     H53864  -0.109   6.028   8.901  0.0382 -1.5317  0.2542
  399MOL0     H53865   0.016   5.843   8.790  1.7752  2.7715 -2.6594
  400MOL0     O53866  11.090   0.446   9.025  0.6500  0.6811  0.0654
  400MOL0     C53867  11.041   0.551   8.997  0.5665  0.1437  0.7572
  400MOL0     O53868  10.909   0.575   8.989 -0.9447  0.1002  0.1944
  400MOL0     C53869  10.821   0.473   8.952  0.1002 -0.0177  0.0149
  400MOL0     C53870  10.743   0.488   8.839  0.4695  0.4928 -0.8633
  400MOL0     C53871  10.631   0.404   8.810 -0.1533  0.0312  0.2784
  400MOL0     C53872  10.588   0.307   8.902 -0.6089  1.3400 -0.9214
  400MOL0     O53873  10.491   0.221   8.873  0.1490 -0.1205 -0.2374
  400MOL0     C53874  10.500   0.079   8.896 -0.0043 -0.3557 -0.4452
  400MOL0     C53875  10.620   0.022   8.823 -0.0290  0.2264  0.1238
  400MOL0     C53876  10.637  -0.133   8.851 -0.0551  0.5946  0.2109
  400MOL0     C53877  10.537  -0.210   8.765  0.0693  0.0896 -0.1467
  400MOL0     C53878  10.540  -0.366   8.798 -0.1391  0.3379  0.3817
  400MOL0     C53879  10.492  -0.463   8.681  0.1399  0.1327 -0.0248
  400MOL0     C53880  10.581  -0.464   8.557  0.7058 -0.7792 -0.1795
  400MOL0     C53881  10.715  -0.531   8.576  0.2438  0.2034 -1.0218
  400MOL0     N53882  10.770  -0.564   8.444  0.1918 -0.5778 -0.4856
  400MOL0     C53883  10.753  -0.687   8.376  0.5726  0.0163 -0.7758
  400MOL0     C53884  10.837  -0.670   8.270 -0.4350  0.5903 -1.1811
  400MOL0     C53885  10.842  -0.777   8.168  0.7688  0.9367  0.6757
  400MOL0     C53886  10.931  -0.760   8.052 -0.6921  0.2739 -0.0342
  400MOL0     C53887  11.005  -0.896   8.005  0.5963  0.3187  0.0060
  400MOL0     C53888  11.142  -0.901   8.072 -1.1115 -0.1780 -1.4345
  400MOL0     O53889  11.220  -1.005   8.011 -0.3731  0.3303 -0.7522
  400MOL0     C53890  11.224  -1.127   8.076  0.1920  0.9285  0.9490
  400MOL0     C53891  11.343  -1.197   8.065 -0.1046  0.4952 -0.6131
  400MOL0     C53892  11.373  -1.308   8.147 -0.0098  0.3434  0.3583
  400MOL0     C53893  11.511  -1.368   8.127  0.3934  0.2887  0.8417
  400MOL0     C53894  11.266  -1.356   8.231 -0.8289 -0.2479  0.5393
  400MOL0     C53895  11.275  -1.491   8.309 -0.3443 -0.0531 -0.4823
  400MOL0     O53896  11.170  -1.533   8.377  0.8441  0.0093  0.3489
  400MOL0     C53897  11.172  -1.658   8.417  0.8608 -0.3868  0.6500
  400MOL0     C53898  11.169  -1.772   8.344  0.8111 -1.2667  0.3262
  400MOL0     C53899  11.181  -1.903   8.408  0.0696 -0.2483  0.5870
  400MOL0     C53900  11.194  -1.906   8.551 -0.2950 -0.2602  0.3227
  400MOL0     O53901  11.218  -2.016   8.628  1.0610  0.0765 -0.1937
  400MOL0     C53902  11.225  -2.143   8.568  0.2792  0.3778  0.4982
  400MOL0     C53903  11.287  -2.258   8.654  1.1974 -0.1410 -0.5612
  400MOL0     C53904  11.298  -2.382   8.575 -0.2819  0.2349 -0.9580
  400MOL0     C53905  11.412  -2.472   8.629  0.2189  0.7941 -0.2130
  400MOL0     C53906  11.418  -2.594   8.531 -0.1599 -0.2678 -0.6901
  400MOL0     C53907  11.511  -2.714   8.583  0.2439 -0.3359  0.9395
  400MOL0     C53908  11.522  -2.827   8.475  1.0637 -0.6952  0.9197
  400MOL0     C53909  11.615  -2.941   8.512 -0.9497  0.7258  0.4289
  400MOL0    Cl53910  11.600  -3.075   8.396 -0.0195  0.3426  0.3742
  400MOL0     C53911  11.196  -1.789   8.622 -1.3873 -0.5552 -0.7580
  400MOL0     C53912  11.186  -1.664   8.557  0.2874  0.9141  0.4180
  400MOL0     O53913  11.372  -1.562   8.276  0.4612 -0.1348 -0.0483
  400MOL0     C53914  11.142  -1.291   8.226 -0.3295  0.3770 -0.5889
  400MOL0     C53915  11.115  -1.180   8.153  0.2864  0.2716  0.0047
  400MOL0     N53916  10.909  -0.548   8.276  0.0877 -0.4070 -0.2286
  400MOL0     N53917  10.868  -0.493   8.384  0.0132 -0.2174 -0.1489
  400MOL0     C53918  10.671   0.289   9.023 -0.5136 -0.1873 -0.5991
  400MOL0     C53919  10.792   0.369   9.036  0.8734  0.0604 -0.3894
  400MOL0     C53920  11.134   0.648   8.944 -0.6718 -0.5751  0.8940
  400MOL0     C53921  11.077   0.764   8.874  0.3466  0.6929  0.4258
  400MOL0     C53922  11.159   0.851   8.802 -0.3448 -0.4693  0.4601
  400MOL0     C53923  11.306   0.837   8.810  0.4239 -0.3143 -0.0667
  400MOL0     O53924  11.389   0.917   8.742  0.8150  0.1223  0.4109
  400MOL0     C53925  11.332   1.050   8.715 -0.2194  0.0617 -0.0363
  400MOL0     C53926  11.431   1.130   8.636  0.9193 -0.5230 -0.3627
  400MOL0     C53927  11.438   1.096   8.485  0.4763 -0.9182 -0.6383
  400MOL0     C53928  11.516   1.208   8.417 -0.3384  0.9661  0.2370
  400MOL0     C53929  11.442   1.336   8.417 -0.0065 -0.0081  1.0471
  400MOL0     C53930  11.389   1.446   8.437  0.0518 -0.5448  0.2281
  400MOL0     C53931  11.356   0.733   8.887 -0.1864 -0.6678 -0.7193
  400MOL0     C53932  11.275   0.641   8.953 -0.0839  0.4153 -0.6758
  400MOL0     H53933  10.772   0.567   8.771  2.7130  3.7300  3.3616
  400MOL0     H53934  10.582   0.414   8.714  2.9156  1.8702 -1.2712
  400MOL0     H53935  10.513   0.054   9.001  0.8497  0.4128 -0.3560
  400MOL0     H53936  10.403   0.040   8.862 -0.9761  0.2035  1.5652
  400MOL0     H53937  10.607   0.034   8.715 -2.2645  1.0627  0.4332
  400MOL0     H53938  10.709   0.073   8.860 -0.9704  2.1991 -0.2024
  400MOL0     H53939  10.739  -0.161   8.821  0.3015  0.4011  1.5370
  400MOL0     H53940  10.618  -0.165   8.954 -2.6169 -1.3789 -0.7682
  400MOL0     H53941  10.435  -0.171   8.779  0.4373  0.7522  0.8186
  400MOL0     H53942  10.574  -0.191   8.665 -1.5231 -0.8168 -0.9549
  400MOL0     H53943  10.645  -0.391   8.809 -0.0718 -2.3881 -4.0985
  400MOL0     H53944  10.500  -0.389   8.897  1.9164  1.3587  1.5132
  400MOL0     H53945  10.471  -0.565   8.712 -1.5412  0.2504 -0.6603
  400MOL0     H53946  10.390  -0.436   8.651 -1.5106 -0.3505  4.4939
  400MOL0     H53947  10.534  -0.522   8.477  1.1262 -1.6278  0.1732
  400MOL0     H53948  10.598  -0.363   8.520  0.3678 -1.3328 -1.9525
  400MOL0     H53949  10.708  -0.626   8.630 -1.3066  1.2984  0.8520
  400MOL0     H53950  10.792  -0.474   8.629  1.0262  0.3723 -2.3002
  400MOL0     H53951  10.700  -0.779   8.396 -0.0826  0.5121 -0.1948
  400MOL0     H53952  10.868  -0.874   8.213  1.3203  0.1749 -1.1973
  400MOL0     H53953  10.747  -0.784   8.116 -0.0695 -0.0684  2.2693
  400MOL0     H53954  11.000  -0.680   8.080 -1.7752  1.1389  0.2078
  400MOL0     H53955  10.877  -0.707   7.974 -0.5045  1.1871  0.4439
  400MOL0     H53956  11.017  -0.889   7.896 -1.3052 -1.6851 -0.4161
  400MOL0     H53957  10.946  -0.982   8.038  1.2351 -0.0500  0.1931
  400MOL0     H53958  11.137  -0.924   8.179  1.1761 -0.6934 -1.3871
  400MOL0     H53959  11.192  -0.804   8.069  0.5913 -0.9976 -0.9854
  400MOL0     H53960  11.424  -1.156   8.005 -0.0738 -1.2037 -1.8034
  400MOL0     H53961  11.574  -1.293   8.077  0.0783 -0.2452 -0.3881
  400MOL0     H53962  11.550  -1.376   8.228 -0.3907 -0.4892  1.0921
  400MOL0     H53963  11.510  -1.456   8.062  1.4162  1.7492 -1.2678
  400MOL0     H53964  11.159  -1.759   8.236 -1.5602  1.1495  0.7498
  400MOL0     H53965  11.198  -1.995   8.354 -2.2313 -1.2205  1.4042
  400MOL0     H53966  11.121  -2.173   8.550 -0.9675  4.0271  0.7467
  400MOL0     H53967  11.288  -2.137   8.478  0.4286  1.3465  0.6557
  400MOL0     H53968  11.386  -2.224   8.686 -0.4052  0.4625  4.9084
  400MOL0     H53969  11.239  -2.264   8.752  4.0831  0.6105  1.0283
  400MOL0     H53970  11.314  -2.369   8.468  1.9434  0.7476 -0.6176
  400MOL0     H53971  11.201  -2.430   8.590 -1.9589  3.2301 -1.4407
  400MOL0     H53972  11.513  -2.429   8.633  1.5210 -1.9710 -0.7243
  400MOL0     H53973  11.391  -2.506   8.731  2.8721  0.7254  0.4011
  400MOL0     H53974  11.458  -2.560   8.435 -0.4423 -0.1672 -0.7708
  400MOL0     H53975  11.316  -2.631   8.520 -0.3904 -0.0800  0.6576
  400MOL0     H53976  11.605  -2.665   8.611  0.1126  0.1815  0.4902
  400MOL0     H53977  11.468  -2.767   8.668  0.0445 -4.2513 -1.3602
  400MOL0     H53978  11.579  -2.775   8.398  1.1030  1.5754  2.3751
  400MOL0     H53979  11.429  -2.869   8.435  1.2638  0.2222 -0.5729
  400MOL0     H53980  11.609  -2.993   8.609 -0.3665 -0.4515 -0.1441
  400MOL0     H53981  11.719  -2.911   8.495 -1.0444 -0.0177 -1.7281
  400MOL0     H53982  11.195  -1.798   8.730  2.7860 -0.1171 -0.5247
  400MOL0     H53983  11.193  -1.574   8.616  1.4916  1.0351  0.1123
  400MOL0     H53984  11.059  -1.333   8.282 -0.6437  0.8838 -0.6716
  400MOL0     H53985  11.017  -1.134   8.151  0.2838  0.3962  1.7919
  400MOL0     H53986  10.658   0.218   9.104  1.9889  1.0802  1.0611
  400MOL0     H53987  10.856   0.357   9.123  1.7625 -0.3747 -1.0958
  400MOL0     H53988  10.970   0.774   8.868  0.1511 -0.0632  2.0514
  400MOL0     H53989  11.097   0.929   8.761 -2.0613 -0.8507  2.1934
  400MOL0     H53990  11.245   1.047   8.650 -2.1265  0.2379  2.3423
  400MOL0     H53991  11.313   1.094   8.814  2.6041 -2.0273  1.5902
  400MOL0     H53992  11.529   1.120   8.683  1.0666 -4.1020 -1.1491
  400MOL0     H53993  11.397   1.231   8.659 -0.2644 -0.2389 -2.9657
  400MOL0     H53994  11.339   1.104   8.440 -0.6960  0.0424  1.9180
  400MOL0     H53995  11.474   0.993   8.475 -0.7123 -1.3820 -0.3385
  400MOL0     H53996  11.553   1.186   8.317  2.9712 -0.1582  1.5476
  400MOL0     H53997  11.609   1.220   8.473  0.1472 -2.1118  0.2620
  400MOL0     H53998  11.353   1.545   8.456 -1.0678 -0.6267 -1.2236
  400MOL0     H53999  11.465   0.740   8.888 -0.0764 -0.8396  3.3022
  400MOL0     H54000  11.308   0.558   9.014 -1.1979 -1.9063 -3.0159
  401MOL0     O54001   2.250   9.254   2.973  0.0721 -0.2063 -0.0933
  401MOL0     C54002   2.300   9.259   2.864 -0.1237 -0.3051 -0.6206
  401MOL0     O54003   2.248   9.194   2.757  0.4957  0.6276  0.3754
  401MOL0     C54004   2.115   9.147   2.759 -0.7927  0.0285 -1.0637
  401MOL0     C54005   2.014   9.216   2.693 -0.1002  0.5278  0.8002
  401MOL0     C54006   1.888   9.155   2.686  0.5756 -0.1277 -0.0655
  401MOL0     C54007   1.865   9.030   2.749  0.4748 -0.2959  0.1571
  401MOL0     O54008   1.737   8.986   2.746  0.2257  0.0665  0.2273
  401MOL0     C54009   1.671   8.969   2.614  0.1612 -0.3803  0.3120
  401MOL0     C54010   1.638   8.827   2.575 -0.5595 -0.5864  0.0574
  401MOL0     C54011   1.505   8.773   2.620  0.6118  0.9345  0.4178
  401MOL0     C54012   1.493   8.628   2.587  0.0178 -0.1042  0.7281
  401MOL0     C54013   1.357   8.575   2.613  0.5835 -0.1003 -0.2352
  401MOL0     C54014   1.358   8.418   2.617 -0.0009  0.4221 -0.2443
  401MOL0     C54015   1.402   8.348   2.748 -0.4951 -0.6493 -0.5270
  401MOL0     C54016   1.377   8.191   2.732  0.4464 -0.0877 -0.2834
  401MOL0     N54017   1.385   8.124   2.867  0.1912  0.6738 -0.0901
  401MOL0     C54018   1.313   8.160   2.968  0.7659  0.1990 -0.0394
  401MOL0     C54019   1.374   8.103   3.071  0.4267  0.0350  1.0954
  401MOL0     C54020   1.333   8.114   3.207  0.1866  0.4493 -0.9889
  401MOL0     C54021   1.357   8.255   3.254  0.2791  0.0161 -0.5871
  401MOL0     C54022   1.499   8.293   3.275  0.4849  0.3554 -1.0053
  401MOL0     C54023   1.567   8.246   3.401 -0.3714 -0.1225 -0.6886
  401MOL0     O54024   1.508   8.319   3.512  0.2919  0.5613  0.2089
  401MOL0     C54025   1.473   8.254   3.627 -0.5163 -0.5592  0.2052
  401MOL0     C54026   1.499   8.123   3.661  0.2370 -0.2159  0.2648
  401MOL0     C54027   1.455   8.065   3.775 -0.6771 -0.3767 -0.5933
  401MOL0     C54028   1.482   7.914   3.783 -1.0023 -0.9150  0.0638
  401MOL0     C54029   1.400   8.150   3.875 -0.2359 -0.0312 -0.5713
  401MOL0     C54030   1.372   8.104   4.012 -0.1088 -0.7803  0.1030
  401MOL0     O54031   1.291   8.186   4.087  0.2667 -1.1751  0.1115
  401MOL0     C54032   1.288   8.159   4.222  0.0514  0.0346  0.6333
  401MOL0     C54033   1.382   8.205   4.305 -0.0809  0.5278  0.0403
  401MOL0     C54034   1.372   8.197   4.439  0.0912 -0.1634 -0.9676
  401MOL0     C54035   1.253   8.148   4.508 -0.1742  0.1972  0.4278
  401MOL0     O54036   1.241   8.124   4.641  0.6978 -0.6142 -0.6864
  401MOL0     C54037   1.356   8.106   4.722 -0.8463  0.3883  0.2655
  401MOL0     C54038   1.305   8.052   4.849  0.4989 -0.1310  0.7185
  401MOL0     C54039   1.414   8.037   4.949  0.0261  0.4543 -0.2751
  401MOL0     C54040   1.369   7.972   5.085  0.3481  0.5618  0.1013
  401MOL0     C54041   1.469   8.004   5.196 -0.7672 -0.0602  0.3294
  401MOL0     C54042   1.420   7.938   5.323  0.3023 -0.5210  0.2028
  401MOL0     C54043   1.534   7.936   5.423  0.5399  0.1903  1.3126
  401MOL0     C54044   1.481   7.904   5.563  0.0189  0.5423  0.0024
  401MOL0    Cl54045   1.450   7.722   5.562  0.0194  0.2279 -0.3038
  401MOL0     C54046   1.154   8.100   4.427  0.2217 -0.3009  0.5797
  401MOL0     C54047   1.168   8.120   4.289  0.3972  0.2892  0.3592
  401MOL0     O54048   1.449   8.021   4.069 -0.0167 -0.4213  0.3686
  401MOL0     C54049   1.373   8.286   3.847  0.5249 -0.3205 -0.1728
  401MOL0     C54050   1.417   8.335   3.719  0.1408  0.3505  0.5266
  401MOL0     N54051   1.497   8.058   3.028  1.3888  0.1401 -0.1891
  401MOL0     N54052   1.499   8.053   2.908 -0.7443  0.2470  0.1596
  401MOL0     C54053   1.967   8.965   2.815  0.3116 -0.3296  0.0243
  401MOL0     C54054   2.089   9.022   2.822  0.3548  0.5033 -0.5748
  401MOL0     C54055   2.421   9.349   2.851  0.5596 -0.1172 -0.2555
  401MOL0     C54056   2.468   9.422   2.964 -0.0496 -0.0522 -0.4892
  401MOL0     C54057   2.569   9.513   2.934 -0.3653  0.8477 -1.0242
  401MOL0     C54058   2.631   9.526   2.813  0.3457 -0.1292  0.0912
  401MOL0     O54059   2.730   9.613   2.784 -0.2009 -0.0454 -0.1812
  401MOL0     C54060   2.823   9.653   2.890  0.9942 -0.4862 -0.3681
  401MOL0     C54061   2.914   9.531   2.924 -0.2130  0.5296  0.3889
  401MOL0     C54062   2.986   9.553   3.058  1.0295 -0.0390 -0.2470
  401MOL0     C54063   3.066   9.426   3.105 -0.1515 -0.5190 -0.0595
  401MOL0     C54064   3.178   9.417   3.006  0.3888  1.0870 -0.7507
  401MOL0     C54065   3.259   9.418   2.920 -0.7894 -0.4080  1.3981
  401MOL0     C54066   2.574   9.463   2.705 -0.1613  0.7237  0.1650
  401MOL0     C54067   2.476   9.373   2.731 -0.0739 -0.3286 -0.6823
  401MOL0     H54068   2.036   9.304   2.634 -3.5382 -1.2969 -3.9418
  401MOL0     H54069   1.817   9.215   2.630  3.0880  1.1571 -2.1135
  401MOL0     H54070   1.584   9.033   2.600  0.8863  0.7365  0.7091
  401MOL0     H54071   1.738   9.003   2.535  0.6888 -0.3782  0.7520
  401MOL0     H54072   1.641   8.825   2.465  0.4862  2.7506 -0.0849
  401MOL0     H54073   1.723   8.769   2.611  0.5221  0.6177 -0.4718
  401MOL0     H54074   1.505   8.792   2.728 -2.1146  1.3309  0.4047
  401MOL0     H54075   1.426   8.824   2.564  1.0356  0.0351 -1.0381
  401MOL0     H54076   1.533   8.596   2.490  0.2795  3.9590 -0.6757
  401MOL0     H54077   1.554   8.586   2.668 -1.2734 -0.2643  1.6323
  401MOL0     H54078   1.315   8.620   2.704 -0.0161  0.4302 -0.7601
  401MOL0     H54079   1.306   8.599   2.519  0.9804 -3.1381 -1.3278
  401MOL0     H54080   1.252   8.393   2.603  0.0554  0.7677 -1.3689
  401MOL0     H54081   1.418   8.379   2.535  1.6843  3.9091 -0.8534
  401MOL0     H54082   1.509   8.356   2.768 -0.8130  1.9750  0.5594
  401MOL0     H54083   1.346   8.390   2.832  0.8333  0.2086 -0.0283
  401MOL0     H54084   1.450   8.141   2.666 -0.4890 -1.6597 -0.1820
  401MOL0     H54085   1.281   8.186   2.681 -0.6400  1.0909  1.5413
  401MOL0     H54086   1.218   8.211   2.963  1.5546  1.5868 -2.4225
  401MOL0     H54087   1.228   8.085   3.218 -0.9679  2.8036 -4.3060
  401MOL0     H54088   1.385   8.042   3.270 -1.8095 -0.3700 -0.2087
  401MOL0     H54089   1.303   8.263   3.349  0.8021 -2.1784 -0.0537
  401MOL0     H54090   1.319   8.322   3.176  0.3285  1.6566  0.7518
  401MOL0     H54091   1.519   8.400   3.262 -0.7818  0.9190  1.1991
  401MOL0     H54092   1.562   8.252   3.196  2.1259 -0.0392  0.4530
  401MOL0     H54093   1.674   8.264   3.401 -0.4455  0.9764  2.5022
  401MOL0     H54094   1.563   8.139   3.421  1.2984  0.0571  0.8070
  401MOL0     H54095   1.555   8.058   3.594 -2.7531 -1.3406 -1.3004
  401MOL0     H54096   1.572   7.916   3.846 -1.3084  1.1710  0.4929
  401MOL0     H54097   1.400   7.860   3.831  0.6444 -1.9697  1.8682
  401MOL0     H54098   1.499   7.866   3.686 -3.4988  2.8882 -2.5101
  401MOL0     H54099   1.465   8.256   4.257  0.6478 -0.1567  0.5214
  401MOL0     H54100   1.452   8.236   4.501  0.4268 -2.0248 -0.1433
  401MOL0     H54101   1.430   8.044   4.670 -1.7631  0.3019 -0.9939
  401MOL0     H54102   1.404   8.202   4.746  0.7833 -0.6769  1.4477
  401MOL0     H54103   1.218   8.111   4.881 -1.8724 -2.4934 -0.9444
  401MOL0     H54104   1.261   7.956   4.822 -0.0085  0.1686  0.4560
  401MOL0     H54105   1.462   8.135   4.955  0.1345  0.3528  0.6263
  401MOL0     H54106   1.489   7.963   4.918 -1.5592 -1.3570 -0.0298
  401MOL0     H54107   1.274   8.023   5.106  0.0783  0.9417 -1.8170
  401MOL0     H54108   1.350   7.865   5.084 -0.2785  0.5726  2.9894
  401MOL0     H54109   1.489   8.111   5.206  0.6547 -0.3378  0.6982
  401MOL0     H54110   1.556   7.951   5.155 -2.0303 -1.3274 -0.8202
  401MOL0     H54111   1.335   7.994   5.362 -1.6444 -2.4612 -1.0555
  401MOL0     H54112   1.386   7.837   5.301 -2.0942 -0.2025  2.0399
  401MOL0     H54113   1.588   8.031   5.417 -0.1160  0.4923 -2.8857
  401MOL0     H54114   1.609   7.865   5.387  1.4314  1.9970 -0.5851
  401MOL0     H54115   1.389   7.960   5.582  0.3821  0.6972  1.3926
  401MOL0     H54116   1.555   7.940   5.635  0.2102  2.0033 -0.8770
  401MOL0     H54117   1.062   8.073   4.479 -0.5588 -0.5874 -0.9208
  401MOL0     H54118   1.085   8.101   4.221 -1.4710 -0.8452  2.8005
  401MOL0     H54119   1.335   8.357   3.920  0.1002  1.3325 -1.9354
  401MOL0     H54120   1.413   8.440   3.690 -3.1587  0.1318 -0.1167
  401MOL0     H54121   1.963   8.876   2.877  1.6597 -0.3225  0.1371
  401MOL0     H54122   2.163   8.984   2.891 -0.8515  1.6536  1.4315
  401MOL0     H54123   2.429   9.414   3.065  1.8013  0.6214  0.3212
  401MOL0     H54124   2.606   9.569   3.019 -2.7209  1.0261 -0.0192
  401MOL0     H54125   2.883   9.740   2.861 -0.2423  0.4469 -0.2386
  401MOL0     H54126   2.764   9.693   2.973  0.1075  2.5968 -2.3099
  401MOL0     H54127   2.989   9.520   2.845  1.1327  0.6701  1.6139
  401MOL0     H54128   2.856   9.439   2.934  2.5167 -1.5205 -1.2151
  401MOL0     H54129   2.901   9.573   3.124 -0.7580 -5.5485 -0.3397
  401MOL0     H54130   3.064   9.630   3.053  1.1327 -0.1788 -0.8375
  401MOL0     H54131   3.006   9.335   3.097  1.4636 -1.4493 -3.5577
  401MOL0     H54132   3.098   9.434   3.209 -1.8040 -1.6582  0.5696
  401MOL0     H54133   3.316   9.446   2.833  1.7167  0.0340  3.0811
  401MOL0     H54134   2.628   9.478   2.612  0.5121  1.1985  0.6176
  401MOL0     H54135   2.429   9.319   2.650  1.4248  1.4070 -2.8269
  402MOL0     O54136   5.548   5.014   6.037  0.3649  0.6563 -1.1586
  402MOL0     C54137   5.618   4.972   6.130 -0.4958 -0.1568 -0.4089
  402MOL0     O54138   5.605   4.993   6.263  0.1943 -0.5956 -0.1436
  402MOL0     C54139   5.481   5.002   6.322  1.0369  0.5989 -0.3896
  402MOL0     C54140   5.489   5.006   6.460 -0.0371  0.4118  0.3987
  402MOL0     C54141   5.375   5.005   6.544 -1.0716 -0.5734  0.5073
  402MOL0     C54142   5.253   4.993   6.480 -0.0748  0.2203 -0.2815
  402MOL0     O54143   5.139   5.010   6.557  0.2374 -0.2798 -0.5243
  402MOL0     C54144   5.106   5.147   6.597  0.4910 -0.6548  0.2656
  402MOL0     C54145   5.090   5.147   6.748  1.2120 -0.0863  0.0971
  402MOL0     C54146   4.949   5.089   6.779 -0.0970 -0.1575  0.1143
  402MOL0     C54147   4.940   5.055   6.929  0.0531 -0.2443 -0.6300
  402MOL0     C54148   4.810   4.983   6.968 -0.9288 -0.7699 -0.1886
  402MOL0     C54149   4.799   4.931   7.116 -0.4945 -0.2163  0.0127
  402MOL0     C54150   4.672   4.858   7.134  0.4307 -0.5314 -0.0506
  402MOL0     C54151   4.547   4.954   7.145 -0.6074  0.1070 -0.8123
  402MOL0     N54152   4.548   5.023   7.278 -0.1238  0.5204 -0.7745
  402MOL0     C54153   4.524   4.951   7.398  0.2645 -0.1555 -0.4033
  402MOL0     C54154   4.546   5.032   7.502 -0.0524  0.6360 -0.3238
  402MOL0     C54155   4.545   4.999   7.641  0.2544 -0.0696 -0.6763
  402MOL0     C54156   4.410   5.029   7.695 -0.2399  0.0947 -0.5154
  402MOL0     C54157   4.316   4.917   7.654 -0.2105 -0.6033 -0.4843
  402MOL0     C54158   4.297   4.806   7.765  0.1867  0.6345 -0.7033
  402MOL0     O54159   4.413   4.721   7.785  0.3221 -0.1265 -0.5203
  402MOL0     C54160   4.372   4.591   7.797  0.1407  0.3149  0.4825
  402MOL0     C54161   4.439   4.500   7.719 -0.6885  0.0823 -0.3877
  402MOL0     C54162   4.412   4.369   7.736 -0.6301  0.2709  0.4327
  402MOL0     C54163   4.488   4.280   7.644  0.8815 -0.3266 -1.0464
  402MOL0     C54164   4.312   4.327   7.828  0.1252 -0.5133  0.3462
  402MOL0     C54165   4.270   4.183   7.847 -0.6793  0.0098 -0.3468
  402MOL0     O54166   4.135   4.159   7.887 -0.0954 -0.2299  0.3780
  402MOL0     C54167   4.115   4.081   7.995  1.4261 -0.0653  0.4226
  402MOL0     C54168   4.211   4.013   8.070 -0.2865  0.8266 -1.1164
  402MOL0     C54169   4.172   3.936   8.183  0.2451  1.0196 -0.4286
  402MOL0     C54170   4.032   3.925   8.221 -0.2148 -0.4116  0.7677
  402MOL0     O54171   3.981   3.854   8.332 -0.1325 -0.8242  0.3509
  402MOL0     C54172   4.049   3.742   8.375 -0.2255  0.0943 -0.0995
  402MOL0     C54173   4.024   3.619   8.282 -0.0915  0.0107 -0.0526
  402MOL0     C54174   3.905   3.530   8.322 -0.6359 -0.4336 -0.2637
  402MOL0     C54175   3.765   3.598   8.334 -0.9685  0.8819 -0.3692
  402MOL0     C54176   3.715   3.685   8.220 -0.9128 -0.5881  0.8913
  402MOL0     C54177   3.563   3.667   8.189 -0.0629  0.5503  0.6705
  402MOL0     C54178   3.500   3.800   8.138  0.2402 -0.6382  0.7329
  402MOL0     C54179   3.370   3.770   8.075  0.1970  0.0953 -0.0694
  402MOL0    Cl54180   3.311   3.925   7.993 -0.7266  0.1232  0.1829
  402MOL0     C54181   3.942   3.995   8.140 -0.0350 -0.0221 -0.1418
  402MOL0     C54182   3.988   4.073   8.034  0.9081  0.4676 -0.6364
  402MOL0     O54183   4.360   4.093   7.827  0.2280 -0.4092  0.3004
  402MOL0     C54184   4.243   4.424   7.909  0.0085  0.6337  0.2370
  402MOL0     C54185   4.275   4.555   7.890  0.5453  0.3586  0.6131
  402MOL0     N54186   4.582   5.150   7.445  0.2924 -1.0544 -0.5923
  402MOL0     N54187   4.597   5.145   7.319  0.5145 -0.8198  0.5729
  402MOL0     C54188   5.238   4.985   6.338  0.2537 -0.2637  0.0048
  402MOL0     C54189   5.355   5.002   6.259  0.3341 -0.0242 -0.3793
  402MOL0     C54190   5.747   4.918   6.082  0.5242  0.0750 -0.2778
  402MOL0     C54191   5.765   4.891   5.945  0.3705 -1.0017  0.0105
  402MOL0     C54192   5.873   4.820   5.905 -0.1863  1.4167 -0.1202
  402MOL0     C54193   5.975   4.786   5.999 -0.3389  0.6423 -0.6652
  402MOL0     O54194   6.095   4.730   5.950  0.3264  0.5994  0.2932
  402MOL0     C54195   6.212   4.730   6.024 -1.0688 -0.1259  0.3289
  402MOL0     C54196   6.334   4.775   5.949 -0.1516  0.8704  0.2889
  402MOL0     C54197   6.332   4.923   5.913  0.1038  0.5519  0.8652
  402MOL0     C54198   6.466   4.976   5.856  1.0918 -0.5577 -0.6756
  402MOL0     C54199   6.519   4.901   5.742  0.2390  0.1257  1.0000
  402MOL0     C54200   6.566   4.840   5.649  0.3251 -0.0032  0.5800
  402MOL0     C54201   5.955   4.814   6.132 -0.5210  0.1345 -0.1349
  402MOL0     C54202   5.853   4.898   6.174  0.4230 -0.0858 -0.1719
  402MOL0     H54203   5.580   5.015   6.518 -0.0892 -0.7058  0.6681
  402MOL0     H54204   5.390   5.025   6.650 -1.1158 -3.6826  1.1959
  402MOL0     H54205   5.172   5.226   6.561 -0.7150 -0.7076 -2.2577
  402MOL0     H54206   5.006   5.167   6.557 -0.0033  0.7443  2.0399
  402MOL0     H54207   5.168   5.084   6.792  2.6713  0.9577 -0.8480
  402MOL0     H54208   5.106   5.253   6.770 -0.4627  0.5568 -1.5689
  402MOL0     H54209   4.877   5.168   6.755 -0.9777 -1.1653 -0.6296
  402MOL0     H54210   4.937   4.996   6.723 -2.2059 -0.0967  0.3871
  402MOL0     H54211   5.023   4.987   6.953  1.0370  1.4591  1.0789
  402MOL0     H54212   4.957   5.145   6.989 -1.5443 -1.7476  2.2947
  402MOL0     H54213   4.728   5.048   6.936 -0.0559  0.5121  0.0871
  402MOL0     H54214   4.806   4.888   6.915  5.1997 -1.1943 -0.6455
  402MOL0     H54215   4.892   4.875   7.128 -1.8077 -2.3672  0.6517
  402MOL0     H54216   4.797   5.016   7.185 -0.4412 -1.3187  1.3967
  402MOL0     H54217   4.655   4.789   7.051  1.7912  0.5837 -1.3066
  402MOL0     H54218   4.682   4.799   7.226 -2.6700  1.8695  2.0430
  402MOL0     H54219   4.449   4.909   7.129 -0.8305  0.1285  0.4145
  402MOL0     H54220   4.543   5.032   7.068  0.6438 -0.7412 -1.7888
  402MOL0     H54221   4.490   4.848   7.402  2.2151 -0.9038  4.2530
  402MOL0     H54222   4.571   4.893   7.639  3.0385  0.5241 -1.5879
  402MOL0     H54223   4.623   5.054   7.695  1.4454 -2.8637  0.6561
  402MOL0     H54224   4.366   5.124   7.665  0.6217  0.5088 -0.5034
  402MOL0     H54225   4.417   5.037   7.804  0.4828  0.8308 -0.6089
  402MOL0     H54226   4.350   4.861   7.567  1.9069  0.2194 -0.2325
  402MOL0     H54227   4.222   4.974   7.651  2.5723  4.5844 -0.6455
  402MOL0     H54228   4.218   4.741   7.727 -0.5089 -0.0507  1.7303
  402MOL0     H54229   4.254   4.849   7.856  0.7126 -0.8194  0.2708
  402MOL0     H54230   4.515   4.528   7.646  1.6759 -2.0753  1.0809
  402MOL0     H54231   4.550   4.335   7.574  1.7422 -0.1168 -0.1452
  402MOL0     H54232   4.563   4.221   7.698 -1.9424 -0.3323  3.4507
  402MOL0     H54233   4.419   4.213   7.593 -0.0031  0.0020 -0.3101
  402MOL0     H54234   4.318   4.006   8.050  0.0075  2.0310 -0.0395
  402MOL0     H54235   4.253   3.881   8.230  0.6437 -1.2842 -3.4928
  402MOL0     H54236   4.153   3.773   8.384 -0.0734 -0.5809  0.4844
  402MOL0     H54237   4.015   3.725   8.477  0.7364 -0.3112  0.1574
  402MOL0     H54238   4.012   3.666   8.184 -2.7369  3.1804  1.5903
  402MOL0     H54239   4.115   3.558   8.280  0.2329  0.4142  1.1808
  402MOL0     H54240   3.929   3.486   8.419 -2.4587 -1.0454 -0.0594
  402MOL0     H54241   3.894   3.443   8.257 -2.7072 -1.4628  1.3595
  402MOL0     H54242   3.697   3.516   8.358 -0.1301 -0.5868 -2.7321
  402MOL0     H54243   3.764   3.658   8.426  4.2827 -1.7118  1.8092
  402MOL0     H54244   3.774   3.656   8.133  0.8533  0.1532  1.7909
  402MOL0     H54245   3.744   3.790   8.230  0.5871 -0.4994 -2.9591
  402MOL0     H54246   3.552   3.591   8.111 -0.6414  0.0031  1.2674
  402MOL0     H54247   3.502   3.625   8.269  0.3027 -0.5800  0.3757
  402MOL0     H54248   3.575   3.863   8.090  1.4540 -0.0440  3.2143
  402MOL0     H54249   3.483   3.866   8.224 -0.2805 -0.2645  0.3437
  402MOL0     H54250   3.298   3.721   8.142 -0.3745 -2.5976 -2.4393
  402MOL0     H54251   3.387   3.699   7.994 -0.4137  0.5270 -0.5959
  402MOL0     H54252   3.838   3.991   8.169 -0.8090  0.5958 -2.6158
  402MOL0     H54253   3.907   4.132   7.992  0.9072 -0.0151 -1.3228
  402MOL0     H54254   4.171   4.387   7.981 -0.6607 -2.3357 -1.7280
  402MOL0     H54255   4.224   4.630   7.950 -1.8840 -1.1041  0.4857
  402MOL0     H54256   5.138   4.970   6.297  1.1581 -2.6078 -1.5013
  402MOL0     H54257   5.336   5.005   6.152  2.1782 -3.3480 -0.9503
  402MOL0     H54258   5.678   4.903   5.880  1.0594 -3.4107 -1.4781
  402MOL0     H54259   5.892   4.798   5.800 -2.8399  0.1138 -0.3957
  402MOL0     H54260   6.199   4.774   6.124  0.9304  0.9616  0.1663
  402MOL0     H54261   6.231   4.626   6.050 -1.0326 -0.7384 -1.9421
  402MOL0     H54262   6.355   4.708   5.865  3.4892 -2.3786  3.3992
  402MOL0     H54263   6.413   4.748   6.020 -1.0841 -2.3031  0.2817
  402MOL0     H54264   6.325   4.974   6.010  0.1004 -1.3602  1.9234
  402MOL0     H54265   6.243   4.947   5.855 -0.3846 -2.4196  0.2234
  402MOL0     H54266   6.545   4.984   5.931 -0.3032  3.4322  0.6353
  402MOL0     H54267   6.444   5.079   5.829 -0.3504 -0.3597  1.0118
  402MOL0     H54268   6.599   4.773   5.572 -2.2939 -2.2005  1.2059
  402MOL0     H54269   6.021   4.783   6.212  2.1156  0.5221 -2.0281
  402MOL0     H54270   5.835   4.940   6.273 -2.9643  0.3110 -0.8227
  403MOL0     O54271   2.232  11.157   9.607  0.2502  0.2561  0.3880
  403MOL0     C54272   2.285  11.048   9.629  0.2797 -0.0668 -0.3876
  403MOL0     O54273   2.340  11.009   9.755 -0.3323  0.3127 -0.3469
  403MOL0     C54274   2.340  11.086   9.875  0.2084  0.8512  0.7507
  403MOL0     C54275   2.293  11.217   9.893 -0.2934  0.1493 -0.0955
  403MOL0     C54276   2.288  11.277  10.025 -0.1108 -0.2940 -0.3507
  403MOL0     C54277   2.322  11.202  10.138 -0.6184 -0.1044 -0.5236
  403MOL0     O54278   2.310  11.245  10.269 -0.3235  0.4179  0.6888
  403MOL0     C54279   2.356  11.380  10.296  0.2644  0.8218 -0.1348
  403MOL0     C54280   2.508  11.384  10.326 -0.2537  0.4825  0.7654
  403MOL0     C54281   2.574  11.518  10.279  0.1621  0.0480  0.5655
  403MOL0     C54282   2.726  11.503  10.276  0.1755  0.0375  0.6163
  403MOL0     C54283   2.806  11.627  10.231  0.0187  0.3899  0.1307
  403MOL0     C54284   2.763  11.740  10.317  0.0555 -0.2485 -0.0367
  403MOL0     C54285   2.881  11.846  10.338  0.3019 -0.3004 -0.4930
  403MOL0     C54286   2.929  11.908  10.211 -0.1166 -0.1495 -0.1636
  403MOL0     N54287   2.813  11.977  10.149  0.2625 -0.3056  0.2112
  403MOL0     C54288   2.784  12.109  10.170  0.6715 -0.4818 -0.2170
  403MOL0     C54289   2.667  12.136  10.108 -0.1442 -0.0664 -0.4193
  403MOL0     C54290   2.578  12.254  10.126 -1.2124  0.2261  0.0503
  403MOL0     C54291   2.648  12.382  10.061  0.2442  0.6087  0.0338
  403MOL0     C54292   2.557  12.506  10.089 -0.5168 -0.6790 -0.3776
  403MOL0     C54293   2.588  12.631   9.998 -0.1725 -0.1320 -0.9371
  403MOL0     O54294   2.469  12.704  10.006 -0.1561  0.0922  0.7911
  403MOL0     C54295   2.465  12.821  10.079  0.2590 -0.1723  0.6695
  403MOL0     C54296   2.524  12.841  10.197 -0.0092 -0.1593  1.0825
  403MOL0     C54297   2.514  12.969  10.265 -0.0202  1.1817  0.4562
  403MOL0     C54298   2.582  12.980  10.394 -0.6676 -0.5470 -0.2482
  403MOL0     C54299   2.437  13.072  10.211  0.1900 -0.2871 -0.1883
  403MOL0     C54300   2.421  13.207  10.278  0.6366 -0.2520 -0.3537
  403MOL0     O54301   2.330  13.293  10.206  0.1173  0.2647 -0.7307
  403MOL0     C54302   2.263  13.400  10.269 -0.1764 -0.9598 -0.9290
  403MOL0     C54303   2.223  13.501  10.184  0.0729 -0.1404  0.0753
  403MOL0     C54304   2.151  13.609  10.240 -0.2695 -0.3686  0.6557
  403MOL0     C54305   2.095  13.610  10.375 -0.4603  0.7142  0.3640
  403MOL0     O54306   1.990  13.690  10.417 -0.1278 -0.0642  0.4108
  403MOL0     C54307   2.018  13.792  10.519  0.1816  0.0201  0.3367
  403MOL0     C54308   1.901  13.891  10.524  0.0816  1.6063 -0.0599
  403MOL0     C54309   1.926  13.999  10.635  0.2111  0.2120  0.4927
  403MOL0     C54310   1.796  14.072  10.667 -0.0452 -0.2380 -0.2645
  403MOL0     C54311   1.835  14.176  10.783  1.0944 -0.3234  0.3728
  403MOL0     C54312   1.706  14.263  10.818 -0.6104 -0.0261  0.8799
  403MOL0     C54313   1.742  14.327  10.952 -0.8366 -0.5621 -0.0675
  403MOL0     C54314   1.657  14.443  10.990  0.5293  0.3483  1.0398
  403MOL0    Cl54315   1.479  14.415  10.957  0.0661  0.2279 -0.0656
  403MOL0     C54316   2.140  13.503  10.453 -0.5184 -0.3961 -0.1899
  403MOL0     C54317   2.229  13.396  10.409  0.2261 -0.8357 -0.6883
  403MOL0     O54318   2.480  13.244  10.382 -0.6830 -0.3167 -0.4152
  403MOL0     C54319   2.371  13.047  10.090  0.1512 -0.5972 -0.5516
  403MOL0     C54320   2.383  12.923  10.029 -0.1002  1.1946 -0.7846
  403MOL0     N54321   2.632  12.022  10.037 -0.4472 -0.1066  0.5886
  403MOL0     N54322   2.718  11.920  10.065  0.0463  0.4863  0.4882
  403MOL0     C54323   2.381  11.075  10.116 -0.2404 -0.0897 -1.2605
  403MOL0     C54324   2.393  11.022   9.993  0.1700  1.0993 -0.1897
  403MOL0     C54325   2.277  10.952   9.520  0.3525  1.1372  0.3435
  403MOL0     C54326   2.264  10.812   9.541  0.4104 -0.6183  0.1390
  403MOL0     C54327   2.247  10.728   9.434 -0.4216  0.0578 -0.8548
  403MOL0     C54328   2.236  10.772   9.307 -0.0916 -0.3473 -0.8260
  403MOL0     O54329   2.235  10.671   9.211 -0.5311 -0.3426  0.1827
  403MOL0     C54330   2.244  10.707   9.078 -0.3073 -0.1154  0.1639
  403MOL0     C54331   2.256  10.574   9.006 -0.2110  0.3501  0.6965
  403MOL0     C54332   2.262  10.596   8.858 -0.4465  0.0231  0.0693
  403MOL0     C54333   2.270  10.478   8.762  0.2537  0.5141 -0.5349
  403MOL0     C54334   2.301  10.524   8.623  0.3310  0.5582 -1.0466
  403MOL0     C54335   2.339  10.556   8.514 -0.0785 -0.6745 -0.2904
  403MOL0     C54336   2.263  10.907   9.287 -0.3290  0.8970 -0.4394
  403MOL0     C54337   2.286  10.997   9.388  0.1983  0.0022  0.0930
  403MOL0     H54338   2.249  11.263   9.805 -0.6625  0.4954  0.2673
  403MOL0     H54339   2.243  11.376  10.030  2.1786  0.7734  0.8950
  403MOL0     H54340   2.334  11.456  10.220  1.6229  1.2298 -0.1322
  403MOL0     H54341   2.314  11.407  10.393  1.9811  0.7430  0.6528
  403MOL0     H54342   2.523  11.364  10.433 -2.4397 -0.7661  0.9084
  403MOL0     H54343   2.549  11.293  10.280 -0.9155 -0.0410  1.1813
  403MOL0     H54344   2.527  11.561  10.191 -2.5268  0.2714  2.0082
  403MOL0     H54345   2.555  11.587  10.362  0.0497 -0.9756  1.4122
  403MOL0     H54346   2.757  11.478  10.379 -0.3972  1.2595  1.1029
  403MOL0     H54347   2.750  11.417  10.214 -0.7068  2.0253 -2.6995
  403MOL0     H54348   2.914  11.611  10.243  0.0311 -0.3085 -0.8498
  403MOL0     H54349   2.791  11.649  10.125  0.6050  1.0350  0.1703
  403MOL0     H54350   2.673  11.790  10.279 -0.1502  0.3603  1.1788
  403MOL0     H54351   2.738  11.706  10.418 -0.5562  2.5240  0.8234
  403MOL0     H54352   2.830  11.916  10.404 -0.6026  0.4896 -1.9673
  403MOL0     H54353   2.961  11.795  10.393  0.3999 -0.4714 -0.7899
  403MOL0     H54354   2.959  11.834  10.136 -3.7577 -3.2760  1.1200
  403MOL0     H54355   3.010  11.978  10.234 -1.4137  1.0776  0.7917
  403MOL0     H54356   2.833  12.184  10.231  0.8195 -0.9051  0.1825
  403MOL0     H54357   2.481  12.229  10.082 -1.4394 -0.9580  1.1669
  403MOL0     H54358   2.561  12.273  10.233  1.0676  0.4973  0.4101
  403MOL0     H54359   2.650  12.358   9.954  0.5478 -1.2646  0.4247
  403MOL0     H54360   2.751  12.390  10.098  0.8300  0.6923 -1.5421
  403MOL0     H54361   2.586  12.534  10.191  0.5185  4.5410 -1.7946
  403MOL0     H54362   2.450  12.494  10.073 -0.9437  3.6718 -1.9436
  403MOL0     H54363   2.599  12.593   9.896 -0.2110 -1.0776 -0.5957
  403MOL0     H54364   2.678  12.684  10.030 -2.0988  1.1890  2.9338
  403MOL0     H54365   2.587  12.767  10.245  1.9322  1.3514  0.9788
  403MOL0     H54366   2.614  12.881  10.428  2.8314  0.5348 -0.0680
  403MOL0     H54367   2.669  13.045  10.387 -2.1109  1.3954 -1.2027
  403MOL0     H54368   2.510  13.024  10.464 -1.3183 -1.0878 -0.5599
  403MOL0     H54369   2.260  13.498  10.081  1.4891 -0.1063  0.5541
  403MOL0     H54370   2.112  13.682  10.169 -1.5197 -0.6561  1.0228
  403MOL0     H54371   2.025  13.737  10.613  1.1897  2.4801  1.8253
  403MOL0     H54372   2.113  13.847  10.521  0.2789 -0.0984  3.0129
  403MOL0     H54373   1.883  13.940  10.428  2.1323  1.7579 -0.4011
  403MOL0     H54374   1.810  13.834  10.547  1.1937 -1.3106 -2.2496
  403MOL0     H54375   2.005  14.061  10.592 -0.6326 -0.0667 -1.5496
  403MOL0     H54376   1.971  13.953  10.724 -0.2486 -1.3281 -0.0420
  403MOL0     H54377   1.768  14.122  10.574  0.9160  2.1963  0.6657
  403MOL0     H54378   1.716  14.006  10.701 -0.2036 -1.1317 -2.2373
  403MOL0     H54379   1.916  14.240  10.746  1.0950 -1.5426 -1.9110
  403MOL0     H54380   1.854  14.125  10.878 -4.1859 -0.7587  1.5364
  403MOL0     H54381   1.691  14.346  10.749  0.8949  0.1393  0.7338
  403MOL0     H54382   1.618  14.198  10.824 -1.9860  1.7959  1.0509
  403MOL0     H54383   1.843  14.368  10.946  0.0118 -2.7182 -1.9590
  403MOL0     H54384   1.743  14.261  11.040  1.8720 -2.7571 -1.5911
  403MOL0     H54385   1.686  14.526  10.926 -1.8759  0.4677 -0.0025
  403MOL0     H54386   1.687  14.470  11.092  2.3561 -0.2010  0.6778
  403MOL0     H54387   2.107  13.493  10.555 -3.1720 -0.8293 -1.0198
  403MOL0     H54388   2.250  13.312  10.474  1.3463  0.6078  0.9052
  403MOL0     H54389   2.312  13.127  10.047 -1.6047 -2.3944 -1.6388
  403MOL0     H54390   2.327  12.893   9.941 -1.5401  1.3229  0.0565
  403MOL0     H54391   2.411  11.023  10.206 -0.5120  2.4488  0.4276
  403MOL0     H54392   2.434  10.921   9.987  1.1941  1.5939 -2.2678
  403MOL0     H54393   2.269  10.786   9.646  0.2771  3.8539  1.4737
  403MOL0     H54394   2.250  10.622   9.457 -0.9585  0.8867  4.1667
  403MOL0     H54395   2.151  10.742   9.033  0.4899  0.2516 -1.2493
  403MOL0     H54396   2.327  10.779   9.069 -0.0761 -0.0329  2.4364
  403MOL0     H54397   2.176  10.503   9.029  0.4244 -0.3561  0.7766
  403MOL0     H54398   2.352  10.531   9.037 -1.1367 -0.4797  2.5634
  403MOL0     H54399   2.353  10.654   8.839 -0.7680 -0.0077 -1.7189
  403MOL0     H54400   2.180  10.663   8.833  1.6327  3.0302  0.7587
  403MOL0     H54401   2.185  10.409   8.763  0.7274 -0.1136  1.2797
  403MOL0     H54402   2.356  10.414   8.786  1.0477  1.7465  0.0123
  403MOL0     H54403   2.387  10.577   8.421 -0.2309  0.3626 -0.1425
  403MOL0     H54404   2.272  10.947   9.187 -0.7509  0.2999 -0.7210
  403MOL0     H54405   2.303  11.100   9.357 -2.9668  0.4415 -0.5254
  404MOL0     O54406   2.893  10.221   2.932  0.1416 -0.4825  0.9741
  404MOL0     C54407   3.002  10.235   2.873  0.3770  0.1117 -0.3269
  404MOL0     O54408   3.045  10.164   2.766  0.2552 -1.0170 -0.5480
  404MOL0     C54409   2.956  10.091   2.690 -0.0890 -0.3691  0.5894
  404MOL0     C54410   3.000  10.072   2.556 -0.6926  1.1570  0.0078
  404MOL0     C54411   2.922   9.999   2.466 -0.2048 -0.1306 -0.8286
  404MOL0     C54412   2.800   9.942   2.513 -0.5332  0.5348  0.0669
  404MOL0     O54413   2.715   9.883   2.417 -0.8618  0.1233  0.3354
  404MOL0     C54414   2.593   9.813   2.454  0.1419 -0.2878 -1.2649
  404MOL0     C54415   2.542   9.728   2.343  0.6964  0.6212 -0.5743
  404MOL0     C54416   2.395   9.702   2.391  0.8466  0.3217  0.3715
  404MOL0     C54417   2.364   9.581   2.311  0.6023 -0.5333  0.3310
  404MOL0     C54418   2.219   9.518   2.332  0.5550  0.0498  0.8467
  404MOL0     C54419   2.174   9.423   2.214  0.9583 -0.0033 -0.4415
  404MOL0     C54420   2.049   9.345   2.256 -0.2161 -0.2921  1.0110
  404MOL0     C54421   2.034   9.218   2.170 -0.0897  0.3318  0.0918
  404MOL0     N54422   2.098   9.103   2.237 -0.9615 -0.2539 -0.4756
  404MOL0     C54423   2.091   9.069   2.372  0.0606  0.5456  0.0050
  404MOL0     C54424   2.158   8.946   2.395  0.2403 -0.6122  0.3729
  404MOL0     C54425   2.189   8.874   2.525 -0.2885  1.0525 -0.9189
  404MOL0     C54426   2.254   8.732   2.523 -0.4040  0.5427 -0.0094
  404MOL0     C54427   2.151   8.625   2.472 -0.0461 -0.4370  0.0307
  404MOL0     C54428   2.206   8.488   2.432  0.3317  0.3848  0.2100
  404MOL0     O54429   2.111   8.394   2.379 -0.4981  0.6004  0.1599
  404MOL0     C54430   2.155   8.296   2.297  0.7812  0.4850 -0.3710
  404MOL0     C54431   2.285   8.228   2.299  0.1523 -0.2394  0.2706
  404MOL0     C54432   2.320   8.152   2.184  0.2973 -0.3562 -0.1648
  404MOL0     C54433   2.467   8.124   2.169  0.1877 -0.3455  0.2004
  404MOL0     C54434   2.227   8.120   2.078 -0.5882  0.0462 -0.0281
  404MOL0     C54435   2.267   8.034   1.953  1.1109  0.2527 -0.3784
  404MOL0     O54436   2.186   8.057   1.832  0.0709 -0.1343 -0.2027
  404MOL0     C54437   2.250   8.008   1.713  0.2232 -0.4666  0.5918
  404MOL0     C54438   2.383   8.022   1.677  0.4140  0.1482  0.3671
  404MOL0     C54439   2.425   7.973   1.558 -0.9829  0.3405 -1.1524
  404MOL0     C54440   2.338   7.907   1.463 -0.7654 -0.6307  1.2120
  404MOL0     O54441   2.375   7.855   1.342 -0.0097  0.4668  0.9405
  404MOL0     C54442   2.518   7.829   1.328 -0.6889  0.7259 -0.6820
  404MOL0     C54443   2.557   7.767   1.201  1.0871  0.5456 -0.0783
  404MOL0     C54444   2.513   7.618   1.212 -0.5251 -0.0192  0.0715
  404MOL0     C54445   2.464   7.569   1.082  0.7409 -0.1059  0.3991
  404MOL0     C54446   2.302   7.594   1.080 -0.6805  0.4072  0.9416
  404MOL0     C54447   2.236   7.589   0.936 -0.4767 -0.1603  0.2018
  404MOL0     C54448   2.232   7.444   0.896 -0.4368 -0.1808 -0.1299
  404MOL0     C54449   2.143   7.427   0.771 -0.5427  0.4381 -0.3244
  404MOL0    Cl54450   2.157   7.547   0.644 -0.0170 -0.0738  0.5690
  404MOL0     C54451   2.202   7.893   1.493  0.1336 -0.3038 -0.3308
  404MOL0     C54452   2.163   7.954   1.621  0.0642  0.6759 -0.3092
  404MOL0     O54453   2.367   7.961   1.956 -0.2580 -0.6315 -0.2900
  404MOL0     C54454   2.105   8.177   2.081 -0.0761 -0.0936 -0.4880
  404MOL0     C54455   2.068   8.254   2.188  0.9823  0.5789 -1.0462
  404MOL0     N54456   2.200   8.907   2.266  0.8588 -0.7473 -0.2094
  404MOL0     N54457   2.160   8.996   2.181  0.2227  0.0840  0.1886
  404MOL0     C54458   2.756   9.961   2.641 -0.3511 -0.0192  0.3803
  404MOL0     C54459   2.835  10.036   2.734 -0.2949  0.2156 -0.3513
  404MOL0     C54460   3.103  10.322   2.933 -0.2083 -0.2952  0.2741
  404MOL0     C54461   3.070  10.397   3.046  0.4176 -0.0240  0.1486
  404MOL0     C54462   3.154  10.490   3.103  0.4401 -0.3072  0.2351
  404MOL0     C54463   3.286  10.493   3.060  0.2597  0.9308  0.3391
  404MOL0     O54464   3.384  10.576   3.103  0.1584 -0.3097 -0.2431
  404MOL0     C54465   3.350  10.678   3.202 -0.0805  1.1750  0.5968
  404MOL0     C54466   3.332  10.623   3.344 -0.3689  0.8229 -0.8323
  404MOL0     C54467   3.331  10.729   3.454 -0.5630  0.2044  0.9285
  404MOL0     C54468   3.213  10.828   3.454  0.0407 -0.3341  0.2260
  404MOL0     C54469   3.267  10.968   3.477 -0.3400 -0.3350 -0.5838
  404MOL0     C54470   3.328  11.073   3.496  0.7132 -0.0945  0.6551
  404MOL0     C54471   3.330  10.408   2.952  0.0725  0.0325 -0.2035
  404MOL0     C54472   3.235  10.329   2.886  0.4666  0.2195  0.2455
  404MOL0     H54473   3.095  10.122   2.537  0.0681 -0.1034  0.4065
  404MOL0     H54474   2.966   9.969   2.372  1.9158  1.0736 -0.2885
  404MOL0     H54475   2.614   9.757   2.545  1.0333  3.5755  1.1523
  404MOL0     H54476   2.519   9.888   2.481  2.2777  1.0236  1.3863
  404MOL0     H54477   2.535   9.780   2.248  0.5487  0.0874 -0.8620
  404MOL0     H54478   2.592   9.631   2.332 -2.1080 -1.1684  1.1095
  404MOL0     H54479   2.394   9.672   2.496 -2.6315  0.0325  0.3541
  404MOL0     H54480   2.331   9.790   2.381 -2.2618 -1.9674 -1.9010
  404MOL0     H54481   2.364   9.615   2.207 -0.0927 -0.4063  0.3710
  404MOL0     H54482   2.435   9.498   2.319 -0.3583 -1.3458  0.6806
  404MOL0     H54483   2.233   9.450   2.417  2.3381 -0.9972 -0.2336
  404MOL0     H54484   2.148   9.600   2.349  1.9933  1.8081 -1.1646
  404MOL0     H54485   2.133   9.482   2.131 -0.2532  0.7021  0.6289
  404MOL0     H54486   2.249   9.362   2.163 -1.3677 -2.3337 -1.2756
  404MOL0     H54487   2.045   9.325   2.363 -0.2227 -1.1495  0.8532
  404MOL0     H54488   1.959   9.407   2.243  0.5541  0.3175 -2.5426
  404MOL0     H54489   2.065   9.221   2.065 -1.0230 -1.8917 -0.3147
  404MOL0     H54490   1.929   9.186   2.168 -0.5693  1.7537  0.9718
  404MOL0     H54491   2.037   9.116   2.454  0.8364 -0.4988  1.1247
  404MOL0     H54492   2.261   8.918   2.594  0.4649 -2.1311  0.5280
  404MOL0     H54493   2.097   8.871   2.585  0.5638  1.1894  0.4307
  404MOL0     H54494   2.296   8.698   2.618  1.9354  0.4815 -0.9878
  404MOL0     H54495   2.334   8.742   2.449 -1.4246 -0.1931 -1.2672
  404MOL0     H54496   2.105   8.662   2.380  0.0501 -0.3253  0.0275
  404MOL0     H54497   2.061   8.619   2.534  0.7038 -0.5833  1.1276
  404MOL0     H54498   2.249   8.434   2.517 -0.0381 -0.6165 -0.2189
  404MOL0     H54499   2.289   8.499   2.362  2.1073 -1.3654  1.9086
  404MOL0     H54500   2.353   8.252   2.379 -1.3465 -1.0469  1.8494
  404MOL0     H54501   2.490   8.019   2.149  1.0343  0.0810 -1.1934
  404MOL0     H54502   2.489   8.189   2.084 -2.3364  1.6743  0.9456
  404MOL0     H54503   2.519   8.159   2.258 -2.4308  4.2066  0.2632
  404MOL0     H54504   2.453   8.084   1.732  0.2124  0.9361 -0.2431
  404MOL0     H54505   2.527   8.002   1.539 -0.2269  0.8824  2.8105
  404MOL0     H54506   2.589   7.912   1.339  0.5758 -0.6057  2.2077
  404MOL0     H54507   2.552   7.768   1.412  0.3107  2.1223 -0.0371
  404MOL0     H54508   2.482   7.818   1.139 -1.0193 -0.0106  1.8944
  404MOL0     H54509   2.658   7.785   1.164  1.4632  1.0156  1.1551
  404MOL0     H54510   2.436   7.590   1.284 -0.2503 -1.6235 -0.2233
  404MOL0     H54511   2.599   7.560   1.248 -1.3337  0.0377  2.2757
  404MOL0     H54512   2.520   7.619   1.002 -2.4837  2.6997 -0.3404
  404MOL0     H54513   2.466   7.462   1.062 -0.4359  0.2292 -1.8384
  404MOL0     H54514   2.285   7.694   1.122  1.1898  0.7257  1.0574
  404MOL0     H54515   2.249   7.522   1.144 -1.7741 -0.1434 -0.5436
  404MOL0     H54516   2.131   7.620   0.935 -0.5457 -0.3892  0.3756
  404MOL0     H54517   2.296   7.648   0.866  1.2750 -0.5537  1.3316
  404MOL0     H54518   2.194   7.383   0.979 -2.5579  1.2405  0.0161
  404MOL0     H54519   2.329   7.400   0.871 -1.2585 -2.1134 -0.1322
  404MOL0     H54520   2.040   7.396   0.789 -0.1708 -1.0132 -0.5625
  404MOL0     H54521   2.184   7.331   0.739 -3.0861 -0.5094 -0.9446
  404MOL0     H54522   2.131   7.851   1.423 -0.8028 -3.1426  2.1380
  404MOL0     H54523   2.058   7.948   1.648 -0.3541 -0.6561 -2.0140
  404MOL0     H54524   2.030   8.152   2.006  1.3116 -1.7661 -1.3926
  404MOL0     H54525   1.973   8.304   2.174  1.0747  0.7719 -0.9850
  404MOL0     H54526   2.657   9.941   2.680  0.0095 -3.1623 -0.0865
  404MOL0     H54527   2.790  10.036   2.833  2.5267 -1.0761  1.0572
  404MOL0     H54528   2.965  10.393   3.071  0.3514 -1.4313 -0.2664
  404MOL0     H54529   3.116  10.572   3.162  0.3964  0.7424 -1.1870
  404MOL0     H54530   3.439  10.742   3.205  0.9697 -0.0626 -1.4780
  404MOL0     H54531   3.260  10.733   3.172  1.4922  4.3278  1.2777
  404MOL0     H54532   3.421  10.564   3.369 -0.7775  1.5424  2.8458
  404MOL0     H54533   3.243  10.561   3.353 -0.2879  0.8065 -0.0176
  404MOL0     H54534   3.421  10.790   3.441 -2.4911  2.8226 -1.4020
  404MOL0     H54535   3.350  10.683   3.552  2.9866  1.5382  0.9932
  404MOL0     H54536   3.135  10.805   3.527 -2.2314  1.0009 -1.6428
  404MOL0     H54537   3.172  10.830   3.352  0.4485  0.0913  0.0642
  404MOL0     H54538   3.386  11.162   3.510  2.4734 -1.4179  2.4660
  404MOL0     H54539   3.430  10.417   2.911  0.4902 -0.5651  0.6618
  404MOL0     H54540   3.272  10.264   2.807 -1.3606 -1.7011  0.8703
  405MOL0     O54541  10.762   0.301   0.258  0.5444  0.4137  0.2436
  405MOL0     C54542  10.712   0.196   0.288  0.7520 -0.1599 -0.3753
  405MOL0     O54543  10.599   0.152   0.240  0.1136 -0.1946  0.1785
  405MOL0     C54544  10.545   0.230   0.147 -0.0025  0.2364  0.0023
  405MOL0     C54545  10.493   0.362   0.179  0.5751 -0.7553  0.2309
  405MOL0     C54546  10.434   0.442   0.081  0.1316  0.3349  0.1067
  405MOL0     C54547  10.404   0.393  -0.042 -0.1586  0.3465  1.1037
  405MOL0     O54548  10.346   0.482  -0.129 -0.2101 -0.5812  0.6155
  405MOL0     C54549  10.273   0.438  -0.241 -0.3459  0.2147 -0.2580
  405MOL0     C54550  10.146   0.369  -0.184 -0.1720 -0.0409 -1.1644
  405MOL0     C54551  10.044   0.481  -0.141 -0.3787  0.3238  0.2977
  405MOL0     C54552   9.938   0.420  -0.055  0.4016  0.0678  0.7652
  405MOL0     C54553   9.862   0.533   0.011  0.7794  0.2729  0.0831
  405MOL0     C54554   9.803   0.638  -0.082 -0.2980 -0.9966 -0.1791
  405MOL0     C54555   9.716   0.737  -0.007 -0.5035  0.2874 -0.3001
  405MOL0     C54556   9.606   0.798  -0.087  0.0510 -0.0609  0.6735
  405MOL0     N54557   9.676   0.889  -0.182 -0.0562 -0.7387  0.4266
  405MOL0     C54558   9.738   1.020  -0.149 -0.2890 -0.0712  0.3336
  405MOL0     C54559   9.763   1.073  -0.270  0.1896  0.0293  0.8832
  405MOL0     C54560   9.809   1.213  -0.296 -0.8450  0.2431  0.2889
  405MOL0     C54561   9.704   1.299  -0.377  0.2555 -0.2010 -0.4556
  405MOL0     C54562   9.671   1.261  -0.524 -0.0607  0.0904 -0.7189
  405MOL0     C54563   9.544   1.340  -0.569  0.4528  0.1259 -0.4539
  405MOL0     O54564   9.427   1.347  -0.479 -0.3228 -0.1583  0.7113
  405MOL0     C54565   9.356   1.232  -0.472  0.1196  0.2857 -0.8877
  405MOL0     C54566   9.352   1.147  -0.366 -0.1791  0.7454 -0.4550
  405MOL0     C54567   9.270   1.031  -0.357  0.3862 -0.3567  0.8073
  405MOL0     C54568   9.290   0.948  -0.232 -0.1133  0.5532 -0.3077
  405MOL0     C54569   9.187   0.999  -0.467  0.6022  0.0172 -0.3619
  405MOL0     C54570   9.109   0.879  -0.463  0.8266  0.1452  0.1610
  405MOL0     O54571   9.095   0.809  -0.580 -0.3555  0.3257  0.1556
  405MOL0     C54572   8.993   0.712  -0.607  0.2837 -0.3570  1.1226
  405MOL0     C54573   8.864   0.707  -0.548 -0.4922 -0.0444 -1.5211
  405MOL0     C54574   8.773   0.612  -0.581  0.7240  0.3800  0.8715
  405MOL0     C54575   8.798   0.516  -0.678  0.3083 -0.0840 -0.3477
  405MOL0     O54576   8.693   0.427  -0.696 -0.0012  0.5143  0.7546
  405MOL0     C54577   8.723   0.299  -0.752 -0.5403  1.8624  0.4923
  405MOL0     C54578   8.597   0.209  -0.737  1.1013  1.4911 -0.0971
  405MOL0     C54579   8.475   0.240  -0.815 -0.7100 -0.3330  0.4657
  405MOL0     C54580   8.364   0.132  -0.789 -0.1823 -0.3492 -0.7403
  405MOL0     C54581   8.246   0.150  -0.895 -0.1167  0.6099 -0.0398
  405MOL0     C54582   8.116   0.070  -0.875  0.6727  0.2564  0.5078
  405MOL0     C54583   8.027   0.078  -0.998  0.0576  0.1610 -0.2024
  405MOL0     C54584   7.922  -0.033  -0.992  0.1433  0.1900 -0.1182
  405MOL0    Cl54585   7.812   0.005  -0.847  0.5116 -0.0308  0.3529
  405MOL0     C54586   8.912   0.524  -0.752 -0.6435 -0.7843  0.2206
  405MOL0     C54587   9.014   0.616  -0.715  0.6495 -0.5560 -0.3221
  405MOL0     O54588   9.048   0.847  -0.358 -0.1307 -0.8915 -0.2548
  405MOL0     C54589   9.183   1.084  -0.575  1.7881  0.0882 -0.2908
  405MOL0     C54590   9.262   1.195  -0.576 -0.1941 -0.0703 -0.5178
  405MOL0     N54591   9.728   0.977  -0.371 -0.2895  0.7886  0.0580
  405MOL0     N54592   9.674   0.875  -0.315  0.1687 -0.5323 -0.1060
  405MOL0     C54593  10.447   0.258  -0.077  0.1029 -0.4665  0.0833
  405MOL0     C54594  10.515   0.174   0.013  0.4595  0.0947  0.8352
  405MOL0     C54595  10.762   0.120   0.402 -0.3518 -0.0819 -0.1368
  405MOL0     C54596  10.866   0.171   0.484 -1.1316 -0.3698  0.5144
  405MOL0     C54597  10.897   0.103   0.602 -1.0651 -0.0440  0.1032
  405MOL0     C54598  10.829  -0.011   0.648  0.3081 -1.2011  0.7168
  405MOL0     O54599  10.865  -0.107   0.748 -0.4940 -0.2580  0.1245
  405MOL0     C54600  10.918  -0.046   0.869  0.5690  0.3271 -0.3126
  405MOL0     C54601  10.869  -0.136   0.984 -0.4026 -0.7569 -0.3299
  405MOL0     C54602  10.940  -0.273   0.966  0.5093 -0.3464  0.1495
  405MOL0     C54603  10.926  -0.344   1.101 -0.0630 -0.6277  0.9281
  405MOL0     C54604  10.783  -0.395   1.089 -0.3935 -0.7117  0.8410
  405MOL0     C54605  10.675  -0.442   1.082  0.0155  0.1013  0.2788
  405MOL0     C54606  10.725  -0.046   0.574 -0.3135  0.0103  0.6147
  405MOL0     C54607  10.702   0.009   0.449 -0.0974 -0.1048  0.2157
  405MOL0     H54608  10.498   0.408   0.276 -2.8472  2.2529 -0.7954
  405MOL0     H54609  10.404   0.543   0.105 -2.7430 -0.6548  1.0569
  405MOL0     H54610  10.246   0.527  -0.298 -1.0092 -0.7336 -1.4478
  405MOL0     H54611  10.337   0.375  -0.302 -0.3360  0.1146 -0.1449
  405MOL0     H54612  10.100   0.303  -0.258  2.0265  0.1835 -2.8500
  405MOL0     H54613  10.169   0.299  -0.102 -2.8185 -0.6608 -0.8843
  405MOL0     H54614  10.100   0.552  -0.081  2.5623 -2.3878  1.0438
  405MOL0     H54615  10.000   0.533  -0.227 -2.0718  0.3282  1.1240
  405MOL0     H54616   9.868   0.354  -0.105  2.0107 -2.2993  1.4382
  405MOL0     H54617   9.994   0.367   0.023 -0.1828 -0.9564  0.4980
  405MOL0     H54618   9.778   0.483   0.060  1.5005 -3.5022 -2.1254
  405MOL0     H54619   9.930   0.591   0.075  1.3279  1.5034 -1.5498
  405MOL0     H54620   9.891   0.695  -0.111 -1.3230  0.8121  0.0849
  405MOL0     H54621   9.751   0.599  -0.171 -1.7357  0.5644 -0.0733
  405MOL0     H54622   9.666   0.669   0.062 -1.1277 -0.9200 -1.8834
  405MOL0     H54623   9.772   0.822   0.033  2.4985  0.5116 -4.3317
  405MOL0     H54624   9.540   0.861  -0.026 -0.0709 -1.0602  1.6135
  405MOL0     H54625   9.550   0.718  -0.137  2.5612 -1.6222  0.1828
  405MOL0     H54626   9.753   1.053  -0.047  1.6890 -2.2836  0.8491
  405MOL0     H54627   9.849   1.264  -0.209  1.7955  0.2627 -0.8480
  405MOL0     H54628   9.892   1.192  -0.365  0.0709 -3.0429  2.1652
  405MOL0     H54629   9.745   1.398  -0.356 -0.6703 -0.2259  1.8350
  405MOL0     H54630   9.612   1.282  -0.321  0.4915 -3.3259 -0.7997
  405MOL0     H54631   9.642   1.158  -0.547 -1.7159  0.6833 -1.4566
  405MOL0     H54632   9.756   1.265  -0.592 -1.0130 -2.8722 -2.2596
  405MOL0     H54633   9.519   1.304  -0.669 -0.9829 -0.8305  0.2093
  405MOL0     H54634   9.586   1.441  -0.575  1.3970 -0.0256  2.0170
  405MOL0     H54635   9.424   1.173  -0.288  0.1835 -0.6569 -0.2929
  405MOL0     H54636   9.350   1.010  -0.164 -0.1091 -1.0092  1.1944
  405MOL0     H54637   9.193   0.929  -0.183 -0.7392  0.6991 -1.4606
  405MOL0     H54638   9.342   0.853  -0.250 -0.8109  0.2201 -0.6288
  405MOL0     H54639   8.845   0.773  -0.464  2.1455  0.9031 -1.5778
  405MOL0     H54640   8.679   0.610  -0.526  0.2342  0.1209  0.0367
  405MOL0     H54641   8.745   0.293  -0.859  1.6238  0.8249  0.9493
  405MOL0     H54642   8.810   0.249  -0.708 -0.8674  0.8249  0.0095
  405MOL0     H54643   8.629   0.111  -0.774  0.8972  0.9208  1.1762
  405MOL0     H54644   8.574   0.195  -0.631 -2.5772 -1.5957 -1.0979
  405MOL0     H54645   8.497   0.262  -0.920  1.7868  1.1159  1.2003
  405MOL0     H54646   8.439   0.332  -0.768  3.8891  1.2316  1.4975
  405MOL0     H54647   8.417   0.041  -0.817  0.1951 -1.3073  2.7241
  405MOL0     H54648   8.328   0.137  -0.686 -0.4188 -0.2041 -0.8277
  405MOL0     H54649   8.281   0.111  -0.991  4.2631  5.6429 -0.9587
  405MOL0     H54650   8.211   0.254  -0.897 -0.3855  0.6086  2.3171
  405MOL0     H54651   8.132  -0.035  -0.849  0.2246  0.5159  1.8638
  405MOL0     H54652   8.070   0.119  -0.789  4.0391  5.0900 -0.0414
  405MOL0     H54653   8.094   0.060  -1.082  1.6038 -0.6147  1.1445
  405MOL0     H54654   7.982   0.178  -1.009 -2.7207 -0.9649  0.2442
  405MOL0     H54655   7.975  -0.128  -0.981 -0.7764 -0.3475 -0.1418
  405MOL0     H54656   7.864  -0.036  -1.086  1.4708 -3.3325 -1.0056
  405MOL0     H54657   8.930   0.457  -0.836  0.2603 -1.7571  1.1627
  405MOL0     H54658   9.104   0.623  -0.775  1.3258  2.5385  0.8390
  405MOL0     H54659   9.134   1.061  -0.670 -0.3011 -0.0467  0.7510
  405MOL0     H54660   9.244   1.256  -0.664 -2.8111  0.8999  0.6199
  405MOL0     H54661  10.435   0.207  -0.172  2.8374  1.1057 -1.2149
  405MOL0     H54662  10.537   0.072  -0.017  1.1971 -0.8637  4.1922
  405MOL0     H54663  10.914   0.266   0.462 -0.1589 -1.3311 -1.7703
  405MOL0     H54664  10.992   0.138   0.643  0.1505 -0.3336 -2.2851
  405MOL0     H54665  11.027  -0.049   0.861  0.5895 -4.3275 -1.4928
  405MOL0     H54666  10.903   0.062   0.879  0.8187  0.1608  2.8993
  405MOL0     H54667  10.760  -0.144   0.986 -0.3695 -2.3531 -1.8076
  405MOL0     H54668  10.908  -0.089   1.074 -2.8028 -2.0389  1.5077
  405MOL0     H54669  11.046  -0.258   0.945  0.3085 -0.8215 -1.3764
  405MOL0     H54670  10.891  -0.325   0.882  0.1143 -0.6146  0.5418
  405MOL0     H54671  10.939  -0.281   1.190 -2.0108 -1.2237  1.6881
  405MOL0     H54672  10.992  -0.431   1.108 -2.4940 -2.5003  1.6530
  405MOL0     H54673  10.575  -0.482   1.085 -1.5516  3.3222 -2.3119
  405MOL0     H54674  10.666  -0.131   0.605  0.7501 -0.8741  0.2982
  405MOL0     H54675  10.614  -0.031   0.400  0.9479 -3.3669  0.7165
  406MOL0     O54676   0.127   7.227   1.224  0.7737 -0.7729  0.6675
  406MOL0     C54677   0.034   7.261   1.295  0.4534 -0.4213  1.1414
  406MOL0     O54678  -0.071   7.344   1.261 -0.1518  0.5539 -0.8414
  406MOL0     C54679  -0.057   7.400   1.136  0.4912 -0.2276 -0.0070
  406MOL0     C54680  -0.176   7.411   1.055  0.0018  0.8442 -0.0085
  406MOL0     C54681  -0.177   7.487   0.935  0.1441 -0.4640  0.0486
  406MOL0     C54682  -0.072   7.567   0.896 -0.9175 -0.3031 -0.0372
  406MOL0     O54683  -0.094   7.662   0.801  0.3964 -0.0630 -0.0633
  406MOL0     C54684   0.011   7.695   0.703  0.2752  0.2482 -1.0125
  406MOL0     C54685   0.080   7.831   0.736 -0.2289 -1.3223  0.2727
  406MOL0     C54686   0.203   7.867   0.645  1.5929  1.9351  0.1098
  406MOL0     C54687   0.260   7.994   0.711 -0.7873  0.4664  1.3414
  406MOL0     C54688   0.378   8.055   0.639 -0.1930 -0.3549 -0.0663
  406MOL0     C54689   0.441   8.177   0.721 -0.0840 -0.0675  0.2204
  406MOL0     C54690   0.548   8.253   0.648  1.1903 -0.2892  0.1016
  406MOL0     C54691   0.501   8.339   0.529  0.1523 -0.2581  0.6405
  406MOL0     N54692   0.395   8.423   0.565  0.3966 -0.2264 -0.3876
  406MOL0     C54693   0.409   8.543   0.629  0.4740 -0.2082  0.0984
  406MOL0     C54694   0.290   8.592   0.660 -0.1917  0.1412 -0.9687
  406MOL0     C54695   0.263   8.738   0.709 -0.4598  0.5561 -0.3577
  406MOL0     C54696   0.273   8.753   0.863  0.2020 -0.5375 -0.1077
  406MOL0     C54697   0.271   8.897   0.924  0.4117  0.6618 -0.4533
  406MOL0     C54698   0.287   8.885   1.073 -0.5084  0.8783 -0.7500
  406MOL0     O54699   0.427   8.912   1.113 -0.4177 -0.6466  0.3031
  406MOL0     C54700   0.457   9.035   1.158 -0.1046 -0.3962 -0.6098
  406MOL0     C54701   0.558   9.049   1.251 -0.2650 -1.4350  0.1439
  406MOL0     C54702   0.593   9.174   1.300  0.2877  0.1853 -0.8339
  406MOL0     C54703   0.720   9.179   1.383  0.5990  0.0740 -0.2231
  406MOL0     C54704   0.527   9.287   1.245  0.5577 -0.9211  0.1576
  406MOL0     C54705   0.556   9.432   1.289  0.3771  0.4751  0.0067
  406MOL0     O54706   0.622   9.454   1.413 -0.3757 -0.8476  0.7587
  406MOL0     C54707   0.675   9.577   1.418 -0.4370 -0.5471  0.1515
  406MOL0     C54708   0.610   9.670   1.495  0.6866 -0.5848 -0.1596
  406MOL0     C54709   0.662   9.799   1.516  0.6040  0.7739 -0.5884
  406MOL0     C54710   0.779   9.842   1.445  0.2734  0.4250 -0.9197
  406MOL0     O54711   0.812   9.974   1.474 -0.5147  0.9686  0.4775
  406MOL0     C54712   0.924  10.027   1.405  0.3837  1.3810 -0.5649
  406MOL0     C54713   0.989  10.141   1.474 -0.3269 -0.3145  0.3952
  406MOL0     C54714   1.133  10.180   1.434 -1.3104 -0.0755 -0.0662
  406MOL0     C54715   1.131  10.236   1.287  0.5186 -0.0600  0.3312
  406MOL0     C54716   1.263  10.305   1.254  0.2132 -0.0160 -0.7303
  406MOL0     C54717   1.388  10.222   1.266 -0.9733  0.2634 -0.4084
  406MOL0     C54718   1.492  10.282   1.181 -0.4223 -0.3648 -0.0535
  406MOL0     C54719   1.632  10.231   1.212 -0.7169  0.4044  0.0555
  406MOL0    Cl54720   1.624  10.053   1.175  0.1776 -0.3109 -0.1216
  406MOL0     C54721   0.846   9.740   1.375 -0.2547  0.3559 -0.9691
  406MOL0     C54722   0.798   9.605   1.361  0.8976 -0.6845  0.3156
  406MOL0     O54723   0.523   9.516   1.207  0.0616 -0.4906  0.3693
  406MOL0     C54724   0.427   9.276   1.148 -1.4774 -0.0506 -0.0607
  406MOL0     C54725   0.394   9.149   1.111  0.1406  1.0818 -0.9532
  406MOL0     N54726   0.200   8.489   0.630  0.3981 -0.5537 -0.5206
  406MOL0     N54727   0.262   8.388   0.568  1.1918 -0.0720  0.5668
  406MOL0     C54728   0.051   7.562   0.972  0.0902  0.6531 -0.4261
  406MOL0     C54729   0.049   7.484   1.089 -0.0826 -0.2658  0.1616
  406MOL0     C54730   0.030   7.208   1.432 -0.9490  0.0591  0.6866
  406MOL0     C54731  -0.051   7.283   1.520 -0.0772  0.6948  0.3491
  406MOL0     C54732  -0.065   7.232   1.648  0.5527 -0.4703 -0.5621
  406MOL0     C54733   0.008   7.120   1.685  0.4911  1.1496 -0.1193
  406MOL0     O54734  -0.021   7.062   1.810 -0.4010 -0.0143 -0.0607
  406MOL0     C54735  -0.008   6.914   1.825  0.2205 -0.3907 -0.2011
  406MOL0     C54736  -0.059   6.868   1.962  0.0963 -0.1953 -0.0585
  406MOL0     C54737   0.036   6.915   2.076  0.0633  0.8974 -0.0760
  406MOL0     C54738   0.035   7.059   2.113  0.3020  0.2553 -0.3581
  406MOL0     C54739   0.030   7.074   2.257 -0.0941 -0.0447  0.0173
  406MOL0     C54740   0.008   7.101   2.374 -1.0308 -0.7929  0.7221
  406MOL0     C54741   0.090   7.053   1.597 -0.5777  0.3855  0.0226
  406MOL0     C54742   0.103   7.091   1.466  1.0608  0.5288 -0.2692
  406MOL0     H54743  -0.259   7.345   1.074 -0.6221  1.2598 -1.1854
  406MOL0     H54744  -0.272   7.493   0.882  0.1041  0.9809  0.2356
  406MOL0     H54745   0.085   7.615   0.705  0.7818  0.7231  0.3098
  406MOL0     H54746  -0.040   7.687   0.607 -4.2341  1.4750  0.9815
  406MOL0     H54747   0.002   7.907   0.722  0.8691 -0.1687  0.2526
  406MOL0     H54748   0.108   7.835   0.842  0.6068  0.5699  0.0200
  406MOL0     H54749   0.280   7.791   0.630 -0.5192 -0.4209  0.5699
  406MOL0     H54750   0.165   7.886   0.545  0.2725 -1.5465 -0.1816
  406MOL0     H54751   0.179   8.067   0.702 -0.5949  0.4411 -1.5419
  406MOL0     H54752   0.284   7.986   0.817 -1.6648  0.8174  1.5768
  406MOL0     H54753   0.452   7.975   0.630  0.4398  0.2816 -0.5660
  406MOL0     H54754   0.353   8.087   0.538  0.9435  0.7925 -0.0047
  406MOL0     H54755   0.361   8.246   0.749  0.8704  1.1927 -0.0619
  406MOL0     H54756   0.479   8.135   0.815  0.0711 -3.4732 -1.2098
  406MOL0     H54757   0.587   8.324   0.721 -3.9804  3.0179  0.1677
  406MOL0     H54758   0.617   8.176   0.613 -1.5734 -1.8974 -2.3010
  406MOL0     H54759   0.478   8.273   0.445  1.1334  0.9988 -0.6613
  406MOL0     H54760   0.588   8.394   0.493 -0.1387  0.4604  1.0109
  406MOL0     H54761   0.499   8.602   0.644  0.5914 -0.2330 -0.4605
  406MOL0     H54762   0.343   8.796   0.664  1.8034 -3.7705 -2.5910
  406MOL0     H54763   0.160   8.765   0.685 -1.1765 -0.9495  0.8008
  406MOL0     H54764   0.356   8.695   0.905 -0.6908 -1.9127 -0.1612
  406MOL0     H54765   0.187   8.698   0.903  0.1498  0.4540  1.2177
  406MOL0     H54766   0.170   8.935   0.906  0.6930  0.3205 -3.2248
  406MOL0     H54767   0.347   8.961   0.879  0.3239  0.7846 -0.4259
  406MOL0     H54768   0.254   8.787   1.109  3.2556  0.5598  2.6442
  406MOL0     H54769   0.225   8.959   1.123  1.2201  1.6191  0.3770
  406MOL0     H54770   0.609   8.963   1.293  0.1158 -0.1936  2.3456
  406MOL0     H54771   0.696   9.224   1.480 -1.0048  1.5511 -1.2455
  406MOL0     H54772   0.777   9.089   1.404  0.4934  0.3148  1.2055
  406MOL0     H54773   0.784   9.254   1.336  1.6872  0.8829  2.3779
  406MOL0     H54774   0.520   9.623   1.534  2.1335 -2.6334  0.9279
  406MOL0     H54775   0.608   9.872   1.576  0.8063  0.2106  0.2827
  406MOL0     H54776   1.001   9.954   1.378  0.0299 -0.0581  2.0383
  406MOL0     H54777   0.877  10.073   1.317  0.3410  0.8490 -0.8243
  406MOL0     H54778   0.927  10.231   1.480  0.9579  0.5237  2.7499
  406MOL0     H54779   0.993  10.101   1.576  2.1759 -0.8886  0.1271
  406MOL0     H54780   1.210  10.103   1.437  2.3367  3.1876 -1.0162
  406MOL0     H54781   1.160  10.263   1.500 -1.6788  0.7242 -0.8960
  406MOL0     H54782   1.120  10.158   1.211 -1.5193  1.0715 -0.6152
  406MOL0     H54783   1.051  10.307   1.268  1.3842  1.3675  1.8015
  406MOL0     H54784   1.260  10.394   1.318  0.6573  0.8807 -1.9197
  406MOL0     H54785   1.261  10.349   1.154  2.2084  0.8781 -0.4264
  406MOL0     H54786   1.422  10.201   1.368  1.2052 -3.8424 -1.7405
  406MOL0     H54787   1.357  10.123   1.234  1.1399 -0.3903 -0.5960
  406MOL0     H54788   1.493  10.390   1.197  1.1266 -0.0485 -1.9218
  406MOL0     H54789   1.454  10.268   1.080 -2.8334 -1.0013  0.8801
  406MOL0     H54790   1.661  10.247   1.316  0.4780  0.4963 -0.2760
  406MOL0     H54791   1.713  10.271   1.150  0.3637 -0.3492  0.9474
  406MOL0     H54792   0.936   9.756   1.317 -1.2325 -0.2148 -2.7137
  406MOL0     H54793   0.834   9.533   1.287 -0.4280  0.5355 -1.6290
  406MOL0     H54794   0.387   9.370   1.111 -1.8954 -0.0979  0.2733
  406MOL0     H54795   0.314   9.138   1.037 -3.7992 -0.7550  3.0793
  406MOL0     H54796   0.138   7.618   0.937  1.0334 -1.0795 -1.0053
  406MOL0     H54797   0.135   7.473   1.154 -0.7115 -0.9598  0.9024
  406MOL0     H54798  -0.118   7.363   1.490  2.2531  1.2803 -4.2573
  406MOL0     H54799  -0.127   7.289   1.717  0.1898 -0.8656 -0.5557
  406MOL0     H54800  -0.061   6.850   1.754 -0.9004  0.4688 -0.1590
  406MOL0     H54801   0.096   6.885   1.809  1.9543  5.1875 -1.1910
  406MOL0     H54802  -0.058   6.759   1.965 -0.4634 -0.2078 -0.2315
  406MOL0     H54803  -0.162   6.903   1.966  0.7824  2.0024 -0.2767
  406MOL0     H54804   0.139   6.887   2.051  1.2887  2.4970  2.6801
  406MOL0     H54805   0.008   6.861   2.167  0.4844 -1.9195 -1.5186
  406MOL0     H54806  -0.060   7.103   2.081 -0.0917 -0.4762 -0.2162
  406MOL0     H54807   0.106   7.104   2.043  0.3135 -1.3940 -1.4561
  406MOL0     H54808  -0.007   7.131   2.475  1.9947 -1.1311  1.3911
  406MOL0     H54809   0.152   6.977   1.643 -1.0815  1.0128  1.8416
  406MOL0     H54810   0.165   7.027   1.405 -0.7132 -2.2209  0.6344
  407MOL0     O54811   5.168   2.448   8.529  0.7293  0.1040 -0.0777
  407MOL0     C54812   5.184   2.321   8.542  0.4565  0.1948  1.2021
  407MOL0     O54813   5.116   2.244   8.623 -0.2635  0.3942 -0.6683
  407MOL0     C54814   5.014   2.300   8.694  0.0002 -0.0854 -0.1509
  407MOL0     C54815   4.882   2.317   8.656 -1.0828 -0.4068  0.2688
  407MOL0     C54816   4.787   2.379   8.734 -0.4991  0.0075  0.1111
  407MOL0     C54817   4.820   2.415   8.863 -0.3457 -0.0807 -0.2105
  407MOL0     O54818   4.734   2.474   8.945  0.4857  0.0892 -0.1706
  407MOL0     C54819   4.649   2.575   8.883  0.0267  0.0753  0.0287
  407MOL0     C54820   4.648   2.703   8.968  0.8254  0.1625 -0.6062
  407MOL0     C54821   4.774   2.771   8.940 -0.4920  1.2537  0.1659
  407MOL0     C54822   4.760   2.850   8.813  0.0538 -1.0189  0.0402
  407MOL0     C54823   4.900   2.870   8.743  1.2212 -0.0044 -0.2363
  407MOL0     C54824   4.980   2.749   8.696 -0.1016 -0.0802  0.4459
  407MOL0     C54825   5.111   2.790   8.623 -1.0260 -0.1204 -0.1829
  407MOL0     C54826   5.107   2.820   8.478  1.0364  0.4447 -0.6200
  407MOL0     N54827   5.229   2.862   8.417  0.2372  0.7128 -0.1094
  407MOL0     C54828   5.340   2.785   8.427  0.7293  0.1729 -0.5593
  407MOL0     C54829   5.442   2.858   8.370  0.0975  0.9494  0.0439
  407MOL0     C54830   5.588   2.812   8.367  1.1200 -0.5413 -0.2362
  407MOL0     C54831   5.623   2.677   8.312  1.1658 -0.0231 -0.7278
  407MOL0     C54832   5.630   2.667   8.158 -0.3841  0.5427 -0.5935
  407MOL0     C54833   5.500   2.706   8.096  0.0160  0.4059 -0.3779
  407MOL0     O54834   5.411   2.599   8.134  0.1475 -0.4998  0.6238
  407MOL0     C54835   5.279   2.615   8.141 -0.3049  0.7619 -0.0465
  407MOL0     C54836   5.199   2.728   8.119  1.0478  0.7545 -0.5188
  407MOL0     C54837   5.058   2.725   8.156 -1.6281 -0.4174 -0.2109
  407MOL0     C54838   4.985   2.854   8.133 -0.6255 -0.0643 -0.2331
  407MOL0     C54839   5.005   2.601   8.206 -1.0752 -0.3588  0.2177
  407MOL0     C54840   4.861   2.590   8.224  0.1833 -0.3795 -1.1136
  407MOL0     O54841   4.827   2.549   8.351 -0.2158  0.4665 -0.4707
  407MOL0     C54842   4.692   2.550   8.370  0.5493  0.1114 -0.8382
  407MOL0     C54843   4.624   2.441   8.316 -0.4430  0.2186  0.5638
  407MOL0     C54844   4.484   2.422   8.336 -0.9942 -0.4671 -0.5953
  407MOL0     C54845   4.420   2.509   8.425  0.6408  0.5579 -1.2602
  407MOL0     O54846   4.284   2.496   8.459 -0.6357 -0.0794 -0.0102
  407MOL0     C54847   4.200   2.605   8.448  0.9578 -0.1971 -0.6454
  407MOL0     C54848   4.118   2.612   8.319 -0.4647  0.9925 -0.0137
  407MOL0     C54849   4.079   2.745   8.272  0.5238  0.4732  0.1037
  407MOL0     C54850   4.003   2.736   8.145 -0.4612 -0.3222  0.4456
  407MOL0     C54851   3.952   2.867   8.085  1.0900 -1.0376 -0.1289
  407MOL0     C54852   4.052   2.979   8.060 -0.3308 -0.9240 -0.2657
  407MOL0     C54853   4.022   3.082   8.179  0.7373 -0.1615 -1.1562
  407MOL0     C54854   4.087   3.219   8.160 -0.8262  0.1335  0.6203
  407MOL0    Cl54855   4.262   3.192   8.208 -0.0424 -0.3449  0.1694
  407MOL0     C54856   4.495   2.619   8.475 -0.6184  0.3149  0.1398
  407MOL0     C54857   4.627   2.636   8.458 -1.4856  0.2550  0.1532
  407MOL0     O54858   4.785   2.637   8.145  0.1683  0.1634 -0.1612
  407MOL0     C54859   5.090   2.493   8.221 -0.3682  0.4278  0.9294
  407MOL0     C54860   5.225   2.493   8.191  0.2360 -0.1962  0.0826
  407MOL0     N54861   5.394   2.986   8.343 -0.7957  0.9956  0.1544
  407MOL0     N54862   5.259   2.981   8.355 -0.2912 -0.7362 -0.5920
  407MOL0     C54863   4.951   2.402   8.898  0.3274 -0.6217 -0.5073
  407MOL0     C54864   5.053   2.341   8.824  0.7386 -0.7062 -0.5596
  407MOL0     C54865   5.302   2.252   8.486  0.1067 -0.0267  0.1450
  407MOL0     C54866   5.420   2.319   8.459  0.9548  0.2780 -0.6950
  407MOL0     C54867   5.532   2.259   8.406 -0.1095  0.2646  0.2538
  407MOL0     C54868   5.527   2.123   8.370  0.6059  1.0222 -0.4786
  407MOL0     O54869   5.636   2.056   8.305 -0.1837 -0.0177  0.9549
  407MOL0     C54870   5.611   1.930   8.249  1.0389 -0.7208 -0.1986
  407MOL0     C54871   5.731   1.893   8.166 -0.8141  0.0115  0.7988
  407MOL0     C54872   5.708   1.752   8.098  0.1881  0.4207 -0.6679
  407MOL0     C54873   5.749   1.757   7.948 -0.5192  0.6114 -0.1148
  407MOL0     C54874   5.901   1.759   7.934  1.4991  0.1317  0.2353
  407MOL0     C54875   6.014   1.767   7.913  0.4318 -0.3408  0.4511
  407MOL0     C54876   5.406   2.048   8.403 -0.8653  0.0079  0.8770
  407MOL0     C54877   5.291   2.119   8.454 -0.6444  0.1669  0.8652
  407MOL0     H54878   4.849   2.289   8.557 -1.6479  2.4913 -0.4455
  407MOL0     H54879   4.686   2.388   8.697 -0.7261  1.4007  0.9746
  407MOL0     H54880   4.704   2.602   8.792  0.5012  1.6624  0.7373
  407MOL0     H54881   4.548   2.538   8.865 -0.5893  1.1275  1.1835
  407MOL0     H54882   4.561   2.764   8.940  1.9767  2.2017  0.0070
  407MOL0     H54883   4.636   2.681   9.075 -0.8855  0.6095 -0.6702
  407MOL0     H54884   4.800   2.846   9.016 -0.4444  1.3071  0.0967
  407MOL0     H54885   4.854   2.697   8.938 -1.4050  0.2603 -0.0519
  407MOL0     H54886   4.696   2.797   8.742 -1.0744 -1.0331  1.0309
  407MOL0     H54887   4.703   2.941   8.830 -0.3110 -1.3747  0.7605
  407MOL0     H54888   4.870   2.926   8.655 -1.8609  1.4284  1.5678
  407MOL0     H54889   4.955   2.929   8.818 -0.1228  2.2855 -0.9598
  407MOL0     H54890   4.996   2.675   8.776 -1.0113  0.1631  0.8690
  407MOL0     H54891   4.918   2.701   8.621 -1.6500  1.7015  0.5148
  407MOL0     H54892   5.151   2.871   8.685 -0.1718 -0.6266 -0.0553
  407MOL0     H54893   5.176   2.703   8.635  1.2165  1.3355 -1.0865
  407MOL0     H54894   5.035   2.897   8.450  2.5562  2.7087  1.3473
  407MOL0     H54895   5.080   2.723   8.433  0.0362 -0.8138  2.4271
  407MOL0     H54896   5.347   2.679   8.451 -1.8966 -0.3792 -1.8869
  407MOL0     H54897   5.629   2.892   8.305 -1.5593 -0.7208 -2.4603
  407MOL0     H54898   5.641   2.823   8.462 -0.1098  1.2317  0.3033
  407MOL0     H54899   5.552   2.601   8.348  1.2144  0.7506  1.0718
  407MOL0     H54900   5.717   2.656   8.363  0.2760  4.3581  3.4098
  407MOL0     H54901   5.658   2.567   8.126 -0.1172 -0.4501  2.4625
  407MOL0     H54902   5.708   2.734   8.121 -0.1139  0.3658 -0.3401
  407MOL0     H54903   5.506   2.700   7.987 -0.0250 -2.8831 -0.3084
  407MOL0     H54904   5.473   2.808   8.122  1.5679  0.6809  0.2340
  407MOL0     H54905   5.250   2.822   8.098 -0.4753  1.6194 -0.4858
  407MOL0     H54906   4.937   2.898   8.221  0.9242  0.2263  0.5152
  407MOL0     H54907   5.059   2.930   8.106  0.8135 -1.6154 -0.8030
  407MOL0     H54908   4.922   2.821   8.051  0.9664 -0.3154 -1.3896
  407MOL0     H54909   4.683   2.382   8.246  0.0505 -0.3818  1.4651
  407MOL0     H54910   4.436   2.342   8.281 -0.2921 -1.0572 -0.3671
  407MOL0     H54911   4.134   2.617   8.535  0.4521  1.6568 -1.2262
  407MOL0     H54912   4.258   2.697   8.437 -0.6787  0.8859 -0.6913
  407MOL0     H54913   4.189   2.565   8.250 -0.9784  1.1944 -0.6878
  407MOL0     H54914   4.029   2.552   8.337  0.4318 -0.4157 -0.1434
  407MOL0     H54915   4.162   2.817   8.263  0.3697  0.5343 -0.9370
  407MOL0     H54916   4.005   2.790   8.339  0.2326  1.3634 -0.7914
  407MOL0     H54917   4.071   2.703   8.066  0.4284 -0.1259  1.1228
  407MOL0     H54918   3.926   2.659   8.157 -0.2844 -0.3439  1.5193
  407MOL0     H54919   3.867   2.905   8.142  3.0213  2.3126  0.7814
  407MOL0     H54920   3.923   2.829   7.987 -1.5298  1.3230 -0.4018
  407MOL0     H54921   4.157   2.949   8.063  0.0672  0.4592 -0.0674
  407MOL0     H54922   4.031   3.020   7.961  5.4858 -0.6654 -1.7560
  407MOL0     H54923   4.060   3.038   8.272  0.8396 -0.9198 -1.5473
  407MOL0     H54924   3.916   3.107   8.189  1.0677  0.5696  1.2124
  407MOL0     H54925   4.048   3.302   8.219  1.1584 -0.6960  3.2935
  407MOL0     H54926   4.083   3.240   8.053  2.6809 -0.6563  0.2399
  407MOL0     H54927   4.449   2.680   8.552 -1.6978  0.1771 -0.3773
  407MOL0     H54928   4.698   2.701   8.509  2.9225 -2.3208 -2.1210
  407MOL0     H54929   5.052   2.393   8.238  1.4700 -0.4082  0.4355
  407MOL0     H54930   5.282   2.407   8.223 -3.4375 -1.5738  3.8768
  407MOL0     H54931   4.980   2.431   8.999 -0.3629  1.5766 -0.8858
  407MOL0     H54932   5.155   2.326   8.859  1.4317  1.2840 -1.5450
  407MOL0     H54933   5.418   2.426   8.474  0.1515  0.7327 -3.4431
  407MOL0     H54934   5.628   2.306   8.386  0.3346 -0.0900  1.4567
  407MOL0     H54935   5.594   1.853   8.325 -1.4487 -0.2704 -0.2139
  407MOL0     H54936   5.520   1.934   8.188  0.4558  2.9413  0.6421
  407MOL0     H54937   5.821   1.886   8.228 -1.1103  3.2883  1.7696
  407MOL0     H54938   5.764   1.969   8.094 -0.8041  0.4692  1.2849
  407MOL0     H54939   5.601   1.728   8.100  0.4049 -0.5576 -0.1660
  407MOL0     H54940   5.755   1.669   8.150 -0.4750 -1.6742 -3.2127
  407MOL0     H54941   5.703   1.848   7.907 -2.1251 -1.8743 -4.4066
  407MOL0     H54942   5.706   1.674   7.893 -0.4034 -0.2375  1.0445
  407MOL0     H54943   6.113   1.778   7.873 -0.4634  0.6668 -1.6794
  407MOL0     H54944   5.400   1.943   8.376  0.1644  0.6902 -2.5389
  407MOL0     H54945   5.191   2.077   8.452  0.5273 -2.8502  0.5527
  408MOL0     O54946   7.474   4.459  10.540  0.7296 -0.3685  0.6733
  408MOL0     C54947   7.543   4.394  10.465 -0.0515 -0.1348 -1.0950
  408MOL0     O54948   7.664   4.342  10.495 -0.5137  0.6209 -0.1593
  408MOL0     C54949   7.730   4.360  10.614  0.1568 -0.7155 -0.2855
  408MOL0     C54950   7.863   4.397  10.610  0.6524 -0.3779  0.1746
  408MOL0     C54951   7.926   4.415  10.732  0.2129  0.9231 -0.2024
  408MOL0     C54952   7.879   4.389  10.848 -0.0404 -0.7713 -0.6048
  408MOL0     O54953   7.961   4.393  10.948  0.0535  0.5616  0.4405
  408MOL0     C54954   7.945   4.298  11.058 -0.1284  0.0693 -0.9281
  408MOL0     C54955   8.074   4.286  11.133 -1.0269  0.3203 -0.6355
  408MOL0     C54956   8.177   4.188  11.084  0.1364  0.1892  0.0682
  408MOL0     C54957   8.296   4.202  11.182  0.2279 -0.6199  0.5593
  408MOL0     C54958   8.402   4.091  11.170  0.3073 -0.5231 -0.9741
  408MOL0     C54959   8.521   4.136  11.251  0.1482 -0.1154  0.3408
  408MOL0     C54960   8.622   4.023  11.234  0.8627  0.4718 -0.7000
  408MOL0     C54961   8.737   4.027  11.354 -0.5838 -0.6993 -0.0963
  408MOL0     N54962   8.673   4.020  11.490  0.3811  0.0405  0.3193
  408MOL0     C54963   8.582   3.931  11.538 -1.0919  0.8019  0.4668
  408MOL0     C54964   8.540   3.988  11.651  0.2946 -0.7658  0.9139
  408MOL0     C54965   8.430   3.951  11.738 -0.6446 -0.2673  0.5581
  408MOL0     C54966   8.307   3.891  11.668  0.1924  0.3540  0.6532
  408MOL0     C54967   8.257   3.981  11.550  0.9759 -0.0964  0.6868
  408MOL0     C54968   8.109   3.961  11.520 -0.8638  0.7727 -0.5012
  408MOL0     O54969   8.064   3.824  11.529  0.3672  0.6056 -0.0535
  408MOL0     C54970   8.091   3.728  11.436  0.4448 -0.2962 -0.3598
  408MOL0     C54971   8.091   3.599  11.484 -0.8943 -0.4077  0.0896
  408MOL0     C54972   8.135   3.500  11.401  0.3411  0.5733  0.3835
  408MOL0     C54973   8.109   3.358  11.444 -0.9884  0.2881  0.4029
  408MOL0     C54974   8.172   3.525  11.267  0.1694 -0.7013  0.2663
  408MOL0     C54975   8.204   3.420  11.162 -0.2211 -0.3071 -0.2429
  408MOL0     O54976   8.098   3.367  11.096 -0.0267  0.3657 -0.1061
  408MOL0     C54977   8.118   3.254  11.030 -1.1453  0.4165  1.7282
  408MOL0     C54978   8.137   3.128  11.095  0.4310 -0.1581 -0.4523
  408MOL0     C54979   8.155   3.015  11.017 -0.5753 -0.0253 -1.1734
  408MOL0     C54980   8.162   3.011  10.881  0.4028  0.7720 -0.4869
  408MOL0     O54981   8.182   2.891  10.818  0.2073  0.1502  0.9611
  408MOL0     C54982   8.062   2.829  10.778  0.4502  0.0324  0.7421
  408MOL0     C54983   8.090   2.686  10.734 -0.1075  0.1860 -0.7830
  408MOL0     C54984   7.959   2.626  10.682  0.2770 -0.3259 -0.2486
  408MOL0     C54985   7.829   2.651  10.773  0.2825  0.2316  0.1488
  408MOL0     C54986   7.718   2.573  10.712  0.2004 -0.1184  0.1871
  408MOL0     C54987   7.665   2.650  10.595  0.3687  0.3018  0.1017
  408MOL0     C54988   7.541   2.583  10.532 -0.5777 -0.0870  0.1702
  408MOL0     C54989   7.510   2.659  10.402  0.6687 -0.4607  0.1916
  408MOL0    Cl54990   7.342   2.614  10.334 -0.1941 -0.0068 -0.3415
  408MOL0     C54991   8.134   3.135  10.816 -0.3394  0.2836  0.5546
  408MOL0     C54992   8.124   3.253  10.886 -0.5340  0.5055 -0.8094
  408MOL0     O54993   8.321   3.389  11.153 -0.1800 -0.8919  0.8290
  408MOL0     C54994   8.176   3.659  11.218 -0.7462  1.4463  0.1265
  408MOL0     C54995   8.133   3.760  11.303  0.0582 -0.4787 -0.0070
  408MOL0     N54996   8.612   4.107  11.682 -0.0255  0.8333 -0.3239
  408MOL0     N54997   8.696   4.114  11.582 -0.2314 -0.9917 -0.5129
  408MOL0     C54998   7.748   4.346  10.849 -0.4544  0.4060 -0.2685
  408MOL0     C54999   7.671   4.323  10.736  1.2423 -0.0528  0.1005
  408MOL0     C55000   7.488   4.362  10.323  1.6633  0.3731 -0.7560
  408MOL0     C55001   7.352   4.384  10.299 -0.7604  0.1242  0.4460
  408MOL0     C55002   7.296   4.351  10.171  0.1335 -0.0799 -0.3256
  408MOL0     C55003   7.374   4.327  10.059 -0.6210 -0.8659  0.5706
  408MOL0     O55004   7.320   4.313   9.932 -0.2467  0.0826 -0.4626
  408MOL0     C55005   7.383   4.228   9.840  0.0947  0.2968  0.4685
  408MOL0     C55006   7.307   4.212   9.707 -0.0355  0.4801  0.3446
  408MOL0     C55007   7.162   4.186   9.724  0.8241 -0.3524  0.3506
  408MOL0     C55008   7.075   4.292   9.789 -0.1667 -0.0143 -0.9393
  408MOL0     C55009   6.934   4.293   9.741  0.1569  0.8231 -0.0302
  408MOL0     C55010   6.815   4.299   9.697 -0.9039  0.2859 -0.0752
  408MOL0     C55011   7.509   4.323  10.079 -0.0828 -0.5065 -0.2375
  408MOL0     C55012   7.570   4.329  10.209 -0.2534 -0.5575 -0.6915
  408MOL0     H55013   7.914   4.414  10.515 -0.6189  0.2187 -0.4363
  408MOL0     H55014   8.033   4.431  10.729  0.6833 -1.0331  2.1051
  408MOL0     H55015   7.871   4.331  11.132 -2.0399 -1.9029 -1.8584
  408MOL0     H55016   7.921   4.197  11.025  2.5652 -1.2367  0.7611
  408MOL0     H55017   8.128   4.381  11.142  1.6570 -1.0275 -1.3524
  408MOL0     H55018   8.063   4.257  11.238 -0.0786  2.3839  0.0983
  408MOL0     H55019   8.132   4.088  11.090 -1.0378  0.7330  0.3884
  408MOL0     H55020   8.205   4.207  10.980 -0.4420 -0.9997 -0.3215
  408MOL0     H55021   8.333   4.304  11.173 -0.2494 -0.4670  0.2921
  408MOL0     H55022   8.251   4.192  11.282 -0.7556  0.6055  0.2707
  408MOL0     H55023   8.363   4.000  11.215  0.6667 -0.7306 -1.0815
  408MOL0     H55024   8.445   4.070  11.072  1.8172  0.9162 -0.6785
  408MOL0     H55025   8.542   4.231  11.201 -1.2961  1.8091  3.1492
  408MOL0     H55026   8.491   4.157  11.353  1.2815  0.5003  0.5633
  408MOL0     H55027   8.563   3.931  11.243  1.5716  0.0869  0.1229
  408MOL0     H55028   8.678   4.027  11.140  2.0862 -2.0403 -0.1592
  408MOL0     H55029   8.801   4.115  11.344  0.4638 -1.5675 -1.3267
  408MOL0     H55030   8.799   3.937  11.346 -0.4336 -0.5544 -0.5464
  408MOL0     H55031   8.552   3.836  11.497  2.4842 -0.9496  1.4859
  408MOL0     H55032   8.469   3.884  11.816  1.0330 -1.7741 -1.4374
  408MOL0     H55033   8.405   4.040  11.796 -0.1302  0.3866 -0.2066
  408MOL0     H55034   8.230   3.900  11.745 -1.5453  1.1457 -1.0971
  408MOL0     H55035   8.319   3.789  11.632 -1.8712  0.6266 -1.0060
  408MOL0     H55036   8.318   3.965  11.460 -1.2935  0.5129 -1.0495
  408MOL0     H55037   8.274   4.081  11.590 -1.0964  0.7258 -0.3538
  408MOL0     H55038   8.089   4.008  11.423  0.9744 -0.3786 -1.4977
  408MOL0     H55039   8.057   4.020  11.596 -0.0699  0.4996  0.2699
  408MOL0     H55040   8.043   3.576  11.579  0.3608 -0.5022  0.7160
  408MOL0     H55041   8.066   3.349  11.544 -3.7530  1.1870 -0.6372
  408MOL0     H55042   8.052   3.304  11.369  3.2543 -3.6946 -0.4012
  408MOL0     H55043   8.202   3.300  11.441  0.8111  3.0123 -1.4919
  408MOL0     H55044   8.128   3.118  11.202 -0.1676 -0.1844 -0.5044
  408MOL0     H55045   8.167   2.919  11.067 -2.8464 -0.8126 -2.0335
  408MOL0     H55046   7.988   2.842  10.857 -2.7795 -0.6839 -1.9516
  408MOL0     H55047   8.010   2.880  10.696  1.2459  2.9655  1.9343
  408MOL0     H55048   8.166   2.671  10.657  1.1637  2.4197 -0.0562
  408MOL0     H55049   8.135   2.627  10.814  1.0424  1.8187 -0.1608
  408MOL0     H55050   7.982   2.519  10.674 -0.4948 -0.7355  2.2221
  408MOL0     H55051   7.937   2.665  10.582 -0.5734  0.2476  0.1541
  408MOL0     H55052   7.848   2.601  10.869 -4.1189  0.8410  1.5806
  408MOL0     H55053   7.803   2.757  10.783 -0.4498  0.4741 -3.1710
  408MOL0     H55054   7.632   2.573  10.779 -0.1514  1.4541 -0.2291
  408MOL0     H55055   7.761   2.476  10.685 -0.3871 -0.0862 -0.8984
  408MOL0     H55056   7.629   2.746  10.632 -1.1871 -0.4236  0.6053
  408MOL0     H55057   7.738   2.666  10.516  0.3291 -0.3722 -0.0796
  408MOL0     H55058   7.450   2.593  10.592 -0.6283 -1.5793  0.3887
  408MOL0     H55059   7.539   2.474  10.520 -1.4958 -0.1831  1.1053
  408MOL0     H55060   7.580   2.631  10.322 -0.4918 -2.0109 -0.3439
  408MOL0     H55061   7.512   2.765  10.430  0.1191 -0.5580  0.6211
  408MOL0     H55062   8.111   3.146  10.710 -0.2057  1.6571  0.6451
  408MOL0     H55063   8.098   3.346  10.836 -4.6631 -0.9350 -1.7074
  408MOL0     H55064   8.196   3.686  11.115 -1.9035 -1.7138 -1.0735
  408MOL0     H55065   8.140   3.862  11.266 -1.6781 -0.7262 -1.1010
  408MOL0     H55066   7.698   4.312  10.939 -0.1643 -1.9578 -0.9295
  408MOL0     H55067   7.571   4.282  10.745  1.5263 -0.7745  0.0393
  408MOL0     H55068   7.281   4.419  10.374 -2.8594  1.2346 -1.8758
  408MOL0     H55069   7.189   4.369  10.161  0.0558  0.0765  0.6450
  408MOL0     H55070   7.482   4.268   9.816 -0.7574  1.8284 -0.6478
  408MOL0     H55071   7.398   4.125   9.875 -0.8457 -0.6228 -1.6295
  408MOL0     H55072   7.349   4.131   9.647 -0.5296  0.8582 -0.5321
  408MOL0     H55073   7.315   4.302   9.645 -0.1545  0.6503  0.5710
  408MOL0     H55074   7.150   4.092   9.778  0.8556  0.6826  2.2323
  408MOL0     H55075   7.126   4.182   9.621 -0.7381  3.1250  0.6090
  408MOL0     H55076   7.123   4.388   9.767 -3.2556  1.8828 -0.0657
  408MOL0     H55077   7.078   4.287   9.898  2.5352  0.0651 -0.9443
  408MOL0     H55078   6.712   4.298   9.668 -0.0300  1.0628 -3.6506
  408MOL0     H55079   7.583   4.310  10.001  1.1263  1.0342  0.5825
  408MOL0     H55080   7.677   4.315  10.222  0.4204  1.9853 -2.6229
  409MOL0     O55081   9.587  10.804  10.585  0.5189 -0.7085 -0.2533
  409MOL0     C55082   9.592  10.869  10.478  1.0972 -0.4381  0.9500
  409MOL0     O55083   9.580  10.821  10.353  0.2314 -0.2381  0.3812
  409MOL0     C55084   9.580  10.686  10.339 -0.0503 -0.1173 -0.0607
  409MOL0     C55085   9.465  10.608  10.376 -0.3643  0.4183  0.0964
  409MOL0     C55086   9.472  10.468  10.363 -0.4043 -0.6052 -0.1217
  409MOL0     C55087   9.587  10.405  10.320 -0.7779 -0.3001  0.6598
  409MOL0     O55088   9.602  10.274  10.302 -0.3094 -0.6383 -0.8603
  409MOL0     C55089   9.496  10.189  10.354 -0.1026  0.0895  0.5103
  409MOL0     C55090   9.524  10.043  10.303 -0.2209 -0.1892 -0.2086
  409MOL0     C55091   9.666   9.988  10.343  0.4665  0.2261  0.3872
  409MOL0     C55092   9.656   9.843  10.397 -0.1089 -0.0512 -0.1906
  409MOL0     C55093   9.689   9.736  10.303  0.5866 -0.2300  0.0474
  409MOL0     C55094   9.561   9.709  10.217 -0.3287 -0.1474  0.6040
  409MOL0     C55095   9.572   9.574  10.125  0.5166  0.4787  0.7223
  409MOL0     C55096   9.462   9.568  10.019  0.6955 -0.5297  0.1973
  409MOL0     N55097   9.468   9.467   9.916 -0.2555  0.1700 -0.3289
  409MOL0     C55098   9.377   9.360   9.906 -0.5473  1.1253 -0.2602
  409MOL0     C55099   9.438   9.292   9.808 -0.0390 -0.3080  0.2982
  409MOL0     C55100   9.367   9.174   9.726 -0.0821 -0.2256 -1.2253
  409MOL0     C55101   9.399   9.168   9.576  0.2467  0.8438 -0.7894
  409MOL0     C55102   9.367   9.309   9.512 -0.4810  0.1395 -0.2038
  409MOL0     C55103   9.491   9.396   9.468 -0.5216  0.0824 -0.1146
  409MOL0     O55104   9.460   9.468   9.350 -0.2967 -0.7937 -0.6794
  409MOL0     C55105   9.506   9.416   9.229 -0.7399 -0.0974 -0.2362
  409MOL0     C55106   9.506   9.505   9.128  0.0697  0.0155  0.2633
  409MOL0     C55107   9.552   9.481   8.997 -0.2122  0.2422  0.4719
  409MOL0     C55108   9.554   9.597   8.899 -0.3736  1.2294  0.6707
  409MOL0     C55109   9.597   9.354   8.970  0.4636  0.7859  0.1007
  409MOL0     C55110   9.628   9.314   8.836  0.7192  1.5729  0.9836
  409MOL0     O55111   9.557   9.199   8.790  0.6874 -0.2789 -0.2760
  409MOL0     C55112   9.584   9.154   8.667  0.4981 -0.2408 -0.0214
  409MOL0     C55113   9.529   9.204   8.553  0.0642  0.1235 -0.4750
  409MOL0     C55114   9.554   9.154   8.425  0.5472 -0.8332 -0.9439
  409MOL0     C55115   9.634   9.039   8.418 -0.7923  1.0380  0.1105
  409MOL0     O55116   9.673   8.984   8.293 -0.4230 -0.6264 -0.1077
  409MOL0     C55117   9.809   8.974   8.273 -0.6846  0.4870 -0.1813
  409MOL0     C55118   9.827   8.955   8.124 -0.0357 -0.5197 -0.2541
  409MOL0     C55119   9.751   8.821   8.081 -0.0982 -0.1318 -0.7826
  409MOL0     C55120   9.785   8.793   7.939 -0.5733 -0.5088  1.0301
  409MOL0     C55121   9.715   8.676   7.869 -0.2046  0.1767 -0.5570
  409MOL0     C55122   9.729   8.542   7.948  0.3696  0.4148 -0.5226
  409MOL0     C55123   9.864   8.488   7.987 -0.1308 -0.7049  0.1076
  409MOL0     C55124   9.856   8.351   8.061  0.5492  0.1875 -0.1260
  409MOL0    Cl55125  10.015   8.313   8.138  0.1565  0.4692  0.1371
  409MOL0     C55126   9.685   8.979   8.543 -0.3472 -0.9539 -0.5574
  409MOL0     C55127   9.653   9.041   8.665  0.2608  0.1382 -0.9821
  409MOL0     O55128   9.716   9.378   8.772 -0.2199 -0.2874  0.4790
  409MOL0     C55129   9.609   9.262   9.076 -0.2321  1.3595 -0.3306
  409MOL0     C55130   9.551   9.284   9.205 -0.2615  0.1310  0.1128
  409MOL0     N55131   9.565   9.338   9.782  0.2317 -0.2246  0.0691
  409MOL0     N55132   9.582   9.445   9.842  0.3452 -0.0455 -0.0602
  409MOL0     C55133   9.696  10.481  10.291  0.2739 -0.4927  0.0062
  409MOL0     C55134   9.691  10.615  10.294  0.3170  0.2313 -0.5932
  409MOL0     C55135   9.618  11.019  10.485 -0.6395  0.6458  1.0849
  409MOL0     C55136   9.601  11.100  10.602 -0.5138 -0.0632  0.1558
  409MOL0     C55137   9.624  11.235  10.606  0.1353 -0.0830 -0.4206
  409MOL0     C55138   9.658  11.296  10.488  0.2381  0.0094  0.5029
  409MOL0     O55139   9.676  11.428  10.465 -0.2574 -0.3298 -0.9729
  409MOL0     C55140   9.700  11.520  10.572  0.2507  0.7612  0.3062
  409MOL0     C55141   9.564  11.596  10.593 -0.7837 -0.5180 -0.0019
  409MOL0     C55142   9.528  11.691  10.482 -0.8260 -0.3201 -0.4064
  409MOL0     C55143   9.389  11.760  10.496 -0.6181  0.4703 -0.7648
  409MOL0     C55144   9.374  11.835  10.624 -0.0355  0.4337 -0.3727
  409MOL0     C55145   9.368  11.909  10.721  1.6515  0.0497  0.2398
  409MOL0     C55146   9.681  11.226  10.369 -0.6520 -0.6904  0.6746
  409MOL0     C55147   9.665  11.083  10.369  0.0494 -0.6720 -0.2171
  409MOL0     H55148   9.372  10.657  10.406 -0.0156  0.1750  1.6905
  409MOL0     H55149   9.388  10.420  10.413  1.1792 -1.3621  1.9985
  409MOL0     H55150   9.495  10.206  10.462 -1.3834  0.6515  0.4289
  409MOL0     H55151   9.399  10.223  10.316  0.5055  2.8494  1.2017
  409MOL0     H55152   9.446   9.981  10.348 -1.1133 -1.9424 -3.8336
  409MOL0     H55153   9.519  10.043  10.194  2.9487 -2.5490 -0.4867
  409MOL0     H55154   9.737   9.989  10.260 -0.9452 -0.0681 -0.8685
  409MOL0     H55155   9.718  10.051  10.416 -0.5337 -0.1647  1.4752
  409MOL0     H55156   9.733   9.858  10.472  0.6331  3.3759 -1.4340
  409MOL0     H55157   9.561   9.820  10.446  0.1418 -0.8073 -0.0479
  409MOL0     H55158   9.780   9.754  10.244 -0.1855 -1.5643 -1.6203
  409MOL0     H55159   9.718   9.645  10.356  1.6565  1.3301  2.3381
  409MOL0     H55160   9.465   9.716  10.270  0.1440  0.3030  1.4259
  409MOL0     H55161   9.545   9.784  10.139  0.3107 -0.3978  0.2224
  409MOL0     H55162   9.667   9.560  10.072 -0.8139  1.5749 -2.1631
  409MOL0     H55163   9.550   9.486  10.185  0.3586  0.1272  0.1607
  409MOL0     H55164   9.468   9.657   9.955 -0.9627 -0.5119  0.0186
  409MOL0     H55165   9.368   9.569  10.076  0.4125 -0.7492 -0.2550
  409MOL0     H55166   9.280   9.334   9.949  1.2678 -1.1984  2.8354
  409MOL0     H55167   9.400   9.080   9.771 -0.3290  0.6119  0.8307
  409MOL0     H55168   9.258   9.184   9.735  0.0571 -0.1377  0.8779
  409MOL0     H55169   9.349   9.087   9.522  1.1140  0.6855 -1.3857
  409MOL0     H55170   9.507   9.153   9.566  0.5673  2.0616  0.5025
  409MOL0     H55171   9.299   9.372   9.570 -0.7537  0.6058 -1.0165
  409MOL0     H55172   9.313   9.293   9.418 -1.3356 -2.2294  0.6226
  409MOL0     H55173   9.583   9.338   9.456 -0.6945  0.1566 -2.2944
  409MOL0     H55174   9.514   9.456   9.556 -1.0318 -0.0981  0.1438
  409MOL0     H55175   9.466   9.605   9.144 -0.3336 -0.3077  1.3519
  409MOL0     H55176   9.479   9.674   8.918 -2.7482 -0.2200 -2.0008
  409MOL0     H55177   9.653   9.644   8.908  0.5224 -0.0130 -1.7147
  409MOL0     H55178   9.551   9.572   8.793  1.2792  2.4133  0.3045
  409MOL0     H55179   9.454   9.276   8.584  0.4007  0.1347  0.3266
  409MOL0     H55180   9.509   9.206   8.341 -2.6387 -2.4537 -0.3846
  409MOL0     H55181   9.863   9.057   8.318 -0.1111  0.3452 -0.5969
  409MOL0     H55182   9.841   8.896   8.343  2.7310  2.1193  0.2398
  409MOL0     H55183   9.788   9.044   8.072 -0.1435  0.4123  1.3706
  409MOL0     H55184   9.934   8.937   8.113  0.4942  2.4777 -1.0545
  409MOL0     H55185   9.644   8.821   8.103 -0.0497  2.1841 -0.3008
  409MOL0     H55186   9.794   8.741   8.142  0.5185  0.3972 -0.5128
  409MOL0     H55187   9.762   8.881   7.879  1.4234 -0.9052 -0.4080
  409MOL0     H55188   9.893   8.778   7.927 -0.4289  1.0849  0.1744
  409MOL0     H55189   9.753   8.666   7.767  1.3753 -0.4900  0.0674
  409MOL0     H55190   9.608   8.694   7.861 -0.9142 -3.7398 -1.6819
  409MOL0     H55191   9.675   8.545   8.043 -2.9840  0.5602 -2.2628
  409MOL0     H55192   9.671   8.470   7.889 -4.1125  1.2930  2.3026
  409MOL0     H55193   9.917   8.564   8.046  0.1363 -0.3750 -0.5447
  409MOL0     H55194   9.928   8.467   7.901  4.0973  0.8301  2.5622
  409MOL0     H55195   9.822   8.275   7.991  0.4867  1.0733 -1.0821
  409MOL0     H55196   9.785   8.352   8.145 -1.2110 -3.5487 -1.3588
  409MOL0     H55197   9.751   8.895   8.527 -1.6719 -1.5675 -3.3586
  409MOL0     H55198   9.700   9.009   8.757  0.5380  3.9554  0.3768
  409MOL0     H55199   9.659   9.168   9.058 -1.0957  0.9193 -0.5194
  409MOL0     H55200   9.569   9.200   9.271  3.2162 -1.2124 -2.2432
  409MOL0     H55201   9.790  10.429  10.276  1.2060  0.8918  0.7624
  409MOL0     H55202   9.782  10.671  10.272  1.3502 -1.1183  0.0720
  409MOL0     H55203   9.570  11.054  10.695 -0.8330 -0.4644 -0.1469
  409MOL0     H55204   9.599  11.284  10.700  0.1033 -0.8764 -0.0013
  409MOL0     H55205   9.728  11.477  10.669  1.1741  1.4030  0.3276
  409MOL0     H55206   9.784  11.584  10.544  1.0736  0.5197  2.1129
  409MOL0     H55207   9.565  11.658  10.684 -3.3123 -2.5949  1.5834
  409MOL0     H55208   9.492  11.518  10.619 -1.5238  0.9115  2.7166
  409MOL0     H55209   9.522  11.630  10.391 -2.4495 -1.2638  0.2775
  409MOL0     H55210   9.609  11.764  10.472  0.3352 -1.7515 -1.8971
  409MOL0     H55211   9.319  11.676  10.491  1.0716 -0.9420 -2.1774
  409MOL0     H55212   9.386  11.823  10.407  0.7987 -2.6899 -3.2822
  409MOL0     H55213   9.349  11.973  10.805 -2.8531 -1.5849  0.7839
  409MOL0     H55214   9.705  11.294  10.288  0.1447  2.0127  2.9946
  409MOL0     H55215   9.692  11.032  10.277  0.7465  0.1169 -0.4757
  410MOL0     O55216   8.723  10.568   3.241  0.0856 -0.1629 -0.1088
  410MOL0     C55217   8.684  10.461   3.280  0.2072  1.0241 -0.4919
  410MOL0     O55218   8.760  10.369   3.342 -0.1762  0.2880  0.2514
  410MOL0     C55219   8.900  10.390   3.333 -0.0927  0.5748  0.3117
  410MOL0     C55220   8.981  10.357   3.450 -0.1176  1.3060 -0.1870
  410MOL0     C55221   9.124  10.361   3.428 -0.2273 -0.4225  0.4564
  410MOL0     C55222   9.184  10.383   3.306  0.5892  0.3412  1.0697
  410MOL0     O55223   9.318  10.385   3.281 -0.0746 -0.3939 -0.3685
  410MOL0     C55224   9.413  10.362   3.387 -0.9374  0.6602 -0.2315
  410MOL0     C55225   9.552  10.391   3.327  0.2719 -0.0184  0.0620
  410MOL0     C55226   9.571  10.536   3.299 -0.3394 -0.2177 -0.0181
  410MOL0     C55227   9.711  10.563   3.253 -0.3923 -0.2439  0.4277
  410MOL0     C55228   9.736  10.712   3.209 -0.1568 -0.6646 -0.0572
  410MOL0     C55229   9.886  10.751   3.181 -0.1536  0.4167 -0.6928
  410MOL0     C55230   9.902  10.894   3.138 -0.1331  0.2730 -0.2992
  410MOL0     C55231  10.041  10.931   3.097 -0.0875  0.4400  0.9620
  410MOL0     N55232  10.120  10.957   3.214 -0.7550 -0.7156  0.3775
  410MOL0     C55233  10.220  10.874   3.255 -0.0906  0.1130 -0.9865
  410MOL0     C55234  10.290  10.957   3.333 -0.5379 -0.3099  0.3112
  410MOL0     C55235  10.415  10.921   3.389 -0.2294 -0.0402  0.4415
  410MOL0     C55236  10.530  10.933   3.289 -0.3030  0.5292 -0.4580
  410MOL0     C55237  10.672  10.886   3.344  0.8344  0.7363 -0.1181
  410MOL0     C55238  10.714  10.983   3.455  0.0312  0.3910 -0.4883
  410MOL0     O55239  10.810  10.908   3.535  0.6742  0.0946 -0.2879
  410MOL0     C55240  10.851  10.968   3.652 -0.0449  0.9812 -0.4513
  410MOL0     C55241  10.918  10.872   3.734 -0.1090 -0.5315  0.5169
  410MOL0     C55242  10.956  10.909   3.861  0.8042  0.7525 -0.5810
  410MOL0     C55243  11.014  10.795   3.943 -0.3427  0.3824 -0.5505
  410MOL0     C55244  10.931  11.035   3.912  0.2814 -0.2018 -0.1213
  410MOL0     C55245  10.993  11.085   4.048  0.4518  0.1063  0.1091
  410MOL0     O55246  11.002  11.001   4.158  0.0495 -0.1542  0.2845
  410MOL0     C55247  11.066  11.042   4.272 -0.1315  0.0822  1.0197
  410MOL0     C55248  11.205  11.075   4.269  0.3665  0.6796  0.2512
  410MOL0     C55249  11.268  11.119   4.376 -0.0346  0.3233 -0.3848
  410MOL0     C55250  11.202  11.147   4.495  0.1206  0.8731  0.4505
  410MOL0     O55251  11.262  11.198   4.609  0.1157 -0.3098 -0.2291
  410MOL0     C55252  11.403  11.225   4.605  1.1921  0.0744 -0.3551
  410MOL0     C55253  11.491  11.103   4.625 -0.0274  0.1317  0.8309
  410MOL0     C55254  11.609  11.113   4.527 -0.4005  0.9013  0.0037
  410MOL0     C55255  11.698  10.995   4.531  1.0575  0.6575 -0.9678
  410MOL0     C55256  11.812  11.001   4.438  0.2867  0.2886  0.5081
  410MOL0     C55257  11.887  10.870   4.446 -0.0691  0.1674 -0.5260
  410MOL0     C55258  12.000  10.884   4.348 -0.7597  0.3874 -0.0663
  410MOL0     C55259  12.134  10.870   4.426  0.5858  0.1460  0.1288
  410MOL0    Cl55260  12.276  10.901   4.307  0.3958 -0.3442  0.1166
  410MOL0     C55261  11.068  11.144   4.498  1.4864  0.5283 -0.3243
  410MOL0     C55262  10.992  11.083   4.387  0.0783 -0.1199 -0.5569
  410MOL0     O55263  11.023  11.202   4.056 -0.1775 -0.3757  0.3868
  410MOL0     C55264  10.877  11.132   3.823  0.2916 -0.0017 -0.0064
  410MOL0     C55265  10.823  11.093   3.697  0.1567 -1.3013  0.6742
  410MOL0     N55266  10.221  11.079   3.352 -0.4317 -0.9744  0.5567
  410MOL0     N55267  10.122  11.080   3.263  0.0613 -0.1004  0.3820
  410MOL0     C55268   9.103  10.402   3.194  0.4828  0.4924  0.9095
  410MOL0     C55269   8.965  10.404   3.210  0.9731  0.2436 -0.0989
  410MOL0     C55270   8.535  10.437   3.281 -0.4427 -0.3190 -0.4422
  410MOL0     C55271   8.482  10.317   3.337  0.6061  0.7372 -0.2171
  410MOL0     C55272   8.343  10.299   3.320  0.4897  1.0816  0.4354
  410MOL0     C55273   8.254  10.389   3.263 -0.6048 -0.0131 -0.3822
  410MOL0     O55274   8.115  10.382   3.264 -0.2639 -0.3676 -0.0927
  410MOL0     C55275   8.058  10.249   3.292  0.7266 -0.3623 -0.6847
  410MOL0     C55276   7.901  10.265   3.317 -0.8074  0.0058 -0.0022
  410MOL0     C55277   7.860  10.145   3.408 -0.4268  0.1185 -0.2329
  410MOL0     C55278   7.818  10.023   3.319 -0.4946  0.1221  0.1191
  410MOL0     C55279   7.903   9.995   3.202  1.1143 -0.0860  0.2494
  410MOL0     C55280   7.973   9.955   3.110 -0.2578 -0.5298  0.5755
  410MOL0     C55281   8.303  10.510   3.219 -0.4072  0.2956 -0.1709
  410MOL0     C55282   8.445  10.535   3.228 -0.0819  0.2214  0.5050
  410MOL0     H55283   8.920  10.328   3.535 -1.5607 -0.4429 -1.7393
  410MOL0     H55284   9.191  10.331   3.508 -2.0226 -7.2030  0.0860
  410MOL0     H55285   9.411  10.426   3.476 -0.3848 -0.8275  0.8982
  410MOL0     H55286   9.414  10.255   3.410  0.8803  0.7521  0.2238
  410MOL0     H55287   9.620  10.354   3.404  0.9170 -1.6532 -1.2486
  410MOL0     H55288   9.552  10.327   3.239 -1.7006  0.5987 -0.4492
  410MOL0     H55289   9.504  10.560   3.216 -0.4813 -0.3412  0.0623
  410MOL0     H55290   9.550  10.588   3.393 -0.4966  0.6223 -0.5067
  410MOL0     H55291   9.785  10.538   3.329  1.3882 -0.2840 -1.2426
  410MOL0     H55292   9.726  10.490   3.173  1.5604 -0.1173  0.6292
  410MOL0     H55293   9.680  10.726   3.116 -0.8798 -1.1558  0.2998
  410MOL0     H55294   9.682  10.775   3.280 -0.4353  0.5836 -1.3329
  410MOL0     H55295   9.948  10.736   3.270 -1.6881  4.7424  1.3819
  410MOL0     H55296   9.917  10.686   3.099 -2.2090 -2.0918  0.3677
  410MOL0     H55297   9.843  10.912   3.047 -0.1927 -1.3148 -0.5983
  410MOL0     H55298   9.876  10.970   3.212 -0.3470  0.8846 -0.9837
  410MOL0     H55299  10.051  11.022   3.037  2.2999 -0.0786  0.4485
  410MOL0     H55300  10.087  10.857   3.031 -1.8139 -1.9108  2.2386
  410MOL0     H55301  10.235  10.767   3.240 -0.6767 -0.4394  1.7743
  410MOL0     H55302  10.428  10.987   3.475 -1.4134  0.9269 -0.0922
  410MOL0     H55303  10.403  10.817   3.420 -2.1768  0.4333  1.4439
  410MOL0     H55304  10.536  11.035   3.251 -0.2148  0.9071  0.5278
  410MOL0     H55305  10.499  10.865   3.209  0.6371  1.8172 -1.9933
  410MOL0     H55306  10.744  10.886   3.262  3.5654  3.2124  2.0939
  410MOL0     H55307  10.664  10.784   3.384  1.9252  0.5982 -0.2230
  410MOL0     H55308  10.627  10.999   3.520  0.7018 -1.1871  0.8557
  410MOL0     H55309  10.749  11.078   3.413 -3.1967  2.2276  0.5548
  410MOL0     H55310  10.945  10.775   3.695  2.9328 -0.2544  1.6464
  410MOL0     H55311  11.097  10.841   3.997 -0.5716  0.3274 -0.1494
  410MOL0     H55312  10.930  10.765   4.007 -0.8590  1.9859 -0.4306
  410MOL0     H55313  11.046  10.713   3.878  2.6524  1.2193 -0.2918
  410MOL0     H55314  11.266  11.043   4.186  1.4982 -2.7124  2.1953
  410MOL0     H55315  11.376  11.118   4.382 -0.0319 -1.4834 -0.3316
  410MOL0     H55316  11.431  11.276   4.512  0.1143  2.4836  0.5644
  410MOL0     H55317  11.425  11.303   4.679 -1.6658 -0.7066  1.4828
  410MOL0     H55318  11.529  11.095   4.727 -1.1593 -2.7414  1.1143
  410MOL0     H55319  11.425  11.022   4.595 -1.2334  1.5627 -0.5675
  410MOL0     H55320  11.664  11.205   4.551  1.0724 -0.0853  0.5351
  410MOL0     H55321  11.581  11.106   4.421  0.6351  1.2497 -0.3161
  410MOL0     H55322  11.721  10.981   4.637 -3.1935  1.8904  0.2986
  410MOL0     H55323  11.633  10.911   4.504  0.1840  1.1343 -0.3825
  410MOL0     H55324  11.874  11.086   4.467 -3.4172  3.3707  0.1047
  410MOL0     H55325  11.771  11.019   4.339 -1.6257  0.9112  1.3622
  410MOL0     H55326  11.925  10.871   4.548  0.7487  1.8700 -0.8222
  410MOL0     H55327  11.828  10.779   4.428  1.2341 -0.4768 -1.7456
  410MOL0     H55328  12.006  10.989   4.316  2.3261  0.4010  0.2229
  410MOL0     H55329  11.998  10.801   4.277  0.6099 -0.8583  1.2708
  410MOL0     H55330  12.124  10.768   4.465  3.9063 -0.1806  0.3666
  410MOL0     H55331  12.144  10.928   4.518  0.8448 -0.4489  0.4825
  410MOL0     H55332  11.019  11.180   4.588 -1.5457  0.1920 -1.7023
  410MOL0     H55333  10.886  11.062   4.397 -0.0408 -0.5027 -2.2965
  410MOL0     H55334  10.860  11.228   3.871  1.8604  0.1233  0.3699
  410MOL0     H55335  10.759  11.163   3.643  3.9901  2.0088 -0.0712
  410MOL0     H55336   9.156  10.403   3.100  2.3998 -0.2536  1.9317
  410MOL0     H55337   8.900  10.410   3.124 -3.2813 -0.2786  2.7475
  410MOL0     H55338   8.552  10.249   3.383  3.4347  1.1334 -3.5118
  410MOL0     H55339   8.314  10.201   3.358  1.1253 -0.7597 -3.3674
  410MOL0     H55340   8.084  10.184   3.208 -0.6505  2.2500 -3.3233
  410MOL0     H55341   8.095  10.209   3.387 -0.0524  2.3642  0.8934
  410MOL0     H55342   7.853  10.254   3.219 -0.4256 -0.4828 -0.1390
  410MOL0     H55343   7.889  10.365   3.361 -0.9322  0.5352 -1.1760
  410MOL0     H55344   7.772  10.197   3.449  0.1633  1.1172 -0.2067
  410MOL0     H55345   7.925  10.105   3.486 -3.3856 -2.2962  1.2320
  410MOL0     H55346   7.717  10.046   3.283  0.8778  3.1563 -2.1873
  410MOL0     H55347   7.816   9.930   3.376  1.7800 -0.0544  0.0161
  410MOL0     H55348   8.047   9.918   3.042  0.6001 -0.9173  1.6890
  410MOL0     H55349   8.227  10.578   3.181 -3.5045 -2.3221  0.8796
  410MOL0     H55350   8.481  10.634   3.203 -0.8103  0.4354  0.3008
  411MOL0     O55351   9.412   4.511   9.231 -0.0386  0.3656 -0.2704
  411MOL0     C55352   9.395   4.552   9.343 -0.4643 -0.1337  0.1556
  411MOL0     O55353   9.494   4.571   9.435 -0.1393 -0.2887 -0.1739
  411MOL0     C55354   9.623   4.557   9.407 -0.1885  0.0702 -0.2389
  411MOL0     C55355   9.686   4.471   9.314  1.1300  0.5884 -0.8334
  411MOL0     C55356   9.826   4.481   9.286  0.1731  0.0474  0.2906
  411MOL0     C55357   9.901   4.578   9.346 -0.2593  0.3213 -0.4232
  411MOL0     O55358  10.024   4.610   9.294  0.1101 -0.4247 -0.5433
  411MOL0     C55359  10.122   4.506   9.305 -1.1207 -0.0071  0.4907
  411MOL0     C55360  10.183   4.512   9.445 -0.1993 -0.9117  0.0900
  411MOL0     C55361  10.119   4.413   9.552 -0.8367  0.2419  0.8067
  411MOL0     C55362  10.207   4.404   9.673 -0.2939  0.1702  0.0482
  411MOL0     C55363  10.149   4.342   9.808 -0.5443 -0.4587 -0.1608
  411MOL0     C55364  10.234   4.371   9.933  0.0341 -0.6792  0.7513
  411MOL0     C55365  10.388   4.341   9.929 -0.2564 -0.6475 -0.1833
  411MOL0     C55366  10.427   4.206   9.882  0.1572  0.5760 -0.0479
  411MOL0     N55367  10.570   4.181   9.894  0.8976  0.0940 -1.4450
  411MOL0     C55368  10.659   4.202   9.790  0.2451  0.8699 -0.2437
  411MOL0     C55369  10.776   4.163   9.837  0.2800  0.8831 -0.7575
  411MOL0     C55370  10.913   4.170   9.769  0.6128  0.9786  0.2364
  411MOL0     C55371  10.991   4.275   9.840  0.2125 -1.1573  0.2901
  411MOL0     C55372  11.139   4.265   9.809 -0.7638  0.0153  0.3747
  411MOL0     C55373  11.213   4.142   9.850  0.2908 -0.3310 -0.3767
  411MOL0     O55374  11.174   4.065   9.962 -0.0050  0.1680 -0.1751
  411MOL0     C55375  11.217   4.107  10.091  0.2884 -0.0790  0.1467
  411MOL0     C55376  11.299   4.213  10.119 -0.7695  0.6658 -0.2215
  411MOL0     C55377  11.352   4.234  10.257 -0.1247 -0.1761 -0.1531
  411MOL0     C55378  11.441   4.354  10.284 -0.1817 -0.2546  0.3866
  411MOL0     C55379  11.315   4.147  10.361 -0.0896 -0.5861  0.0649
  411MOL0     C55380  11.372   4.141  10.498  0.4486 -0.5160 -0.5777
  411MOL0     O55381  11.417   4.016  10.536 -0.1550 -0.0033  0.4179
  411MOL0     C55382  11.464   3.995  10.662  0.5327 -0.1637 -0.0579
  411MOL0     C55383  11.607   3.968  10.672 -0.0534  0.7742 -0.1633
  411MOL0     C55384  11.651   3.934  10.801  0.4507 -0.0399 -0.4115
  411MOL0     C55385  11.571   3.931  10.912  0.3597 -0.0573 -0.7437
  411MOL0     O55386  11.625   3.892  11.036 -0.1825  0.0808 -0.0768
  411MOL0     C55387  11.535   3.845  11.143  0.3007 -0.3060  0.6817
  411MOL0     C55388  11.621   3.793  11.256  0.6221 -0.4368  0.5558
  411MOL0     C55389  11.539   3.759  11.380 -0.6916  0.0407 -0.1154
  411MOL0     C55390  11.629   3.695  11.489 -0.4663 -1.3667 -0.1811
  411MOL0     C55391  11.568   3.672  11.626 -0.5804 -0.1324 -0.0986
  411MOL0     C55392  11.556   3.790  11.715  0.1346 -0.3591 -0.2097
  411MOL0     C55393  11.472   3.768  11.848  0.7687 -0.0958  0.5678
  411MOL0     C55394  11.522   3.853  11.958 -0.0433 -0.1368  0.2526
  411MOL0    Cl55395  11.512   4.025  11.918 -0.4075  0.2498  0.3392
  411MOL0     C55396  11.433   3.951  10.904 -0.2866 -0.5658 -0.0737
  411MOL0     C55397  11.389   3.978  10.779  0.1065 -0.6152  0.5734
  411MOL0     O55398  11.385   4.247  10.558 -0.4393 -0.7481 -0.2422
  411MOL0     C55399  11.222   4.053  10.323 -0.4545 -0.0078  0.6807
  411MOL0     C55400  11.168   4.034  10.192  0.2016  0.3604 -1.2533
  411MOL0     N55401  10.758   4.121   9.966 -0.1456 -0.6143 -1.1445
  411MOL0     N55402  10.633   4.136  10.001  0.3338 -0.0504 -0.3405
  411MOL0     C55403   9.841   4.659   9.447  0.1303  0.6671  0.5599
  411MOL0     C55404   9.703   4.647   9.468 -0.1429  0.0311  0.5135
  411MOL0     C55405   9.261   4.597   9.373 -0.0150  0.8384 -0.8552
  411MOL0     C55406   9.146   4.552   9.304  0.4034  0.5471  0.4502
  411MOL0     C55407   9.019   4.603   9.328  0.3151 -1.0576 -0.0562
  411MOL0     C55408   9.010   4.696   9.434 -0.2315 -0.5279  0.9549
  411MOL0     O55409   8.890   4.740   9.463 -1.3309 -0.5582 -0.3623
  411MOL0     C55410   8.831   4.828   9.366  1.1772  0.1166 -0.5255
  411MOL0     C55411   8.860   4.968   9.396 -0.9988  0.3993  0.0929
  411MOL0     C55412   8.834   5.019   9.541  0.1412 -1.2246 -1.3584
  411MOL0     C55413   8.885   5.167   9.583  0.0195  0.1196 -0.0007
  411MOL0     C55414   8.792   5.267   9.528 -0.3047  0.7497  0.1699
  411MOL0     C55415   8.724   5.361   9.493  0.8080 -0.3016  0.3172
  411MOL0     C55416   9.125   4.742   9.498 -0.6046  0.8538 -0.1229
  411MOL0     C55417   9.247   4.698   9.468 -0.2413  0.4667 -0.4339
  411MOL0     H55418   9.620   4.398   9.270 -2.2757  2.4612  0.7770
  411MOL0     H55419   9.867   4.419   9.207  0.3212 -0.5359  0.8227
  411MOL0     H55420  10.072   4.413   9.280  0.4597 -1.0546  1.0715
  411MOL0     H55421  10.207   4.532   9.241 -0.0503  1.4704  2.3955
  411MOL0     H55422  10.290   4.491   9.447 -0.1421 -0.5950  1.2954
  411MOL0     H55423  10.172   4.613   9.486  0.3969 -1.0739  0.6609
  411MOL0     H55424  10.014   4.430   9.577 -0.7279 -0.5404  1.8932
  411MOL0     H55425  10.116   4.309   9.516 -1.1292 -0.4009  2.5866
  411MOL0     H55426  10.300   4.352   9.649  0.5419  1.8676 -0.5017
  411MOL0     H55427  10.229   4.508   9.697  2.5467  0.0879 -1.7606
  411MOL0     H55428  10.059   4.401   9.827  0.6681  1.5221 -0.1689
  411MOL0     H55429  10.125   4.236   9.797  0.3491 -0.6034 -0.7835
  411MOL0     H55430  10.205   4.473   9.961 -1.3022 -1.4027  2.1678
  411MOL0     H55431  10.189   4.321  10.020 -2.8029  2.7091  1.4800
  411MOL0     H55432  10.437   4.417   9.867  0.6507 -0.0318  1.2236
  411MOL0     H55433  10.427   4.350  10.031  0.4146 -4.5538  0.0370
  411MOL0     H55434  10.400   4.201   9.776  2.5489  1.8694 -0.7787
  411MOL0     H55435  10.378   4.133   9.947 -1.1269  1.3466 -0.1253
  411MOL0     H55436  10.652   4.232   9.686 -1.3550  0.8108 -0.1834
  411MOL0     H55437  10.962   4.072   9.769 -1.5919 -0.2440  2.3414
  411MOL0     H55438  10.908   4.206   9.666 -0.6315  0.3921  0.0745
  411MOL0     H55439  10.976   4.272   9.948  0.5784 -1.8545  0.3311
  411MOL0     H55440  10.947   4.368   9.803  0.0152 -0.9509  1.0442
  411MOL0     H55441  11.189   4.352   9.854 -0.5304  3.4795 -5.5180
  411MOL0     H55442  11.153   4.274   9.701 -1.4845  0.3292  0.2995
  411MOL0     H55443  11.315   4.181   9.856  0.3926 -0.4832 -1.0726
  411MOL0     H55444  11.203   4.080   9.761 -1.1914  2.2062 -2.1263
  411MOL0     H55445  11.327   4.287  10.045 -0.8052  1.3564  0.4418
  411MOL0     H55446  11.526   4.314  10.340 -0.0494 -3.1953 -1.7125
  411MOL0     H55447  11.481   4.395  10.191 -0.4491 -0.3358  0.2348
  411MOL0     H55448  11.398   4.446  10.325 -0.2849 -0.5682  1.0029
  411MOL0     H55449  11.662   3.965  10.579 -0.7666 -1.1813 -0.5647
  411MOL0     H55450  11.754   3.906  10.817 -0.3141 -3.0674 -0.1048
  411MOL0     H55451  11.471   3.925  11.179  3.3779  1.2858  3.0878
  411MOL0     H55452  11.480   3.760  11.100 -0.7776 -0.9432  3.1603
  411MOL0     H55453  11.673   3.708  11.210  1.9564  0.7842 -0.3019
  411MOL0     H55454  11.692   3.870  11.291  1.3400 -0.3318 -1.0309
  411MOL0     H55455  11.455   3.694  11.351  0.2912 -0.8365 -1.0660
  411MOL0     H55456  11.484   3.844  11.422 -3.8557 -0.8842 -1.9814
  411MOL0     H55457  11.672   3.606  11.443 -0.6939 -1.0310 -1.0641
  411MOL0     H55458  11.706   3.771  11.506 -2.0095 -0.2557  2.5077
  411MOL0     H55459  11.629   3.597  11.679  0.5440 -0.5190 -1.8813
  411MOL0     H55460  11.471   3.626  11.606 -1.1630  0.8407  0.4467
  411MOL0     H55461  11.651   3.835  11.745 -0.9585  1.1917  1.0503
  411MOL0     H55462  11.506   3.875  11.668 -0.6344 -0.2772  0.7328
  411MOL0     H55463  11.455   3.663  11.874 -2.2319 -0.1692 -1.1946
  411MOL0     H55464  11.370   3.799  11.821  1.6382 -0.0678 -3.2423
  411MOL0     H55465  11.627   3.825  11.970  0.3927  0.7337 -1.2107
  411MOL0     H55466  11.469   3.823  12.049  1.0085 -0.8299  0.6503
  411MOL0     H55467  11.363   3.935  10.985  3.1106 -4.4974  2.4961
  411MOL0     H55468  11.286   4.009  10.765  0.1989 -0.6343 -0.1879
  411MOL0     H55469  11.195   3.979  10.398  2.8175 -0.3178  1.7101
  411MOL0     H55470  11.104   3.948  10.176  0.1955 -0.7589  3.3692
  411MOL0     H55471   9.908   4.728   9.497  2.2747 -0.7209 -0.2433
  411MOL0     H55472   9.668   4.715   9.545 -0.1648 -1.5671  2.0104
  411MOL0     H55473   9.149   4.475   9.229 -0.3992 -2.8996  3.6436
  411MOL0     H55474   8.939   4.563   9.267 -0.7057 -0.4907  0.8789
  411MOL0     H55475   8.870   4.803   9.267  2.8921 -1.2843  0.4498
  411MOL0     H55476   8.722   4.826   9.379  1.2339  2.2428  0.7225
  411MOL0     H55477   8.811   5.026   9.318  1.0889  1.5016 -0.4912
  411MOL0     H55478   8.969   4.976   9.383 -1.0982  1.4293 -0.1241
  411MOL0     H55479   8.874   4.952   9.617  1.0533  0.2925 -0.4305
  411MOL0     H55480   8.726   5.020   9.557  0.1303  1.6118 -0.9285
  411MOL0     H55481   8.987   5.186   9.550  0.1743 -1.8772 -0.8277
  411MOL0     H55482   8.884   5.171   9.693  0.8209 -2.0457  0.1447
  411MOL0     H55483   8.680   5.451   9.457 -1.1024 -1.9976 -1.8663
  411MOL0     H55484   9.123   4.822   9.570 -2.3693  0.9980 -0.2815
  411MOL0     H55485   9.337   4.737   9.516  2.0878 -3.7127 -0.8558
  412MOL0     O55486   0.306   1.667   5.601 -0.1528 -0.0037  0.0509
  412MOL0     C55487   0.330   1.621   5.708 -0.3252 -0.7166  0.0013
  412MOL0     O55488   0.277   1.652   5.818  1.0910  0.6729 -0.2693
  412MOL0     C55489   0.182   1.751   5.831  0.0606 -0.4632  0.2241
  412MOL0     C55490   0.219   1.882   5.782  0.4351  0.8051 -0.1899
  412MOL0     C55491   0.123   1.983   5.798  0.3875 -0.5044 -0.2249
  412MOL0     C55492  -0.001   1.961   5.850  0.5829  0.5358 -0.1958
  412MOL0     O55493  -0.084   2.064   5.847 -0.2303  0.5974 -0.8374
  412MOL0     C55494  -0.218   2.058   5.898  1.1040 -0.2842  0.4734
  412MOL0     C55495  -0.291   2.198   5.912  0.6518  0.4676 -0.0258
  412MOL0     C55496  -0.424   2.199   5.975  0.2963 -0.3265 -0.3442
  412MOL0     C55497  -0.551   2.222   5.887  0.8600 -0.1286 -0.0089
  412MOL0     C55498  -0.570   2.368   5.846  0.6747 -0.9073 -0.2640
  412MOL0     C55499  -0.654   2.392   5.724 -0.6861 -0.8422 -0.0665
  412MOL0     C55500  -0.693   2.538   5.706 -1.8854 -0.1952 -0.5197
  412MOL0     C55501  -0.566   2.625   5.671 -0.0669  0.7188  0.4465
  412MOL0     N55502  -0.579   2.752   5.737  0.0058 -0.8517 -0.1790
  412MOL0     C55503  -0.599   2.872   5.669  0.1338 -0.4674 -0.2477
  412MOL0     C55504  -0.574   2.967   5.756 -0.3788  0.1469 -0.4635
  412MOL0     C55505  -0.593   3.114   5.746  0.1447 -0.2151 -0.3208
  412MOL0     C55506  -0.747   3.160   5.758 -1.2054 -0.0650  0.2281
  412MOL0     C55507  -0.807   3.142   5.618 -0.5469  0.1127  0.2943
  412MOL0     C55508  -0.767   3.266   5.520  0.1285 -0.7624 -0.0285
  412MOL0     O55509  -0.640   3.258   5.456  0.5368 -0.6980 -0.6961
  412MOL0     C55510  -0.617   3.145   5.384  0.1620 -0.3134 -0.2861
  412MOL0     C55511  -0.485   3.093   5.395 -0.4056 -0.0539 -0.4304
  412MOL0     C55512  -0.441   2.972   5.347  0.1129  0.4022  0.3369
  412MOL0     C55513  -0.295   2.932   5.388 -0.3036  0.4304  0.9047
  412MOL0     C55514  -0.541   2.888   5.283 -0.7287  0.3153  0.4229
  412MOL0     C55515  -0.506   2.742   5.236 -0.1665  0.3367  0.2401
  412MOL0     O55516  -0.601   2.675   5.164  0.3436  0.6332  0.4124
  412MOL0     C55517  -0.606   2.541   5.194 -0.4198 -0.1943  0.1280
  412MOL0     C55518  -0.724   2.498   5.264  0.2013 -1.4127  0.5654
  412MOL0     C55519  -0.751   2.368   5.272 -0.3786  0.2887  0.4909
  412MOL0     C55520  -0.656   2.276   5.224 -0.7958  0.3800 -0.2504
  412MOL0     O55521  -0.680   2.141   5.231  0.3210 -0.0329 -0.2726
  412MOL0     C55522  -0.764   2.099   5.349  1.0526 -0.4340 -0.2246
  412MOL0     C55523  -0.736   1.957   5.385  0.3307  0.7523  1.0030
  412MOL0     C55524  -0.633   1.941   5.498 -0.1893  0.0215  0.7940
  412MOL0     C55525  -0.485   1.945   5.464  0.0849 -0.7364 -0.4144
  412MOL0     C55526  -0.418   1.835   5.376  0.6348  0.5492  0.2533
  412MOL0     C55527  -0.474   1.695   5.416  0.1341  0.1864  0.1509
  412MOL0     C55528  -0.421   1.668   5.557  0.3938  0.5913 -0.0288
  412MOL0     C55529  -0.398   1.518   5.572  0.1439  0.1061 -0.4776
  412MOL0    Cl55530  -0.548   1.434   5.614 -0.3081 -0.3649 -0.2582
  412MOL0     C55531  -0.538   2.316   5.171 -0.3230  1.0079 -0.0492
  412MOL0     C55532  -0.512   2.449   5.151 -0.1293 -0.6793  0.7845
  412MOL0     O55533  -0.398   2.697   5.257 -0.5282  0.5111 -0.0367
  412MOL0     C55534  -0.676   2.928   5.275  0.1047 -0.3000 -0.0059
  412MOL0     C55535  -0.716   3.056   5.325  0.4972  0.0309 -0.2025
  412MOL0     N55536  -0.538   2.917   5.877  0.2464 -0.1673 -0.2707
  412MOL0     N55537  -0.548   2.782   5.869 -0.2022  0.0986  0.3531
  412MOL0     C55538  -0.033   1.833   5.900  0.0998  0.1188  0.3530
  412MOL0     C55539   0.056   1.726   5.887 -0.2389  0.0587  0.9050
  412MOL0     C55540   0.437   1.518   5.720  0.2311  0.7514  0.2512
  412MOL0     C55541   0.478   1.461   5.844 -0.5610 -0.9612  1.0608
  412MOL0     C55542   0.574   1.356   5.841 -0.5511  0.1040 -0.6932
  412MOL0     C55543   0.645   1.307   5.729  0.3156  0.0367 -0.1300
  412MOL0     O55544   0.724   1.200   5.747  0.0973  0.4262  1.3645
  412MOL0     C55545   0.774   1.125   5.639 -0.5978 -0.2465  0.1611
  412MOL0     C55546   0.830   0.991   5.701  0.6337  0.1447 -0.2960
  412MOL0     C55547   0.952   1.014   5.796 -0.4262  0.4470 -0.5195
  412MOL0     C55548   1.031   0.880   5.834  0.0591 -0.0863 -0.0465
  412MOL0     C55549   1.083   0.888   5.968  0.2510 -0.5626 -0.5159
  412MOL0     C55550   1.117   0.883   6.084 -0.6003 -0.6008 -0.0061
  412MOL0     C55551   0.605   1.375   5.605 -0.4344 -0.4650 -0.5419
  412MOL0     C55552   0.497   1.463   5.604  0.0094  0.5118  0.3192
  412MOL0     H55553   0.309   1.906   5.727  0.8766 -0.7870 -0.2016
  412MOL0     H55554   0.141   2.086   5.768  2.4471 -0.4197  1.1121
  412MOL0     H55555  -0.278   1.993   5.833  0.6476 -2.4359  2.8708
  412MOL0     H55556  -0.211   2.010   5.996  0.0486 -0.3314  0.5421
  412MOL0     H55557  -0.225   2.255   5.978 -2.0853  3.8092  0.1182
  412MOL0     H55558  -0.292   2.243   5.813  2.3073 -2.1402 -1.3289
  412MOL0     H55559  -0.434   2.103   6.025 -2.5597  1.1225  2.1963
  412MOL0     H55560  -0.427   2.282   6.046  3.8473  0.6098 -1.1373
  412MOL0     H55561  -0.539   2.163   5.796  0.2286  1.4615 -1.1725
  412MOL0     H55562  -0.635   2.176   5.940  1.3453 -1.4152 -0.3252
  412MOL0     H55563  -0.611   2.429   5.927 -0.1818 -2.0538  0.1827
  412MOL0     H55564  -0.473   2.412   5.823  0.6136  0.6225  2.0579
  412MOL0     H55565  -0.619   2.348   5.630 -0.0559 -2.5745  0.9374
  412MOL0     H55566  -0.756   2.354   5.733 -1.5389  1.6575  2.2343
  412MOL0     H55567  -0.756   2.535   5.616  0.7204  0.1857 -2.5021
  412MOL0     H55568  -0.739   2.588   5.791 -0.2943 -1.7296  1.3284
  412MOL0     H55569  -0.552   2.643   5.564  0.2659  4.8140  1.0425
  412MOL0     H55570  -0.472   2.578   5.704  0.5738  3.7183  3.3841
  412MOL0     H55571  -0.647   2.880   5.572 -0.4022 -3.6329 -0.3478
  412MOL0     H55572  -0.559   3.167   5.836 -3.2359  1.8636 -0.1023
  412MOL0     H55573  -0.540   3.148   5.657  2.4465 -1.5419  0.4667
  412MOL0     H55574  -0.745   3.265   5.788  1.8712  0.1239 -0.3946
  412MOL0     H55575  -0.819   3.093   5.807 -2.2487 -0.9819 -2.3617
  412MOL0     H55576  -0.916   3.144   5.628 -0.5502 -0.3184  0.3522
  412MOL0     H55577  -0.767   3.050   5.575 -0.4952 -0.0943  0.7767
  412MOL0     H55578  -0.782   3.355   5.583 -2.7583 -1.9712  1.1842
  412MOL0     H55579  -0.845   3.262   5.444  0.6488  0.1225 -0.6199
  412MOL0     H55580  -0.416   3.149   5.457  2.0150 -0.8275 -2.3019
  412MOL0     H55581  -0.230   2.903   5.305  2.7614  1.6397  2.7236
  412MOL0     H55582  -0.247   3.018   5.435  1.0527 -0.6033  1.4674
  412MOL0     H55583  -0.296   2.852   5.463  1.0023  0.6777  1.2033
  412MOL0     H55584  -0.803   2.559   5.307 -2.1616 -4.6842  1.2262
  412MOL0     H55585  -0.839   2.323   5.318  1.9643 -4.1456  1.1338
  412MOL0     H55586  -0.743   2.160   5.437  0.9891 -1.2159  0.3349
  412MOL0     H55587  -0.872   2.102   5.331 -0.0420 -0.2080  4.9804
  412MOL0     H55588  -0.828   1.915   5.426 -0.1664  1.5273  0.7116
  412MOL0     H55589  -0.704   1.890   5.306  1.6307  0.1728  1.9851
  412MOL0     H55590  -0.672   1.845   5.534 -0.1415 -0.6139 -0.7443
  412MOL0     H55591  -0.647   2.021   5.571  0.5528  0.9246 -0.0242
  412MOL0     H55592  -0.483   2.039   5.407 -3.7551 -0.3574 -0.1674
  412MOL0     H55593  -0.420   1.948   5.551  2.4203 -1.2708 -2.0355
  412MOL0     H55594  -0.309   1.828   5.376  0.5449 -1.7224 -0.4372
  412MOL0     H55595  -0.448   1.863   5.275 -2.0840 -0.8005  0.5747
  412MOL0     H55596  -0.583   1.694   5.416  0.0794 -1.8321  2.3731
  412MOL0     H55597  -0.441   1.615   5.348  1.4909  0.4551  0.4661
  412MOL0     H55598  -0.492   1.712   5.628 -1.5222  0.2859 -1.6583
  412MOL0     H55599  -0.323   1.714   5.565  0.4190  1.0153 -2.2007
  412MOL0     H55600  -0.342   1.489   5.662  0.1652 -2.7356 -1.3273
  412MOL0     H55601  -0.352   1.475   5.483  3.4258  1.0586  0.6227
  412MOL0     H55602  -0.474   2.232   5.145  1.4885  1.7299  1.7625
  412MOL0     H55603  -0.419   2.494   5.117 -0.6388  1.8523  2.4896
  412MOL0     H55604  -0.739   2.865   5.212 -0.4046 -0.1723  0.3692
  412MOL0     H55605  -0.821   3.082   5.314  0.4814 -0.5297 -1.6664
  412MOL0     H55606  -0.128   1.815   5.949 -0.2914  2.3451  0.5058
  412MOL0     H55607   0.035   1.628   5.927 -1.4137  0.1980  0.6497
  412MOL0     H55608   0.446   1.499   5.941 -1.8393 -0.7226  0.5583
  412MOL0     H55609   0.606   1.316   5.936  1.7641  2.9956 -0.1005
  412MOL0     H55610   0.706   1.107   5.555 -0.1346  1.2108 -0.5648
  412MOL0     H55611   0.860   1.181   5.602 -0.8688  0.0329 -0.0638
  412MOL0     H55612   0.850   0.918   5.623  0.2427 -0.1137 -0.1569
  412MOL0     H55613   0.747   0.969   5.769 -0.8709  2.3520 -1.2777
  412MOL0     H55614   0.906   1.047   5.889 -0.9002  0.7706 -0.8650
  412MOL0     H55615   1.012   1.087   5.740  0.6571 -1.2686 -1.6969
  412MOL0     H55616   1.112   0.863   5.763 -1.5511 -0.3701 -1.9031
  412MOL0     H55617   0.957   0.800   5.822 -4.2451  3.6946 -1.7201
  412MOL0     H55618   1.128   0.904   6.189  0.6447  0.8743 -0.3822
  412MOL0     H55619   0.646   1.341   5.510 -3.6184 -3.0969 -1.1534
  412MOL0     H55620   0.479   1.496   5.502  1.7435  1.1488  0.1930
  413MOL0     O55621   2.065   0.595   1.645  0.2679 -0.2142  0.3980
  413MOL0     C55622   1.985   0.564   1.560 -0.4962  0.0220  0.0043
  413MOL0     O55623   1.940   0.653   1.467  0.6891  0.1090 -0.1473
  413MOL0     C55624   1.987   0.782   1.475 -1.0856  0.3248  0.4049
  413MOL0     C55625   2.103   0.818   1.413 -0.2750 -0.8134 -0.2764
  413MOL0     C55626   2.146   0.950   1.395 -0.6408  0.9845 -0.6521
  413MOL0     C55627   2.072   1.050   1.461 -0.0282 -0.1963 -0.7793
  413MOL0     O55628   2.098   1.185   1.456  0.8907 -0.1331  0.1591
  413MOL0     C55629   2.084   1.219   1.312 -0.4917 -0.4076  0.6402
  413MOL0     C55630   2.117   1.373   1.301 -1.3388  0.1931  0.2463
  413MOL0     C55631   2.262   1.394   1.262 -0.5676 -0.9495  0.2388
  413MOL0     C55632   2.367   1.371   1.368 -0.2256  0.0866 -0.0841
  413MOL0     C55633   2.513   1.404   1.318  0.1225 -0.5011 -0.3092
  413MOL0     C55634   2.584   1.511   1.406 -0.9743 -0.4563 -0.6262
  413MOL0     C55635   2.634   1.455   1.541 -0.2398 -0.1609  0.6456
  413MOL0     C55636   2.753   1.371   1.528 -0.4282 -0.6880 -0.3392
  413MOL0     N55637   2.869   1.439   1.475 -0.4046  0.0158  0.6892
  413MOL0     C55638   2.912   1.425   1.348 -0.4070  0.3493  1.2741
  413MOL0     C55639   3.022   1.498   1.340  0.2510  0.4432 -0.9670
  413MOL0     C55640   3.122   1.515   1.231 -0.1024  0.4170 -1.3709
  413MOL0     C55641   3.069   1.567   1.096  0.7779  0.3435 -0.2100
  413MOL0     C55642   3.165   1.546   0.980 -0.7105 -0.7398  0.1110
  413MOL0     C55643   3.281   1.647   0.976 -0.0507  0.3959  0.7949
  413MOL0     O55644   3.377   1.605   0.875  0.3734 -0.8221  0.1799
  413MOL0     C55645   3.511   1.599   0.909  0.4602 -0.4400 -0.5271
  413MOL0     C55646   3.600   1.531   0.829  0.8053  0.1172 -0.2524
  413MOL0     C55647   3.738   1.518   0.848  0.0838  0.2424 -0.0140
  413MOL0     C55648   3.812   1.428   0.741 -0.6419  0.2577  0.0156
  413MOL0     C55649   3.797   1.586   0.955 -0.0205 -1.3732  0.0061
  413MOL0     C55650   3.953   1.605   0.962 -0.6278 -0.1581 -0.4271
  413MOL0     O55651   3.986   1.676   1.074 -1.0715 -0.3565 -0.3158
  413MOL0     C55652   4.106   1.659   1.138  0.2244 -0.5604 -0.5707
  413MOL0     C55653   4.124   1.749   1.247  0.5832  0.5939 -0.6525
  413MOL0     C55654   4.226   1.748   1.341  0.3746 -0.3463  0.2298
  413MOL0     C55655   4.322   1.637   1.332 -0.6797 -0.7987  0.1687
  413MOL0     O55656   4.421   1.615   1.418 -0.4992  0.3239 -0.0502
  413MOL0     C55657   4.452   1.708   1.524 -0.1505  0.2283  0.2531
  413MOL0     C55658   4.582   1.680   1.568 -0.3080  0.2015 -1.1965
  413MOL0     C55659   4.620   1.759   1.692  0.1342 -0.5137  0.0132
  413MOL0     C55660   4.760   1.736   1.729  0.5293  0.1624 -0.4727
  413MOL0     C55661   4.818   1.796   1.855 -0.6989 -0.6573 -1.0172
  413MOL0     C55662   4.772   1.745   1.984  0.6135  0.5724  0.1048
  413MOL0     C55663   4.765   1.581   1.997 -0.0362 -0.1922  0.1052
  413MOL0     C55664   4.770   1.531   2.149  0.0820  0.2811 -1.1230
  413MOL0    Cl55665   4.638   1.610   2.237  0.2709  0.1031 -0.3232
  413MOL0     C55666   4.319   1.558   1.218 -0.3127 -0.0270 -0.3959
  413MOL0     C55667   4.212   1.571   1.125 -0.2818  0.2670  0.0179
  413MOL0     O55668   4.032   1.568   0.879 -0.3069 -0.0694 -0.7334
  413MOL0     C55669   3.706   1.647   1.051  0.3722 -0.1199  0.4329
  413MOL0     C55670   3.568   1.662   1.017 -0.3370  0.2620 -0.7425
  413MOL0     N55671   3.040   1.548   1.462  0.5315 -0.3066 -0.6156
  413MOL0     N55672   2.951   1.517   1.539  0.3376 -0.1339  0.4854
  413MOL0     C55673   1.963   1.014   1.533  0.5977 -0.2971 -0.8908
  413MOL0     C55674   1.918   0.876   1.547 -0.5220  0.1703  0.1005
  413MOL0     C55675   1.933   0.421   1.556  0.1124  0.1847  0.6507
  413MOL0     C55676   1.986   0.318   1.632  0.0027 -0.6216  0.0405
  413MOL0     C55677   1.916   0.205   1.643 -0.4532  0.5004  0.5630
  413MOL0     C55678   1.813   0.161   1.551  0.3204 -1.2586  0.0781
  413MOL0     O55679   1.753   0.037   1.539 -0.4707  0.4750  0.2360
  413MOL0     C55680   1.780  -0.063   1.642  0.5414  0.4024 -0.5919
  413MOL0     C55681   1.689  -0.187   1.640  1.1872 -0.6497 -0.6261
  413MOL0     C55682   1.722  -0.288   1.536 -0.6152 -0.4362  1.1333
  413MOL0     C55683   1.688  -0.439   1.572 -0.2968 -0.0286  0.0299
  413MOL0     C55684   1.742  -0.525   1.473  1.0079 -1.5427 -0.1169
  413MOL0     C55685   1.812  -0.602   1.419 -0.4036  0.5263  0.2231
  413MOL0     C55686   1.772   0.269   1.462  0.2901  0.6470 -0.1888
  413MOL0     C55687   1.838   0.391   1.460 -0.0014  0.0251 -0.2786
  413MOL0     H55688   2.167   0.745   1.365 -0.3019 -3.1730  2.9277
  413MOL0     H55689   2.237   0.976   1.342 -0.0262 -0.5283 -0.3725
  413MOL0     H55690   2.152   1.165   1.245 -0.2135 -1.4199  1.7014
  413MOL0     H55691   1.980   1.210   1.283 -0.5925 -0.3418  0.9756
  413MOL0     H55692   2.060   1.420   1.220 -1.2318 -0.4480 -0.2058
  413MOL0     H55693   2.085   1.435   1.386 -1.4750  1.8806 -0.9910
  413MOL0     H55694   2.289   1.348   1.167  0.5428  3.7132 -1.9551
  413MOL0     H55695   2.260   1.499   1.234 -3.7792 -0.5917  1.4117
  413MOL0     H55696   2.338   1.434   1.452  1.8518  0.6975  0.2338
  413MOL0     H55697   2.375   1.270   1.408  0.1669  0.6570  1.3271
  413MOL0     H55698   2.575   1.315   1.332  1.3174  0.1589 -1.2336
  413MOL0     H55699   2.512   1.431   1.212 -3.0535  2.3847  0.2809
  413MOL0     H55700   2.674   1.540   1.350 -1.0170 -0.7220 -0.8356
  413MOL0     H55701   2.522   1.599   1.422  1.9294  1.1131  4.7251
  413MOL0     H55702   2.670   1.543   1.596  2.7487 -0.4896 -0.5879
  413MOL0     H55703   2.555   1.401   1.593 -0.1777 -0.9011 -0.0082
  413MOL0     H55704   2.734   1.278   1.473  0.0529 -0.2499 -1.2728
  413MOL0     H55705   2.773   1.347   1.633  1.0810  3.0663  0.3549
  413MOL0     H55706   2.864   1.371   1.267  2.8132 -1.8412  0.6175
  413MOL0     H55707   3.201   1.577   1.275 -2.3102  1.6558  1.0978
  413MOL0     H55708   3.158   1.413   1.216 -0.3540 -0.2460  1.8508
  413MOL0     H55709   3.051   1.674   1.109  0.9632  0.0651  3.1937
  413MOL0     H55710   2.971   1.523   1.080  1.2760 -0.8313 -0.0984
  413MOL0     H55711   3.121   1.548   0.880  3.2494  2.7386 -1.8825
  413MOL0     H55712   3.194   1.442   0.991 -1.3593 -0.8711  0.6757
  413MOL0     H55713   3.319   1.660   1.078 -0.1485  1.3450  0.7232
  413MOL0     H55714   3.247   1.746   0.945  3.6422  1.3928 -0.5691
  413MOL0     H55715   3.558   1.471   0.749  1.4070  2.4465 -2.4469
  413MOL0     H55716   3.916   1.423   0.774 -1.7605 -0.8990  3.9144
  413MOL0     H55717   3.776   1.325   0.737 -0.7267  0.1970  1.6797
  413MOL0     H55718   3.810   1.474   0.641 -0.3035 -0.5572 -0.3699
  413MOL0     H55719   4.048   1.824   1.262  0.9414  1.2988 -2.1569
  413MOL0     H55720   4.228   1.817   1.425  0.3980 -0.4849  0.3448
  413MOL0     H55721   4.436   1.806   1.477 -0.1615 -1.8113 -4.5541
  413MOL0     H55722   4.380   1.707   1.605 -0.7669  3.6254 -0.1212
  413MOL0     H55723   4.618   1.577   1.580  3.5974  1.6070  1.4882
  413MOL0     H55724   4.646   1.718   1.488 -0.2849 -0.0199 -1.2828
  413MOL0     H55725   4.555   1.735   1.776 -1.7002  0.5777 -1.0345
  413MOL0     H55726   4.610   1.865   1.667 -0.2159 -0.3444  0.8476
  413MOL0     H55727   4.763   1.627   1.738 -0.1306  0.2025  0.3372
  413MOL0     H55728   4.836   1.771   1.659  0.5825 -0.6887 -0.8558
  413MOL0     H55729   4.808   1.905   1.861  1.1939 -0.5494  1.0925
  413MOL0     H55730   4.927   1.788   1.856 -0.4627  1.5578  1.3309
  413MOL0     H55731   4.841   1.768   2.065  2.6508 -0.9082 -1.1146
  413MOL0     H55732   4.675   1.789   2.011  0.5081 -0.9679  2.4522
  413MOL0     H55733   4.846   1.535   1.940 -0.3606 -0.7044  0.0534
  413MOL0     H55734   4.671   1.548   1.952 -0.5144  1.9586 -0.6125
  413MOL0     H55735   4.857   1.580   2.193 -1.0568 -0.3403  2.1514
  413MOL0     H55736   4.766   1.422   2.162 -0.8067  0.3432 -0.8438
  413MOL0     H55737   4.385   1.472   1.215 -0.4163 -0.1546  0.6917
  413MOL0     H55738   4.182   1.488   1.062  0.9867  0.4117 -0.8126
  413MOL0     H55739   3.739   1.703   1.138 -2.5196  1.1941  0.7893
  413MOL0     H55740   3.518   1.722   1.092 -3.4476 -1.5027 -1.2224
  413MOL0     H55741   1.908   1.094   1.582  0.4897 -0.5159 -0.6560
  413MOL0     H55742   1.830   0.855   1.607  0.8705  1.8733  2.9809
  413MOL0     H55743   2.057   0.338   1.711 -0.7855 -0.2707  0.6664
  413MOL0     H55744   1.944   0.131   1.717  0.9167  0.3784 -0.0384
  413MOL0     H55745   1.881  -0.102   1.626  2.3105  2.2839  4.1030
  413MOL0     H55746   1.772  -0.018   1.741 -0.2835 -0.2769 -0.3415
  413MOL0     H55747   1.585  -0.157   1.626  0.7934  0.8268  3.7878
  413MOL0     H55748   1.687  -0.248   1.731 -1.4479 -1.8819 -1.3974
  413MOL0     H55749   1.826  -0.262   1.513  0.1006 -2.8278  1.3671
  413MOL0     H55750   1.665  -0.268   1.445  2.0012 -2.3016 -1.0889
  413MOL0     H55751   1.581  -0.464   1.578 -0.9472  2.1826 -1.1773
  413MOL0     H55752   1.717  -0.477   1.671 -1.6290 -2.5441 -0.4537
  413MOL0     H55753   1.870  -0.686   1.385  1.8593  0.4612  3.7431
  413MOL0     H55754   1.695   0.261   1.387  0.1060  4.2286 -0.5730
  413MOL0     H55755   1.819   0.464   1.382 -1.6796 -1.4972 -1.3843
  414MOL0     O55756   5.022   4.500   5.872 -0.6414  0.4000 -0.2388
  414MOL0     C55757   4.924   4.560   5.882  0.0809 -0.4286 -0.3024
  414MOL0     O55758   4.908   4.697   5.880  0.1054 -0.7827  0.5513
  414MOL0     C55759   5.017   4.774   5.848 -0.4439  0.1433 -0.0578
  414MOL0     C55760   5.132   4.750   5.918 -0.3415  0.0990 -0.7773
  414MOL0     C55761   5.258   4.805   5.881 -0.3256  0.4888 -0.4546
  414MOL0     C55762   5.266   4.896   5.770  0.1410 -0.3453 -0.6192
  414MOL0     O55763   5.378   4.949   5.716  0.8992 -0.4304  0.1130
  414MOL0     C55764   5.472   4.853   5.676 -0.4766  0.2347 -1.2539
  414MOL0     C55765   5.593   4.907   5.607  0.6372 -0.6219 -0.0508
  414MOL0     C55766   5.558   4.952   5.466 -0.6229  0.3647 -0.1786
  414MOL0     C55767   5.532   4.840   5.367  0.5524  0.1598  1.3985
  414MOL0     C55768   5.570   4.893   5.230 -0.7566  0.2165 -0.2568
  414MOL0     C55769   5.501   4.807   5.122  1.2806  0.1103  0.5641
  414MOL0     C55770   5.501   4.890   4.988 -0.7698  0.2213  0.7888
  414MOL0     C55771   5.415   4.836   4.871  0.8621 -0.5335 -0.4264
  414MOL0     N55772   5.275   4.816   4.898  0.0089  0.1467 -0.0644
  414MOL0     C55773   5.165   4.896   4.891 -0.7789 -0.2132 -0.1308
  414MOL0     C55774   5.057   4.827   4.923 -0.8324  0.5350 -0.0785
  414MOL0     C55775   4.918   4.880   4.925 -0.5939  0.5151  0.1939
  414MOL0     C55776   4.823   4.776   4.987 -0.9424  0.0335  0.0286
  414MOL0     C55777   4.697   4.837   5.035 -0.6222 -0.2560 -0.5868
  414MOL0     C55778   4.618   4.742   5.112 -0.0028  0.2691 -1.1915
  414MOL0     O55779   4.491   4.810   5.137  0.3295  0.6303 -0.6486
  414MOL0     C55780   4.389   4.717   5.139  0.5978  0.3769  0.1315
  414MOL0     C55781   4.257   4.752   5.079  1.4821  0.4082  0.3745
  414MOL0     C55782   4.153   4.651   5.077 -1.3209  0.4390 -0.3657
  414MOL0     C55783   4.026   4.684   5.001 -1.1645  0.0990  0.1549
  414MOL0     C55784   4.168   4.530   5.152  0.1145  0.6273  0.8205
  414MOL0     C55785   4.070   4.411   5.157  0.1273  0.0448 -0.1803
  414MOL0     O55786   4.120   4.282   5.198 -0.2887  0.3586  0.0990
  414MOL0     C55787   4.019   4.195   5.240 -0.6672  0.4131  0.2898
  414MOL0     C55788   3.921   4.232   5.337  0.8425 -0.4187 -0.2285
  414MOL0     C55789   3.832   4.143   5.396  0.5201 -0.6281 -0.3559
  414MOL0     C55790   3.842   4.011   5.370 -0.0519 -0.0066 -0.0889
  414MOL0     O55791   3.750   3.915   5.400 -0.2331 -0.4203 -0.2796
  414MOL0     C55792   3.663   3.924   5.515  0.5925  0.6028  0.0208
  414MOL0     C55793   3.540   3.822   5.521  0.3987  1.3152 -0.2868
  414MOL0     C55794   3.431   3.852   5.420  0.5315 -0.0536 -0.1125
  414MOL0     C55795   3.293   3.809   5.466 -0.2119  0.4451  0.3949
  414MOL0     C55796   3.209   3.769   5.344  0.3366  0.3017  0.1572
  414MOL0     C55797   3.066   3.730   5.400 -0.0163  0.1731  0.6603
  414MOL0     C55798   2.968   3.683   5.296 -0.5777 -0.3821 -0.0904
  414MOL0     C55799   2.869   3.572   5.333  0.2878 -0.3774  0.8033
  414MOL0    Cl55800   2.805   3.518   5.165  0.3450 -0.0237 -0.2666
  414MOL0     C55801   3.944   3.978   5.273 -0.3023  0.3641 -0.2194
  414MOL0     C55802   4.024   4.060   5.202 -0.3482 -0.9300 -0.1566
  414MOL0     O55803   3.956   4.430   5.117 -0.4800  0.8306  0.1990
  414MOL0     C55804   4.296   4.506   5.209 -0.9336  0.2375 -0.8413
  414MOL0     C55805   4.409   4.592   5.201  0.7485 -0.5259  0.3619
  414MOL0     N55806   5.105   4.692   4.940 -0.2041 -0.4598 -0.5184
  414MOL0     N55807   5.229   4.692   4.942 -0.0945 -0.0570  0.5579
  414MOL0     C55808   5.143   4.915   5.697 -0.3979  0.2240 -0.1386
  414MOL0     C55809   5.023   4.857   5.743 -0.4685  0.5317 -0.0122
  414MOL0     C55810   4.794   4.484   5.900  0.5248 -0.8849  0.1178
  414MOL0     C55811   4.673   4.560   5.897 -0.2426  1.3129  0.0489
  414MOL0     C55812   4.549   4.498   5.900  1.1789 -0.2587  0.2514
  414MOL0     C55813   4.543   4.367   5.939 -0.3680  0.0009 -0.5051
  414MOL0     O55814   4.419   4.312   5.965 -0.4157 -0.4221  1.0177
  414MOL0     C55815   4.397   4.172   5.977 -0.4780  1.1169 -0.1146
  414MOL0     C55816   4.249   4.164   6.007  0.0270  0.8512 -0.1074
  414MOL0     C55817   4.199   4.025   6.040  0.0361 -0.1140 -0.0688
  414MOL0     C55818   4.203   3.990   6.194  0.5591 -0.4494 -0.8017
  414MOL0     C55819   4.094   4.037   6.271  0.4892 -0.3178 -0.3152
  414MOL0     C55820   4.003   4.066   6.337 -0.2889  0.4783 -0.7308
  414MOL0     C55821   4.661   4.290   5.966  0.6200  0.2432  0.0992
  414MOL0     C55822   4.784   4.351   5.937 -0.3163  0.2291  0.2825
  414MOL0     H55823   5.139   4.684   6.004  0.2457  0.1359 -0.7928
  414MOL0     H55824   5.346   4.784   5.941  1.7998 -0.9604 -3.7646
  414MOL0     H55825   5.503   4.791   5.761  0.0891 -0.8391 -2.2121
  414MOL0     H55826   5.427   4.779   5.609 -1.3880 -0.0124 -0.3868
  414MOL0     H55827   5.631   4.990   5.668  0.7218 -1.0870  0.5481
  414MOL0     H55828   5.666   4.825   5.604 -0.1906 -1.4077  0.6838
  414MOL0     H55829   5.474   5.021   5.476 -1.4114 -0.6564  0.4086
  414MOL0     H55830   5.648   5.010   5.443 -0.9591  1.1927  0.5452
  414MOL0     H55831   5.587   4.747   5.387 -4.9369 -3.2736  2.8732
  414MOL0     H55832   5.427   4.808   5.371  0.9233 -1.3043  0.4418
  414MOL0     H55833   5.532   4.994   5.216 -0.0063  0.6162  0.5435
  414MOL0     H55834   5.679   4.896   5.224 -0.5837 -0.7089  1.6005
  414MOL0     H55835   5.556   4.713   5.112  1.4257  0.0946  1.4547
  414MOL0     H55836   5.401   4.778   5.158  1.4188 -1.5746 -0.3098
  414MOL0     H55837   5.478   4.993   5.014 -0.9112  0.5290 -0.4957
  414MOL0     H55838   5.600   4.874   4.945 -1.7466 -3.5080 -0.4885
  414MOL0     H55839   5.454   4.739   4.841  2.7147  0.3071 -0.8502
  414MOL0     H55840   5.430   4.900   4.784 -0.4804 -0.5663 -0.7099
  414MOL0     H55841   5.170   5.002   4.868  2.5418  0.0668  1.2224
  414MOL0     H55842   4.920   4.969   4.990 -1.7682 -0.5151  1.7215
  414MOL0     H55843   4.885   4.908   4.825 -1.6224  0.5888  0.5392
  414MOL0     H55844   4.861   4.736   5.081 -2.4679 -0.7318  0.3611
  414MOL0     H55845   4.810   4.694   4.915 -1.1112 -0.4074  0.5472
  414MOL0     H55846   4.645   4.870   4.945 -0.2851 -1.4235 -1.2359
  414MOL0     H55847   4.717   4.919   5.104 -0.6448  0.0516 -0.9471
  414MOL0     H55848   4.665   4.712   5.206  1.8504 -1.0370 -2.4646
  414MOL0     H55849   4.600   4.653   5.052 -1.1158  0.2669 -0.8778
  414MOL0     H55850   4.252   4.850   5.034 -0.3885  1.0606  1.8620
  414MOL0     H55851   4.013   4.619   4.913 -0.3078  0.2780 -0.1181
  414MOL0     H55852   3.941   4.670   5.068 -1.4314  1.5474  0.1453
  414MOL0     H55853   4.022   4.790   4.976  3.7794  0.9711  1.8681
  414MOL0     H55854   3.916   4.337   5.365  4.5127  0.2171 -1.3363
  414MOL0     H55855   3.751   4.193   5.451  0.6495 -1.1865  0.3580
  414MOL0     H55856   3.724   3.919   5.606 -0.8519 -1.6869  0.9582
  414MOL0     H55857   3.608   4.019   5.518 -4.4737 -2.0122  0.9386
  414MOL0     H55858   3.577   3.724   5.491 -2.1792  0.3820 -0.6117
  414MOL0     H55859   3.503   3.832   5.624 -1.2341  5.2609 -1.0690
  414MOL0     H55860   3.448   3.792   5.330 -2.1206 -3.6195  1.5533
  414MOL0     H55861   3.429   3.959   5.396 -0.4524 -0.1535 -0.5436
  414MOL0     H55862   3.294   3.721   5.531  1.3617 -0.4307 -0.7509
  414MOL0     H55863   3.248   3.888   5.527 -1.2749 -1.3469  2.0615
  414MOL0     H55864   3.256   3.685   5.292 -0.8828 -0.0721 -0.3793
  414MOL0     H55865   3.187   3.845   5.269 -0.1573  1.5058  1.4713
  414MOL0     H55866   3.072   3.668   5.490 -0.8997  1.4831  1.6667
  414MOL0     H55867   3.020   3.823   5.435  1.4600  1.0844  0.2923
  414MOL0     H55868   3.019   3.622   5.222 -0.3818 -0.2732 -0.0458
  414MOL0     H55869   2.913   3.770   5.259 -2.7848 -1.0273  1.4896
  414MOL0     H55870   2.787   3.596   5.402 -0.3216  1.0874 -0.3924
  414MOL0     H55871   2.921   3.488   5.379 -0.7172 -0.7445  1.3091
  414MOL0     H55872   3.951   3.870   5.264  2.1745  0.2912  1.4874
  414MOL0     H55873   4.081   4.019   5.119 -1.6402 -0.8977 -1.0972
  414MOL0     H55874   4.316   4.414   5.262  1.8970  0.8702 -0.6258
  414MOL0     H55875   4.500   4.578   5.258 -2.2326 -1.5468  5.4182
  414MOL0     H55876   5.146   4.972   5.605 -0.9865 -2.8614 -2.2575
  414MOL0     H55877   4.936   4.880   5.682 -3.4865  1.7951  4.2908
  414MOL0     H55878   4.675   4.667   5.880  1.9694  1.0662 -1.6090
  414MOL0     H55879   4.460   4.557   5.879  0.5790 -1.6241 -1.2714
  414MOL0     H55880   4.435   4.115   5.892 -2.4221  1.0157 -0.9602
  414MOL0     H55881   4.452   4.129   6.062  0.2735  1.7089 -0.2884
  414MOL0     H55882   4.192   4.191   5.918 -0.1617 -1.5977 -0.7757
  414MOL0     H55883   4.219   4.228   6.091 -0.9258  0.3841 -0.0790
  414MOL0     H55884   4.260   3.954   5.983  1.6025 -0.0824  1.5162
  414MOL0     H55885   4.095   4.011   6.006  0.4238 -2.6363 -0.3888
  414MOL0     H55886   4.293   4.035   6.237  0.1724 -1.6467  1.3759
  414MOL0     H55887   4.212   3.882   6.210 -1.6909 -0.4679  0.7555
  414MOL0     H55888   3.923   4.076   6.408  1.9346 -1.5838  2.3470
  414MOL0     H55889   4.653   4.188   6.002 -0.2926  0.5458  0.7583
  414MOL0     H55890   4.877   4.299   5.954 -0.8653 -0.8529  0.0813
  415MOL0     O55891   0.776   9.395   3.142 -0.0366 -0.0150 -0.3848
  415MOL0     C55892   0.895   9.408   3.170 -0.0974 -0.0914  0.5133
  415MOL0     O55893   0.941   9.506   3.236 -0.4556 -0.2910 -0.4359
  415MOL0     C55894   0.876   9.583   3.326 -0.0278  0.5654  0.6787
  415MOL0     C55895   0.838   9.711   3.300  0.2007  0.6646  0.3039
  415MOL0     C55896   0.767   9.785   3.387  0.3127 -0.5334  0.0186
  415MOL0     C55897   0.744   9.735   3.520  1.5459  0.2383 -0.2982
  415MOL0     O55898   0.677   9.802   3.618 -0.1270  0.7350  0.5011
  415MOL0     C55899   0.634   9.724   3.729  0.0978  0.2708 -0.2037
  415MOL0     C55900   0.548   9.804   3.825  0.1075  0.9496 -0.4003
  415MOL0     C55901   0.506   9.719   3.943 -0.2638  0.0097  0.3563
  415MOL0     C55902   0.398   9.796   4.022  0.5957  0.2227  0.1232
  415MOL0     C55903   0.272   9.854   3.954  0.2681  0.0189 -0.1059
  415MOL0     C55904   0.195   9.751   3.864  0.5244 -0.3920  0.4379
  415MOL0     C55905   0.056   9.797   3.840 -0.5405 -0.2452 -0.1249
  415MOL0     C55906   0.043   9.915   3.735  0.4663 -0.0173 -0.4127
  415MOL0     N55907   0.069   9.861   3.602 -0.1794  0.3985 -0.0820
  415MOL0     C55908   0.158   9.923   3.509 -0.0563 -0.9549 -0.6477
  415MOL0     C55909   0.133   9.869   3.390 -0.9816  0.2773  0.4804
  415MOL0     C55910   0.215   9.893   3.264  0.0883  0.8960 -0.0337
  415MOL0     C55911   0.292   9.775   3.214  0.7256  0.2032  0.1347
  415MOL0     C55912   0.405   9.734   3.304  0.5675 -0.8156  1.2258
  415MOL0     C55913   0.460   9.605   3.253  0.3567 -0.2718 -0.4382
  415MOL0     O55914   0.393   9.486   3.273 -0.2046 -0.2527  0.4977
  415MOL0     C55915   0.366   9.444   3.403 -0.0112 -0.2580 -0.0266
  415MOL0     C55916   0.243   9.464   3.464  0.2251 -0.4606 -0.5375
  415MOL0     C55917   0.215   9.423   3.597  0.1316  0.4564 -0.5454
  415MOL0     C55918   0.079   9.445   3.643 -0.1302  1.1012  0.3199
  415MOL0     C55919   0.310   9.350   3.672  0.3695  0.0032 -0.7080
  415MOL0     C55920   0.290   9.289   3.805 -0.3951 -0.3246  0.5447
  415MOL0     O55921   0.404   9.235   3.864 -0.6905 -0.4386  0.0045
  415MOL0     C55922   0.389   9.168   3.984  0.9264 -0.3422  0.4097
  415MOL0     C55923   0.323   9.230   4.096 -1.0474 -0.0200  0.3984
  415MOL0     C55924   0.305   9.171   4.220 -0.0969  0.2464 -0.2465
  415MOL0     C55925   0.376   9.042   4.239  0.8014 -0.1481  0.2424
  415MOL0     O55926   0.384   8.969   4.358 -0.4720 -0.2195  0.5664
  415MOL0     C55927   0.288   8.996   4.459 -0.7749  0.5925 -0.0859
  415MOL0     C55928   0.302   8.866   4.531 -0.7107  0.2631  0.4863
  415MOL0     C55929   0.300   8.879   4.686  0.2392 -0.4302 -0.1219
  415MOL0     C55930   0.160   8.940   4.729 -0.5645  0.7584  0.5261
  415MOL0     C55931   0.160   8.954   4.879  0.4527  0.7304 -0.4972
  415MOL0     C55932   0.163   8.817   4.955  0.7433 -0.1463 -0.9808
  415MOL0     C55933   0.110   8.840   5.097 -0.2158  0.5527  0.2180
  415MOL0     C55934   0.073   8.712   5.170 -0.0700  0.1106  0.5984
  415MOL0    Cl55935  -0.031   8.610   5.055 -0.1899  0.5472 -0.2127
  415MOL0     C55936   0.455   8.992   4.129  0.9867 -0.3043  0.3679
  415MOL0     C55937   0.450   9.049   4.001  0.0177 -1.4434 -0.2251
  415MOL0     O55938   0.175   9.282   3.839  0.2090  0.0326  0.3715
  415MOL0     C55939   0.442   9.351   3.617 -0.0751 -0.0641  0.2623
  415MOL0     C55940   0.464   9.382   3.485  0.2892  0.5342 -0.2433
  415MOL0     N55941   0.038   9.767   3.407  0.2997 -0.3627  0.5333
  415MOL0     N55942   0.001   9.765   3.526  0.1813 -0.5120 -0.1436
  415MOL0     C55943   0.770   9.596   3.536  0.2100 -0.3414  0.1438
  415MOL0     C55944   0.833   9.520   3.447  0.2873 -0.5476  0.1804
  415MOL0     C55945   0.986   9.316   3.110  0.6756  0.3992  0.1855
  415MOL0     C55946   1.122   9.309   3.135 -0.6595  1.1568 -0.2436
  415MOL0     C55947   1.208   9.217   3.070  0.4517  0.3793 -0.5023
  415MOL0     C55948   1.160   9.133   2.968  0.4307  0.4072 -0.1894
  415MOL0     O55949   1.254   9.046   2.915  0.3546  0.5041  0.1135
  415MOL0     C55950   1.233   8.999   2.777 -0.0153  0.4149 -0.1877
  415MOL0     C55951   1.226   9.098   2.670 -0.3710 -0.4681 -0.0597
  415MOL0     C55952   1.334   9.203   2.676 -0.3306 -0.2244 -0.1468
  415MOL0     C55953   1.320   9.300   2.555 -0.1329  0.7787  0.0977
  415MOL0     C55954   1.187   9.360   2.554  0.1351 -0.4693 -0.8730
  415MOL0     C55955   1.075   9.407   2.564 -0.1711  0.7254  0.5190
  415MOL0     C55956   1.025   9.152   2.929  0.3103 -0.3570  0.4553
  415MOL0     C55957   0.937   9.242   3.002 -0.0919 -0.4053 -0.2167
  415MOL0     H55958   0.884   9.750   3.210  0.1750 -1.6745 -0.7938
  415MOL0     H55959   0.725   9.880   3.359 -1.9319 -0.8113  2.0980
  415MOL0     H55960   0.570   9.641   3.697 -3.3791  2.6468  0.0667
  415MOL0     H55961   0.727   9.690   3.775 -1.3432  0.0178  2.7281
  415MOL0     H55962   0.603   9.892   3.862 -1.1307  2.5100 -2.0838
  415MOL0     H55963   0.458   9.847   3.781 -0.3330 -2.2040 -2.9364
  415MOL0     H55964   0.481   9.621   3.900  3.1103 -1.3416  1.1486
  415MOL0     H55965   0.591   9.698   4.009 -0.6255 -1.8482  0.2901
  415MOL0     H55966   0.361   9.712   4.081  0.0713 -1.2056 -2.1057
  415MOL0     H55967   0.448   9.876   4.076  2.4805 -2.1932  2.2064
  415MOL0     H55968   0.208   9.888   4.035  1.0013  1.2495 -0.0270
  415MOL0     H55969   0.294   9.941   3.892 -2.8529  1.0625  0.0914
  415MOL0     H55970   0.238   9.752   3.764  1.0841 -0.4942  0.6746
  415MOL0     H55971   0.206   9.656   3.916 -0.4410  0.0559  1.5134
  415MOL0     H55972   0.004   9.718   3.785  1.1900 -2.1248  0.8098
  415MOL0     H55973   0.001   9.821   3.931 -1.5310 -1.3975 -0.3996
  415MOL0     H55974   0.105   9.998   3.769  3.1333 -2.0477  0.0547
  415MOL0     H55975  -0.056   9.960   3.730 -0.8087 -2.5501  0.3543
  415MOL0     H55976   0.229   9.994   3.551 -0.8847 -0.1111 -0.6621
  415MOL0     H55977   0.156   9.928   3.179  1.3105 -0.5449 -1.5616
  415MOL0     H55978   0.292   9.967   3.287  1.7262 -1.0595  1.1281
  415MOL0     H55979   0.331   9.799   3.115  3.2014 -0.4202  0.8883
  415MOL0     H55980   0.218   9.699   3.189  0.6176  1.5353 -4.6046
  415MOL0     H55981   0.368   9.711   3.404 -0.7671 -0.7659  0.7594
  415MOL0     H55982   0.482   9.812   3.309  0.2031 -0.4868  1.7320
  415MOL0     H55983   0.556   9.589   3.303  1.1017  0.5928 -1.5384
  415MOL0     H55984   0.491   9.617   3.149 -1.2791  1.4145 -0.7839
  415MOL0     H55985   0.162   9.513   3.412 -1.5305 -3.6982 -1.1377
  415MOL0     H55986   0.060   9.490   3.741 -0.8346  1.1815  0.1503
  415MOL0     H55987   0.027   9.517   3.579 -0.6388  2.8029  2.5384
  415MOL0     H55988   0.026   9.349   3.647  3.5458 -1.2037 -0.9185
  415MOL0     H55989   0.279   9.329   4.086 -0.3774  0.1259 -1.4791
  415MOL0     H55990   0.236   9.228   4.282  1.2753  0.7130  0.9057
  415MOL0     H55991   0.318   9.087   4.511 -2.3052  1.6902 -1.0573
  415MOL0     H55992   0.190   9.027   4.422  0.1480  1.9233 -1.5029
  415MOL0     H55993   0.216   8.808   4.497 -0.8418  0.2850  0.7734
  415MOL0     H55994   0.392   8.809   4.510 -0.3184  0.5931  1.2106
  415MOL0     H55995   0.382   8.942   4.722 -0.6342 -0.2970  1.7568
  415MOL0     H55996   0.307   8.775   4.719 -3.5470 -0.8857 -0.3394
  415MOL0     H55997   0.152   9.034   4.674 -1.5151 -0.1931 -1.0893
  415MOL0     H55998   0.080   8.881   4.682  1.2150 -1.6041  0.2692
  415MOL0     H55999   0.065   9.000   4.905 -0.0030  0.2669 -1.3060
  415MOL0     H56000   0.243   9.022   4.901  0.6155  0.4121 -0.1320
  415MOL0     H56001   0.087   8.754   4.907  0.5517  0.0553 -0.9442
  415MOL0     H56002   0.266   8.781   4.946 -0.1512 -3.0426 -0.8173
  415MOL0     H56003   0.021   8.903   5.090 -1.5094 -1.1260  0.9826
  415MOL0     H56004   0.177   8.902   5.158  0.4161 -0.3136  0.4283
  415MOL0     H56005   0.009   8.722   5.258 -2.0852 -0.2017 -0.7645
  415MOL0     H56006   0.161   8.652   5.195  0.2157  0.8047  1.2668
  415MOL0     H56007   0.528   8.913   4.135 -0.0196 -1.1601  3.2256
  415MOL0     H56008   0.505   8.998   3.923  0.5625 -0.9415 -0.1653
  415MOL0     H56009   0.522   9.322   3.684  0.1157  0.1157  0.1148
  415MOL0     H56010   0.562   9.355   3.446  1.0125  1.6273  0.7565
  415MOL0     H56011   0.736   9.541   3.624  3.4139 -1.3572  0.9007
  415MOL0     H56012   0.853   9.418   3.480 -0.4917 -0.6519  0.3424
  415MOL0     H56013   1.181   9.369   3.204 -0.1305  1.1203 -0.6549
  415MOL0     H56014   1.313   9.223   3.097  0.1336 -1.4747  1.4043
  415MOL0     H56015   1.313   8.929   2.750 -1.0709 -1.4483  1.3022
  415MOL0     H56016   1.145   8.936   2.762  1.0937 -1.1115 -0.4841
  415MOL0     H56017   1.125   9.140   2.681  0.1547  0.1625  3.7546
  415MOL0     H56018   1.238   9.047   2.574 -1.5199  0.4714 -0.7416
  415MOL0     H56019   1.435   9.161   2.679 -0.9958 -1.9634 -0.6091
  415MOL0     H56020   1.310   9.260   2.766  0.0061  0.2844 -0.3751
  415MOL0     H56021   1.335   9.251   2.459  0.3223 -0.4231  0.7611
  415MOL0     H56022   1.394   9.381   2.557  1.3858 -0.5063 -1.3413
  415MOL0     H56023   0.981   9.459   2.568  0.1379  1.3053  0.2344
  415MOL0     H56024   0.982   9.087   2.854 -1.0974 -4.2013  4.1591
  415MOL0     H56025   0.832   9.245   2.977 -0.3134 -0.5460  0.6613
  416MOL0     O56026   8.698  10.208   6.504 -0.3796  0.2501 -0.8614
  416MOL0     C56027   8.656  10.149   6.403 -0.3779  0.5313 -0.3779
  416MOL0     O56028   8.720  10.138   6.283  0.9765  0.5928  0.5076
  416MOL0     C56029   8.842  10.194   6.271 -1.0079  0.6649  0.1993
  416MOL0     C56030   8.856  10.315   6.223  0.7146  0.2185  0.3829
  416MOL0     C56031   8.983  10.377   6.204  0.5907 -0.5003 -0.2542
  416MOL0     C56032   9.097  10.301   6.216 -0.2307  0.3754  1.0456
  416MOL0     O56033   9.218  10.351   6.173 -0.6235  0.5203 -0.4602
  416MOL0     C56034   9.274  10.447   6.258  1.7511  0.4087  0.2178
  416MOL0     C56035   9.393  10.380   6.328 -0.3500  0.0645 -0.1406
  416MOL0     C56036   9.494  10.321   6.224  0.7950 -0.1473 -0.2487
  416MOL0     C56037   9.642  10.320   6.275  0.1288 -0.3695 -0.6978
  416MOL0     C56038   9.754  10.264   6.185 -0.5037 -0.4981 -0.5564
  416MOL0     C56039   9.722  10.123   6.151 -0.5431 -0.4230 -0.5136
  416MOL0     C56040   9.829  10.061   6.056  0.5001  0.2673 -0.7433
  416MOL0     C56041   9.842   9.907   6.068  0.0764  1.0285 -0.0212
  416MOL0     N56042   9.714   9.830   6.062  0.3030 -0.9725 -0.4948
  416MOL0     C56043   9.601   9.863   5.994 -0.1926  0.5153 -0.6940
  416MOL0     C56044   9.508   9.761   6.022 -0.0072  0.5110 -0.1407
  416MOL0     C56045   9.364   9.760   5.974 -0.3739 -0.1751 -0.0947
  416MOL0     C56046   9.283   9.850   6.070  0.3563  0.6046 -0.2759
  416MOL0     C56047   9.199   9.781   6.179  0.3561 -0.2011 -0.1774
  416MOL0     C56048   9.142   9.640   6.168 -0.0761  0.7474 -0.3384
  416MOL0     O56049   9.100   9.632   6.026 -0.6096 -0.0048 -0.7062
  416MOL0     C56050   8.987   9.681   5.975 -0.5350  0.0158  1.0581
  416MOL0     C56051   8.893   9.760   6.048  0.1871  0.3841 -0.9250
  416MOL0     C56052   8.779   9.812   5.980 -1.0260  0.0011  0.1913
  416MOL0     C56053   8.688   9.894   6.066 -0.7287 -0.2602 -0.0081
  416MOL0     C56054   8.757   9.788   5.846 -0.2902  0.6193  0.4068
  416MOL0     C56055   8.654   9.850   5.755 -0.8921  0.2006  0.1919
  416MOL0     O56056   8.670   9.849   5.621 -0.4365  0.1769  0.8698
  416MOL0     C56057   8.593   9.924   5.540  0.2642  0.0794  0.7151
  416MOL0     C56058   8.458   9.893   5.512  0.6625 -0.2188  0.4194
  416MOL0     C56059   8.386   9.980   5.431 -0.7510  0.6061  0.7148
  416MOL0     C56060   8.443  10.081   5.356 -1.1274 -0.5091  0.1657
  416MOL0     O56061   8.356  10.147   5.266 -0.7022 -0.7960 -1.2120
  416MOL0     C56062   8.412  10.257   5.205 -0.0467 -0.7976 -0.4411
  416MOL0     C56063   8.392  10.384   5.297  0.0419 -0.3298  0.0048
  416MOL0     C56064   8.432  10.518   5.240 -1.3074 -0.2841 -0.5898
  416MOL0     C56065   8.387  10.552   5.094 -0.1925 -0.1312 -1.2081
  416MOL0     C56066   8.240  10.599   5.087 -0.1384 -0.3258  0.3190
  416MOL0     C56067   8.193  10.604   4.937 -0.9714  0.1473  0.2971
  416MOL0     C56068   8.265  10.705   4.855  0.0705 -0.9436  0.6628
  416MOL0     C56069   8.209  10.727   4.711  0.3382  0.2367 -0.5999
  416MOL0    Cl56070   8.166  10.576   4.620 -0.2726  0.0490  0.3584
  416MOL0     C56071   8.579  10.103   5.384 -0.3592 -0.7938 -0.4574
  416MOL0     C56072   8.649  10.022   5.471  0.3474  0.1052  0.2936
  416MOL0     O56073   8.561   9.903   5.816  0.1808 -0.8269  0.6408
  416MOL0     C56074   8.861   9.722   5.778 -0.8518 -0.3599  0.2862
  416MOL0     C56075   8.973   9.668   5.840  0.0623  0.4473 -0.4499
  416MOL0     N56076   9.583   9.664   6.095  0.1709 -0.1873 -0.1959
  416MOL0     N56077   9.706   9.700   6.107 -0.3331 -0.1542 -0.2319
  416MOL0     C56078   9.084  10.169   6.262 -0.4155  0.6072 -0.5846
  416MOL0     C56079   8.953  10.118   6.301 -1.1572 -0.1421  0.6378
  416MOL0     C56080   8.526  10.073   6.412 -0.5818  0.2162  0.7709
  416MOL0     C56081   8.486  10.010   6.530  0.2747  0.6167 -0.7716
  416MOL0     C56082   8.380   9.921   6.525 -0.4634  0.3460  0.0974
  416MOL0     C56083   8.320   9.883   6.408 -1.1179  0.6452  0.5142
  416MOL0     O56084   8.221   9.788   6.406  1.0115  0.2650 -0.0277
  416MOL0     C56085   8.127   9.772   6.296  0.6471 -0.0915  0.5159
  416MOL0     C56086   7.999   9.729   6.370  0.3498 -0.4579 -0.4342
  416MOL0     C56087   7.880   9.698   6.287  0.0003  0.1599  0.7770
  416MOL0     C56088   7.744   9.712   6.366  0.2968  0.0017  0.9456
  416MOL0     C56089   7.644   9.627   6.292 -0.0869 -0.8525  0.1539
  416MOL0     C56090   7.552   9.567   6.244 -0.0804 -0.1880  0.1433
  416MOL0     C56091   8.371   9.929   6.287 -1.4909 -0.0953  0.4200
  416MOL0     C56092   8.460  10.035   6.290  0.3059 -0.7607 -0.5327
  416MOL0     H56093   8.775  10.380   6.193  0.1195 -0.6714  0.0293
  416MOL0     H56094   8.992  10.477   6.163 -1.6703 -0.6011 -1.1434
  416MOL0     H56095   9.300  10.538   6.204 -0.6240 -0.3100 -2.3729
  416MOL0     H56096   9.205  10.467   6.341  1.1918 -2.1830  0.4628
  416MOL0     H56097   9.446  10.449   6.394 -0.5607  0.3864 -0.3107
  416MOL0     H56098   9.350  10.296   6.384 -0.3495 -0.9485 -1.6072
  416MOL0     H56099   9.449  10.222   6.208 -0.5410  0.4876 -0.5900
  416MOL0     H56100   9.477  10.381   6.133 -3.0915 -2.8205 -1.5489
  416MOL0     H56101   9.668  10.422   6.306  3.3602 -0.6868 -1.9234
  416MOL0     H56102   9.649  10.264   6.369 -2.9225 -2.6063 -1.6609
  416MOL0     H56103   9.755  10.330   6.098 -1.8993  1.6136  0.9337
  416MOL0     H56104   9.848  10.264   6.242  0.2057 -2.6899 -1.6144
  416MOL0     H56105   9.730  10.065   6.244 -0.8990  1.3267  0.6451
  416MOL0     H56106   9.626  10.104   6.102 -1.2559  1.5322  0.0705
  416MOL0     H56107   9.808  10.082   5.951 -0.3553 -0.9021 -0.8230
  416MOL0     H56108   9.924  10.112   6.075  0.1028  0.3273  1.3823
  416MOL0     H56109   9.889   9.881   6.163 -1.2258 -0.1945  0.3244
  416MOL0     H56110   9.918   9.865   6.001 -0.3475 -0.5725  0.4618
  416MOL0     H56111   9.579   9.956   5.943  0.2465  1.6004  1.0399
  416MOL0     H56112   9.352   9.799   5.873  2.5085 -1.7929 -1.1813
  416MOL0     H56113   9.335   9.655   5.966  0.6754 -0.4339 -0.7150
  416MOL0     H56114   9.209   9.897   6.005  1.1400  0.8866 -0.9704
  416MOL0     H56115   9.343   9.924   6.125 -1.6323  1.4825  0.8675
  416MOL0     H56116   9.110   9.845   6.184 -0.3895 -1.0388 -1.9052
  416MOL0     H56117   9.258   9.796   6.270 -0.4958  4.7263 -0.1388
  416MOL0     H56118   9.053   9.631   6.231  0.2292 -1.6378 -0.1877
  416MOL0     H56119   9.208   9.558   6.196 -0.6878  0.9985  2.0942
  416MOL0     H56120   8.910   9.773   6.155  2.1567  1.6557 -1.3464
  416MOL0     H56121   8.701   9.997   6.032  0.6851 -0.6592 -0.7439
  416MOL0     H56122   8.583   9.865   6.060 -1.1300  0.9887  0.6268
  416MOL0     H56123   8.722   9.889   6.170  1.5686  1.8686 -0.5548
  416MOL0     H56124   8.408   9.805   5.551  2.4049 -1.7357 -0.5914
  416MOL0     H56125   8.286   9.946   5.408 -0.2203  0.2765 -1.3217
  416MOL0     H56126   8.518  10.254   5.176  0.1476  0.3479  0.0768
  416MOL0     H56127   8.341  10.283   5.126 -0.7567  1.6370  0.8787
  416MOL0     H56128   8.285  10.385   5.318 -0.1865 -1.1515 -1.0177
  416MOL0     H56129   8.447  10.366   5.389  0.6492  4.4747  0.8225
  416MOL0     H56130   8.541  10.529   5.238 -1.3130 -0.1500 -2.5029
  416MOL0     H56131   8.390  10.587   5.314  1.3139 -0.6203  1.3521
  416MOL0     H56132   8.452  10.636   5.068 -1.7056  1.5689  0.2654
  416MOL0     H56133   8.397  10.467   5.025  0.4211  0.0202 -1.3105
  416MOL0     H56134   8.238  10.701   5.127 -1.7410 -1.2725  2.9025
  416MOL0     H56135   8.171  10.531   5.137  0.2691 -2.5412 -1.9360
  416MOL0     H56136   8.211  10.500   4.908 -0.3608  0.4057 -0.2924
  416MOL0     H56137   8.087  10.623   4.918 -1.0070 -2.3190 -2.9575
  416MOL0     H56138   8.365  10.671   4.827  0.1601 -1.8298  1.9755
  416MOL0     H56139   8.287  10.800   4.904  3.0442 -0.5682 -1.1597
  416MOL0     H56140   8.295  10.783   4.674  0.3919  0.1697 -0.5741
  416MOL0     H56141   8.116  10.785   4.715  1.0137  1.3604  3.7163
  416MOL0     H56142   8.635  10.186   5.343 -0.6001 -0.0311  0.7200
  416MOL0     H56143   8.753  10.045   5.494  0.7476 -0.6189 -0.7180
  416MOL0     H56144   8.864   9.700   5.672  0.8770 -1.0837  0.4623
  416MOL0     H56145   9.050   9.622   5.778 -1.1723 -2.1271 -0.2098
  416MOL0     H56146   9.167  10.099   6.264 -1.4177 -0.6149 -0.7168
  416MOL0     H56147   8.936  10.020   6.344 -1.3933 -0.6849 -0.6253
  416MOL0     H56148   8.551  10.033   6.614 -0.1786 -0.9691  0.0651
  416MOL0     H56149   8.331   9.884   6.615 -2.8641 -0.5111 -1.4893
  416MOL0     H56150   8.109   9.861   6.236 -1.0536 -0.2148  0.8031
  416MOL0     H56151   8.156   9.679   6.245  2.4752 -0.3596  1.9309
  416MOL0     H56152   7.968   9.814   6.431  1.3222  1.3944 -2.3562
  416MOL0     H56153   8.022   9.654   6.446  2.8281  4.2117  4.0319
  416MOL0     H56154   7.893   9.595   6.255  3.5541  1.1367 -1.4120
  416MOL0     H56155   7.875   9.759   6.196 -2.5907  2.5683  2.3511
  416MOL0     H56156   7.707   9.814   6.352 -3.9301 -1.6252 -2.1072
  416MOL0     H56157   7.756   9.678   6.469  0.4017 -0.6578  0.7251
  416MOL0     H56158   7.473   9.505   6.208 -0.7839 -2.2546  4.6138
  416MOL0     H56159   8.327   9.904   6.191  1.4568  2.4876 -1.8236
  416MOL0     H56160   8.494  10.077   6.196 -0.7712  1.0137 -0.1856
  417MOL0     O56161   3.765   8.279   4.577  0.1112  0.1215 -0.3362
  417MOL0     C56162   3.744   8.398   4.613 -0.4610  0.3606  0.6925
  417MOL0     O56163   3.813   8.508   4.557 -0.3025 -0.3082  0.1271
  417MOL0     C56164   3.917   8.497   4.475 -0.6003 -0.3858 -0.3639
  417MOL0     C56165   4.050   8.497   4.524  0.6707  0.9120  0.0088
  417MOL0     C56166   4.157   8.502   4.429  0.0061  0.2450 -0.0613
  417MOL0     C56167   4.131   8.537   4.299  0.0553  0.0539  0.3256
  417MOL0     O56168   4.241   8.548   4.217 -0.0444 -0.4641  0.2377
  417MOL0     C56169   4.226   8.604   4.081 -0.4232  0.0155 -0.7022
  417MOL0     C56170   4.261   8.483   3.981  0.6505 -0.2406 -0.7334
  417MOL0     C56171   4.401   8.492   3.929  0.3888 -0.1011  0.7631
  417MOL0     C56172   4.438   8.363   3.859  0.1168 -0.4539  0.0766
  417MOL0     C56173   4.569   8.366   3.776  0.7454  0.2212 -0.7218
  417MOL0     C56174   4.645   8.232   3.775  0.9192 -0.7328 -0.1719
  417MOL0     C56175   4.571   8.114   3.697  0.7846 -0.3348 -1.0021
  417MOL0     C56176   4.658   7.981   3.692 -0.5918  0.1842  0.8408
  417MOL0     N56177   4.576   7.865   3.644 -0.5441  0.4059  0.6618
  417MOL0     C56178   4.629   7.751   3.579  0.3661  0.8929  0.9476
  417MOL0     C56179   4.531   7.658   3.578 -0.1827  0.0951 -0.0353
  417MOL0     C56180   4.528   7.524   3.502 -0.7168 -0.0224  0.0670
  417MOL0     C56181   4.465   7.534   3.369  0.1116 -0.9000  0.5049
  417MOL0     C56182   4.564   7.583   3.263 -0.0280 -0.3529  0.2599
  417MOL0     C56183   4.496   7.610   3.133 -0.7783  0.1510  0.1419
  417MOL0     O56184   4.367   7.678   3.139  0.2288 -0.5915  0.0866
  417MOL0     C56185   4.339   7.731   3.017  0.3967  0.0162 -0.6429
  417MOL0     C56186   4.258   7.849   3.019  0.3666  0.4682  0.1723
  417MOL0     C56187   4.233   7.908   2.889  0.6742 -0.6692 -0.4776
  417MOL0     C56188   4.162   8.034   2.897 -0.1152  0.0854 -0.2814
  417MOL0     C56189   4.255   7.841   2.767 -0.3492  0.1609 -0.4487
  417MOL0     C56190   4.206   7.879   2.628 -0.1466 -0.7161 -0.4724
  417MOL0     O56191   4.254   7.801   2.529  0.4986 -0.0143  0.7398
  417MOL0     C56192   4.246   7.837   2.393  0.6080  0.9076 -0.3649
  417MOL0     C56193   4.246   7.966   2.341 -0.8785  0.0361 -0.5361
  417MOL0     C56194   4.237   7.980   2.202  0.2549  0.7161  0.6220
  417MOL0     C56195   4.214   7.875   2.115  0.8603 -0.0771  0.4165
  417MOL0     O56196   4.179   7.893   1.979  0.3179 -0.1021  0.1138
  417MOL0     C56197   4.224   8.006   1.912 -1.0259  0.3203  0.1365
  417MOL0     C56198   4.117   8.114   1.910 -0.6124  0.2008 -0.4181
  417MOL0     C56199   3.985   8.076   1.843  0.1828  0.5085  0.4776
  417MOL0     C56200   3.853   8.137   1.900 -0.9010 -0.7761  0.2327
  417MOL0     C56201   3.738   8.104   1.805  0.7693 -0.0062 -0.3457
  417MOL0     C56202   3.683   7.959   1.824 -0.5164  1.0694  0.2246
  417MOL0     C56203   3.608   7.897   1.701 -0.5630 -0.1986 -0.2742
  417MOL0     C56204   3.557   7.760   1.732 -0.3652  0.5179  0.0246
  417MOL0    Cl56205   3.480   7.712   1.580  0.0505 -0.0919  0.0049
  417MOL0     C56206   4.186   7.753   2.173 -0.5861  0.1186  0.0469
  417MOL0     C56207   4.213   7.730   2.307 -0.6189  0.2297 -0.2968
  417MOL0     O56208   4.129   7.980   2.616 -1.1256  0.7212  0.1909
  417MOL0     C56209   4.316   7.710   2.776  0.2832  0.0942 -0.0282
  417MOL0     C56210   4.361   7.660   2.895 -0.1743 -0.3670  0.2327
  417MOL0     N56211   4.424   7.704   3.652  0.2677 -0.0019  0.6542
  417MOL0     N56212   4.448   7.831   3.681 -0.0222  0.5291 -0.4072
  417MOL0     C56213   3.998   8.542   4.261 -0.6969 -0.2729  0.1772
  417MOL0     C56214   3.892   8.515   4.343  0.5048 -0.4274  0.5137
  417MOL0     C56215   3.637   8.433   4.711  0.6675  0.6445  0.8523
  417MOL0     C56216   3.569   8.333   4.784  1.2286 -0.7440 -0.4060
  417MOL0     C56217   3.478   8.373   4.890 -0.0672 -0.6855  0.5862
  417MOL0     C56218   3.449   8.506   4.917 -0.2089  0.1089 -0.0406
  417MOL0     O56219   3.352   8.529   5.012  0.1088 -0.2419 -0.1492
  417MOL0     C56220   3.260   8.640   4.973 -0.0838 -0.4888 -0.5882
  417MOL0     C56221   3.269   8.753   5.079  0.8356  0.4641  0.3887
  417MOL0     C56222   3.178   8.867   5.034 -0.4658 -0.5672  0.8674
  417MOL0     C56223   3.160   8.975   5.149  0.0453 -0.6265 -0.4461
  417MOL0     C56224   3.035   9.049   5.138  0.1425 -0.0614 -0.9207
  417MOL0     C56225   2.928   9.110   5.124  0.1298  0.2619  1.0821
  417MOL0     C56226   3.512   8.612   4.840  0.1946 -0.2445  0.2988
  417MOL0     C56227   3.612   8.569   4.742  0.9388 -1.0584  0.0536
  417MOL0     H56228   4.075   8.468   4.625  3.2451 -0.2518 -0.8750
  417MOL0     H56229   4.262   8.485   4.451 -0.0492 -0.0237 -0.0031
  417MOL0     H56230   4.121   8.628   4.062 -1.4747 -2.1840  1.7059
  417MOL0     H56231   4.295   8.684   4.052 -0.9189  1.2022  1.2050
  417MOL0     H56232   4.256   8.385   4.031 -0.1028 -0.3220 -0.9634
  417MOL0     H56233   4.182   8.489   3.906 -0.6067  1.8078  0.6710
  417MOL0     H56234   4.410   8.573   3.856  0.8231  1.1223  2.1110
  417MOL0     H56235   4.478   8.517   4.003  1.2937 -3.0002  0.9369
  417MOL0     H56236   4.452   8.289   3.939  0.8146 -3.2060 -2.3920
  417MOL0     H56237   4.356   8.315   3.805 -1.2255  0.9479  0.7997
  417MOL0     H56238   4.567   8.409   3.675  3.0341 -2.5343 -2.0966
  417MOL0     H56239   4.632   8.427   3.841  1.7778 -0.0953 -1.3854
  417MOL0     H56240   4.735   8.257   3.719 -0.8051  2.7350 -1.6636
  417MOL0     H56241   4.665   8.201   3.878  2.8384 -3.1389 -1.1674
  417MOL0     H56242   4.483   8.093   3.758 -0.2526  1.9339 -1.6308
  417MOL0     H56243   4.531   8.145   3.600 -2.0794  1.0237  0.5104
  417MOL0     H56244   4.678   7.962   3.798 -2.6013  1.7817  1.5701
  417MOL0     H56245   4.753   7.981   3.638 -0.2326 -4.0287  1.0763
  417MOL0     H56246   4.715   7.756   3.513  1.0911  2.9797  1.9579
  417MOL0     H56247   4.630   7.493   3.479 -2.0531 -3.3238 -2.2741
  417MOL0     H56248   4.473   7.445   3.553 -2.2951  2.2808  2.1570
  417MOL0     H56249   4.376   7.596   3.385  0.0867 -1.0821  1.0949
  417MOL0     H56250   4.421   7.439   3.338  0.0565 -0.6834 -0.0930
  417MOL0     H56251   4.650   7.517   3.251  2.2339  2.6047 -1.0162
  417MOL0     H56252   4.615   7.675   3.293  2.5110 -1.6234  0.1222
  417MOL0     H56253   4.501   7.513   3.083 -1.6162 -0.0295  0.3890
  417MOL0     H56254   4.558   7.679   3.074 -2.8190 -0.0421 -2.4030
  417MOL0     H56255   4.234   7.896   3.113  0.3353  0.1079  0.3464
  417MOL0     H56256   4.187   8.081   2.993 -0.2786 -1.3307  0.4801
  417MOL0     H56257   4.203   8.101   2.821  0.2970 -0.0769 -0.2052
  417MOL0     H56258   4.055   8.014   2.885 -0.3102 -3.8915  4.6060
  417MOL0     H56259   4.254   8.051   2.408  3.1585 -1.2407  0.9185
  417MOL0     H56260   4.224   8.082   2.164  0.7823 -0.4019 -2.9594
  417MOL0     H56261   4.321   8.038   1.950 -1.1534 -1.3081  1.9727
  417MOL0     H56262   4.243   7.976   1.808 -1.4572  2.1403 -0.5075
  417MOL0     H56263   4.089   8.151   2.009 -2.1269 -0.9775 -0.3722
  417MOL0     H56264   4.154   8.200   1.854  1.1294 -0.5535 -0.5059
  417MOL0     H56265   3.978   7.967   1.844 -0.2623  0.5383  1.0110
  417MOL0     H56266   3.993   8.103   1.737 -0.3169 -1.2498 -0.0354
  417MOL0     H56267   3.840   8.112   2.006 -0.3216  0.6396  0.6616
  417MOL0     H56268   3.854   8.246   1.894 -3.1687 -0.7838 -4.1580
  417MOL0     H56269   3.760   8.119   1.699 -0.8025 -0.0384 -0.6990
  417MOL0     H56270   3.647   8.164   1.816  0.1205 -0.8279 -0.9785
  417MOL0     H56271   3.760   7.885   1.844 -0.5683  0.5365 -1.3798
  417MOL0     H56272   3.616   7.944   1.909  0.0383  0.5102  0.5657
  417MOL0     H56273   3.674   7.899   1.614 -0.0789 -0.2285  0.0866
  417MOL0     H56274   3.522   7.960   1.681  1.1046  1.5462 -2.5139
  417MOL0     H56275   3.493   7.765   1.820  0.4639  1.1005  0.6050
  417MOL0     H56276   3.640   7.693   1.755 -2.0598 -1.8398 -0.3419
  417MOL0     H56277   4.148   7.675   2.108 -0.5112  1.8434 -2.1542
  417MOL0     H56278   4.203   7.626   2.338  0.5958  0.2898  0.3780
  417MOL0     H56279   4.328   7.646   2.689 -1.1976 -0.7208  0.3172
  417MOL0     H56280   4.414   7.565   2.891 -3.4899 -2.4756  1.9031
  417MOL0     H56281   3.972   8.561   4.158  0.7765  1.4132  0.0526
  417MOL0     H56282   3.794   8.517   4.296  0.5305 -1.4598  0.3893
  417MOL0     H56283   3.606   8.232   4.768  1.3360 -1.3444  2.8183
  417MOL0     H56284   3.459   8.299   4.968 -1.6851 -0.2187  0.6650
  417MOL0     H56285   3.279   8.671   4.870 -0.7279  0.3408 -0.4633
  417MOL0     H56286   3.157   8.605   4.984 -0.9529  1.8927 -0.7235
  417MOL0     H56287   3.372   8.787   5.096  0.1555  1.6320  2.5870
  417MOL0     H56288   3.228   8.714   5.173 -0.9032  0.5803 -0.2822
  417MOL0     H56289   3.082   8.828   4.998 -0.5766  0.4277  0.0164
  417MOL0     H56290   3.216   8.921   4.946 -4.2638  2.0760  0.6427
  417MOL0     H56291   3.243   9.042   5.175  0.5324 -2.0206  1.9700
  417MOL0     H56292   3.146   8.921   5.243 -4.3079 -0.9350 -1.0770
  417MOL0     H56293   2.840   9.163   5.095  2.4219  4.1088  0.5169
  417MOL0     H56294   3.494   8.712   4.878  2.0734 -0.3804  1.7343
  417MOL0     H56295   3.672   8.644   4.693 -0.4990  0.3392  0.3615
  418MOL0     O56296   5.199   6.631  11.058  0.0924  0.0581 -0.2667
  418MOL0     C56297   5.108   6.687  11.000 -0.7441  0.5149 -0.8208
  418MOL0     O56298   5.122   6.803  10.925 -0.2845  0.0983  1.1107
  418MOL0     C56299   5.232   6.884  10.916 -0.7714 -0.3019 -0.1274
  418MOL0     C56300   5.225   6.997  10.830  0.1392  0.1901 -0.1090
  418MOL0     C56301   5.330   7.088  10.821 -0.3549 -0.4783  0.8138
  418MOL0     C56302   5.445   7.067  10.892  0.2201  0.9961  0.3559
  418MOL0     O56303   5.553   7.142  10.859  0.2803 -0.0956  0.4767
  418MOL0     C56304   5.574   7.140  10.713  0.6279 -0.0869 -0.9825
  418MOL0     C56305   5.723   7.167  10.683  0.5729 -0.0357  0.2758
  418MOL0     C56306   5.730   7.156  10.531 -0.2910  1.1583  0.4370
  418MOL0     C56307   5.880   7.147  10.490  0.0349 -0.0944 -0.1194
  418MOL0     C56308   5.909   7.230  10.361  0.9228 -0.6048  0.7810
  418MOL0     C56309   5.914   7.383  10.395  0.6407  0.4154 -1.2359
  418MOL0     C56310   6.031   7.418  10.480 -0.4718 -0.5046  0.0807
  418MOL0     C56311   6.087   7.563  10.465  0.4060  0.7406 -0.4564
  418MOL0     N56312   6.172   7.591  10.341  0.5150  0.1288 -0.2081
  418MOL0     C56313   6.308   7.624  10.339  1.0993 -0.1688 -0.6711
  418MOL0     C56314   6.354   7.611  10.212 -0.2765 -0.0583  0.3625
  418MOL0     C56315   6.501   7.633  10.172 -0.7905 -0.2020 -0.1210
  418MOL0     C56316   6.604   7.597  10.280  0.0684  0.8915 -0.4974
  418MOL0     C56317   6.639   7.439  10.292  0.2502 -0.2755 -0.0452
  418MOL0     C56318   6.756   7.413  10.390  0.1070  0.2223  0.5325
  418MOL0     O56319   6.779   7.269  10.395 -0.1553 -0.1703 -0.3289
  418MOL0     C56320   6.897   7.224  10.454 -0.0934 -0.4424  0.5021
  418MOL0     C56321   6.884   7.094  10.493  0.0796 -0.6374 -0.9436
  418MOL0     C56322   6.973   7.026  10.572  0.1607 -0.5681 -0.1090
  418MOL0     C56323   6.956   6.882  10.593 -0.2993  1.4511  0.1191
  418MOL0     C56324   7.085   7.102  10.618 -0.6378  0.4008  0.3735
  418MOL0     C56325   7.203   7.053  10.698 -0.1811 -0.1658 -0.2443
  418MOL0     O56326   7.320   7.117  10.678 -0.3778 -0.4242  0.4420
  418MOL0     C56327   7.428   7.084  10.754  0.3093 -0.1220  0.0798
  418MOL0     C56328   7.524   6.985  10.724 -0.4293  0.4904  0.1247
  418MOL0     C56329   7.634   6.959  10.812  0.5385  0.2264  0.5065
  418MOL0     C56330   7.667   7.044  10.915  0.4409 -0.0721 -0.4614
  418MOL0     O56331   7.780   7.017  10.984 -1.0216 -0.3865  0.3426
  418MOL0     C56332   7.879   7.120  11.000 -0.9415  0.2468  0.7992
  418MOL0     C56333   8.030   7.067  10.994  1.0980 -0.3819 -0.8286
  418MOL0     C56334   8.118   7.192  11.022 -0.5144  0.4585  0.2021
  418MOL0     C56335   8.272   7.163  11.020  0.7234  0.2799  0.1931
  418MOL0     C56336   8.354   7.287  11.041  0.5960  0.1693  0.1620
  418MOL0     C56337   8.504   7.251  11.065  0.3547  0.7649 -0.3177
  418MOL0     C56338   8.582   7.371  11.090 -0.2980 -0.7839  0.5354
  418MOL0     C56339   8.728   7.352  11.090 -0.1023  0.4211  0.3984
  418MOL0    Cl56340   8.811   7.513  11.075 -0.6857 -0.0168  0.0391
  418MOL0     C56341   7.568   7.138  10.949 -0.5449 -0.1824  0.8495
  418MOL0     C56342   7.457   7.168  10.861  0.1520  0.2532  0.0945
  418MOL0     O56343   7.191   6.958  10.776  0.0674  0.5000 -0.1901
  418MOL0     C56344   7.098   7.234  10.575 -0.8221 -0.9072 -0.5694
  418MOL0     C56345   7.003   7.294  10.504 -0.7920 -0.7029 -0.8511
  418MOL0     N56346   6.255   7.565  10.137 -0.0339  0.3538 -0.0507
  418MOL0     N56347   6.143   7.557  10.211 -0.3336  0.1912 -0.6140
  418MOL0     C56348   5.461   6.951  10.971  0.0215  0.4650 -0.5190
  418MOL0     C56349   5.353   6.865  10.986  0.0300  0.6280 -0.2922
  418MOL0     C56350   4.979   6.620  10.992 -0.1227 -0.3942 -0.6190
  418MOL0     C56351   4.871   6.693  10.949 -0.4547  0.8209 -0.4945
  418MOL0     C56352   4.736   6.646  10.946 -0.3747  0.4266 -0.4081
  418MOL0     C56353   4.713   6.521  11.006 -0.1693 -0.8332  0.3774
  418MOL0     O56354   4.597   6.467  11.051  0.3751  0.8846 -0.5359
  418MOL0     C56355   4.473   6.530  11.026  0.4243 -1.2955  0.3944
  418MOL0     C56356   4.367   6.442  11.065  0.8224  0.1587  1.3764
  418MOL0     C56357   4.226   6.495  11.055  0.3243  0.5273 -0.1335
  418MOL0     C56358   4.137   6.378  11.085  0.2429 -0.6706 -0.0390
  418MOL0     C56359   3.998   6.421  11.104 -1.3506 -0.7207  0.2842
  418MOL0     C56360   3.885   6.441  11.128  0.0495 -0.8837 -0.6862
  418MOL0     C56361   4.824   6.443  11.038  0.8183 -0.0265  0.2261
  418MOL0     C56362   4.959   6.490  11.039  0.8425  0.0536 -0.0021
  418MOL0     H56363   5.130   7.020  10.782  0.9637  0.1381 -1.8728
  418MOL0     H56364   5.308   7.171  10.755  1.9909 -2.2749 -2.5300
  418MOL0     H56365   5.543   7.045  10.670  2.9444 -1.6168  0.4989
  418MOL0     H56366   5.516   7.222  10.669  1.9684  0.2633 -2.1785
  418MOL0     H56367   5.772   7.253  10.729  0.8486  0.1411 -0.3286
  418MOL0     H56368   5.784   7.082  10.712 -0.7428 -0.5557  1.6819
  418MOL0     H56369   5.681   7.069  10.486 -1.9251  2.7483 -1.0114
  418MOL0     H56370   5.669   7.236  10.488 -3.3711 -1.7967 -1.2619
  418MOL0     H56371   5.948   7.175  10.571  0.3155 -0.1335 -0.3416
  418MOL0     H56372   5.908   7.048  10.452  0.2735  0.4703 -1.4804
  418MOL0     H56373   5.981   7.198  10.285 -0.9849  0.9732 -1.8594
  418MOL0     H56374   5.828   7.196  10.296  0.9403  0.9538 -0.0894
  418MOL0     H56375   5.918   7.439  10.301 -3.0399 -0.5016 -2.0884
  418MOL0     H56376   5.825   7.403  10.455  0.7934 -0.1833 -0.7917
  418MOL0     H56377   5.996   7.402  10.582 -0.8865 -0.7492 -0.0985
  418MOL0     H56378   6.114   7.346  10.475  2.3752  2.0294  4.0893
  418MOL0     H56379   6.139   7.594  10.556  0.8083  2.2570 -1.1531
  418MOL0     H56380   6.005   7.635  10.453  1.5572  1.9385 -1.5832
  418MOL0     H56381   6.364   7.660  10.424  0.9164  3.3018 -1.8778
  418MOL0     H56382   6.523   7.576  10.081 -1.3047  0.1658 -0.4789
  418MOL0     H56383   6.507   7.738  10.143 -0.0306 -0.0037  0.6904
  418MOL0     H56384   6.571   7.634  10.377 -2.2619  0.4561 -1.0582
  418MOL0     H56385   6.698   7.652  10.267  0.6531  0.3969  1.3096
  418MOL0     H56386   6.661   7.414  10.187 -0.8523  0.5022 -0.4719
  418MOL0     H56387   6.553   7.384  10.330  0.5349  0.6460  2.0478
  418MOL0     H56388   6.733   7.448  10.491 -0.0760 -3.8124  2.1043
  418MOL0     H56389   6.834   7.465  10.333 -2.6410  1.3739 -2.4697
  418MOL0     H56390   6.799   7.040  10.451  2.7461 -3.0263 -3.7853
  418MOL0     H56391   6.864   6.840  10.551  1.8605 -0.3422 -3.3552
  418MOL0     H56392   7.036   6.833  10.536  0.1608  3.8190 -1.4165
  418MOL0     H56393   6.958   6.860  10.700  2.8304  2.8383  0.4569
  418MOL0     H56394   7.534   6.937  10.627  1.4413  0.1452  0.4547
  418MOL0     H56395   7.688   6.871  10.778 -2.0254 -0.4846 -2.1477
  418MOL0     H56396   7.881   7.184  10.911 -2.6214 -2.6839 -1.5369
  418MOL0     H56397   7.875   7.162  11.101  2.1349 -0.0417  1.1425
  418MOL0     H56398   8.042   6.992  11.072  2.2953  1.6140  1.0351
  418MOL0     H56399   8.048   7.026  10.894  1.8841  0.0179 -0.8635
  418MOL0     H56400   8.097   7.215  11.127 -1.1602  2.0606 -0.2456
  418MOL0     H56401   8.089   7.274  10.955 -0.7445  0.5794  0.4510
  418MOL0     H56402   8.294   7.096  11.104 -3.1981  0.4084  1.5555
  418MOL0     H56403   8.292   7.126  10.919 -2.1800  1.3621 -0.8758
  418MOL0     H56404   8.320   7.333  11.134  0.8757 -0.5894  0.6510
  418MOL0     H56405   8.342   7.347  10.950  2.5040 -0.4996 -0.5731
  418MOL0     H56406   8.513   7.180  11.148  0.1196 -2.2068 -2.6598
  418MOL0     H56407   8.540   7.189  10.983 -2.9160 -2.1331  0.1900
  418MOL0     H56408   8.540   7.431  11.171 -1.3152  0.4446 -0.8432
  418MOL0     H56409   8.567   7.443  11.010 -1.0327  1.1562  2.3388
  418MOL0     H56410   8.756   7.294  11.001  2.8081  2.0768  0.0949
  418MOL0     H56411   8.763   7.307  11.183  0.7514  0.5687  0.1597
  418MOL0     H56412   7.605   7.191  11.037  4.5847 -2.1118  0.1583
  418MOL0     H56413   7.394   7.252  10.889  0.8606  0.2699  1.7821
  418MOL0     H56414   7.188   7.293  10.588 -1.7086  0.4746 -0.5444
  418MOL0     H56415   7.016   7.396  10.470  0.8254 -0.7229 -0.3829
  418MOL0     H56416   5.560   6.933  11.012 -1.1664 -0.9715  1.9216
  418MOL0     H56417   5.375   6.782  11.052  0.3066  0.1347 -0.9867
  418MOL0     H56418   4.886   6.796  10.917 -2.0026  0.4490 -2.6346
  418MOL0     H56419   4.654   6.710  10.917  0.3416  1.4432 -0.2708
  418MOL0     H56420   4.458   6.625  11.078 -2.2089 -0.1863 -2.1022
  418MOL0     H56421   4.460   6.544  10.919  2.9111  1.9641  0.3733
  418MOL0     H56422   4.376   6.413  11.170  0.2883  0.0824  1.4060
  418MOL0     H56423   4.371   6.353  11.002  2.6970 -0.2461  2.0057
  418MOL0     H56424   4.214   6.538  10.955 -2.8988 -0.6028 -0.3500
  418MOL0     H56425   4.229   6.569  11.136  0.1231  0.8904 -0.4504
  418MOL0     H56426   4.164   6.322  11.175  2.1622  3.3036  2.0925
  418MOL0     H56427   4.138   6.310  10.999 -1.8865 -2.4880  1.2513
  418MOL0     H56428   3.780   6.461  11.133  0.3241  0.6863 -0.5026
  418MOL0     H56429   4.811   6.349  11.090  0.3705  0.0622  0.2726
  418MOL0     H56430   5.028   6.409  11.057 -0.9715 -1.1741  1.9473
  419MOL0     O56431   0.658   4.261   2.381  0.5276  0.0118  0.5451
  419MOL0     C56432   0.538   4.292   2.365  0.7636 -0.2832  0.1076
  419MOL0     O56433   0.432   4.261   2.453  0.3330  0.1668 -0.3423
  419MOL0     C56434   0.467   4.210   2.575 -0.1994  0.4488 -0.5095
  419MOL0     C56435   0.531   4.089   2.588  1.6014  1.1728 -0.2743
  419MOL0     C56436   0.538   4.026   2.710 -0.0501  0.6193 -0.7738
  419MOL0     C56437   0.508   4.106   2.823  0.0198 -0.1474  0.2939
  419MOL0     O56438   0.521   4.045   2.944  0.9274 -1.2557 -0.7129
  419MOL0     C56439   0.619   4.098   3.037  0.2264  0.8212 -0.0682
  419MOL0     C56440   0.573   4.038   3.176  0.5272 -1.2882 -0.3390
  419MOL0     C56441   0.435   4.090   3.221 -0.5377  0.6954 -0.7663
  419MOL0     C56442   0.392   4.017   3.348 -0.1890  0.3119  0.3251
  419MOL0     C56443   0.233   4.039   3.382 -0.2558 -0.1424 -0.4129
  419MOL0     C56444   0.191   3.953   3.497 -0.8649 -0.2033 -0.7463
  419MOL0     C56445   0.204   3.805   3.479  0.2168  0.6061  0.7066
  419MOL0     C56446   0.123   3.752   3.352  0.1596 -0.0846 -0.6516
  419MOL0     N56447  -0.023   3.758   3.360 -0.5244  0.7990  0.4080
  419MOL0     C56448  -0.095   3.772   3.467  1.1943  0.3656 -0.6621
  419MOL0     C56449  -0.214   3.766   3.427  0.3487 -0.5050  0.4403
  419MOL0     C56450  -0.339   3.782   3.508  0.1219 -0.0371  0.3649
  419MOL0     C56451  -0.442   3.883   3.449  1.0046 -0.1454  0.1122
  419MOL0     C56452  -0.431   4.031   3.482  0.6392 -0.0922  0.2214
  419MOL0     C56453  -0.309   4.100   3.410 -0.5073  0.1991 -0.5033
  419MOL0     O56454  -0.286   4.232   3.473  0.0438 -0.4476 -0.5465
  419MOL0     C56455  -0.329   4.338   3.396  0.0930  0.3770 -0.4335
  419MOL0     C56456  -0.442   4.413   3.430  0.8397  0.0969 -0.4012
  419MOL0     C56457  -0.484   4.523   3.354  0.4852  0.0512  0.5872
  419MOL0     C56458  -0.620   4.589   3.391  0.3973 -0.2827  0.0205
  419MOL0     C56459  -0.417   4.553   3.230  0.4414  0.0163 -0.1442
  419MOL0     C56460  -0.444   4.660   3.136  0.5928 -0.6522 -0.1978
  419MOL0     O56461  -0.364   4.666   3.024  0.3938 -0.0562 -0.2240
  419MOL0     C56462  -0.373   4.773   2.934  0.2614 -0.0661 -0.0480
  419MOL0     C56463  -0.498   4.820   2.889  0.4897  0.6494 -0.6562
  419MOL0     C56464  -0.514   4.919   2.796  0.1393  0.0051  0.0102
  419MOL0     C56465  -0.394   4.983   2.748  0.5968 -1.1379 -0.0263
  419MOL0     O56466  -0.386   5.089   2.663 -0.1841 -0.0068 -0.2343
  419MOL0     C56467  -0.506   5.140   2.598  0.0682 -0.4350  0.1117
  419MOL0     C56468  -0.492   5.245   2.486  0.0095  0.2907 -0.7873
  419MOL0     C56469  -0.384   5.214   2.391 -0.8128  1.0440 -0.6862
  419MOL0     C56470  -0.381   5.297   2.259  0.4678 -0.8765  0.3150
  419MOL0     C56471  -0.389   5.453   2.289  0.1456 -0.7140 -0.5369
  419MOL0     C56472  -0.377   5.543   2.172 -0.5299  0.1629  0.2728
  419MOL0     C56473  -0.387   5.696   2.199 -0.5150 -0.4252 -0.3900
  419MOL0     C56474  -0.404   5.778   2.072  0.1749  0.3649 -0.5276
  419MOL0    Cl56475  -0.245   5.806   2.029 -0.5498 -0.1233 -0.0473
  419MOL0     C56476  -0.262   4.938   2.799  0.7269 -1.5469  0.5329
  419MOL0     C56477  -0.254   4.839   2.891  0.6199 -1.1218 -0.4538
  419MOL0     O56478  -0.536   4.732   3.155  0.3925 -0.0235 -0.3115
  419MOL0     C56479  -0.293   4.476   3.202  0.9057 -0.3511 -0.8590
  419MOL0     C56480  -0.253   4.367   3.281  0.5762  0.0027  0.4168
  419MOL0     N56481  -0.224   3.759   3.286 -0.6462  1.0313 -0.1296
  419MOL0     N56482  -0.099   3.759   3.248 -0.2689  0.4252  0.1211
  419MOL0     C56483   0.460   4.237   2.817  0.2409 -0.1294  0.1906
  419MOL0     C56484   0.434   4.288   2.684 -0.7844 -0.1981 -0.4874
  419MOL0     C56485   0.500   4.369   2.245  0.4442 -0.4538  1.7247
  419MOL0     C56486   0.599   4.444   2.171 -0.3790  0.1449  0.9078
  419MOL0     C56487   0.573   4.470   2.039  0.1929  0.2276  0.5363
  419MOL0     C56488   0.443   4.451   1.980 -0.5717 -0.5530 -0.9377
  419MOL0     O56489   0.406   4.487   1.852  1.0251  0.5227  0.1899
  419MOL0     C56490   0.463   4.590   1.768  0.8288 -0.8787 -0.1043
  419MOL0     C56491   0.593   4.549   1.723  0.0148  0.4848  0.5944
  419MOL0     C56492   0.670   4.647   1.633  0.0243  0.4309  1.0401
  419MOL0     C56493   0.737   4.768   1.699  0.3417  0.9396  0.1476
  419MOL0     C56494   0.806   4.732   1.817  0.4516 -0.5791  0.5079
  419MOL0     C56495   0.860   4.722   1.922 -0.7808  0.6104 -0.5724
  419MOL0     C56496   0.353   4.386   2.055 -0.1707 -0.4605  0.5871
  419MOL0     C56497   0.381   4.335   2.182 -1.1647  0.9719  0.7682
  419MOL0     H56498   0.556   4.041   2.494 -2.4908  2.7508 -2.4542
  419MOL0     H56499   0.593   3.933   2.718  1.0768  1.1170 -2.4223
  419MOL0     H56500   0.716   4.052   3.016 -0.3238 -0.5749  0.3339
  419MOL0     H56501   0.630   4.206   3.045  0.2441  0.6816  2.3498
  419MOL0     H56502   0.570   3.929   3.173  0.7651 -1.3031 -0.0042
  419MOL0     H56503   0.652   4.058   3.248  2.2895 -1.3821 -2.1574
  419MOL0     H56504   0.437   4.197   3.244 -2.6998  0.6436 -0.0993
  419MOL0     H56505   0.356   4.068   3.148 -1.3067 -3.2782  1.0075
  419MOL0     H56506   0.418   3.912   3.341  0.3339  0.2354  2.7097
  419MOL0     H56507   0.441   4.063   3.435 -2.6243  3.2329  0.3491
  419MOL0     H56508   0.209   4.141   3.415 -0.9127 -0.5196  0.2919
  419MOL0     H56509   0.178   4.020   3.290  1.4403  2.9161 -2.2601
  419MOL0     H56510   0.247   3.982   3.587 -1.4035 -1.5021  0.0369
  419MOL0     H56511   0.089   3.987   3.517  0.2010  2.5439  0.6399
  419MOL0     H56512   0.310   3.777   3.475  0.6018  1.5024  2.9635
  419MOL0     H56513   0.174   3.752   3.571  4.7993 -1.2805  1.3969
  419MOL0     H56514   0.155   3.647   3.350  0.5869  0.0010  0.7376
  419MOL0     H56515   0.165   3.805   3.266 -1.3551  1.6547 -0.3906
  419MOL0     H56516  -0.070   3.792   3.571  3.2666 -0.2032 -1.0018
  419MOL0     H56517  -0.406   3.696   3.520 -1.6901  1.2528  0.0220
  419MOL0     H56518  -0.320   3.810   3.612 -3.2177 -0.3031  1.1741
  419MOL0     H56519  -0.534   3.840   3.488  0.3414  2.0223  1.0377
  419MOL0     H56520  -0.446   3.875   3.339 -2.3258 -2.6821  0.2607
  419MOL0     H56521  -0.420   4.034   3.591 -2.3112 -2.6607  0.7195
  419MOL0     H56522  -0.519   4.085   3.445 -0.5768 -1.5149  0.9499
  419MOL0     H56523  -0.310   4.109   3.301 -1.9402  1.5910 -0.4088
  419MOL0     H56524  -0.222   4.040   3.437 -0.1162  0.3526 -1.3890
  419MOL0     H56525  -0.497   4.371   3.513  0.5679 -1.5201 -1.3595
  419MOL0     H56526  -0.618   4.695   3.417  1.4140  0.0403 -1.2857
  419MOL0     H56527  -0.680   4.580   3.300  0.5379 -0.0671 -0.0933
  419MOL0     H56528  -0.659   4.525   3.471 -0.3074 -0.4352 -0.4376
  419MOL0     H56529  -0.578   4.755   2.922 -1.8322  3.0812 -1.1631
  419MOL0     H56530  -0.614   4.950   2.769  0.3423  0.5467 -0.1367
  419MOL0     H56531  -0.559   5.063   2.542 -0.6643 -0.3482  0.6685
  419MOL0     H56532  -0.568   5.176   2.681 -1.5675  1.4520 -1.7921
  419MOL0     H56533  -0.589   5.241   2.436 -1.1041 -1.5879  1.3222
  419MOL0     H56534  -0.478   5.346   2.526 -2.7593  0.7185 -0.6850
  419MOL0     H56535  -0.412   5.116   2.351 -1.1108  0.3236  1.1784
  419MOL0     H56536  -0.282   5.214   2.430  0.9958 -0.7788 -4.8013
  419MOL0     H56537  -0.280   5.292   2.218 -0.4212 -1.4414 -2.0213
  419MOL0     H56538  -0.463   5.267   2.192  1.2248  0.0155 -1.0565
  419MOL0     H56539  -0.312   5.479   2.362 -2.7933  1.1654  2.1379
  419MOL0     H56540  -0.483   5.478   2.338 -0.2394 -1.6302 -0.7910
  419MOL0     H56541  -0.279   5.528   2.127 -0.4313  2.2975 -0.3453
  419MOL0     H56542  -0.454   5.525   2.097 -0.2572 -0.3548  0.1171
  419MOL0     H56543  -0.297   5.728   2.252 -2.2558  1.8052  1.4656
  419MOL0     H56544  -0.470   5.716   2.268 -0.6879  1.7044 -1.1351
  419MOL0     H56545  -0.449   5.871   2.108  0.5602 -0.3316  1.9326
  419MOL0     H56546  -0.464   5.724   1.999  0.5651  0.6540 -1.0652
  419MOL0     H56547  -0.171   4.980   2.757 -0.1682 -1.2606 -1.1744
  419MOL0     H56548  -0.164   4.798   2.937  0.8036  0.8291  1.0695
  419MOL0     H56549  -0.234   4.510   3.118 -1.8333  2.5401 -1.8034
  419MOL0     H56550  -0.161   4.314   3.261  0.8094 -1.0556  3.7417
  419MOL0     H56551   0.437   4.298   2.904 -1.6549 -0.5056 -0.0188
  419MOL0     H56552   0.397   4.390   2.678  2.4543  1.3863  2.5555
  419MOL0     H56553   0.695   4.456   2.222 -0.7949  1.0797  1.5020
  419MOL0     H56554   0.653   4.528   1.994  2.1458 -1.5253  1.5778
  419MOL0     H56555   0.388   4.600   1.689 -1.2114 -1.8076  1.6467
  419MOL0     H56556   0.458   4.690   1.811  0.8171 -1.1187  0.4649
  419MOL0     H56557   0.574   4.463   1.658 -2.3256  0.4332  1.2758
  419MOL0     H56558   0.665   4.515   1.798 -0.1407  2.4521  1.6754
  419MOL0     H56559   0.601   4.681   1.555  0.2285 -0.2427  0.5504
  419MOL0     H56560   0.742   4.592   1.571  1.2109 -1.0709  3.6114
  419MOL0     H56561   0.662   4.842   1.729 -1.0069 -0.9894  1.7513
  419MOL0     H56562   0.815   4.806   1.631 -1.2498 -0.2819 -2.5082
  419MOL0     H56563   0.898   4.697   2.018  0.2660 -1.1831 -1.4070
  419MOL0     H56564   0.252   4.350   2.033  0.5416 -1.4845 -1.2056
  419MOL0     H56565   0.308   4.269   2.227 -0.1714 -1.2439 -0.7045
  420MOL0     O56566   4.986   1.069   4.104  0.2017  0.2474  0.1703
  420MOL0     C56567   5.027   0.970   4.036  0.8811  0.2683 -0.6795
  420MOL0     O56568   4.966   0.912   3.927  0.1729 -0.6983 -0.1944
  420MOL0     C56569   4.869   0.979   3.869 -1.1893 -0.1001  0.8533
  420MOL0     C56570   4.901   1.025   3.729 -0.0671 -0.1361 -0.1963
  420MOL0     C56571   4.802   1.108   3.669 -0.1771  0.9385 -0.3574
  420MOL0     C56572   4.692   1.157   3.744  0.2193 -0.8631 -0.3418
  420MOL0     O56573   4.600   1.251   3.712  0.1946 -0.3430  0.1570
  420MOL0     C56574   4.607   1.302   3.579 -0.0340  0.2074 -0.2341
  420MOL0     C56575   4.511   1.419   3.581  0.7146  0.0529  0.0966
  420MOL0     C56576   4.358   1.382   3.588 -0.0669 -0.2895  0.6214
  420MOL0     C56577   4.271   1.502   3.562  0.5268 -0.5361 -0.7799
  420MOL0     C56578   4.128   1.451   3.572  0.4060 -0.3594 -0.6456
  420MOL0     C56579   4.024   1.562   3.539 -0.3318 -0.3981  0.3954
  420MOL0     C56580   3.885   1.508   3.541  0.4087  0.5424  0.0172
  420MOL0     C56581   3.769   1.614   3.567  0.2827 -0.0962  0.2383
  420MOL0     N56582   3.647   1.586   3.499 -0.3531 -1.1159  0.3881
  420MOL0     C56583   3.566   1.477   3.532  0.4523 -0.7159  0.8968
  420MOL0     C56584   3.462   1.488   3.453 -0.5254 -0.3784  0.2490
  420MOL0     C56585   3.346   1.394   3.433 -0.2555 -0.7875  0.0137
  420MOL0     C56586   3.213   1.440   3.479  0.3450 -0.9836  0.6303
  420MOL0     C56587   3.216   1.433   3.633 -0.4393 -0.7193 -0.1972
  420MOL0     C56588   3.083   1.446   3.702  0.3621  0.3462  0.7361
  420MOL0     O56589   3.100   1.453   3.849  0.2862  0.5004  0.6620
  420MOL0     C56590   3.001   1.500   3.927  0.4316  0.8331 -0.1723
  420MOL0     C56591   2.879   1.558   3.876 -0.5725  0.5895  0.5934
  420MOL0     C56592   2.781   1.599   3.974 -0.3993 -0.4210  0.1578
  420MOL0     C56593   2.650   1.656   3.931 -1.1849  1.2443 -0.4790
  420MOL0     C56594   2.814   1.598   4.112  0.6988  0.4267 -0.5280
  420MOL0     C56595   2.718   1.639   4.221 -0.6197  0.2332 -0.1945
  420MOL0     O56596   2.594   1.574   4.212  0.4082 -0.2660 -0.0153
  420MOL0     C56597   2.522   1.592   4.324  0.1366 -1.0277  0.4578
  420MOL0     C56598   2.441   1.713   4.342  0.0042 -0.2451 -0.5264
  420MOL0     C56599   2.374   1.744   4.460  0.3189 -0.0709 -0.1808
  420MOL0     C56600   2.375   1.647   4.562  0.7537 -0.1922  0.2625
  420MOL0     O56601   2.310   1.674   4.679 -0.3612  0.3401 -0.3463
  420MOL0     C56602   2.329   1.801   4.735  0.1456  0.2257  0.4184
  420MOL0     C56603   2.196   1.876   4.707  0.0370 -0.3072  0.4036
  420MOL0     C56604   2.109   1.867   4.835  0.2193 -0.4499  0.2087
  420MOL0     C56605   1.970   1.937   4.811  0.3786  0.4040 -0.9149
  420MOL0     C56606   1.880   1.948   4.945 -0.0326  0.6161  0.2492
  420MOL0     C56607   1.820   1.814   4.987  0.2574 -0.3987  0.1518
  420MOL0     C56608   1.837   1.779   5.143  0.9269 -0.1189  0.8307
  420MOL0     C56609   1.974   1.739   5.176  0.1139  0.1559  0.0676
  420MOL0    Cl56610   2.001   1.630   5.318  0.0109  0.0932  0.1611
  420MOL0     C56611   2.442   1.530   4.542 -0.1046  0.5908 -0.3620
  420MOL0     C56612   2.520   1.510   4.433 -0.3009 -0.3372  0.2687
  420MOL0     O56613   2.757   1.727   4.301 -0.0124  0.3994 -0.0936
  420MOL0     C56614   2.927   1.540   4.149 -0.0504 -0.1912 -0.3498
  420MOL0     C56615   3.024   1.488   4.064 -0.7200 -0.3091 -0.1418
  420MOL0     N56616   3.479   1.608   3.386  0.5286  0.1559 -0.8619
  420MOL0     N56617   3.588   1.672   3.409  0.9975  0.0092 -0.8578
  420MOL0     C56618   4.668   1.104   3.880  0.6587 -0.3360 -0.3670
  420MOL0     C56619   4.758   1.015   3.939 -0.1756 -0.3400  0.4647
  420MOL0     C56620   5.155   0.915   4.081  0.8364  0.1440  0.2337
  420MOL0     C56621   5.215   0.809   4.008  0.0875 -0.4565 -0.5009
  420MOL0     C56622   5.344   0.756   4.043 -0.2518 -0.3123 -0.7547
  420MOL0     C56623   5.404   0.800   4.160  0.3682 -1.1634 -1.0096
  420MOL0     O56624   5.526   0.739   4.197  0.4147 -0.8080 -0.9828
  420MOL0     C56625   5.641   0.798   4.135  0.1064 -0.6661  0.7091
  420MOL0     C56626   5.758   0.761   4.216  0.3703  0.5044 -0.0528
  420MOL0     C56627   5.784   0.608   4.218 -0.8611 -0.7156 -0.6958
  420MOL0     C56628   5.913   0.556   4.292 -0.1580  0.2602  0.6646
  420MOL0     C56629   6.043   0.599   4.234 -0.0857  0.4859 -0.2304
  420MOL0     C56630   6.157   0.621   4.189  0.1093  0.6374  0.3473
  420MOL0     C56631   5.342   0.894   4.247  0.8502  0.7343  0.0746
  420MOL0     C56632   5.221   0.956   4.199  0.5073 -0.0065  0.0569
  420MOL0     H56633   4.994   1.005   3.675  1.6694  6.4909 -0.5336
  420MOL0     H56634   4.815   1.141   3.566  3.5230 -0.8926 -0.6590
  420MOL0     H56635   4.711   1.326   3.553  0.7082 -0.5299  1.7921
  420MOL0     H56636   4.582   1.221   3.509  2.0961  0.7831 -1.7653
  420MOL0     H56637   4.539   1.492   3.657 -0.3045  0.6457 -0.0712
  420MOL0     H56638   4.526   1.468   3.484 -1.1454  0.2780 -0.1106
  420MOL0     H56639   4.331   1.310   3.511  1.2980  0.0378 -0.1878
  420MOL0     H56640   4.344   1.326   3.681 -1.3108  0.5814  0.9818
  420MOL0     H56641   4.277   1.577   3.641 -1.6359 -3.7795  2.8442
  420MOL0     H56642   4.280   1.546   3.463  1.7923 -0.7978 -0.8064
  420MOL0     H56643   4.120   1.366   3.504 -2.2129  0.8543 -1.9910
  420MOL0     H56644   4.104   1.418   3.674 -2.7952 -0.4413 -1.3152
  420MOL0     H56645   4.042   1.638   3.616  0.7755 -0.3879  0.1374
  420MOL0     H56646   4.038   1.594   3.436  2.9670 -1.1712  0.4812
  420MOL0     H56647   3.870   1.443   3.455  0.8540  0.5596 -0.0781
  420MOL0     H56648   3.886   1.439   3.626  1.9400  1.2095  0.5825
  420MOL0     H56649   3.796   1.716   3.541 -0.6014 -0.0168 -0.4345
  420MOL0     H56650   3.748   1.614   3.675 -2.5699 -1.3997 -0.2305
  420MOL0     H56651   3.590   1.400   3.604  1.0071  0.1641  1.6780
  420MOL0     H56652   3.346   1.362   3.328 -0.0346 -0.4768 -0.0832
  420MOL0     H56653   3.368   1.298   3.481 -0.2989 -0.3197  0.9896
  420MOL0     H56654   3.131   1.381   3.436 -1.4357  1.4329  0.4528
  420MOL0     H56655   3.197   1.541   3.440  1.6057 -1.0018  0.0220
  420MOL0     H56656   3.274   1.520   3.664 -0.3225  0.2047 -2.7600
  420MOL0     H56657   3.268   1.341   3.659  1.7523  0.4208 -0.3044
  420MOL0     H56658   3.032   1.354   3.673 -1.4740  0.5338  3.0687
  420MOL0     H56659   3.046   1.542   3.664  2.3368  1.1866  0.8204
  420MOL0     H56660   2.849   1.553   3.772 -2.5669 -0.5359  1.1808
  420MOL0     H56661   2.566   1.602   3.975  0.7033 -1.4704 -0.0029
  420MOL0     H56662   2.657   1.758   3.970  0.9852  1.3559 -1.0121
  420MOL0     H56663   2.632   1.660   3.823  0.3975  3.3625 -0.7430
  420MOL0     H56664   2.425   1.781   4.259  0.2360  1.7916  1.0285
  420MOL0     H56665   2.310   1.832   4.467  0.2391 -0.2222  1.2701
  420MOL0     H56666   2.356   1.789   4.841 -2.7352  0.0827  1.2187
  420MOL0     H56667   2.411   1.851   4.683 -0.8057  2.7585  1.2384
  420MOL0     H56668   2.228   1.980   4.700 -1.3119  0.0279 -2.5287
  420MOL0     H56669   2.137   1.855   4.617 -0.5035  3.0818 -0.1645
  420MOL0     H56670   2.161   1.905   4.924 -0.0317  1.6502 -0.4953
  420MOL0     H56671   2.085   1.764   4.862  0.6906 -0.8244 -0.7700
  420MOL0     H56672   1.981   2.038   4.771  1.5573  1.7793  2.4845
  420MOL0     H56673   1.925   1.876   4.732  1.0130 -0.6803 -0.4709
  420MOL0     H56674   1.791   2.008   4.927 -0.0624 -0.0464 -2.2377
  420MOL0     H56675   1.960   1.988   5.007  1.0368  0.0187 -0.7044
  420MOL0     H56676   1.715   1.817   4.958  0.1842  0.6636  0.4935
  420MOL0     H56677   1.859   1.723   4.939  0.4982 -0.7711  1.0216
  420MOL0     H56678   1.777   1.693   5.175  1.5076 -0.6297  0.5659
  420MOL0     H56679   1.811   1.867   5.203  3.6212  1.0600  0.4050
  420MOL0     H56680   2.038   1.828   5.180  0.9396 -0.3181 -1.6923
  420MOL0     H56681   2.017   1.680   5.095  0.9172 -1.8025  1.8297
  420MOL0     H56682   2.435   1.451   4.616  0.4475 -0.6202 -1.5570
  420MOL0     H56683   2.584   1.423   4.449  0.1539 -0.0645 -0.0296
  420MOL0     H56684   2.957   1.536   4.253 -0.7915 -0.1228 -0.1289
  420MOL0     H56685   3.116   1.443   4.098  0.3921  1.4584 -0.6902
  420MOL0     H56686   4.580   1.139   3.933  2.3196  0.7612  1.8448
  420MOL0     H56687   4.737   0.986   4.042 -1.3477 -1.2123  0.0143
  420MOL0     H56688   5.175   0.800   3.907  0.0873  2.7034 -0.9006
  420MOL0     H56689   5.393   0.680   3.982 -2.4933 -2.3137 -0.1767
  420MOL0     H56690   5.637   0.780   4.027 -0.9838 -0.3485  0.6935
  420MOL0     H56691   5.634   0.907   4.132 -1.4256 -0.7636 -0.7373
  420MOL0     H56692   5.747   0.804   4.316 -1.6657 -1.2185  0.5323
  420MOL0     H56693   5.860   0.795   4.192  0.8091 -0.9497 -0.3951
  420MOL0     H56694   5.776   0.564   4.118  2.2801 -0.8778 -0.9652
  420MOL0     H56695   5.697   0.578   4.278 -2.4275 -0.6750 -2.8568
  420MOL0     H56696   5.904   0.447   4.284 -5.1036  0.4787 -0.3007
  420MOL0     H56697   5.906   0.579   4.398  0.0145  0.5759  0.6068
  420MOL0     H56698   6.257   0.633   4.153  0.5489  3.4146  2.2003
  420MOL0     H56699   5.390   0.926   4.339  3.6119  3.3108 -2.0778
  420MOL0     H56700   5.178   1.035   4.261 -0.9281  0.4707 -1.4668
  421MOL0     O56701   3.100   8.823  10.632 -0.3214 -1.1335  0.2666
  421MOL0     C56702   2.983   8.774  10.627 -0.0089 -0.0510  0.0055
  421MOL0     O56703   2.947   8.650  10.646 -0.3192  1.0047 -0.0196
  421MOL0     C56704   3.019   8.579  10.733  0.0814 -0.7661  0.2293
  421MOL0     C56705   3.066   8.449  10.704  0.3883 -0.4814  0.1628
  421MOL0     C56706   3.139   8.374  10.798 -0.2256 -0.4633  0.2374
  421MOL0     C56707   3.169   8.425  10.925  0.4037  0.1495 -0.1820
  421MOL0     O56708   3.244   8.349  11.009 -0.0174 -0.3081 -0.6270
  421MOL0     C56709   3.225   8.349  11.150 -0.2877  0.0750 -0.1234
  421MOL0     C56710   3.207   8.201  11.192  0.9176  0.5108 -0.2661
  421MOL0     C56711   3.206   8.195  11.344  0.1567 -0.3308 -0.6805
  421MOL0     C56712   3.071   8.245  11.402 -0.9987  0.0063 -0.7377
  421MOL0     C56713   3.062   8.269  11.553 -0.8012  0.0229  0.1667
  421MOL0     C56714   2.913   8.301  11.598  0.5326  0.8054 -0.3832
  421MOL0     C56715   2.879   8.449  11.597 -0.8019  0.0952  0.9151
  421MOL0     C56716   2.732   8.451  11.651 -0.5310  0.1547  0.1652
  421MOL0     N56717   2.667   8.580  11.635  0.7052 -0.1165 -0.4889
  421MOL0     C56718   2.639   8.676  11.736 -0.9589 -0.3970 -0.2940
  421MOL0     C56719   2.582   8.781  11.673  0.1002  0.7921 -0.3885
  421MOL0     C56720   2.566   8.927  11.725 -0.0442  0.1806 -0.0770
  421MOL0     C56721   2.686   9.008  11.680  0.8392  0.5589 -0.3921
  421MOL0     C56722   2.687   9.015  11.528  0.3547  0.1136  0.3585
  421MOL0     C56723   2.770   9.126  11.474 -1.1032 -1.0465 -0.0277
  421MOL0     O56724   2.788   9.113  11.330 -0.9421  0.3004  0.0353
  421MOL0     C56725   2.709   9.193  11.245  0.4892 -0.0484  0.2100
  421MOL0     C56726   2.580   9.230  11.282  0.3909  0.4243  0.2651
  421MOL0     C56727   2.502   9.309  11.192 -0.3834 -0.5522  0.3167
  421MOL0     C56728   2.362   9.326  11.239  0.7586 -0.0800  0.0385
  421MOL0     C56729   2.551   9.355  11.070 -0.1852 -0.5921  0.2632
  421MOL0     C56730   2.471   9.439  10.979  0.5617 -0.5588  0.0185
  421MOL0     O56731   2.535   9.459  10.854 -0.4193 -0.7093 -0.7370
  421MOL0     C56732   2.492   9.559  10.771  0.8804  0.1661 -0.6847
  421MOL0     C56733   2.492   9.536  10.640 -0.5521  0.0506  0.2110
  421MOL0     C56734   2.468   9.630  10.545  0.0514 -0.1908 -1.4667
  421MOL0     C56735   2.430   9.758  10.586 -1.0980 -0.2526 -0.3202
  421MOL0     O56736   2.402   9.836  10.476 -0.8194 -0.6539 -0.1488
  421MOL0     C56737   2.345   9.961  10.500 -0.0071 -0.1995 -0.9862
  421MOL0     C56738   2.324  10.023  10.362  0.2675  0.3815 -0.3222
  421MOL0     C56739   2.242  10.148  10.380  0.1742  0.1844  0.0306
  421MOL0     C56740   2.211  10.207  10.238 -0.4447 -0.1333 -0.5488
  421MOL0     C56741   2.088  10.290  10.238  0.0209 -0.9790 -0.3033
  421MOL0     C56742   2.057  10.372  10.126  0.1854  0.4866  0.7315
  421MOL0     C56743   2.040  10.277  10.010 -0.2703  1.4997  1.2272
  421MOL0     C56744   2.000  10.339   9.874  0.4191 -0.8264 -0.3310
  421MOL0    Cl56745   1.827  10.377   9.862 -0.0940 -0.0268 -0.1260
  421MOL0     C56746   2.417   9.791  10.726 -0.1987  0.0118 -0.6130
  421MOL0     C56747   2.456   9.684  10.813 -0.1460 -0.2848 -0.4427
  421MOL0     O56748   2.366   9.501  11.017  0.1142 -0.0971  0.2730
  421MOL0     C56749   2.682   9.302  11.030  0.4282 -0.1589 -0.0407
  421MOL0     C56750   2.755   9.220  11.116  0.6655  0.0385  0.8258
  421MOL0     N56751   2.559   8.750  11.544  0.4801 -0.8874  0.1459
  421MOL0     N56752   2.605   8.625  11.525  0.3189 -0.1370  0.6786
  421MOL0     C56753   3.129   8.547  10.956 -0.0247  0.5080 -0.3232
  421MOL0     C56754   3.060   8.629  10.857 -0.4119  0.1245 -0.9585
  421MOL0     C56755   2.872   8.865  10.600 -0.0072 -1.0082 -0.0832
  421MOL0     C56756   2.804   8.850  10.483  1.3652  0.7243 -0.8291
  421MOL0     C56757   2.708   8.946  10.451  0.1024 -1.2911  0.1168
  421MOL0     C56758   2.670   9.053  10.533  0.8133  0.2696 -0.0526
  421MOL0     O56759   2.563   9.135  10.519 -0.5957 -0.4196 -0.1619
  421MOL0     C56760   2.472   9.097  10.412 -0.3613 -0.1998 -0.4644
  421MOL0     C56761   2.346   9.193  10.410 -1.1930 -0.0056 -1.0579
  421MOL0     C56762   2.249   9.135  10.310  0.3544  1.1080  0.4924
  421MOL0     C56763   2.143   9.037  10.365  0.1534 -0.5857 -0.1092
  421MOL0     C56764   2.179   8.897  10.341  0.3921  0.3507  0.3352
  421MOL0     C56765   2.207   8.781  10.332  0.4415  0.2211  0.6646
  421MOL0     C56766   2.747   9.078  10.642 -1.1380 -0.2950 -0.5533
  421MOL0     C56767   2.854   8.990  10.673 -0.8903  0.5654  0.0536
  421MOL0     H56768   3.040   8.405  10.608  1.7549 -1.9548  0.4168
  421MOL0     H56769   3.166   8.273  10.767 -1.4991 -0.3371 -1.4508
  421MOL0     H56770   3.319   8.385  11.194  0.6828 -0.7621 -1.4467
  421MOL0     H56771   3.140   8.411  11.180  1.7552  2.7658  0.5970
  421MOL0     H56772   3.114   8.153  11.160 -0.0557 -0.0721  3.0559
  421MOL0     H56773   3.277   8.126  11.155  0.6621  0.6910 -1.1388
  421MOL0     H56774   3.248   8.104  11.387  2.9802  0.0436 -2.3401
  421MOL0     H56775   3.279   8.266  11.383 -0.6236 -0.4332  1.0345
  421MOL0     H56776   3.056   8.343  11.356  1.0343 -0.3763 -2.3809
  421MOL0     H56777   2.986   8.181  11.376 -1.2965  0.0706  0.0461
  421MOL0     H56778   3.091   8.176  11.602 -3.6849 -1.5751 -0.8798
  421MOL0     H56779   3.125   8.351  11.589  0.9049 -0.2773 -1.9089
  421MOL0     H56780   2.847   8.248  11.529 -2.1794  1.6180  1.4461
  421MOL0     H56781   2.900   8.253  11.695  0.3986  0.9742 -0.3186
  421MOL0     H56782   2.943   8.514  11.658 -0.2434 -1.2032  1.7687
  421MOL0     H56783   2.897   8.470  11.491  1.8220 -0.3238  1.1862
  421MOL0     H56784   2.732   8.424  11.757 -0.3562 -1.1902 -0.1551
  421MOL0     H56785   2.677   8.376  11.593 -2.5028  0.5268  1.4691
  421MOL0     H56786   2.674   8.656  11.837  1.4222 -1.0064 -1.1820
  421MOL0     H56787   2.469   8.970  11.697  0.0727 -0.6668 -1.9373
  421MOL0     H56788   2.570   8.928  11.834 -0.5827  0.5616 -0.0567
  421MOL0     H56789   2.773   8.953  11.718  0.7942  0.0439 -1.0285
  421MOL0     H56790   2.693   9.109  11.721  0.1364  0.7797 -0.8020
  421MOL0     H56791   2.585   9.025  11.489  1.2520 -0.2183 -2.3367
  421MOL0     H56792   2.728   8.922  11.485 -0.3051  0.7464 -1.7883
  421MOL0     H56793   2.871   9.127  11.517 -1.3722  4.9439  1.2798
  421MOL0     H56794   2.725   9.220  11.506 -2.5381 -0.3884 -3.5633
  421MOL0     H56795   2.543   9.185  11.373 -0.7760  0.7241 -0.0349
  421MOL0     H56796   2.298   9.249  11.194 -0.9463  1.4506 -0.2630
  421MOL0     H56797   2.369   9.316  11.348  0.9556  0.3330  0.0647
  421MOL0     H56798   2.308   9.421  11.227 -0.5549 -0.7613  0.2953
  421MOL0     H56799   2.510   9.434  10.607  2.7701 -0.0736  1.8967
  421MOL0     H56800   2.496   9.591  10.448  1.6786 -2.0411 -0.3229
  421MOL0     H56801   2.249   9.940  10.549  1.2966 -1.9569  0.9654
  421MOL0     H56802   2.408  10.028  10.558 -0.9699 -0.4262  0.3727
  421MOL0     H56803   2.424  10.044  10.322  0.2224  0.5684 -0.3344
  421MOL0     H56804   2.269   9.947  10.305  2.4679 -0.3037 -1.6677
  421MOL0     H56805   2.299  10.216  10.444 -0.5557 -0.0401  0.9456
  421MOL0     H56806   2.147  10.126  10.431  0.1734 -0.6015 -0.2934
  421MOL0     H56807   2.295  10.257  10.189 -1.1812  1.4412 -0.2874
  421MOL0     H56808   2.181  10.121  10.178  0.6322 -0.9211  0.0032
  421MOL0     H56809   2.095  10.362  10.320  0.5273  0.1301 -1.2967
  421MOL0     H56810   1.998  10.236  10.271 -0.1165 -0.6579 -0.1448
  421MOL0     H56811   1.966  10.430  10.143  1.7429  2.6026  2.3713
  421MOL0     H56812   2.141  10.440  10.108  0.0337  0.1769 -1.3970
  421MOL0     H56813   1.966  10.204  10.044 -0.8111  0.3796 -1.9691
  421MOL0     H56814   2.134  10.226   9.984 -0.8041  0.6207  0.9851
  421MOL0     H56815   2.034  10.280   9.788 -2.0591 -1.1851 -1.1379
  421MOL0     H56816   2.062  10.430   9.871 -1.3438  0.3993 -1.5295
  421MOL0     H56817   2.395   9.891  10.763 -1.6951  0.2031 -1.9484
  421MOL0     H56818   2.461   9.699  10.920  1.2756  2.2378 -0.7779
  421MOL0     H56819   2.723   9.310  10.929 -2.9470 -1.5754 -1.6773
  421MOL0     H56820   2.853   9.180  11.095  0.2438 -1.5187  1.6422
  421MOL0     H56821   3.155   8.598  11.048 -1.7227  0.0219  0.4603
  421MOL0     H56822   3.038   8.732  10.883  0.5169 -0.0076  0.4500
  421MOL0     H56823   2.828   8.769  10.414 -3.1454 -1.8426  0.1991
  421MOL0     H56824   2.650   8.942  10.360 -2.3785  0.7365  1.4474
  421MOL0     H56825   2.533   9.097  10.321  0.0102 -0.0133 -0.2182
  421MOL0     H56826   2.429   9.000  10.438 -2.6894  1.5135  2.8918
  421MOL0     H56827   2.373   9.295  10.382 -1.6099 -0.5855 -3.9126
  421MOL0     H56828   2.305   9.199  10.511  0.1666  0.4440 -0.5069
  421MOL0     H56829   2.296   9.084  10.225 -3.3482 -3.6904  0.8541
  421MOL0     H56830   2.194   9.212  10.255 -2.9666 -2.0744 -1.1370
  421MOL0     H56831   2.049   9.050  10.311 -0.7964  1.1846  1.8131
  421MOL0     H56832   2.120   9.054  10.471 -0.8542 -1.6376 -0.1439
  421MOL0     H56833   2.244   8.681  10.324 -1.6523 -0.7628  2.0963
  421MOL0     H56834   2.714   9.162  10.702 -1.6228 -0.3080 -0.7904
  421MOL0     H56835   2.924   9.005  10.755 -0.9809 -0.4824  0.3342
  422MOL0     O56836   2.353   4.238  10.319  0.6155  0.7038 -0.1797
  422MOL0     C56837   2.260   4.287  10.374 -0.3126 -0.3658  0.5394
  422MOL0     O56838   2.159   4.339  10.308  0.8621  0.1330  0.5027
  422MOL0     C56839   2.171   4.342  10.173 -0.0691  0.1559 -0.2759
  422MOL0     C56840   2.071   4.271  10.108  0.4709 -0.0831  1.7112
  422MOL0     C56841   2.080   4.249   9.969  0.4624  0.2277 -0.2170
  422MOL0     C56842   2.179   4.303   9.892 -0.4591 -0.3894  0.0193
  422MOL0     O56843   2.164   4.274   9.758 -0.0331 -0.4444 -0.0369
  422MOL0     C56844   2.267   4.320   9.676  0.5431 -0.6017 -0.1894
  422MOL0     C56845   2.228   4.458   9.611  0.5238  1.3418  1.0451
  422MOL0     C56846   2.320   4.501   9.499  0.3277 -0.2016  0.2854
  422MOL0     C56847   2.285   4.644   9.464 -0.1185 -0.1006  0.0164
  422MOL0     C56848   2.376   4.687   9.348  0.2578 -0.7143 -0.0698
  422MOL0     C56849   2.356   4.834   9.322 -0.0304  0.6179  1.0413
  422MOL0     C56850   2.415   4.875   9.185  0.3535 -0.3442 -0.8474
  422MOL0     C56851   2.439   5.022   9.161 -0.1258 -0.1545 -0.2840
  422MOL0     N56852   2.318   5.100   9.167 -1.0111  0.5758 -0.3797
  422MOL0     C56853   2.201   5.072   9.104 -0.3811 -0.5478  1.0459
  422MOL0     C56854   2.124   5.178   9.135 -1.1719  0.1762  0.6913
  422MOL0     C56855   1.991   5.217   9.077  0.2097 -0.0653 -0.2826
  422MOL0     C56856   2.002   5.324   8.966  0.4346  0.0817  0.5094
  422MOL0     C56857   2.078   5.288   8.840 -0.0315 -0.5299  0.0292
  422MOL0     C56858   2.039   5.393   8.725 -0.2257 -0.7722  0.9668
  422MOL0     O56859   1.899   5.385   8.701 -0.2622 -0.7546 -1.0583
  422MOL0     C56860   1.857   5.431   8.582  0.2566 -0.4474  0.4135
  422MOL0     C56861   1.739   5.389   8.532  0.1237 -0.0892  0.6264
  422MOL0     C56862   1.696   5.423   8.400 -0.8541  0.7013  0.2846
  422MOL0     C56863   1.579   5.347   8.350 -0.5564  0.5610 -0.3159
  422MOL0     C56864   1.767   5.515   8.323 -0.0269 -0.0232 -0.0429
  422MOL0     C56865   1.721   5.555   8.192 -0.0437 -0.1623 -0.4537
  422MOL0     O56866   1.810   5.631   8.122  0.3877 -0.2993 -0.2258
  422MOL0     C56867   1.817   5.639   7.986 -0.5392  0.1272 -0.1780
  422MOL0     C56868   1.784   5.523   7.915 -0.1788  0.7908  0.4394
  422MOL0     C56869   1.820   5.506   7.771 -1.6259 -0.6651 -0.8194
  422MOL0     C56870   1.897   5.608   7.709 -0.1557  0.9350  0.3483
  422MOL0     O56871   1.916   5.608   7.574 -0.6959 -0.3482  0.2624
  422MOL0     C56872   1.988   5.491   7.513  0.2355 -0.6543  0.6070
  422MOL0     C56873   2.114   5.549   7.437 -0.1733 -0.8995  0.5738
  422MOL0     C56874   2.162   5.462   7.331 -0.5074 -0.8764 -0.5806
  422MOL0     C56875   2.285   5.517   7.256 -0.2164 -0.3698  0.2691
  422MOL0     C56876   2.312   5.438   7.129  0.1440  0.2993 -0.1946
  422MOL0     C56877   2.451   5.468   7.078 -0.3530  0.9298  0.6974
  422MOL0     C56878   2.485   5.354   6.970 -0.1322  0.9869 -0.5555
  422MOL0     C56879   2.585   5.408   6.859 -0.4299 -0.1103 -0.5479
  422MOL0    Cl56880   2.511   5.527   6.744 -0.3688 -0.4441 -0.0854
  422MOL0     C56881   1.929   5.722   7.784  0.0630 -0.7644  0.3739
  422MOL0     C56882   1.896   5.736   7.921 -0.0462 -0.0025 -0.1159
  422MOL0     O56883   1.606   5.551   8.162 -0.2549 -0.7076  0.5104
  422MOL0     C56884   1.888   5.559   8.380 -0.4956  0.3130 -0.3273
  422MOL0     C56885   1.927   5.521   8.505 -0.4583  0.3847 -0.0900
  422MOL0     N56886   2.194   5.258   9.221  0.2322 -0.0069 -0.2188
  422MOL0     N56887   2.310   5.212   9.250 -0.9790 -0.1897  0.8821
  422MOL0     C56888   2.278   4.380   9.960  0.2158  0.0581  0.2076
  422MOL0     C56889   2.281   4.392  10.099 -0.2198 -0.7597 -0.3769
  422MOL0     C56890   2.248   4.258  10.520  0.0650  0.4520  0.6120
  422MOL0     C56891   2.334   4.164  10.581 -0.4354  0.8205 -0.0308
  422MOL0     C56892   2.310   4.128  10.706  0.2951 -0.5302 -0.3402
  422MOL0     C56893   2.211   4.193  10.776 -0.3742 -0.4230  0.3458
  422MOL0     O56894   2.180   4.164  10.906 -0.9703 -0.0631 -0.1698
  422MOL0     C56895   2.120   4.037  10.929 -1.4609  0.1854 -0.0073
  422MOL0     C56896   1.966   4.036  10.936 -0.3951  0.2465 -0.1197
  422MOL0     C56897   1.910   3.901  10.972  1.0107 -0.3833 -0.5838
  422MOL0     C56898   1.962   3.845  11.103  0.4417  0.7626  0.2751
  422MOL0     C56899   1.975   3.935  11.218  0.2493 -0.1466 -0.1079
  422MOL0     C56900   1.979   3.993  11.324 -0.1931 -0.0013 -0.1050
  422MOL0     C56901   2.113   4.273  10.717  0.0863 -0.5229 -0.5990
  422MOL0     C56902   2.134   4.307  10.591 -0.3016 -0.1112 -0.3282
  422MOL0     H56903   1.988   4.225  10.160  0.7929 -1.5105  1.0099
  422MOL0     H56904   1.999   4.195   9.922  0.8614 -2.4319  1.9105
  422MOL0     H56905   2.367   4.314   9.718  0.4557 -3.5109 -0.2359
  422MOL0     H56906   2.281   4.245   9.598  2.4120 -0.5595  0.0633
  422MOL0     H56907   2.135   4.441   9.557  0.7921  1.8273  0.4071
  422MOL0     H56908   2.222   4.535   9.689 -0.7584 -0.2963  2.6334
  422MOL0     H56909   2.425   4.499   9.529  0.5842 -1.7709 -0.6115
  422MOL0     H56910   2.312   4.423   9.423  2.1540 -0.5929  0.4412
  422MOL0     H56911   2.179   4.639   9.434 -0.3301 -0.2391  0.7665
  422MOL0     H56912   2.289   4.718   9.544 -2.7510 -1.5468  1.6355
  422MOL0     H56913   2.479   4.679   9.385  0.7666  3.1583 -0.2228
  422MOL0     H56914   2.360   4.614   9.269 -3.6230  2.4843 -2.6412
  422MOL0     H56915   2.250   4.857   9.330 -0.5230 -1.5169  1.2260
  422MOL0     H56916   2.408   4.890   9.401  1.9017  0.6764 -0.1995
  422MOL0     H56917   2.514   4.831   9.172 -0.9745 -3.2894 -1.7723
  422MOL0     H56918   2.354   4.834   9.104 -1.8441 -1.4475  1.2495
  422MOL0     H56919   2.487   5.036   9.064 -0.4768  1.5718 -0.2497
  422MOL0     H56920   2.507   5.060   9.237 -0.7315  0.9991 -0.2849
  422MOL0     H56921   2.179   4.994   9.032 -2.6011 -1.9723  3.1368
  422MOL0     H56922   1.935   5.135   9.032 -0.3724  1.0317 -1.6177
  422MOL0     H56923   1.938   5.266   9.160 -0.4291  0.2966 -0.8889
  422MOL0     H56924   2.059   5.409   9.006 -0.9761  1.6371 -0.6594
  422MOL0     H56925   1.904   5.363   8.939  0.4651 -0.9574 -1.1978
  422MOL0     H56926   2.047   5.187   8.811 -1.0932 -0.1457 -0.2213
  422MOL0     H56927   2.186   5.279   8.856 -0.2493 -2.0441  0.7166
  422MOL0     H56928   2.086   5.366   8.629 -1.4865  0.4300 -0.0212
  422MOL0     H56929   2.061   5.499   8.743 -3.5527 -0.2011  2.2850
  422MOL0     H56930   1.677   5.325   8.594  1.1604  0.2773  2.0825
  422MOL0     H56931   1.548   5.287   8.436 -0.5503  3.6817  2.0703
  422MOL0     H56932   1.494   5.412   8.323 -1.2084 -1.2922 -3.1923
  422MOL0     H56933   1.610   5.292   8.261  0.2085  1.1653 -0.4359
  422MOL0     H56934   1.738   5.442   7.972  0.0465  1.0626  1.0168
  422MOL0     H56935   1.797   5.416   7.716  3.6097 -2.9207  0.1175
  422MOL0     H56936   2.023   5.419   7.587  1.0832  0.9413  1.7957
  422MOL0     H56937   1.915   5.448   7.443  0.6979 -3.1010  1.5215
  422MOL0     H56938   2.076   5.637   7.384  2.8056  0.2439  0.1540
  422MOL0     H56939   2.189   5.576   7.512 -3.1353  0.3664  3.3140
  422MOL0     H56940   2.075   5.443   7.267 -0.9290  0.3493 -0.3815
  422MOL0     H56941   2.194   5.367   7.377  1.3481 -0.3561 -0.7197
  422MOL0     H56942   2.261   5.620   7.227 -0.5291 -0.1127  1.3819
  422MOL0     H56943   2.372   5.521   7.322 -0.8551  0.6028  1.0940
  422MOL0     H56944   2.240   5.468   7.052  1.0795  2.4711 -0.3118
  422MOL0     H56945   2.284   5.336   7.156 -1.5539 -0.3106 -3.6396
  422MOL0     H56946   2.447   5.571   7.041  0.0360  0.9645  0.7449
  422MOL0     H56947   2.524   5.472   7.159  0.4644  1.0622 -0.0355
  422MOL0     H56948   2.397   5.310   6.922 -1.1449  1.4940  0.7418
  422MOL0     H56949   2.528   5.272   7.029  2.1348  1.6055 -1.2534
  422MOL0     H56950   2.624   5.324   6.802 -2.5794 -1.3794 -0.2825
  422MOL0     H56951   2.667   5.462   6.907 -0.1816  0.3779 -1.5159
  422MOL0     H56952   1.989   5.794   7.729 -0.5144  0.0742  0.8241
  422MOL0     H56953   1.918   5.821   7.986  2.3509 -0.8593  0.2968
  422MOL0     H56954   1.958   5.623   8.327  2.3343 -0.3900  2.2745
  422MOL0     H56955   2.012   5.577   8.543 -0.4640  0.2010  0.2010
  422MOL0     H56956   2.363   4.414   9.901 -0.1827  0.3047 -0.2265
  422MOL0     H56957   2.370   4.431  10.148  1.1884 -1.2486 -2.4303
  422MOL0     H56958   2.404   4.112  10.517  0.0988  2.4055 -0.7908
  422MOL0     H56959   2.364   4.051  10.762  2.3296  2.3092  1.9554
  422MOL0     H56960   2.145   3.967  10.848 -2.8032  0.1491 -0.4044
  422MOL0     H56961   2.159   4.007  11.027 -2.3555  0.3554  0.4094
  422MOL0     H56962   1.917   4.073  10.845 -2.2928 -3.0850 -0.6024
  422MOL0     H56963   1.939   4.104  11.017  0.3268  0.0377  0.3096
  422MOL0     H56964   1.938   3.829  10.894  2.3924  0.1199 -0.5855
  422MOL0     H56965   1.801   3.901  10.980  1.1493 -0.0256  2.2256
  422MOL0     H56966   2.057   3.792  11.092 -0.3289 -0.7301  0.6759
  422MOL0     H56967   1.899   3.761  11.131  1.1217 -0.0247 -0.4804
  422MOL0     H56968   1.985   4.031  11.424  0.7356 -0.4017  0.0033
  422MOL0     H56969   2.024   4.304  10.771  1.0762  1.9498 -0.2333
  422MOL0     H56970   2.065   4.376  10.543  2.1375  2.3835 -0.5294
  423MOL0     O56971   5.068   2.448   5.428 -1.0058 -0.2710  0.0168
  423MOL0     C56972   4.951   2.471   5.455  0.7396 -0.0587  0.4267
  423MOL0     O56973   4.892   2.457   5.575  0.1009  0.1750 -0.6149
  423MOL0     C56974   4.967   2.414   5.672  0.5611  0.1544  0.7699
  423MOL0     C56975   4.991   2.282   5.707 -0.2533 -0.2978 -0.0866
  423MOL0     C56976   5.049   2.251   5.831 -1.8017 -0.8012 -0.5958
  423MOL0     C56977   5.090   2.341   5.930  0.5904 -0.2105 -0.0269
  423MOL0     O56978   5.161   2.309   6.042 -0.1976  0.9802  0.1586
  423MOL0     C56979   5.162   2.390   6.165 -0.5159  0.0094 -0.2217
  423MOL0     C56980   5.026   2.395   6.241  0.2244  0.4180 -0.5310
  423MOL0     C56981   4.919   2.479   6.175 -0.2723  0.6540 -0.4150
  423MOL0     C56982   4.781   2.466   6.246 -0.6159 -0.1789 -0.5592
  423MOL0     C56983   4.685   2.549   6.166  0.8045  1.2341  0.0074
  423MOL0     C56984   4.538   2.539   6.218  0.9700  0.4354 -0.1764
  423MOL0     C56985   4.455   2.429   6.145  0.0440  1.0251  0.1441
  423MOL0     C56986   4.330   2.382   6.223 -0.6518  0.1951 -0.9321
  423MOL0     N56987   4.230   2.491   6.217 -0.1815 -0.0482  1.4166
  423MOL0     C56988   4.128   2.488   6.120  0.0609 -0.2195  0.3118
  423MOL0     C56989   4.050   2.590   6.151 -0.6595 -0.9164  0.4348
  423MOL0     C56990   3.925   2.614   6.075  0.2827  0.3318 -0.3329
  423MOL0     C56991   3.817   2.496   6.070  0.3870 -0.3220 -0.4316
  423MOL0     C56992   3.673   2.548   6.052 -0.5239 -0.8939  0.0897
  423MOL0     C56993   3.656   2.604   5.911  0.7583  0.4961  0.5307
  423MOL0     O56994   3.517   2.622   5.907 -0.0339  0.3974 -0.2052
  423MOL0     C56995   3.455   2.632   5.788 -1.3591 -0.0796  0.2964
  423MOL0     C56996   3.318   2.617   5.785  0.1206  1.0118  1.2012
  423MOL0     C56997   3.244   2.637   5.663  0.8367  0.2767 -0.4570
  423MOL0     C56998   3.089   2.621   5.677 -0.0789  0.1825  0.1768
  423MOL0     C56999   3.317   2.668   5.547 -0.6065  0.6625  0.8950
  423MOL0     C57000   3.256   2.690   5.412  0.2040  0.3333  0.0528
  423MOL0     O57001   3.335   2.698   5.301  0.2692  0.3675 -0.7483
  423MOL0     C57002   3.277   2.735   5.185 -0.2331  0.1763 -0.8061
  423MOL0     C57003   3.270   2.869   5.150  0.1056 -0.8304  0.1988
  423MOL0     C57004   3.201   2.918   5.034 -0.4780  0.0585  0.1562
  423MOL0     C57005   3.155   2.820   4.945  0.8637  0.7622 -1.2328
  423MOL0     O57006   3.085   2.860   4.837 -0.1121 -0.4386  0.5206
  423MOL0     C57007   3.128   2.801   4.709  0.3128  0.0660 -0.3564
  423MOL0     C57008   3.061   2.879   4.592 -0.4346  0.3300 -0.8503
  423MOL0     C57009   2.910   2.881   4.605 -0.3865  0.6724  0.3706
  423MOL0     C57010   2.839   2.923   4.472 -0.2262  0.1153 -0.1765
  423MOL0     C57011   2.689   2.907   4.492  0.4025 -0.9946 -0.1627
  423MOL0     C57012   2.605   2.958   4.378  0.3338  0.0045 -0.0604
  423MOL0     C57013   2.616   3.112   4.352  0.2385  0.0825  0.7413
  423MOL0     C57014   2.587   3.210   4.456  0.0816 -0.7060 -0.0656
  423MOL0    Cl57015   2.429   3.179   4.533  0.1125  0.4416 -0.4516
  423MOL0     C57016   3.156   2.682   4.982  0.5468 -0.1952  0.6821
  423MOL0     C57017   3.215   2.638   5.101  0.0787 -0.2239 -1.4271
  423MOL0     O57018   3.137   2.717   5.406  0.1968 -0.0389  0.8159
  423MOL0     C57019   3.456   2.679   5.550  1.0990  0.2804  0.7355
  423MOL0     C57020   3.526   2.664   5.670 -0.2167  0.3133  0.2867
  423MOL0     N57021   4.104   2.661   6.257 -1.0932 -0.5633 -0.0738
  423MOL0     N57022   4.216   2.600   6.287 -0.4718  0.4850 -0.6110
  423MOL0     C57023   5.064   2.474   5.892 -0.2625 -0.9392  0.6081
  423MOL0     C57024   5.013   2.510   5.767  0.1463 -0.3097 -0.4953
  423MOL0     C57025   4.869   2.530   5.353  0.8920  0.1616 -0.6829
  423MOL0     C57026   4.921   2.572   5.226 -0.3273  0.1848  0.5646
  423MOL0     C57027   4.842   2.634   5.131  0.0505 -0.6583  0.6116
  423MOL0     C57028   4.700   2.639   5.151 -0.3392  1.1867 -0.6407
  423MOL0     O57029   4.604   2.684   5.069  0.0653 -0.1742  0.1550
  423MOL0     C57030   4.651   2.724   4.935 -0.0595  0.8700 -0.5968
  423MOL0     C57031   4.540   2.773   4.842 -0.0193  0.1615 -0.4938
  423MOL0     C57032   4.452   2.658   4.797 -0.1686  0.6003 -0.4900
  423MOL0     C57033   4.334   2.685   4.724  0.2806  0.3223  0.7416
  423MOL0     C57034   4.257   2.792   4.788 -0.6248  0.1296  0.8113
  423MOL0     C57035   4.218   2.890   4.842  0.4204 -0.4563  0.2488
  423MOL0     C57036   4.652   2.598   5.283  0.5417 -0.2583  0.2907
  423MOL0     C57037   4.731   2.547   5.379  0.7416 -0.0372 -0.1909
  423MOL0     H57038   4.950   2.198   5.651  0.1564  0.5254 -1.7011
  423MOL0     H57039   5.062   2.146   5.857 -2.3195 -0.8993 -0.7190
  423MOL0     H57040   5.244   2.364   6.231  1.0273  2.4150 -1.0621
  423MOL0     H57041   5.183   2.494   6.137  0.2049 -0.3336 -1.0089
  423MOL0     H57042   4.986   2.295   6.261  2.9973 -0.9822 -1.4771
  423MOL0     H57043   5.047   2.442   6.337 -2.2676 -1.8024  1.2590
  423MOL0     H57044   4.954   2.583   6.177 -1.4351  1.0457  0.2054
  423MOL0     H57045   4.914   2.443   6.072 -0.3772 -1.3651  0.2610
  423MOL0     H57046   4.742   2.366   6.264  1.7587 -1.4913 -2.1378
  423MOL0     H57047   4.807   2.518   6.339  0.7861 -0.1209 -0.9523
  423MOL0     H57048   4.728   2.649   6.155 -2.8108  3.0215  0.6650
  423MOL0     H57049   4.682   2.515   6.063 -1.1596  0.0361  0.4117
  423MOL0     H57050   4.551   2.514   6.323  1.4099  1.1106 -0.0640
  423MOL0     H57051   4.474   2.628   6.213  0.3883 -0.0384 -1.9590
  423MOL0     H57052   4.436   2.466   6.043 -1.0677  2.4447  0.8173
  423MOL0     H57053   4.520   2.342   6.137 -0.3326 -0.7826  8.3830
  423MOL0     H57054   4.361   2.369   6.327 -3.5789 -0.7384 -0.0811
  423MOL0     H57055   4.276   2.293   6.191 -1.6560  0.5632 -0.3294
  423MOL0     H57056   4.118   2.414   6.041 -2.7594  0.8883 -0.5070
  423MOL0     H57057   3.884   2.705   6.120  0.2798  0.2823 -0.2382
  423MOL0     H57058   3.939   2.630   5.967 -3.1433  3.2937 -0.5213
  423MOL0     H57059   3.822   2.442   6.164 -1.0973 -1.0902 -0.7692
  423MOL0     H57060   3.835   2.432   5.983 -2.2826 -3.3372  1.0538
  423MOL0     H57061   3.654   2.625   6.128  0.5841 -1.2358  0.7414
  423MOL0     H57062   3.600   2.467   6.048 -0.6362 -0.7714 -0.3088
  423MOL0     H57063   3.696   2.534   5.838 -1.0331 -0.8691  0.8029
  423MOL0     H57064   3.707   2.699   5.893 -1.0352  1.2292 -1.0771
  423MOL0     H57065   3.266   2.600   5.879 -1.5819  1.0619  0.3209
  423MOL0     H57066   3.043   2.716   5.648 -1.2889 -0.7077 -0.9241
  423MOL0     H57067   3.039   2.550   5.611 -4.0246  2.5892  0.2121
  423MOL0     H57068   3.069   2.606   5.784  1.6324  2.4505  0.8950
  423MOL0     H57069   3.308   2.932   5.231  1.2372 -0.3971 -0.6383
  423MOL0     H57070   3.175   3.019   5.004  0.6782 -0.2629 -2.1245
  423MOL0     H57071   3.236   2.811   4.698  0.2588  1.2955  0.0582
  423MOL0     H57072   3.091   2.699   4.693 -1.8317  0.9487 -1.4832
  423MOL0     H57073   3.102   2.980   4.597  0.0413  0.2117 -2.1363
  423MOL0     H57074   3.089   2.827   4.500  1.8752  0.8683 -0.5119
  423MOL0     H57075   2.872   2.949   4.682 -3.2441  1.2997 -1.4604
  423MOL0     H57076   2.871   2.785   4.640 -0.2898 -0.2698 -1.9685
  423MOL0     H57077   2.853   3.029   4.450 -1.9219  1.9172  5.5857
  423MOL0     H57078   2.879   2.862   4.390  0.2540 -0.8875  0.7809
  423MOL0     H57079   2.655   2.952   4.586  0.3416  1.3423 -1.2300
  423MOL0     H57080   2.673   2.800   4.507  1.2440 -0.9318  1.4620
  423MOL0     H57081   2.657   2.926   4.287  2.2684  2.6766 -0.0267
  423MOL0     H57082   2.503   2.922   4.388  0.4525 -0.0124  1.3039
  423MOL0     H57083   2.529   3.134   4.289  1.6977 -0.7407 -1.6969
  423MOL0     H57084   2.710   3.147   4.310  0.0942 -0.3121  0.0650
  423MOL0     H57085   2.593   3.314   4.422 -2.9066  0.6245  2.9693
  423MOL0     H57086   2.663   3.196   4.534  0.3071 -2.0286 -0.4857
  423MOL0     H57087   3.115   2.608   4.914  0.3851  2.3539 -2.2009
  423MOL0     H57088   3.209   2.532   5.124 -2.5203  0.0189 -0.7087
  423MOL0     H57089   3.514   2.690   5.458  1.1334 -1.4866  0.5121
  423MOL0     H57090   3.635   2.664   5.666 -0.2531  0.3579 -1.7990
  423MOL0     H57091   5.108   2.562   5.938 -0.5265 -0.4186 -0.1293
  423MOL0     H57092   4.991   2.606   5.722  0.9301 -1.6853 -4.1965
  423MOL0     H57093   5.027   2.559   5.204 -0.4108 -1.8942  1.1689
  423MOL0     H57094   4.894   2.661   5.039 -0.4152 -1.8817 -0.0403
  423MOL0     H57095   4.698   2.817   4.967  0.0426  0.6571 -0.1266
  423MOL0     H57096   4.711   2.642   4.894  1.4245  0.4093  2.2411
  423MOL0     H57097   4.583   2.832   4.760 -1.4695 -0.0004 -1.4015
  423MOL0     H57098   4.490   2.851   4.900  2.2465  2.0964 -0.9606
  423MOL0     H57099   4.423   2.594   4.881 -0.9677 -5.7463 -4.9052
  423MOL0     H57100   4.519   2.586   4.750 -2.2733 -2.6128  1.1230
  423MOL0     H57101   4.270   2.596   4.723  0.0143  0.4784  2.1920
  423MOL0     H57102   4.343   2.719   4.620  1.7109  2.1648  1.4147
  423MOL0     H57103   4.196   2.984   4.888  1.2737  1.6528 -3.2729
  423MOL0     H57104   4.545   2.601   5.301  0.3719  0.5847 -0.7985
  423MOL0     H57105   4.672   2.526   5.468 -0.6940  0.0514 -1.0839
  424MOL0     O57106   7.104   0.083   0.358  0.2167 -0.0819 -0.7389
  424MOL0     C57107   7.165   0.060   0.257 -0.1311  0.4892 -0.0105
  424MOL0     O57108   7.118  -0.006   0.150 -0.1836  0.9104  0.5051
  424MOL0     C57109   6.985  -0.048   0.128 -0.1502 -0.6743 -0.1862
  424MOL0     C57110   6.916   0.011   0.031  0.0448  0.1002  0.3239
  424MOL0     C57111   6.787  -0.025   0.003 -0.1100  1.1654  0.0177
  424MOL0     C57112   6.719  -0.121   0.076 -0.3230  0.6425  0.7818
  424MOL0     O57113   6.598  -0.177   0.040 -0.1197  0.4303  0.2450
  424MOL0     C57114   6.522  -0.121  -0.071  0.5502 -0.2598 -0.8838
  424MOL0     C57115   6.380  -0.171  -0.103  0.3284 -0.8614 -0.0642
  424MOL0     C57116   6.340  -0.316  -0.071 -0.4454  0.2595  0.5594
  424MOL0     C57117   6.433  -0.419  -0.143  0.7664 -0.0898  0.3913
  424MOL0     C57118   6.446  -0.409  -0.290  0.3349  0.8348  0.4341
  424MOL0     C57119   6.312  -0.441  -0.359  0.3498 -0.3116 -0.4806
  424MOL0     C57120   6.315  -0.362  -0.498  1.1958 -0.8381 -0.0624
  424MOL0     C57121   6.186  -0.381  -0.572  0.4237  0.1044  0.2093
  424MOL0     N57122   6.063  -0.332  -0.506 -0.1411  0.5814  0.4410
  424MOL0     C57123   5.986  -0.404  -0.412  0.5278  0.1401 -0.4616
  424MOL0     C57124   5.913  -0.312  -0.345 -0.1234 -0.3749  0.0583
  424MOL0     C57125   5.840  -0.329  -0.219 -0.5209 -0.5247  0.2629
  424MOL0     C57126   5.918  -0.279  -0.098 -1.2414  0.1605  0.2941
  424MOL0     C57127   5.840  -0.289   0.033 -0.8285 -0.5960  0.2507
  424MOL0     C57128   5.908  -0.222   0.148  0.2448 -0.4616  0.5428
  424MOL0     O57129   6.019  -0.310   0.188 -0.2675 -0.6464  0.4998
  424MOL0     C57130   6.119  -0.272   0.281  1.1286  0.1894 -0.8936
  424MOL0     C57131   6.126  -0.153   0.347 -0.2716  0.0506  0.0416
  424MOL0     C57132   6.245  -0.105   0.409 -0.3352  0.8481  0.1791
  424MOL0     C57133   6.254   0.027   0.470 -0.2351  0.9827 -0.6901
  424MOL0     C57134   6.358  -0.192   0.421  0.9408  0.5061  0.6311
  424MOL0     C57135   6.478  -0.168   0.499 -0.5692 -0.4105  0.2592
  424MOL0     O57136   6.534  -0.037   0.518 -0.3046  0.2670 -0.1122
  424MOL0     C57137   6.631  -0.027   0.606  0.5884 -0.3753  0.0065
  424MOL0     C57138   6.747   0.024   0.562 -0.1695 -0.3058 -0.0003
  424MOL0     C57139   6.846   0.071   0.655  1.2402 -0.3015 -0.1795
  424MOL0     C57140   6.820   0.072   0.793  0.6278  0.2880  0.1780
  424MOL0     O57141   6.902   0.131   0.887  0.4506  0.1308  0.2800
  424MOL0     C57142   6.931   0.265   0.865 -0.8717  0.4010  0.0154
  424MOL0     C57143   7.082   0.291   0.905  0.0756  1.2420  0.6746
  424MOL0     C57144   7.181   0.241   0.796  1.0315  0.2328 -0.0752
  424MOL0     C57145   7.190   0.088   0.807 -1.0181  0.6205  0.1729
  424MOL0     C57146   7.291   0.025   0.707  0.5790  0.4716  0.6570
  424MOL0     C57147   7.272  -0.126   0.677  0.7343  0.0076  0.2462
  424MOL0     C57148   7.128  -0.166   0.645 -1.2443 -0.3299 -0.5515
  424MOL0     C57149   7.045  -0.225   0.774 -0.2976  0.8004 -0.3727
  424MOL0    Cl57150   7.136  -0.366   0.847  0.1656 -0.3743  0.1760
  424MOL0     C57151   6.700   0.015   0.841 -0.6856 -0.2354  0.3593
  424MOL0     C57152   6.608  -0.040   0.753  0.3603 -0.1281  0.4726
  424MOL0     O57153   6.528  -0.276   0.549  0.3485 -0.8228 -0.4507
  424MOL0     C57154   6.347  -0.317   0.356  0.0981  0.0710  0.9728
  424MOL0     C57155   6.229  -0.354   0.287  0.3382  1.3108 -0.0267
  424MOL0     N57156   5.916  -0.192  -0.415 -0.5098 -0.3546  0.6507
  424MOL0     N57157   6.013  -0.203  -0.504 -0.8724  0.0674  0.2842
  424MOL0     C57158   6.787  -0.176   0.177  0.7805 -0.4459  0.7419
  424MOL0     C57159   6.926  -0.141   0.207 -0.5559  0.4403  0.2690
  424MOL0     C57160   7.301   0.119   0.239  0.9760  0.0133 -0.5555
  424MOL0     C57161   7.366   0.186   0.339 -0.1034 -0.3439 -0.3034
  424MOL0     C57162   7.504   0.220   0.324 -0.6675  0.6141 -1.4080
  424MOL0     C57163   7.576   0.192   0.205 -0.7837  0.3496 -0.6182
  424MOL0     O57164   7.709   0.220   0.181  0.0805  0.0345 -0.2566
  424MOL0     C57165   7.794   0.244   0.299 -0.4188 -0.1691 -0.3427
  424MOL0     C57166   7.843   0.388   0.313  0.6432  0.9092 -0.8985
  424MOL0     C57167   7.941   0.423   0.210  0.2583 -0.1717  0.2353
  424MOL0     C57168   7.879   0.510   0.097  0.1145  0.4579 -0.0942
  424MOL0     C57169   7.995   0.533   0.007  0.0860 -0.3510  0.7088
  424MOL0     C57170   8.087   0.552  -0.072 -0.0750  0.0750 -0.6237
  424MOL0     C57171   7.508   0.139   0.096 -1.1351  0.0644 -0.6906
  424MOL0     C57172   7.381   0.090   0.120  0.1157  0.0411 -0.0678
  424MOL0     H57173   6.966   0.077  -0.038 -0.1150 -1.1762 -1.0799
  424MOL0     H57174   6.746   0.021  -0.087  0.8335 -1.8608 -2.1331
  424MOL0     H57175   6.520  -0.012  -0.068  2.5094 -0.0467 -3.5890
  424MOL0     H57176   6.582  -0.153  -0.157  1.0652  0.1714 -0.6889
  424MOL0     H57177   6.306  -0.110  -0.050  0.3781 -2.2309  1.6932
  424MOL0     H57178   6.357  -0.141  -0.205 -0.1293  0.6692  0.4682
  424MOL0     H57179   6.337  -0.335   0.037 -2.9815 -1.4477  0.2776
  424MOL0     H57180   6.241  -0.344  -0.108  1.4500 -5.1655 -1.3977
  424MOL0     H57181   6.532  -0.399  -0.099  1.4601  1.8308 -1.8566
  424MOL0     H57182   6.398  -0.519  -0.116  1.0079 -0.5925 -1.0806
  424MOL0     H57183   6.489  -0.314  -0.324  0.6822  0.8328  0.8621
  424MOL0     H57184   6.520  -0.481  -0.325 -0.6930  0.0947 -0.2834
  424MOL0     H57185   6.292  -0.548  -0.367  2.4210 -0.7013 -1.1156
  424MOL0     H57186   6.224  -0.404  -0.307  0.2710 -2.3908  0.9881
  424MOL0     H57187   6.326  -0.254  -0.494  0.7324 -0.5201 -3.6820
  424MOL0     H57188   6.397  -0.391  -0.564  1.1371 -1.1586  0.0037
  424MOL0     H57189   6.168  -0.488  -0.587  0.9274  0.2173 -1.4093
  424MOL0     H57190   6.199  -0.332  -0.669  0.7801  0.9370  0.6673
  424MOL0     H57191   6.003  -0.508  -0.385  1.3899  0.4607  0.2678
  424MOL0     H57192   5.746  -0.274  -0.212  0.0567  0.3282  1.7103
  424MOL0     H57193   5.809  -0.433  -0.210 -0.6662 -0.6453 -1.2628
  424MOL0     H57194   5.946  -0.174  -0.108  0.8423 -0.1341  2.1935
  424MOL0     H57195   6.007  -0.343  -0.096  1.1928  3.0554 -3.0051
  424MOL0     H57196   5.825  -0.393   0.064 -1.6643 -0.7559 -0.6631
  424MOL0     H57197   5.747  -0.237   0.010 -0.0785  0.9743  0.6124
  424MOL0     H57198   5.840  -0.216   0.233  2.9628 -2.5871  3.0663
  424MOL0     H57199   5.938  -0.118   0.134  0.4682 -0.6378 -0.3668
  424MOL0     H57200   6.044  -0.084   0.361 -0.2260 -0.4728  4.4053
  424MOL0     H57201   6.329   0.083   0.413  3.9259 -5.6766 -2.8397
  424MOL0     H57202   6.153   0.068   0.482 -0.9753 -1.3110  1.7924
  424MOL0     H57203   6.293   0.036   0.571 -1.6292  3.7006 -0.2908
  424MOL0     H57204   6.767   0.035   0.456 -0.9534 -1.6281 -0.3077
  424MOL0     H57205   6.927   0.134   0.619  1.4695 -0.5121 -0.0437
  424MOL0     H57206   6.912   0.307   0.767 -3.0447  2.0134  1.0636
  424MOL0     H57207   6.861   0.315   0.933 -1.6475 -1.3327  0.5526
  424MOL0     H57208   7.084   0.400   0.921 -3.1834  1.0839  3.3132
  424MOL0     H57209   7.101   0.248   1.003 -0.6833 -2.4834 -0.6757
  424MOL0     H57210   7.281   0.283   0.810  0.7939  1.0067 -0.6770
  424MOL0     H57211   7.135   0.275   0.703  1.3606 -2.1650 -1.2040
  424MOL0     H57212   7.217   0.071   0.912 -2.5686 -1.3451  0.3112
  424MOL0     H57213   7.092   0.046   0.782 -0.5690  0.0444 -0.6345
  424MOL0     H57214   7.392   0.050   0.740  0.6652 -1.5823  2.1575
  424MOL0     H57215   7.279   0.059   0.604  1.8390  0.0728  0.3676
  424MOL0     H57216   7.345  -0.149   0.599  2.2663 -1.8383  2.1086
  424MOL0     H57217   7.303  -0.183   0.765 -2.8563  0.3829  1.9395
  424MOL0     H57218   7.127  -0.246   0.570 -0.5728 -1.6385  0.7782
  424MOL0     H57219   7.075  -0.078   0.607 -0.7699  0.2493  0.1155
  424MOL0     H57220   6.951  -0.256   0.727  0.1499 -2.1116  0.4309
  424MOL0     H57221   7.037  -0.145   0.849 -0.2868  1.1295 -0.7204
  424MOL0     H57222   6.687   0.021   0.949 -2.1599  3.1489  0.1294
  424MOL0     H57223   6.511  -0.073   0.790  0.8119 -0.7276  1.1501
  424MOL0     H57224   6.429  -0.389   0.353  0.8380  0.8357  2.0155
  424MOL0     H57225   6.220  -0.451   0.239 -0.2437  1.1052  0.4871
  424MOL0     H57226   6.732  -0.252   0.233 -1.1870  0.8271  0.6275
  424MOL0     H57227   6.978  -0.190   0.288  0.9884 -2.2314 -2.1579
  424MOL0     H57228   7.319   0.199   0.437 -1.2952  2.0487 -1.1050
  424MOL0     H57229   7.555   0.277   0.401 -0.3120  1.6937 -2.4227
  424MOL0     H57230   7.742   0.227   0.394 -1.3783  1.3691 -0.5545
  424MOL0     H57231   7.885   0.184   0.290  0.6611  0.7015  3.1767
  424MOL0     H57232   7.899   0.384   0.406  0.8549 -2.6773 -1.0247
  424MOL0     H57233   7.763   0.463   0.315  1.7074  2.0740  1.4977
  424MOL0     H57234   7.984   0.334   0.164 -1.2257  0.0328 -1.6369
  424MOL0     H57235   8.026   0.468   0.262  2.4145 -2.1716 -1.3785
  424MOL0     H57236   7.848   0.611   0.125  0.8754  1.1957 -1.7440
  424MOL0     H57237   7.802   0.455   0.043 -0.1845 -1.1849  1.8894
  424MOL0     H57238   8.172   0.553  -0.138 -0.5783  3.2329 -1.3804
  424MOL0     H57239   7.569   0.110   0.011  1.9844 -2.3626  2.1256
  424MOL0     H57240   7.332   0.030   0.044  1.8044  2.5539 -3.3578
  425MOL0     O57241   3.074   0.580   9.954 -0.0823 -0.0780 -0.5704
  425MOL0     C57242   2.984   0.606   9.871  0.5259  0.2217 -0.4107
  425MOL0     O57243   2.917   0.512   9.796 -0.2665  0.5767 -0.4436
  425MOL0     C57244   2.984   0.400   9.787  0.5431 -0.8001  0.8542
  425MOL0     C57245   2.950   0.310   9.881 -0.5966  0.5430 -0.8701
  425MOL0     C57246   3.007   0.185   9.890  0.3605 -0.0446 -0.4002
  425MOL0     C57247   3.104   0.143   9.800  0.6359  0.0271  0.2541
  425MOL0     O57248   3.183   0.038   9.836  0.5248  0.3469 -0.4109
  425MOL0     C57249   3.283  -0.008   9.744  0.8621  0.3904  0.5215
  425MOL0     C57250   3.377  -0.098   9.820  0.2745 -0.6293  0.1376
  425MOL0     C57251   3.335  -0.246   9.801 -0.5169  0.0795 -0.1353
  425MOL0     C57252   3.436  -0.341   9.866 -0.5467 -0.6792  0.6823
  425MOL0     C57253   3.426  -0.480   9.824 -0.1782 -0.0706  1.1671
  425MOL0     C57254   3.547  -0.565   9.861 -0.1434 -0.0779  0.2536
  425MOL0     C57255   3.567  -0.703   9.784 -0.4013  0.9943 -0.4799
  425MOL0     C57256   3.496  -0.815   9.860 -0.9759 -0.2515  0.2171
  425MOL0     N57257   3.526  -0.935   9.775  0.4562  0.3244  0.8762
  425MOL0     C57258   3.423  -1.011   9.715 -0.2624  0.9158 -0.9730
  425MOL0     C57259   3.484  -1.124   9.682  0.2566 -0.3145 -0.4847
  425MOL0     C57260   3.402  -1.240   9.640  0.3470  0.1086  0.2855
  425MOL0     C57261   3.416  -1.262   9.488 -0.0058  0.4449 -1.1061
  425MOL0     C57262   3.559  -1.281   9.453 -0.1552  0.0301 -0.1922
  425MOL0     C57263   3.561  -1.321   9.309  0.2468 -1.1070 -0.6169
  425MOL0     O57264   3.698  -1.328   9.263 -0.6062  0.0277 -0.2447
  425MOL0     C57265   3.749  -1.456   9.285  0.5391 -1.0265 -0.0166
  425MOL0     C57266   3.697  -1.576   9.235 -0.0401 -0.7754  0.7011
  425MOL0     C57267   3.759  -1.698   9.258  0.5071  0.2575 -0.0409
  425MOL0     C57268   3.685  -1.818   9.203 -0.4210 -0.6770 -0.2358
  425MOL0     C57269   3.875  -1.711   9.347  0.6980 -0.3188 -0.0488
  425MOL0     C57270   3.938  -1.835   9.393 -0.4220 -0.4439  0.1158
  425MOL0     O57271   4.071  -1.821   9.411 -0.0218  0.1744 -0.0885
  425MOL0     C57272   4.149  -1.934   9.436  0.6616 -0.6553 -0.2725
  425MOL0     C57273   4.248  -1.964   9.345 -0.9178  0.0301 -0.4692
  425MOL0     C57274   4.342  -2.064   9.371  0.4369 -0.0901  0.6899
  425MOL0     C57275   4.334  -2.136   9.493 -0.7754  0.8001 -0.2459
  425MOL0     O57276   4.425  -2.237   9.517 -1.2729  0.5033 -0.3200
  425MOL0     C57277   4.477  -2.236   9.651 -0.8577 -0.1407  0.3104
  425MOL0     C57278   4.627  -2.274   9.656  0.5259  0.1222  0.2645
  425MOL0     C57279   4.636  -2.421   9.627 -0.1627  0.0758 -0.4437
  425MOL0     C57280   4.783  -2.468   9.631 -0.7728 -1.3906 -0.7509
  425MOL0     C57281   4.799  -2.601   9.560 -0.8042  0.3860 -0.8988
  425MOL0     C57282   4.948  -2.633   9.537  0.3506 -0.8053 -0.8632
  425MOL0     C57283   4.971  -2.784   9.524  0.4085  0.3229 -0.2930
  425MOL0     C57284   5.116  -2.816   9.499  0.0876  0.2205  0.7529
  425MOL0    Cl57285   5.208  -2.808   9.647  0.6677  0.4759  0.2302
  425MOL0     C57286   4.225  -2.116   9.581  0.5723 -0.5059 -0.2399
  425MOL0     C57287   4.137  -2.007   9.558  0.6745 -0.1066 -0.0029
  425MOL0     O57288   3.872  -1.941   9.391  0.4924  0.2689  0.1853
  425MOL0     C57289   3.935  -1.586   9.377 -0.1138  0.7498  0.6568
  425MOL0     C57290   3.869  -1.463   9.349 -0.3131 -0.7560  1.0653
  425MOL0     N57291   3.609  -1.125   9.732 -0.1257 -0.2466  0.2242
  425MOL0     N57292   3.635  -1.008   9.782 -0.1044  0.4692 -0.6205
  425MOL0     C57293   3.129   0.232   9.696  0.9041  0.0523 -0.0071
  425MOL0     C57294   3.064   0.356   9.687 -0.1195 -0.3074  0.0649
  425MOL0     C57295   2.941   0.759   9.856  0.6646 -0.2452  0.0181
  425MOL0     C57296   2.878   0.790   9.727  0.0801  0.3728 -0.8926
  425MOL0     C57297   2.840   0.923   9.700  0.1358 -0.4477 -0.0307
  425MOL0     C57298   2.875   1.026   9.787  0.8055 -0.3230 -0.3055
  425MOL0     O57299   2.850   1.156   9.766 -0.5307  0.5635  0.1421
  425MOL0     C57300   2.774   1.184   9.651  0.6064 -0.3921 -0.0126
  425MOL0     C57301   2.728   1.330   9.661  0.3051 -0.4641 -0.5139
  425MOL0     C57302   2.843   1.438   9.661 -0.4305  0.7144 -0.1702
  425MOL0     C57303   2.797   1.576   9.696 -0.6835  0.4525  0.3775
  425MOL0     C57304   2.696   1.632   9.610 -0.8043 -0.1293  0.1446
  425MOL0     C57305   2.593   1.665   9.553 -0.4431 -0.1960 -0.9478
  425MOL0     C57306   2.927   0.990   9.912  0.0785  0.9688 -0.0365
  425MOL0     C57307   2.960   0.853   9.951  0.1520 -0.6260  0.4752
  425MOL0     H57308   2.864   0.332   9.943 -0.3762  0.9527 -0.7038
  425MOL0     H57309   2.960   0.121   9.963 -0.4773  2.0463  1.0132
  425MOL0     H57310   3.235  -0.058   9.659  0.7183 -1.5669  1.6947
  425MOL0     H57311   3.341   0.077   9.706  0.9451 -0.6161 -1.7528
  425MOL0     H57312   3.475  -0.089   9.773  0.2308 -1.0572 -0.0425
  425MOL0     H57313   3.386  -0.067   9.924  0.8190  0.1515 -0.1350
  425MOL0     H57314   3.232  -0.262   9.833 -1.7860  1.5350 -3.0596
  425MOL0     H57315   3.345  -0.269   9.694  1.1145  3.4642 -0.8763
  425MOL0     H57316   3.528  -0.290   9.836 -1.6159  1.8449  1.3952
  425MOL0     H57317   3.445  -0.323   9.974 -1.6506 -2.8419  1.1974
  425MOL0     H57318   3.336  -0.523   9.869 -1.7858  1.9887  0.0573
  425MOL0     H57319   3.414  -0.470   9.716  0.3116  2.9961  1.3201
  425MOL0     H57320   3.626  -0.492   9.841 -1.7796  1.6829 -0.0044
  425MOL0     H57321   3.549  -0.588   9.968 -1.0520 -0.7295  0.1373
  425MOL0     H57322   3.527  -0.693   9.683  0.3547  0.8392 -0.8016
  425MOL0     H57323   3.674  -0.728   9.780 -0.8675 -1.0848 -1.4365
  425MOL0     H57324   3.388  -0.801   9.870 -1.1249 -1.3761  0.2866
  425MOL0     H57325   3.542  -0.826   9.959 -0.6116  0.6182  0.1554
  425MOL0     H57326   3.317  -0.987   9.704 -1.2825 -1.5243  2.1472
  425MOL0     H57327   3.440  -1.328   9.694  0.0064 -0.0736  0.2351
  425MOL0     H57328   3.296  -1.241   9.669  0.1612 -0.4511 -0.3879
  425MOL0     H57329   3.374  -1.171   9.444 -0.4191  0.4003 -0.8103
  425MOL0     H57330   3.351  -1.349   9.474 -0.4939  0.8665 -1.5197
  425MOL0     H57331   3.617  -1.350   9.515  0.1854  0.4672 -0.0165
  425MOL0     H57332   3.608  -1.183   9.452  0.6839 -0.3251 -3.1335
  425MOL0     H57333   3.519  -1.240   9.249 -2.8178 -1.2384  1.1540
  425MOL0     H57334   3.498  -1.407   9.283 -1.6610 -0.2540  0.9129
  425MOL0     H57335   3.608  -1.563   9.174 -0.2475  0.4377  1.2465
  425MOL0     H57336   3.649  -1.883   9.283 -0.0104 -0.5220  0.0797
  425MOL0     H57337   3.587  -1.797   9.159 -1.9305 -3.6082  1.4336
  425MOL0     H57338   3.741  -1.870   9.124 -3.0489  0.2072 -2.9021
  425MOL0     H57339   4.268  -1.908   9.254  3.7371 -1.5759 -0.6891
  425MOL0     H57340   4.423  -2.085   9.302  0.2638  0.7633  0.2102
  425MOL0     H57341   4.473  -2.138   9.699 -0.8224  0.0389 -0.0467
  425MOL0     H57342   4.418  -2.301   9.716 -1.6611  1.4037  1.1919
  425MOL0     H57343   4.691  -2.217   9.589 -0.3714  0.0241 -0.7012
  425MOL0     H57344   4.662  -2.264   9.759  1.1478 -0.0337  0.0689
  425MOL0     H57345   4.602  -2.440   9.525  2.2869  2.6661 -1.9050
  425MOL0     H57346   4.573  -2.477   9.696  0.7321  1.1437  1.3085
  425MOL0     H57347   4.844  -2.398   9.573 -2.8037  0.9697 -0.2049
  425MOL0     H57348   4.824  -2.480   9.732 -0.5637  1.9293 -0.3126
  425MOL0     H57349   4.757  -2.599   9.459  0.4560 -1.8339 -1.5294
  425MOL0     H57350   4.744  -2.678   9.613 -1.5065  2.7707  2.0998
  425MOL0     H57351   4.977  -2.582   9.445  2.4443  0.9589  0.6677
  425MOL0     H57352   5.012  -2.590   9.615  3.0234  0.0682 -3.3920
  425MOL0     H57353   4.908  -2.824   9.443 -0.3943  1.4476 -0.2550
  425MOL0     H57354   4.948  -2.834   9.619 -4.1605 -0.8676 -1.7370
  425MOL0     H57355   5.157  -2.756   9.417  0.9230  0.5353  1.3850
  425MOL0     H57356   5.116  -2.921   9.468 -3.3214  0.6833 -1.2395
  425MOL0     H57357   4.224  -2.188   9.662 -3.4015 -1.2455 -0.7161
  425MOL0     H57358   4.066  -1.981   9.635  1.5341  3.8939 -0.3069
  425MOL0     H57359   4.024  -1.585   9.440  0.1885  0.3559  0.2441
  425MOL0     H57360   3.906  -1.373   9.397 -1.7318  1.0591 -1.0415
  425MOL0     H57361   3.202   0.204   9.620 -1.3813 -4.5963 -0.8942
  425MOL0     H57362   3.068   0.426   9.604  0.6972 -0.2491  0.1469
  425MOL0     H57363   2.855   0.708   9.659  0.4776  2.5245 -3.7939
  425MOL0     H57364   2.804   0.944   9.599  3.4350  1.2381 -0.9891
  425MOL0     H57365   2.835   1.173   9.561  1.1580  0.5366  0.2354
  425MOL0     H57366   2.682   1.127   9.633 -0.6737  1.4258  0.4023
  425MOL0     H57367   2.670   1.342   9.753 -0.9038  0.0701 -1.3274
  425MOL0     H57368   2.666   1.360   9.576  4.2329 -3.1616 -4.8065
  425MOL0     H57369   2.878   1.439   9.557  0.2632 -1.6316 -0.0105
  425MOL0     H57370   2.931   1.415   9.722 -0.6185 -2.9156 -1.0783
  425MOL0     H57371   2.876   1.648   9.720 -0.1594 -0.2216  0.7216
  425MOL0     H57372   2.755   1.555   9.795  1.0152 -3.9505  0.3937
  425MOL0     H57373   2.496   1.667   9.507 -1.1039 -2.5209  0.2084
  425MOL0     H57374   2.938   1.064   9.991  1.2365  0.7570  0.0264
  425MOL0     H57375   3.013   0.841  10.045  2.3517  3.4381 -0.0049
  426MOL0     O57376   5.686   8.998   1.157  0.1443  0.0274 -0.4267
  426MOL0     C57377   5.653   8.892   1.100 -0.0545 -0.6218  0.5891
  426MOL0     O57378   5.652   8.876   0.957  0.9424  0.2465  0.6275
  426MOL0     C57379   5.687   8.984   0.872 -0.0688 -0.7838  0.0692
  426MOL0     C57380   5.796   9.074   0.897  1.3181  1.1489  0.2589
  426MOL0     C57381   5.846   9.160   0.798  0.0279  0.4853  0.7327
  426MOL0     C57382   5.788   9.157   0.667 -0.5913  0.0546 -0.6913
  426MOL0     O57383   5.824   9.257   0.569  0.3151  0.1832 -0.1970
  426MOL0     C57384   5.823   9.400   0.616 -0.6090  0.0974 -0.2273
  426MOL0     C57385   5.821   9.508   0.505  0.1563  0.2942  0.9525
  426MOL0     C57386   5.929   9.500   0.399 -0.0759 -0.4012  0.5182
  426MOL0     C57387   6.064   9.524   0.448 -0.4225  0.9793  0.0605
  426MOL0     C57388   6.167   9.577   0.341 -0.4093  0.2217  0.8561
  426MOL0     C57389   6.152   9.522   0.203  0.4300 -0.2840  0.5163
  426MOL0     C57390   6.258   9.584   0.112 -0.3305 -0.0094  0.2659
  426MOL0     C57391   6.257   9.735   0.103  0.1981  0.3214  0.1387
  426MOL0     N57392   6.319   9.763  -0.023 -0.7382 -0.7956 -0.8945
  426MOL0     C57393   6.460   9.758  -0.045 -0.2785 -0.3781 -0.8947
  426MOL0     C57394   6.480   9.773  -0.176  0.3227  0.1107  0.0074
  426MOL0     C57395   6.605   9.759  -0.272  0.2995 -0.9657 -0.0881
  426MOL0     C57396   6.724   9.854  -0.251 -0.2554  0.0128  0.9219
  426MOL0     C57397   6.806   9.869  -0.379 -0.7289  0.7952 -0.1163
  426MOL0     C57398   6.921   9.977  -0.352 -0.8530 -0.2420  0.5074
  426MOL0     O57399   6.994  10.016  -0.471 -0.0021  0.2398 -0.0398
  426MOL0     C57400   6.941  10.079  -0.582 -0.5980  0.2037 -0.6009
  426MOL0     C57401   7.043  10.117  -0.669  0.9631  0.6074  1.4256
  426MOL0     C57402   7.017  10.200  -0.785 -0.2037  0.2066  0.0274
  426MOL0     C57403   7.134  10.229  -0.880  0.6698  0.5616 -0.4527
  426MOL0     C57404   6.890  10.259  -0.791  0.5613 -0.3149 -0.4554
  426MOL0     C57405   6.852  10.376  -0.877 -1.3651  0.4298  0.7527
  426MOL0     O57406   6.732  10.433  -0.845 -0.4963  0.8772  0.8113
  426MOL0     C57407   6.669  10.510  -0.946  0.7223  0.6648  0.7502
  426MOL0     C57408   6.700  10.638  -0.990  0.1610  0.1475  0.8043
  426MOL0     C57409   6.617  10.699  -1.084 -0.0399 -0.4452  0.0418
  426MOL0     C57410   6.502  10.637  -1.139  1.1639 -0.2144 -0.4136
  426MOL0     O57411   6.448  10.703  -1.243  0.2743  0.4501 -0.0767
  426MOL0     C57412   6.308  10.680  -1.268  0.3731  0.7063  0.3016
  426MOL0     C57413   6.257  10.787  -1.369 -0.8676 -0.4633  0.1980
  426MOL0     C57414   6.321  10.772  -1.507 -0.6423 -0.7125  0.6478
  426MOL0     C57415   6.276  10.896  -1.588  0.9533  0.6077  0.3857
  426MOL0     C57416   6.135  10.876  -1.643  1.1594  0.2671  0.8382
  426MOL0     C57417   6.103  10.980  -1.752 -0.5618 -0.5518  0.0120
  426MOL0     C57418   6.157  10.927  -1.884 -0.2904 -0.2725  0.3803
  426MOL0     C57419   6.137  11.037  -1.989 -0.3967 -0.6393 -0.1970
  426MOL0    Cl57420   5.958  11.076  -2.031 -0.2391  0.1714  0.4342
  426MOL0     C57421   6.467  10.510  -1.095  0.5390  0.2214 -0.4653
  426MOL0     C57422   6.553  10.457  -0.993 -0.2153 -0.6986 -0.2764
  426MOL0     O57423   6.924  10.405  -0.972  1.0824 -0.1839  0.0566
  426MOL0     C57424   6.792  10.202  -0.706 -0.0852 -0.5197  1.2578
  426MOL0     C57425   6.820  10.122  -0.605  0.3561  0.2665 -0.9661
  426MOL0     N57426   6.358   9.803  -0.227 -0.7006 -0.8254  0.1345
  426MOL0     N57427   6.261   9.794  -0.136  0.3227 -0.1280  1.0202
  426MOL0     C57428   5.686   9.069   0.640 -0.2140 -0.2272 -0.0473
  426MOL0     C57429   5.634   8.989   0.737 -0.3477 -0.3559  0.1701
  426MOL0     C57430   5.649   8.770   1.183  0.1408  0.1215 -0.0633
  426MOL0     C57431   5.695   8.779   1.320 -0.3949  0.0025  0.7582
  426MOL0     C57432   5.692   8.672   1.409 -0.3346  0.5404  0.2486
  426MOL0     C57433   5.644   8.549   1.352  0.6788  0.8153 -0.2635
  426MOL0     O57434   5.643   8.430   1.416 -0.6843  0.2007 -0.4073
  426MOL0     C57435   5.681   8.444   1.553  1.2413  0.6180  0.1557
  426MOL0     C57436   5.617   8.320   1.605  0.0014  0.0785 -0.8335
  426MOL0     C57437   5.649   8.296   1.744  0.2356 -0.4533  0.1352
  426MOL0     C57438   5.588   8.186   1.813  0.4260  0.9460 -0.2448
  426MOL0     C57439   5.636   8.164   1.949  0.7047 -0.4925 -0.9651
  426MOL0     C57440   5.673   8.140   2.059  0.0278 -0.0941 -0.9227
  426MOL0     C57441   5.600   8.539   1.217  0.5568  0.3745  0.6723
  426MOL0     C57442   5.608   8.645   1.130 -1.2620 -0.0251 -1.1501
  426MOL0     H57443   5.849   9.061   0.991  1.5464  0.0494 -0.0022
  426MOL0     H57444   5.933   9.218   0.830  0.3230  0.1588  0.5212
  426MOL0     H57445   5.740   9.413   0.686  0.7351  1.2041  1.2403
  426MOL0     H57446   5.908   9.416   0.683 -1.1445 -1.4610  0.8842
  426MOL0     H57447   5.724   9.511   0.454 -0.0173  0.6157  1.2938
  426MOL0     H57448   5.839   9.596   0.567 -1.1448 -0.5948  2.6798
  426MOL0     H57449   5.931   9.407   0.343  1.4468 -0.5903  0.8679
  426MOL0     H57450   5.905   9.582   0.331 -2.3413 -0.8175  0.7253
  426MOL0     H57451   6.050   9.591   0.534  2.8671 -1.4443  2.7703
  426MOL0     H57452   6.109   9.433   0.487  1.6446  1.7372 -0.4500
  426MOL0     H57453   6.166   9.686   0.332  2.2119  0.3969  1.8198
  426MOL0     H57454   6.269   9.556   0.375  0.1705  0.9563 -0.3465
  426MOL0     H57455   6.169   9.414   0.196 -0.6308 -0.4771  0.8927
  426MOL0     H57456   6.051   9.538   0.165  0.3761  2.0903  1.5038
  426MOL0     H57457   6.362   9.556   0.130 -0.7791 -0.9538  1.5301
  426MOL0     H57458   6.238   9.544   0.012  4.3639 -1.6488 -0.2456
  426MOL0     H57459   6.316   9.777   0.184  4.1596 -0.5071 -2.0289
  426MOL0     H57460   6.160   9.783   0.096 -0.2287 -0.5165  0.1402
  426MOL0     H57461   6.541   9.747   0.027  0.0286  1.5460 -0.8987
  426MOL0     H57462   6.626   9.652  -0.273 -3.9470 -2.0584  2.2079
  426MOL0     H57463   6.573   9.789  -0.372  0.7574  0.3886  0.1509
  426MOL0     H57464   6.782   9.814  -0.167 -0.7196 -1.9643  0.3412
  426MOL0     H57465   6.677   9.949  -0.224 -3.1171 -1.3872  1.2819
  426MOL0     H57466   6.752   9.891  -0.471 -0.7675  0.0995 -0.2705
  426MOL0     H57467   6.860   9.776  -0.399  1.1395  1.8918 -0.3938
  426MOL0     H57468   6.986   9.933  -0.276 -0.4848 -0.6319 -0.0270
  426MOL0     H57469   6.876  10.069  -0.313 -1.5855 -0.0133 -0.8068
  426MOL0     H57470   7.143  10.081  -0.647 -0.1316 -2.0807  2.4431
  426MOL0     H57471   7.142  10.164  -0.968  0.4828 -1.9821  1.2947
  426MOL0     H57472   7.137  10.334  -0.911  0.7457  0.5486 -0.4898
  426MOL0     H57473   7.222  10.212  -0.819 -1.1309  1.2044  2.5023
  426MOL0     H57474   6.789  10.687  -0.951  0.9877 -0.8425  0.2179
  426MOL0     H57475   6.650  10.798  -1.112  1.5291 -1.4000 -1.6658
  426MOL0     H57476   6.305  10.581  -1.314 -1.4468  0.0513  1.6828
  426MOL0     H57477   6.250  10.674  -1.175  1.5796 -2.8887  0.9841
  426MOL0     H57478   6.149  10.776  -1.377 -0.6790 -2.8632  0.3151
  426MOL0     H57479   6.297  10.883  -1.334 -3.1907  1.3621 -1.8625
  426MOL0     H57480   6.292  10.678  -1.555 -0.2655  0.3317 -1.7726
  426MOL0     H57481   6.429  10.792  -1.502 -1.1397  2.8341  0.0751
  426MOL0     H57482   6.281  10.990  -1.532 -0.1399  1.1317 -0.3543
  426MOL0     H57483   6.340  10.917  -1.674  1.7987  1.1697  1.1368
  426MOL0     H57484   6.052  10.882  -1.573 -0.7187 -1.4318 -1.0910
  426MOL0     H57485   6.126  10.778  -1.690  0.6691  1.1814 -1.1084
  426MOL0     H57486   5.995  10.990  -1.758 -0.8397 -0.6217  3.1242
  426MOL0     H57487   6.152  11.072  -1.718 -1.8057 -0.1652  0.8002
  426MOL0     H57488   6.115  10.833  -1.920  0.0628 -0.9922  1.8083
  426MOL0     H57489   6.265  10.920  -1.870 -0.0537  2.1875  0.3134
  426MOL0     H57490   6.186  11.011  -2.083 -2.4703 -1.2584 -1.1662
  426MOL0     H57491   6.185  11.123  -1.942  1.2349 -1.1803 -0.7835
  426MOL0     H57492   6.381  10.453  -1.128  0.5265 -1.1915  1.8416
  426MOL0     H57493   6.531  10.364  -0.942  0.8724 -1.4592 -1.1506
  426MOL0     H57494   6.687  10.229  -0.715 -1.5223 -5.5817 -0.1792
  426MOL0     H57495   6.742  10.084  -0.540 -0.3013 -1.5293 -2.7058
  426MOL0     H57496   5.641   9.085   0.542 -2.1681 -1.8794  0.5171
  426MOL0     H57497   5.548   8.927   0.714 -1.3513  1.0681 -0.0822
  426MOL0     H57498   5.739   8.873   1.351  2.5796 -0.4076 -1.6984
  426MOL0     H57499   5.722   8.673   1.513  0.6339 -0.4851  0.0059
  426MOL0     H57500   5.790   8.439   1.550  1.1737 -1.5137  0.2864
  426MOL0     H57501   5.627   8.526   1.601 -3.7491 -2.7826  1.1103
  426MOL0     H57502   5.647   8.233   1.547  1.3656 -0.4470  0.5852
  426MOL0     H57503   5.508   8.330   1.605  0.0270  0.5195  0.3749
  426MOL0     H57504   5.619   8.386   1.799  2.2756 -0.3396  1.1375
  426MOL0     H57505   5.755   8.303   1.768  0.2083  3.9587 -0.1507
  426MOL0     H57506   5.617   8.095   1.759 -0.4632  0.8688 -0.6029
  426MOL0     H57507   5.480   8.199   1.819  0.6580  2.4189  2.6521
  426MOL0     H57508   5.712   8.135   2.159 -0.9993 -1.7081 -0.5760
  426MOL0     H57509   5.571   8.442   1.180 -1.2302  0.8867  0.6620
  426MOL0     H57510   5.580   8.638   1.026  0.0772  3.0370 -1.8231
  427MOL0     O57511   0.986   9.260   8.615 -0.2321 -0.0316 -0.4354
  427MOL0     C57512   0.895   9.195   8.676 -0.2405 -0.4951  0.0887
  427MOL0     O57513   0.773   9.248   8.705 -1.2293 -0.0709  0.0157
  427MOL0     C57514   0.756   9.379   8.672 -0.4882 -0.8995 -0.6069
  427MOL0     C57515   0.648   9.432   8.594 -0.1700 -0.1751 -0.8106
  427MOL0     C57516   0.638   9.566   8.558  0.7189 -0.1210  0.3730
  427MOL0     C57517   0.727   9.658   8.615 -1.1262  0.1019 -0.3600
  427MOL0     O57518   0.735   9.790   8.581  0.1219 -0.0642 -0.1689
  427MOL0     C57519   0.702   9.815   8.442 -0.1087  0.9496 -0.3568
  427MOL0     C57520   0.725   9.962   8.411 -0.3087  0.9938 -0.1765
  427MOL0     C57521   0.742   9.973   8.267 -0.5813 -0.2069  0.3560
  427MOL0     C57522   0.771  10.120   8.231  0.7358 -0.6100  0.8109
  427MOL0     C57523   0.830  10.123   8.092 -0.1441 -0.8154  0.7509
  427MOL0     C57524   0.861  10.264   8.038 -0.3496  0.0026  0.1037
  427MOL0     C57525   0.943  10.271   7.905 -0.0866 -0.1409  0.2828
  427MOL0     C57526   0.874  10.204   7.791  0.8764 -1.2728 -1.0304
  427MOL0     N57527   0.936  10.233   7.663  0.3880 -0.5349  0.6614
  427MOL0     C57528   1.073  10.233   7.644 -0.6617  0.2791  0.2345
  427MOL0     C57529   1.084  10.286   7.524 -0.1992 -0.3368  0.3008
  427MOL0     C57530   1.215  10.304   7.446 -0.8562  0.3124  0.0147
  427MOL0     C57531   1.309  10.176   7.452 -0.3815  0.7548  0.1358
  427MOL0     C57532   1.247  10.055   7.382 -0.3219  0.1811 -1.0166
  427MOL0     C57533   1.223  10.068   7.235  0.0651 -0.6780 -0.5046
  427MOL0     O57534   1.159   9.948   7.184  0.2170 -0.4827  0.6359
  427MOL0     C57535   1.012   9.948   7.176 -1.2271 -0.1466 -0.5343
  427MOL0     C57536   0.934  10.040   7.241  0.3984  0.2466  0.4694
  427MOL0     C57537   0.799  10.043   7.206  0.1846 -0.3239 -0.0055
  427MOL0     C57538   0.725  10.158   7.271  0.4411  0.1930  0.0728
  427MOL0     C57539   0.744   9.955   7.120  0.7804  0.4799 -0.7580
  427MOL0     C57540   0.610   9.964   7.079  0.6940 -0.0323  0.2880
  427MOL0     O57541   0.555   9.839   7.058  0.6165  0.1606 -0.2424
  427MOL0     C57542   0.416   9.826   7.051  0.0325 -0.3834 -0.1236
  427MOL0     C57543   0.327   9.922   7.002  0.2445 -0.2522  0.3063
  427MOL0     C57544   0.191   9.903   7.002 -0.3910  0.4881  0.4307
  427MOL0     C57545   0.139   9.787   7.064  1.2729 -0.0092  1.2139
  427MOL0     O57546  -0.001   9.769   7.054 -0.5331 -0.2219 -0.2371
  427MOL0     C57547  -0.034   9.705   6.932 -0.0857  0.0107 -0.5067
  427MOL0     C57548  -0.144   9.595   6.945  0.5444 -0.5012  0.9567
  427MOL0     C57549  -0.159   9.508   6.816  0.1121  0.2433  1.4852
  427MOL0     C57550  -0.162   9.591   6.685 -0.6359  0.6189 -0.0419
  427MOL0     C57551  -0.164   9.502   6.560  0.2201 -0.4827  0.0876
  427MOL0     C57552  -0.176   9.586   6.426 -0.3184 -0.8919  0.8277
  427MOL0     C57553  -0.185   9.503   6.304 -0.1389  1.4580  0.6540
  427MOL0     C57554  -0.172   9.577   6.175 -0.3093  0.2009  0.3248
  427MOL0    Cl57555  -0.016   9.667   6.159  0.2332 -0.1767  0.2289
  427MOL0     C57556   0.221   9.694   7.117 -0.3680  0.7202  0.7521
  427MOL0     C57557   0.365   9.709   7.108 -0.8121 -0.3123 -0.5724
  427MOL0     O57558   0.550  10.073   7.079  0.2271  0.1098 -0.1415
  427MOL0     C57559   0.816   9.852   7.063 -0.1855 -0.2135 -0.6195
  427MOL0     C57560   0.953   9.851   7.092  0.0449 -0.0719 -0.6027
  427MOL0     N57561   0.965  10.321   7.472  0.6350 -0.3171  1.7254
  427MOL0     N57562   0.872  10.294   7.562  0.2253  0.1941 -0.2804
  427MOL0     C57563   0.835   9.612   8.695  0.5630 -0.1573  0.1091
  427MOL0     C57564   0.844   9.479   8.725  0.0747 -0.3323 -0.0892
  427MOL0     C57565   0.906   9.046   8.688  0.0838 -0.7619 -0.3085
  427MOL0     C57566   1.026   8.991   8.664  0.2643 -0.5248  1.1006
  427MOL0     C57567   1.047   8.857   8.670 -0.6587 -0.8287 -1.6945
  427MOL0     C57568   0.949   8.771   8.727 -0.0220  0.5670  1.2405
  427MOL0     O57569   0.977   8.640   8.752 -0.3510  0.5367  0.5201
  427MOL0     C57570   1.107   8.593   8.767 -0.4711  0.1024  0.3899
  427MOL0     C57571   1.114   8.449   8.812  0.0712 -0.5124  0.4488
  427MOL0     C57572   1.256   8.403   8.845 -0.0392  0.7909 -0.1134
  427MOL0     C57573   1.271   8.252   8.882 -1.1473 -0.3987  0.3788
  427MOL0     C57574   1.411   8.201   8.892  1.0294  0.0996 -0.1173
  427MOL0     C57575   1.523   8.157   8.903 -0.8663 -0.5797  0.3282
  427MOL0     C57576   0.821   8.823   8.753  0.3150  0.3523  0.6434
  427MOL0     C57577   0.797   8.963   8.732 -0.6105  0.3560  0.0623
  427MOL0     H57578   0.593   9.363   8.530  0.4961 -0.3704 -1.1907
  427MOL0     H57579   0.557   9.579   8.487  1.3217  0.7014 -0.1740
  427MOL0     H57580   0.768   9.746   8.390  1.8987 -0.9614  4.1646
  427MOL0     H57581   0.601   9.800   8.403 -1.0951  3.0603  1.1822
  427MOL0     H57582   0.633  10.015   8.440 -0.1695  1.0878  0.0898
  427MOL0     H57583   0.803  10.004   8.475 -0.1036 -2.6785  2.2680
  427MOL0     H57584   0.824   9.910   8.230 -2.6037 -2.8816  0.0952
  427MOL0     H57585   0.651   9.953   8.210  1.0623  0.9680 -2.8804
  427MOL0     H57586   0.674  10.171   8.239  0.1021 -1.3361 -1.4065
  427MOL0     H57587   0.845  10.161   8.300 -0.1907  1.3828  0.6791
  427MOL0     H57588   0.916  10.055   8.095 -0.2665 -0.9642  0.9540
  427MOL0     H57589   0.754  10.094   8.019  2.9406 -1.3077 -2.5407
  427MOL0     H57590   0.770  10.323   8.024  0.7745  1.7614 -0.0968
  427MOL0     H57591   0.913  10.322   8.115  0.9883 -3.6276  2.2063
  427MOL0     H57592   0.941  10.377   7.879  2.0258 -0.5137 -1.6759
  427MOL0     H57593   1.048  10.244   7.924  0.8338  3.6656  1.5117
  427MOL0     H57594   0.769  10.233   7.785  0.4575 -2.4436  0.2990
  427MOL0     H57595   0.882  10.096   7.798  2.2229 -1.1311 -0.0789
  427MOL0     H57596   1.148  10.198   7.714  1.0408  0.4157 -1.4437
  427MOL0     H57597   1.190  10.333   7.343  0.4647 -0.1262 -0.4604
  427MOL0     H57598   1.274  10.388   7.486 -0.6865  0.1658  0.0734
  427MOL0     H57599   1.324  10.156   7.558 -1.0691 -1.0720 -0.0913
  427MOL0     H57600   1.404  10.190   7.399 -1.3400 -1.7360 -2.5047
  427MOL0     H57601   1.158  10.013   7.431 -0.3489  0.6647 -0.6452
  427MOL0     H57602   1.328   9.981   7.391  0.1667  0.8941  1.0966
  427MOL0     H57603   1.318  10.096   7.190 -1.4862  3.2761 -1.7310
  427MOL0     H57604   1.159  10.154   7.213  0.6308 -0.3515 -0.8968
  427MOL0     H57605   0.970  10.114   7.312 -1.5344  1.2907  0.4235
  427MOL0     H57606   0.715  10.239   7.198 -1.3620  0.4692  0.5797
  427MOL0     H57607   0.630  10.130   7.316  0.2077 -0.6124 -0.8795
  427MOL0     H57608   0.779  10.200   7.356  0.3291 -2.3722  1.5263
  427MOL0     H57609   0.376  10.002   6.947 -1.8288  1.5460  0.9174
  427MOL0     H57610   0.122   9.979   6.966 -2.6190 -2.9175 -3.3706
  427MOL0     H57611  -0.060   9.770   6.848  0.5158 -2.3551 -2.6120
  427MOL0     H57612   0.054   9.658   6.888 -1.6070 -2.2706 -1.2462
  427MOL0     H57613  -0.117   9.526   7.026 -0.9842 -1.8465  0.3505
  427MOL0     H57614  -0.243   9.640   6.959  1.0741  0.6536  1.1702
  427MOL0     H57615  -0.254   9.454   6.819 -0.0645  0.2910 -0.9971
  427MOL0     H57616  -0.069   9.446   6.818  0.6165  0.8556 -0.3981
  427MOL0     H57617  -0.248   9.658   6.675 -2.0485 -1.0725  0.3091
  427MOL0     H57618  -0.072   9.654   6.686  0.0274 -0.2914  1.1039
  427MOL0     H57619  -0.252   9.437   6.563 -1.0821  1.2392  1.4703
  427MOL0     H57620  -0.076   9.437   6.561  1.6289  1.3441 -0.5256
  427MOL0     H57621  -0.261   9.654   6.426  2.4794  2.9239  0.6174
  427MOL0     H57622  -0.092   9.656   6.420 -0.1875 -0.6360  3.8835
  427MOL0     H57623  -0.278   9.446   6.305  0.9310 -0.3998  0.3149
  427MOL0     H57624  -0.098   9.436   6.311 -1.5954 -0.4199  1.8254
  427MOL0     H57625  -0.251   9.651   6.158 -0.7404 -0.6731 -1.8556
  427MOL0     H57626  -0.192   9.506   6.095  1.0332  2.3663 -2.0944
  427MOL0     H57627   0.170   9.608   7.161  3.0522 -1.3247  1.0592
  427MOL0     H57628   0.439   9.643   7.153 -2.7891 -0.7766  2.2640
  427MOL0     H57629   0.786   9.765   7.004 -0.9343 -0.5081  0.1682
  427MOL0     H57630   1.009   9.762   7.065 -0.7789 -0.6212 -0.5360
  427MOL0     H57631   0.912   9.674   8.740 -2.1092  2.5886  1.3078
  427MOL0     H57632   0.929   9.451   8.786 -0.3952 -3.8943 -0.8338
  427MOL0     H57633   1.114   9.050   8.640  0.1534 -0.1642  1.5768
  427MOL0     H57634   1.150   8.827   8.649 -0.8378 -2.7933 -0.0125
  427MOL0     H57635   1.159   8.590   8.671 -0.4604  0.8079  0.3692
  427MOL0     H57636   1.163   8.649   8.843 -1.7860  2.1846 -0.1178
  427MOL0     H57637   1.080   8.392   8.725 -0.6175  1.0790 -0.3600
  427MOL0     H57638   1.049   8.428   8.898 -1.7581  0.5033 -0.6351
  427MOL0     H57639   1.282   8.461   8.934  1.2136  2.3305 -1.4187
  427MOL0     H57640   1.322   8.439   8.766 -0.5664  3.4743  0.5872
  427MOL0     H57641   1.227   8.180   8.812 -2.9169  0.3340  0.6907
  427MOL0     H57642   1.224   8.233   8.978 -2.5754  2.0359  0.2275
  427MOL0     H57643   1.624   8.126   8.924 -0.3889  1.4129  1.1563
  427MOL0     H57644   0.736   8.765   8.787 -0.4889  0.5291 -0.9567
  427MOL0     H57645   0.701   9.010   8.749 -0.3423  0.2832  2.0188
  428MOL0     O57646   3.865   8.026   6.561  0.5745 -0.1740 -0.3572
  428MOL0     C57647   3.920   7.919   6.548 -0.0557  0.2121 -0.0122
  428MOL0     O57648   3.921   7.845   6.434 -0.4292 -0.2671  0.8188
  428MOL0     C57649   3.867   7.901   6.320  0.6852  0.0895  0.1082
  428MOL0     C57650   3.728   7.912   6.298 -0.0674  0.4460  0.0912
  428MOL0     C57651   3.679   7.958   6.180 -0.8612 -0.9664 -0.1745
  428MOL0     C57652   3.771   8.002   6.077  0.9108  0.8062  0.8804
  428MOL0     O57653   3.728   8.029   5.947 -0.3427 -0.0953  0.1347
  428MOL0     C57654   3.621   7.957   5.885 -0.1159 -0.0044 -1.0374
  428MOL0     C57655   3.643   7.932   5.734  0.3746  0.3406 -0.3348
  428MOL0     C57656   3.522   7.869   5.657 -0.4471 -0.0626  0.7059
  428MOL0     C57657   3.394   7.952   5.648 -0.2811  0.5953 -0.3654
  428MOL0     C57658   3.287   7.871   5.569  0.0328  0.0029  0.0707
  428MOL0     C57659   3.200   7.779   5.667  0.3010 -0.0997  0.3620
  428MOL0     C57660   3.085   7.712   5.593  0.0925 -0.1033  0.4739
  428MOL0     C57661   2.986   7.624   5.676 -0.6061 -0.2315  0.4224
  428MOL0     N57662   2.846   7.658   5.652 -0.0414  0.3725  0.7776
  428MOL0     C57663   2.777   7.635   5.533 -0.5833 -0.6295 -0.0134
  428MOL0     C57664   2.662   7.701   5.545  0.1592  0.1002 -0.0055
  428MOL0     C57665   2.548   7.681   5.445 -0.1332  0.4227 -0.3369
  428MOL0     C57666   2.582   7.743   5.315  0.6655 -0.2501 -0.1134
  428MOL0     C57667   2.595   7.899   5.318 -0.0274  0.0487 -0.8308
  428MOL0     C57668   2.741   7.946   5.320  0.4310 -0.2719 -0.2996
  428MOL0     O57669   2.827   7.891   5.221  0.5770  0.0968 -0.9595
  428MOL0     C57670   2.959   7.933   5.214 -0.1710  0.6726  0.4622
  428MOL0     C57671   3.024   8.039   5.286 -0.5407  0.0391 -0.5827
  428MOL0     C57672   3.164   8.052   5.279 -0.2816 -1.2774  0.4957
  428MOL0     C57673   3.233   8.157   5.365 -0.2753 -0.6154  0.9820
  428MOL0     C57674   3.236   7.977   5.190  0.0527 -0.2399  0.3953
  428MOL0     C57675   3.376   8.000   5.152 -0.4264 -0.4425  0.4079
  428MOL0     O57676   3.446   7.890   5.095 -0.0215  0.2068  0.0478
  428MOL0     C57677   3.576   7.907   5.052 -0.0095  0.3943  0.6195
  428MOL0     C57678   3.676   7.833   5.105  0.1150 -0.8801  0.8280
  428MOL0     C57679   3.807   7.846   5.062 -1.1974 -0.1710 -0.1216
  428MOL0     C57680   3.842   7.924   4.957  0.3885 -0.0770  0.1845
  428MOL0     O57681   3.972   7.913   4.928  0.5548  0.0898  0.8272
  428MOL0     C57682   3.996   7.950   4.786 -0.1542  0.6093 -0.2003
  428MOL0     C57683   4.144   7.937   4.751  0.3250 -0.1481 -0.2685
  428MOL0     C57684   4.198   7.795   4.731 -0.2637  0.4648 -0.5991
  428MOL0     C57685   4.349   7.797   4.706 -0.2150  0.8306  0.0176
  428MOL0     C57686   4.417   7.666   4.696  0.2009  0.3930  0.0554
  428MOL0     C57687   4.554   7.662   4.620  0.0206  1.1193  0.7593
  428MOL0     C57688   4.630   7.538   4.662  0.9009 -0.3647  0.0253
  428MOL0     C57689   4.590   7.417   4.584 -0.2659  0.7899 -0.5271
  428MOL0    Cl57690   4.614   7.443   4.408 -0.1362  0.2504  0.2187
  428MOL0     C57691   3.741   7.992   4.894 -0.1158  0.1626  0.6699
  428MOL0     C57692   3.610   7.997   4.947  0.0062  0.1675 -0.8880
  428MOL0     O57693   3.415   8.113   5.142  1.0344  0.5556  0.6478
  428MOL0     C57694   3.176   7.866   5.125 -0.5168  0.5222  0.3349
  428MOL0     C57695   3.038   7.846   5.130 -0.1623  0.0186  0.2709
  428MOL0     N57696   2.663   7.757   5.677  0.0576  0.9838 -0.3004
  428MOL0     N57697   2.770   7.727   5.735 -0.2213  0.5810 -0.2885
  428MOL0     C57698   3.907   8.005   6.105  0.1215 -0.2112 -0.8126
  428MOL0     C57699   3.957   7.944   6.221 -0.0698  0.3091 -0.4143
  428MOL0     C57700   3.965   7.853   6.670 -0.2268 -0.4140 -0.6856
  428MOL0     C57701   4.052   7.753   6.654 -0.1493  0.8043 -0.1234
  428MOL0     C57702   4.111   7.687   6.760  0.1546 -0.2697 -0.2517
  428MOL0     C57703   4.065   7.704   6.889 -0.4153  0.6176 -0.2060
  428MOL0     O57704   4.100   7.636   7.005  0.1405  0.0820  0.0077
  428MOL0     C57705   4.194   7.530   6.992  0.2475 -0.2226  0.4027
  428MOL0     C57706   4.187   7.438   7.105 -0.4662 -0.7136 -0.6763
  428MOL0     C57707   4.301   7.343   7.096 -0.5615 -0.5518 -0.4634
  428MOL0     C57708   4.325   7.272   7.227  0.2991 -0.7077 -1.2161
  428MOL0     C57709   4.222   7.174   7.267 -0.6537 -0.3384  0.5095
  428MOL0     C57710   4.117   7.118   7.295 -1.1537  0.6639 -0.6793
  428MOL0     C57711   3.988   7.812   6.906 -0.6250 -0.7339  0.3548
  428MOL0     C57712   3.929   7.890   6.801  0.0844 -0.6134  0.9766
  428MOL0     H57713   3.662   7.895   6.382  1.7399  1.2638  1.7496
  428MOL0     H57714   3.571   7.964   6.171 -0.9151 -0.6463  0.6344
  428MOL0     H57715   3.601   7.861   5.934  0.6176  0.2526 -0.2157
  428MOL0     H57716   3.527   8.008   5.903 -0.4103 -1.0507  0.5799
  428MOL0     H57717   3.673   8.026   5.685 -0.3810  1.8525  1.9595
  428MOL0     H57718   3.732   7.868   5.738  0.7959  0.9687  1.3911
  428MOL0     H57719   3.560   7.850   5.556 -1.0903  0.1535  0.4208
  428MOL0     H57720   3.491   7.770   5.691  2.8561 -1.3172  0.4923
  428MOL0     H57721   3.358   7.961   5.751  0.9517  3.0576 -0.0953
  428MOL0     H57722   3.405   8.057   5.620  2.0281  0.7894  1.0203
  428MOL0     H57723   3.222   7.947   5.525 -2.7155 -3.0742 -1.6281
  428MOL0     H57724   3.341   7.822   5.487 -1.2062  0.7383 -1.2451
  428MOL0     H57725   3.264   7.697   5.700 -0.7740 -0.0017  2.8949
  428MOL0     H57726   3.167   7.829   5.758 -0.1178 -0.2714  0.3090
  428MOL0     H57727   3.030   7.798   5.553 -0.5512 -1.0798 -0.8567
  428MOL0     H57728   3.119   7.646   5.512  0.8436 -1.5815  1.9464
  428MOL0     H57729   3.018   7.626   5.781 -0.1663 -1.1563  0.3142
  428MOL0     H57730   2.994   7.520   5.645 -4.0272 -0.3487 -0.5442
  428MOL0     H57731   2.806   7.572   5.449  0.3484 -0.4124  0.1349
  428MOL0     H57732   2.534   7.573   5.433 -2.6347  0.5972  0.5064
  428MOL0     H57733   2.456   7.725   5.484 -1.1357 -1.2215 -0.7774
  428MOL0     H57734   2.499   7.731   5.245  0.4663  5.7103 -1.4434
  428MOL0     H57735   2.672   7.703   5.267  1.3885  1.5422 -0.3240
  428MOL0     H57736   2.542   7.928   5.410 -1.9684 -0.7884 -1.6177
  428MOL0     H57737   2.552   7.939   5.226  2.1474  0.7322 -1.5891
  428MOL0     H57738   2.779   7.912   5.416  0.0183  3.2946  1.2821
  428MOL0     H57739   2.740   8.055   5.327 -0.6009 -0.4027  3.1660
  428MOL0     H57740   2.973   8.109   5.351 -0.4521 -0.1384 -0.3204
  428MOL0     H57741   3.184   8.186   5.458  0.4744  5.4741 -0.0785
  428MOL0     H57742   3.333   8.119   5.388  1.8955  2.8770 -1.5267
  428MOL0     H57743   3.250   8.251   5.311 -2.3172 -1.6507 -1.6624
  428MOL0     H57744   3.654   7.771   5.192 -2.1028  1.4701  2.0924
  428MOL0     H57745   3.877   7.773   5.101 -1.6315 -2.2096 -2.8791
  428MOL0     H57746   3.939   7.885   4.718 -0.4657 -0.4126  0.9950
  428MOL0     H57747   3.971   8.055   4.767  0.2521  0.8074  0.3293
  428MOL0     H57748   4.159   8.007   4.669  2.3553  1.4921  1.3845
  428MOL0     H57749   4.195   7.980   4.838  1.1827  0.4331 -1.0451
  428MOL0     H57750   4.154   7.748   4.642 -0.8229  0.7838 -0.5032
  428MOL0     H57751   4.162   7.726   4.808 -1.0484 -0.3254 -1.6277
  428MOL0     H57752   4.368   7.854   4.614 -2.8552 -0.4083 -1.4033
  428MOL0     H57753   4.392   7.844   4.795 -3.4097  1.8501  1.1495
  428MOL0     H57754   4.346   7.613   4.631  1.2326  1.3676 -1.9672
  428MOL0     H57755   4.422   7.618   4.794  0.0777  1.6172  0.6869
  428MOL0     H57756   4.547   7.664   4.511  0.1313  0.1004  0.7205
  428MOL0     H57757   4.617   7.742   4.662  2.4211 -0.4160  0.2890
  428MOL0     H57758   4.624   7.517   4.769  0.9251 -5.7207 -0.7782
  428MOL0     H57759   4.737   7.553   4.644  1.1261  1.0610  2.1638
  428MOL0     H57760   4.491   7.377   4.604  1.2357 -1.7774  2.7522
  428MOL0     H57761   4.660   7.338   4.612  0.4092 -0.3051 -4.6311
  428MOL0     H57762   3.763   8.051   4.806  2.7080 -0.1584  1.0579
  428MOL0     H57763   3.542   8.073   4.910 -2.8159 -1.8914 -0.2652
  428MOL0     H57764   3.241   7.803   5.066  0.3407  0.9812  0.7739
  428MOL0     H57765   2.991   7.765   5.075 -0.0740  0.4908 -0.5268
  428MOL0     H57766   3.977   8.014   6.022  0.5911  0.6237 -0.3355
  428MOL0     H57767   4.063   7.930   6.238  0.4489  2.1940 -1.8925
  428MOL0     H57768   4.082   7.718   6.555 -0.4328 -0.4213  0.2007
  428MOL0     H57769   4.192   7.619   6.738  1.6285  1.7669 -1.4143
  428MOL0     H57770   4.181   7.468   6.903 -1.7544 -0.6561  0.9483
  428MOL0     H57771   4.289   7.582   6.976  0.0761 -0.1430 -0.3942
  428MOL0     H57772   4.092   7.387   7.088 -0.6761 -0.7327  0.4549
  428MOL0     H57773   4.183   7.502   7.194  1.3188  4.1652 -3.6983
  428MOL0     H57774   4.394   7.394   7.071 -1.2758  1.5250  0.8026
  428MOL0     H57775   4.270   7.275   7.016 -2.1343  0.2122 -0.5499
  428MOL0     H57776   4.342   7.352   7.300 -0.3631 -0.7857 -0.9734
  428MOL0     H57777   4.421   7.219   7.229  0.1650 -0.9320  0.2676
  428MOL0     H57778   4.031   7.062   7.327  0.1080 -0.8096  0.2614
  428MOL0     H57779   3.961   7.830   7.010  3.6044 -0.9794  1.6748
  428MOL0     H57780   3.863   7.976   6.813  0.1507 -0.5806  1.1049
  429MOL0     O57781   8.414   4.973   1.744  0.0010 -0.4787 -0.4931
  429MOL0     C57782   8.428   4.855   1.721 -0.0430  0.8214  0.2059
  429MOL0     O57783   8.523   4.796   1.638  0.1331 -0.1021  0.2945
  429MOL0     C57784   8.632   4.866   1.590 -0.3684  0.7805  0.3073
  429MOL0     C57785   8.699   4.960   1.660  0.5906 -0.8940 -0.4648
  429MOL0     C57786   8.806   5.035   1.606  0.1517  1.2658 -0.1851
  429MOL0     C57787   8.859   5.012   1.484  0.4572 -0.1101 -0.5611
  429MOL0     O57788   8.957   5.098   1.452  0.0815 -0.9867  1.0316
  429MOL0     C57789   9.063   5.036   1.372 -0.4763  0.1281 -0.0450
  429MOL0     C57790   9.180   5.129   1.350  0.6512 -0.2963 -0.1761
  429MOL0     C57791   9.237   5.187   1.483  0.1842 -0.3968  0.4029
  429MOL0     C57792   9.362   5.260   1.434  0.2235  0.4921  0.1261
  429MOL0     C57793   9.417   5.352   1.546 -0.4538 -0.5223 -0.4433
  429MOL0     C57794   9.569   5.382   1.522  0.8809 -0.1753  0.2365
  429MOL0     C57795   9.629   5.502   1.595 -0.9669  0.3012 -0.1051
  429MOL0     C57796   9.552   5.633   1.566 -0.4634 -0.1845  0.2440
  429MOL0     N57797   9.644   5.745   1.595  0.7304 -0.3684  0.1366
  429MOL0     C57798   9.730   5.762   1.698 -0.1806 -0.6170  0.7339
  429MOL0     C57799   9.803   5.870   1.657 -0.0635  0.6372 -0.1644
  429MOL0     C57800   9.891   5.936   1.763 -0.1365 -0.8215  0.8204
  429MOL0     C57801   9.860   6.082   1.773  0.1168 -0.0587 -0.0560
  429MOL0     C57802   9.717   6.081   1.834  0.6305  0.0692 -0.9838
  429MOL0     C57803   9.689   6.217   1.914  0.6712 -0.0459  0.1405
  429MOL0     O57804   9.778   6.222   2.025  0.4218 -0.3611 -0.4369
  429MOL0     C57805   9.765   6.324   2.118 -0.9805  0.5186 -0.5630
  429MOL0     C57806   9.865   6.351   2.215  0.3103  0.4232 -0.2057
  429MOL0     C57807   9.858   6.444   2.319  0.7083 -0.2643 -0.2462
  429MOL0     C57808   9.974   6.438   2.418  0.0743 -0.1066 -0.8178
  429MOL0     C57809   9.752   6.536   2.314 -0.4000  0.0059  0.5531
  429MOL0     C57810   9.738   6.655   2.402  0.5631  0.0758 -0.0321
  429MOL0     O57811   9.618   6.723   2.391  0.4107 -0.6400  0.0201
  429MOL0     C57812   9.595   6.850   2.443  0.2789  0.5261  0.4780
  429MOL0     C57813   9.551   6.949   2.345  0.0362 -0.3577  0.0615
  429MOL0     C57814   9.523   7.073   2.390 -0.5273 -1.1806 -0.5012
  429MOL0     C57815   9.560   7.117   2.521 -0.9256  0.0906  0.6983
  429MOL0     O57816   9.539   7.253   2.539  0.1121  0.4908 -0.0314
  429MOL0     C57817   9.577   7.312   2.665  0.1002  0.9727  0.0941
  429MOL0     C57818   9.541   7.460   2.671  0.2133  0.1669  0.8238
  429MOL0     C57819   9.500   7.520   2.805 -0.2733  0.2309  1.1398
  429MOL0     C57820   9.534   7.664   2.793  0.2427  0.7071  0.2719
  429MOL0     C57821   9.491   7.750   2.905 -0.4747  0.1825 -0.4116
  429MOL0     C57822   9.342   7.782   2.917  0.4215 -0.1095  0.5088
  429MOL0     C57823   9.277   7.839   2.782 -0.0221  0.2265  0.3935
  429MOL0     C57824   9.140   7.906   2.806  0.0189  0.7277  0.4565
  429MOL0    Cl57825   9.079   7.954   2.652  0.1176  0.0053 -0.2587
  429MOL0     C57826   9.622   7.025   2.607  0.9701  0.3027  0.1260
  429MOL0     C57827   9.634   6.890   2.571 -0.0230 -0.4188 -1.0195
  429MOL0     O57828   9.825   6.685   2.488 -0.6638  0.1885 -0.7788
  429MOL0     C57829   9.651   6.516   2.219 -0.2595  0.4415  0.1213
  429MOL0     C57830   9.660   6.411   2.121 -0.1746 -0.1152 -0.1128
  429MOL0     N57831   9.743   5.926   1.540 -0.1098 -0.3830 -0.3809
  429MOL0     N57832   9.659   5.846   1.498 -0.5397 -0.3403 -0.8955
  429MOL0     C57833   8.792   4.909   1.407 -0.5373  0.9204 -0.7354
  429MOL0     C57834   8.682   4.836   1.462  0.1357  0.1783 -0.2564
  429MOL0     C57835   8.338   4.762   1.786 -0.9769  0.2610 -0.6649
  429MOL0     C57836   8.336   4.628   1.739 -0.9346 -0.3479  0.4600
  429MOL0     C57837   8.253   4.532   1.808 -0.2657 -0.4589 -0.2045
  429MOL0     C57838   8.164   4.570   1.911  0.2684  0.0024  0.4076
  429MOL0     O57839   8.088   4.487   1.987 -0.0107  0.7925 -0.2826
  429MOL0     C57840   8.152   4.414   2.096  0.7756 -0.3809 -0.4166
  429MOL0     C57841   8.259   4.327   2.069 -0.1546 -0.8506 -0.2770
  429MOL0     C57842   8.343   4.288   2.197  0.2658  0.9357 -0.6568
  429MOL0     C57843   8.327   4.144   2.234 -0.4658 -0.0241  0.7448
  429MOL0     C57844   8.383   4.112   2.365  0.8984 -0.0938 -0.5776
  429MOL0     C57845   8.416   4.082   2.472  0.4590 -0.3470 -0.3843
  429MOL0     C57846   8.171   4.700   1.959 -0.3974  0.1058  0.3668
  429MOL0     C57847   8.250   4.793   1.899  0.2109 -0.9967  0.0278
  429MOL0     H57848   8.672   4.981   1.763  2.7625 -1.6147  0.3125
  429MOL0     H57849   8.841   5.118   1.667 -2.3631  0.7255  2.1856
  429MOL0     H57850   9.094   4.938   1.411 -0.2844  0.9516  1.9947
  429MOL0     H57851   9.028   5.010   1.272  3.0438  0.3220 -1.4929
  429MOL0     H57852   9.259   5.070   1.303  2.3393 -0.4682  2.6639
  429MOL0     H57853   9.153   5.218   1.292  0.4091 -0.5132 -0.3996
  429MOL0     H57854   9.179   5.267   1.529  0.9732  1.7345 -2.0383
  429MOL0     H57855   9.249   5.110   1.559 -1.0029 -0.4001  0.6120
  429MOL0     H57856   9.437   5.182   1.413 -0.1436  0.3480 -0.6667
  429MOL0     H57857   9.346   5.312   1.339 -3.6629 -3.9058 -2.0205
  429MOL0     H57858   9.354   5.441   1.551  1.3468  0.8586 -1.0117
  429MOL0     H57859   9.412   5.297   1.640  0.8005 -0.2883 -0.2229
  429MOL0     H57860   9.626   5.290   1.543 -1.0155 -1.4445  0.1004
  429MOL0     H57861   9.585   5.407   1.417 -0.7103  3.1032  0.6393
  429MOL0     H57862   9.624   5.480   1.702 -0.3475 -2.2603 -0.5356
  429MOL0     H57863   9.727   5.517   1.549 -0.7911 -0.7648 -0.1026
  429MOL0     H57864   9.461   5.633   1.626  1.4436 -0.6097  3.3438
  429MOL0     H57865   9.538   5.636   1.457 -0.0902  0.8632  0.2133
  429MOL0     H57866   9.726   5.698   1.785 -1.3564 -0.8639  0.5177
  429MOL0     H57867   9.889   5.883   1.859  0.2342 -1.7983  0.3092
  429MOL0     H57868   9.992   5.922   1.723 -1.4219 -4.1611 -1.7659
  429MOL0     H57869   9.885   6.138   1.683  1.6744 -0.6282 -0.0071
  429MOL0     H57870   9.930   6.121   1.848 -1.2694  0.6478  0.9120
  429MOL0     H57871   9.698   5.998   1.903 -0.6498  2.9043  2.3664
  429MOL0     H57872   9.641   6.077   1.756  1.9285  1.1325 -2.3763
  429MOL0     H57873   9.588   6.208   1.955 -0.6698 -0.0282 -2.9305
  429MOL0     H57874   9.698   6.303   1.847  3.5794 -1.2203 -1.1912
  429MOL0     H57875   9.951   6.285   2.205 -1.8266 -2.3974 -1.3399
  429MOL0     H57876  10.025   6.346   2.390  0.4495 -0.6590  1.4581
  429MOL0     H57877  10.049   6.518   2.412 -0.3314  0.6279  2.2267
  429MOL0     H57878   9.923   6.434   2.515 -0.0191  0.0276 -0.8598
  429MOL0     H57879   9.532   6.906   2.247  1.3183 -1.7599  0.3984
  429MOL0     H57880   9.480   7.152   2.328  1.0443 -0.5917 -0.8866
  429MOL0     H57881   9.526   7.261   2.747 -1.9179  1.2358 -0.9393
  429MOL0     H57882   9.680   7.282   2.687 -0.8198 -2.2145  0.5871
  429MOL0     H57883   9.631   7.508   2.634  0.7166 -2.6641 -2.1299
  429MOL0     H57884   9.461   7.486   2.601 -0.5039  0.0541  1.5867
  429MOL0     H57885   9.551   7.475   2.890 -1.3191  1.1912  2.3027
  429MOL0     H57886   9.396   7.490   2.816 -0.3238 -3.4430 -4.6282
  429MOL0     H57887   9.642   7.673   2.786  0.3782  1.0821  2.3184
  429MOL0     H57888   9.496   7.716   2.704 -0.5259  1.2701  0.9102
  429MOL0     H57889   9.543   7.846   2.910 -1.3598  0.6281  1.3270
  429MOL0     H57890   9.522   7.703   2.999  0.2330 -0.4998 -0.9688
  429MOL0     H57891   9.288   7.691   2.942 -0.6147  1.2641  3.8178
  429MOL0     H57892   9.322   7.853   2.998  1.5740 -0.3275  1.0038
  429MOL0     H57893   9.263   7.771   2.698 -0.3911  0.4879  0.2377
  429MOL0     H57894   9.349   7.914   2.747 -0.9615  1.2496  0.5783
  429MOL0     H57895   9.152   8.003   2.855 -1.4654  1.9780 -1.5030
  429MOL0     H57896   9.065   7.844   2.856 -1.5027  2.9765  1.1250
  429MOL0     H57897   9.638   7.055   2.710 -2.2482 -1.4382  1.2881
  429MOL0     H57898   9.677   6.818   2.639  0.4371  0.6439 -0.1538
  429MOL0     H57899   9.575   6.593   2.205 -0.0814  0.7227  0.6648
  429MOL0     H57900   9.581   6.406   2.047  1.9494  0.9544 -2.6373
  429MOL0     H57901   8.825   4.860   1.316 -1.4719 -3.0003  0.8182
  429MOL0     H57902   8.643   4.751   1.407 -1.1388 -0.3383  1.3653
  429MOL0     H57903   8.394   4.593   1.654 -0.4280  1.9356 -0.1855
  429MOL0     H57904   8.258   4.429   1.772 -1.0602 -0.1560 -1.2585
  429MOL0     H57905   8.199   4.483   2.166  0.9899 -1.8232  0.9309
  429MOL0     H57906   8.075   4.359   2.152 -2.2877  1.7103 -2.2905
  429MOL0     H57907   8.328   4.371   1.997  2.0339 -2.3107  0.8075
  429MOL0     H57908   8.216   4.236   2.026  0.2079 -1.2787  0.2437
  429MOL0     H57909   8.312   4.348   2.283  0.2535 -1.7082  1.2953
  429MOL0     H57910   8.450   4.292   2.174 -0.1665 -3.3677 -5.1605
  429MOL0     H57911   8.386   4.088   2.162 -0.6568  1.6321 -0.7520
  429MOL0     H57912   8.223   4.112   2.228 -0.2543 -0.3732 -3.3603
  429MOL0     H57913   8.463   4.040   2.558  1.8622 -0.2106 -1.0599
  429MOL0     H57914   8.109   4.731   2.042 -0.9048  0.9667 -0.3236
  429MOL0     H57915   8.265   4.896   1.926 -2.0823 -0.4908 -0.3588
  430MOL0     O57916   7.544  10.620  11.238 -0.1722 -0.0418 -0.4977
  430MOL0     C57917   7.591  10.729  11.265  0.8141 -0.1181 -0.4995
  430MOL0     O57918   7.626  10.772  11.384 -0.4361 -0.7203 -0.0569
  430MOL0     C57919   7.588  10.726  11.503  0.6465  0.2686  0.2394
  430MOL0     C57920   7.596  10.809  11.619  0.2357  0.2390  0.9246
  430MOL0     C57921   7.541  10.774  11.749  0.2124 -0.1183  1.1508
  430MOL0     C57922   7.475  10.650  11.765 -0.0037  0.9102  0.2182
  430MOL0     O57923   7.417  10.614  11.882 -0.3284 -0.0034 -0.1199
  430MOL0     C57924   7.391  10.479  11.922  0.1914 -0.7922 -0.4717
  430MOL0     C57925   7.261  10.439  11.880  1.1340  0.6195  0.0862
  430MOL0     C57926   7.141  10.498  11.966 -0.2744 -0.5736 -0.2952
  430MOL0     C57927   7.016  10.417  11.957  0.0553  0.2451  0.5923
  430MOL0     C57928   7.019  10.297  12.048  0.7840 -0.7647  0.4405
  430MOL0     C57929   6.901  10.201  12.043  0.6480  0.2414  0.9316
  430MOL0     C57930   6.884  10.103  12.155 -0.5886  0.6583 -0.4840
  430MOL0     C57931   6.846  10.164  12.300  0.3360 -0.1394 -0.1308
  430MOL0     N57932   6.726  10.248  12.308  0.4410 -0.4166  0.1578
  430MOL0     C57933   6.730  10.373  12.367  0.3338  0.5821 -0.5729
  430MOL0     C57934   6.616  10.434  12.330 -0.5215 -0.0677  0.0244
  430MOL0     C57935   6.578  10.573  12.370  0.1580 -0.3012 -0.0351
  430MOL0     C57936   6.500  10.568  12.497  0.4163 -0.3272  0.2816
  430MOL0     C57937   6.434  10.709  12.526 -0.2961  0.1891  1.1157
  430MOL0     C57938   6.352  10.701  12.653 -0.4220  0.1346  0.2870
  430MOL0     O57939   6.436  10.679  12.765  0.8612  0.0361 -0.5056
  430MOL0     C57940   6.367  10.655  12.881  0.7294 -1.0772  0.7174
  430MOL0     C57941   6.255  10.727  12.919  0.3764  0.6644  0.0425
  430MOL0     C57942   6.185  10.698  13.040 -0.3821 -0.2172  0.6123
  430MOL0     C57943   6.060  10.771  13.077  0.7671  0.3198  0.8795
  430MOL0     C57944   6.232  10.598  13.123  0.7826  0.0583  0.1993
  430MOL0     C57945   6.178  10.568  13.260 -0.8503 -0.3483 -0.4349
  430MOL0     O57946   6.118  10.661  13.331 -0.1738  0.1180 -0.0400
  430MOL0     C57947   6.093  10.655  13.469  0.0068  0.6132 -0.0030
  430MOL0     C57948   6.196  10.638  13.564 -0.3128 -0.4585  0.0664
  430MOL0     C57949   6.173  10.655  13.701  0.1294 -0.2197 -0.6282
  430MOL0     C57950   6.042  10.668  13.750  0.1182  0.0699  0.0800
  430MOL0     O57951   6.021  10.665  13.881 -0.0187  0.5371 -0.7474
  430MOL0     C57952   6.120  10.720  13.971  0.5453  0.2633  0.3876
  430MOL0     C57953   6.047  10.778  14.101  0.7359 -0.5496 -1.3325
  430MOL0     C57954   6.152  10.825  14.200  0.6008  0.7655 -0.1371
  430MOL0     C57955   6.089  10.870  14.330  1.1221 -0.0776 -0.2467
  430MOL0     C57956   6.199  10.931  14.411  0.6617 -0.2493  0.1622
  430MOL0     C57957   6.158  10.980  14.555  0.1702  0.6526 -0.3219
  430MOL0     C57958   6.273  11.035  14.625  0.5067 -0.5333  0.5383
  430MOL0     C57959   6.227  11.095  14.757 -0.8355  0.7036 -0.2259
  430MOL0    Cl57960   6.133  11.247  14.737  0.0038  0.6161  0.3746
  430MOL0     C57961   5.935  10.672  13.657 -0.5770 -0.3848 -0.5584
  430MOL0     C57962   5.960  10.669  13.521 -0.3639 -0.9737  1.2674
  430MOL0     O57963   6.213  10.457  13.301 -0.0364 -0.0355  0.0182
  430MOL0     C57964   6.339  10.516  13.071  0.2769 -0.9198 -1.4432
  430MOL0     C57965   6.410  10.553  12.961  0.1392  0.7138  0.1163
  430MOL0     N57966   6.542  10.343  12.259  0.8602  0.1356 -0.4460
  430MOL0     N57967   6.610  10.237  12.240 -0.0435  0.0139  0.4442
  430MOL0     C57968   7.472  10.559  11.655  0.6861  0.9716  1.3124
  430MOL0     C57969   7.526  10.600  11.526 -0.3193  0.2410 -0.1233
  430MOL0     C57970   7.584  10.833  11.154  0.3927  1.3796 -0.0295
  430MOL0     C57971   7.530  10.810  11.028  0.3856 -0.3804 -0.1865
  430MOL0     C57972   7.523  10.907  10.926 -0.8021 -0.9539  0.4653
  430MOL0     C57973   7.564  11.037  10.957 -0.1433 -0.5760  0.0803
  430MOL0     O57974   7.574  11.132  10.870  0.4996  0.4341  0.6053
  430MOL0     C57975   7.476  11.153  10.769 -0.4240  0.0004  0.5963
  430MOL0     C57976   7.520  11.289  10.697 -0.3822 -0.6964 -0.1763
  430MOL0     C57977   7.497  11.422  10.779  0.6669  0.5115  0.5854
  430MOL0     C57978   7.508  11.554  10.699  0.0205  0.3692  0.6563
  430MOL0     C57979   7.434  11.654  10.771 -0.8686  0.3250 -0.4469
  430MOL0     C57980   7.373  11.733  10.835  0.1560  0.2654  0.7636
  430MOL0     C57981   7.620  11.066  11.086 -0.3699 -1.0547 -0.2707
  430MOL0     C57982   7.624  10.962  11.185  0.4392  0.0412 -0.7738
  430MOL0     H57983   7.647  10.903  11.601  1.6529 -0.9658 -2.0291
  430MOL0     H57984   7.558  10.838  11.835  0.8483  0.7192  0.4382
  430MOL0     H57985   7.475  10.425  11.876  2.6106  2.8124 -0.7458
  430MOL0     H57986   7.398  10.475  12.031 -1.8404  2.5646 -0.0744
  430MOL0     H57987   7.248  10.455  11.772  1.9766 -3.3333 -0.7751
  430MOL0     H57988   7.254  10.330  11.887  2.1345  0.3574 -1.9701
  430MOL0     H57989   7.169  10.515  12.070 -1.5937  2.9458 -0.3993
  430MOL0     H57990   7.122  10.601  11.936 -0.0997 -0.9779 -1.9041
  430MOL0     H57991   6.925  10.475  11.974 -0.6701 -0.8128  0.4674
  430MOL0     H57992   6.998  10.390  11.852 -2.8873  0.1609  1.0166
  430MOL0     H57993   7.116  10.254  12.021  0.3406 -1.9343  0.6363
  430MOL0     H57994   7.011  10.344  12.146 -1.2093  3.6138 -1.5084
  430MOL0     H57995   6.813  10.264  12.027  0.6363  0.0982  0.4185
  430MOL0     H57996   6.899  10.154  11.944 -0.2645  0.5778  0.7822
  430MOL0     H57997   6.812  10.027  12.123  3.5491 -2.9109 -2.3981
  430MOL0     H57998   6.973  10.039  12.162  0.4016  1.7891 -2.0008
  430MOL0     H57999   6.935  10.225  12.322  1.2067 -0.8254 -1.5918
  430MOL0     H58000   6.830  10.080  12.368  1.0742 -0.1949 -0.0190
  430MOL0     H58001   6.806  10.417  12.432  0.6400 -0.9903  0.1759
  430MOL0     H58002   6.663  10.640  12.387 -0.2316 -0.3108  2.1983
  430MOL0     H58003   6.515  10.607  12.287  0.2461 -1.7556 -0.7193
  430MOL0     H58004   6.566  10.524  12.572  1.3211 -4.3459 -2.5504
  430MOL0     H58005   6.420  10.495  12.484 -0.4304  0.6353 -0.0619
  430MOL0     H58006   6.362  10.734  12.448 -0.1574  0.0168  0.9347
  430MOL0     H58007   6.509  10.789  12.525 -0.6589  0.5267  0.2972
  430MOL0     H58008   6.271  10.629  12.652 -1.1875  0.9683  0.7889
  430MOL0     H58009   6.308  10.801  12.657  2.0372  1.5618 -2.9073
  430MOL0     H58010   6.221  10.805  12.852 -0.2556  0.2105 -0.1810
  430MOL0     H58011   6.083  10.843  13.157 -2.6314  1.3430  1.0700
  430MOL0     H58012   6.010  10.832  13.001 -2.2059 -1.5074  1.2171
  430MOL0     H58013   5.982  10.699  13.103  1.5275 -1.1228 -0.6817
  430MOL0     H58014   6.299  10.625  13.534  0.1457 -0.9420  1.7707
  430MOL0     H58015   6.257  10.639  13.768 -1.3073  0.7853  1.5262
  430MOL0     H58016   6.190  10.641  14.000  1.2480  0.0281 -1.7879
  430MOL0     H58017   6.189  10.791  13.925 -1.1092  0.1994 -2.4459
  430MOL0     H58018   5.998  10.873  14.079  2.2689  0.3409 -1.0083
  430MOL0     H58019   5.986  10.699  14.147 -0.4918  0.5100 -1.0903
  430MOL0     H58020   6.212  10.902  14.151  1.3469 -0.5482 -1.3934
  430MOL0     H58021   6.224  10.745  14.221  0.5115  1.0870  1.5121
  430MOL0     H58022   6.014  10.948  14.316  1.5807  0.6380  1.0531
  430MOL0     H58023   6.039  10.792  14.387  2.5545  0.3449  1.6895
  430MOL0     H58024   6.236  11.012  14.346  2.1960 -2.2647 -1.6152
  430MOL0     H58025   6.281  10.861  14.426  1.7677  1.0565  0.3494
  430MOL0     H58026   6.075  11.051  14.547 -0.2911  0.1352 -0.1889
  430MOL0     H58027   6.122  10.895  14.613 -1.8655  0.5522 -1.6078
  430MOL0     H58028   6.312  11.123  14.573 -1.2373 -0.3858 -0.5955
  430MOL0     H58029   6.352  10.959  14.629  0.9889 -0.0782 -0.2011
  430MOL0     H58030   6.318  11.122  14.812 -0.5342 -2.1044  0.8570
  430MOL0     H58031   6.176  11.018  14.816  5.2995 -2.2647  2.1697
  430MOL0     H58032   5.834  10.675  13.697  0.1842 -2.8052  1.8620
  430MOL0     H58033   5.871  10.671  13.459  0.4477 -0.9168  0.0567
  430MOL0     H58034   6.376  10.435  13.133 -1.4761 -2.1509 -1.9506
  430MOL0     H58035   6.494  10.494  12.925 -1.4736 -1.1667 -0.7810
  430MOL0     H58036   7.434  10.458  11.667  0.6708  0.8712  0.4410
  430MOL0     H58037   7.526  10.520  11.453  1.8282  1.7871 -1.9325
  430MOL0     H58038   7.481  10.716  11.004 -0.0237  0.3198 -2.3073
  430MOL0     H58039   7.481  10.892  10.827 -0.1379  2.3234 -0.4329
  430MOL0     H58040   7.477  11.068  10.700  1.2260 -1.1293  1.9219
  430MOL0     H58041   7.378  11.162  10.816 -0.6112  1.3057  0.0065
  430MOL0     H58042   7.447  11.291  10.616 -2.2646  0.7400  1.4464
  430MOL0     H58043   7.626  11.280  10.670  0.7899  0.3268  3.4562
  430MOL0     H58044   7.551  11.419  10.874 -0.3377 -0.3451  1.1420
  430MOL0     H58045   7.394  11.422  10.815  0.2035 -2.2307 -0.4640
  430MOL0     H58046   7.466  11.535  10.601  2.2353 -2.2535  0.0821
  430MOL0     H58047   7.612  11.589  10.692 -0.6209  2.6618  1.6967
  430MOL0     H58048   7.301  11.800  10.876 -0.2371  3.6141 -4.3377
  430MOL0     H58049   7.664  11.160  11.116  0.1253 -0.4248 -2.7479
  430MOL0     H58050   7.647  10.978  11.290 -2.2038 -1.2456  0.0816
  431MOL0     O58051   8.324   0.445   0.971  0.5674 -0.2430  0.1507
  431MOL0     C58052   8.271   0.516   1.057 -0.5695  0.6149 -0.0343
  431MOL0     O58053   8.334   0.615   1.118 -0.0590  0.2602  0.8877
  431MOL0     C58054   8.469   0.648   1.116  0.9204 -0.9091 -0.0135
  431MOL0     C58055   8.499   0.773   1.161  0.3165  0.5312  0.4165
  431MOL0     C58056   8.622   0.820   1.167  0.4579 -0.4276 -0.7300
  431MOL0     C58057   8.735   0.739   1.145 -0.4809  1.0031  0.2999
  431MOL0     O58058   8.873   0.772   1.165  0.2671  0.2528  0.1281
  431MOL0     C58059   8.901   0.907   1.199 -0.8080 -0.2860 -0.6680
  431MOL0     C58060   8.910   0.995   1.082 -0.6007 -0.4306 -0.3405
  431MOL0     C58061   8.911   1.146   1.120  0.6386 -0.5203 -0.0911
  431MOL0     C58062   8.915   1.232   0.985 -0.0525  1.0157  0.4995
  431MOL0     C58063   8.883   1.380   1.011 -0.3481 -0.1958  0.3011
  431MOL0     C58064   8.971   1.439   1.117  0.1198  0.9431 -0.3964
  431MOL0     C58065   8.937   1.590   1.152 -1.0833  0.0765  0.0375
  431MOL0     C58066   9.069   1.672   1.169  0.3369  0.1358 -0.0300
  431MOL0     N58067   9.148   1.638   1.291  0.7783  0.1844  0.1867
  431MOL0     C58068   9.109   1.625   1.425  0.3036  0.0199  1.0474
  431MOL0     C58069   9.217   1.571   1.491  0.5007  0.7711  0.0824
  431MOL0     C58070   9.237   1.561   1.642  1.1168  0.5358 -0.2500
  431MOL0     C58071   9.316   1.668   1.710 -0.7447  0.0396 -0.1717
  431MOL0     C58072   9.351   1.640   1.865  0.2736 -0.1253  0.9191
  431MOL0     C58073   9.226   1.635   1.948 -0.4371 -0.1178  0.7196
  431MOL0     O58074   9.146   1.514   1.940  0.4372 -0.5750  0.3031
  431MOL0     C58075   9.198   1.409   2.009  0.1945  0.8061 -0.1942
  431MOL0     C58076   9.206   1.401   2.145 -0.3916 -0.7948 -1.3453
  431MOL0     C58077   9.274   1.290   2.207  0.0027  1.6058 -0.7113
  431MOL0     C58078   9.269   1.302   2.358  0.5092  0.5624 -0.2428
  431MOL0     C58079   9.316   1.171   2.141  0.3441 -0.6782  1.2294
  431MOL0     C58080   9.379   1.058   2.212 -0.5369  0.7794  0.3077
  431MOL0     O58081   9.366   1.044   2.344 -1.6176 -0.7884  0.1031
  431MOL0     C58082   9.459   0.969   2.411 -0.0917 -0.6159  0.0560
  431MOL0     C58083   9.585   1.020   2.444  0.8522  0.0657  0.2875
  431MOL0     C58084   9.670   0.942   2.529 -0.3427  0.1101 -0.2272
  431MOL0     C58085   9.634   0.805   2.561 -0.4250  0.1439 -0.0499
  431MOL0     O58086   9.732   0.718   2.608 -0.1111 -0.7616 -1.0189
  431MOL0     C58087   9.732   0.575   2.590 -0.6334  0.4170  0.8065
  431MOL0     C58088   9.695   0.476   2.709  0.2376  0.5955  0.2536
  431MOL0     C58089   9.558   0.506   2.771 -0.0047  0.6339  0.8081
  431MOL0     C58090   9.534   0.424   2.904 -1.0697 -0.4559 -1.0934
  431MOL0     C58091   9.424   0.479   2.985  0.3210  0.2021  0.5260
  431MOL0     C58092   9.417   0.423   3.131 -0.4205 -0.1153  0.2752
  431MOL0     C58093   9.269   0.444   3.179 -0.2779 -0.6491  0.0098
  431MOL0     C58094   9.225   0.359   3.301 -0.4682  0.2711 -0.0542
  431MOL0    Cl58095   9.283   0.412   3.459 -0.1462  0.1905  0.1369
  431MOL0     C58096   9.505   0.752   2.526 -0.5837 -1.4641 -0.1063
  431MOL0     C58097   9.419   0.839   2.453 -0.0700  0.5718 -0.6055
  431MOL0     O58098   9.441   0.986   2.140  0.1488  0.0617  0.0483
  431MOL0     C58099   9.293   1.182   2.007 -0.1363 -0.2726  0.7100
  431MOL0     C58100   9.254   1.298   1.940  0.2323  0.4261 -0.0184
  431MOL0     N58101   9.321   1.578   1.401 -0.1826 -0.1908 -0.0048
  431MOL0     N58102   9.283   1.614   1.284  1.2359  0.1162  0.8102
  431MOL0     C58103   8.707   0.611   1.088  0.0807  0.0458 -0.9765
  431MOL0     C58104   8.577   0.563   1.082  0.3787  0.6504 -0.6207
  431MOL0     C58105   8.138   0.480   1.102 -0.0851  0.0466 -0.1319
  431MOL0     C58106   8.086   0.509   1.232  0.2534 -0.0072 -1.0782
  431MOL0     C58107   7.963   0.463   1.272  0.6447  0.2137  0.2974
  431MOL0     C58108   7.874   0.391   1.194 -0.4731 -0.4015  0.7583
  431MOL0     O58109   7.758   0.325   1.225 -0.7467  0.4259 -0.1004
  431MOL0     C58110   7.685   0.365   1.339 -0.0679 -0.2132  0.6616
  431MOL0     C58111   7.542   0.338   1.290  0.1312 -0.8101  1.5166
  431MOL0     C58112   7.499   0.189   1.261  1.1586  0.1462 -0.6560
  431MOL0     C58113   7.345   0.186   1.218  0.2292 -0.0257 -0.4021
  431MOL0     C58114   7.258   0.260   1.307 -0.2847 -0.7195  0.2328
  431MOL0     C58115   7.189   0.312   1.388 -0.2012  0.7256  0.0415
  431MOL0     C58116   7.918   0.372   1.065  0.4942 -0.3506  0.6589
  431MOL0     C58117   8.048   0.410   1.023 -1.2215 -0.4185  0.6524
  431MOL0     H58118   8.409   0.833   1.172 -0.2755 -0.2868  0.1227
  431MOL0     H58119   8.649   0.925   1.174 -1.0959 -0.1057  1.7134
  431MOL0     H58120   8.822   0.940   1.267 -0.8796  1.7954 -1.6729
  431MOL0     H58121   8.993   0.900   1.257 -2.3637 -0.4842  1.9171
  431MOL0     H58122   9.002   0.982   1.023 -0.7860  0.9321 -0.9769
  431MOL0     H58123   8.824   0.983   1.015 -1.0909 -2.2225  0.5469
  431MOL0     H58124   8.812   1.153   1.165  1.0868 -0.9862  1.0057
  431MOL0     H58125   8.995   1.166   1.188  1.5773  1.3441 -1.6837
  431MOL0     H58126   9.022   1.226   0.960 -0.5499  2.2955 -2.2786
  431MOL0     H58127   8.855   1.192   0.903  1.7073 -1.1668  0.1630
  431MOL0     H58128   8.895   1.433   0.916 -2.1911 -0.7568 -0.2861
  431MOL0     H58129   8.776   1.397   1.024 -1.0235 -1.5619 -2.6229
  431MOL0     H58130   8.977   1.384   1.211  0.3953 -0.4220 -1.1907
  431MOL0     H58131   9.071   1.433   1.073  0.9738 -1.6261  1.6868
  431MOL0     H58132   8.882   1.635   1.068 -1.7887 -1.6644 -0.4836
  431MOL0     H58133   8.872   1.597   1.239 -0.7939 -0.1897  0.2777
  431MOL0     H58134   9.048   1.779   1.175  0.1070  0.1654 -1.0966
  431MOL0     H58135   9.138   1.654   1.086  0.5768  0.4893  0.0938
  431MOL0     H58136   9.013   1.662   1.460 -0.5332 -0.0966 -0.9478
  431MOL0     H58137   9.140   1.558   1.692  2.3533 -0.5311  2.2559
  431MOL0     H58138   9.270   1.461   1.673 -1.4728 -0.8261 -1.6057
  431MOL0     H58139   9.264   1.765   1.711  2.2726  1.7660  0.0984
  431MOL0     H58140   9.403   1.693   1.650  1.7873  0.5207  3.3679
  431MOL0     H58141   9.399   1.730   1.906  0.0539 -0.6980  2.4848
  431MOL0     H58142   9.415   1.553   1.881  1.4839  0.2641 -1.2659
  431MOL0     H58143   9.165   1.718   1.912  1.0327  1.1473  1.0076
  431MOL0     H58144   9.249   1.653   2.054  2.7727  2.0551 -0.1645
  431MOL0     H58145   9.171   1.488   2.198 -4.8677 -1.4617 -2.7927
  431MOL0     H58146   9.362   1.291   2.415  0.2714  1.1822  0.2761
  431MOL0     H58147   9.228   1.397   2.393  2.4318  1.1432  0.6038
  431MOL0     H58148   9.197   1.224   2.384 -0.5643  1.3088 -0.9422
  431MOL0     H58149   9.609   1.120   2.409  0.2426  0.3673  0.7055
  431MOL0     H58150   9.766   0.986   2.553  2.0124 -4.3867 -0.2141
  431MOL0     H58151   9.681   0.545   2.498 -1.7259  1.5668  1.0169
  431MOL0     H58152   9.836   0.548   2.568 -0.9805 -2.0403  1.8732
  431MOL0     H58153   9.684   0.377   2.665  1.2455 -0.4102  2.1625
  431MOL0     H58154   9.772   0.485   2.786  0.2412 -3.5522  0.9554
  431MOL0     H58155   9.479   0.482   2.701  0.0464  0.8211  0.6862
  431MOL0     H58156   9.568   0.608   2.811 -1.2499  0.4227  1.7443
  431MOL0     H58157   9.532   0.315   2.907  1.2536 -0.5374  0.4495
  431MOL0     H58158   9.618   0.448   2.970 -1.6524  2.0440 -1.1659
  431MOL0     H58159   9.334   0.444   2.933  1.6769 -2.2285 -0.3429
  431MOL0     H58160   9.441   0.587   2.994 -0.7745  0.4306 -0.0156
  431MOL0     H58161   9.446   0.319   3.150  2.4167  0.5820  0.2955
  431MOL0     H58162   9.481   0.481   3.198  3.5275 -1.6520 -1.8093
  431MOL0     H58163   9.208   0.389   3.108  0.6188 -3.2413  1.1358
  431MOL0     H58164   9.233   0.548   3.178 -0.4767 -0.7097  0.6040
  431MOL0     H58165   9.256   0.255   3.290  2.1254  0.8973  0.5411
  431MOL0     H58166   9.116   0.362   3.305 -0.4250  1.2278  0.7681
  431MOL0     H58167   9.469   0.652   2.547 -3.3153 -1.1070 -2.4147
  431MOL0     H58168   9.328   0.794   2.415  1.2906 -0.6172 -2.6879
  431MOL0     H58169   9.333   1.106   1.939  2.4761  1.8237 -0.2921
  431MOL0     H58170   9.269   1.303   1.833 -2.8275 -1.0322 -0.6030
  431MOL0     H58171   8.795   0.552   1.061 -0.5480 -1.8079  0.7566
  431MOL0     H58172   8.553   0.458   1.069  3.3070 -0.6357  2.6009
  431MOL0     H58173   8.152   0.571   1.293  1.6058 -2.5197  0.1894
  431MOL0     H58174   7.925   0.481   1.372  0.8849  1.3753  0.1943
  431MOL0     H58175   7.719   0.303   1.423 -2.1538 -2.0513  0.2466
  431MOL0     H58176   7.693   0.472   1.362 -1.7055 -0.1323  0.9871
  431MOL0     H58177   7.533   0.403   1.202 -1.1681 -1.4274  1.1675
  431MOL0     H58178   7.475   0.372   1.369 -1.6598  3.4880 -1.4664
  431MOL0     H58179   7.503   0.133   1.355 -3.6665  2.3746  1.1541
  431MOL0     H58180   7.564   0.135   1.190  0.7100 -0.1462 -0.8479
  431MOL0     H58181   7.310   0.083   1.205 -2.4091  0.7824 -0.1464
  431MOL0     H58182   7.333   0.226   1.117  2.2175  0.1022 -0.6272
  431MOL0     H58183   7.133   0.371   1.458  0.5052 -1.1433  2.2807
  431MOL0     H58184   7.861   0.318   0.990 -0.0188 -0.5905  1.2102
  431MOL0     H58185   8.091   0.388   0.926 -0.3511  0.2742  0.8690
  432MOL0     O58186   7.922  10.778   1.463  0.9205  0.9604 -0.0863
  432MOL0     C58187   7.989  10.695   1.533  0.0896  0.1219  0.1637
  432MOL0     O58188   8.132  10.691   1.543  0.1315  0.3804 -0.0783
  432MOL0     C58189   8.177  10.820   1.520  0.6744  0.8708 -0.7172
  432MOL0     C58190   8.220  10.854   1.390  0.3117  0.0974  0.0214
  432MOL0     C58191   8.269  10.973   1.353 -0.6482  0.0397  0.2405
  432MOL0     C58192   8.291  11.069   1.462  0.6101  0.5950  0.8238
  432MOL0     O58193   8.349  11.185   1.414  0.3260 -0.1066  0.3925
  432MOL0     C58194   8.414  11.260   1.516 -0.6457 -0.5492  0.0085
  432MOL0     C58195   8.498  11.369   1.454 -1.2719  0.7452  0.1999
  432MOL0     C58196   8.637  11.321   1.408  0.5176 -0.4326 -0.1691
  432MOL0     C58197   8.753  11.345   1.505 -0.0307  0.3253  0.2791
  432MOL0     C58198   8.894  11.342   1.431  0.3496 -0.3606 -0.3266
  432MOL0     C58199   9.026  11.323   1.505 -0.0397 -0.9427 -0.1843
  432MOL0     C58200   9.049  11.179   1.536 -0.5067  0.7717 -0.1003
  432MOL0     C58201   9.189  11.153   1.594 -0.5981 -0.6619 -0.3178
  432MOL0     N58202   9.202  11.027   1.664 -0.1258 -0.3674  0.5880
  432MOL0     C58203   9.158  10.991   1.798 -0.2673  0.6158  0.1331
  432MOL0     C58204   9.211  10.864   1.815 -0.4991 -0.4010 -0.5744
  432MOL0     C58205   9.170  10.773   1.922  1.0346  0.1466  0.2636
  432MOL0     C58206   9.232  10.843   2.052  0.1616 -0.9733 -0.6985
  432MOL0     C58207   9.242  10.737   2.166  0.0645 -0.1548  0.2201
  432MOL0     C58208   9.296  10.802   2.287 -0.2955  0.0903 -0.5063
  432MOL0     O58209   9.206  10.889   2.356  0.3966 -0.6236  0.5455
  432MOL0     C58210   9.237  10.900   2.487 -0.9685  0.5433 -0.0742
  432MOL0     C58211   9.363  10.942   2.528 -0.7373  0.4310  0.6434
  432MOL0     C58212   9.387  10.944   2.664  0.3314 -0.0640  0.1765
  432MOL0     C58213   9.529  10.952   2.700 -0.6695 -0.2701 -0.6153
  432MOL0     C58214   9.287  10.922   2.766 -0.1692 -0.5542  0.3045
  432MOL0     C58215   9.304  10.943   2.920  0.3110 -0.8206  0.9535
  432MOL0     O58216   9.230  10.864   3.002  0.4316  0.2581  0.9355
  432MOL0     C58217   9.275  10.840   3.128 -0.4966 -0.2687 -0.1502
  432MOL0     C58218   9.385  10.900   3.197 -0.1858  0.2351 -0.1651
  432MOL0     C58219   9.409  10.859   3.331  0.5450  0.5594 -0.2918
  432MOL0     C58220   9.329  10.765   3.402 -0.3721  1.1586 -0.6254
  432MOL0     O58221   9.355  10.725   3.531 -0.7498 -0.1208 -0.3180
  432MOL0     C58222   9.248  10.705   3.626  0.6211  0.2287  0.5358
  432MOL0     C58223   9.294  10.710   3.764 -1.7506 -0.2632 -0.7795
  432MOL0     C58224   9.404  10.612   3.798 -0.4213  0.3638  0.4167
  432MOL0     C58225   9.475  10.631   3.936  0.9376  0.3076  0.2123
  432MOL0     C58226   9.604  10.551   3.941  0.2352 -0.3047 -0.0009
  432MOL0     C58227   9.663  10.570   4.087  0.1957 -1.1024  0.1097
  432MOL0     C58228   9.776  10.486   4.116  0.4228  0.6821 -1.0840
  432MOL0     C58229   9.906  10.503   4.031  0.0453  1.3914 -0.1376
  432MOL0    Cl58230   9.990  10.658   4.079 -0.1500  0.6117 -0.5477
  432MOL0     C58231   9.211  10.730   3.342  0.6144  1.2049 -0.7186
  432MOL0     C58232   9.190  10.759   3.206  0.1638 -0.5971  0.7211
  432MOL0     O58233   9.358  11.048   2.952  0.1343 -0.0902 -0.5789
  432MOL0     C58234   9.167  10.886   2.719 -0.8324 -0.0152 -1.3013
  432MOL0     C58235   9.146  10.874   2.584  0.9560 -0.0553  0.5422
  432MOL0     N58236   9.289  10.832   1.701  0.4930  0.3325  0.1920
  432MOL0     N58237   9.288  10.932   1.616  0.1599  0.2491 -0.8111
  432MOL0     C58238   8.248  11.038   1.594  0.3241  0.0158  0.2221
  432MOL0     C58239   8.192  10.916   1.619 -0.0671 -1.0131  1.0862
  432MOL0     C58240   7.918  10.576   1.585  0.2001 -0.1370 -0.3026
  432MOL0     C58241   7.991  10.460   1.625  0.1510  0.2622  0.2645
  432MOL0     C58242   7.914  10.347   1.660  0.9438  1.2712  0.0690
  432MOL0     C58243   7.770  10.354   1.689  0.2800 -0.6537  0.0241
  432MOL0     O58244   7.708  10.240   1.747 -0.0957 -1.2561 -0.3406
  432MOL0     C58245   7.569  10.242   1.774 -0.1529  0.3255 -0.2178
  432MOL0     C58246   7.518  10.116   1.846  0.0005 -0.0101 -0.7956
  432MOL0     C58247   7.558  10.118   1.991  0.1224 -0.0482 -0.1532
  432MOL0     C58248   7.533   9.981   2.053  0.3016  0.8187 -0.8220
  432MOL0     C58249   7.575   9.977   2.196  0.7047  0.4897 -0.5550
  432MOL0     C58250   7.612   9.977   2.311 -0.5523 -1.1418  0.4247
  432MOL0     C58251   7.708  10.481   1.657 -0.8420  0.4399  0.9992
  432MOL0     C58252   7.780  10.583   1.609  0.1201  0.7488  0.6351
  432MOL0     H58253   8.197  10.776   1.318  2.7407 -2.6906  1.9922
  432MOL0     H58254   8.299  10.999   1.253 -0.7165 -1.1782 -0.1142
  432MOL0     H58255   8.333  11.310   1.570 -1.5981 -1.2338 -0.7388
  432MOL0     H58256   8.480  11.197   1.576  0.1916 -1.1024 -1.4315
  432MOL0     H58257   8.442  11.419   1.374  0.8685  0.9584 -1.2302
  432MOL0     H58258   8.526  11.446   1.527  0.5588  1.4526 -1.1976
  432MOL0     H58259   8.641  11.218   1.372 -1.6049 -0.4872 -0.3352
  432MOL0     H58260   8.668  11.382   1.323 -0.7213 -0.7510 -0.8759
  432MOL0     H58261   8.742  11.443   1.552  1.8851  2.1768 -2.7988
  432MOL0     H58262   8.769  11.259   1.571 -2.9130 -2.6964 -2.5616
  432MOL0     H58263   8.887  11.255   1.366  2.1983 -0.4916 -0.4066
  432MOL0     H58264   8.900  11.424   1.358 -0.9753  0.7354  0.7420
  432MOL0     H58265   9.112  11.355   1.445 -0.9582 -1.5821 -1.9239
  432MOL0     H58266   9.007  11.370   1.601  0.8117 -0.5225 -0.2158
  432MOL0     H58267   8.980  11.141   1.611 -0.5628 -0.9275 -0.9626
  432MOL0     H58268   9.047  11.126   1.440  0.5404  4.0982 -2.1274
  432MOL0     H58269   9.217  11.233   1.663 -0.0990 -2.2302  1.3666
  432MOL0     H58270   9.266  11.157   1.517  0.2888  1.7092  0.5869
  432MOL0     H58271   9.093  11.042   1.868  1.9252 -0.1618  2.9195
  432MOL0     H58272   9.061  10.772   1.934  0.9449 -1.3630 -0.3678
  432MOL0     H58273   9.196  10.668   1.902 -2.4844 -0.9787  0.9481
  432MOL0     H58274   9.174  10.932   2.080  0.3949 -1.1781  0.4818
  432MOL0     H58275   9.331  10.886   2.035  0.7277 -2.2822 -0.7861
  432MOL0     H58276   9.310  10.660   2.127 -1.9418 -1.0935 -1.6751
  432MOL0     H58277   9.146  10.691   2.190 -1.0186  2.6879  1.7267
  432MOL0     H58278   9.386  10.862   2.269 -1.2241  2.0227  0.8515
  432MOL0     H58279   9.318  10.718   2.354  0.7725  1.2258  0.6245
  432MOL0     H58280   9.441  10.955   2.454 -0.3414  3.6761  1.4956
  432MOL0     H58281   9.596  10.883   2.648 -0.7228  0.2919 -1.4317
  432MOL0     H58282   9.561  11.050   2.664  0.8236  0.7229  2.8883
  432MOL0     H58283   9.556  10.956   2.806 -0.4367 -0.0787 -0.6802
  432MOL0     H58284   9.462  10.960   3.149  0.7350  0.0319  1.0107
  432MOL0     H58285   9.488  10.893   3.398  0.0833 -3.0254  2.3851
  432MOL0     H58286   9.170  10.780   3.615 -0.9413 -1.3743  0.3360
  432MOL0     H58287   9.199  10.609   3.609 -0.8569  1.0057  0.3062
  432MOL0     H58288   9.339  10.807   3.787 -1.8238 -0.3661 -0.1798
  432MOL0     H58289   9.214  10.696   3.837 -1.7746  0.0178 -0.7495
  432MOL0     H58290   9.478  10.609   3.717 -0.0700  0.8605  0.7117
  432MOL0     H58291   9.358  10.513   3.800 -0.2729  0.2930  0.3617
  432MOL0     H58292   9.504  10.736   3.939 -3.0675  1.6589 -1.9173
  432MOL0     H58293   9.403  10.605   4.015 -1.4335  0.0633 -1.9257
  432MOL0     H58294   9.670  10.584   3.860 -0.5994 -0.4314 -0.7495
  432MOL0     H58295   9.587  10.444   3.927  2.0998 -0.9744  2.2557
  432MOL0     H58296   9.691  10.675   4.100  0.7816 -0.8413 -2.7250
  432MOL0     H58297   9.586  10.549   4.162 -3.2449  3.3841 -1.6939
  432MOL0     H58298   9.738  10.387   4.091 -1.2604  1.0636 -0.1520
  432MOL0     H58299   9.796  10.510   4.221 -0.0984  0.9528 -1.0442
  432MOL0     H58300   9.885  10.497   3.924 -1.4073  2.8467  0.0335
  432MOL0     H58301   9.972  10.418   4.048 -1.6576  0.0933  0.3017
  432MOL0     H58302   9.136  10.667   3.389  0.1816  1.1384 -1.4758
  432MOL0     H58303   9.099  10.718   3.163  0.3167 -1.1501  0.9079
  432MOL0     H58304   9.085  10.863   2.786 -0.7672  2.5582 -0.2246
  432MOL0     H58305   9.049  10.844   2.545  1.0183 -2.0305  1.7895
  432MOL0     H58306   8.268  11.110   1.671 -0.5588  0.0552  0.4261
  432MOL0     H58307   8.169  10.874   1.716  1.4506 -0.3994  1.7384
  432MOL0     H58308   8.099  10.456   1.618 -0.0029 -1.4105 -2.9471
  432MOL0     H58309   7.963  10.252   1.679 -1.4720  0.0223  0.4659
  432MOL0     H58310   7.540  10.330   1.833  1.6349  2.3436 -2.1469
  432MOL0     H58311   7.520  10.261   1.678 -4.4102 -2.9701  0.9539
  432MOL0     H58312   7.552  10.030   1.787  0.8055  1.1115 -2.0276
  432MOL0     H58313   7.410  10.134   1.849  0.3339  2.1035  0.1195
  432MOL0     H58314   7.487  10.179   2.048 -1.5296 -0.5417 -1.5746
  432MOL0     H58315   7.661  10.154   1.996  0.3432 -0.8390  3.1655
  432MOL0     H58316   7.589   9.911   1.990 -2.5524  0.7055 -3.4856
  432MOL0     H58317   7.432   9.946   2.032  0.8824 -0.1512 -2.1700
  432MOL0     H58318   7.627   9.984   2.417 -2.3446 -0.4986  0.6732
  432MOL0     H58319   7.603  10.496   1.681 -0.4254 -0.6790  3.8209
  432MOL0     H58320   7.712  10.656   1.566  1.1366 -0.0013 -2.5420
  433MOL0     O58321   1.066   9.283   0.636  0.2077  0.4934  0.3250
  433MOL0     C58322   1.038   9.275   0.522  0.7142  0.0408  0.1347
  433MOL0     O58323   0.939   9.356   0.463  0.7015  0.0930  0.3521
  433MOL0     C58324   0.918   9.486   0.503  0.4689  0.1741 -0.1800
  433MOL0     C58325   0.789   9.541   0.490  0.5806  0.2614  0.7024
  433MOL0     C58326   0.760   9.667   0.515  0.3460  0.1401  0.2594
  433MOL0     C58327   0.862   9.754   0.552  1.4740  0.1436 -0.2043
  433MOL0     O58328   0.822   9.887   0.563  0.4378  0.8931 -0.4729
  433MOL0     C58329   0.917   9.992   0.543 -0.2272 -0.2741  0.2235
  433MOL0     C58330   0.839  10.106   0.467 -0.3220 -0.1801 -0.4874
  433MOL0     C58331   0.922  10.232   0.444 -0.6177 -0.3570 -0.6657
  433MOL0     C58332   0.927  10.334   0.569 -0.0561 -0.4547 -1.1155
  433MOL0     C58333   0.943  10.474   0.524 -0.3775 -0.1402  0.2129
  433MOL0     C58334   1.066  10.495   0.434 -0.0508  0.4655  0.3440
  433MOL0     C58335   1.068  10.642   0.392 -0.3564 -0.0910  0.4078
  433MOL0     C58336   1.147  10.729   0.492 -0.1071 -0.6404  0.2008
  433MOL0     N58337   1.138  10.862   0.435  0.2469 -0.4022 -0.1181
  433MOL0     C58338   1.201  10.910   0.323 -0.5608  0.4465 -0.1568
  433MOL0     C58339   1.152  11.037   0.323 -0.5392 -0.0968 -0.4140
  433MOL0     C58340   1.163  11.127   0.206 -0.0705  0.1601 -0.1332
  433MOL0     C58341   1.271  11.235   0.210  0.5021  0.4084 -0.3583
  433MOL0     C58342   1.410  11.193   0.271  0.0556 -0.0958 -0.7694
  433MOL0     C58343   1.511  11.302   0.247  0.3506  0.0021  0.4838
  433MOL0     O58344   1.559  11.321   0.114  0.4067  0.2291  0.8092
  433MOL0     C58345   1.654  11.415   0.096  0.1840  0.3373  0.1287
  433MOL0     C58346   1.715  11.490   0.197 -0.0542  0.4875  0.1217
  433MOL0     C58347   1.793  11.602   0.166  0.2622  0.3211  0.3885
  433MOL0     C58348   1.856  11.673   0.282  0.4348 -0.6791  0.1565
  433MOL0     C58349   1.809  11.639   0.031  0.6405 -0.1270  0.7154
  433MOL0     C58350   1.895  11.744  -0.022 -0.4508  0.6600  0.3893
  433MOL0     O58351   1.870  11.809  -0.141 -0.2461  0.6202  0.0263
  433MOL0     C58352   1.966  11.882  -0.212  0.1464 -0.6690  0.2659
  433MOL0     C58353   1.909  11.998  -0.264 -0.5681 -0.0037  0.5221
  433MOL0     C58354   2.000  12.060  -0.354  0.4402  0.3471  0.1081
  433MOL0     C58355   2.143  12.034  -0.361  0.4406 -0.0998 -0.4246
  433MOL0     O58356   2.230  12.095  -0.444  0.1394  0.3655 -0.2070
  433MOL0     C58357   2.335  12.170  -0.375 -0.2540 -0.3120  1.2176
  433MOL0     C58358   2.426  12.209  -0.492 -0.0004 -0.2907  0.5729
  433MOL0     C58359   2.549  12.282  -0.436 -0.1880 -0.0130 -0.0572
  433MOL0     C58360   2.629  12.357  -0.539 -0.1220 -0.1992 -0.6842
  433MOL0     C58361   2.715  12.471  -0.474 -0.1922  0.4531 -0.1907
  433MOL0     C58362   2.761  12.578  -0.576  0.1091 -0.2653  0.4494
  433MOL0     C58363   2.801  12.710  -0.505  0.1713 -0.7345 -0.6885
  433MOL0     C58364   2.785  12.833  -0.594 -0.0738  0.2277  0.0091
  433MOL0    Cl58365   2.811  12.988  -0.503  0.2721 -0.7785  0.3044
  433MOL0     C58366   2.189  11.928  -0.284  0.0382 -0.0164 -0.2455
  433MOL0     C58367   2.103  11.847  -0.220 -0.1852  0.4692 -0.9895
  433MOL0     O58368   1.996  11.762   0.044  0.1797  0.4068  0.4893
  433MOL0     C58369   1.746  11.567  -0.066 -0.6471 -0.4343 -0.4844
  433MOL0     C58370   1.681  11.451  -0.034  0.0070  1.8288  0.3770
  433MOL0     N58371   1.073  11.066   0.432 -1.2642  0.3618  1.0065
  433MOL0     N58372   1.066  10.958   0.503 -0.6763  0.0560  1.0847
  433MOL0     C58373   0.992   9.706   0.571  0.0508 -0.8870  0.0913
  433MOL0     C58374   1.023   9.575   0.544 -0.2334  0.3918  0.3071
  433MOL0     C58375   1.088   9.166   0.434  0.1516 -0.1506 -0.9061
  433MOL0     C58376   1.062   9.152   0.297 -0.4162 -0.0884 -0.0320
  433MOL0     C58377   1.152   9.078   0.217 -0.9293  0.1378 -1.2162
  433MOL0     C58378   1.253   9.010   0.279  0.3594  0.7494  0.0088
  433MOL0     O58379   1.320   8.914   0.201  0.9042 -0.1317  0.0019
  433MOL0     C58380   1.441   8.965   0.150  0.2370 -0.0670  0.2403
  433MOL0     C58381   1.539   8.850   0.116 -0.0074 -0.4381 -0.4924
  433MOL0     C58382   1.659   8.892   0.034 -0.0280  0.2693  0.2723
  433MOL0     C58383   1.638   8.889  -0.115  0.4742  1.0497  0.6272
  433MOL0     C58384   1.633   8.754  -0.179  0.7745  0.5992 -1.3633
  433MOL0     C58385   1.628   8.638  -0.225 -0.2280 -0.1564 -0.0866
  433MOL0     C58386   1.268   9.005   0.412 -0.2496  0.0108 -0.1877
  433MOL0     C58387   1.180   9.084   0.492 -0.0752  0.9965  0.5116
  433MOL0     H58388   0.709   9.472   0.467 -1.3366  3.0510 -1.7731
  433MOL0     H58389   0.654   9.684   0.498 -0.2292 -1.5306  1.9270
  433MOL0     H58390   0.972  10.036   0.627 -0.0750  2.4063 -1.1551
  433MOL0     H58391   1.001   9.961   0.480 -0.2944 -0.0836  0.0365
  433MOL0     H58392   0.824  10.064   0.367  0.5600  3.4606 -2.3407
  433MOL0     H58393   0.744  10.133   0.513 -1.0562 -0.1422 -1.9402
  433MOL0     H58394   1.021  10.202   0.411  0.3839  2.8405 -0.8359
  433MOL0     H58395   0.877  10.281   0.358 -1.4245 -1.1302 -0.7096
  433MOL0     H58396   0.835  10.331   0.628  0.9359 -0.4105  0.5190
  433MOL0     H58397   1.020  10.319   0.625  0.9377 -3.8048 -3.3137
  433MOL0     H58398   0.864  10.519   0.465 -2.4915 -1.0508  2.1845
  433MOL0     H58399   0.942  10.533   0.616 -1.3319 -1.4039  1.0478
  433MOL0     H58400   1.154  10.453   0.484 -1.2406  0.1412  2.2244
  433MOL0     H58401   1.046  10.438   0.342 -0.6837 -0.1432  0.8497
  433MOL0     H58402   1.129  10.660   0.303  1.0311  0.6321  1.4647
  433MOL0     H58403   0.968  10.682   0.377 -0.7382 -1.1283  0.0897
  433MOL0     H58404   1.250  10.692   0.499  0.2112 -0.0815 -1.2380
  433MOL0     H58405   1.107  10.729   0.594  3.0268 -1.3156  1.5588
  433MOL0     H58406   1.277  10.864   0.260  0.6320  2.6489 -0.4495
  433MOL0     H58407   1.202  11.065   0.125  0.1713 -1.6209  1.2861
  433MOL0     H58408   1.061  11.165   0.189 -0.6048 -0.5485  1.3192
  433MOL0     H58409   1.221  11.321   0.255  0.5969  2.6590 -4.1409
  433MOL0     H58410   1.291  11.263   0.106  0.7946  0.7643 -0.2080
  433MOL0     H58411   1.443  11.096   0.233 -4.4333 -2.2912  0.2625
  433MOL0     H58412   1.406  11.176   0.379  2.6999  0.3890 -0.5310
  433MOL0     H58413   1.593  11.284   0.316 -0.4689 -2.3282  0.9399
  433MOL0     H58414   1.465  11.393   0.286 -0.0538  0.5895 -1.2703
  433MOL0     H58415   1.707  11.465   0.302  0.8540 -0.3194  0.0082
  433MOL0     H58416   1.962  11.647   0.280 -0.1527 -3.5537 -2.4562
  433MOL0     H58417   1.827  11.778   0.276 -0.7145 -1.0350 -1.2911
  433MOL0     H58418   1.805  11.647   0.375  0.9067  0.1413  0.6464
  433MOL0     H58419   1.804  12.022  -0.259 -0.5411  0.1979  0.1636
  433MOL0     H58420   1.961  12.137  -0.420 -1.8925  0.3527  1.3588
  433MOL0     H58421   2.294  12.254  -0.319 -0.7412 -0.5715  1.2590
  433MOL0     H58422   2.383  12.106  -0.299  1.0986  2.0483  2.4591
  433MOL0     H58423   2.458  12.128  -0.558 -0.3733  0.8665 -1.1090
  433MOL0     H58424   2.371  12.269  -0.565  0.3080  0.9279  1.3174
  433MOL0     H58425   2.610  12.202  -0.393  0.4877 -1.1990 -2.9394
  433MOL0     H58426   2.527  12.336  -0.344  1.9430 -0.1985  0.6151
  433MOL0     H58427   2.695  12.285  -0.587 -0.0208  0.0520 -0.9235
  433MOL0     H58428   2.573  12.391  -0.627 -0.0763  0.5507 -0.4341
  433MOL0     H58429   2.799  12.436  -0.413  1.4819  4.7428  0.3255
  433MOL0     H58430   2.649  12.528  -0.407  1.7951  1.2898  1.1341
  433MOL0     H58431   2.845  12.536  -0.633 -1.2539 -0.8601 -1.1983
  433MOL0     H58432   2.685  12.602  -0.651 -1.1232 -0.7834  1.4922
  433MOL0     H58433   2.905  12.706  -0.474 -0.1780  3.1422  1.5082
  433MOL0     H58434   2.757  12.736  -0.409  2.3512 -0.3278  0.2417
  433MOL0     H58435   2.686  12.841  -0.638 -0.8637 -1.9730  1.2548
  433MOL0     H58436   2.854  12.813  -0.677 -1.7035 -0.7046 -1.1654
  433MOL0     H58437   2.292  11.894  -0.286  0.2780  0.6504  0.3862
  433MOL0     H58438   2.145  11.760  -0.172 -1.7421 -0.1234 -0.6619
  433MOL0     H58439   1.771  11.594  -0.168  0.6371  2.6947  0.5107
  433MOL0     H58440   1.637  11.404  -0.121  0.4350  4.4673 -1.3940
  433MOL0     H58441   1.064   9.786   0.589 -2.0593  2.6279 -4.7286
  433MOL0     H58442   1.124   9.534   0.555 -0.4435 -0.5981 -1.1399
  433MOL0     H58443   0.978   9.207   0.256 -1.0504  1.3152  2.8496
  433MOL0     H58444   1.139   9.056   0.112 -0.8118 -0.0389 -1.1940
  433MOL0     H58445   1.411   9.034   0.070 -1.4531 -0.4538  0.4958
  433MOL0     H58446   1.491   9.030   0.222  0.0434  2.0523 -1.4413
  433MOL0     H58447   1.480   8.783   0.053 -0.4244  1.5841 -2.3720
  433MOL0     H58448   1.565   8.813   0.216 -0.0552  5.7082  2.2492
  433MOL0     H58449   1.743   8.827   0.064 -0.1912  0.1265  0.4197
  433MOL0     H58450   1.677   8.998   0.051 -1.9513  0.4511  1.3624
  433MOL0     H58451   1.712   8.940  -0.177  1.3430 -0.9054 -0.0336
  433MOL0     H58452   1.544   8.934  -0.148 -0.3812 -1.9719 -1.5270
  433MOL0     H58453   1.589   8.549  -0.270  1.2955 -0.3931 -1.0065
  433MOL0     H58454   1.342   8.938   0.455  0.4660  2.9827  3.7172
  433MOL0     H58455   1.203   9.077   0.598  2.2995  0.9980  0.0474
  434MOL0     O58456   4.481  10.576  10.650  0.1614 -1.0140 -0.0962
  434MOL0     C58457   4.511  10.461  10.661  0.6462  0.5661  0.0340
  434MOL0     O58458   4.634  10.398  10.679 -0.2877  0.0230 -0.9278
  434MOL0     C58459   4.738  10.466  10.736  0.6890  0.1436  0.0343
  434MOL0     C58460   4.741  10.588  10.794 -0.7248  0.7417 -0.2922
  434MOL0     C58461   4.859  10.643  10.851 -1.6098 -0.6651  0.3485
  434MOL0     C58462   4.979  10.587  10.828 -0.1253 -0.2608  0.6386
  434MOL0     O58463   5.090  10.659  10.873 -0.5116  0.0805 -0.6727
  434MOL0     C58464   5.209  10.588  10.861  0.2873  0.0991  0.3223
  434MOL0     C58465   5.308  10.668  10.956 -0.8760 -0.2099  0.7224
  434MOL0     C58466   5.452  10.632  10.942  0.6283 -0.3885 -0.2399
  434MOL0     C58467   5.516  10.706  10.816  0.9386  0.2001 -0.1904
  434MOL0     C58468   5.668  10.704  10.831 -0.4633 -1.3800  0.2956
  434MOL0     C58469   5.748  10.769  10.718 -0.1221  0.1417  0.9277
  434MOL0     C58470   5.730  10.928  10.690  0.5393  0.2754 -0.9000
  434MOL0     C58471   5.857  10.997  10.629  0.2337  0.2609  0.0904
  434MOL0     N58472   5.881  10.956  10.490 -0.3209  0.4414 -0.2365
  434MOL0     C58473   5.803  10.979  10.383  0.2810  0.0176 -0.5275
  434MOL0     C58474   5.877  10.933  10.277  0.0757  0.3560 -0.0768
  434MOL0     C58475   5.864  10.957  10.129 -1.1849  0.4743  0.0362
  434MOL0     C58476   5.901  11.098  10.110 -1.0423 -0.0590  0.0696
  434MOL0     C58477   6.055  11.136  10.109  0.9294 -0.5492  0.0638
  434MOL0     C58478   6.071  11.281  10.084 -0.3618 -0.6009 -0.8872
  434MOL0     O58479   6.025  11.348  10.202 -0.3463 -0.3258 -0.8330
  434MOL0     C58480   6.084  11.369  10.320  0.5211  0.6276  0.1073
  434MOL0     C58481   5.996  11.407  10.425 -1.6632 -0.1170  0.4123
  434MOL0     C58482   6.045  11.454  10.547 -0.3726 -0.1530 -0.8307
  434MOL0     C58483   5.939  11.510  10.642  0.1256 -0.0690 -0.9113
  434MOL0     C58484   6.187  11.431  10.574  0.4717 -0.5550  0.1108
  434MOL0     C58485   6.257  11.477  10.696  0.2964  0.3300 -0.1142
  434MOL0     O58486   6.389  11.433  10.712 -0.0052  0.7472 -0.3601
  434MOL0     C58487   6.463  11.475  10.813 -0.1347 -0.2373 -0.4118
  434MOL0     C58488   6.469  11.614  10.854  1.0494  0.3856  0.0004
  434MOL0     C58489   6.570  11.667  10.941  0.2489  0.6664  0.2029
  434MOL0     C58490   6.673  11.581  10.983  0.3416  0.4526  0.1992
  434MOL0     O58491   6.773  11.630  11.054 -0.5873 -0.5094 -0.1748
  434MOL0     C58492   6.836  11.752  11.012 -0.5123 -0.0825 -0.0857
  434MOL0     C58493   6.971  11.775  11.096 -0.1709  0.6350  0.1626
  434MOL0     C58494   7.058  11.895  11.041 -0.0098  0.0402 -0.4539
  434MOL0     C58495   7.177  11.922  11.130  0.3907 -0.1578  0.3478
  434MOL0     C58496   7.248  12.032  11.061 -0.3603  1.3141  0.6741
  434MOL0     C58497   7.389  12.077  11.113  0.1604  0.3208  0.0673
  434MOL0     C58498   7.492  11.968  11.114  0.6942  0.3902 -0.1998
  434MOL0     C58499   7.638  12.021  11.138 -0.6107 -0.8963  0.0032
  434MOL0    Cl58500   7.650  12.104  11.303 -0.3799 -0.0655 -0.1812
  434MOL0     C58501   6.689  11.449  10.944 -0.0178 -0.6506  0.9654
  434MOL0     C58502   6.574  11.393  10.862 -0.4316 -0.2333  0.7642
  434MOL0     O58503   6.192  11.526  10.789  0.3614 -0.1179 -0.5089
  434MOL0     C58504   6.273  11.375  10.473  0.5660  1.0049 -0.0395
  434MOL0     C58505   6.221  11.354  10.347 -1.0036  0.2259 -0.6876
  434MOL0     N58506   5.995  10.882  10.326 -0.1262 -0.3203  1.1703
  434MOL0     N58507   5.989  10.885  10.451 -0.0965  0.1514 -0.1031
  434MOL0     C58508   4.982  10.465  10.745  0.2569 -0.3683  0.6985
  434MOL0     C58509   4.863  10.400  10.708 -0.1096 -0.1574  0.5867
  434MOL0     C58510   4.392  10.376  10.632 -0.6008  0.6420 -0.7002
  434MOL0     C58511   4.261  10.409  10.655 -0.5713 -0.0996  0.4681
  434MOL0     C58512   4.152  10.328  10.617  0.5294  0.5295  0.0064
  434MOL0     C58513   4.177  10.194  10.570 -0.9193 -0.2693  0.3743
  434MOL0     O58514   4.069  10.115  10.527 -0.5162 -0.3868  0.1847
  434MOL0     C58515   4.039  10.008  10.622  0.0099 -0.4162 -0.2744
  434MOL0     C58516   3.902   9.941  10.598 -1.1060  0.4542 -0.5518
  434MOL0     C58517   3.904   9.832  10.488  0.0461  0.5417 -0.5818
  434MOL0     C58518   3.771   9.757  10.465 -0.6070 -0.7155  0.0165
  434MOL0     C58519   3.807   9.629  10.407  0.3035 -0.2686  0.4404
  434MOL0     C58520   3.829   9.513  10.377 -0.0716 -0.2028  0.5607
  434MOL0     C58521   4.309  10.159  10.550 -1.0294 -0.0674 -1.1324
  434MOL0     C58522   4.410  10.244  10.586 -0.5583 -0.3603  1.0288
  434MOL0     H58523   4.654  10.652  10.808 -1.5784 -0.7277  1.4277
  434MOL0     H58524   4.850  10.736  10.906 -3.2044 -0.9164  0.5558
  434MOL0     H58525   5.207  10.484  10.894  0.4955 -0.1375 -0.4094
  434MOL0     H58526   5.245  10.580  10.758 -1.4125  0.8373 -0.3688
  434MOL0     H58527   5.288  10.774  10.937  1.3199 -0.0821 -1.3036
  434MOL0     H58528   5.277  10.656  11.060  0.6364 -0.5556  1.1538
  434MOL0     H58529   5.495  10.673  11.034  0.5453 -2.0433  0.5700
  434MOL0     H58530   5.477  10.526  10.926  1.8698  0.2697 -3.4235
  434MOL0     H58531   5.501  10.646  10.726  0.5612 -0.9238  0.6056
  434MOL0     H58532   5.486  10.811  10.806  3.4151  0.8896 -1.2468
  434MOL0     H58533   5.692  10.757  10.923 -2.5660  3.0534 -1.4136
  434MOL0     H58534   5.692  10.598  10.846  0.3259 -0.7823  4.3867
  434MOL0     H58535   5.852  10.745  10.738  1.0099 -0.5566 -4.5169
  434MOL0     H58536   5.718  10.722  10.624  1.7990  3.5670 -1.6084
  434MOL0     H58537   5.642  10.935  10.625  0.7841  0.6136 -1.1943
  434MOL0     H58538   5.705  10.967  10.790 -1.6209 -5.7569  1.4051
  434MOL0     H58539   5.945  10.980  10.692 -0.3840 -0.6034  0.7521
  434MOL0     H58540   5.837  11.103  10.609  0.8129  0.2523 -0.5633
  434MOL0     H58541   5.722  11.051  10.376  0.1676  0.0430  0.8068
  434MOL0     H58542   5.947  10.905  10.079 -0.3954  1.2548  0.4950
  434MOL0     H58543   5.767  10.935  10.085 -0.1491 -0.4522 -1.8911
  434MOL0     H58544   5.854  11.152  10.193  0.1398  2.9008 -1.0590
  434MOL0     H58545   5.856  11.127  10.015 -1.9021 -0.9771  0.1823
  434MOL0     H58546   6.098  11.095  10.017  0.6784  0.6691 -0.6107
  434MOL0     H58547   6.105  11.113  10.204  0.4671  1.3123  0.7981
  434MOL0     H58548   6.020  11.315   9.994  3.1569 -0.4843 -3.0403
  434MOL0     H58549   6.162  11.322  10.039 -0.1120  0.5969  0.6051
  434MOL0     H58550   5.888  11.417  10.417 -1.5692  0.5067 -0.2179
  434MOL0     H58551   5.963  11.607  10.686 -0.6982  0.1460 -0.9074
  434MOL0     H58552   5.845  11.532  10.591 -0.1266  1.1766  0.0285
  434MOL0     H58553   5.922  11.430  10.715  2.4026  2.2088  2.4029
  434MOL0     H58554   6.395  11.682  10.813  1.8640  1.2562 -0.0577
  434MOL0     H58555   6.569  11.775  10.955  2.7352  0.7000  0.5487
  434MOL0     H58556   6.872  11.737  10.910 -1.2116  2.5817 -0.8098
  434MOL0     H58557   6.776  11.842  11.029  1.3336  1.4530 -1.2058
  434MOL0     H58558   6.945  11.807  11.197 -1.1159 -0.6729  0.3552
  434MOL0     H58559   7.026  11.681  11.109  2.3737  2.2297  2.0845
  434MOL0     H58560   6.992  11.982  11.036 -0.9110 -0.5025  1.1409
  434MOL0     H58561   7.082  11.879  10.936  0.2804 -3.5475  0.0133
  434MOL0     H58562   7.130  11.949  11.225 -3.8689 -1.2875 -1.2156
  434MOL0     H58563   7.237  11.831  11.126 -1.7322 -1.6584  0.8401
  434MOL0     H58564   7.185  12.122  11.067  0.6758  2.0010  1.8412
  434MOL0     H58565   7.258  12.005  10.956 -4.7172  2.7525 -0.3263
  434MOL0     H58566   7.423  12.168  11.063 -0.6193  1.9131  2.2880
  434MOL0     H58567   7.358  12.108  11.213  2.1300  2.5103  0.0786
  434MOL0     H58568   7.495  11.930  11.012  0.0382  1.9084 -0.8196
  434MOL0     H58569   7.452  11.895  11.185 -3.1883  2.8813  0.4828
  434MOL0     H58570   7.666  12.086  11.055 -0.4530  0.2199  0.9076
  434MOL0     H58571   7.706  11.935  11.137 -0.0910 -0.4860 -0.4715
  434MOL0     H58572   6.781  11.395  10.964  1.4373 -0.2447 -3.5458
  434MOL0     H58573   6.581  11.290  10.829 -0.7253  0.9355 -3.5990
  434MOL0     H58574   6.375  11.343  10.491  0.7830 -0.5925 -3.2852
  434MOL0     H58575   6.284  11.321  10.264 -0.8621  0.0467 -0.5107
  434MOL0     H58576   5.072  10.408  10.724 -1.8930 -2.8524 -2.9777
  434MOL0     H58577   4.883  10.308  10.655  1.3603  1.8366 -2.6515
  434MOL0     H58578   4.253  10.513  10.683  0.5807  0.2835 -0.5369
  434MOL0     H58579   4.050  10.365  10.611  1.1796  2.3249 -0.5342
  434MOL0     H58580   4.128   9.946  10.637 -1.4074 -2.4945  0.0067
  434MOL0     H58581   4.028  10.072  10.709 -0.2990  1.1654 -1.4325
  434MOL0     H58582   3.837  10.026  10.573  1.6725  2.6783 -0.7748
  434MOL0     H58583   3.865   9.885  10.684  1.1888 -1.8388 -0.9549
  434MOL0     H58584   3.974   9.756  10.525  0.9041 -0.5289 -3.9414
  434MOL0     H58585   3.936   9.874  10.392  0.3632  0.2764 -0.5985
  434MOL0     H58586   3.706   9.805  10.392 -3.0915 -2.6065  0.8531
  434MOL0     H58587   3.722   9.747  10.563  1.3268  0.0634  1.1136
  434MOL0     H58588   3.861   9.411  10.365  0.5246 -0.3852  3.0882
  434MOL0     H58589   4.329  10.057  10.521  1.2262 -0.6620  2.0373
  434MOL0     H58590   4.514  10.220  10.566 -1.1718 -0.7214 -2.2445
  435MOL0     O58591   9.436   4.924   5.989  0.6786 -0.7435 -0.4918
  435MOL0     C58592   9.468   4.969   5.880  0.3013  0.1037 -0.8044
  435MOL0     O58593   9.410   4.931   5.765  0.2266 -0.5267 -0.1330
  435MOL0     C58594   9.327   4.820   5.777 -0.3699 -0.2218  0.0244
  435MOL0     C58595   9.221   4.797   5.868 -0.0321  0.3216  0.3407
  435MOL0     C58596   9.154   4.675   5.861 -0.3150 -0.7282  0.1255
  435MOL0     C58597   9.175   4.576   5.779  0.5682  0.6005  0.0567
  435MOL0     O58598   9.085   4.469   5.775 -0.0212 -0.1242  0.5203
  435MOL0     C58599   9.146   4.344   5.729  0.0551  1.4687 -0.1290
  435MOL0     C58600   9.062   4.223   5.776 -0.4704 -0.3121 -0.6714
  435MOL0     C58601   9.111   4.098   5.697  0.0350  0.3751 -0.2437
  435MOL0     C58602   9.007   3.985   5.662 -0.4029 -0.6565 -0.1251
  435MOL0     C58603   8.893   4.043   5.567  0.5456  0.2226 -0.2524
  435MOL0     C58604   8.795   3.933   5.537 -0.0457 -0.1608  0.3032
  435MOL0     C58605   8.667   3.994   5.474 -0.1113  0.1146 -0.1764
  435MOL0     C58606   8.686   4.039   5.333  0.2514 -0.3605 -0.1962
  435MOL0     N58607   8.739   3.930   5.258  0.0192  0.3956  0.2789
  435MOL0     C58608   8.848   3.931   5.175 -0.4349  0.1648 -0.2123
  435MOL0     C58609   8.843   3.815   5.101  0.2829  1.1353 -0.4866
  435MOL0     C58610   8.956   3.760   5.025 -0.0470 -0.2133 -0.4070
  435MOL0     C58611   9.089   3.768   5.107  0.8598  0.2834  0.0891
  435MOL0     C58612   9.079   3.680   5.239 -0.9376 -0.3074  1.1447
  435MOL0     C58613   9.192   3.699   5.337 -0.4892 -1.0031 -0.8820
  435MOL0     O58614   9.315   3.715   5.270 -0.2794 -0.3536  0.3198
  435MOL0     C58615   9.389   3.820   5.317 -1.1588 -0.0702 -0.0978
  435MOL0     C58616   9.444   3.832   5.450  0.8218 -0.1002  0.4943
  435MOL0     C58617   9.500   3.953   5.487  1.1924 -0.1462 -0.1036
  435MOL0     C58618   9.556   3.955   5.625 -0.3721 -0.6459 -0.4683
  435MOL0     C58619   9.503   4.061   5.394  0.4819  0.1698  0.9072
  435MOL0     C58620   9.577   4.188   5.419 -0.4387  0.4101 -0.7263
  435MOL0     O58621   9.562   4.237   5.544  0.2814 -0.0290 -0.4276
  435MOL0     C58622   9.599   4.365   5.582 -0.2295  0.1200 -0.3058
  435MOL0     C58623   9.566   4.402   5.712 -0.6182  0.5256 -0.3738
  435MOL0     C58624   9.610   4.521   5.771  0.2973 -0.0716 -0.7894
  435MOL0     C58625   9.678   4.614   5.695 -0.2522  0.3195  0.3430
  435MOL0     O58626   9.714   4.726   5.772  0.1749  0.5241  0.2339
  435MOL0     C58627   9.788   4.840   5.697  0.5338  0.3307 -0.3066
  435MOL0     C58628   9.944   4.821   5.679  1.0155 -0.1892  1.0401
  435MOL0     C58629   9.990   4.952   5.615 -0.5559 -0.3919  0.4097
  435MOL0     C58630  10.118   5.002   5.692  0.2380 -0.6322 -0.4794
  435MOL0     C58631  10.085   5.038   5.841  0.4213 -0.1329  0.1774
  435MOL0     C58632  10.192   5.127   5.894 -0.4625  0.5892 -0.0248
  435MOL0     C58633  10.168   5.182   6.033 -0.3857  0.1426  0.4843
  435MOL0     C58634  10.302   5.240   6.086  1.2390  0.0264 -0.2812
  435MOL0    Cl58635  10.336   5.386   5.985 -0.1910 -0.0343 -0.2152
  435MOL0     C58636   9.705   4.589   5.555  0.7333  0.0289 -0.0862
  435MOL0     C58637   9.660   4.469   5.505  0.5882  0.0006 -0.4146
  435MOL0     O58638   9.630   4.251   5.322 -0.1686  0.8384 -0.7940
  435MOL0     C58639   9.449   4.041   5.265 -0.3366 -0.1761 -0.0410
  435MOL0     C58640   9.405   3.916   5.223  0.4007  0.4178  0.1156
  435MOL0     N58641   8.734   3.744   5.142  0.2406  0.3110  0.4422
  435MOL0     N58642   8.668   3.820   5.224 -0.3446 -0.4300 -0.0757
  435MOL0     C58643   9.285   4.593   5.695 -0.1830 -0.7608 -0.8763
  435MOL0     C58644   9.361   4.719   5.699 -0.3194  0.5145 -0.7263
  435MOL0     C58645   9.547   5.097   5.883 -0.2378 -0.1847 -0.8215
  435MOL0     C58646   9.602   5.151   5.999 -0.1895 -0.1114  0.2037
  435MOL0     C58647   9.666   5.274   6.005  0.9682  0.2652 -0.2764
  435MOL0     C58648   9.687   5.345   5.879 -0.0998 -0.0241 -0.9593
  435MOL0     O58649   9.764   5.469   5.871  0.1009 -0.4759 -0.2936
  435MOL0     C58650   9.812   5.537   5.984 -0.0837  0.6262  0.4174
  435MOL0     C58651   9.961   5.571   5.992  0.0131 -0.4237 -0.1418
  435MOL0     C58652  10.021   5.579   6.134 -0.2394 -0.5476  0.2924
  435MOL0     C58653  10.167   5.653   6.136  0.2825  0.9269 -0.3769
  435MOL0     C58654  10.209   5.651   6.274  0.0636  0.1090  0.7701
  435MOL0     C58655  10.244   5.637   6.388  0.4317  0.0185  0.0444
  435MOL0     C58656   9.645   5.283   5.763  0.1359 -0.3041 -0.5334
  435MOL0     C58657   9.568   5.165   5.758  0.1394  0.0556  0.5320
  435MOL0     H58658   9.194   4.868   5.945 -1.5506  0.3174 -0.1497
  435MOL0     H58659   9.077   4.647   5.931 -0.0601  0.5360  0.9522
  435MOL0     H58660   9.153   4.327   5.621  3.3068 -1.1324  0.3326
  435MOL0     H58661   9.251   4.336   5.758  0.1088 -1.8216 -0.8527
  435MOL0     H58662   9.067   4.218   5.885 -2.6754  2.6654 -0.3171
  435MOL0     H58663   8.955   4.231   5.755 -0.7606 -3.0471 -0.6754
  435MOL0     H58664   9.158   4.119   5.600 -1.0659 -0.3751 -0.9610
  435MOL0     H58665   9.186   4.048   5.759 -1.1332  0.3295  1.1847
  435MOL0     H58666   9.052   3.899   5.612  0.8762 -0.7823  1.1713
  435MOL0     H58667   8.967   3.948   5.757 -1.2897 -4.6205 -1.8259
  435MOL0     H58668   8.838   4.126   5.612 -0.5498  1.8413 -4.1345
  435MOL0     H58669   8.945   4.079   5.478 -3.0109  1.4907 -2.0043
  435MOL0     H58670   8.844   3.875   5.458 -1.9250  1.0565 -1.8575
  435MOL0     H58671   8.757   3.875   5.621 -2.1861 -0.8495 -1.0632
  435MOL0     H58672   8.597   3.911   5.485 -0.7710  0.9545  2.9982
  435MOL0     H58673   8.618   4.079   5.523 -0.6177 -0.4804  0.3720
  435MOL0     H58674   8.749   4.128   5.340  0.3434 -0.5560  2.7370
  435MOL0     H58675   8.597   4.083   5.288  1.4343 -0.0885 -2.4229
  435MOL0     H58676   8.922   4.010   5.165  0.4579 -0.7756 -1.3262
  435MOL0     H58677   8.942   3.656   4.995  0.5853 -0.8925  1.5475
  435MOL0     H58678   8.958   3.822   4.934  1.1482 -1.4406 -1.2617
  435MOL0     H58679   9.105   3.873   5.134  2.6871 -0.3828  1.7860
  435MOL0     H58680   9.174   3.735   5.048  1.7084  4.1712 -1.1834
  435MOL0     H58681   9.067   3.574   5.212 -0.5458 -0.5246  1.8129
  435MOL0     H58682   8.984   3.704   5.287 -1.6922 -0.0282 -0.4070
  435MOL0     H58683   9.197   3.615   5.407  1.5295 -0.3769 -0.2139
  435MOL0     H58684   9.181   3.789   5.398  1.8853 -1.5364  0.4447
  435MOL0     H58685   9.437   3.750   5.520  0.9602 -0.1984  0.3954
  435MOL0     H58686   9.559   3.852   5.663 -2.2829 -0.4251  0.3793
  435MOL0     H58687   9.657   3.998   5.632  0.5566 -2.8264  1.0317
  435MOL0     H58688   9.488   4.012   5.689  2.8658  0.6137  2.2001
  435MOL0     H58689   9.520   4.332   5.781 -1.1299  3.9155  3.0507
  435MOL0     H58690   9.594   4.531   5.878  1.8385  0.8562 -0.6184
  435MOL0     H58691   9.729   4.848   5.605 -1.4515 -0.2522  0.8711
  435MOL0     H58692   9.777   4.927   5.762  1.0387 -0.2928  0.6365
  435MOL0     H58693   9.988   4.798   5.777 -0.0810 -2.8508  0.9997
  435MOL0     H58694   9.960   4.733   5.616 -1.9797  0.1413 -0.3754
  435MOL0     H58695   9.922   5.037   5.627 -0.3009 -0.4819  3.1464
  435MOL0     H58696  10.012   4.936   5.509 -1.7295 -2.2524  0.3961
  435MOL0     H58697  10.192   4.922   5.680  0.0496 -0.7076 -1.2239
  435MOL0     H58698  10.147   5.091   5.636 -2.0885  0.1360 -0.5486
  435MOL0     H58699  10.079   4.952   5.908  0.6641 -0.3729 -0.1080
  435MOL0     H58700   9.989   5.089   5.849  0.8310  0.8217 -0.6624
  435MOL0     H58701  10.281   5.064   5.895  0.3159  1.6569 -0.4824
  435MOL0     H58702  10.210   5.209   5.825  2.1056 -0.1480 -0.3338
  435MOL0     H58703  10.114   5.114   6.100  0.0999  2.1516  3.0782
  435MOL0     H58704  10.097   5.264   6.020  0.8492  1.3126  1.0397
  435MOL0     H58705  10.378   5.162   6.076  0.5972 -0.5723 -0.6614
  435MOL0     H58706  10.297   5.264   6.193  0.1484  1.4332 -0.6155
  435MOL0     H58707   9.760   4.660   5.493 -1.6364  2.9387  0.9057
  435MOL0     H58708   9.682   4.445   5.401 -4.0473 -2.6078 -1.0875
  435MOL0     H58709   9.461   4.122   5.194  0.9408  0.4946  0.8911
  435MOL0     H58710   9.383   3.897   5.119 -2.1919 -0.9040  0.8386
  435MOL0     H58711   9.320   4.520   5.623  2.7984 -1.1568  0.8041
  435MOL0     H58712   9.448   4.736   5.637 -0.0639  0.1421 -0.4701
  435MOL0     H58713   9.584   5.091   6.087  1.6805 -0.8325  0.1379
  435MOL0     H58714   9.694   5.302   6.106 -0.5953 -2.3431  0.9817
  435MOL0     H58715   9.755   5.629   5.996  0.1775  0.5200  3.0998
  435MOL0     H58716   9.793   5.473   6.070 -0.4047 -3.6291 -2.4969
  435MOL0     H58717   9.965   5.669   5.945 -2.0957 -0.1823  0.1042
  435MOL0     H58718  10.019   5.494   5.939 -2.7221 -1.5752 -1.6530
  435MOL0     H58719  10.021   5.482   6.183 -1.1379 -0.6062  0.2016
  435MOL0     H58720   9.955   5.636   6.200 -2.3148 -2.8502  0.3538
  435MOL0     H58721  10.146   5.754   6.099 -1.5950  0.2627 -1.2701
  435MOL0     H58722  10.241   5.601   6.074 -0.2179  2.1459 -2.0651
  435MOL0     H58723  10.267   5.597   6.485  1.2166 -1.8920 -0.8785
  435MOL0     H58724   9.665   5.336   5.670  0.0057 -0.5471 -0.7006
  435MOL0     H58725   9.550   5.111   5.665 -2.3475 -2.6812  2.4388
  436MOL0     O58726   0.856   4.626   6.911  0.4121 -0.6866  0.1458
  436MOL0     C58727   0.947   4.606   6.995 -0.0087  0.1668 -0.4107
  436MOL0     O58728   1.073   4.572   6.960 -0.1048  0.2724 -0.2446
  436MOL0     C58729   1.098   4.521   6.839 -0.3227 -0.1073  0.4217
  436MOL0     C58730   1.210   4.573   6.781 -0.6157  0.0190 -0.3403
  436MOL0     C58731   1.246   4.522   6.650  0.1930  0.1126 -0.9478
  436MOL0     C58732   1.178   4.429   6.577  0.2001 -0.5814  0.0780
  436MOL0     O58733   1.196   4.420   6.443  0.2611 -0.0862 -0.3323
  436MOL0     C58734   1.132   4.531   6.376 -0.8521 -0.1632  0.3066
  436MOL0     C58735   1.162   4.533   6.228 -0.2922 -0.2976  0.0164
  436MOL0     C58736   1.307   4.555   6.206 -0.4448  1.2214  0.0975
  436MOL0     C58737   1.335   4.665   6.113 -0.0037  1.2482  0.4161
  436MOL0     C58738   1.478   4.646   6.059 -0.5475  0.2825  0.0619
  436MOL0     C58739   1.533   4.775   5.986 -0.0978 -0.1873 -0.1885
  436MOL0     C58740   1.605   4.734   5.855  0.4184  0.1459  0.8112
  436MOL0     C58741   1.684   4.851   5.807  0.0633  0.1790  0.2310
  436MOL0     N58742   1.704   4.839   5.663  0.1589  0.6300 -1.0052
  436MOL0     C58743   1.787   4.748   5.609  0.2484  0.8241  0.6991
  436MOL0     C58744   1.752   4.743   5.478  0.0359 -0.2976 -1.1647
  436MOL0     C58745   1.814   4.682   5.358 -0.2620  0.3416  0.7547
  436MOL0     C58746   1.963   4.728   5.333  0.2604  0.2654 -0.4142
  436MOL0     C58747   1.995   4.884   5.352  0.3566  0.3719 -0.3961
  436MOL0     C58748   2.013   4.951   5.216  0.1986  1.0124  0.8591
  436MOL0     O58749   1.966   5.080   5.229  0.6876  0.0823 -0.6262
  436MOL0     C58750   1.976   5.166   5.125  0.0152 -0.2517  0.1768
  436MOL0     C58751   1.960   5.129   4.994 -0.3547 -0.5444  0.1342
  436MOL0     C58752   1.964   5.223   4.888  0.0597  0.4143  0.4581
  436MOL0     C58753   1.936   5.168   4.746 -0.3042  0.2727  0.3132
  436MOL0     C58754   1.996   5.361   4.918  0.5829 -0.7331  0.6177
  436MOL0     C58755   2.009   5.464   4.816  0.3269  0.3517 -0.0418
  436MOL0     O58756   2.067   5.572   4.864 -0.6027 -0.0838 -0.1191
  436MOL0     C58757   2.117   5.679   4.791  0.0948 -0.6077  0.1663
  436MOL0     C58758   2.212   5.752   4.853  1.0568 -0.0098 -0.7498
  436MOL0     C58759   2.268   5.865   4.793  0.2434 -0.6126  0.1787
  436MOL0     C58760   2.212   5.915   4.668  0.3125 -0.4138 -0.1500
  436MOL0     O58761   2.276   6.016   4.606  0.4113  0.4882 -0.3435
  436MOL0     C58762   2.207   6.139   4.631 -0.3778  0.9592 -0.4290
  436MOL0     C58763   2.248   6.236   4.528 -0.0645  0.4064  0.5431
  436MOL0     C58764   2.211   6.379   4.575  0.2164 -0.0385  0.2896
  436MOL0     C58765   2.228   6.476   4.458  0.0537 -0.5688 -0.3291
  436MOL0     C58766   2.157   6.618   4.485 -0.8153  0.1923 -0.6027
  436MOL0     C58767   2.133   6.688   4.351  0.7358  0.3072  0.1526
  436MOL0     C58768   2.071   6.829   4.375 -0.6833  1.0393 -0.2472
  436MOL0     C58769   2.067   6.890   4.234 -0.6064 -0.4616  0.0261
  436MOL0    Cl58770   2.236   6.923   4.168  0.6695 -0.3168  0.2171
  436MOL0     C58771   2.125   5.841   4.596  0.6926  0.4823 -0.5460
  436MOL0     C58772   2.075   5.722   4.656  0.3588 -2.0388 -0.0298
  436MOL0     O58773   1.960   5.451   4.705  0.6781 -0.2188 -0.6549
  436MOL0     C58774   2.003   5.399   5.055 -0.9965  0.5542  0.2996
  436MOL0     C58775   1.990   5.301   5.158  0.8979 -0.8588 -0.4797
  436MOL0     N58776   1.666   4.856   5.457  0.5325 -0.2469  0.4268
  436MOL0     N58777   1.646   4.910   5.565  0.2487 -0.0850 -0.3907
  436MOL0     C58778   1.062   4.383   6.638 -2.0096  0.0855 -0.2369
  436MOL0     C58779   1.026   4.423   6.766  0.1242 -0.1950 -0.0061
  436MOL0     C58780   0.925   4.618   7.136 -0.3734  1.2305  0.6671
  436MOL0     C58781   0.969   4.529   7.228 -0.8402  0.0421  0.1975
  436MOL0     C58782   0.947   4.541   7.363  0.3180  0.0892  0.1795
  436MOL0     C58783   0.869   4.648   7.410 -0.1748 -0.1629  0.9596
  436MOL0     O58784   0.836   4.651   7.541 -0.1032  0.3290 -0.1198
  436MOL0     C58785   0.796   4.789   7.584 -0.0544  0.0667 -0.4697
  436MOL0     C58786   0.807   4.783   7.732 -0.0090 -0.0182 -0.2744
  436MOL0     C58787   0.953   4.759   7.779 -0.2572 -0.1578  0.3124
  436MOL0     C58788   0.950   4.774   7.932  0.1029  0.8700 -0.4231
  436MOL0     C58789   1.085   4.742   7.982  0.5539 -0.8297  0.4654
  436MOL0     C58790   1.196   4.730   8.014 -0.0783 -0.0610  0.7376
  436MOL0     C58791   0.830   4.746   7.318  0.0667 -0.1009  0.3604
  436MOL0     C58792   0.852   4.729   7.183 -0.2325  0.8342 -0.3923
  436MOL0     H58793   1.267   4.648   6.836  3.0652 -3.0602  0.4791
  436MOL0     H58794   1.333   4.562   6.599 -0.6943  0.7429 -2.0218
  436MOL0     H58795   1.023   4.536   6.388 -0.8401  1.2254  0.0164
  436MOL0     H58796   1.170   4.625   6.415  0.5540 -1.1649  1.4337
  436MOL0     H58797   1.122   4.447   6.173 -0.2024 -0.3980  0.1077
  436MOL0     H58798   1.107   4.616   6.182 -0.6031 -0.4028  0.1920
  436MOL0     H58799   1.363   4.564   6.299 -0.2695 -0.8544  0.2482
  436MOL0     H58800   1.351   4.465   6.161 -0.3511  0.5171  1.5611
  436MOL0     H58801   1.270   4.650   6.027 -1.0065  3.0935  0.8087
  436MOL0     H58802   1.311   4.761   6.159 -1.7005  1.9253 -1.7187
  436MOL0     H58803   1.553   4.605   6.127 -1.2131  0.3549  0.8649
  436MOL0     H58804   1.457   4.574   5.980  0.7338 -0.6004  0.4905
  436MOL0     H58805   1.449   4.844   5.978 -1.7129 -1.2524  4.5057
  436MOL0     H58806   1.613   4.814   6.050 -1.2007 -1.9548  2.4690
  436MOL0     H58807   1.669   4.646   5.849  0.2686  0.0389  0.7626
  436MOL0     H58808   1.521   4.711   5.788  0.7722  1.9623 -0.3392
  436MOL0     H58809   1.785   4.848   5.849  0.0524 -1.7935  0.2334
  436MOL0     H58810   1.634   4.947   5.820 -0.3876 -0.0849  0.4785
  436MOL0     H58811   1.873   4.694   5.647 -1.5567 -2.3210  0.6771
  436MOL0     H58812   1.814   4.574   5.373  0.3668  0.4074  1.2644
  436MOL0     H58813   1.757   4.707   5.267  1.4750 -2.4748 -1.2654
  436MOL0     H58814   2.002   4.701   5.234 -1.9554  1.3257 -1.6400
  436MOL0     H58815   2.021   4.673   5.407  0.5904  1.7893  0.5039
  436MOL0     H58816   2.085   4.886   5.414  0.0495  0.1401  0.0604
  436MOL0     H58817   1.917   4.940   5.405  1.3726  1.9844 -0.5460
  436MOL0     H58818   1.970   4.906   5.126  0.9002  0.5555  0.7392
  436MOL0     H58819   2.114   4.947   5.174 -0.5316 -0.7473 -0.9029
  436MOL0     H58820   1.941   5.028   4.960 -1.3016  0.0687 -1.2742
  436MOL0     H58821   1.972   5.218   4.656 -2.3171 -1.2215 -1.4217
  436MOL0     H58822   1.984   5.070   4.751  1.3005  0.8517 -2.2578
  436MOL0     H58823   1.828   5.157   4.727 -0.1588  0.7991 -0.9301
  436MOL0     H58824   2.257   5.729   4.949  1.1072  2.4041 -0.1356
  436MOL0     H58825   2.352   5.910   4.844 -0.8984 -2.4959  4.1614
  436MOL0     H58826   2.099   6.126   4.633 -0.3930  0.1384 -2.8353
  436MOL0     H58827   2.237   6.177   4.729 -2.5087  1.8997 -0.0854
  436MOL0     H58828   2.354   6.225   4.504  0.5076  1.3603  2.4600
  436MOL0     H58829   2.187   6.217   4.439  2.4562  0.0170 -1.1810
  436MOL0     H58830   2.255   6.405   4.672  1.4650 -2.0421  0.3367
  436MOL0     H58831   2.103   6.376   4.588  0.2418 -0.3039  0.4418
  436MOL0     H58832   2.334   6.479   4.431 -0.4864 -0.4791 -2.7086
  436MOL0     H58833   2.197   6.419   4.370  2.4927 -0.0808 -1.6006
  436MOL0     H58834   2.218   6.685   4.547 -0.8146 -0.3261 -0.0365
  436MOL0     H58835   2.062   6.601   4.536 -0.3860 -3.0985 -0.6890
  436MOL0     H58836   2.230   6.699   4.302 -0.3140  0.5878 -1.9365
  436MOL0     H58837   2.069   6.623   4.291  1.9255 -1.4332  0.6743
  436MOL0     H58838   2.139   6.882   4.443 -1.1412 -1.6511  2.5298
  436MOL0     H58839   1.976   6.815   4.426  0.1314  1.4074  1.4594
  436MOL0     H58840   2.013   6.985   4.244  1.8849  0.8267  2.4355
  436MOL0     H58841   2.010   6.823   4.169 -1.6693  2.6134 -2.4971
  436MOL0     H58842   2.080   5.870   4.502  2.6032  0.8200 -1.3999
  436MOL0     H58843   2.003   5.657   4.608 -3.7005  1.4412  0.6940
  436MOL0     H58844   2.024   5.497   5.096 -3.7268  1.2097  0.2659
  436MOL0     H58845   1.999   5.330   5.262 -0.6731  1.0549 -0.8187
  436MOL0     H58846   1.000   4.316   6.580 -4.5681  0.1219  2.2113
  436MOL0     H58847   0.934   4.396   6.819  0.4459  0.5548  0.9692
  436MOL0     H58848   1.030   4.444   7.203  0.9064  1.1609  0.4955
  436MOL0     H58849   0.984   4.467   7.433  0.8487 -2.4524 -2.6086
  436MOL0     H58850   0.852   4.874   7.543  0.8033 -0.0476  0.4260
  436MOL0     H58851   0.687   4.792   7.576 -0.3569 -5.0731 -1.7509
  436MOL0     H58852   0.745   4.700   7.766  0.4675 -0.7482 -1.1414
  436MOL0     H58853   0.777   4.881   7.770  1.7002  0.8743 -1.1165
  436MOL0     H58854   1.009   4.832   7.721  1.0539 -0.5458  1.0461
  436MOL0     H58855   0.980   4.657   7.749  3.8176 -0.1857  3.1562
  436MOL0     H58856   0.877   4.707   7.979  0.4511  1.3115  0.8068
  436MOL0     H58857   0.928   4.878   7.959 -2.1650  0.8381 -1.9233
  436MOL0     H58858   1.303   4.721   8.015 -0.1324 -1.4592 -0.9320
  436MOL0     H58859   0.764   4.828   7.348 -0.2434  0.7632 -2.4281
  436MOL0     H58860   0.822   4.816   7.125 -1.8233  1.4331  1.2425
  437MOL0     O58861  10.438   5.044   6.524  0.2381 -0.0634 -0.1442
  437MOL0     C58862  10.419   5.109   6.628 -0.5173 -0.2364  0.4458
  437MOL0     O58863  10.496   5.110   6.736 -0.0765  0.4708  0.2752
  437MOL0     C58864  10.611   5.038   6.732 -0.7540  0.1955 -0.6289
  437MOL0     C58865  10.709   5.105   6.805 -1.0170  0.0911 -0.3002
  437MOL0     C58866  10.839   5.056   6.821  0.0957  0.2307  0.0382
  437MOL0     C58867  10.881   4.943   6.748  0.0604 -0.6256  0.3145
  437MOL0     O58868  11.011   4.897   6.747  0.0125 -0.3338 -0.3995
  437MOL0     C58869  11.119   4.986   6.736  0.7054  0.4674  0.3606
  437MOL0     C58870  11.244   4.896   6.722 -0.3682 -0.0064  0.1598
  437MOL0     C58871  11.268   4.817   6.852 -0.4477  0.5905  0.5746
  437MOL0     C58872  11.395   4.738   6.846 -0.2435 -0.5126 -0.1702
  437MOL0     C58873  11.411   4.648   6.724 -0.1184  0.3108 -0.2768
  437MOL0     C58874  11.537   4.558   6.738 -0.2534 -0.7777 -0.3427
  437MOL0     C58875  11.571   4.476   6.611 -0.4024  1.0155  0.7132
  437MOL0     C58876  11.477   4.361   6.565 -1.0129 -0.0393 -0.6611
  437MOL0     N58877  11.460   4.273   6.683  0.2380 -0.1910 -1.0166
  437MOL0     C58878  11.559   4.190   6.731 -0.0950 -0.4999  0.2365
  437MOL0     C58879  11.500   4.112   6.822 -0.2302  0.3995  0.0995
  437MOL0     C58880  11.557   4.005   6.911 -1.3570  0.5516 -0.3474
  437MOL0     C58881  11.642   3.901   6.835  0.6505  0.6069  0.4337
  437MOL0     C58882  11.689   3.787   6.927  0.4229 -0.3533 -0.5297
  437MOL0     C58883  11.728   3.671   6.851 -0.8451 -0.5230  0.2018
  437MOL0     O58884  11.792   3.585   6.946 -0.9127  0.1348 -0.4253
  437MOL0     C58885  11.823   3.457   6.900 -0.7981  0.5297 -0.0378
  437MOL0     C58886  11.838   3.355   6.998  0.3596  0.2433  0.1515
  437MOL0     C58887  11.873   3.225   6.964  0.3704  0.5649 -0.9080
  437MOL0     C58888  11.888   3.122   7.080  0.2032  0.6894  0.7102
  437MOL0     C58889  11.918   3.200   6.828 -0.2238  0.3467 -0.6715
  437MOL0     C58890  11.976   3.069   6.788  0.4573  0.0256 -0.3535
  437MOL0     O58891  11.969   3.031   6.654  0.2840 -1.1029 -0.2847
  437MOL0     C58892  12.010   2.909   6.613 -1.1308 -0.6706  1.3857
  437MOL0     C58893  11.935   2.793   6.645 -0.0519  0.4660 -0.0934
  437MOL0     C58894  11.987   2.672   6.606 -0.8568  0.4019 -0.2963
  437MOL0     C58895  12.106   2.662   6.532  0.0149 -0.9736 -0.0381
  437MOL0     O58896  12.135   2.528   6.506 -0.0090 -0.2857  0.0945
  437MOL0     C58897  12.259   2.501   6.436  0.2968 -0.5901  0.7630
  437MOL0     C58898  12.252   2.507   6.281  0.1477 -0.3740  0.1154
  437MOL0     C58899  12.115   2.452   6.237 -0.3182 -0.2555 -0.7188
  437MOL0     C58900  12.132   2.298   6.271 -0.3922 -0.4252  0.3274
  437MOL0     C58901  12.022   2.220   6.190  0.0362 -0.0090 -0.3051
  437MOL0     C58902  11.878   2.239   6.251  0.3725 -0.9429 -0.3185
  437MOL0     C58903  11.767   2.177   6.158  0.6765 -0.1451 -0.3421
  437MOL0     C58904  11.704   2.272   6.052 -0.2176 -0.1974 -0.0497
  437MOL0    Cl58905  11.558   2.352   6.124  0.1670  0.1420  0.3206
  437MOL0     C58906  12.181   2.780   6.511 -0.3043  0.0731  0.1992
  437MOL0     C58907  12.130   2.897   6.548 -0.2703  0.6099  0.1265
  437MOL0     O58908  12.022   2.999   6.880  0.0256  0.9674 -0.5046
  437MOL0     C58909  11.878   3.293   6.728  0.9840 -0.0032  0.4818
  437MOL0     C58910  11.833   3.420   6.765 -0.2145 -0.3836 -0.3836
  437MOL0     N58911  11.374   4.156   6.843 -0.1820 -0.6397 -0.9736
  437MOL0     N58912  11.351   4.255   6.762  0.1133  1.0662  0.1151
  437MOL0     C58913  10.780   4.874   6.685 -0.4064 -0.0682  0.3513
  437MOL0     C58914  10.645   4.917   6.669  0.5298  0.4531 -0.5172
  437MOL0     C58915  10.294   5.179   6.643 -0.2826  0.0869 -0.1530
  437MOL0     C58916  10.211   5.190   6.534  0.0892 -0.7989  0.2215
  437MOL0     C58917  10.103   5.285   6.529 -0.5771 -0.5985  0.3546
  437MOL0     C58918  10.076   5.356   6.652  0.4927 -1.1448  0.1372
  437MOL0     O58919   9.969   5.442   6.663 -0.3189  0.3762 -0.9787
  437MOL0     C58920   9.888   5.484   6.549 -0.1267  0.6943 -0.2059
  437MOL0     C58921   9.760   5.557   6.596 -0.4946  0.5870  0.4348
  437MOL0     C58922   9.689   5.608   6.472  0.3373 -0.4935  0.7715
  437MOL0     C58923   9.578   5.703   6.513 -0.6292  0.2751 -0.3816
  437MOL0     C58924   9.490   5.747   6.404 -0.4641  0.2968 -0.5539
  437MOL0     C58925   9.415   5.778   6.311 -0.0720 -0.2292 -0.6064
  437MOL0     C58926  10.161   5.332   6.764  1.0860 -0.4299  1.1097
  437MOL0     C58927  10.269   5.248   6.757  0.7953  0.6915 -0.5498
  437MOL0     H58928  10.695   5.200   6.855  2.9009 -0.5083  2.4562
  437MOL0     H58929  10.910   5.112   6.882  0.5426  2.1897 -2.1639
  437MOL0     H58930  11.105   5.041   6.643 -3.7953  1.5027  1.3968
  437MOL0     H58931  11.137   5.055   6.818  3.1574  2.8755 -2.0078
  437MOL0     H58932  11.243   4.824   6.640 -0.2287  1.8140 -1.4826
  437MOL0     H58933  11.325   4.966   6.703  0.8894 -1.1147  1.1945
  437MOL0     H58934  11.290   4.885   6.936  0.7422  3.0903 -1.6210
  437MOL0     H58935  11.188   4.750   6.884  0.7933 -0.8702  0.7233
  437MOL0     H58936  11.480   4.806   6.860  1.8389 -3.4213  2.8636
  437MOL0     H58937  11.401   4.669   6.930  0.3221  0.6960  0.8219
  437MOL0     H58938  11.325   4.584   6.704  1.6023 -1.9491 -0.7983
  437MOL0     H58939  11.431   4.725   6.649  2.0911 -0.6537 -0.7377
  437MOL0     H58940  11.623   4.624   6.730 -1.5743  0.8393 -2.3374
  437MOL0     H58941  11.532   4.492   6.825  2.3781 -0.2847  0.2487
  437MOL0     H58942  11.573   4.536   6.520 -0.7012  0.4780  0.3432
  437MOL0     H58943  11.673   4.439   6.608  0.4558  3.2769 -1.7202
  437MOL0     H58944  11.509   4.298   6.482 -0.6360 -3.3300  1.7719
  437MOL0     H58945  11.381   4.404   6.534 -1.2531 -0.2584 -0.2312
  437MOL0     H58946  11.663   4.203   6.701 -0.3742 -0.5630 -0.7881
  437MOL0     H58947  11.619   4.050   6.988 -1.2535 -1.0567  0.5458
  437MOL0     H58948  11.472   3.944   6.944 -0.8811 -0.9242 -1.7414
  437MOL0     H58949  11.729   3.944   6.784  0.6910 -0.2954 -0.2807
  437MOL0     H58950  11.580   3.870   6.750 -1.5187  2.2794  1.3095
  437MOL0     H58951  11.615   3.761   7.003 -0.7004  0.3669 -1.3465
  437MOL0     H58952  11.774   3.820   6.987 -0.0244 -0.2084  0.0332
  437MOL0     H58953  11.788   3.698   6.763 -1.2034  1.9020  0.6417
  437MOL0     H58954  11.640   3.617   6.815 -1.9991  1.8657 -0.7657
  437MOL0     H58955  11.810   3.381   7.099  3.0974 -1.2770  1.4162
  437MOL0     H58956  11.857   3.020   7.054  2.0139  0.1498  0.5090
  437MOL0     H58957  11.995   3.113   7.102  0.2892  1.1919  0.4954
  437MOL0     H58958  11.828   3.151   7.167  2.4305 -0.3842  2.7098
  437MOL0     H58959  11.837   2.795   6.691 -0.0046 -1.2521  0.1420
  437MOL0     H58960  11.947   2.579   6.644 -0.1360  1.0343  2.1795
  437MOL0     H58961  12.334   2.566   6.482  1.1937 -0.8534 -0.2828
  437MOL0     H58962  12.277   2.400   6.475 -3.6580 -1.1921  1.3868
  437MOL0     H58963  12.250   2.610   6.244 -3.8753 -0.6972 -1.1258
  437MOL0     H58964  12.331   2.468   6.216  0.3070 -1.0197  0.6892
  437MOL0     H58965  12.120   2.473   6.130  0.5204 -0.6239 -0.7559
  437MOL0     H58966  12.037   2.517   6.278  1.7987  3.0117 -1.4957
  437MOL0     H58967  12.228   2.254   6.241  0.5103  3.0669 -2.5689
  437MOL0     H58968  12.099   2.287   6.375 -0.5864  2.1336  0.6196
  437MOL0     H58969  12.042   2.113   6.181  1.2203 -0.1173  2.5303
  437MOL0     H58970  12.035   2.264   6.090 -2.9253  0.2681 -0.6431
  437MOL0     H58971  11.885   2.196   6.351  2.5344  0.0503  0.0074
  437MOL0     H58972  11.867   2.348   6.255  1.9761 -0.7517 -0.3586
  437MOL0     H58973  11.684   2.134   6.215  1.2782  0.4938  1.0911
  437MOL0     H58974  11.813   2.087   6.117  0.8333 -0.0019 -0.4825
  437MOL0     H58975  11.679   2.202   5.971 -0.2807 -0.1572 -0.0642
  437MOL0     H58976  11.777   2.344   6.013 -0.3610 -0.2647 -0.4483
  437MOL0     H58977  12.272   2.769   6.454  0.3015  0.5419  1.0498
  437MOL0     H58978  12.192   2.982   6.519 -0.2837  1.7914  3.1309
  437MOL0     H58979  11.877   3.265   6.623  0.2409 -0.1201  0.5153
  437MOL0     H58980  11.814   3.497   6.691 -1.6537  0.4495  0.7880
  437MOL0     H58981  10.825   4.780   6.652  0.9017  0.7816 -0.3578
  437MOL0     H58982  10.569   4.857   6.620 -0.1952  0.6913  0.2894
  437MOL0     H58983  10.233   5.127   6.448  0.3655 -1.7598  0.9751
  437MOL0     H58984  10.048   5.279   6.436  2.8435 -0.8475 -1.8030
  437MOL0     H58985   9.948   5.551   6.487 -1.9264  0.9556 -1.7684
  437MOL0     H58986   9.858   5.398   6.488  0.9486  0.5798 -0.5922
  437MOL0     H58987   9.780   5.640   6.664  1.1095  2.7469 -2.4519
  437MOL0     H58988   9.699   5.483   6.649  1.7975  0.0957  2.5761
  437MOL0     H58989   9.644   5.524   6.418 -0.5298  1.3393 -1.5614
  437MOL0     H58990   9.763   5.652   6.404 -0.0571  1.2286  1.4206
  437MOL0     H58991   9.627   5.791   6.556  2.6762 -0.2766 -2.5608
  437MOL0     H58992   9.514   5.649   6.583  0.4898 -2.0032 -1.0105
  437MOL0     H58993   9.341   5.802   6.238 -2.0418  0.0286  1.3697
  437MOL0     H58994  10.151   5.386   6.858  1.2552 -3.2059  2.8178
  437MOL0     H58995  10.332   5.251   6.846  1.0251  0.6795 -0.7100
  438MOL0     O58996   4.770   3.439  10.497 -0.0271 -0.6131 -0.3067
  438MOL0     C58997   4.670   3.467  10.557 -0.2439  0.0168 -0.7913
  438MOL0     O58998   4.655   3.451  10.695  1.3261 -0.2028 -0.0904
  438MOL0     C58999   4.749   3.387  10.767 -0.1547  0.8029 -0.3203
  438MOL0     C59000   4.886   3.431  10.771  0.3948 -0.5062  0.0895
  438MOL0     C59001   4.978   3.368  10.854 -0.5977  0.3246 -0.2061
  438MOL0     C59002   4.936   3.264  10.929 -0.3495 -0.0056 -0.6573
  438MOL0     O59003   5.018   3.207  11.021 -0.5858  0.3107  0.2139
  438MOL0     C59004   5.047   3.286  11.137  0.9624 -0.1552 -0.3348
  438MOL0     C59005   5.090   3.184  11.244 -0.2844 -0.1404 -0.1024
  438MOL0     C59006   4.981   3.075  11.255  0.9390  0.3162  0.8118
  438MOL0     C59007   4.969   3.010  11.396  0.1420  0.2651  0.6968
  438MOL0     C59008   5.082   2.921  11.463  0.7817  0.5411 -0.1160
  438MOL0     C59009   5.037   2.867  11.591  1.1867  0.0259  0.1673
  438MOL0     C59010   5.145   2.793  11.667 -0.1965 -0.8685  1.1988
  438MOL0     C59011   5.105   2.731  11.803  0.2426  0.0667  0.1528
  438MOL0     N59012   4.964   2.682  11.796 -0.1827 -0.5202 -0.6381
  438MOL0     C59013   4.919   2.581  11.702  0.0144  0.5151 -0.4813
  438MOL0     C59014   4.808   2.527  11.763  0.2999 -0.3324  0.0861
  438MOL0     C59015   4.724   2.418  11.712  0.0487  0.1959 -0.8635
  438MOL0     C59016   4.749   2.281  11.799  0.2223 -0.1474  0.3510
  438MOL0     C59017   4.651   2.177  11.745  0.2781  0.4576 -0.1743
  438MOL0     C59018   4.681   2.034  11.798  0.7712  0.3064 -0.4404
  438MOL0     O59019   4.814   1.975  11.753  0.8612 -0.0892  0.1366
  438MOL0     C59020   4.848   1.853  11.793 -0.7610  0.6022  0.1426
  438MOL0     C59021   4.780   1.779  11.901 -0.8847 -0.8546 -0.7403
  438MOL0     C59022   4.812   1.650  11.923 -0.9236  1.1940 -0.0982
  438MOL0     C59023   4.750   1.595  12.057 -0.0146 -0.1744  0.0676
  438MOL0     C59024   4.925   1.583  11.854 -0.3270  0.7966  0.4317
  438MOL0     C59025   4.974   1.456  11.896 -0.6126  0.0417  0.6751
  438MOL0     O59026   5.017   1.374  11.795 -0.2334 -0.5189  0.3079
  438MOL0     C59027   5.093   1.269  11.828  1.5705  1.4674  0.0607
  438MOL0     C59028   5.229   1.255  11.798 -0.0241 -0.0865  0.1541
  438MOL0     C59029   5.305   1.142  11.831  0.5005  0.0622  0.0146
  438MOL0     C59030   5.242   1.026  11.883  0.6680  0.0506 -0.1116
  438MOL0     O59031   5.316   0.917  11.905  0.5477 -0.1335  0.2491
  438MOL0     C59032   5.247   0.808  11.951 -0.7741 -0.4437  0.7865
  438MOL0     C59033   5.348   0.694  11.963 -0.3927  0.3398 -0.0656
  438MOL0     C59034   5.276   0.555  12.002 -0.3747  0.0075 -0.8180
  438MOL0     C59035   5.219   0.558  12.147  0.4033  0.5862 -0.0732
  438MOL0     C59036   5.316   0.596  12.254 -0.5940  0.1161  0.1346
  438MOL0     C59037   5.252   0.572  12.389  0.5363 -0.1101 -0.8846
  438MOL0     C59038   5.333   0.618  12.508  0.4150 -0.4531 -0.7650
  438MOL0     C59039   5.263   0.600  12.643 -0.0875  0.2759 -0.1979
  438MOL0    Cl59040   5.191   0.758  12.689 -0.3408  0.1388  0.0983
  438MOL0     C59041   5.101   1.038  11.901 -0.0945 -0.1741 -0.6584
  438MOL0     C59042   5.028   1.160  11.878 -0.4583  0.8913  0.3158
  438MOL0     O59043   4.992   1.429  12.015  0.2683  0.3253  0.1122
  438MOL0     C59044   4.986   1.659  11.757  0.1610 -0.0125  0.0926
  438MOL0     C59045   4.945   1.791  11.722 -0.3389 -0.0618 -0.0387
  438MOL0     N59046   4.776   2.599  11.878 -1.1766  1.7266  0.3954
  438MOL0     N59047   4.876   2.676  11.902 -0.1510  0.4850 -0.2003
  438MOL0     C59048   4.814   3.208  10.914  0.2491 -0.2253  0.0534
  438MOL0     C59049   4.717   3.269  10.830  1.0625  0.1351 -0.2302
  438MOL0     C59050   4.559   3.537  10.491 -0.2954  0.6002  0.4899
  438MOL0     C59051   4.573   3.585  10.360  0.1414 -0.4084  0.2428
  438MOL0     C59052   4.468   3.646  10.297  0.0157  0.4104 -0.4050
  438MOL0     C59053   4.339   3.644  10.342 -0.1592  0.6306  0.4048
  438MOL0     O59054   4.235   3.696  10.276 -0.4904  0.0085  0.5735
  438MOL0     C59055   4.096   3.675  10.304  0.4971 -0.3813 -0.3201
  438MOL0     C59056   4.005   3.756  10.204  0.6984 -0.2381 -0.0982
  438MOL0     C59057   3.880   3.670  10.164  0.2918 -0.3102 -0.3028
  438MOL0     C59058   3.914   3.575  10.042 -0.1389 -0.7676 -0.3195
  438MOL0     C59059   3.789   3.496  10.024 -0.2635 -0.5790  0.5973
  438MOL0     C59060   3.697   3.416  10.025 -0.2637 -0.2379 -0.2225
  438MOL0     C59061   4.322   3.589  10.469 -0.5040  0.3178 -0.4748
  438MOL0     C59062   4.428   3.547  10.550 -0.0559  0.4668  0.0543
  438MOL0     H59063   4.912   3.529  10.733  1.2846 -0.1796  1.4710
  438MOL0     H59064   5.079   3.403  10.872 -0.5873 -0.1979  0.8380
  438MOL0     H59065   5.125   3.360  11.115  1.9305 -1.4710 -1.5153
  438MOL0     H59066   4.966   3.342  11.184  1.3674 -1.3175  1.8846
  438MOL0     H59067   5.182   3.137  11.207 -1.1676 -1.9587 -0.1022
  438MOL0     H59068   5.115   3.228  11.341 -4.1511  2.3659 -0.0381
  438MOL0     H59069   4.880   3.110  11.230  0.7850 -1.3318 -1.1115
  438MOL0     H59070   5.008   2.996  11.185 -1.5012 -0.4916  0.6985
  438MOL0     H59071   4.948   3.096  11.460 -0.2999  0.7082 -0.0275
  438MOL0     H59072   4.878   2.950  11.392  1.1175 -1.4297  2.0096
  438MOL0     H59073   5.113   2.834  11.405 -2.4873 -0.1286 -1.0418
  438MOL0     H59074   5.173   2.982  11.472 -0.6640  2.4837  3.6134
  438MOL0     H59075   5.006   2.953  11.652  1.7831  0.4311 -0.0948
  438MOL0     H59076   4.942   2.814  11.580  0.2032  1.6574  0.4371
  438MOL0     H59077   5.199   2.728  11.598 -2.4317  0.6073 -2.1995
  438MOL0     H59078   5.222   2.866  11.692  1.2793 -1.7033 -0.6725
  438MOL0     H59079   5.121   2.819  11.865  3.4326  1.4724 -2.3625
  438MOL0     H59080   5.170   2.650  11.836 -0.6702 -0.6426  0.2365
  438MOL0     H59081   4.968   2.527  11.621 -2.3454 -2.1817 -0.2706
  438MOL0     H59082   4.616   2.435  11.714 -0.0069 -0.1313  0.5778
  438MOL0     H59083   4.755   2.393  11.610  0.9749  1.3265 -0.8785
  438MOL0     H59084   4.733   2.292  11.907 -1.1034  1.4517  0.0173
  438MOL0     H59085   4.851   2.257  11.769  0.8513  2.8595 -0.2033
  438MOL0     H59086   4.655   2.170  11.636  1.3532  1.1673 -0.1981
  438MOL0     H59087   4.549   2.198  11.778  0.5409 -1.1973  1.9982
  438MOL0     H59088   4.598   1.967  11.775 -0.4155  1.4889  0.2426
  438MOL0     H59089   4.683   2.044  11.907  1.1277  1.3604 -0.5338
  438MOL0     H59090   4.707   1.832  11.962  1.8654  1.6703  0.5896
  438MOL0     H59091   4.643   1.616  12.064 -0.1241  0.6310 -2.6701
  438MOL0     H59092   4.760   1.487  12.062  3.6198 -0.0407 -0.9504
  438MOL0     H59093   4.792   1.642  12.147 -0.8927  0.6342  0.0712
  438MOL0     H59094   5.284   1.337  11.754 -0.4405  1.0252  1.6304
  438MOL0     H59095   5.412   1.135  11.811  0.1070 -0.8498 -2.0630
  438MOL0     H59096   5.194   0.828  12.045 -1.6866 -2.4096  0.7638
  438MOL0     H59097   5.175   0.774  11.876 -0.5332  1.0829 -0.1608
  438MOL0     H59098   5.384   0.677  11.861  2.2099  1.9547  0.4996
  438MOL0     H59099   5.439   0.714  12.019 -0.0849 -1.6025  0.2018
  438MOL0     H59100   5.349   0.474  11.990 -2.2610 -1.4139 -3.8220
  438MOL0     H59101   5.188   0.543  11.939  0.4373 -1.8761 -1.6736
  438MOL0     H59102   5.139   0.633  12.152 -2.0111 -1.7530 -1.1681
  438MOL0     H59103   5.172   0.463  12.173 -0.5626  0.6286 -1.5505
  438MOL0     H59104   5.364   0.694  12.244 -0.5150  0.3659  2.3784
  438MOL0     H59105   5.405   0.532  12.249 -1.7712 -1.4800 -1.5336
  438MOL0     H59106   5.163   0.634  12.394  1.8594  2.1321 -2.6924
  438MOL0     H59107   5.227   0.466  12.400  3.2160 -1.0084 -2.3422
  438MOL0     H59108   5.360   0.723  12.497  1.1677 -0.4639  0.7378
  438MOL0     H59109   5.424   0.557  12.506 -0.2005 -1.3910 -0.8709
  438MOL0     H59110   5.339   0.576  12.718 -0.3347 -0.6067 -0.2195
  438MOL0     H59111   5.188   0.522  12.635  0.3528 -0.0490 -1.2166
  438MOL0     H59112   5.031   0.961  11.932 -1.1713  1.0437  0.0966
  438MOL0     H59113   4.920   1.166  11.890 -0.6076 -1.7469  0.9779
  438MOL0     H59114   5.074   1.623  11.704  0.8274  2.7124 -0.8075
  438MOL0     H59115   4.997   1.849  11.646  2.7992 -2.2115  0.2554
  438MOL0     H59116   4.795   3.114  10.965  1.5275 -1.4884 -1.6994
  438MOL0     H59117   4.617   3.227  10.821  2.7228 -4.7417  1.2987
  438MOL0     H59118   4.666   3.570  10.306 -0.3743 -3.5713  0.0442
  438MOL0     H59119   4.489   3.681  10.197 -0.3649 -2.7246 -1.6654
  438MOL0     H59120   4.073   3.568  10.298  3.1370 -1.0620  0.3645
  438MOL0     H59121   4.070   3.684  10.410  1.9830 -4.4188  0.5648
  438MOL0     H59122   4.068   3.777  10.118  0.3873  1.0394 -0.0318
  438MOL0     H59123   3.967   3.846  10.253  4.4393  1.0673  0.7648
  438MOL0     H59124   3.804   3.741  10.130  1.0361 -0.4754 -2.4978
  438MOL0     H59125   3.836   3.631  10.256  0.1694  1.3015  0.3469
  438MOL0     H59126   3.985   3.495  10.066 -1.6622 -2.5541 -1.5059
  438MOL0     H59127   3.942   3.621   9.947 -2.1850 -2.8237 -2.0447
  438MOL0     H59128   3.615   3.348  10.021 -0.4132 -0.1468  0.9488
  438MOL0     H59129   4.231   3.600  10.528  0.9048  3.8210  1.3497
  438MOL0     H59130   4.395   3.515  10.648 -1.4206  3.5691  0.7408
  439MOL0     O59131   4.095   8.030   3.319  0.0971  0.4218 -0.2526
  439MOL0     C59132   4.032   8.119   3.374 -0.4675  0.0543  0.0617
  439MOL0     O59133   3.949   8.211   3.316  0.6948  0.3052  0.5471
  439MOL0     C59134   3.912   8.190   3.182  0.1330  0.8594  0.3314
  439MOL0     C59135   3.855   8.069   3.132  0.3292  0.0264  0.5354
  439MOL0     C59136   3.800   8.063   3.004 -0.9890 -0.2523  0.0339
  439MOL0     C59137   3.804   8.188   2.930  1.0263  0.4903  0.7412
  439MOL0     O59138   3.743   8.201   2.803  0.3286 -0.1427  0.2654
  439MOL0     C59139   3.628   8.123   2.775  0.6608  0.4084  0.3374
  439MOL0     C59140   3.550   8.174   2.651  0.1161 -0.0841 -0.0917
  439MOL0     C59141   3.442   8.083   2.606 -0.3524  0.4842  1.1827
  439MOL0     C59142   3.503   7.963   2.532 -0.4356 -0.3287  0.1992
  439MOL0     C59143   3.404   7.854   2.500 -0.6840 -1.5547 -0.1213
  439MOL0     C59144   3.357   7.794   2.635  0.2742  0.2404  0.4807
  439MOL0     C59145   3.301   7.657   2.607 -0.1389  0.0837  0.8878
  439MOL0     C59146   3.151   7.660   2.600  0.4225  0.0787 -0.0939
  439MOL0     N59147   3.081   7.704   2.719 -0.7007  0.4285  0.5581
  439MOL0     C59148   3.127   7.681   2.846 -0.4065  1.0956  0.5385
  439MOL0     C59149   3.053   7.758   2.922 -0.1449  0.1455  0.3235
  439MOL0     C59150   3.040   7.749   3.071  0.3953  0.5146 -0.1904
  439MOL0     C59151   2.997   7.880   3.140 -0.1292  1.1809 -0.1970
  439MOL0     C59152   3.088   7.987   3.085  0.4414  0.6107 -0.1439
  439MOL0     C59153   3.106   8.100   3.192  0.5454 -0.1646  0.3972
  439MOL0     O59154   3.172   8.055   3.307 -0.5042  0.3984 -0.2040
  439MOL0     C59155   3.195   8.144   3.401  0.7307 -0.6569  0.5942
  439MOL0     C59156   3.264   8.099   3.510  0.4330 -0.3458 -0.1978
  439MOL0     C59157   3.284   8.187   3.624  0.0404  0.5891  0.0781
  439MOL0     C59158   3.353   8.124   3.741  0.4028  0.1223  0.2049
  439MOL0     C59159   3.237   8.316   3.627 -0.1372  0.5221  0.1594
  439MOL0     C59160   3.245   8.408   3.741  0.6981  0.2539  0.0534
  439MOL0     O59161   3.206   8.351   3.854 -0.3111 -0.2401  0.0570
  439MOL0     C59162   3.158   8.427   3.963  0.0038  0.1477  0.0179
  439MOL0     C59163   3.092   8.540   3.964  0.0935 -0.5485  0.0422
  439MOL0     C59164   3.034   8.602   4.073 -0.1219 -0.3706  0.3206
  439MOL0     C59165   3.042   8.540   4.199 -0.5023  1.4181  1.0798
  439MOL0     O59166   3.010   8.589   4.321  0.3810  0.4787  0.4222
  439MOL0     C59167   2.986   8.727   4.332  0.0870 -0.1401  0.2113
  439MOL0     C59168   2.985   8.777   4.479  0.2827 -0.2488 -0.0353
  439MOL0     C59169   2.887   8.700   4.583  0.1278  0.3088  0.0273
  439MOL0     C59170   2.939   8.708   4.729  0.1328 -0.1095  0.0525
  439MOL0     C59171   2.814   8.739   4.829 -1.0949 -0.3788 -0.8476
  439MOL0     C59172   2.701   8.636   4.809  0.6001 -1.4482  0.2448
  439MOL0     C59173   2.603   8.654   4.926 -0.6058 -0.6104 -0.5535
  439MOL0     C59174   2.557   8.798   4.977 -0.8144  0.2945  0.5830
  439MOL0    Cl59175   2.467   8.806   5.132  0.2106 -0.1840  0.8925
  439MOL0     C59176   3.098   8.409   4.198  0.4435 -0.5707  0.3535
  439MOL0     C59177   3.153   8.356   4.088 -0.9865  0.2446  0.8776
  439MOL0     O59178   3.263   8.525   3.728 -0.3165 -1.2188 -0.3065
  439MOL0     C59179   3.180   8.359   3.512 -0.8920  0.1936 -0.2548
  439MOL0     C59180   3.156   8.279   3.401 -0.4517  0.2294 -0.8683
  439MOL0     N59181   2.960   7.828   2.836 -1.1321 -0.3662 -0.2477
  439MOL0     N59182   2.979   7.783   2.718  0.0058 -0.3230 -0.6896
  439MOL0     C59183   3.866   8.300   2.976  0.9674 -0.4104  0.1588
  439MOL0     C59184   3.918   8.304   3.107 -0.7154  0.0571 -0.2829
  439MOL0     C59185   4.066   8.128   3.520 -0.1758 -0.4098 -0.5720
  439MOL0     C59186   3.990   8.218   3.601 -0.0845  0.2509 -0.8008
  439MOL0     C59187   4.004   8.216   3.736 -0.1974 -0.1662 -0.2310
  439MOL0     C59188   4.099   8.136   3.803 -0.0259  0.3194  0.1077
  439MOL0     O59189   4.119   8.138   3.941  0.0947 -0.1196  0.4703
  439MOL0     C59190   4.225   8.060   3.999  0.2336  0.6411 -0.1060
  439MOL0     C59191   4.227   8.085   4.147 -0.0519  0.0548 -0.8202
  439MOL0     C59192   4.099   8.031   4.208 -1.0528  0.5181  0.7987
  439MOL0     C59193   4.094   8.037   4.369  0.9003 -0.4458 -0.4210
  439MOL0     C59194   3.983   7.959   4.420  0.0455  0.0998 -0.0636
  439MOL0     C59195   3.894   7.878   4.430  0.3529 -0.7138 -0.1028
  439MOL0     C59196   4.168   8.047   3.725 -0.4906  0.4329  1.0305
  439MOL0     C59197   4.145   8.039   3.591 -0.1789  0.1647  0.4584
  439MOL0     H59198   3.843   7.980   3.192 -1.4911  0.1709  0.4499
  439MOL0     H59199   3.757   7.967   2.978 -0.8871  0.0542 -1.3695
  439MOL0     H59200   3.666   8.021   2.760  2.6073  0.7005  2.6432
  439MOL0     H59201   3.556   8.129   2.857  0.4827  4.3508  0.0667
  439MOL0     H59202   3.490   8.259   2.685 -2.9390 -2.0814 -0.0724
  439MOL0     H59203   3.609   8.204   2.565 -1.0550 -1.6313 -1.4888
  439MOL0     H59204   3.380   8.040   2.686  0.9723 -3.0192  0.4991
  439MOL0     H59205   3.377   8.139   2.539  1.7232  0.2164 -1.1857
  439MOL0     H59206   3.551   8.004   2.443 -1.5489  2.6877  0.8560
  439MOL0     H59207   3.581   7.916   2.593  0.3520 -1.1565 -1.4015
  439MOL0     H59208   3.326   7.893   2.435  0.4326 -0.6284 -0.9466
  439MOL0     H59209   3.459   7.781   2.440 -3.2716 -3.0648 -0.8350
  439MOL0     H59210   3.446   7.773   2.696  0.8234  0.4173 -0.2426
  439MOL0     H59211   3.298   7.851   2.707  4.3812  0.3258  4.2157
  439MOL0     H59212   3.335   7.625   2.508  0.4764  0.6868  0.8893
  439MOL0     H59213   3.332   7.587   2.685 -1.8884 -1.8449 -0.0691
  439MOL0     H59214   3.109   7.560   2.587 -4.0016  1.9333 -1.8261
  439MOL0     H59215   3.119   7.717   2.513 -0.3741 -1.0463 -0.5613
  439MOL0     H59216   3.212   7.617   2.865  0.8671  2.3614 -0.6604
  439MOL0     H59217   2.972   7.665   3.087  1.3292 -0.3016 -0.4048
  439MOL0     H59218   3.139   7.719   3.109  0.6076  0.7536 -0.5564
  439MOL0     H59219   3.013   7.865   3.247 -0.4537 -0.8878 -0.3954
  439MOL0     H59220   2.889   7.895   3.138 -0.6260 -1.4504  1.8785
  439MOL0     H59221   3.042   8.029   2.995 -2.1692 -1.1879  0.2269
  439MOL0     H59222   3.192   7.960   3.063  1.9310  5.3974 -0.1550
  439MOL0     H59223   3.009   8.151   3.200  0.2687 -0.9373  2.5904
  439MOL0     H59224   3.175   8.171   3.145 -0.5062 -0.5164 -1.8596
  439MOL0     H59225   3.302   7.997   3.514  3.3083  0.5933 -1.0397
  439MOL0     H59226   3.434   8.055   3.715  0.6621  1.1708 -2.0426
  439MOL0     H59227   3.409   8.205   3.789  1.6188 -1.4133  1.4910
  439MOL0     H59228   3.284   8.082   3.814  0.1237  0.7575  0.3109
  439MOL0     H59229   3.070   8.576   3.864 -1.4610 -1.3498  0.0811
  439MOL0     H59230   2.982   8.696   4.058  1.2098  0.4357  0.6428
  439MOL0     H59231   3.070   8.780   4.287 -0.8960  0.2890 -1.2097
  439MOL0     H59232   2.885   8.755   4.297  0.4638  1.2441  0.1660
  439MOL0     H59233   3.086   8.758   4.517  1.2861  0.3844 -2.2322
  439MOL0     H59234   2.963   8.884   4.484 -0.1106 -0.3859  1.9048
  439MOL0     H59235   2.874   8.594   4.559 -1.9636  0.8377 -1.4148
  439MOL0     H59236   2.790   8.749   4.573  0.4169  0.6280 -1.5667
  439MOL0     H59237   2.984   8.613   4.758 -1.0411 -0.6639  0.1229
  439MOL0     H59238   3.011   8.789   4.744 -1.2327  1.2328 -0.2754
  439MOL0     H59239   2.778   8.842   4.820  0.9285  0.3827 -0.8389
  439MOL0     H59240   2.859   8.726   4.928  1.0257 -1.2072 -1.8417
  439MOL0     H59241   2.648   8.643   4.713  0.9322  1.5950  0.1578
  439MOL0     H59242   2.747   8.537   4.806  1.5733 -0.9910 -1.4355
  439MOL0     H59243   2.640   8.587   5.004 -1.2190 -2.2570 -1.6015
  439MOL0     H59244   2.508   8.604   4.902 -2.5186  2.2084  0.6073
  439MOL0     H59245   2.497   8.842   4.897  0.8002  0.2856 -0.6825
  439MOL0     H59246   2.650   8.849   5.000 -0.3666 -1.5861  3.4747
  439MOL0     H59247   3.093   8.351   4.289  0.7613 -0.6223  0.3378
  439MOL0     H59248   3.207   8.262   4.090  1.1265  1.3723 -0.3012
  439MOL0     H59249   3.142   8.460   3.501  1.1097  0.9126 -0.9351
  439MOL0     H59250   3.091   8.320   3.324 -0.3940  0.9904 -0.5165
  439MOL0     H59251   3.851   8.385   2.910  1.6313  0.1714  0.7437
  439MOL0     H59252   3.962   8.396   3.145 -1.9246  0.4646  0.1913
  439MOL0     H59253   3.911   8.281   3.561 -0.3829  0.4422  0.0626
  439MOL0     H59254   3.946   8.272   3.809  0.7956  1.6401 -0.7809
  439MOL0     H59255   4.213   7.951   3.991  0.6489  0.4893  1.1403
  439MOL0     H59256   4.323   8.082   3.956  1.2509 -1.1066  1.1839
  439MOL0     H59257   4.242   8.191   4.172  4.6378 -0.3101 -1.1974
  439MOL0     H59258   4.312   8.039   4.197 -0.3622  0.9914  0.6487
  439MOL0     H59259   4.082   7.926   4.183 -1.1389  0.0152  2.7899
  439MOL0     H59260   4.014   8.088   4.169 -2.3054 -2.6990 -1.6122
  439MOL0     H59261   4.076   8.140   4.402 -2.5852 -1.5681  1.8118
  439MOL0     H59262   4.185   8.008   4.422  0.5134 -0.5649  0.1896
  439MOL0     H59263   3.824   7.797   4.430 -1.0446  0.4248 -1.3890
  439MOL0     H59264   4.232   7.969   3.764  2.9154  1.5531 -1.6873
  439MOL0     H59265   4.201   7.965   3.535  0.6538  1.1036  0.0107
  440MOL0     O59266   3.232   3.619   2.660 -0.3650 -0.3194 -0.0962
  440MOL0     C59267   3.205   3.733   2.621  0.7239 -0.8873  0.1697
  440MOL0     O59268   3.296   3.839   2.603  0.3509 -0.3272 -0.1306
  440MOL0     C59269   3.422   3.841   2.667  1.3522  0.9744  0.3466
  440MOL0     C59270   3.438   3.788   2.798 -0.6322 -0.5215 -0.0184
  440MOL0     C59271   3.551   3.816   2.874  0.7811  1.0057 -0.0708
  440MOL0     C59272   3.642   3.900   2.820 -0.1211  0.8687  0.2933
  440MOL0     O59273   3.743   3.924   2.908  0.1451  0.0074  0.5463
  440MOL0     C59274   3.824   4.044   2.901 -0.0852  1.3816  0.5092
  440MOL0     C59275   3.765   4.184   2.938 -0.5311  1.0189 -0.4382
  440MOL0     C59276   3.717   4.183   3.086  0.8578 -0.8135  0.0964
  440MOL0     C59277   3.581   4.246   3.088 -1.0996 -0.0073  0.5428
  440MOL0     C59278   3.586   4.402   3.068  1.4190  1.2139 -0.2843
  440MOL0     C59279   3.438   4.452   3.078 -0.5877 -0.5882 -1.0097
  440MOL0     C59280   3.426   4.602   3.108 -0.4306 -0.0572  0.8266
  440MOL0     C59281   3.281   4.640   3.099  0.6964 -0.2303  0.3561
  440MOL0     N59282   3.255   4.652   2.949 -0.7551 -0.6402  0.1068
  440MOL0     C59283   3.278   4.782   2.890 -0.1981  0.4791 -0.7972
  440MOL0     C59284   3.231   4.768   2.764 -0.4971  1.0730  0.4068
  440MOL0     C59285   3.240   4.877   2.654  0.1422 -0.2428 -0.0059
  440MOL0     C59286   3.162   4.998   2.702  0.9550 -0.8581 -0.4388
  440MOL0     C59287   3.020   4.953   2.744  0.4914 -0.5315 -0.3786
  440MOL0     C59288   2.928   5.080   2.735 -0.0238  0.2203  0.0192
  440MOL0     O59289   2.918   5.146   2.861 -0.8205 -0.3297 -0.2016
  440MOL0     C59290   2.806   5.231   2.885  0.2955 -0.4652 -0.8678
  440MOL0     C59291   2.680   5.220   2.827 -0.6958 -0.0532  0.4549
  440MOL0     C59292   2.571   5.303   2.855 -0.5246 -1.1106  0.4667
  440MOL0     C59293   2.446   5.296   2.757 -0.0345  0.6201 -0.1357
  440MOL0     C59294   2.588   5.388   2.980  0.4774  0.3533 -0.2200
  440MOL0     C59295   2.471   5.467   3.024  0.1347 -0.8726 -0.4264
  440MOL0     O59296   2.483   5.608   3.047 -0.9727 -0.1654  0.8808
  440MOL0     C59297   2.576   5.674   2.979 -0.4223  0.0076 -0.5097
  440MOL0     C59298   2.559   5.674   2.836  0.9104 -0.1118 -0.7816
  440MOL0     C59299   2.637   5.752   2.749  0.3246  0.6693  0.3202
  440MOL0     C59300   2.747   5.818   2.794  0.3611 -0.1152  0.0463
  440MOL0     O59301   2.839   5.892   2.719  0.1579 -0.4008 -0.4697
  440MOL0     C59302   2.803   5.953   2.590 -0.5340 -0.1131 -0.2366
  440MOL0     C59303   2.917   6.038   2.531  0.2359 -0.2167 -0.2234
  440MOL0     C59304   3.034   5.954   2.474 -0.5391 -0.9801 -0.2638
  440MOL0     C59305   3.158   6.039   2.425  0.0033 -0.1731  0.1256
  440MOL0     C59306   3.238   5.969   2.314  0.3089 -0.8209 -0.2530
  440MOL0     C59307   3.349   6.056   2.250 -0.6452  0.3608  1.3389
  440MOL0     C59308   3.299   6.187   2.184  0.5890  0.0173  0.9178
  440MOL0     C59309   3.404   6.288   2.138  0.2098 -0.0230 -0.6949
  440MOL0    Cl59310   3.477   6.359   2.294  0.1357 -0.6519  0.0794
  440MOL0     C59311   2.777   5.803   2.933  0.8416 -0.5723  0.1520
  440MOL0     C59312   2.683   5.747   3.025 -0.4088 -0.5230 -0.7033
  440MOL0     O59313   2.366   5.408   3.025  0.3266 -0.5190  0.2085
  440MOL0     C59314   2.708   5.375   3.053  0.6386 -0.5752 -0.6124
  440MOL0     C59315   2.821   5.308   3.003  0.0129 -0.5053  1.0348
  440MOL0     N59316   3.161   4.643   2.757 -0.5587  0.6615 -0.6628
  440MOL0     N59317   3.186   4.574   2.867 -0.0189  0.8855 -0.1935
  440MOL0     C59318   3.633   3.948   2.685 -0.4387  0.3671  0.3373
  440MOL0     C59319   3.517   3.916   2.612 -0.5931 -0.0761 -0.5292
  440MOL0     C59320   3.062   3.758   2.586 -0.5100 -0.2978  0.4781
  440MOL0     C59321   2.973   3.642   2.576 -0.6113  0.0876 -0.1382
  440MOL0     C59322   2.843   3.660   2.540  0.1247  0.4307  0.4972
  440MOL0     C59323   2.780   3.783   2.515  0.5863 -0.0330  0.1674
  440MOL0     O59324   2.647   3.800   2.488 -0.0918  0.9716 -0.1069
  440MOL0     C59325   2.628   3.795   2.343  0.4782 -0.0040 -0.3373
  440MOL0     C59326   2.557   3.930   2.298 -0.7749  0.0451 -0.4445
  440MOL0     C59327   2.413   3.911   2.342  0.6400  0.2856  0.4551
  440MOL0     C59328   2.322   3.815   2.260 -0.5676 -0.0902  0.6272
  440MOL0     C59329   2.191   3.841   2.301 -0.0206 -0.3218 -0.2760
  440MOL0     C59330   2.076   3.867   2.295  0.7969  0.1168  0.2683
  440MOL0     C59331   2.873   3.895   2.512  0.4378  0.1256 -0.5227
  440MOL0     C59332   3.007   3.891   2.547 -0.1605  0.3457 -0.7147
  440MOL0     H59333   3.354   3.733   2.839 -0.9021  0.1862  0.3982
  440MOL0     H59334   3.563   3.766   2.970 -0.5366 -2.4633 -1.5454
  440MOL0     H59335   3.915   4.025   2.959 -0.6579 -0.6019  0.8029
  440MOL0     H59336   3.867   4.038   2.800 -1.5407 -1.7809 -0.0367
  440MOL0     H59337   3.843   4.259   2.928  1.1411 -0.4967  0.5720
  440MOL0     H59338   3.682   4.203   2.869 -0.2185 -0.0967 -1.1502
  440MOL0     H59339   3.716   4.082   3.127  0.5790  0.0462  2.3415
  440MOL0     H59340   3.780   4.242   3.153 -0.7300 -0.4756  1.3323
  440MOL0     H59341   3.535   4.199   3.000  0.0544  0.9800 -0.6298
  440MOL0     H59342   3.534   4.205   3.178 -0.1807 -0.5329  0.7947
  440MOL0     H59343   3.643   4.457   3.143  1.0028  2.0013 -0.5339
  440MOL0     H59344   3.621   4.421   2.966 -1.6425  1.4098 -1.4199
  440MOL0     H59345   3.375   4.428   2.991 -4.4582  1.9217  0.8393
  440MOL0     H59346   3.387   4.400   3.160 -1.5403 -1.6917 -2.2433
  440MOL0     H59347   3.467   4.626   3.206  2.1958 -2.0225  0.3040
  440MOL0     H59348   3.487   4.648   3.030 -0.6320 -0.9259  0.1326
  440MOL0     H59349   3.273   4.740   3.141  1.1641 -1.3399  3.2940
  440MOL0     H59350   3.212   4.571   3.148 -0.9038 -0.9253 -2.6293
  440MOL0     H59351   3.325   4.864   2.943  0.7160 -0.4164 -0.1931
  440MOL0     H59352   3.343   4.909   2.636  1.6648 -2.0322  4.2082
  440MOL0     H59353   3.208   4.839   2.557 -0.2606 -0.9431  0.3879
  440MOL0     H59354   3.162   5.069   2.618 -0.8379 -0.6988 -0.3336
  440MOL0     H59355   3.209   5.053   2.784  0.9356  1.4271 -1.8587
  440MOL0     H59356   3.011   4.893   2.835 -0.0568 -3.2939 -2.0994
  440MOL0     H59357   2.986   4.875   2.674  0.6610  0.5906 -1.7538
  440MOL0     H59358   2.835   5.036   2.698  1.3113 -1.3361 -1.7444
  440MOL0     H59359   2.965   5.150   2.660 -2.0869  0.3624 -0.9180
  440MOL0     H59360   2.665   5.142   2.753  0.6240 -0.4254  0.5388
  440MOL0     H59361   2.484   5.283   2.655 -4.3483  1.5837 -2.1245
  440MOL0     H59362   2.376   5.218   2.789  0.8033  0.5856  1.7203
  440MOL0     H59363   2.387   5.388   2.758  1.5191  1.6390  0.9469
  440MOL0     H59364   2.485   5.620   2.777  2.8993  0.5201 -4.1638
  440MOL0     H59365   2.613   5.755   2.643 -1.0265  2.7900  0.6211
  440MOL0     H59366   2.769   5.881   2.516 -0.4423  1.4431 -1.8705
  440MOL0     H59367   2.715   6.016   2.610 -0.1420  0.8910 -1.5345
  440MOL0     H59368   2.872   6.101   2.454  0.6027 -1.1573 -1.2300
  440MOL0     H59369   2.962   6.105   2.606 -1.9944  0.7625  0.3377
  440MOL0     H59370   3.009   5.886   2.391 -0.4502 -0.2426 -0.9106
  440MOL0     H59371   3.074   5.892   2.554 -3.2264 -1.6647  0.6702
  440MOL0     H59372   3.117   6.138   2.404 -1.4294 -0.2634  2.2524
  440MOL0     H59373   3.229   6.053   2.507 -1.9734  1.0497  1.7329
  440MOL0     H59374   3.166   5.918   2.250  0.4691  0.1716 -1.2427
  440MOL0     H59375   3.294   5.892   2.369 -0.1341  0.3686  2.0068
  440MOL0     H59376   3.416   6.080   2.333 -0.0651  1.3240  0.6057
  440MOL0     H59377   3.408   5.999   2.178 -0.9600 -0.1682  1.4956
  440MOL0     H59378   3.219   6.230   2.245 -1.6959  3.7174 -3.9954
  440MOL0     H59379   3.254   6.154   2.090  0.4267  4.0796 -0.6126
  440MOL0     H59380   3.362   6.373   2.082  0.5876 -0.1785 -1.2237
  440MOL0     H59381   3.478   6.228   2.085  2.6124  2.8528 -0.8247
  440MOL0     H59382   2.871   5.836   2.976  1.3647 -0.4299 -1.0538
  440MOL0     H59383   2.712   5.768   3.127  1.4933  0.5772 -1.4126
  440MOL0     H59384   2.713   5.412   3.154 -2.3647 -2.1823  0.2194
  440MOL0     H59385   2.920   5.314   3.047  1.4192  0.6533 -2.0150
  440MOL0     H59386   3.710   4.015   2.650 -0.3681 -1.1774 -2.8498
  440MOL0     H59387   3.506   3.961   2.515  0.0196 -0.0840 -0.6104
  440MOL0     H59388   3.031   3.552   2.590  1.8385  1.5286 -0.3936
  440MOL0     H59389   2.792   3.565   2.521  0.6413  0.3961 -0.7684
  440MOL0     H59390   2.723   3.779   2.290  1.3460  0.0946  1.1423
  440MOL0     H59391   2.570   3.706   2.315  0.3749  1.0207 -3.9288
  440MOL0     H59392   2.574   3.948   2.191  0.4576  1.8651  0.0243
  440MOL0     H59393   2.611   3.998   2.363 -0.4627 -0.7422  0.1294
  440MOL0     H59394   2.367   4.008   2.323  0.8426 -0.0028 -1.8289
  440MOL0     H59395   2.411   3.885   2.448  0.5568  1.6105  0.7994
  440MOL0     H59396   2.330   3.706   2.272 -3.7321 -0.4306  0.4469
  440MOL0     H59397   2.339   3.844   2.156  1.7144 -0.2347  0.9152
  440MOL0     H59398   1.977   3.890   2.263  2.1432  3.1986 -2.3078
  440MOL0     H59399   2.834   3.993   2.485  1.3340  0.6114 -0.1230
  440MOL0     H59400   3.074   3.975   2.532  1.5407 -1.2663 -2.8342
  441MOL0     O59401   6.387   3.089   8.010  0.3480  0.1169 -0.3428
  441MOL0     C59402   6.376   3.033   7.899  0.1970 -0.4925 -0.1039
  441MOL0     O59403   6.462   3.047   7.788 -0.5971  0.5785 -0.5768
  441MOL0     C59404   6.574   3.126   7.805  0.6982  0.9363  0.1431
  441MOL0     C59405   6.559   3.267   7.838 -0.3080  0.4699 -0.2022
  441MOL0     C59406   6.679   3.347   7.842  0.2891  0.2562  0.0146
  441MOL0     C59407   6.806   3.298   7.817 -0.4402 -0.0443  0.8644
  441MOL0     O59408   6.911   3.383   7.813  0.2236 -0.0591 -0.7223
  441MOL0     C59409   7.043   3.338   7.835  0.7049 -0.1177  0.9684
  441MOL0     C59410   7.131   3.460   7.786  0.2608  0.8191  0.3521
  441MOL0     C59411   7.138   3.481   7.633  0.0269 -0.9240 -0.7608
  441MOL0     C59412   7.198   3.355   7.564  0.4171  0.3893  0.8627
  441MOL0     C59413   7.221   3.379   7.408 -1.0036 -0.8452  0.0239
  441MOL0     C59414   7.343   3.463   7.382  0.5900  0.1377  0.1463
  441MOL0     C59415   7.367   3.477   7.226 -0.4350 -0.7395  0.3832
  441MOL0     C59416   7.481   3.568   7.191 -0.4066 -0.6377 -0.3604
  441MOL0     N59417   7.507   3.570   7.049 -0.0458  0.0810 -0.3494
  441MOL0     C59418   7.426   3.616   6.955  0.4840 -0.4258 -0.4596
  441MOL0     C59419   7.491   3.597   6.833  0.3958 -0.8418 -0.1116
  441MOL0     C59420   7.435   3.644   6.695  0.9323  0.3776 -0.1925
  441MOL0     C59421   7.527   3.746   6.625  0.7158 -0.0808 -0.1888
  441MOL0     C59422   7.488   3.895   6.649  0.4806 -0.9712 -0.8829
  441MOL0     C59423   7.598   3.993   6.644 -0.7364 -0.2866 -0.0938
  441MOL0     O59424   7.547   4.123   6.676 -0.2535 -0.0347  0.4734
  441MOL0     C59425   7.638   4.228   6.662  0.0060 -0.2749 -0.7774
  441MOL0     C59426   7.590   4.357   6.684 -0.6024 -0.2187 -0.4317
  441MOL0     C59427   7.674   4.469   6.682  0.6972 -0.1616  0.1119
  441MOL0     C59428   7.603   4.596   6.707 -0.4479 -0.9027  0.6826
  441MOL0     C59429   7.809   4.459   6.640  0.9747 -0.1914 -0.0466
  441MOL0     C59430   7.902   4.570   6.645  0.0198  0.2810  0.2290
  441MOL0     O59431   7.980   4.588   6.532  0.5472  0.2248  0.1153
  441MOL0     C59432   8.067   4.684   6.528  0.5653 -0.6653 -0.8932
  441MOL0     C59433   8.048   4.822   6.494  0.6513 -0.1583 -0.5962
  441MOL0     C59434   8.154   4.915   6.496  0.3276 -1.4330  0.1997
  441MOL0     C59435   8.284   4.875   6.536  0.6185 -0.8749  0.1132
  441MOL0     O59436   8.377   4.976   6.518 -0.1235  0.0129  0.0526
  441MOL0     C59437   8.522   4.953   6.546 -0.4511 -0.9634 -0.5936
  441MOL0     C59438   8.539   4.958   6.697  0.3038 -0.8018 -0.0367
  441MOL0     C59439   8.665   4.897   6.759 -1.0615 -0.1922 -0.5229
  441MOL0     C59440   8.667   4.884   6.912  0.4565 -0.6595  0.5364
  441MOL0     C59441   8.783   4.810   6.964 -0.5779  0.2084 -0.7385
  441MOL0     C59442   8.915   4.870   6.929  0.2462 -1.2958  0.1236
  441MOL0     C59443   9.035   4.820   7.009 -0.5157 -0.2554 -0.2134
  441MOL0     C59444   9.151   4.917   7.003  0.3891 -0.2133  0.3239
  441MOL0    Cl59445   9.205   4.929   6.829 -0.0461  0.0029  0.2168
  441MOL0     C59446   8.299   4.746   6.580 -1.5923  0.3220  0.3686
  441MOL0     C59447   8.198   4.647   6.563  0.5626 -0.3947 -0.4590
  441MOL0     O59448   7.907   4.638   6.742 -0.0333  0.3510  0.1933
  441MOL0     C59449   7.855   4.332   6.613  0.2289  0.2108  0.1894
  441MOL0     C59450   7.772   4.221   6.614 -0.0290  0.3338  0.4751
  441MOL0     N59451   7.613   3.535   6.860  0.3549  0.6593 -0.3579
  441MOL0     N59452   7.616   3.512   6.992 -0.0124  0.0185  0.0970
  441MOL0     C59453   6.816   3.159   7.791  0.2202  0.0855 -0.4836
  441MOL0     C59454   6.703   3.075   7.783 -0.1205  0.4699  0.5624
  441MOL0     C59455   6.276   2.911   7.889 -0.3807 -0.4687  0.2849
  441MOL0     C59456   6.271   2.831   7.774 -0.1216 -0.2162 -0.3757
  441MOL0     C59457   6.190   2.712   7.759 -0.3121 -0.3499 -0.3357
  441MOL0     C59458   6.111   2.673   7.874 -0.0049 -0.2237 -0.1760
  441MOL0     O59459   6.026   2.577   7.869 -0.3103  1.5610  0.0565
  441MOL0     C59460   6.081   2.460   7.800 -0.2008 -1.0677 -0.4266
  441MOL0     C59461   5.987   2.348   7.830  0.4303  0.8089  0.5650
  441MOL0     C59462   5.972   2.328   7.977 -0.0263  0.5198 -0.3654
  441MOL0     C59463   5.859   2.234   8.004  0.0617 -0.5488 -0.8112
  441MOL0     C59464   5.723   2.287   7.985 -0.7107 -0.8371  0.7533
  441MOL0     C59465   5.604   2.324   7.963 -0.0012  0.2220  0.4494
  441MOL0     C59466   6.110   2.761   7.978 -0.2144 -0.6413 -0.4226
  441MOL0     C59467   6.189   2.880   7.993  0.3332 -0.1978  0.5978
  441MOL0     H59468   6.459   3.306   7.850 -0.7837 -1.2288  1.8279
  441MOL0     H59469   6.669   3.448   7.880 -0.5987 -0.3100  1.4128
  441MOL0     H59470   7.059   3.313   7.941 -3.0435 -4.1152  0.8922
  441MOL0     H59471   7.059   3.241   7.786 -1.5247 -0.5710  1.0245
  441MOL0     H59472   7.096   3.551   7.836  2.7406  1.4072  1.1152
  441MOL0     H59473   7.228   3.430   7.825  0.4789 -1.2706 -1.6155
  441MOL0     H59474   7.040   3.499   7.588 -0.4332 -0.0200  0.5243
  441MOL0     H59475   7.202   3.569   7.621  0.5266 -1.4169 -1.7834
  441MOL0     H59476   7.285   3.329   7.625 -1.0179 -1.2397  2.2964
  441MOL0     H59477   7.126   3.273   7.574 -2.2623  2.0041 -2.9598
  441MOL0     H59478   7.262   3.290   7.361  3.0608  1.2233 -0.8068
  441MOL0     H59479   7.133   3.429   7.366 -2.3360  0.0517  3.4845
  441MOL0     H59480   7.344   3.553   7.445  3.5181 -1.3134  2.4353
  441MOL0     H59481   7.433   3.416   7.423 -0.3298 -1.7277  0.1248
  441MOL0     H59482   7.389   3.377   7.189  0.7764 -0.6264  0.7412
  441MOL0     H59483   7.277   3.520   7.181  0.8665  0.9178 -0.7648
  441MOL0     H59484   7.576   3.537   7.235 -0.4425 -4.6659 -2.6540
  441MOL0     H59485   7.450   3.669   7.221  0.5735 -0.0175 -1.3375
  441MOL0     H59486   7.331   3.665   6.973  0.4089  0.0411 -2.0036
  441MOL0     H59487   7.425   3.554   6.634 -3.3726  2.5042 -3.1605
  441MOL0     H59488   7.336   3.690   6.694  0.8915  0.3280  0.6917
  441MOL0     H59489   7.529   3.720   6.519  2.4902  0.7136 -0.3747
  441MOL0     H59490   7.631   3.732   6.654  1.3139  0.5369 -1.9495
  441MOL0     H59491   7.457   3.904   6.753  1.3228  0.7213 -0.7517
  441MOL0     H59492   7.406   3.919   6.581 -0.2958  1.4319  0.7870
  441MOL0     H59493   7.638   3.988   6.542  1.1330 -0.7783  0.6072
  441MOL0     H59494   7.667   3.971   6.726  1.0694  3.3076 -0.4144
  441MOL0     H59495   7.489   4.371   6.721  0.2076 -0.5374  2.0586
  441MOL0     H59496   7.495   4.584   6.707 -0.3547 -1.7659  0.5668
  441MOL0     H59497   7.650   4.635   6.798 -1.6762 -1.2130  1.4598
  441MOL0     H59498   7.630   4.667   6.628  1.9608 -1.9260  0.5058
  441MOL0     H59499   7.947   4.855   6.474 -0.1471 -0.7490  2.0710
  441MOL0     H59500   8.139   5.021   6.476 -4.1752 -2.2640 -2.0756
  441MOL0     H59501   8.549   4.852   6.516  1.8405 -0.6189  0.1720
  441MOL0     H59502   8.585   5.024   6.491 -1.7292 -0.5366 -1.5727
  441MOL0     H59503   8.534   5.060   6.736  3.1356 -0.8911  0.8124
  441MOL0     H59504   8.453   4.902   6.737 -0.3688 -0.2403 -0.6829
  441MOL0     H59505   8.750   4.936   6.703 -0.8115 -2.3729 -1.7538
  441MOL0     H59506   8.681   4.799   6.714  0.4188  0.5930 -1.8016
  441MOL0     H59507   8.666   4.987   6.951 -2.8199  0.4218 -1.9357
  441MOL0     H59508   8.582   4.828   6.952 -0.9080  2.4254  2.3697
  441MOL0     H59509   8.793   4.706   6.932 -0.5626  0.0791 -0.3284
  441MOL0     H59510   8.765   4.800   7.072  2.8416 -0.4368 -0.1113
  441MOL0     H59511   8.931   4.845   6.824 -0.0376 -2.0225  0.2465
  441MOL0     H59512   8.911   4.979   6.936  2.0466 -1.0649 -1.5562
  441MOL0     H59513   9.060   4.717   6.980 -4.3719 -1.2627 -0.6151
  441MOL0     H59514   9.003   4.817   7.114 -0.7544 -1.1066 -0.3010
  441MOL0     H59515   9.239   4.892   7.062  3.1703  2.4393 -2.3232
  441MOL0     H59516   9.115   5.016   7.034  3.1404  0.9913 -0.0043
  441MOL0     H59517   8.401   4.722   6.608 -1.0150  0.3101 -1.5832
  441MOL0     H59518   8.223   4.544   6.586 -0.8016 -0.6234  0.1191
  441MOL0     H59519   7.959   4.315   6.588 -0.5245 -1.1574 -2.4031
  441MOL0     H59520   7.817   4.128   6.582  2.2170  1.4959  0.0574
  441MOL0     H59521   6.915   3.115   7.783  0.9228  1.5504 -0.3857
  441MOL0     H59522   6.721   2.973   7.752  2.8077  0.9199  0.4808
  441MOL0     H59523   6.325   2.859   7.684 -0.8136  1.1513 -0.3882
  441MOL0     H59524   6.199   2.664   7.662  1.3711  1.0485 -0.9289
  441MOL0     H59525   6.101   2.478   7.694  1.9663 -0.3357  0.0591
  441MOL0     H59526   6.185   2.443   7.831 -0.5363 -4.9570 -0.8832
  441MOL0     H59527   6.038   2.263   7.785 -1.0024  0.9982 -1.6040
  441MOL0     H59528   5.894   2.358   7.773  0.0391  0.8535  1.1963
  441MOL0     H59529   5.956   2.421   8.032  0.4964  1.1698 -1.2826
  441MOL0     H59530   6.066   2.285   8.014  0.0533  2.1173  1.4519
  441MOL0     H59531   5.867   2.201   8.108 -1.3538  1.0993 -0.1340
  441MOL0     H59532   5.875   2.155   7.929 -3.8395 -0.9495 -1.4683
  441MOL0     H59533   5.509   2.374   7.950 -0.3302 -0.9355 -2.2109
  441MOL0     H59534   6.046   2.731   8.061 -2.4197 -2.2057 -2.5501
  441MOL0     H59535   6.187   2.935   8.086  0.7656 -2.6181  2.1401
  442MOL0     O59536   9.860   4.549  10.286 -0.3235 -0.3466  0.4374
  442MOL0     C59537   9.914   4.448  10.228  0.0049  0.4715  0.4225
  442MOL0     O59538  10.031   4.382  10.269 -0.6375  0.0191  0.5231
  442MOL0     C59539  10.101   4.431  10.379 -0.1907 -0.0658  0.7681
  442MOL0     C59540  10.120   4.359  10.493  0.2866 -0.5483 -0.1034
  442MOL0     C59541  10.203   4.400  10.599  0.4867 -0.3508 -0.3998
  442MOL0     C59542  10.255   4.532  10.598  0.2847  0.2892 -0.7135
  442MOL0     O59543  10.329   4.585  10.699 -0.6866 -0.7352  0.0105
  442MOL0     C59544  10.401   4.499  10.785 -0.4501 -0.1480 -0.0642
  442MOL0     C59545  10.527   4.564  10.832  0.2710  0.3021  0.1040
  442MOL0     C59546  10.611   4.607  10.711 -0.0453 -1.1088  0.2516
  442MOL0     C59547  10.580   4.758  10.680  0.3500 -0.3865 -0.6987
  442MOL0     C59548  10.669   4.834  10.587 -0.1482 -0.3129  0.7954
  442MOL0     C59549  10.694   4.796  10.442  0.9206 -0.4959  0.1312
  442MOL0     C59550  10.560   4.802  10.360  0.3200 -0.0289 -0.9377
  442MOL0     C59551  10.556   4.854  10.214 -0.3250 -0.1349  0.4932
  442MOL0     N59552  10.416   4.877  10.178  0.1148  0.3600  0.2505
  442MOL0     C59553  10.331   4.971  10.230  0.5186 -0.0413  0.4522
  442MOL0     C59554  10.206   4.917  10.189 -0.3826 -1.0595  1.2089
  442MOL0     C59555  10.085   4.996  10.196  0.1808  0.0141 -0.8884
  442MOL0     C59556  10.051   5.040  10.336 -0.4248 -0.0059  0.8191
  442MOL0     C59557  10.007   4.919  10.423 -0.1122 -0.6547  0.4062
  442MOL0     C59558   9.895   4.837  10.371  0.0364 -0.2638  0.3073
  442MOL0     O59559   9.779   4.926  10.367 -0.1547  0.0616  0.1141
  442MOL0     C59560   9.675   4.875  10.287 -0.8100 -0.3935 -0.0537
  442MOL0     C59561   9.634   4.957  10.185 -0.1817 -0.0919 -0.0494
  442MOL0     C59562   9.541   4.921  10.089 -1.2400 -0.0022  0.3283
  442MOL0     C59563   9.520   5.021   9.974  0.4272  0.1423  0.2481
  442MOL0     C59564   9.497   4.780  10.079  0.3939  0.2842 -0.2590
  442MOL0     C59565   9.415   4.726   9.970  0.4996  0.4484 -0.5833
  442MOL0     O59566   9.405   4.594   9.973  0.0602  0.1883 -0.6001
  442MOL0     C59567   9.321   4.521   9.897  0.1727  0.7262  1.1493
  442MOL0     C59568   9.231   4.439   9.956  0.1644 -0.4364 -0.6849
  442MOL0     C59569   9.150   4.355   9.881  0.2816 -0.0148 -0.0471
  442MOL0     C59570   9.166   4.334   9.746  0.3582  0.2147 -0.9372
  442MOL0     O59571   9.083   4.241   9.692  0.4861  0.0590 -0.1718
  442MOL0     C59572   9.093   4.204   9.545 -0.1555  0.1022 -0.7013
  442MOL0     C59573   8.979   4.103   9.518 -0.1990  0.2299 -0.0998
  442MOL0     C59574   8.988   4.017   9.388 -0.6059  0.3231  0.3483
  442MOL0     C59575   8.980   4.109   9.266 -0.0950  0.5539 -0.1864
  442MOL0     C59576   9.010   4.033   9.133 -0.2449 -0.3166 -0.3407
  442MOL0     C59577   8.907   3.935   9.082 -0.7775 -0.4779 -0.2301
  442MOL0     C59578   8.772   3.992   9.046 -0.8090  0.0112  0.3230
  442MOL0     C59579   8.690   3.900   8.957  0.6851  0.1539  1.4205
  442MOL0    Cl59580   8.583   4.005   8.853 -0.0198  0.6590 -0.1483
  442MOL0     C59581   9.270   4.408   9.680  0.7486  0.0397 -0.1657
  442MOL0     C59582   9.337   4.501   9.753 -0.1419  0.1769 -0.7873
  442MOL0     O59583   9.370   4.792   9.877  0.2398 -0.6385  0.4000
  442MOL0     C59584   9.533   4.703  10.190  0.7126  0.8724 -0.2928
  442MOL0     C59585   9.621   4.747  10.297  0.4506 -0.3942  0.0651
  442MOL0     N59586  10.218   4.799  10.128 -0.0064  0.2702 -0.0450
  442MOL0     N59587  10.340   4.773  10.121  0.4589  0.5707  0.0132
  442MOL0     C59588  10.235   4.606  10.483  0.3228  0.4226  0.2383
  442MOL0     C59589  10.145   4.560  10.376 -0.3904  0.3997  0.5719
  442MOL0     C59590   9.840   4.408  10.103  0.0876 -0.0827  0.2914
  442MOL0     C59591   9.805   4.510  10.010  0.4978 -0.0072 -0.1652
  442MOL0     C59592   9.748   4.480   9.885  0.6518  0.0663 -0.3034
  442MOL0     C59593   9.726   4.344   9.851 -0.5648  0.1851  0.3104
  442MOL0     O59594   9.665   4.308   9.731 -0.3747 -0.7803 -0.6547
  442MOL0     C59595   9.576   4.198   9.720 -0.1585 -0.5886 -0.6617
  442MOL0     C59596   9.506   4.190   9.585 -0.1249 -0.2217  0.3712
  442MOL0     C59597   9.586   4.133   9.473 -0.7308  2.1294  0.4116
  442MOL0     C59598   9.490   4.103   9.353 -0.5086  0.3068 -0.3692
  442MOL0     C59599   9.446   3.967   9.352  0.6858 -0.0514  0.0949
  442MOL0     C59600   9.423   3.850   9.350 -0.2651 -0.1637 -0.2545
  442MOL0     C59601   9.770   4.241   9.942 -0.1745 -0.4545 -0.1299
  442MOL0     C59602   9.824   4.275  10.070  0.0805 -0.9991  0.3034
  442MOL0     H59603  10.072   4.268  10.529  1.2190  0.5281  4.6288
  442MOL0     H59604  10.223   4.347  10.691 -0.6860 -0.8237 -0.3942
  442MOL0     H59605  10.330   4.476  10.865 -2.6508  1.1623 -1.5330
  442MOL0     H59606  10.439   4.410  10.734  1.4802  1.7165 -2.1105
  442MOL0     H59607  10.511   4.644  10.904  1.4296  0.0672  0.6570
  442MOL0     H59608  10.577   4.484  10.889 -0.2221 -1.1791 -1.4385
  442MOL0     H59609  10.716   4.581  10.730  0.5439  1.6173  1.2230
  442MOL0     H59610  10.581   4.553  10.622 -1.9088  1.6939 -0.9705
  442MOL0     H59611  10.480   4.752  10.635  0.7355  0.4825 -1.6961
  442MOL0     H59612  10.558   4.813  10.772 -2.4175 -1.7535 -0.4045
  442MOL0     H59613  10.633   4.937  10.576 -1.2422 -0.9539 -4.4463
  442MOL0     H59614  10.764   4.841  10.640 -1.0568 -0.4805  2.5230
  442MOL0     H59615  10.763   4.863  10.391  1.7810 -2.3446 -1.2559
  442MOL0     H59616  10.740   4.697  10.446  1.7287 -0.1419 -0.3773
  442MOL0     H59617  10.516   4.702  10.356 -3.5976  1.4870 -1.1385
  442MOL0     H59618  10.505   4.866  10.431 -1.3925 -0.9985 -1.3483
  442MOL0     H59619  10.602   4.775  10.152 -0.9834 -0.3848  0.3129
  442MOL0     H59620  10.618   4.942  10.197 -1.6438  0.5984 -0.6374
  442MOL0     H59621  10.343   5.070  10.272 -1.9469  0.8741 -0.7776
  442MOL0     H59622  10.076   5.083  10.130 -1.5264 -1.2628 -2.4271
  442MOL0     H59623  10.011   4.939  10.141 -1.3841 -0.7489  1.8129
  442MOL0     H59624   9.975   5.117  10.317  2.9572  2.7833 -3.3576
  442MOL0     H59625  10.145   5.086  10.369  1.1502 -0.7527 -2.2724
  442MOL0     H59626   9.988   4.945  10.527 -0.8120 -0.4230  0.2246
  442MOL0     H59627  10.093   4.852  10.425 -0.1111 -0.7044 -0.6140
  442MOL0     H59628   9.875   4.751  10.435 -2.9398 -1.1148 -1.5408
  442MOL0     H59629   9.926   4.791  10.277  1.0285 -2.2679  1.5557
  442MOL0     H59630   9.688   5.051  10.188  3.0394 -1.8046 -0.8880
  442MOL0     H59631   9.414   5.019   9.948  0.5727 -3.2737 -0.5410
  442MOL0     H59632   9.554   5.122   9.998  1.9424 -0.5524  1.2164
  442MOL0     H59633   9.573   4.978   9.888  2.0755 -1.4893  1.9704
  442MOL0     H59634   9.205   4.448  10.061 -0.8034 -0.7250 -0.8891
  442MOL0     H59635   9.075   4.297   9.933  1.8967 -1.9972  0.1586
  442MOL0     H59636   9.094   4.291   9.478 -1.9249  0.8682  0.1865
  442MOL0     H59637   9.181   4.141   9.532 -0.8391 -0.5174 -2.5472
  442MOL0     H59638   8.948   4.039   9.600 -2.6256 -2.4640 -2.8599
  442MOL0     H59639   8.885   4.159   9.509 -1.1086 -0.7268  2.4866
  442MOL0     H59640   8.899   3.955   9.388  1.5190 -2.9848 -0.3493
  442MOL0     H59641   9.071   3.946   9.390  0.0704  1.0950  1.8808
  442MOL0     H59642   8.883   4.156   9.248 -0.0187  0.3557 -1.2103
  442MOL0     H59643   9.046   4.194   9.285 -2.2227  2.3439 -0.3720
  442MOL0     H59644   9.109   3.990   9.150  0.6693  1.1219 -1.7720
  442MOL0     H59645   9.031   4.105   9.054  4.3915 -2.9523 -1.9566
  442MOL0     H59646   8.956   3.884   8.999  0.6821  1.1757 -0.4318
  442MOL0     H59647   8.895   3.866   9.167  1.1346  0.5334  0.9217
  442MOL0     H59648   8.788   4.092   9.004 -2.7433 -0.5009 -1.7652
  442MOL0     H59649   8.714   4.008   9.137 -0.4822 -2.4430  1.0261
  442MOL0     H59650   8.633   3.825   9.014 -0.5155 -1.6641 -1.8711
  442MOL0     H59651   8.761   3.842   8.897  2.2374  0.9106  2.4469
  442MOL0     H59652   9.277   4.389   9.573  3.2125  2.1400 -0.4838
  442MOL0     H59653   9.403   4.548   9.681 -0.4432 -1.0384 -1.8788
  442MOL0     H59654   9.476   4.612  10.202 -1.6918  2.3171 -0.1633
  442MOL0     H59655   9.631   4.685  10.386  0.2361 -0.2572  0.1846
  442MOL0     H59656  10.292   4.697  10.471  0.7640 -0.0161 -1.1560
  442MOL0     H59657  10.137   4.626  10.291 -1.3937 -0.3447  0.0645
  442MOL0     H59658   9.822   4.615  10.033 -0.6704  0.0983  0.2797
  442MOL0     H59659   9.715   4.567   9.830 -0.1069  1.0986  1.6626
  442MOL0     H59660   9.631   4.107   9.747 -3.3222 -2.2324  0.6541
  442MOL0     H59661   9.501   4.196   9.800 -0.4760  1.7413 -0.8277
  442MOL0     H59662   9.492   4.293   9.550  2.9218  0.5527  1.1123
  442MOL0     H59663   9.407   4.145   9.590  0.4156 -1.6347 -0.9899
  442MOL0     H59664   9.631   4.036   9.496 -0.5292  1.1070 -3.6202
  442MOL0     H59665   9.659   4.205   9.436  1.6435 -0.6621 -0.6266
  442MOL0     H59666   9.542   4.120   9.259  0.5170 -0.9002 -0.0295
  442MOL0     H59667   9.412   4.180   9.356  1.2603  2.5224 -4.1283
  442MOL0     H59668   9.415   3.743   9.349  0.9276 -0.2644 -0.9914
  442MOL0     H59669   9.764   4.137   9.915  1.2906 -0.3885 -0.8022
  442MOL0     H59670   9.837   4.192  10.139  0.5023 -0.7092  0.5792
  443MOL0     O59671   7.368   1.495   4.180  0.2424 -0.1687  0.7820
  443MOL0     C59672   7.277   1.582   4.173  1.2381 -0.2132 -0.3831
  443MOL0     O59673   7.140   1.556   4.210 -0.8145 -0.6458  0.2181
  443MOL0     C59674   7.105   1.431   4.191 -1.1023 -0.0083  0.3388
  443MOL0     C59675   7.103   1.369   4.066  0.7667  0.1062  0.7469
  443MOL0     C59676   7.074   1.229   4.066  0.5008 -0.6819 -0.4256
  443MOL0     C59677   6.993   1.168   4.163  0.0582 -0.5285 -0.3342
  443MOL0     O59678   6.960   1.036   4.158 -1.3765  0.2832 -0.0462
  443MOL0     C59679   6.860   1.009   4.065  0.2774 -0.4362 -0.4345
  443MOL0     C59680   6.935   0.936   3.951 -0.7982 -0.1082  0.2722
  443MOL0     C59681   6.989   0.802   4.001 -0.2497  0.4704 -0.0501
  443MOL0     C59682   6.876   0.692   3.990  0.5573 -0.6148 -0.5621
  443MOL0     C59683   6.935   0.556   4.001  0.0229 -0.5176 -0.5975
  443MOL0     C59684   6.832   0.442   3.972  0.1391 -0.3713  0.7002
  443MOL0     C59685   6.747   0.406   4.102  0.1437  0.0921  0.5699
  443MOL0     C59686   6.707   0.256   4.083  1.0461 -1.1835  0.5115
  443MOL0     N59687   6.817   0.164   4.110 -0.8433  0.5886 -0.6300
  443MOL0     C59688   6.878   0.129   4.230 -0.5638  0.4642 -0.5351
  443MOL0     C59689   6.991   0.055   4.204 -0.2910 -0.0145  0.4287
  443MOL0     C59690   7.085  -0.005   4.307 -0.2121 -0.3895  0.0441
  443MOL0     C59691   7.151  -0.130   4.239 -0.0828  0.2857 -0.4699
  443MOL0     C59692   7.049  -0.242   4.230  0.8427 -0.6023  0.4235
  443MOL0     C59693   7.111  -0.376   4.282 -0.7177  0.4424 -0.0897
  443MOL0     O59694   7.152  -0.361   4.417 -0.1410 -0.9881  0.2184
  443MOL0     C59695   7.243  -0.458   4.465  0.2326 -1.1612  0.5490
  443MOL0     C59696   7.228  -0.592   4.431  0.9340  0.2786 -0.5876
  443MOL0     C59697   7.332  -0.680   4.462  0.2963  0.7761 -0.7945
  443MOL0     C59698   7.303  -0.831   4.428 -0.0542  0.3421  0.0520
  443MOL0     C59699   7.447  -0.634   4.533 -0.2558 -0.7795  0.0314
  443MOL0     C59700   7.559  -0.715   4.576 -0.0845 -1.1511 -0.1617
  443MOL0     O59701   7.544  -0.848   4.574  0.4077 -0.3211 -0.2637
  443MOL0     C59702   7.637  -0.951   4.582 -0.3087 -0.1217 -0.8179
  443MOL0     C59703   7.767  -0.939   4.644 -0.2597 -0.0717 -0.1367
  443MOL0     C59704   7.834  -1.064   4.678 -0.1847 -0.4840 -0.5254
  443MOL0     C59705   7.776  -1.187   4.653 -0.5858 -0.8615  0.0382
  443MOL0     O59706   7.832  -1.306   4.685 -0.4513  0.0639 -0.1711
  443MOL0     C59707   7.911  -1.316   4.800  0.7054 -0.2259 -0.9198
  443MOL0     C59708   7.934  -1.454   4.841 -0.6148 -0.7153 -0.2224
  443MOL0     C59709   8.045  -1.468   4.937  0.1271  0.3941  0.4419
  443MOL0     C59710   8.185  -1.476   4.862  1.2302 -0.1307  0.1097
  443MOL0     C59711   8.299  -1.467   4.956 -0.6956  1.2536  0.3261
  443MOL0     C59712   8.328  -1.605   5.026 -0.1633  0.5104 -0.1987
  443MOL0     C59713   8.477  -1.605   5.092 -0.7155  0.3298 -0.0985
  443MOL0     C59714   8.524  -1.750   5.120 -0.3930  0.9194  0.1288
  443MOL0    Cl59715   8.518  -1.853   4.968  0.2565 -0.1028 -0.1413
  443MOL0     C59716   7.649  -1.190   4.592  0.4135 -0.5037  0.8385
  443MOL0     C59717   7.573  -1.074   4.557  0.5474  0.2002 -1.1386
  443MOL0     O59718   7.676  -0.656   4.587  0.6226 -0.1611 -0.1486
  443MOL0     C59719   7.452  -0.509   4.578 -0.3572  0.3496 -0.7731
  443MOL0     C59720   7.350  -0.417   4.546 -0.9236 -0.8504 -0.5132
  443MOL0     N59721   7.014   0.064   4.075 -0.2678  0.4769  1.3130
  443MOL0     N59722   6.912   0.127   4.017  0.1059 -0.5589 -0.5180
  443MOL0     C59723   6.981   1.250   4.280 -0.2398  0.6437 -0.0316
  443MOL0     C59724   7.033   1.375   4.298  0.5687  0.5444  1.1664
  443MOL0     C59725   7.313   1.724   4.148 -0.3484 -0.4158  0.3836
  443MOL0     C59726   7.230   1.829   4.176 -1.0263  0.9753 -0.0573
  443MOL0     C59727   7.261   1.959   4.135 -0.2802 -0.2059 -0.7638
  443MOL0     C59728   7.388   1.996   4.086 -0.2637  0.8694  0.0234
  443MOL0     O59729   7.426   2.128   4.062 -0.1332  0.0429 -0.1623
  443MOL0     C59730   7.558   2.163   4.011 -0.0375  0.2087 -0.0636
  443MOL0     C59731   7.670   2.177   4.106 -0.9710  0.4693  0.0639
  443MOL0     C59732   7.633   2.252   4.232  0.2467  0.5138 -0.3834
  443MOL0     C59733   7.753   2.282   4.322 -0.2494  0.0291 -0.7462
  443MOL0     C59734   7.817   2.156   4.374  0.0094 -0.6093  0.5010
  443MOL0     C59735   7.865   2.059   4.423  0.1947  0.1534  0.4924
  443MOL0     C59736   7.481   1.884   4.064  0.4375 -0.1130  0.2371
  443MOL0     C59737   7.440   1.750   4.090 -0.0332  1.0887 -0.4805
  443MOL0     H59738   7.149   1.406   3.976  2.9008 -1.8630  0.9382
  443MOL0     H59739   7.075   1.178   3.970  4.4210  0.1237 -0.9700
  443MOL0     H59740   6.791   0.939   4.114 -1.8628  1.4691 -0.5933
  443MOL0     H59741   6.803   1.095   4.032 -1.4747 -1.3286  0.1501
  443MOL0     H59742   6.869   0.901   3.870  2.3640 -1.3387 -1.9750
  443MOL0     H59743   7.013   0.998   3.906 -0.3288 -0.4555  0.5931
  443MOL0     H59744   7.076   0.772   3.942 -0.2102 -2.3448  1.2556
  443MOL0     H59745   7.031   0.797   4.102  3.6613 -0.6868 -1.5468
  443MOL0     H59746   6.799   0.699   4.067  0.1516 -1.2142 -0.9061
  443MOL0     H59747   6.828   0.693   3.892  2.5374 -3.5321 -1.6964
  443MOL0     H59748   7.027   0.548   3.943  0.3256 -3.2400  0.1286
  443MOL0     H59749   6.970   0.542   4.103 -2.9401  3.5659  1.2521
  443MOL0     H59750   6.775   0.463   3.881  1.4435 -0.1199 -0.0785
  443MOL0     H59751   6.886   0.355   3.934 -0.3696 -1.2537  1.9110
  443MOL0     H59752   6.802   0.406   4.197  1.3793 -0.8152 -0.1290
  443MOL0     H59753   6.669   0.483   4.100  0.6743  0.7368  2.2691
  443MOL0     H59754   6.658   0.254   3.985  1.9303  1.9690 -0.1085
  443MOL0     H59755   6.639   0.228   4.165 -0.1920 -2.0564 -0.7514
  443MOL0     H59756   6.852   0.166   4.329  1.8034 -0.1884  0.4196
  443MOL0     H59757   7.156   0.072   4.338 -0.4881  0.5887 -1.6150
  443MOL0     H59758   7.039  -0.037   4.401 -0.0309 -1.8621 -0.3497
  443MOL0     H59759   7.244  -0.165   4.283  2.3594 -0.9922 -5.8784
  443MOL0     H59760   7.172  -0.106   4.134 -0.0549 -3.2420 -1.3759
  443MOL0     H59761   7.025  -0.252   4.124  2.3254 -4.7960  0.2847
  443MOL0     H59762   6.965  -0.221   4.296  1.7020  3.3947  0.4761
  443MOL0     H59763   7.204  -0.399   4.228 -0.9094  0.8098 -0.5860
  443MOL0     H59764   7.039  -0.457   4.266 -1.3113  1.3797 -2.7043
  443MOL0     H59765   7.133  -0.621   4.385  0.5116 -0.6088  0.7977
  443MOL0     H59766   7.340  -0.862   4.330  2.0417 -0.5358  1.0608
  443MOL0     H59767   7.340  -0.900   4.504  2.7186 -0.2334 -1.6599
  443MOL0     H59768   7.197  -0.855   4.426 -0.4632  2.0389 -0.4208
  443MOL0     H59769   7.824  -0.848   4.659  2.7481 -1.2828 -3.0326
  443MOL0     H59770   7.937  -1.051   4.712 -0.6225 -3.2735  2.1832
  443MOL0     H59771   8.008  -1.265   4.796  1.0001 -0.7365 -0.4407
  443MOL0     H59772   7.847  -1.261   4.870 -0.6578 -1.2312 -1.3280
  443MOL0     H59773   7.839  -1.498   4.873 -1.6229 -1.2562 -3.5350
  443MOL0     H59774   7.948  -1.516   4.752 -0.7241  0.8368 -1.3620
  443MOL0     H59775   8.035  -1.561   4.993 -0.7241  0.2166  0.0004
  443MOL0     H59776   8.056  -1.385   5.007 -1.4170  1.6581 -0.7420
  443MOL0     H59777   8.187  -1.567   4.802 -1.0987 -0.0364 -0.2130
  443MOL0     H59778   8.200  -1.385   4.802  1.3793  0.3930  0.9286
  443MOL0     H59779   8.287  -1.389   5.031  0.0170  2.1315 -0.4368
  443MOL0     H59780   8.388  -1.443   4.897  0.9369 -4.8915 -0.3552
  443MOL0     H59781   8.249  -1.625   5.099  0.3278 -0.8617 -0.0033
  443MOL0     H59782   8.321  -1.688   4.955  0.4882  0.5895 -0.3594
  443MOL0     H59783   8.466  -1.550   5.186 -0.8071  1.1953 -0.6037
  443MOL0     H59784   8.550  -1.564   5.023 -0.9354  0.2666 -0.3713
  443MOL0     H59785   8.446  -1.788   5.186 -2.4651  0.7016 -2.3215
  443MOL0     H59786   8.620  -1.755   5.173 -1.2489 -0.7344  1.6359
  443MOL0     H59787   7.603  -1.288   4.586 -0.4372 -0.0268 -0.9485
  443MOL0     H59788   7.468  -1.077   4.527 -0.0690 -0.6267  0.9480
  443MOL0     H59789   7.532  -0.472   4.642  0.2110 -2.6333  0.4243
  443MOL0     H59790   7.346  -0.312   4.572  0.6526 -0.6812 -0.8322
  443MOL0     H59791   6.924   1.197   4.356 -0.1324  0.2205 -0.2483
  443MOL0     H59792   7.014   1.434   4.387  2.1326  1.6580  0.8180
  443MOL0     H59793   7.145   1.801   4.237 -0.7105 -1.8640 -0.7876
  443MOL0     H59794   7.196   2.041   4.163 -1.0953 -1.3970  1.0037
  443MOL0     H59795   7.593   2.093   3.935  3.9261 -0.6919  2.3036
  443MOL0     H59796   7.535   2.260   3.965 -3.3833 -0.3519  0.1843
  443MOL0     H59797   7.754   2.217   4.049  0.8033 -0.9405  1.5525
  443MOL0     H59798   7.695   2.075   4.137  1.2642  1.8961  3.6328
  443MOL0     H59799   7.554   2.203   4.289  0.8698  0.2813  0.3119
  443MOL0     H59800   7.589   2.345   4.196  1.2014  1.4281  0.7211
  443MOL0     H59801   7.727   2.357   4.397 -0.8356  0.9226 -1.8033
  443MOL0     H59802   7.830   2.333   4.263  1.5279  0.8191  2.0571
  443MOL0     H59803   7.917   1.977   4.467 -2.1134 -1.6549  0.0285
  443MOL0     H59804   7.581   1.899   4.025  1.2148 -1.7782  1.4883
  443MOL0     H59805   7.506   1.667   4.067 -0.5223 -0.4794  3.1431
  444MOL0     O59806   4.936   1.142   2.842 -0.1952 -0.6713 -0.0094
  444MOL0     C59807   4.827   1.172   2.896  0.5265  0.3335  0.2437
  444MOL0     O59808   4.751   1.282   2.870 -0.1002 -0.8418  0.0361
  444MOL0     C59809   4.819   1.380   2.798 -0.9418  0.8168 -0.2531
  444MOL0     C59810   4.955   1.426   2.823 -0.3063  0.4477  0.2173
  444MOL0     C59811   5.008   1.524   2.742 -1.1160  0.2468  0.1150
  444MOL0     C59812   4.934   1.578   2.636 -0.1821 -0.3579 -0.3758
  444MOL0     O59813   5.004   1.661   2.555  0.6702 -0.4012  0.6283
  444MOL0     C59814   4.946   1.798   2.535  0.3919 -0.6381 -0.4126
  444MOL0     C59815   4.941   1.842   2.386 -0.4528 -0.2096 -0.0972
  444MOL0     C59816   4.867   1.975   2.369 -0.7585 -0.4169  0.5178
  444MOL0     C59817   4.870   2.029   2.230 -0.8812 -1.2741 -0.0232
  444MOL0     C59818   5.008   2.068   2.168 -1.5806 -0.7941  0.0552
  444MOL0     C59819   4.988   2.181   2.062  0.3824  0.2894 -0.3509
  444MOL0     C59820   5.116   2.232   2.002  0.0558 -0.1179  0.6427
  444MOL0     C59821   5.091   2.260   1.852 -0.1860 -0.5008 -0.5299
  444MOL0     N59822   5.119   2.136   1.782  0.3009  0.0374 -0.5431
  444MOL0     C59823   5.231   2.118   1.706  0.4859  0.5647  0.1763
  444MOL0     C59824   5.203   2.003   1.632 -0.4701  0.8372 -0.0823
  444MOL0     C59825   5.280   1.951   1.513  0.5946 -0.0430 -0.1695
  444MOL0     C59826   5.247   1.805   1.475 -0.8978 -0.3416 -0.1252
  444MOL0     C59827   5.220   1.702   1.592  0.0640 -0.1758 -0.3946
  444MOL0     C59828   5.257   1.561   1.540  0.1359  0.8590  0.3342
  444MOL0     O59829   5.402   1.529   1.540 -1.5456  0.5597 -0.3530
  444MOL0     C59830   5.471   1.509   1.663  0.1582 -0.7228  0.3024
  444MOL0     C59831   5.605   1.528   1.660  0.3700 -0.1604 -0.1578
  444MOL0     C59832   5.686   1.531   1.776 -0.2153 -0.3317 -0.4009
  444MOL0     C59833   5.822   1.595   1.753 -0.0544  0.7525 -0.6213
  444MOL0     C59834   5.624   1.504   1.902  0.0600  0.7697  0.2500
  444MOL0     C59835   5.700   1.509   2.023  0.2567 -0.0185  0.2758
  444MOL0     O59836   5.620   1.507   2.142 -0.2404  0.2697  1.1397
  444MOL0     C59837   5.661   1.442   2.262 -0.0664  0.1675 -0.1728
  444MOL0     C59838   5.773   1.487   2.326 -0.3083 -0.4090 -0.5397
  444MOL0     C59839   5.820   1.434   2.451 -0.4329  0.9537  0.2658
  444MOL0     C59840   5.744   1.335   2.512 -0.1610 -0.1351  0.9587
  444MOL0     O59841   5.771   1.272   2.631  0.0557 -0.1602 -0.1450
  444MOL0     C59842   5.898   1.301   2.688 -0.3908 -0.2489  0.2191
  444MOL0     C59843   5.912   1.217   2.815 -0.5445 -0.4888 -0.3959
  444MOL0     C59844   5.911   1.069   2.785 -0.0819 -0.0419  0.0611
  444MOL0     C59845   5.900   0.982   2.912  0.7043  0.1894 -0.4279
  444MOL0     C59846   5.916   0.829   2.892  0.9973  0.0910  0.1371
  444MOL0     C59847   6.018   0.755   2.973 -0.5451 -0.6921  0.0709
  444MOL0     C59848   5.972   0.603   2.980  0.0776 -0.0604  0.0855
  444MOL0     C59849   6.079   0.525   3.051  1.0630  0.4255 -0.4797
  444MOL0    Cl59850   6.008   0.361   3.072 -0.4805  0.0130  0.3633
  444MOL0     C59851   5.636   1.291   2.441  0.0463  0.3124  0.5637
  444MOL0     C59852   5.585   1.348   2.327 -0.5309  0.6913  0.5553
  444MOL0     O59853   5.825   1.500   2.024  0.2289 -0.5578  0.6174
  444MOL0     C59854   5.490   1.471   1.895 -0.6005 -0.7598 -0.2355
  444MOL0     C59855   5.412   1.467   1.781  0.3574  0.2643 -0.3142
  444MOL0     N59856   5.088   1.951   1.681 -0.3545  0.4105 -0.6950
  444MOL0     N59857   5.043   2.028   1.778 -0.5459  0.7729 -0.2323
  444MOL0     C59858   4.811   1.528   2.605  0.0709  0.4166  0.2717
  444MOL0     C59859   4.750   1.431   2.689 -0.1736 -0.2215  0.7760
  444MOL0     C59860   4.775   1.091   3.006 -0.5344  0.1488 -0.6559
  444MOL0     C59861   4.830   0.968   3.034  0.5991 -0.1535  0.0466
  444MOL0     C59862   4.787   0.892   3.145  0.7646  0.3651  0.3598
  444MOL0     C59863   4.695   0.939   3.232  0.0844  0.3636 -0.3503
  444MOL0     O59864   4.644   0.877   3.341  0.1283 -1.6732 -0.0664
  444MOL0     C59865   4.723   0.784   3.408 -0.6534 -0.1389  0.7935
  444MOL0     C59866   4.686   0.774   3.551 -0.4124  0.1487 -0.8933
  444MOL0     C59867   4.757   0.649   3.620 -0.5842 -1.0702  0.0376
  444MOL0     C59868   4.732   0.635   3.769 -0.8257  0.9812 -0.1939
  444MOL0     C59869   4.813   0.537   3.837 -0.7977  0.6150 -0.7914
  444MOL0     C59870   4.883   0.464   3.901  0.3525 -0.2933 -0.1624
  444MOL0     C59871   4.637   1.070   3.206  0.5395  1.0423  0.2137
  444MOL0     C59872   4.678   1.146   3.094 -0.2981  0.7705 -0.1518
  444MOL0     H59873   5.019   1.395   2.906  1.3131  2.8034 -0.0479
  444MOL0     H59874   5.109   1.559   2.760 -1.4386  0.3591  1.9096
  444MOL0     H59875   4.853   1.807   2.591  1.8079 -0.0933  1.9921
  444MOL0     H59876   5.017   1.875   2.568  1.0914  0.1413 -3.4448
  444MOL0     H59877   5.043   1.852   2.347 -1.1343  0.3768 -1.8078
  444MOL0     H59878   4.885   1.767   2.329 -3.7107  0.8243  1.4958
  444MOL0     H59879   4.763   1.967   2.401 -0.6067 -0.1034  1.0999
  444MOL0     H59880   4.918   2.038   2.443  1.2508 -1.7114  0.2992
  444MOL0     H59881   4.821   1.962   2.159  1.8139 -2.6708 -0.6950
  444MOL0     H59882   4.815   2.124   2.234 -2.2927 -1.8520 -3.0518
  444MOL0     H59883   5.070   2.119   2.242 -2.0884 -0.5790  0.3328
  444MOL0     H59884   5.059   1.977   2.135  1.2110  0.5023  0.4717
  444MOL0     H59885   4.923   2.138   1.986 -2.5827 -0.4121  2.3829
  444MOL0     H59886   4.927   2.263   2.101 -0.8428 -1.6901  2.2865
  444MOL0     H59887   5.139   2.320   2.064 -2.3879  1.7237 -0.8819
  444MOL0     H59888   5.192   2.155   2.021 -0.2912  0.0756  3.1546
  444MOL0     H59889   5.159   2.339   1.819 -0.2470 -1.0170 -1.9341
  444MOL0     H59890   4.991   2.300   1.831 -1.8936 -2.2869  3.1992
  444MOL0     H59891   5.317   2.182   1.695  2.2487 -1.9388 -1.4958
  444MOL0     H59892   5.265   2.017   1.427 -2.7282 -0.5297 -0.1005
  444MOL0     H59893   5.388   1.956   1.530 -0.0056  3.0469  4.2393
  444MOL0     H59894   5.328   1.772   1.410 -1.2122 -1.1680 -0.1155
  444MOL0     H59895   5.156   1.811   1.414 -1.7766 -0.0027  1.1596
  444MOL0     H59896   5.115   1.703   1.624  0.4775  0.5286  1.0324
  444MOL0     H59897   5.278   1.718   1.684  2.8423  0.4779 -2.1300
  444MOL0     H59898   5.224   1.538   1.438  2.1442 -1.6924  0.1648
  444MOL0     H59899   5.204   1.485   1.597  2.7436 -3.1698 -2.0723
  444MOL0     H59900   5.635   1.549   1.557  0.1151  3.1509  0.3257
  444MOL0     H59901   5.832   1.682   1.818 -0.8659 -1.8096  3.3092
  444MOL0     H59902   5.885   1.513   1.789 -1.3291 -0.3591 -0.8485
  444MOL0     H59903   5.846   1.616   1.648  1.1854 -0.5420 -0.6293
  444MOL0     H59904   5.834   1.560   2.274 -0.9165  0.2138 -0.3778
  444MOL0     H59905   5.916   1.453   2.499  0.5896 -0.8992 -0.9602
  444MOL0     H59906   5.980   1.277   2.619 -1.0942  0.8030 -1.0365
  444MOL0     H59907   5.903   1.408   2.710  1.9511 -0.4796  1.1278
  444MOL0     H59908   6.008   1.239   2.862 -0.1946  0.3533 -1.4791
  444MOL0     H59909   5.828   1.231   2.884  1.4325  0.3549  1.9989
  444MOL0     H59910   6.009   1.037   2.748  0.5721  1.8262  0.0972
  444MOL0     H59911   5.827   1.047   2.718 -1.5512  1.0634  1.4493
  444MOL0     H59912   5.969   1.016   2.990  0.3094 -2.1919  1.0783
  444MOL0     H59913   5.800   1.005   2.949  1.3080  1.4546  0.5173
  444MOL0     H59914   5.926   0.807   2.785 -1.1070  1.1901 -0.3460
  444MOL0     H59915   5.814   0.795   2.911  0.5800  1.4747  0.5220
  444MOL0     H59916   6.108   0.774   2.913 -0.6058  2.9025  0.9157
  444MOL0     H59917   6.045   0.797   3.070  1.6220 -1.9436  0.0667
  444MOL0     H59918   5.969   0.571   2.875 -0.1460  0.7174 -0.1564
  444MOL0     H59919   5.869   0.592   3.016 -0.3307 -1.6678 -1.4223
  444MOL0     H59920   6.090   0.563   3.153 -1.2305  2.3778 -0.8416
  444MOL0     H59921   6.172   0.527   2.994  0.5381  1.6113 -1.3675
  444MOL0     H59922   5.572   1.215   2.484  0.8754 -2.2588 -2.3932
  444MOL0     H59923   5.493   1.314   2.282  1.1425 -0.0720 -2.6539
  444MOL0     H59924   5.440   1.430   1.982  1.2066 -0.5534  0.9658
  444MOL0     H59925   5.309   1.432   1.790  0.5545 -0.3546 -0.4171
  444MOL0     H59926   4.764   1.567   2.516  0.6780 -1.0779 -0.7431
  444MOL0     H59927   4.647   1.404   2.667 -0.0699  0.2968 -0.4110
  444MOL0     H59928   4.894   0.916   2.963 -1.4683  1.0062 -2.8872
  444MOL0     H59929   4.839   0.800   3.170  1.3227  0.6322  0.2236
  444MOL0     H59930   4.720   0.684   3.362 -2.1663  1.3748 -2.8159
  444MOL0     H59931   4.823   0.827   3.408 -0.9247  0.7191  3.8033
  444MOL0     H59932   4.580   0.772   3.580  0.4665  3.6191  3.6800
  444MOL0     H59933   4.718   0.866   3.601 -1.8718 -1.2386  3.0465
  444MOL0     H59934   4.863   0.672   3.607 -0.7569  0.6374  1.2569
  444MOL0     H59935   4.724   0.554   3.579 -0.7716 -1.2769  0.6476
  444MOL0     H59936   4.627   0.605   3.777 -0.9796  1.8440  1.4567
  444MOL0     H59937   4.739   0.728   3.827 -1.0191 -0.2179  1.8471
  444MOL0     H59938   4.954   0.409   3.959 -0.8194 -1.4907  0.1871
  444MOL0     H59939   4.550   1.098   3.265 -0.2449  0.2105 -0.5062
  444MOL0     H59940   4.620   1.231   3.061 -1.4400  0.4839  1.0012
  445MOL0     O59941   3.060   3.497   8.418  0.0842  0.1846 -0.8329
  445MOL0     C59942   2.994   3.461   8.321  1.4916 -0.0996 -0.8328
  445MOL0     O59943   2.854   3.440   8.334 -0.6543  0.1641 -0.0832
  445MOL0     C59944   2.779   3.409   8.229 -0.2131  0.2368  0.1230
  445MOL0     C59945   2.787   3.289   8.164 -1.1055  1.3494  0.3884
  445MOL0     C59946   2.704   3.246   8.068 -0.1280 -0.6806 -0.7047
  445MOL0     C59947   2.607   3.341   8.019  0.0096  1.4212  1.0062
  445MOL0     O59948   2.510   3.290   7.925  0.3295 -1.0551  0.2617
  445MOL0     C59949   2.458   3.368   7.820  0.0487 -0.0139 -1.1444
  445MOL0     C59950   2.493   3.312   7.684  0.0220 -0.5710 -0.3586
  445MOL0     C59951   2.644   3.305   7.649 -0.8102 -0.6477 -1.1629
  445MOL0     C59952   2.734   3.421   7.691 -0.9714  0.3409  0.4644
  445MOL0     C59953   2.884   3.436   7.639  0.3637  0.2219 -0.2255
  445MOL0     C59954   2.881   3.376   7.500 -0.1544  0.0167 -0.0613
  445MOL0     C59955   3.025   3.385   7.436  0.6889 -0.0170 -0.6320
  445MOL0     C59956   3.023   3.331   7.297 -0.4804 -0.2089  0.4069
  445MOL0     N59957   2.973   3.193   7.289 -0.3148  0.4194  0.3551
  445MOL0     C59958   2.849   3.164   7.253 -0.5572  0.0744  0.2995
  445MOL0     C59959   2.840   3.033   7.248  0.1100  0.0397  0.3552
  445MOL0     C59960   2.737   2.946   7.200 -0.2164  0.1568  0.0685
  445MOL0     C59961   2.613   2.947   7.290  0.6494  1.1959 -0.3156
  445MOL0     C59962   2.642   2.928   7.443  0.0633  0.1452  0.2317
  445MOL0     C59963   2.505   2.933   7.516 -0.4936 -0.5368 -0.1702
  445MOL0     O59964   2.426   3.026   7.459 -0.1408  0.0383  0.5661
  445MOL0     C59965   2.297   3.050   7.498  0.7339  0.6321 -1.3348
  445MOL0     C59966   2.219   3.123   7.408  0.5886 -0.1028 -0.6737
  445MOL0     C59967   2.090   3.157   7.453  0.2252 -0.1189 -0.6398
  445MOL0     C59968   2.021   3.241   7.350 -0.0622  0.4177  0.0286
  445MOL0     C59969   2.053   3.145   7.597 -0.4450 -0.4291  0.6222
  445MOL0     C59970   1.920   3.190   7.638 -0.3360 -0.0508  1.1948
  445MOL0     O59971   1.914   3.277   7.748 -0.2050 -0.2889  0.0099
  445MOL0     C59972   1.799   3.299   7.813  0.7540  0.5960 -0.4637
  445MOL0     C59973   1.778   3.249   7.942  0.0923  0.4469  0.8296
  445MOL0     C59974   1.662   3.288   8.002  0.9224  0.6250 -0.0682
  445MOL0     C59975   1.559   3.350   7.929  0.1019 -0.1559  0.9810
  445MOL0     O59976   1.452   3.379   8.001 -0.8508 -0.5467  0.2350
  445MOL0     C59977   1.388   3.504   7.991  0.1097  0.2983  0.7506
  445MOL0     C59978   1.436   3.597   8.102  0.0349 -0.0902 -0.7154
  445MOL0     C59979   1.430   3.542   8.245 -0.1725 -0.5624 -0.9599
  445MOL0     C59980   1.481   3.647   8.351  0.8275 -0.9353 -0.1105
  445MOL0     C59981   1.581   3.577   8.444 -0.2752 -0.4412 -0.1816
  445MOL0     C59982   1.629   3.680   8.543  0.1339 -0.3469 -0.4409
  445MOL0     C59983   1.701   3.617   8.667  0.6773 -1.1443  0.2686
  445MOL0     C59984   1.739   3.728   8.769 -0.4110  0.0604 -0.1617
  445MOL0    Cl59985   1.843   3.685   8.900 -0.0381 -0.1219 -0.4121
  445MOL0     C59986   1.566   3.384   7.794 -0.0883  0.1111  0.8336
  445MOL0     C59987   1.696   3.359   7.746  0.0484 -0.7552  0.6105
  445MOL0     O59988   1.826   3.129   7.590  0.1763 -0.1253  0.1235
  445MOL0     C59989   2.130   3.064   7.671  0.3899  0.7103 -0.7570
  445MOL0     C59990   2.250   3.014   7.624 -0.0453  0.5973 -0.2516
  445MOL0     N59991   2.960   2.984   7.287  0.0942 -0.2199  0.9480
  445MOL0     N59992   3.041   3.079   7.314 -0.0716 -0.4515 -0.5333
  445MOL0     C59993   2.587   3.459   8.073 -0.5107 -1.0832 -1.3499
  445MOL0     C59994   2.676   3.502   8.185 -0.6253  0.8129  0.0286
  445MOL0     C59995   3.057   3.459   8.193  0.8878  0.0385  0.1522
  445MOL0     C59996   3.163   3.376   8.170 -0.4527 -0.0895 -0.1190
  445MOL0     C59997   3.226   3.364   8.043 -0.6020  0.9432 -0.0264
  445MOL0     C59998   3.192   3.446   7.939  0.1340 -0.3389  0.4120
  445MOL0     O59999   3.243   3.417   7.813  0.0658 -0.1391  0.3030
  445MOL0     C60000   3.260   3.537   7.733 -0.4524 -0.5870  0.0205
  445MOL0     C60001   3.392   3.525   7.669  0.4154  0.5350 -0.2218
  445MOL0     C60002   3.514   3.524   7.773 -0.1734 -0.2871  0.1687
  445MOL0     C60003   3.544   3.391   7.837  0.1898 -0.3304  0.0316
  445MOL0     C60004   3.688   3.378   7.885  0.2027  0.0570 -0.8766
  445MOL0     C60005   3.798   3.340   7.932 -0.2111  0.6589  0.5299
  445MOL0     C60006   3.080   3.541   7.967  0.3135  0.3345 -0.1170
  445MOL0     C60007   3.020   3.557   8.092 -0.5883  0.5214 -0.0715
  445MOL0     H60008   2.856   3.214   8.202 -0.4877  0.6898 -1.9183
  445MOL0     H60009   2.704   3.156   8.008  4.6237  0.5031 -2.9574
  445MOL0     H60010   2.351   3.373   7.839  0.3208 -4.0588  3.2517
  445MOL0     H60011   2.496   3.470   7.824 -0.1651  0.1579 -2.8460
  445MOL0     H60012   2.445   3.214   7.687 -1.1380 -0.0827 -1.7087
  445MOL0     H60013   2.448   3.371   7.604  2.6363  2.2211  0.0325
  445MOL0     H60014   2.692   3.224   7.704  1.3339  0.9124 -0.5880
  445MOL0     H60015   2.645   3.294   7.541 -0.5118  0.2793 -1.2610
  445MOL0     H60016   2.688   3.514   7.656 -1.4715 -1.2863 -3.8142
  445MOL0     H60017   2.742   3.431   7.799  0.9754  0.2208  0.3749
  445MOL0     H60018   2.934   3.533   7.638 -0.4897  0.6940  0.8216
  445MOL0     H60019   2.949   3.374   7.702  1.7636  0.9483 -0.9160
  445MOL0     H60020   2.855   3.271   7.515 -3.0363  0.5204 -0.8346
  445MOL0     H60021   2.816   3.435   7.435  1.1566 -1.7986 -3.2568
  445MOL0     H60022   3.041   3.493   7.434 -1.4152  0.3426 -0.1153
  445MOL0     H60023   3.100   3.333   7.497  0.7494  0.6699 -0.1056
  445MOL0     H60024   3.128   3.337   7.268 -1.0399  3.4556 -1.4377
  445MOL0     H60025   2.966   3.392   7.227 -1.4886  0.3761  1.6879
  445MOL0     H60026   2.780   3.230   7.203 -1.1574 -0.0390  0.9690
  445MOL0     H60027   2.712   2.979   7.099  2.8207  0.7064 -0.6000
  445MOL0     H60028   2.771   2.842   7.194 -1.1929 -0.1289 -0.8706
  445MOL0     H60029   2.546   2.866   7.260  0.4175  1.7663 -1.4151
  445MOL0     H60030   2.568   3.046   7.276  2.4014  2.1126  0.3467
  445MOL0     H60031   2.695   3.020   7.472 -1.9435  0.7656  2.2299
  445MOL0     H60032   2.707   2.841   7.455  1.3470  0.8436 -1.3428
  445MOL0     H60033   2.528   2.972   7.615  2.6263 -1.6820 -0.3229
  445MOL0     H60034   2.454   2.838   7.535 -0.5059 -0.1229  2.0797
  445MOL0     H60035   2.254   3.147   7.308 -0.5778  3.3336 -0.3978
  445MOL0     H60036   2.094   3.304   7.298  2.9252 -2.4783  0.4120
  445MOL0     H60037   1.981   3.164   7.284 -0.0217 -0.9557  1.5475
  445MOL0     H60038   1.937   3.296   7.393 -0.5364 -0.0278 -0.3168
  445MOL0     H60039   1.861   3.204   7.995 -0.6792 -2.6645 -0.3520
  445MOL0     H60040   1.649   3.260   8.106  0.5026  1.3492  0.0802
  445MOL0     H60041   1.404   3.540   7.889  0.0427 -1.8870 -0.0805
  445MOL0     H60042   1.282   3.478   8.002 -0.0741 -1.3577 -3.0172
  445MOL0     H60043   1.540   3.623   8.080 -0.5568  1.4453 -1.9479
  445MOL0     H60044   1.381   3.690   8.083 -0.4223 -0.7394 -2.8833
  445MOL0     H60045   1.477   3.445   8.262 -3.1837 -2.0494 -0.5155
  445MOL0     H60046   1.324   3.524   8.267 -0.1921  0.0794 -0.5177
  445MOL0     H60047   1.545   3.714   8.294 -2.0122  1.3034 -0.9069
  445MOL0     H60048   1.400   3.709   8.392  0.6300  0.7984 -2.8721
  445MOL0     H60049   1.669   3.540   8.391  1.4703  0.5862  1.8722
  445MOL0     H60050   1.523   3.497   8.492  0.2545 -0.3913  0.5534
  445MOL0     H60051   1.710   3.747   8.512  1.3708 -0.5874  2.0294
  445MOL0     H60052   1.549   3.745   8.577  0.6531 -0.5335  1.2615
  445MOL0     H60053   1.791   3.566   8.630  2.4535 -0.4318  3.2605
  445MOL0     H60054   1.632   3.553   8.723 -0.3636 -0.1012  0.1844
  445MOL0     H60055   1.649   3.776   8.809  0.3239  1.7401 -0.4491
  445MOL0     H60056   1.790   3.814   8.726 -1.4073  0.5224 -0.4614
  445MOL0     H60057   1.478   3.415   7.739 -1.6829 -3.6763  0.9408
  445MOL0     H60058   1.726   3.396   7.649  0.1663 -0.2878  0.8253
  445MOL0     H60059   2.093   3.044   7.771  0.7068  0.4474 -0.6924
  445MOL0     H60060   2.311   2.956   7.693 -1.1283 -0.9818 -0.5539
  445MOL0     H60061   2.514   3.532   8.040  1.7029  3.0721  1.8408
  445MOL0     H60062   2.665   3.602   8.226 -0.8119  1.6192 -1.8373
  445MOL0     H60063   3.192   3.320   8.258 -0.5337  1.0509  0.6655
  445MOL0     H60064   3.305   3.290   8.031  0.3221  2.0800 -1.2462
  445MOL0     H60065   3.193   3.535   7.646 -1.2372  1.4556  0.5206
  445MOL0     H60066   3.245   3.632   7.785 -1.5352 -0.4044 -0.5937
  445MOL0     H60067   3.411   3.612   7.606 -0.2952  0.7175 -0.1929
  445MOL0     H60068   3.392   3.436   7.606  1.5917 -0.1480  0.6943
  445MOL0     H60069   3.506   3.607   7.843 -2.7347 -0.0199 -0.3243
  445MOL0     H60070   3.603   3.543   7.712 -1.3505 -0.5277 -1.7335
  445MOL0     H60071   3.523   3.320   7.756  0.4805  0.4408 -0.7309
  445MOL0     H60072   3.489   3.374   7.929  2.2685  2.0922  1.8559
  445MOL0     H60073   3.888   3.301   7.974 -1.1310 -1.4540  0.6950
  445MOL0     H60074   3.042   3.607   7.889 -0.0721 -0.7598 -0.8778
  445MOL0     H60075   2.954   3.638   8.123  1.0357  2.5915 -1.7676
  446MOL0     O60076  10.792  11.347   2.937  0.0354 -0.0608 -0.0665
  446MOL0     C60077  10.732  11.395   3.033  0.6276 -0.4791  0.1899
  446MOL0     O60078  10.768  11.367   3.162 -0.1919 -0.8723 -1.0524
  446MOL0     C60079  10.855  11.264   3.197  0.2239  1.3303 -0.2727
  446MOL0     C60080  10.921  11.281   3.318 -0.9884  0.6296  0.0817
  446MOL0     C60081  11.000  11.181   3.360 -0.1339  0.3054 -0.1653
  446MOL0     C60082  11.036  11.065   3.280  0.3502 -0.8560  0.0125
  446MOL0     O60083  11.136  10.996   3.339 -0.1690  0.1556 -0.1685
  446MOL0     C60084  11.160  10.860   3.306 -0.0937 -0.0912  0.9976
  446MOL0     C60085  11.260  10.790   3.400  0.6130 -0.8039  0.3245
  446MOL0     C60086  11.203  10.735   3.521 -0.1503  0.8915 -0.4173
  446MOL0     C60087  11.293  10.724   3.644  1.0953 -0.3850  0.3597
  446MOL0     C60088  11.324  10.860   3.709 -0.8835 -0.3738 -0.3040
  446MOL0     C60089  11.386  10.840   3.845 -1.1273 -1.1336  0.3269
  446MOL0     C60090  11.390  10.968   3.931 -0.6435 -0.2646 -0.3517
  446MOL0     C60091  11.448  11.098   3.876  0.6141  0.0341 -0.1043
  446MOL0     N60092  11.460  11.189   3.991 -0.4081  0.5111 -0.1711
  446MOL0     C60093  11.379  11.301   4.013 -0.1515 -0.3670  0.4141
  446MOL0     C60094  11.415  11.330   4.141  0.0163  0.6106 -0.2387
  446MOL0     C60095  11.349  11.428   4.228  0.6889  0.2479  0.4370
  446MOL0     C60096  11.369  11.573   4.180 -1.0032 -0.0752  0.3449
  446MOL0     C60097  11.326  11.675   4.295  0.2461  0.8798  0.5595
  446MOL0     C60098  11.420  11.683   4.415  0.0801  0.2088 -0.5241
  446MOL0     O60099  11.358  11.748   4.531 -0.5266 -0.1796 -0.2125
  446MOL0     C60100  11.427  11.750   4.643 -0.3571 -0.4512  0.4583
  446MOL0     C60101  11.533  11.673   4.682 -0.7931  0.7160 -1.2526
  446MOL0     C60102  11.583  11.674   4.819  0.1444 -0.2114  0.8496
  446MOL0     C60103  11.700  11.594   4.851  0.2299 -0.2343 -0.2684
  446MOL0     C60104  11.522  11.772   4.901  0.2731 -0.4854 -0.2917
  446MOL0     C60105  11.552  11.777   5.050 -0.0124 -0.5097 -0.2003
  446MOL0     O60106  11.553  11.900   5.107  0.3259  0.1573  0.4802
  446MOL0     C60107  11.529  11.907   5.240  0.0084 -0.3137 -0.8248
  446MOL0     C60108  11.623  11.866   5.341 -0.3729  0.1826  0.5978
  446MOL0     C60109  11.583  11.878   5.476  0.2620  0.3940 -0.4834
  446MOL0     C60110  11.460  11.934   5.520  0.1337 -0.7464  0.6686
  446MOL0     O60111  11.420  11.952   5.648 -0.4204 -0.6354 -0.0746
  446MOL0     C60112  11.470  11.850   5.737 -0.8309  0.7366  0.8854
  446MOL0     C60113  11.392  11.846   5.869  0.6060  0.2481  0.1780
  446MOL0     C60114  11.470  11.798   5.990 -0.1711  0.4058 -0.5292
  446MOL0     C60115  11.539  11.912   6.064  1.0266  0.4414 -0.2535
  446MOL0     C60116  11.574  11.865   6.211  0.6682  0.4607  0.0850
  446MOL0     C60117  11.631  11.980   6.290 -0.6522 -0.2341  0.2615
  446MOL0     C60118  11.654  11.951   6.439 -0.4963 -0.2192 -0.5494
  446MOL0     C60119  11.798  11.990   6.487 -0.0811 -0.5518 -0.6887
  446MOL0    Cl60120  11.912  11.873   6.424  0.4879 -0.4995  0.3935
  446MOL0     C60121  11.374  11.989   5.417  0.7097  0.3011 -0.2807
  446MOL0     C60122  11.406  11.971   5.282 -0.9109  0.1714  0.1358
  446MOL0     O60123  11.560  11.676   5.116 -0.0051 -0.9153 -0.0718
  446MOL0     C60124  11.421  11.850   4.866 -0.5693  0.1373 -0.0420
  446MOL0     C60125  11.371  11.834   4.736  0.5589 -0.1400  0.4615
  446MOL0     N60126  11.528  11.252   4.181 -0.2758 -0.1851  0.1267
  446MOL0     N60127  11.561  11.178   4.080  0.0993 -1.1585 -0.0127
  446MOL0     C60128  10.975  11.050   3.156  0.0006 -0.2037  0.4162
  446MOL0     C60129  10.877  11.146   3.117 -0.3568  1.2317 -0.2158
  446MOL0     C60130  10.646  11.512   3.010  0.3036 -0.3863 -0.2450
  446MOL0     C60131  10.632  11.563   2.879 -0.3562 -0.2525 -0.4624
  446MOL0     C60132  10.543  11.672   2.864  0.4923  0.2582  1.1008
  446MOL0     C60133  10.488  11.743   2.967  0.1437  0.1713  0.2482
  446MOL0     O60134  10.391  11.829   2.934  0.4983 -0.0927 -0.6158
  446MOL0     C60135  10.270  11.839   3.007  1.1080  0.7733 -0.2188
  446MOL0     C60136  10.273  11.953   3.100 -0.9036  0.6859 -0.7129
  446MOL0     C60137  10.135  12.002   3.157 -0.6132 -0.5241 -0.9066
  446MOL0     C60138  10.141  12.096   3.287  0.9926  1.0373  0.0775
  446MOL0     C60139  10.239  12.200   3.253  0.0189  0.0941 -0.3293
  446MOL0     C60140  10.332  12.277   3.236 -0.1084 -0.2602 -0.1747
  446MOL0     C60141  10.503  11.692   3.092 -0.3991  0.4728  0.0954
  446MOL0     C60142  10.571  11.573   3.113 -0.0240  0.1606 -0.5617
  446MOL0     H60143  10.917  11.370   3.380 -0.1226 -1.8757  4.1153
  446MOL0     H60144  11.052  11.210   3.450  1.9143 -0.2149 -1.1408
  446MOL0     H60145  11.064  10.807   3.309 -0.8386  1.2029  1.0129
  446MOL0     H60146  11.201  10.867   3.205 -0.6212  1.4488  0.8590
  446MOL0     H60147  11.298  10.705   3.343  0.2780  1.0912 -3.0140
  446MOL0     H60148  11.348  10.851   3.422 -0.1174  1.3468 -2.1448
  446MOL0     H60149  11.120  10.800   3.551 -0.7144  1.3897 -2.8849
  446MOL0     H60150  11.174  10.629   3.511  3.1272 -0.3222  1.4563
  446MOL0     H60151  11.244  10.666   3.723 -2.4671  0.2273 -1.2427
  446MOL0     H60152  11.384  10.674   3.611  0.1770 -0.7707 -1.7168
  446MOL0     H60153  11.383  10.923   3.642  0.6546  1.6668  2.7526
  446MOL0     H60154  11.234  10.921   3.720 -0.8162 -0.0658 -1.3477
  446MOL0     H60155  11.341  10.767   3.912  0.6571 -2.5417  0.0862
  446MOL0     H60156  11.490  10.805   3.834  0.6594  2.5101  3.3896
  446MOL0     H60157  11.287  10.998   3.951 -0.6424 -0.2529 -0.3645
  446MOL0     H60158  11.438  10.949   4.027 -0.7596  3.8934  0.7163
  446MOL0     H60159  11.386  11.136   3.794 -2.0893 -1.0203  1.3494
  446MOL0     H60160  11.547  11.074   3.836  0.5731 -0.6526  0.1893
  446MOL0     H60161  11.281  11.330   3.977  0.8884  3.6982  0.3312
  446MOL0     H60162  11.242  11.409   4.232  1.1966 -3.6401 -0.4555
  446MOL0     H60163  11.378  11.405   4.331 -0.1462 -0.4269  0.5370
  446MOL0     H60164  11.305  11.579   4.092 -0.9520 -5.8336 -0.4702
  446MOL0     H60165  11.474  11.599   4.160 -0.6155 -1.6504  0.1550
  446MOL0     H60166  11.228  11.641   4.330  1.5641  0.0023  3.7787
  446MOL0     H60167  11.319  11.782   4.272  2.0143  1.4948  2.5802
  446MOL0     H60168  11.525  11.701   4.388  1.9110 -5.8885  0.9188
  446MOL0     H60169  11.434  11.579   4.445 -1.2072  0.2886  0.4020
  446MOL0     H60170  11.570  11.603   4.608 -1.5204 -2.4718  1.2043
  446MOL0     H60171  11.747  11.565   4.756  3.1381  2.1321  0.2919
  446MOL0     H60172  11.769  11.659   4.905 -1.2849  1.5798 -0.4119
  446MOL0     H60173  11.670  11.505   4.906 -1.2298  0.4046  0.0143
  446MOL0     H60174  11.722  11.833   5.313 -0.5143 -2.1079  2.5403
  446MOL0     H60175  11.648  11.873   5.563 -0.4432  0.5768  0.0632
  446MOL0     H60176  11.467  11.757   5.679 -0.0672  1.3268 -0.1472
  446MOL0     H60177  11.577  11.867   5.756 -0.0786 -0.7412 -1.5495
  446MOL0     H60178  11.347  11.945   5.883  0.4558  0.0966  0.7990
  446MOL0     H60179  11.316  11.768   5.859 -1.2099  2.1702 -2.3478
  446MOL0     H60180  11.543  11.718   5.973 -0.5959  0.0093 -0.5374
  446MOL0     H60181  11.404  11.746   6.060 -0.2166  2.3214  0.9326
  446MOL0     H60182  11.639  11.920   6.021  1.3264  0.1818  0.3857
  446MOL0     H60183  11.477  12.002   6.070  3.3459  2.0840  0.4531
  446MOL0     H60184  11.638  11.776   6.209 -3.1012 -2.4949  1.0319
  446MOL0     H60185  11.486  11.825   6.261  2.1142 -0.8432  1.7078
  446MOL0     H60186  11.724  12.018   6.246 -0.9747  0.6621  0.3287
  446MOL0     H60187  11.566  12.067   6.281 -0.6556 -0.3107 -0.5528
  446MOL0     H60188  11.650  11.844   6.462 -0.7811  0.4478  3.1647
  446MOL0     H60189  11.585  12.003   6.507 -3.1571 -2.4512 -1.3628
  446MOL0     H60190  11.801  11.998   6.596 -2.4265  1.6028 -0.7051
  446MOL0     H60191  11.812  12.091   6.449 -2.3513 -0.5319 -1.6538
  446MOL0     H60192  11.277  12.026   5.450  1.0124 -0.0531  1.0621
  446MOL0     H60193  11.343  11.980   5.194  0.4419 -0.0983 -0.8953
  446MOL0     H60194  11.369  11.919   4.932 -1.2162 -0.5169  0.1519
  446MOL0     H60195  11.288  11.892   4.696  0.8408 -0.4487 -0.6150
  446MOL0     H60196  11.005  10.970   3.089  0.2439 -0.0791  0.3777
  446MOL0     H60197  10.839  11.127   3.017  0.5132  0.6878 -0.4548
  446MOL0     H60198  10.665  11.509   2.790 -1.0761 -0.3831 -0.6558
  446MOL0     H60199  10.518  11.711   2.766 -0.6241  1.7697  1.9440
  446MOL0     H60200  10.183  11.848   2.941  1.2062 -2.1774 -0.8631
  446MOL0     H60201  10.258  11.747   3.064 -1.6438  0.4245 -1.2379
  446MOL0     H60202  10.329  12.028   3.043  0.4687  0.5270  0.3619
  446MOL0     H60203  10.333  11.932   3.189 -2.9419  1.3820  0.9201
  446MOL0     H60204  10.074  11.917   3.187 -0.5344 -0.9489 -1.9355
  446MOL0     H60205  10.086  12.059   3.078 -0.1999  0.2135 -0.6514
  446MOL0     H60206  10.182  12.042   3.373  2.3646 -0.5202 -1.4669
  446MOL0     H60207  10.046  12.137   3.322  1.8905  3.2524  0.0917
  446MOL0     H60208  10.419  12.338   3.223  0.0625 -0.0334  1.7374
  446MOL0     H60209  10.450  11.741   3.173 -1.2757  2.7943 -1.7597
  446MOL0     H60210  10.576  11.533   3.214 -0.4955 -1.2981 -1.0922
  447MOL0     O60211   3.300  10.430   1.128 -0.2186  0.3673 -0.3267
  447MOL0     C60212   3.207  10.481   1.197 -0.9081 -0.2488  0.8739
  447MOL0     O60213   3.122  10.416   1.264 -0.3251  0.4753 -0.6191
  447MOL0     C60214   3.118  10.277   1.253 -0.0299 -1.1470  0.5540
  447MOL0     C60215   3.140  10.209   1.370  0.3155  0.5713 -0.4322
  447MOL0     C60216   3.114  10.070   1.391  0.1306 -0.6495  0.3890
  447MOL0     C60217   3.071   9.999   1.284 -0.2393  0.0216  0.1637
  447MOL0     O60218   3.044   9.876   1.314  0.6175 -0.2997 -0.0898
  447MOL0     C60219   2.967   9.799   1.228  0.1403  0.0712 -1.3867
  447MOL0     C60220   3.044   9.675   1.176 -0.5574 -0.4055  0.3564
  447MOL0     C60221   3.178   9.697   1.106  0.2832 -0.1568 -0.5958
  447MOL0     C60222   3.285   9.656   1.210 -0.3295 -0.5285  0.5215
  447MOL0     C60223   3.421   9.709   1.150 -0.1036 -0.5143 -0.3937
  447MOL0     C60224   3.543   9.676   1.242  0.7485 -0.5413  0.3015
  447MOL0     C60225   3.668   9.755   1.209  0.0360 -0.3960  0.1033
  447MOL0     C60226   3.793   9.713   1.284 -0.6414  0.7152  0.6190
  447MOL0     N60227   3.809   9.783   1.413  0.8548  0.3004 -0.1193
  447MOL0     C60228   3.851   9.909   1.428  0.1523 -0.0369 -1.4459
  447MOL0     C60229   3.841   9.929   1.568 -1.1152 -0.1842  0.4148
  447MOL0     C60230   3.892  10.059   1.616  0.5534  0.6170  0.4832
  447MOL0     C60231   3.793  10.105   1.719  0.2751  0.1124 -0.1394
  447MOL0     C60232   3.829  10.244   1.766 -0.4148 -0.2250 -0.2905
  447MOL0     C60233   3.736  10.296   1.869  0.8511  0.8927 -0.6430
  447MOL0     O60234   3.742  10.429   1.908 -0.0276  0.0377  0.5059
  447MOL0     C60235   3.853  10.478   1.969 -0.4591 -0.3232 -0.2800
  447MOL0     C60236   3.841  10.616   2.009  0.2963  0.1837  1.0516
  447MOL0     C60237   3.942  10.695   2.070 -0.9252  0.2996 -0.3987
  447MOL0     C60238   3.929  10.841   2.109 -0.2273 -0.2075 -0.2378
  447MOL0     C60239   4.063  10.627   2.091 -0.1632  0.6651  0.0356
  447MOL0     C60240   4.188  10.689   2.151  1.0513 -0.4932  0.1225
  447MOL0     O60241   4.244  10.794   2.082  0.1955 -0.0794 -0.3413
  447MOL0     C60242   4.342  10.864   2.154  0.4905 -0.1028  0.4272
  447MOL0     C60243   4.475  10.864   2.117  0.4617  0.0387  0.3485
  447MOL0     C60244   4.572  10.942   2.192 -0.0349 -0.8503 -0.4227
  447MOL0     C60245   4.525  11.024   2.291  0.2635  0.5864  0.1314
  447MOL0     O60246   4.601  11.106   2.376  0.1644 -0.1620  0.5399
  447MOL0     C60247   4.738  11.057   2.400 -0.8088 -0.3234 -0.3611
  447MOL0     C60248   4.783  11.102   2.539  0.1566  0.1599  0.2779
  447MOL0     C60249   4.936  11.070   2.543  0.6194 -0.4384 -1.2585
  447MOL0     C60250   5.005  11.102   2.671 -0.5247  0.2213 -0.1069
  447MOL0     C60251   5.149  11.057   2.662 -0.0994  0.8831  0.1001
  447MOL0     C60252   5.212  11.101   2.801  0.5825  1.3894  0.0510
  447MOL0     C60253   5.256  11.243   2.811  0.3741 -0.0319  0.8987
  447MOL0     C60254   5.361  11.267   2.930 -0.0936 -0.8601  0.3349
  447MOL0    Cl60255   5.440  11.128   3.007  0.0309 -0.0240  0.1454
  447MOL0     C60256   4.390  11.026   2.320 -1.0648  0.0666  0.2792
  447MOL0     C60257   4.297  10.947   2.252 -0.4129 -0.8596  0.2124
  447MOL0     O60258   4.241  10.623   2.243 -0.1073 -0.3324  0.2458
  447MOL0     C60259   4.078  10.488   2.063 -0.5865  0.3514 -0.3426
  447MOL0     C60260   3.969  10.413   2.016  0.1976 -0.6535  0.7008
  447MOL0     N60261   3.788   9.818   1.623  0.0800 -0.6320 -0.1837
  447MOL0     N60262   3.769   9.730   1.533 -0.0274 -0.7800  0.1198
  447MOL0     C60263   3.061  10.064   1.169  0.0348  0.4921 -0.0013
  447MOL0     C60264   3.078  10.204   1.144 -0.2402 -0.3895 -0.2177
  447MOL0     C60265   3.210  10.631   1.213  0.7308  0.0882 -0.8320
  447MOL0     C60266   3.103  10.707   1.253 -0.2225 -0.0484 -0.6237
  447MOL0     C60267   3.115  10.845   1.269 -1.0697 -0.0466 -0.1297
  447MOL0     C60268   3.231  10.909   1.233 -0.4052 -0.6517 -0.0969
  447MOL0     O60269   3.231  11.053   1.245  0.3798  0.1957 -0.3055
  447MOL0     C60270   3.339  11.129   1.205 -0.2629  0.2405  0.0215
  447MOL0     C60271   3.341  11.166   1.053  0.3273  0.0104 -0.5937
  447MOL0     C60272   3.200  11.219   1.010  0.4636 -0.0173  0.7065
  447MOL0     C60273   3.093  11.098   0.980 -0.1414 -0.4113  0.1455
  447MOL0     C60274   2.954  11.145   0.972  1.0069 -0.1455 -0.2922
  447MOL0     C60275   2.837  11.172   0.949 -0.9350 -0.1424 -0.3950
  447MOL0     C60276   3.339  10.836   1.183  0.5427  0.5736  0.5944
  447MOL0     C60277   3.327  10.699   1.173 -0.3604  0.0481 -0.5803
  447MOL0     H60278   3.174  10.253   1.464 -0.9843  0.9595 -0.1354
  447MOL0     H60279   3.118  10.035   1.494 -0.5431  1.4377  1.1892
  447MOL0     H60280   2.881   9.764   1.287  0.1575  0.5914 -1.0498
  447MOL0     H60281   2.919   9.852   1.146  0.6074 -1.6058 -2.7888
  447MOL0     H60282   3.046   9.596   1.251 -3.1633  0.5099  1.4941
  447MOL0     H60283   2.973   9.625   1.109 -2.5009 -1.1493  2.8180
  447MOL0     H60284   3.196   9.650   1.009 -1.2345  0.4039 -1.1851
  447MOL0     H60285   3.195   9.804   1.088 -0.6299  0.0245 -0.4321
  447MOL0     H60286   3.275   9.705   1.308 -1.0824  0.6616 -0.1249
  447MOL0     H60287   3.296   9.548   1.214  1.5629 -0.4115 -0.3245
  447MOL0     H60288   3.433   9.685   1.044 -2.9203 -0.2596 -0.8489
  447MOL0     H60289   3.414   9.818   1.147 -0.0942 -0.5335 -1.5203
  447MOL0     H60290   3.516   9.711   1.343 -2.3530  0.0320 -0.6034
  447MOL0     H60291   3.561   9.568   1.241 -1.5829 -1.0073 -1.7296
  447MOL0     H60292   3.698   9.744   1.105  1.4924 -1.3427  0.5828
  447MOL0     H60293   3.649   9.862   1.221  4.8596  0.4306  3.2448
  447MOL0     H60294   3.886   9.725   1.228  1.6744  0.6093  4.1625
  447MOL0     H60295   3.791   9.606   1.304  2.9547  0.2919 -0.5666
  447MOL0     H60296   3.883   9.983   1.356 -0.9918  2.2052  0.2226
  447MOL0     H60297   3.990  10.055   1.665  0.4924  3.0642  0.9451
  447MOL0     H60298   3.900  10.128   1.532 -0.2836  0.7360  0.4901
  447MOL0     H60299   3.783  10.024   1.792 -0.5256  1.6273  1.5218
  447MOL0     H60300   3.704  10.132   1.663  1.7566  0.9497 -2.2235
  447MOL0     H60301   3.822  10.313   1.682 -0.5678 -0.8806 -0.8256
  447MOL0     H60302   3.930  10.245   1.809 -1.8194  1.9059  3.4679
  447MOL0     H60303   3.746  10.228   1.953  1.3312  1.8006  0.0532
  447MOL0     H60304   3.629  10.279   1.849  1.0340 -2.1557  0.4745
  447MOL0     H60305   3.757  10.667   1.963  1.0174 -0.4136 -1.0375
  447MOL0     H60306   3.969  10.896   2.023  0.1118 -1.0647 -0.6412
  447MOL0     H60307   3.825  10.853   2.139  0.0334 -0.0511  0.6212
  447MOL0     H60308   3.986  10.875   2.196  0.1948  1.0195 -0.9712
  447MOL0     H60309   4.516  10.803   2.036  1.1828 -0.2114  0.8924
  447MOL0     H60310   4.679  10.943   2.170 -0.0033 -1.3609 -0.2896
  447MOL0     H60311   4.727  10.948   2.400  0.8042 -0.6697  3.8220
  447MOL0     H60312   4.798  11.090   2.315 -1.9448  2.5492 -0.1772
  447MOL0     H60313   4.756  11.208   2.547 -1.5131 -0.0441 -1.7624
  447MOL0     H60314   4.734  11.038   2.613 -0.4495  0.8526  0.4890
  447MOL0     H60315   4.991  11.112   2.459  2.1604  1.5777  0.6595
  447MOL0     H60316   4.957  10.963   2.535  3.0710  0.0133 -1.7264
  447MOL0     H60317   4.998  11.206   2.703  0.4048 -0.2728  1.8606
  447MOL0     H60318   4.947  11.048   2.747 -1.2610 -1.0467 -1.5103
  447MOL0     H60319   5.200  11.107   2.579 -0.7959 -1.1495 -1.6245
  447MOL0     H60320   5.166  10.950   2.645  1.2056  1.0211  0.4191
  447MOL0     H60321   5.143  11.074   2.881  2.4268 -0.5174  1.0864
  447MOL0     H60322   5.298  11.036   2.815 -1.6915 -1.4415  2.0127
  447MOL0     H60323   5.176  11.314   2.834  1.2559  1.1913  0.2902
  447MOL0     H60324   5.305  11.259   2.714  1.2998 -2.6482  0.8506
  447MOL0     H60325   5.317  11.330   3.008  2.3545 -0.3460  1.3923
  447MOL0     H60326   5.441  11.328   2.887 -0.3079  1.1047  2.5493
  447MOL0     H60327   4.366  11.103   2.393 -1.9931  0.4285 -0.3897
  447MOL0     H60328   4.190  10.955   2.274 -0.0883  0.5709  1.4845
  447MOL0     H60329   4.168  10.432   2.088  0.1273  0.4548 -2.4333
  447MOL0     H60330   3.970  10.306   1.998  0.0030 -0.4375 -0.6846
  447MOL0     H60331   3.042  10.016   1.073 -0.1584  1.1606 -0.3051
  447MOL0     H60332   3.053  10.262   1.056  0.5924 -0.3161 -0.4116
  447MOL0     H60333   3.006  10.660   1.266  0.0335 -0.4996 -0.3461
  447MOL0     H60334   3.031  10.902   1.306 -1.7918  0.0870 -1.9236
  447MOL0     H60335   3.330  11.224   1.259  2.9837  1.8728 -2.0098
  447MOL0     H60336   3.433  11.085   1.238 -0.7539  0.0642  1.2667
  447MOL0     H60337   3.371  11.075   1.000 -1.5936 -0.3900 -1.0633
  447MOL0     H60338   3.412  11.247   1.037 -1.7080  2.3448  1.3225
  447MOL0     H60339   3.205  11.276   0.917  0.0310 -1.6400 -0.3703
  447MOL0     H60340   3.165  11.277   1.096 -0.3660 -1.0083  1.0702
  447MOL0     H60341   3.101  11.012   1.047  2.5253  1.6902  2.7806
  447MOL0     H60342   3.122  11.067   0.879  2.9524 -3.1720  1.6722
  447MOL0     H60343   2.731  11.190   0.949 -0.7152  1.2610 -0.6952
  447MOL0     H60344   3.428  10.872   1.133 -2.9750  2.4611 -5.3393
  447MOL0     H60345   3.412  10.639   1.142 -0.1148  0.0905  0.0081
  448MOL0     O60346   7.777   0.446   0.708  0.1894  0.4771 -0.4036
  448MOL0     C60347   7.711   0.341   0.684 -0.3408 -0.0021  0.6298
  448MOL0     O60348   7.568   0.339   0.680 -0.2738  0.1597 -0.5130
  448MOL0     C60349   7.501   0.459   0.709 -0.3816 -0.7075 -0.6015
  448MOL0     C60350   7.461   0.476   0.841  0.3288  1.1413  0.8049
  448MOL0     C60351   7.407   0.591   0.895  0.3446 -0.5368  0.6053
  448MOL0     C60352   7.376   0.703   0.809  0.2734  0.2214 -1.0027
  448MOL0     O60353   7.296   0.806   0.861 -0.6682 -0.3897  0.0675
  448MOL0     C60354   7.198   0.866   0.776 -0.9837  0.0719 -0.9009
  448MOL0     C60355   7.166   1.008   0.837  0.0050  0.1513  0.3866
  448MOL0     C60356   7.272   1.115   0.826  0.2180  0.0760  0.1150
  448MOL0     C60357   7.304   1.129   0.675 -0.4687 -0.3115 -0.0014
  448MOL0     C60358   7.445   1.076   0.644 -0.3147 -0.1985  0.6475
  448MOL0     C60359   7.509   1.124   0.512  0.4488  1.2798 -0.2316
  448MOL0     C60360   7.435   1.081   0.395 -0.3678  0.2795  0.1734
  448MOL0     C60361   7.490   1.148   0.268 -0.6111 -0.7808 -1.6235
  448MOL0     N60362   7.621   1.099   0.231  0.1903 -0.1141  0.7919
  448MOL0     C60363   7.651   1.017   0.126  0.0327  0.1741  0.7516
  448MOL0     C60364   7.785   1.037   0.100  0.5841 -0.5532  0.5311
  448MOL0     C60365   7.857   0.970  -0.010  0.2199  0.0284 -0.0249
  448MOL0     C60366   7.978   1.056  -0.056 -0.3556 -0.4632 -0.4300
  448MOL0     C60367   8.038   1.001  -0.187 -0.7035 -0.5432  0.4328
  448MOL0     C60368   8.135   1.101  -0.247  0.6883  0.4022  0.5333
  448MOL0     O60369   8.227   1.161  -0.150 -0.7061 -0.3719  0.0275
  448MOL0     C60370   8.346   1.213  -0.195 -0.0580 -0.9461 -0.1940
  448MOL0     C60371   8.344   1.287  -0.314  0.4491  0.3839 -0.5884
  448MOL0     C60372   8.451   1.363  -0.359  0.0401  0.8074 -0.3646
  448MOL0     C60373   8.421   1.439  -0.489  0.2898  0.2061  0.8913
  448MOL0     C60374   8.576   1.360  -0.284 -0.0777  0.4653 -0.8259
  448MOL0     C60375   8.694   1.444  -0.315  0.2242 -0.1117 -0.7675
  448MOL0     O60376   8.814   1.400  -0.275  0.5200 -0.4030 -0.1152
  448MOL0     C60377   8.927   1.474  -0.289 -0.3090 -1.0854 -0.1711
  448MOL0     C60378   8.937   1.575  -0.206 -0.5077 -1.1508 -0.1647
  448MOL0     C60379   9.049   1.656  -0.213  0.1975 -0.3953  0.2069
  448MOL0     C60380   9.157   1.632  -0.301 -0.1186  0.8827 -0.4606
  448MOL0     O60381   9.257   1.723  -0.297  0.0768  0.3841 -0.3250
  448MOL0     C60382   9.381   1.675  -0.333 -1.1137  0.1639 -0.2759
  448MOL0     C60383   9.481   1.762  -0.263  0.1586  0.0742 -0.4632
  448MOL0     C60384   9.624   1.706  -0.267 -0.3032  0.3399 -0.2990
  448MOL0     C60385   9.739   1.808  -0.211  0.3150  0.0466  0.1777
  448MOL0     C60386   9.716   1.849  -0.065  0.2395  0.0774 -0.5581
  448MOL0     C60387   9.736   1.732   0.034 -0.5230  0.0011 -0.2637
  448MOL0     C60388   9.705   1.769   0.185  0.1399 -0.2305  0.8439
  448MOL0     C60389   9.830   1.763   0.272 -0.3309  0.4655  0.3407
  448MOL0    Cl60390   9.871   1.591   0.319 -0.3287  0.0185 -0.2130
  448MOL0     C60391   9.145   1.521  -0.389  0.2419 -0.3275 -0.0046
  448MOL0     C60392   9.024   1.445  -0.379  0.2657 -0.3203  0.0856
  448MOL0     O60393   8.676   1.549  -0.377  0.9825  0.6565 -1.5428
  448MOL0     C60394   8.586   1.274  -0.170  0.6243 -0.1990 -0.2561
  448MOL0     C60395   8.467   1.211  -0.127 -1.0650  0.0070 -0.1821
  448MOL0     N60396   7.834   1.139   0.186  0.3793  0.0802  0.2020
  448MOL0     N60397   7.733   1.172   0.256  0.6275  0.4556 -0.3465
  448MOL0     C60398   7.430   0.697   0.673 -0.2693  0.6413  0.3600
  448MOL0     C60399   7.494   0.574   0.629 -0.2647 -1.4244 -0.4122
  448MOL0     C60400   7.790   0.217   0.662  0.3374  0.2112 -0.3318
  448MOL0     C60401   7.924   0.206   0.642 -1.1931 -0.2015 -0.7243
  448MOL0     C60402   7.977   0.085   0.596 -0.2162  1.1100 -0.5921
  448MOL0     C60403   7.908  -0.029   0.580 -0.3461 -0.1268 -0.2845
  448MOL0     O60404   7.965  -0.152   0.553  0.4113 -0.1470  0.3192
  448MOL0     C60405   8.028  -0.151   0.427  0.7149  0.1547  0.8648
  448MOL0     C60406   8.063  -0.289   0.354  0.5093 -0.7646  0.3734
  448MOL0     C60407   8.129  -0.264   0.219  0.4876  1.0876 -0.1373
  448MOL0     C60408   8.196  -0.387   0.156 -0.0263  0.6778  0.2534
  448MOL0     C60409   8.116  -0.509   0.131  0.1313  0.7620 -0.1067
  448MOL0     C60410   8.052  -0.611   0.102 -0.5571  0.4581 -1.0497
  448MOL0     C60411   7.776  -0.012   0.609 -0.4029  0.4767 -0.0331
  448MOL0     C60412   7.718   0.103   0.648 -0.6263  1.1666  0.5154
  448MOL0     H60413   7.458   0.394   0.913 -2.8092  0.0014 -0.4157
  448MOL0     H60414   7.368   0.589   0.997 -0.5222  2.4913  0.4137
  448MOL0     H60415   7.235   0.866   0.674 -0.7372 -2.4907 -0.8812
  448MOL0     H60416   7.110   0.800   0.778 -0.6490 -0.3742 -0.8410
  448MOL0     H60417   7.074   1.044   0.792  1.1373 -0.5393 -2.6786
  448MOL0     H60418   7.143   0.988   0.942  0.8243  1.2016  0.7895
  448MOL0     H60419   7.243   1.211   0.871  1.2059  0.6766 -0.4769
  448MOL0     H60420   7.360   1.082   0.883  0.3564  2.9223  1.8019
  448MOL0     H60421   7.231   1.088   0.604  0.4863  3.1661 -3.3302
  448MOL0     H60422   7.317   1.237   0.663 -0.9024 -0.4570 -2.1510
  448MOL0     H60423   7.512   1.103   0.726  0.3877  0.3156 -0.0765
  448MOL0     H60424   7.450   0.967   0.637  2.0731 -0.0515 -1.9212
  448MOL0     H60425   7.507   1.234   0.507 -1.2259  1.3445  0.9238
  448MOL0     H60426   7.610   1.084   0.505  1.8861  3.8988  2.7918
  448MOL0     H60427   7.441   0.972   0.392 -1.0161  0.2579 -1.3154
  448MOL0     H60428   7.327   1.099   0.404 -0.7026 -1.3051 -0.3850
  448MOL0     H60429   7.499   1.254   0.292  1.1199 -1.2438 -0.0031
  448MOL0     H60430   7.423   1.142   0.182 -2.7341  0.3882 -0.1361
  448MOL0     H60431   7.576   0.961   0.072  1.3383 -0.6425 -0.2710
  448MOL0     H60432   7.890   0.875   0.034 -0.2129 -0.6511 -1.1446
  448MOL0     H60433   7.805   0.933  -0.098  2.5310  0.5565 -1.7110
  448MOL0     H60434   8.048   1.048   0.027  1.2152 -2.5325 -1.8518
  448MOL0     H60435   7.938   1.157  -0.072 -0.3317  0.0625  2.3302
  448MOL0     H60436   7.954   0.979  -0.253 -2.0853 -2.6247  2.6983
  448MOL0     H60437   8.084   0.902  -0.182  0.2108 -0.1971 -0.7381
  448MOL0     H60438   8.066   1.175  -0.289 -0.4018  1.0405  3.2518
  448MOL0     H60439   8.190   1.047  -0.325  4.2550 -0.5610  3.4300
  448MOL0     H60440   8.253   1.266  -0.369  2.1066 -3.6521 -2.2048
  448MOL0     H60441   8.425   1.362  -0.566  0.1927  0.9228  0.1543
  448MOL0     H60442   8.320   1.479  -0.476 -0.4895 -1.3361 -0.0444
  448MOL0     H60443   8.488   1.520  -0.517 -1.6398  1.7477  0.5336
  448MOL0     H60444   8.865   1.592  -0.127  1.8973  1.4650  1.6627
  448MOL0     H60445   9.043   1.744  -0.150 -2.7999 -0.9731  0.8733
  448MOL0     H60446   9.406   1.573  -0.302  2.1109 -0.3646 -3.8329
  448MOL0     H60447   9.400   1.681  -0.441  1.5377  0.3453  0.1250
  448MOL0     H60448   9.481   1.864  -0.302  0.8077 -0.2332 -1.3046
  448MOL0     H60449   9.456   1.762  -0.156 -1.8821 -2.7310 -0.8103
  448MOL0     H60450   9.639   1.691  -0.374  0.1339  2.4987 -0.5778
  448MOL0     H60451   9.640   1.614  -0.209  1.1426 -0.4304 -1.8300
  448MOL0     H60452   9.840   1.768  -0.217 -0.2530 -1.4039 -0.1688
  448MOL0     H60453   9.720   1.897  -0.272 -2.3703 -1.9393 -2.1404
  448MOL0     H60454   9.618   1.885  -0.034 -0.7118 -3.2827  0.7838
  448MOL0     H60455   9.791   1.929  -0.059 -0.1951  0.8176 -3.4249
  448MOL0     H60456   9.669   1.651   0.003 -0.6395 -0.2966  0.7149
  448MOL0     H60457   9.840   1.699   0.035 -0.9547 -1.6705 -2.1571
  448MOL0     H60458   9.632   1.695   0.221 -1.0313  1.9330  3.2170
  448MOL0     H60459   9.651   1.864   0.184  0.9381  0.2242  0.2405
  448MOL0     H60460   9.796   1.811   0.364 -3.6615  1.8167 -1.4372
  448MOL0     H60461   9.920   1.815   0.237  3.4172 -3.9750  2.3163
  448MOL0     H60462   9.213   1.479  -0.463  0.3679  0.8777 -0.6069
  448MOL0     H60463   9.009   1.364  -0.450  1.1618  0.0823 -0.5784
  448MOL0     H60464   8.686   1.270  -0.128  0.3396 -4.1226  0.4364
  448MOL0     H60465   8.467   1.144  -0.041  4.6999  0.6934  0.7565
  448MOL0     H60466   7.402   0.770   0.597 -4.0676  0.9695  1.8265
  448MOL0     H60467   7.514   0.575   0.522  1.4582 -1.4573 -0.1184
  448MOL0     H60468   7.983   0.293   0.671  0.1771 -1.4772  0.4774
  448MOL0     H60469   8.082   0.083   0.566 -0.1881 -2.5453 -0.7380
  448MOL0     H60470   7.961  -0.101   0.357 -0.8668 -1.9681  0.7554
  448MOL0     H60471   8.125  -0.101   0.427  0.8354 -0.0604  0.0535
  448MOL0     H60472   7.972  -0.350   0.351  1.4056 -2.1403 -2.0581
  448MOL0     H60473   8.134  -0.349   0.411  1.3653  0.2793  0.4484
  448MOL0     H60474   8.202  -0.182   0.222  0.8464  0.8282 -1.4246
  448MOL0     H60475   8.049  -0.242   0.149 -0.3106  0.5243  0.5747
  448MOL0     H60476   8.291  -0.409   0.204  0.5200  1.5617 -0.4018
  448MOL0     H60477   8.228  -0.364   0.054 -0.0680  1.6578  0.4482
  448MOL0     H60478   7.976  -0.687   0.101 -2.6409  2.3563  0.7154
  448MOL0     H60479   7.705  -0.091   0.588 -0.3916  0.2329  0.8301
  448MOL0     H60480   7.611   0.099   0.665 -0.3407 -0.9199  2.2669
  449MOL0     O60481   2.387  11.166   3.373 -0.1603 -1.0020  0.1349
  449MOL0     C60482   2.410  11.287   3.396  0.2160 -0.0982  0.3598
  449MOL0     O60483   2.441  11.380   3.295 -0.2713  0.5527 -0.3018
  449MOL0     C60484   2.470  11.339   3.166  0.7867  0.2635  1.0175
  449MOL0     C60485   2.543  11.220   3.131  0.4735  0.2235 -0.8254
  449MOL0     C60486   2.569  11.179   3.006  0.2507  0.3838  0.8745
  449MOL0     C60487   2.549  11.267   2.893  0.1350  0.5928  0.0829
  449MOL0     O60488   2.570  11.215   2.766 -0.2384  0.5651 -0.0131
  449MOL0     C60489   2.526  11.289   2.658 -0.6447 -0.8314 -0.7114
  449MOL0     C60490   2.569  11.216   2.520  0.5849 -0.3440 -0.6388
  449MOL0     C60491   2.518  11.290   2.400  0.5846 -0.0406 -0.3593
  449MOL0     C60492   2.368  11.303   2.374 -0.7690 -0.7957 -0.2850
  449MOL0     C60493   2.296  11.174   2.330 -0.6011  0.2073 -0.5814
  449MOL0     C60494   2.303  11.163   2.178 -0.1290 -0.7202  0.2196
  449MOL0     C60495   2.212  11.246   2.095  0.6960 -0.9022 -0.1418
  449MOL0     C60496   2.222  11.206   1.941 -0.5415  0.6220  0.3651
  449MOL0     N60497   2.138  11.092   1.898 -0.5045  0.1023  0.6933
  449MOL0     C60498   2.168  10.955   1.904 -0.8324 -0.5309  0.1777
  449MOL0     C60499   2.080  10.896   1.830  0.3496 -0.3488  0.3268
  449MOL0     C60500   2.085  10.752   1.794 -0.6706  0.0943 -0.1095
  449MOL0     C60501   2.041  10.724   1.648 -0.5093  0.2330 -0.3358
  449MOL0     C60502   2.070  10.582   1.597 -0.4178  0.1572 -0.2864
  449MOL0     C60503   2.022  10.466   1.693 -0.6132 -1.1406  0.2498
  449MOL0     O60504   2.052  10.341   1.643  0.7909 -0.3265 -0.3682
  449MOL0     C60505   1.956  10.244   1.625  0.8113 -0.3654  0.7724
  449MOL0     C60506   1.988  10.125   1.548 -0.1366 -0.5721  0.2499
  449MOL0     C60507   1.905  10.019   1.527 -0.1677  0.4728 -0.1683
  449MOL0     C60508   1.944   9.914   1.429 -0.1329 -0.3097 -0.1945
  449MOL0     C60509   1.773  10.021   1.573 -0.1531  0.2558  0.1325
  449MOL0     C60510   1.682   9.907   1.564  0.9221  0.4732 -0.4302
  449MOL0     O60511   1.548   9.935   1.558 -0.0896 -0.2900 -0.0348
  449MOL0     C60512   1.453   9.839   1.543  0.0957 -0.0384 -0.4055
  449MOL0     C60513   1.356   9.852   1.434  0.0803 -0.3836 -0.2235
  449MOL0     C60514   1.268   9.753   1.409 -0.4115  0.7280  0.1916
  449MOL0     C60515   1.265   9.642   1.496  0.2633 -0.0593  0.1566
  449MOL0     O60516   1.192   9.526   1.476 -0.6232  0.0985  1.0396
  449MOL0     C60517   1.163   9.492   1.340  0.6711 -0.0260  0.0659
  449MOL0     C60518   1.091   9.357   1.344  0.0611  0.9872  0.7121
  449MOL0     C60519   1.188   9.230   1.346  0.4506 -0.6515 -0.1704
  449MOL0     C60520   1.267   9.191   1.219  0.4423  0.2002 -0.2003
  449MOL0     C60521   1.176   9.144   1.104  0.4723  0.7112 -0.4535
  449MOL0     C60522   1.257   9.046   1.019  0.5162  0.4262  1.0955
  449MOL0     C60523   1.185   9.025   0.889  0.1329 -0.7059  0.4181
  449MOL0     C60524   1.251   8.898   0.820  0.0317 -0.0617  0.2063
  449MOL0    Cl60525   1.425   8.949   0.770  0.0525  0.4137  0.1706
  449MOL0     C60526   1.345   9.630   1.606  0.5719 -0.3470  0.6152
  449MOL0     C60527   1.443   9.727   1.618  0.0895 -0.3233  0.1822
  449MOL0     O60528   1.738   9.797   1.574  0.1054 -0.7288  0.1448
  449MOL0     C60529   1.726  10.137   1.634 -1.0195  0.0355 -0.3209
  449MOL0     C60530   1.815  10.243   1.667 -0.3087 -0.4532 -0.1403
  449MOL0     N60531   2.000  10.997   1.783  0.0527  0.2939  0.1413
  449MOL0     N60532   2.019  11.114   1.837 -0.0885 -0.2871  0.7636
  449MOL0     C60533   2.492  11.393   2.929 -0.2012  0.1336 -0.2661
  449MOL0     C60534   2.450  11.431   3.060 -0.1120  0.4404  1.3840
  449MOL0     C60535   2.450  11.305   3.535 -0.5006  0.0018 -0.1585
  449MOL0     C60536   2.364  11.249   3.631 -0.5367  0.5322  0.4420
  449MOL0     C60537   2.413  11.251   3.766 -0.7916  0.1085  0.8439
  449MOL0     C60538   2.535  11.312   3.803  0.6116  0.3994  0.0655
  449MOL0     O60539   2.565  11.309   3.936  0.2712 -0.5169 -0.0052
  449MOL0     C60540   2.684  11.229   3.971 -0.7720  0.1781 -0.4123
  449MOL0     C60541   2.704  11.203   4.117  0.6419 -0.3641  1.3293
  449MOL0     C60542   2.742  11.333   4.189 -0.5581 -0.1361  0.3728
  449MOL0     C60543   2.899  11.363   4.182  0.2067 -0.9139 -0.2553
  449MOL0     C60544   2.915  11.503   4.237  0.5870 -0.0258  1.0484
  449MOL0     C60545   2.937  11.609   4.290 -0.2923  0.4724 -0.3833
  449MOL0     C60546   2.620  11.369   3.703  0.4842 -0.0860 -0.2723
  449MOL0     C60547   2.574  11.364   3.572  0.0020 -0.6926  0.3608
  449MOL0     H60548   2.567  11.156   3.215 -0.5212  1.4740  0.4728
  449MOL0     H60549   2.625  11.087   3.003 -0.7912 -0.2759  1.0195
  449MOL0     H60550   2.419  11.309   2.673 -0.1275  0.3219  2.0361
  449MOL0     H60551   2.590  11.378   2.662  0.4933 -1.6529 -0.2123
  449MOL0     H60552   2.678  11.200   2.520  0.7881 -0.1637  3.4822
  449MOL0     H60553   2.518  11.119   2.519 -1.3150  0.6316 -0.5260
  449MOL0     H60554   2.551  11.393   2.417 -0.4000  0.1953  0.1925
  449MOL0     H60555   2.565  11.241   2.314  0.7233 -1.0224  0.2640
  449MOL0     H60556   2.313  11.339   2.461  0.2171 -2.3797  1.0690
  449MOL0     H60557   2.348  11.373   2.293  4.5646 -0.4863 -1.7120
  449MOL0     H60558   2.322  11.079   2.377  0.4681  1.0810  0.6607
  449MOL0     H60559   2.193  11.185   2.365 -0.5752 -0.4265 -0.2993
  449MOL0     H60560   2.406  11.181   2.146  0.0081 -4.9164 -2.3508
  449MOL0     H60561   2.279  11.062   2.146  1.4666 -0.2666 -2.7613
  449MOL0     H60562   2.109  11.230   2.128 -1.4777 -0.5339 -5.6400
  449MOL0     H60563   2.235  11.350   2.118 -0.5848 -1.1262  2.5917
  449MOL0     H60564   2.324  11.169   1.931 -0.1356  1.3969  1.4349
  449MOL0     H60565   2.199  11.288   1.872  0.7205 -0.3870 -1.3145
  449MOL0     H60566   2.248  10.905   1.956 -1.4221 -0.5513  1.0843
  449MOL0     H60567   2.179  10.701   1.815 -2.3529 -3.3998 -0.3306
  449MOL0     H60568   2.022  10.694   1.861 -2.4757  3.5759  1.4182
  449MOL0     H60569   2.094  10.791   1.581  0.6543 -1.0782 -0.7802
  449MOL0     H60570   1.933  10.740   1.642 -1.0349 -2.8899 -1.2113
  449MOL0     H60571   2.175  10.561   1.574 -0.6633  0.1785 -1.4822
  449MOL0     H60572   2.011  10.579   1.506 -0.8022  4.0693 -0.3059
  449MOL0     H60573   1.917  10.486   1.713 -0.4467 -1.9991  2.2672
  449MOL0     H60574   2.070  10.463   1.792  0.1365  0.6705 -0.0262
  449MOL0     H60575   2.089  10.124   1.508 -0.3298 -1.1951 -0.2366
  449MOL0     H60576   1.952   9.813   1.469  0.1732 -0.4190 -0.5305
  449MOL0     H60577   1.864   9.912   1.354 -2.1816 -2.7589  1.8447
  449MOL0     H60578   2.042   9.939   1.389  1.8874 -2.3480  3.0347
  449MOL0     H60579   1.351   9.933   1.362 -4.8526 -0.5816 -0.3943
  449MOL0     H60580   1.212   9.754   1.316  0.8445 -0.0782 -0.6103
  449MOL0     H60581   1.089   9.556   1.292 -0.8524 -0.8699  1.2221
  449MOL0     H60582   1.258   9.492   1.286  1.9863  2.1553  2.1686
  449MOL0     H60583   1.007   9.354   1.413 -2.3108 -1.1888 -2.0390
  449MOL0     H60584   1.041   9.358   1.246  1.0487  1.4878  0.1976
  449MOL0     H60585   1.119   9.152   1.380  0.2817  0.3983  2.0232
  449MOL0     H60586   1.258   9.236   1.429 -1.2043 -2.3744  1.4332
  449MOL0     H60587   1.327   9.276   1.184 -0.9738  1.0317 -0.6696
  449MOL0     H60588   1.342   9.114   1.239  1.1868  0.8761 -0.3298
  449MOL0     H60589   1.141   9.230   1.045  1.5271 -0.8367 -3.5753
  449MOL0     H60590   1.090   9.095   1.150  2.3603 -0.2885  2.2291
  449MOL0     H60591   1.362   9.073   1.002  1.4273 -1.9849  2.3456
  449MOL0     H60592   1.263   8.950   1.071 -1.3231 -0.5677 -0.4069
  449MOL0     H60593   1.195   9.120   0.836  1.7997 -1.4376 -0.6431
  449MOL0     H60594   1.078   9.007   0.904  0.1687 -0.1527  1.4741
  449MOL0     H60595   1.204   8.864   0.727  1.8773 -1.5764 -0.2213
  449MOL0     H60596   1.249   8.810   0.885 -4.2550 -0.7473 -0.5276
  449MOL0     H60597   1.332   9.547   1.676  0.1311 -0.7146  0.1088
  449MOL0     H60598   1.512   9.707   1.700 -1.7254  0.8440  2.0786
  449MOL0     H60599   1.620  10.142   1.654 -1.4973 -1.3035 -2.1589
  449MOL0     H60600   1.771  10.335   1.703 -1.1919 -1.4325  1.3691
  449MOL0     H60601   2.481  11.469   2.853 -0.6503 -0.6087 -0.9532
  449MOL0     H60602   2.422  11.535   3.074  1.1158  1.1619 -1.1049
  449MOL0     H60603   2.274  11.207   3.589 -0.4921 -0.1720  1.0248
  449MOL0     H60604   2.345  11.206   3.837 -0.5684  0.0096  0.9955
  449MOL0     H60605   2.676  11.134   3.917 -0.6021  0.6533 -1.2895
  449MOL0     H60606   2.766  11.292   3.935 -1.6206  1.0157 -0.9323
  449MOL0     H60607   2.768  11.114   4.113  0.1081 -0.7248 -1.2142
  449MOL0     H60608   2.608  11.159   4.145  1.0949 -2.2595  0.1056
  449MOL0     H60609   2.707  11.309   4.290 -0.0495  3.0157  1.4187
  449MOL0     H60610   2.682  11.413   4.144  1.2845  0.9429 -0.3026
  449MOL0     H60611   2.935  11.368   4.078  1.1577 -0.4752  0.0769
  449MOL0     H60612   2.969  11.288   4.220 -1.7467 -3.4459 -1.3618
  449MOL0     H60613   2.943  11.708   4.332 -2.5886 -0.0703  1.4576
  449MOL0     H60614   2.710  11.425   3.727 -0.0323  1.8404 -2.4319
  449MOL0     H60615   2.630  11.410   3.491  1.6923 -0.8534  1.4085
  450MOL0     O60616   7.366   1.124  10.222  0.1418  0.0744  0.2924
  450MOL0     C60617   7.353   1.085  10.339  0.4435  0.3832 -0.2996
  450MOL0     O60618   7.232   1.038  10.389 -0.1167  0.4450  0.1692
  450MOL0     C60619   7.119   1.039  10.318 -0.3280  0.2967  0.1416
  450MOL0     C60620   7.030   1.147  10.335  0.8588 -0.3988  0.3550
  450MOL0     C60621   6.919   1.162  10.251 -0.2813  0.6837 -0.5698
  450MOL0     C60622   6.900   1.063  10.152 -0.6298  0.1757  0.7602
  450MOL0     O60623   6.790   1.081  10.072  0.0517 -0.2060 -0.2105
  450MOL0     C60624   6.661   1.068  10.130 -0.5051  0.3294  0.6646
  450MOL0     C60625   6.568   1.023  10.023  0.5586 -0.0287  0.2915
  450MOL0     C60626   6.608   0.885   9.956 -0.3619  0.0401 -0.2440
  450MOL0     C60627   6.509   0.825   9.848  0.4196  0.5992 -0.2994
  450MOL0     C60628   6.363   0.794   9.897  0.2503 -0.3167 -0.0394
  450MOL0     C60629   6.289   0.701   9.796  0.8833  0.4211  0.0585
  450MOL0     C60630   6.135   0.694   9.814 -0.1979 -0.1184  0.0653
  450MOL0     C60631   6.084   0.591   9.716 -1.2806 -0.5815 -0.3454
  450MOL0     N60632   5.938   0.573   9.738  0.4215  0.1355  0.5494
  450MOL0     C60633   5.869   0.465   9.694 -0.1721 -0.8187 -0.1064
  450MOL0     C60634   5.739   0.481   9.726  0.5235  0.6590  0.1121
  450MOL0     C60635   5.629   0.387   9.692  0.5403 -0.3613  0.7682
  450MOL0     C60636   5.639   0.266   9.781  0.4702 -0.6882 -0.1439
  450MOL0     C60637   5.582   0.287   9.926 -0.4070  0.0930 -0.4091
  450MOL0     C60638   5.433   0.318   9.930 -0.1662  1.0658  0.1445
  450MOL0     O60639   5.354   0.205   9.882  0.8323 -0.2939  0.0337
  450MOL0     C60640   5.264   0.155   9.963  0.1555  0.7740 -0.8109
  450MOL0     C60641   5.169   0.063   9.896 -0.6336  0.0132 -0.4753
  450MOL0     C60642   5.064  -0.002   9.953 -0.9414  1.6792 -0.3710
  450MOL0     C60643   4.997  -0.109   9.874  1.3079  0.2153  0.6210
  450MOL0     C60644   5.040   0.034  10.084  0.2914 -0.1098 -0.1708
  450MOL0     C60645   4.925  -0.033  10.161 -0.6432 -0.6795 -0.0166
  450MOL0     O60646   4.954  -0.084  10.280  0.3478  0.0154  0.1358
  450MOL0     C60647   4.864  -0.135  10.369  0.1585 -0.3435  0.2514
  450MOL0     C60648   4.927  -0.215  10.473  0.9065  0.3348  0.8211
  450MOL0     C60649   4.854  -0.245  10.589 -0.7213  0.1052  0.4010
  450MOL0     C60650   4.718  -0.211  10.597  0.1260 -0.2660 -0.4678
  450MOL0     O60651   4.638  -0.276  10.695  0.0081  0.4997 -0.0661
  450MOL0     C60652   4.499  -0.238  10.721  0.1747  0.3850  1.0311
  450MOL0     C60653   4.455  -0.291  10.861  0.4289  0.1335  0.1185
  450MOL0     C60654   4.446  -0.445  10.874  0.0499 -0.7584  0.6120
  450MOL0     C60655   4.447  -0.493  11.025 -0.1043 -0.0569  0.9968
  450MOL0     C60656   4.479  -0.642  11.037 -0.8270  0.0861 -0.1235
  450MOL0     C60657   4.364  -0.724  10.972 -0.6448  0.2032 -0.7758
  450MOL0     C60658   4.240  -0.738  11.049 -0.2845  0.4055 -0.5373
  450MOL0     C60659   4.129  -0.802  10.960  0.1549 -0.0898 -0.1801
  450MOL0    Cl60660   3.962  -0.781  11.022 -0.0407 -0.1172 -0.1983
  450MOL0     C60661   4.661  -0.124  10.503  0.2313 -0.2351 -0.1463
  450MOL0     C60662   4.728  -0.094  10.382 -0.5337  0.0961  0.4206
  450MOL0     O60663   4.811  -0.027  10.111  0.8084  0.3387 -0.7157
  450MOL0     C60664   5.131   0.113  10.161  0.6188  0.7884  0.1553
  450MOL0     C60665   5.237   0.180  10.095 -0.6269  1.0451 -0.0343
  450MOL0     N60666   5.731   0.592   9.801  0.2918  0.5189  0.6525
  450MOL0     N60667   5.850   0.651   9.801  0.1056  0.4540 -0.6992
  450MOL0     C60668   6.988   0.950  10.131 -0.2681 -0.3493 -0.9893
  450MOL0     C60669   7.102   0.942  10.219 -0.0266 -0.0690 -0.1828
  450MOL0     C60670   7.480   1.079  10.426 -0.0590 -0.2684 -0.5512
  450MOL0     C60671   7.470   1.064  10.570  0.0516  0.0376  1.0417
  450MOL0     C60672   7.593   1.053  10.646  0.5981  0.2060  0.5542
  450MOL0     C60673   7.717   1.054  10.587  0.8172  0.1665 -0.3814
  450MOL0     O60674   7.823   1.028  10.659  0.2562  0.1499  0.0051
  450MOL0     C60675   7.954   1.059  10.613  0.1932 -0.7871  0.2045
  450MOL0     C60676   8.050   1.059  10.729 -0.0535 -0.8684 -0.2753
  450MOL0     C60677   8.054   1.192  10.811  0.5751  0.6032  0.1502
  450MOL0     C60678   7.909   1.249  10.848  0.3652  0.2449  0.4924
  450MOL0     C60679   7.842   1.152  10.930  0.1391 -0.0509 -0.3400
  450MOL0     C60680   7.773   1.071  11.000  1.1161 -0.1901  0.0674
  450MOL0     C60681   7.725   1.069  10.449  0.3874 -0.5331  0.9397
  450MOL0     C60682   7.611   1.075  10.371 -0.6846 -0.0859 -0.2992
  450MOL0     H60683   7.045   1.225  10.410 -1.3852  0.4382  0.0335
  450MOL0     H60684   6.847   1.243  10.247  0.9566  1.8562  0.1002
  450MOL0     H60685   6.665   0.992  10.209 -0.9603  0.9895  1.3432
  450MOL0     H60686   6.619   1.150  10.189 -1.0812 -0.0782  0.8306
  450MOL0     H60687   6.463   1.020  10.055 -0.2652 -2.9448 -2.2725
  450MOL0     H60688   6.563   1.093   9.939 -2.2365 -0.5046 -0.0563
  450MOL0     H60689   6.708   0.894   9.912 -0.6288 -1.0420 -1.1203
  450MOL0     H60690   6.618   0.812  10.036  1.5340  0.5488  0.0205
  450MOL0     H60691   6.513   0.898   9.766  0.6630  1.2368  0.2669
  450MOL0     H60692   6.543   0.727   9.815 -0.1367  0.2751  0.0716
  450MOL0     H60693   6.365   0.750   9.997  0.6102 -2.3020 -0.8865
  450MOL0     H60694   6.311   0.891   9.899  2.6732  1.0953 -0.7310
  450MOL0     H60695   6.306   0.732   9.693  1.6785 -2.3881 -0.7305
  450MOL0     H60696   6.320   0.597   9.809 -2.0479 -0.8424 -2.0240
  450MOL0     H60697   6.109   0.671   9.918 -0.8577  1.9090  0.3874
  450MOL0     H60698   6.086   0.786   9.782 -1.8526 -2.1089 -3.7432
  450MOL0     H60699   6.125   0.493   9.740 -3.3885 -1.2078  0.8721
  450MOL0     H60700   6.127   0.618   9.619  0.4420  3.4625  1.3177
  450MOL0     H60701   5.904   0.382   9.633 -0.4460 -1.2672  0.3375
  450MOL0     H60702   5.531   0.432   9.712  1.8664  2.2130  2.0289
  450MOL0     H60703   5.644   0.344   9.592 -0.3831 -0.3610  0.6201
  450MOL0     H60704   5.742   0.231   9.788  1.6461  2.5030 -0.1388
  450MOL0     H60705   5.586   0.179   9.740 -1.1406  0.1963 -0.0234
  450MOL0     H60706   5.638   0.363   9.980 -1.0862  1.8085 -2.0112
  450MOL0     H60707   5.601   0.192   9.978  1.5152 -0.7802 -2.5481
  450MOL0     H60708   5.400   0.398   9.864 -2.4556  1.7198  1.9597
  450MOL0     H60709   5.411   0.352  10.031  2.1336  2.6679  0.1724
  450MOL0     H60710   5.192   0.031   9.795  1.3977 -0.2346  0.0282
  450MOL0     H60711   5.003  -0.099   9.765 -2.9459 -0.7478  0.1111
  450MOL0     H60712   5.040  -0.208   9.895 -3.2306 -3.2281 -3.8582
  450MOL0     H60713   4.889  -0.119   9.885  1.3165  0.4234  0.9108
  450MOL0     H60714   5.032  -0.230  10.449  2.4983  3.2803  4.9143
  450MOL0     H60715   4.898  -0.314  10.660  0.5590  0.8144  0.3225
  450MOL0     H60716   4.480  -0.131  10.709  0.4883  0.1802 -1.8436
  450MOL0     H60717   4.440  -0.287  10.644 -2.0356  0.6170  2.4952
  450MOL0     H60718   4.511  -0.249  10.945 -1.8547  3.8427 -0.0009
  450MOL0     H60719   4.352  -0.256  10.871  0.2543 -0.3670  0.1439
  450MOL0     H60720   4.533  -0.493  10.829  0.1622 -0.6957  0.7620
  450MOL0     H60721   4.364  -0.485  10.813  0.8886  0.9128 -1.7412
  450MOL0     H60722   4.523  -0.427  11.069  3.1319 -1.9379 -1.2999
  450MOL0     H60723   4.345  -0.489  11.064 -0.7971 -4.5099  0.1584
  450MOL0     H60724   4.503  -0.677  11.138 -1.1409 -1.8801 -0.6913
  450MOL0     H60725   4.573  -0.659  10.984  0.0513  2.7868  0.3973
  450MOL0     H60726   4.338  -0.687  10.873  0.0075 -1.2661 -1.5264
  450MOL0     H60727   4.400  -0.826  10.954 -1.8661 -0.0506 -1.9719
  450MOL0     H60728   4.205  -0.641  11.086  3.6110  2.7365 -2.3235
  450MOL0     H60729   4.242  -0.807  11.133 -2.9339  1.3319  0.4063
  450MOL0     H60730   4.143  -0.911  10.958  3.5121  0.2379 -0.0623
  450MOL0     H60731   4.128  -0.776  10.853 -0.5749  2.2493  0.3463
  450MOL0     H60732   4.555  -0.102  10.504  0.0025 -1.1164  2.3598
  450MOL0     H60733   4.679  -0.029  10.310  0.3046  0.2311 -0.0389
  450MOL0     H60734   5.131   0.121  10.269  1.2858 -2.3418  0.4868
  450MOL0     H60735   5.306   0.241  10.152  0.1004  3.2593 -3.0123
  450MOL0     H60736   6.973   0.873  10.055 -1.0395 -1.4745  0.2540
  450MOL0     H60737   7.179   0.870  10.194  1.3165  1.5413 -0.8473
  450MOL0     H60738   7.374   1.062  10.621  0.1667 -0.2123  1.2452
  450MOL0     H60739   7.593   1.018  10.749 -0.3139 -0.4784  0.3394
  450MOL0     H60740   7.979   0.976  10.547 -0.1294 -0.7542  0.0376
  450MOL0     H60741   7.966   1.156  10.562  2.7992  0.4995  2.9460
  450MOL0     H60742   8.147   1.054  10.680 -1.3257  0.1628 -3.0934
  450MOL0     H60743   8.038   0.976  10.799  2.2274 -0.6464  0.4474
  450MOL0     H60744   8.089   1.276  10.751 -2.5847  1.9552  0.0167
  450MOL0     H60745   8.120   1.186  10.898 -0.5278  0.1937  0.9904
  450MOL0     H60746   7.845   1.258  10.759 -1.5058 -4.1545  1.1246
  450MOL0     H60747   7.919   1.341  10.906 -3.2997  0.4164  1.0742
  450MOL0     H60748   7.706   1.006  11.052  0.5307  0.3678  0.0233
  450MOL0     H60749   7.807   1.088  10.380 -1.6008  0.7611 -1.2220
  450MOL0     H60750   7.619   1.091  10.264  2.9890 -1.3367 -0.3368
  451MOL0     O60751  10.296   9.415   5.358  0.2410 -0.3332 -0.3244
  451MOL0     C60752  10.269   9.433   5.239  0.1288 -0.0509 -0.0182
  451MOL0     O60753  10.357   9.471   5.146  1.0527 -1.0873 -0.4165
  451MOL0     C60754  10.489   9.483   5.180  0.4756  0.0075  0.8260
  451MOL0     C60755  10.567   9.365   5.199 -0.0045 -0.2884 -0.0833
  451MOL0     C60756  10.697   9.374   5.233 -0.5278  0.8892 -0.5514
  451MOL0     C60757  10.754   9.495   5.275  0.1473 -1.9129  0.7668
  451MOL0     O60758  10.881   9.501   5.334 -0.4712 -0.6420  0.0847
  451MOL0     C60759  10.988   9.445   5.246  0.9149  0.0389  0.1386
  451MOL0     C60760  11.079   9.551   5.199  0.2795 -0.3900 -0.5482
  451MOL0     C60761  11.157   9.599   5.326 -0.1895 -1.5672  0.1429
  451MOL0     C60762  11.227   9.741   5.295 -0.4801  0.9421  0.2188
  451MOL0     C60763  11.342   9.770   5.393  0.4753 -0.3890 -0.7772
  451MOL0     C60764  11.386   9.923   5.366  0.8890  0.8914 -0.4561
  451MOL0     C60765  11.462   9.998   5.470  0.3019 -0.3088  0.5684
  451MOL0     C60766  11.465  10.153   5.435  0.1549  0.3375  0.3025
  451MOL0     N60767  11.539  10.186   5.313 -0.0702 -0.7299  0.3796
  451MOL0     C60768  11.485  10.197   5.186 -0.1141  0.1257  0.4433
  451MOL0     C60769  11.585  10.245   5.114 -0.5440  0.9604 -0.1414
  451MOL0     C60770  11.583  10.304   4.967 -0.2917  0.4425 -0.6226
  451MOL0     C60771  11.559  10.198   4.857  0.6225  0.2675 -0.6746
  451MOL0     C60772  11.555  10.244   4.716 -0.7224  0.0514  0.4310
  451MOL0     C60773  11.592  10.126   4.627 -0.3770 -0.2846 -0.0586
  451MOL0     O60774  11.474  10.039   4.614  0.6117  0.2164  0.0090
  451MOL0     C60775  11.493   9.921   4.557  0.9753 -0.2400  0.8959
  451MOL0     C60776  11.387   9.827   4.567 -0.5772 -0.6091  0.4258
  451MOL0     C60777  11.382   9.701   4.501 -0.1645 -0.3903  0.0497
  451MOL0     C60778  11.260   9.613   4.526  0.4536  0.4316 -0.6980
  451MOL0     C60779  11.494   9.662   4.424  0.1668  0.2648  0.8929
  451MOL0     C60780  11.501   9.535   4.339  0.1808 -0.0581  0.5920
  451MOL0     O60781  11.378   9.487   4.299 -0.1828  0.3566  0.2137
  451MOL0     C60782  11.356   9.359   4.259 -1.2881 -0.8447  0.0117
  451MOL0     C60783  11.260   9.284   4.315  0.8284 -0.1671 -0.1630
  451MOL0     C60784  11.217   9.162   4.258  0.6408 -0.0076 -0.4459
  451MOL0     C60785  11.292   9.109   4.156  0.0628  0.2296 -0.1810
  451MOL0     O60786  11.253   8.979   4.122 -0.2289  0.8138 -0.0179
  451MOL0     C60787  11.364   8.897   4.078 -0.7218 -0.3304 -0.0807
  451MOL0     C60788  11.334   8.751   4.092  0.5715  0.4859  0.5193
  451MOL0     C60789  11.295   8.713   4.235 -0.5271  0.2261 -0.4596
  451MOL0     C60790  11.409   8.671   4.326 -0.8333  0.1672 -0.4340
  451MOL0     C60791  11.377   8.641   4.477  0.4031 -0.8273  0.0407
  451MOL0     C60792  11.473   8.555   4.547 -0.0211  0.5904 -0.4032
  451MOL0     C60793  11.447   8.514   4.704 -1.3848  0.4196  0.8108
  451MOL0     C60794  11.569   8.433   4.770  0.0462  0.2379 -0.2641
  451MOL0    Cl60795  11.572   8.287   4.676  0.0428 -0.1207 -0.3796
  451MOL0     C60796  11.401   9.185   4.109 -0.0134  0.5543  0.1714
  451MOL0     C60797  11.428   9.308   4.151  0.5441 -0.5152  0.0708
  451MOL0     O60798  11.610   9.480   4.330  0.5116  0.2523  0.6411
  451MOL0     C60799  11.597   9.752   4.412  0.7313  0.0913  0.1832
  451MOL0     C60800  11.604   9.875   4.490  0.6354  0.5589 -0.3220
  451MOL0     N60801  11.699  10.248   5.195 -0.4355 -0.2041  0.2040
  451MOL0     N60802  11.672  10.219   5.319  0.5471 -0.0790  0.0402
  451MOL0     C60803  10.686   9.617   5.252 -0.4483  0.0009  0.1091
  451MOL0     C60804  10.552   9.612   5.201 -0.0220  0.1569  0.4276
  451MOL0     C60805  10.122   9.428   5.200 -1.0557  0.3410 -0.3365
  451MOL0     C60806  10.021   9.363   5.275 -1.0306  0.6011 -0.2618
  451MOL0     C60807   9.899   9.337   5.225  0.8468  0.2481 -0.0618
  451MOL0     C60808   9.858   9.394   5.106 -0.1170  0.6709  0.1597
  451MOL0     O60809   9.741   9.360   5.044  0.6091  0.1743  1.2409
  451MOL0     C60810   9.715   9.222   5.020  0.0434  0.3219  0.3324
  451MOL0     C60811   9.602   9.183   5.119  0.4504  1.2979 -0.7529
  451MOL0     C60812   9.469   9.266   5.093  0.4323  0.2028 -0.5563
  451MOL0     C60813   9.388   9.212   4.977 -0.1398  0.7747 -0.1127
  451MOL0     C60814   9.269   9.289   4.950  0.0509  1.1608 -0.9342
  451MOL0     C60815   9.162   9.339   4.916  0.0031 -0.0745 -1.1516
  451MOL0     C60816   9.946   9.481   5.037 -0.2189 -0.1950 -0.2505
  451MOL0     C60817  10.085   9.484   5.073  0.3138  0.4846  0.4586
  451MOL0     H60818  10.507   9.275   5.193  0.2453 -0.3897 -1.1269
  451MOL0     H60819  10.758   9.287   5.252  0.1609  2.0148  3.2016
  451MOL0     H60820  11.060   9.379   5.297  1.0170  0.0191 -0.0316
  451MOL0     H60821  10.942   9.403   5.156 -0.1896 -0.4563  0.9095
  451MOL0     H60822  11.152   9.507   5.130  2.3070 -0.9416  1.8314
  451MOL0     H60823  11.033   9.646   5.170  0.3795  0.2826  1.3964
  451MOL0     H60824  11.089   9.608   5.411  0.0766 -1.8616  0.3912
  451MOL0     H60825  11.234   9.523   5.344  0.4419 -0.4433  2.7189
  451MOL0     H60826  11.273   9.734   5.196 -0.2146 -2.4898  0.4686
  451MOL0     H60827  11.143   9.811   5.300 -0.3812  0.9738  2.9256
  451MOL0     H60828  11.313   9.746   5.496 -2.5073 -1.0883 -1.6775
  451MOL0     H60829  11.427   9.703   5.378  0.1260 -1.1960  0.6393
  451MOL0     H60830  11.441   9.921   5.271  0.6602 -0.0251 -0.5849
  451MOL0     H60831  11.297   9.981   5.337 -0.0201 -0.6501 -0.8673
  451MOL0     H60832  11.418   9.991   5.570  0.4333  1.5955  0.7925
  451MOL0     H60833  11.563   9.959   5.479  0.0057 -0.6944  2.7066
  451MOL0     H60834  11.521  10.200   5.516  2.5709 -0.1730 -1.0001
  451MOL0     H60835  11.363  10.194   5.435  1.3112  3.4975  1.5723
  451MOL0     H60836  11.385  10.178   5.150 -0.3066  1.3074  0.3137
  451MOL0     H60837  11.516  10.391   4.969  0.8733  1.3623  0.8276
  451MOL0     H60838  11.679  10.354   4.954 -2.3693  4.2966 -3.6576
  451MOL0     H60839  11.460  10.158   4.881  0.6462 -1.2669 -2.8194
  451MOL0     H60840  11.650  10.138   4.870  1.2050  1.4384  1.0756
  451MOL0     H60841  11.619  10.332   4.705 -2.9649  1.9345  1.3841
  451MOL0     H60842  11.453  10.264   4.680 -1.4255 -4.3239 -0.6157
  451MOL0     H60843  11.687  10.077   4.648 -0.3922 -1.3781 -2.3395
  451MOL0     H60844  11.604  10.164   4.526 -1.4936 -0.6808 -0.3521
  451MOL0     H60845  11.308   9.846   4.638  0.6466 -0.0147  1.6743
  451MOL0     H60846  11.296   9.513   4.551  0.7744  0.9099  0.8727
  451MOL0     H60847  11.193   9.648   4.605  2.0751  1.8001  0.1443
  451MOL0     H60848  11.193   9.617   4.439 -0.7411 -1.9269  0.0241
  451MOL0     H60849  11.212   9.329   4.401 -1.6834 -0.3287 -1.3763
  451MOL0     H60850  11.132   9.111   4.304  1.6151 -0.5733  0.7930
  451MOL0     H60851  11.384   8.922   3.974 -1.4318 -1.0755 -0.4125
  451MOL0     H60852  11.450   8.905   4.145 -1.1455  0.2901  0.3999
  451MOL0     H60853  11.246   8.716   4.036  0.6654 -0.1479  0.7622
  451MOL0     H60854  11.410   8.682   4.055 -1.7751 -2.4375  0.7441
  451MOL0     H60855  11.228   8.627   4.220 -0.7829  0.1602  0.9157
  451MOL0     H60856  11.234   8.793   4.277  2.8746  1.1883  3.2378
  451MOL0     H60857  11.449   8.577   4.286  1.0759 -0.2726  2.2791
  451MOL0     H60858  11.484   8.751   4.331 -0.6605 -0.0708  2.7691
  451MOL0     H60859  11.274   8.604   4.479 -0.0241  0.2909  2.0708
  451MOL0     H60860  11.377   8.738   4.529 -0.7322 -2.0514  2.4666
  451MOL0     H60861  11.476   8.461   4.491  0.0284  0.9324 -0.9771
  451MOL0     H60862  11.569   8.606   4.535  1.0602 -0.9956  1.0945
  451MOL0     H60863  11.354   8.458   4.716 -1.0675  0.0483  1.5669
  451MOL0     H60864  11.442   8.604   4.766 -3.5088  1.9341 -1.3401
  451MOL0     H60865  11.540   8.423   4.875 -0.5641  3.0607 -0.1010
  451MOL0     H60866  11.659   8.494   4.772 -0.3032  0.8376 -1.6348
  451MOL0     H60867  11.461   9.137   4.033 -0.9851  2.3169 -1.8094
  451MOL0     H60868  11.496   9.371   4.095 -0.8151  0.2615 -0.7650
  451MOL0     H60869  11.680   9.726   4.347  0.3740 -1.2389  0.2339
  451MOL0     H60870  11.697   9.928   4.467  1.4504 -1.5961 -2.4536
  451MOL0     H60871  10.730   9.713   5.278  0.5463 -0.5583  0.5236
  451MOL0     H60872  10.482   9.695   5.195 -2.0980 -1.5570 -0.1349
  451MOL0     H60873  10.047   9.323   5.373 -2.9242 -1.4218 -0.4995
  451MOL0     H60874   9.841   9.277   5.295 -0.0739  2.4266  1.1453
  451MOL0     H60875   9.679   9.217   4.916 -2.8952 -0.3877  1.2692
  451MOL0     H60876   9.804   9.160   5.032 -0.7084 -0.8477  0.0988
  451MOL0     H60877   9.634   9.193   5.224  0.1374  1.6893 -0.6924
  451MOL0     H60878   9.582   9.079   5.094 -0.0561  1.5798 -1.5326
  451MOL0     H60879   9.503   9.368   5.074  2.7460 -0.2629  0.7112
  451MOL0     H60880   9.410   9.272   5.184  0.4515 -3.6799 -0.1009
  451MOL0     H60881   9.362   9.109   5.002  0.3560  1.2175  2.4391
  451MOL0     H60882   9.451   9.230   4.889  1.7434 -1.0582  0.8000
  451MOL0     H60883   9.061   9.372   4.906 -0.1996  2.7544  5.1146
  451MOL0     H60884   9.919   9.528   4.943  0.4213  1.8141  0.5143
  451MOL0     H60885  10.160   9.517   5.002 -1.2904  1.3668 -0.8713
  452MOL0     O60886   6.507   6.677   7.578  0.7112 -0.4030  0.5051
  452MOL0     C60887   6.614   6.706   7.534 -0.3861  0.0353 -0.1796
  452MOL0     O60888   6.668   6.674   7.407 -0.7233 -0.3252  0.5875
  452MOL0     C60889   6.598   6.630   7.305 -0.1829 -0.6293  0.1595
  452MOL0     C60890   6.456   6.613   7.291 -0.2605  0.1382  0.0707
  452MOL0     C60891   6.413   6.564   7.170  0.1734 -0.2339  0.5295
  452MOL0     C60892   6.494   6.524   7.064  0.1803 -0.0594  0.1274
  452MOL0     O60893   6.449   6.462   6.951 -0.0572  0.0814 -0.4322
  452MOL0     C60894   6.354   6.537   6.867  0.1987  0.5366  0.5378
  452MOL0     C60895   6.226   6.454   6.856  0.1240  0.5199 -0.0165
  452MOL0     C60896   6.114   6.543   6.805 -0.0201 -0.2848  0.2939
  452MOL0     C60897   5.996   6.456   6.786 -0.1897 -0.0712 -0.1476
  452MOL0     C60898   5.880   6.552   6.734  0.3946 -0.2826  0.4677
  452MOL0     C60899   5.743   6.480   6.741 -0.2208  0.5220 -0.0799
  452MOL0     C60900   5.635   6.539   6.645 -0.1777  0.1598  0.0207
  452MOL0     C60901   5.537   6.427   6.624 -0.9202 -0.8502  0.0633
  452MOL0     N60902   5.421   6.481   6.557 -0.6886  0.3123 -0.1481
  452MOL0     C60903   5.413   6.494   6.418 -0.5580  0.0311 -0.5739
  452MOL0     C60904   5.307   6.587   6.401 -0.2038  0.9242  0.7389
  452MOL0     C60905   5.263   6.665   6.275 -0.2231 -0.7671 -0.0452
  452MOL0     C60906   5.366   6.783   6.256  0.4258 -0.8460 -0.0058
  452MOL0     C60907   5.390   6.874   6.385  0.5482  0.1429  0.1087
  452MOL0     C60908   5.454   7.011   6.355 -0.3321  0.0429  0.2337
  452MOL0     O60909   5.584   6.977   6.305  1.1444  0.2230 -0.2021
  452MOL0     C60910   5.693   6.958   6.389  0.4105 -0.0837 -0.4775
  452MOL0     C60911   5.819   6.940   6.328  1.3073  0.9891 -0.0202
  452MOL0     C60912   5.930   6.937   6.408  0.3527  0.0903  0.2810
  452MOL0     C60913   6.068   6.965   6.346 -0.1201 -0.2185  0.2921
  452MOL0     C60914   5.916   6.920   6.549  0.1187  0.4151 -0.1097
  452MOL0     C60915   6.037   6.894   6.636  0.1053 -0.9298  0.2942
  452MOL0     O60916   6.014   6.955   6.755 -0.7927  0.7517 -0.3141
  452MOL0     C60917   6.125   6.952   6.848 -0.0766 -0.0310 -0.0010
  452MOL0     C60918   6.256   7.000   6.817 -0.5557 -0.3998 -0.3556
  452MOL0     C60919   6.355   6.992   6.914  0.3713  0.6307  0.1505
  452MOL0     C60920   6.328   6.941   7.041  0.7872 -0.1586  0.1784
  452MOL0     O60921   6.419   6.926   7.136 -0.0219  0.3602  0.4585
  452MOL0     C60922   6.521   7.027   7.148 -1.1652 -0.0311 -0.8403
  452MOL0     C60923   6.610   6.983   7.269 -0.1432  0.5875  0.1453
  452MOL0     C60924   6.737   7.064   7.279 -0.1067  0.4057 -0.1318
  452MOL0     C60925   6.804   7.022   7.408  0.2262 -0.7961  0.9968
  452MOL0     C60926   6.928   7.105   7.458 -0.6457  0.4665  0.2909
  452MOL0     C60927   6.871   7.243   7.486  0.5802  1.3528 -0.3238
  452MOL0     C60928   6.963   7.342   7.559  0.2377  0.0517 -0.1532
  452MOL0     C60929   6.912   7.482   7.533 -0.1771 -0.8799  0.1697
  452MOL0    Cl60930   6.750   7.508   7.613  0.1050 -0.3150 -0.2260
  452MOL0     C60931   6.199   6.910   7.082 -0.3779  0.3163  0.2682
  452MOL0     C60932   6.101   6.920   6.983 -1.0131 -0.0492  0.9541
  452MOL0     O60933   6.134   6.826   6.604 -0.6348 -0.0725  0.1727
  452MOL0     C60934   5.794   6.921   6.610 -0.1854 -0.4368  0.9439
  452MOL0     C60935   5.682   6.949   6.529 -0.1465 -0.4339  0.5239
  452MOL0     N60936   5.252   6.615   6.522 -0.6279  0.5703  0.3302
  452MOL0     N60937   5.323   6.556   6.614  0.5120 -0.4979 -0.1310
  452MOL0     C60938   6.632   6.549   7.070  1.1466 -0.4255  0.4695
  452MOL0     C60939   6.675   6.606   7.187  0.5083 -0.9615  0.0514
  452MOL0     C60940   6.702   6.774   7.628  0.9721 -0.5005 -0.7952
  452MOL0     C60941   6.650   6.829   7.755  0.3833  0.5284 -0.4763
  452MOL0     C60942   6.742   6.895   7.835 -0.0109  0.2822 -0.2014
  452MOL0     C60943   6.883   6.897   7.810  0.7154 -0.6525 -0.4045
  452MOL0     O60944   6.976   6.972   7.881  0.3650 -0.4740  0.7528
  452MOL0     C60945   6.924   7.072   7.972  0.1178 -0.8856  0.6500
  452MOL0     C60946   6.930   7.005   8.110 -0.3091 -0.8973 -0.1223
  452MOL0     C60947   6.959   7.114   8.213 -0.7875  0.2623 -0.5281
  452MOL0     C60948   6.976   7.055   8.354 -0.4598 -0.6238 -0.7535
  452MOL0     C60949   7.055   7.148   8.439  0.0944 -0.2883 -0.1787
  452MOL0     C60950   7.118   7.242   8.496 -0.0128  0.1720 -0.2852
  452MOL0     C60951   6.932   6.843   7.695  0.1033 -0.7278  0.3971
  452MOL0     C60952   6.841   6.774   7.611  0.7625  0.2509  0.2832
  452MOL0     H60953   6.391   6.613   7.378  1.3937  2.2929  1.4048
  452MOL0     H60954   6.309   6.542   7.151 -0.1691  1.3345  0.4303
  452MOL0     H60955   6.341   6.641   6.895  1.7041  1.0883 -0.6960
  452MOL0     H60956   6.412   6.532   6.774 -2.4327  0.5523 -1.2329
  452MOL0     H60957   6.239   6.369   6.789  0.8232  0.7815 -0.2214
  452MOL0     H60958   6.203   6.415   6.956  0.1782 -2.9554 -1.2469
  452MOL0     H60959   6.102   6.624   6.878 -0.0781 -1.0720  1.1907
  452MOL0     H60960   6.143   6.587   6.710 -1.4078  2.6334  1.1125
  452MOL0     H60961   6.010   6.387   6.703 -3.9201  0.4234 -1.4060
  452MOL0     H60962   5.959   6.412   6.879 -3.0928  0.5272 -0.8904
  452MOL0     H60963   5.881   6.647   6.787  2.4024  0.1643 -0.2913
  452MOL0     H60964   5.905   6.571   6.630  0.7574 -2.3714  0.1197
  452MOL0     H60965   5.750   6.371   6.735  0.1135  0.5557 -0.3022
  452MOL0     H60966   5.716   6.504   6.845 -0.3589 -0.4557  0.1212
  452MOL0     H60967   5.592   6.628   6.693  1.3412  0.6846  0.4702
  452MOL0     H60968   5.675   6.574   6.549 -1.4476 -1.4784 -1.1567
  452MOL0     H60969   5.509   6.382   6.720  0.3370  1.5960  1.6939
  452MOL0     H60970   5.584   6.343   6.571  0.1730 -0.5141  0.4683
  452MOL0     H60971   5.471   6.451   6.337 -0.9550 -0.8330 -0.4068
  452MOL0     H60972   5.267   6.603   6.185  0.8339 -1.0114  0.1587
  452MOL0     H60973   5.166   6.715   6.281 -0.8862 -1.3113 -3.7668
  452MOL0     H60974   5.309   6.847   6.188 -2.2479 -2.5467  0.4915
  452MOL0     H60975   5.457   6.748   6.206  1.1008  1.0402 -0.1671
  452MOL0     H60976   5.458   6.826   6.456 -0.2420  0.0521  0.8215
  452MOL0     H60977   5.298   6.889   6.441  0.8344  2.5725  0.0362
  452MOL0     H60978   5.457   7.080   6.440  0.6986  1.8090 -1.1656
  452MOL0     H60979   5.402   7.064   6.275 -0.7181  0.0801  0.5092
  452MOL0     H60980   5.830   6.948   6.221 -1.8266 -2.3372 -0.8288
  452MOL0     H60981   6.059   7.040   6.267  0.8177 -0.2857  0.0989
  452MOL0     H60982   6.134   7.009   6.421 -1.8556  0.1488  1.6559
  452MOL0     H60983   6.095   6.874   6.291 -1.2969  1.3980 -3.3094
  452MOL0     H60984   6.285   7.037   6.720  4.3408  1.9173  1.6185
  452MOL0     H60985   6.453   7.025   6.878  1.2680 -1.7404  0.2088
  452MOL0     H60986   6.581   7.033   7.057 -1.1374  0.4175 -0.7953
  452MOL0     H60987   6.479   7.126   7.167 -1.1185 -0.0373 -0.7042
  452MOL0     H60988   6.553   7.001   7.361 -2.8873 -2.0403 -0.8381
  452MOL0     H60989   6.625   6.874   7.270 -2.6400  0.1792 -0.1897
  452MOL0     H60990   6.713   7.170   7.290  2.4779  1.0253  0.2669
  452MOL0     H60991   6.800   7.042   7.192  0.7499 -0.6729  0.7339
  452MOL0     H60992   6.727   7.039   7.483 -0.7896  1.6048 -0.5024
  452MOL0     H60993   6.828   6.916   7.395  1.8929 -0.5221  1.5199
  452MOL0     H60994   7.013   7.100   7.390  2.6696 -1.7181  4.1646
  452MOL0     H60995   6.967   7.062   7.551 -0.6030  2.0820  1.0427
  452MOL0     H60996   6.869   7.283   7.384 -0.2233 -2.6978 -2.0666
  452MOL0     H60997   6.767   7.243   7.521  1.3275 -0.4365  2.0988
  452MOL0     H60998   7.067   7.332   7.525  0.4490  0.8978  0.2106
  452MOL0     H60999   6.958   7.315   7.665  1.6972 -0.1699 -0.1083
  452MOL0     H61000   6.902   7.502   7.426  0.1093  0.6775  0.4111
  452MOL0     H61001   6.982   7.548   7.585  1.2015 -1.3247 -1.0473
  452MOL0     H61002   6.167   6.883   7.182 -0.7614  4.4844  1.4567
  452MOL0     H61003   6.004   6.882   7.013 -1.1848  0.0329  0.5107
  452MOL0     H61004   5.779   6.902   6.716  0.9590 -2.7994  0.7315
  452MOL0     H61005   5.586   6.953   6.580  0.0748  0.7416  0.8898
  452MOL0     H61006   6.700   6.515   6.992  1.7350 -0.9397  1.1884
  452MOL0     H61007   6.777   6.641   7.186 -0.1923  1.3409  1.0299
  452MOL0     H61008   6.544   6.835   7.780  0.8421  2.2777  1.3235
  452MOL0     H61009   6.695   6.962   7.906 -4.2902 -2.9438  0.4210
  452MOL0     H61010   7.003   7.147   7.974 -1.2425  0.6308 -0.3681
  452MOL0     H61011   6.831   7.121   7.944  0.6820  0.5242  1.1802
  452MOL0     H61012   7.008   6.929   8.112  2.7429  1.9378  2.9122
  452MOL0     H61013   6.832   6.960   8.128 -0.8667  0.1436 -0.4974
  452MOL0     H61014   6.883   7.193   8.209  0.0004  1.0137 -1.4568
  452MOL0     H61015   7.055   7.159   8.184 -0.2200  0.1020  0.9890
  452MOL0     H61016   7.020   6.958   8.330  0.0955 -0.0776 -2.0774
  452MOL0     H61017   6.883   7.028   8.403  0.0988  1.4178  1.6303
  452MOL0     H61018   7.177   7.326   8.524 -0.9191  1.0334 -0.8703
  452MOL0     H61019   7.037   6.851   7.668 -0.5814  2.1239 -1.9468
  452MOL0     H61020   6.886   6.725   7.526  0.8539  0.8127 -0.0015
  453MOL0     O61021   3.144   8.278   5.723 -0.2411 -0.4362 -0.0946
  453MOL0     C61022   3.097   8.317   5.824 -0.0377  1.1098 -0.6020
  453MOL0     O61023   2.973   8.360   5.844  0.1043  0.0645  1.3806
  453MOL0     C61024   2.871   8.306   5.773  0.2014  0.2594 -0.1196
  453MOL0     C61025   2.859   8.177   5.734 -0.4495  0.8801  0.3860
  453MOL0     C61026   2.775   8.131   5.641  0.0800 -0.0872  0.8043
  453MOL0     C61027   2.677   8.211   5.586 -0.5363 -1.0152 -0.0350
  453MOL0     O61028   2.590   8.156   5.491 -0.6882 -0.8641 -0.0644
  453MOL0     C61029   2.475   8.240   5.458  0.2987  0.6240 -0.0211
  453MOL0     C61030   2.388   8.192   5.352  0.3829 -0.3092  0.4819
  453MOL0     C61031   2.285   8.093   5.398 -0.2573 -0.0291 -0.2244
  453MOL0     C61032   2.206   8.053   5.270  0.1538 -0.0847 -0.5755
  453MOL0     C61033   2.066   7.991   5.307  0.0853 -0.2552 -0.2472
  453MOL0     C61034   2.017   7.891   5.195  0.2125 -0.1121  1.3123
  453MOL0     C61035   1.992   7.969   5.058 -0.5261 -1.0577  0.1244
  453MOL0     C61036   1.895   8.088   5.075  0.9645 -0.4596  0.6051
  453MOL0     N61037   1.848   8.127   4.935 -0.8534 -0.2745  0.6045
  453MOL0     C61038   1.913   8.205   4.844  0.0519  0.7000  0.6504
  453MOL0     C61039   1.821   8.231   4.742  0.3958 -0.1932  0.6461
  453MOL0     C61040   1.845   8.324   4.621 -0.5033 -0.2973 -0.5856
  453MOL0     C61041   1.781   8.459   4.642 -0.3975 -0.3176  0.8135
  453MOL0     C61042   1.848   8.548   4.752  0.0454  0.0552  0.0563
  453MOL0     C61043   1.788   8.691   4.745  0.4549 -0.1828 -0.2309
  453MOL0     O61044   1.827   8.750   4.874 -0.1045  0.5078  1.0504
  453MOL0     C61045   1.944   8.819   4.884 -0.1787 -0.8103  0.3373
  453MOL0     C61046   2.032   8.843   4.782  0.5409 -0.0161  0.7270
  453MOL0     C61047   2.130   8.936   4.803 -0.9922 -0.0487 -1.0273
  453MOL0     C61048   2.216   8.982   4.684  0.3256 -0.1046  0.2944
  453MOL0     C61049   2.158   8.988   4.931  0.0467  0.0368  0.1245
  453MOL0     C61050   2.278   9.072   4.967  0.1390  0.6104 -0.0599
  453MOL0     O61051   2.291   9.113   5.099 -0.2354 -0.0191 -0.5052
  453MOL0     C61052   2.399   9.184   5.137  0.8136 -0.4437  0.0646
  453MOL0     C61053   2.410   9.329   5.103  0.5371  0.1098 -0.0718
  453MOL0     C61054   2.511   9.399   5.167 -0.0752 -0.4961 -1.0985
  453MOL0     C61055   2.605   9.341   5.249 -0.2964  0.3903  0.0510
  453MOL0     O61056   2.701   9.434   5.289  0.7096  0.5216  0.4481
  453MOL0     C61057   2.764   9.402   5.414  0.0377 -0.5083  0.2786
  453MOL0     C61058   2.876   9.511   5.443 -0.1915 -0.1556  0.3964
  453MOL0     C61059   2.889   9.535   5.594  1.1420 -0.1166 -0.2424
  453MOL0     C61060   2.788   9.637   5.647 -0.4942  0.0137  0.5711
  453MOL0     C61061   2.794   9.626   5.800 -0.4982  0.9840  0.6312
  453MOL0     C61062   2.688   9.707   5.871  0.4898 -0.0014 -0.1871
  453MOL0     C61063   2.698   9.695   6.024  0.2042  1.1231 -0.4279
  453MOL0     C61064   2.598   9.796   6.084 -0.1308  0.2210  0.3496
  453MOL0    Cl61065   2.558   9.748   6.252  0.3067 -0.0133 -0.6326
  453MOL0     C61066   2.592   9.201   5.283  0.9191  0.3592  0.1671
  453MOL0     C61067   2.484   9.125   5.227  1.1232  0.4072  0.2394
  453MOL0     O61068   2.364   9.098   4.884 -0.3437 -0.4106 -0.1150
  453MOL0     C61069   2.062   8.960   5.040 -0.7817  0.4734 -0.0886
  453MOL0     C61070   1.959   8.873   5.013  0.0495 -1.0337  0.1665
  453MOL0     N61071   1.705   8.177   4.780  0.0459 -0.6607 -0.2429
  453MOL0     N61072   1.721   8.114   4.891  0.4589  0.0694 -0.0760
  453MOL0     C61073   2.680   8.350   5.633  0.7365 -0.2769 -1.1530
  453MOL0     C61074   2.777   8.396   5.731 -0.6104 -0.2831 -0.0976
  453MOL0     C61075   3.194   8.327   5.942 -0.0607 -1.0085 -0.1000
  453MOL0     C61076   3.314   8.257   5.944 -0.8238  0.1817  0.0738
  453MOL0     C61077   3.401   8.275   6.045 -0.0321 -0.4683  0.7544
  453MOL0     C61078   3.375   8.367   6.149  0.4758  0.8737  0.7267
  453MOL0     O61079   3.454   8.381   6.259  0.8185 -0.0809 -0.2727
  453MOL0     C61080   3.501   8.263   6.330  0.2435  0.6639  0.4337
  453MOL0     C61081   3.645   8.265   6.366 -0.3236 -0.6417  0.1868
  453MOL0     C61082   3.675   8.384   6.466 -0.7495  0.6301  0.7594
  453MOL0     C61083   3.741   8.336   6.592  0.0980 -0.4239  0.2456
  453MOL0     C61084   3.780   8.451   6.677 -0.1150 -0.1547 -0.2410
  453MOL0     C61085   3.815   8.544   6.745  0.1398  0.1744 -0.2905
  453MOL0     C61086   3.257   8.444   6.135 -0.2123 -0.8097 -0.6464
  453MOL0     C61087   3.161   8.424   6.038 -0.0954  0.1950  0.6963
  453MOL0     H61088   2.932   8.098   5.747 -2.4282 -0.9816  0.7260
  453MOL0     H61089   2.788   8.028   5.608  3.0722  0.0847  1.1874
  453MOL0     H61090   2.423   8.230   5.554 -1.9418 -3.1094 -1.4301
  453MOL0     H61091   2.505   8.344   5.441 -0.3368  2.1094  5.7530
  453MOL0     H61092   2.326   8.271   5.307 -1.9529 -1.8532  0.8047
  453MOL0     H61093   2.441   8.141   5.271 -0.9728 -2.6761  1.0138
  453MOL0     H61094   2.317   8.001   5.448  0.1252 -0.7936 -1.8120
  453MOL0     H61095   2.220   8.137   5.474  1.1289 -2.8574  2.8448
  453MOL0     H61096   2.199   8.133   5.196  3.5370  2.0410  1.1583
  453MOL0     H61097   2.260   7.968   5.226 -1.6183 -1.0472 -1.0113
  453MOL0     H61098   2.081   7.948   5.406  0.6224 -1.0930 -0.6821
  453MOL0     H61099   1.982   8.058   5.328 -0.1431 -1.1017  1.7837
  453MOL0     H61100   2.091   7.812   5.181 -1.7658 -1.9705  0.8160
  453MOL0     H61101   1.924   7.843   5.226  0.3545 -0.7339  0.7866
  453MOL0     H61102   2.090   8.012   5.033 -0.6764  1.1027  2.7765
  453MOL0     H61103   1.966   7.908   4.971  0.6112  1.5331 -2.2120
  453MOL0     H61104   1.939   8.175   5.125 -3.3768  2.0578  0.5476
  453MOL0     H61105   1.802   8.063   5.126  0.0715  0.8174 -0.3078
  453MOL0     H61106   2.015   8.242   4.846  0.7068 -1.0188  2.8131
  453MOL0     H61107   1.950   8.350   4.607 -0.6109 -0.6570 -2.2548
  453MOL0     H61108   1.803   8.283   4.529  0.4136 -1.5608 -0.4604
  453MOL0     H61109   1.673   8.449   4.651 -0.3332 -2.5619 -0.1673
  453MOL0     H61110   1.806   8.509   4.549  0.6385 -1.7084  0.2964
  453MOL0     H61111   1.955   8.554   4.732 -0.1419  0.5074 -0.8310
  453MOL0     H61112   1.828   8.507   4.852 -1.3412  0.3773 -0.0666
  453MOL0     H61113   1.681   8.669   4.750  0.5820 -0.4249  2.3791
  453MOL0     H61114   1.814   8.739   4.650 -0.7121  2.9143  0.8821
  453MOL0     H61115   2.026   8.802   4.682  0.7255 -3.4127  2.0011
  453MOL0     H61116   2.209   9.089   4.662  0.8596 -0.4509 -1.7917
  453MOL0     H61117   2.314   8.936   4.694 -0.9167 -2.6640  1.5472
  453MOL0     H61118   2.154   8.944   4.602 -2.2380  1.8875  1.1610
  453MOL0     H61119   2.352   9.370   5.021 -0.6372 -0.4418  0.4686
  453MOL0     H61120   2.522   9.505   5.145 -0.4860 -0.4118 -0.9077
  453MOL0     H61121   2.684   9.417   5.488 -2.5382  3.4207 -2.8566
  453MOL0     H61122   2.812   9.304   5.420 -0.7490 -0.8104  2.8883
  453MOL0     H61123   2.975   9.489   5.402  1.2175 -1.0037  3.8688
  453MOL0     H61124   2.846   9.607   5.400  2.1019  0.8553  0.9022
  453MOL0     H61125   2.993   9.562   5.614  1.8145 -1.0665 -2.2029
  453MOL0     H61126   2.877   9.444   5.653  2.4199  0.5514  1.1121
  453MOL0     H61127   2.812   9.735   5.605 -0.4953  0.2636  1.1467
  453MOL0     H61128   2.688   9.619   5.608  0.8771 -4.2176 -1.6712
  453MOL0     H61129   2.892   9.657   5.838 -0.5542  0.3493  1.3141
  453MOL0     H61130   2.783   9.523   5.834  0.3998  1.0456  1.1482
  453MOL0     H61131   2.698   9.812   5.844  0.2054 -0.5913 -2.8141
  453MOL0     H61132   2.591   9.675   5.832 -1.5317  4.4650  0.5829
  453MOL0     H61133   2.799   9.726   6.051  0.0654 -0.3550  2.0792
  453MOL0     H61134   2.688   9.591   6.058 -4.5884  1.6779  0.6080
  453MOL0     H61135   2.504   9.773   6.032 -0.2325 -1.5362  1.2212
  453MOL0     H61136   2.625   9.900   6.069  0.4140  0.1964  1.0783
  453MOL0     H61137   2.658   9.169   5.362  0.8902  2.6042  1.1884
  453MOL0     H61138   2.468   9.024   5.264  1.7079  0.1515 -0.1850
  453MOL0     H61139   2.077   8.990   5.143 -1.3915 -2.0352  0.8048
  453MOL0     H61140   1.903   8.827   5.094  2.2054 -3.3879  0.4478
  453MOL0     H61141   2.597   8.420   5.624 -1.2824 -2.3580  0.0753
  453MOL0     H61142   2.780   8.500   5.763 -0.9138  0.5414 -2.5210
  453MOL0     H61143   3.347   8.197   5.860 -0.0287  0.0076  0.5017
  453MOL0     H61144   3.489   8.213   6.048 -0.6747 -1.6818 -2.4959
  453MOL0     H61145   3.442   8.261   6.423 -0.8256 -0.1317 -0.2361
  453MOL0     H61146   3.470   8.171   6.280 -1.0318  1.4185 -0.1839
  453MOL0     H61147   3.706   8.281   6.276  0.2079  2.8217  0.9933
  453MOL0     H61148   3.664   8.165   6.406  3.9930  0.0152  0.2413
  453MOL0     H61149   3.588   8.450   6.477  1.1206  2.7797  4.1107
  453MOL0     H61150   3.748   8.440   6.408  0.0771 -1.9250 -0.8184
  453MOL0     H61151   3.830   8.281   6.563 -0.7059 -1.0883 -1.0529
  453MOL0     H61152   3.684   8.266   6.655  0.6908 -0.4991  0.7011
  453MOL0     H61153   3.822   8.630   6.808  0.6291 -0.7375  0.9378
  453MOL0     H61154   3.230   8.511   6.216 -1.6724 -1.4046 -0.6074
  453MOL0     H61155   3.072   8.486   6.036  1.8041  3.0871 -1.9849
  454MOL0     O61156   1.322   1.633  10.008 -0.4972  0.4030  0.7637
  454MOL0     C61157   1.239   1.541  10.015  0.7273 -0.0223  0.6727
  454MOL0     O61158   1.217   1.447   9.919 -0.5984  0.5605 -0.5244
  454MOL0     C61159   1.305   1.415   9.815  0.4145 -0.0820  0.0935
  454MOL0     C61160   1.441   1.422   9.826 -0.3324  0.2910  1.0156
  454MOL0     C61161   1.525   1.386   9.716  0.6922  1.2781  0.2885
  454MOL0     C61162   1.460   1.328   9.601 -0.9886  0.1039  0.6163
  454MOL0     O61163   1.526   1.271   9.491 -0.1335 -0.6923  0.1783
  454MOL0     C61164   1.662   1.237   9.514  0.9305 -0.0738  0.8954
  454MOL0     C61165   1.724   1.203   9.383  0.9013 -0.2593  0.4951
  454MOL0     C61166   1.710   1.059   9.338 -0.4396 -0.5422 -0.3939
  454MOL0     C61167   1.774   1.053   9.195  0.4946  0.2582 -0.4768
  454MOL0     C61168   1.804   0.911   9.149  0.2628  0.0560  0.4297
  454MOL0     C61169   1.911   0.925   9.039 -0.2298  0.7031 -0.0885
  454MOL0     C61170   1.854   0.994   8.911  0.9420  0.2400  0.3647
  454MOL0     C61171   1.765   0.919   8.810  0.9997  0.4340  0.1495
  454MOL0     N61172   1.806   0.789   8.757 -0.0769 -0.0011 -0.3251
  454MOL0     C61173   1.935   0.765   8.701  0.7335 -0.4457 -0.3029
  454MOL0     C61174   1.957   0.635   8.709 -0.9616 -0.6065  0.1381
  454MOL0     C61175   2.078   0.539   8.654  0.0351 -1.1138  0.2370
  454MOL0     C61176   2.200   0.629   8.626 -0.5098  0.4576  0.4616
  454MOL0     C61177   2.321   0.558   8.571  0.6373  0.0632 -0.2311
  454MOL0     C61178   2.283   0.510   8.435  0.4909  0.2613 -0.0572
  454MOL0     O61179   2.400   0.472   8.360 -0.1883  0.3466 -0.1218
  454MOL0     C61180   2.389   0.417   8.235 -0.0971  0.7268 -0.1548
  454MOL0     C61181   2.496   0.336   8.189  0.4094  0.2440  0.4231
  454MOL0     C61182   2.507   0.287   8.059 -0.0894 -1.1051  0.3399
  454MOL0     C61183   2.629   0.194   8.021  1.2983  0.7537  0.8377
  454MOL0     C61184   2.405   0.316   7.961 -1.2669 -1.1032  0.2036
  454MOL0     C61185   2.417   0.285   7.815 -1.2418 -0.0462 -0.3418
  454MOL0     O61186   2.300   0.291   7.741  0.9959 -0.3269 -0.2179
  454MOL0     C61187   2.295   0.247   7.612  0.3214 -0.5339 -0.1855
  454MOL0     C61188   2.222   0.322   7.515 -0.6693 -0.4646 -1.5019
  454MOL0     C61189   2.192   0.277   7.389 -0.0888  0.8518 -0.0616
  454MOL0     C61190   2.237   0.155   7.352 -0.8198  0.2206  0.0508
  454MOL0     O61191   2.203   0.113   7.226 -0.0330  0.7011 -0.6811
  454MOL0     C61192   2.282   0.183   7.123  0.6315 -0.3922 -0.4244
  454MOL0     C61193   2.297   0.099   6.998 -0.3142  0.0455  0.6516
  454MOL0     C61194   2.371  -0.031   7.011 -0.4921  0.2457  0.2122
  454MOL0     C61195   2.409  -0.077   6.869  0.2647 -0.2846  0.3498
  454MOL0     C61196   2.296  -0.100   6.766  0.4557  0.5565 -0.4793
  454MOL0     C61197   2.216  -0.216   6.810  1.1061 -0.2048  0.1251
  454MOL0     C61198   2.285  -0.343   6.832  0.1309  0.5951  0.5211
  454MOL0     C61199   2.181  -0.462   6.803 -0.2725 -0.6125  0.3189
  454MOL0    Cl61200   2.042  -0.450   6.910 -0.3186  0.5456 -0.1309
  454MOL0     C61201   2.308   0.072   7.441 -0.0360  0.3070  0.8680
  454MOL0     C61202   2.337   0.119   7.572  0.3160  0.3216  0.7856
  454MOL0     O61203   2.528   0.273   7.766 -0.4144 -0.0424  0.2154
  454MOL0     C61204   2.286   0.377   8.009  0.3557  1.2112  0.5324
  454MOL0     C61205   2.277   0.427   8.140 -0.5047  0.0386 -0.3410
  454MOL0     N61206   1.841   0.575   8.761  0.1836 -0.2262  0.1331
  454MOL0     N61207   1.755   0.669   8.785  0.4350  0.0502 -0.9961
  454MOL0     C61208   1.318   1.332   9.590  0.1013  0.2990 -0.0114
  454MOL0     C61209   1.241   1.372   9.699 -0.7089  1.0892  0.1629
  454MOL0     C61210   1.158   1.530  10.141 -1.4210  0.0383  0.4863
  454MOL0     C61211   1.062   1.432  10.146 -0.3185 -0.0205  0.7271
  454MOL0     C61212   0.985   1.400  10.251  0.0292 -0.3744 -0.6906
  454MOL0     C61213   0.995   1.476  10.372  0.6673  0.5231 -0.8912
  454MOL0     O61214   0.915   1.462  10.484 -0.0173 -0.9494 -0.3944
  454MOL0     C61215   0.835   1.346  10.504 -0.3186  0.4076 -0.1730
  454MOL0     C61216   0.700   1.333  10.429  1.0297 -0.6724  1.0213
  454MOL0     C61217   0.641   1.464  10.390 -0.1241  0.0434 -0.9621
  454MOL0     C61218   0.505   1.446  10.306  0.1520 -0.2339 -0.2794
  454MOL0     C61219   0.383   1.407  10.393 -0.5321 -1.1971 -0.1489
  454MOL0     C61220   0.294   1.361  10.462 -0.5002  0.2794  0.1079
  454MOL0     C61221   1.078   1.589  10.369 -0.1491 -0.7472  0.7650
  454MOL0     C61222   1.167   1.606  10.257 -0.0202  0.6522 -0.4127
  454MOL0     H61223   1.503   1.446   9.913  0.5089  1.4378  0.1388
  454MOL0     H61224   1.633   1.394   9.720  0.9485 -1.4585  0.9621
  454MOL0     H61225   1.725   1.314   9.559  1.4459  0.9818 -1.4737
  454MOL0     H61226   1.663   1.149   9.580  0.8619  1.6298  3.2905
  454MOL0     H61227   1.679   1.267   9.307  0.8700 -1.3446 -0.4248
  454MOL0     H61228   1.829   1.234   9.381  0.8201  0.2150  2.0601
  454MOL0     H61229   1.772   1.001   9.406 -0.7937 -0.0051  0.4070
  454MOL0     H61230   1.608   1.020   9.346 -0.3667 -0.7332 -0.3829
  454MOL0     H61231   1.706   1.103   9.125 -0.0655  2.1336  1.3206
  454MOL0     H61232   1.860   1.121   9.196 -1.4913  2.9195  1.6807
  454MOL0     H61233   1.849   0.853   9.231  0.1770 -0.9361 -0.2117
  454MOL0     H61234   1.709   0.865   9.120 -0.3945  0.1573  2.2800
  454MOL0     H61235   1.997   0.972   9.088 -0.5056 -0.0416  1.1634
  454MOL0     H61236   1.943   0.824   9.013  1.2994  0.9463  0.7294
  454MOL0     H61237   1.800   1.086   8.934 -0.0577 -0.3560  0.4855
  454MOL0     H61238   1.935   1.034   8.850  1.7307 -1.0876  0.4936
  454MOL0     H61239   1.759   0.985   8.723  1.8311 -0.4822 -0.6305
  454MOL0     H61240   1.664   0.913   8.853  1.3987 -0.8090  0.9923
  454MOL0     H61241   2.009   0.837   8.668  1.9790 -2.3059 -1.8282
  454MOL0     H61242   2.090   0.460   8.728 -2.2375 -1.6097  0.1644
  454MOL0     H61243   2.045   0.486   8.564  2.3644 -0.6710 -0.9416
  454MOL0     H61244   2.235   0.686   8.713  1.3012  3.3811 -1.9716
  454MOL0     H61245   2.173   0.702   8.549  1.3411  0.3583 -0.3139
  454MOL0     H61246   2.337   0.466   8.627  1.3186 -1.1323 -2.2926
  454MOL0     H61247   2.407   0.625   8.573  0.2490  0.5967  2.0947
  454MOL0     H61248   2.210   0.577   8.388  0.1099  1.1056  1.6807
  454MOL0     H61249   2.230   0.414   8.438  1.2294 -0.1410  0.3306
  454MOL0     H61250   2.565   0.312   8.269 -0.5232 -1.1708  0.8217
  454MOL0     H61251   2.700   0.187   8.103  1.5351  0.7191  0.6287
  454MOL0     H61252   2.591   0.094   8.001  1.3290  0.4810  2.0808
  454MOL0     H61253   2.691   0.229   7.938 -2.6093  1.5263 -2.0694
  454MOL0     H61254   2.202   0.424   7.545  0.8943 -0.7367  0.7206
  454MOL0     H61255   2.142   0.342   7.319  2.4270 -0.4133 -3.2833
  454MOL0     H61256   2.224   0.271   7.092 -1.1079  0.0166  3.4719
  454MOL0     H61257   2.381   0.213   7.161  1.2549 -0.9870 -1.5390
  454MOL0     H61258   2.209   0.098   6.933  0.0908  0.4384  0.0883
  454MOL0     H61259   2.370   0.156   6.939  1.6999 -0.1312  2.8309
  454MOL0     H61260   2.310  -0.104   7.064 -2.4518 -0.6782 -3.0610
  454MOL0     H61261   2.465  -0.017   7.067 -1.0678  2.5576  0.7299
  454MOL0     H61262   2.461   0.006   6.821 -0.3318  1.0487  1.8879
  454MOL0     H61263   2.477  -0.162   6.874  1.9805  1.0844  3.8108
  454MOL0     H61264   2.343  -0.123   6.669 -0.3963  1.1577 -1.0466
  454MOL0     H61265   2.229  -0.018   6.741  1.6713  1.4914 -0.8038
  454MOL0     H61266   2.158  -0.184   6.897  1.2117  4.0632 -1.1637
  454MOL0     H61267   2.147  -0.230   6.726 -0.5142  1.4951  1.1028
  454MOL0     H61268   2.318  -0.340   6.936 -1.7382 -0.5923  1.2082
  454MOL0     H61269   2.363  -0.349   6.755  0.6932 -0.2578  1.1402
  454MOL0     H61270   2.228  -0.554   6.836  1.1437  1.0427  3.3668
  454MOL0     H61271   2.156  -0.442   6.698  0.4361  0.2488  0.3023
  454MOL0     H61272   2.347  -0.028   7.427 -0.4101  0.4358 -1.5567
  454MOL0     H61273   2.385   0.048   7.639 -1.6797 -0.8347  1.0823
  454MOL0     H61274   2.210   0.404   7.936  0.1040 -2.8504 -0.9591
  454MOL0     H61275   2.188   0.481   8.169  0.7216  2.1542 -0.2633
  454MOL0     H61276   1.260   1.294   9.506 -0.6724  2.9577 -0.7649
  454MOL0     H61277   1.133   1.384   9.698 -0.6071  2.1042  0.0132
  454MOL0     H61278   1.049   1.366  10.061  1.0342  0.5381  0.0430
  454MOL0     H61279   0.909   1.323  10.241 -3.7728  2.7976  0.6815
  454MOL0     H61280   0.899   1.260  10.483 -1.9231 -1.0032  0.5138
  454MOL0     H61281   0.815   1.349  10.612  1.2339 -1.4265  0.2191
  454MOL0     H61282   0.624   1.282  10.488 -2.5786 -0.9807 -3.3214
  454MOL0     H61283   0.717   1.269  10.341 -1.9244  1.6388 -1.4738
  454MOL0     H61284   0.725   1.510  10.337  0.6282  0.5882  0.6645
  454MOL0     H61285   0.635   1.535  10.473 -2.2278  0.9025 -1.7768
  454MOL0     H61286   0.518   1.359  10.242 -2.4278 -1.4689  0.7223
  454MOL0     H61287   0.487   1.525  10.233 -2.0595 -0.8271 -0.4396
  454MOL0     H61288   0.203   1.326  10.506 -1.7728 -3.1536 -4.4954
  454MOL0     H61289   1.075   1.659  10.452 -1.3572  0.1586 -0.0214
  454MOL0     H61290   1.239   1.687  10.269 -1.2754  1.8001 -0.2930
  455MOL0     O61291   3.385   8.519  11.372  0.0424 -0.1416  0.3083
  455MOL0     C61292   3.442   8.610  11.425  0.1741 -0.6939 -0.2265
  455MOL0     O61293   3.501   8.604  11.553  0.7283  0.0421  0.6280
  455MOL0     C61294   3.460   8.505  11.634 -0.0450  0.1442 -0.4397
  455MOL0     C61295   3.532   8.385  11.634  0.3188  0.0599 -0.6382
  455MOL0     C61296   3.476   8.276  11.705 -0.2828 -0.2080 -0.8633
  455MOL0     C61297   3.360   8.296  11.784 -0.1354  0.3882  0.4939
  455MOL0     O61298   3.328   8.198  11.875 -0.1799 -0.4074 -0.0794
  455MOL0     C61299   3.329   8.065  11.840  0.3993 -0.7455  0.4367
  455MOL0     C61300   3.258   7.984  11.939  0.7190  0.5110  0.2631
  455MOL0     C61301   3.110   8.026  11.941  0.1145 -0.2657  0.1728
  455MOL0     C61302   3.030   7.949  12.042 -0.4339  0.4994 -0.1438
  455MOL0     C61303   2.897   8.011  12.068  0.4937 -0.5387  0.6917
  455MOL0     C61304   2.797   7.919  12.150 -0.7701  0.1173  0.8163
  455MOL0     C61305   2.671   7.995  12.205 -0.0642  0.1635  1.2026
  455MOL0     C61306   2.608   7.907  12.321 -0.6138  0.2980  0.4446
  455MOL0     N61307   2.497   7.965  12.389 -0.5820  0.2083 -0.6320
  455MOL0     C61308   2.507   8.070  12.477 -0.2741 -0.3961 -0.1907
  455MOL0     C61309   2.380   8.114  12.499 -0.0891 -0.1063  1.1342
  455MOL0     C61310   2.338   8.237  12.579 -0.0127 -0.0948  0.2252
  455MOL0     C61311   2.368   8.230  12.729  0.2524 -0.3407  0.2745
  455MOL0     C61312   2.330   8.365  12.799 -0.4971 -0.4200  0.0362
  455MOL0     C61313   2.364   8.358  12.944 -0.1473  0.4002  0.4313
  455MOL0     O61314   2.503   8.367  12.955  0.3426 -0.4394 -0.6756
  455MOL0     C61315   2.553   8.387  13.083  0.9844 -0.4110  1.2693
  455MOL0     C61316   2.691   8.389  13.100  0.7076  0.1833 -0.4366
  455MOL0     C61317   2.756   8.414  13.223  0.5728  0.6042  0.9235
  455MOL0     C61318   2.903   8.448  13.216 -0.3499 -0.4854 -0.4783
  455MOL0     C61319   2.672   8.430  13.337 -0.4248  0.1101 -0.0755
  455MOL0     C61320   2.725   8.448  13.473 -0.9445 -0.5126  0.1705
  455MOL0     O61321   2.637   8.516  13.563  0.0236  0.6917  0.2601
  455MOL0     C61322   2.665   8.530  13.692  0.0855 -0.2599  0.2664
  455MOL0     C61323   2.600   8.636  13.755  0.0750 -0.6403  0.1499
  455MOL0     C61324   2.625   8.674  13.887 -0.1273  0.2991  0.3721
  455MOL0     C61325   2.706   8.585  13.965  0.4346 -0.6013  0.0007
  455MOL0     O61326   2.731   8.612  14.100 -0.0193 -0.6563  0.1518
  455MOL0     C61327   2.733   8.511  14.200 -0.8494 -0.2393  0.0030
  455MOL0     C61328   2.600   8.459  14.244 -0.0690 -0.8379  0.3329
  455MOL0     C61329   2.510   8.579  14.291 -1.0266 -0.0016  1.0371
  455MOL0     C61330   2.392   8.543  14.369 -0.4380  0.1309  0.9949
  455MOL0     C61331   2.297   8.663  14.389 -0.8647 -1.0900  0.9670
  455MOL0     C61332   2.177   8.642  14.485  0.4896 -0.5430  0.3289
  455MOL0     C61333   2.204   8.567  14.618 -0.0574 -0.3225  0.5325
  455MOL0     C61334   2.095   8.603  14.716 -0.6341  0.7302  0.6708
  455MOL0    Cl61335   1.942   8.538  14.643  0.2504  0.3060  0.0843
  455MOL0     C61336   2.752   8.463  13.914  0.0007  0.1586  0.4406
  455MOL0     C61337   2.727   8.435  13.779  0.6644 -1.0907  0.5586
  455MOL0     O61338   2.839   8.410  13.503 -0.5187 -0.2314  0.0615
  455MOL0     C61339   2.537   8.414  13.322  0.9400 -0.1804  0.1385
  455MOL0     C61340   2.480   8.386  13.195 -0.4931 -0.4331 -0.9979
  455MOL0     N61341   2.296   8.021  12.431  0.1162 -0.0952  0.2721
  455MOL0     N61342   2.366   7.938  12.352 -0.7294 -1.2481 -0.3969
  455MOL0     C61343   3.303   8.420  11.785  0.1097 -0.2582  0.0904
  455MOL0     C61344   3.345   8.525  11.707 -0.6528 -0.5486 -0.4719
  455MOL0     C61345   3.465   8.735  11.349  0.5085 -0.2563  0.7796
  455MOL0     C61346   3.565   8.829  11.397  0.1450  0.7148  0.1033
  455MOL0     C61347   3.586   8.953  11.341  0.2546  0.1557 -0.6498
  455MOL0     C61348   3.525   8.984  11.211  0.9549 -0.6103  0.2397
  455MOL0     O61349   3.545   9.104  11.146  0.5559 -0.1118  0.0441
  455MOL0     C61350   3.648   9.189  11.193  0.1197  0.6007 -0.1391
  455MOL0     C61351   3.656   9.300  11.085 -0.8965 -0.5215 -0.0610
  455MOL0     C61352   3.531   9.394  11.065 -0.7040 -0.0021 -0.4483
  455MOL0     C61353   3.570   9.542  11.028  0.5794 -1.0146 -0.5079
  455MOL0     C61354   3.546   9.558  10.887 -0.5494 -0.1155  0.2186
  455MOL0     C61355   3.534   9.577  10.767  0.3812 -0.1541  0.5473
  455MOL0     C61356   3.428   8.893  11.160  0.2992  0.4089 -0.5500
  455MOL0     C61357   3.396   8.778  11.230 -0.7905 -0.0016 -0.0319
  455MOL0     H61358   3.621   8.357  11.581  0.0628  0.3745 -1.2413
  455MOL0     H61359   3.534   8.184  11.707  0.5710  0.1009  4.4254
  455MOL0     H61360   3.289   8.039  11.741 -2.4555 -0.1996  1.3400
  455MOL0     H61361   3.432   8.031  11.853  0.6159 -0.1019  0.4381
  455MOL0     H61362   3.273   7.879  11.911  2.5550  0.8490 -0.1667
  455MOL0     H61363   3.293   7.992  12.043 -3.2022  0.6728  1.7527
  455MOL0     H61364   3.097   8.133  11.961  1.1895  0.0309 -0.6319
  455MOL0     H61365   3.069   8.016  11.840  0.6253  0.0919 -0.0769
  455MOL0     H61366   3.016   7.846  12.007 -0.7421 -0.0019  1.3525
  455MOL0     H61367   3.089   7.943  12.135 -0.5804 -2.3697 -0.1297
  455MOL0     H61368   2.917   8.098  12.131  1.9406  0.0656 -0.5274
  455MOL0     H61369   2.859   8.044  11.971  2.7568 -0.6616 -0.2981
  455MOL0     H61370   2.769   7.838  12.083  0.9906 -1.0021  1.3836
  455MOL0     H61371   2.857   7.882  12.233  2.2938  1.3616 -0.6939
  455MOL0     H61372   2.689   8.095  12.243  2.4519 -0.2276  1.1831
  455MOL0     H61373   2.602   8.019  12.123  0.7734 -2.0266 -0.2324
  455MOL0     H61374   2.688   7.903  12.395 -0.1622 -3.6579 -0.0488
  455MOL0     H61375   2.588   7.806  12.284 -0.8382  0.3388  0.4512
  455MOL0     H61376   2.598   8.105  12.524 -0.2764 -1.9850  1.1033
  455MOL0     H61377   2.391   8.325  12.541  0.1676 -0.2250  0.1723
  455MOL0     H61378   2.232   8.254  12.561  0.4795  3.1591 -0.1889
  455MOL0     H61379   2.473   8.205  12.745  0.6726  1.9711  1.7067
  455MOL0     H61380   2.305   8.151  12.770 -1.8264  1.4332  0.7111
  455MOL0     H61381   2.221   8.373  12.785 -0.5407  1.4603  1.1188
  455MOL0     H61382   2.379   8.449  12.749  1.7083 -0.7083  1.5899
  455MOL0     H61383   2.326   8.263  12.981  0.1637 -0.8429 -2.2050
  455MOL0     H61384   2.310   8.441  12.990 -0.0723  1.4095 -1.2123
  455MOL0     H61385   2.756   8.404  13.015  1.6453  0.4320  0.3183
  455MOL0     H61386   2.926   8.525  13.291  1.9811 -0.0185 -1.6073
  455MOL0     H61387   2.970   8.363  13.234 -1.1138 -0.8004  1.1212
  455MOL0     H61388   2.924   8.491  13.118 -1.7407 -0.5576 -0.8319
  455MOL0     H61389   2.554   8.711  13.691  0.1719  1.0165  1.9325
  455MOL0     H61390   2.591   8.767  13.931 -0.5155  0.5979 -0.5480
  455MOL0     H61391   2.786   8.422  14.165  2.2483  1.6101 -0.3731
  455MOL0     H61392   2.779   8.550  14.291 -2.4995  0.8319  0.4232
  455MOL0     H61393   2.562   8.398  14.162  2.3854 -1.0539 -0.7246
  455MOL0     H61394   2.617   8.393  14.329  0.7005  1.0403  1.7237
  455MOL0     H61395   2.488   8.631  14.197  2.5169 -1.1827 -0.6325
  455MOL0     H61396   2.568   8.649  14.350 -0.0438  0.5992 -0.5813
  455MOL0     H61397   2.342   8.464  14.312  1.6301  0.1649 -1.0244
  455MOL0     H61398   2.429   8.510  14.466  0.8549  1.0239  0.8320
  455MOL0     H61399   2.272   8.711  14.293  0.1318  1.1321  1.7530
  455MOL0     H61400   2.356   8.742  14.435 -2.6009  0.4035  0.7422
  455MOL0     H61401   2.134   8.740  14.507  1.2739 -0.0516 -0.2915
  455MOL0     H61402   2.102   8.588  14.427  0.4734 -3.3955  2.7673
  455MOL0     H61403   2.301   8.593  14.661  1.2866 -1.0443 -1.8647
  455MOL0     H61404   2.204   8.461  14.589 -0.5602  0.0414 -0.8857
  455MOL0     H61405   2.092   8.711  14.733  2.9171  1.5244 -2.3618
  455MOL0     H61406   2.130   8.546  14.802  2.5761  0.7051 -0.4774
  455MOL0     H61407   2.825   8.403  13.968  0.6545 -1.4937 -2.0841
  455MOL0     H61408   2.754   8.338  13.737  1.5023 -0.4074 -0.5521
  455MOL0     H61409   2.477   8.430  13.411 -0.6590  2.7490 -1.3499
  455MOL0     H61410   2.373   8.372  13.200 -0.2720 -1.8408  1.4270
  455MOL0     H61411   3.221   8.437  11.854  0.0531 -1.4862  0.3558
  455MOL0     H61412   3.294   8.620  11.700  0.7301  0.3620  1.1081
  455MOL0     H61413   3.630   8.802  11.479  1.0005 -1.0859 -1.0830
  455MOL0     H61414   3.666   9.002  11.395 -1.0248 -0.2060  1.7351
  455MOL0     H61415   3.615   9.226  11.291  1.0851 -0.3500  0.5708
  455MOL0     H61416   3.739   9.131  11.211  0.2109 -0.1006 -2.5113
  455MOL0     H61417   3.694   9.240  11.002  0.6256 -0.8410  0.8395
  455MOL0     H61418   3.740   9.367  11.104 -1.4987  0.1049  0.4919
  455MOL0     H61419   3.478   9.402  11.160 -0.3077  0.6298 -0.2796
  455MOL0     H61420   3.457   9.354  10.995 -0.6429 -0.4240 -0.2778
  455MOL0     H61421   3.673   9.575  11.041 -0.6604  3.1974 -0.1542
  455MOL0     H61422   3.498   9.613  11.070 -1.6764 -2.6023 -1.5006
  455MOL0     H61423   3.504   9.588  10.665 -1.1450 -0.6463  0.9190
  455MOL0     H61424   3.368   8.905  11.070 -1.4919 -0.7625  0.4245
  455MOL0     H61425   3.313   8.717  11.194 -0.2405 -0.3040 -0.8325
  456MOL0     O61426  10.442   2.242   7.231 -0.8250 -0.3327 -0.1443
  456MOL0     C61427  10.454   2.251   7.356 -0.2207  0.3189  0.5997
  456MOL0     O61428  10.561   2.207   7.426 -0.0493  0.4417  0.6276
  456MOL0     C61429  10.660   2.127   7.362 -0.1811 -0.8665  0.3868
  456MOL0     C61430  10.642   2.035   7.260 -0.0698 -0.0286  1.1256
  456MOL0     C61431  10.751   2.006   7.174  0.4651  0.6566  0.7148
  456MOL0     C61432  10.888   2.041   7.208 -0.3748  0.8409 -0.6035
  456MOL0     O61433  10.999   2.012   7.135 -0.0260  0.9902  0.0102
  456MOL0     C61434  10.987   1.925   7.022 -0.1247  0.0672  0.5909
  456MOL0     C61435  11.132   1.864   7.001  0.2592  0.1817  0.0382
  456MOL0     C61436  11.179   1.765   7.108  0.1637  0.7518  0.0897
  456MOL0     C61437  11.323   1.740   7.084  0.7967 -0.8556 -0.0596
  456MOL0     C61438  11.379   1.644   7.190  0.3700 -0.7584  0.5672
  456MOL0     C61439  11.531   1.662   7.186  0.6503 -0.1015  0.7408
  456MOL0     C61440  11.592   1.586   7.066  0.6959  0.5556 -0.0913
  456MOL0     C61441  11.745   1.598   7.076  0.7828  0.1644  0.1591
  456MOL0     N61442  11.791   1.739   7.071  0.2080 -0.1457 -0.5489
  456MOL0     C61443  11.763   1.839   6.980  0.3874  0.0950 -1.0294
  456MOL0     C61444  11.840   1.943   7.007  0.7658 -0.2028  0.2133
  456MOL0     C61445  11.830   2.076   6.953  0.8169  0.0534  0.6137
  456MOL0     C61446  11.793   2.085   6.809  0.0401  0.0892 -0.0691
  456MOL0     C61447  11.760   2.216   6.750  0.6715  0.0005 -0.3314
  456MOL0     C61448  11.783   2.212   6.599  0.3299  0.2767  0.3749
  456MOL0     O61449  11.706   2.106   6.543 -0.0401 -0.4325  0.4124
  456MOL0     C61450  11.567   2.130   6.537  0.0886  0.1105  0.8452
  456MOL0     C61451  11.472   2.038   6.590 -0.7372 -0.1475  0.0724
  456MOL0     C61452  11.331   2.071   6.592  0.3009  0.1581 -0.0770
  456MOL0     C61453  11.241   1.970   6.646 -0.0200 -0.1900  0.3247
  456MOL0     C61454  11.290   2.190   6.537  0.1624 -0.3829 -0.1422
  456MOL0     C61455  11.156   2.246   6.536  0.0694 -0.0076 -0.4665
  456MOL0     O61456  11.054   2.167   6.568  0.8526 -0.2855  0.6978
  456MOL0     C61457  10.936   2.190   6.491 -0.0824  0.3271 -0.3176
  456MOL0     C61458  10.816   2.234   6.548  0.2912 -0.5318 -0.5365
  456MOL0     C61459  10.701   2.241   6.469 -0.7151 -0.3388 -0.1889
  456MOL0     C61460  10.711   2.212   6.331  0.6336  0.0292  0.1533
  456MOL0     O61461  10.593   2.221   6.264  0.5996 -0.6002 -0.2678
  456MOL0     C61462  10.586   2.264   6.123  0.4471  0.2786 -0.2440
  456MOL0     C61463  10.445   2.278   6.079  0.6601  0.1805 -0.1587
  456MOL0     C61464  10.353   2.161   6.077  0.0274  0.5965 -0.6187
  456MOL0     C61465  10.373   2.074   5.948  0.4638  0.8009 -0.8725
  456MOL0     C61466  10.260   1.963   5.944 -0.5404  0.4947 -0.3829
  456MOL0     C61467  10.269   1.884   5.812  1.0421  0.2700  0.8679
  456MOL0     C61468  10.142   1.810   5.779 -0.0396  0.8884  0.9320
  456MOL0     C61469  10.034   1.908   5.725  0.2712  0.3809  0.3306
  456MOL0    Cl61470  10.083   1.980   5.569 -0.6416  0.0178 -0.3202
  456MOL0     C61471  10.836   2.173   6.274 -0.6791 -0.3227  0.5975
  456MOL0     C61472  10.950   2.165   6.353 -0.1580 -0.3967 -0.6214
  456MOL0     O61473  11.151   2.367   6.510  0.1734 -0.1872  0.1746
  456MOL0     C61474  11.384   2.277   6.471 -0.4207 -0.5987  0.2676
  456MOL0     C61475  11.516   2.245   6.468 -1.0629 -0.2033 -0.1477
  456MOL0     N61476  11.913   1.912   7.121 -0.1320 -0.0871  0.3843
  456MOL0     N61477  11.881   1.787   7.156 -0.1164 -0.2248  0.5714
  456MOL0     C61478  10.903   2.117   7.321  0.7144 -0.3048  0.4151
  456MOL0     C61479  10.793   2.160   7.401  0.0812 -0.3820 -0.2281
  456MOL0     C61480  10.334   2.303   7.428 -0.7094 -0.6615 -0.6845
  456MOL0     C61481  10.352   2.377   7.550  0.3020 -0.1789 -0.2684
  456MOL0     C61482  10.242   2.430   7.619  0.0005 -0.2090  0.5703
  456MOL0     C61483  10.114   2.427   7.570  0.0429 -0.5305 -0.0304
  456MOL0     O61484  10.031   2.502   7.649 -0.3632 -0.6063 -0.0598
  456MOL0     C61485   9.898   2.528   7.614  0.1762 -0.3656  0.3956
  456MOL0     C61486   9.801   2.472   7.715  0.2977 -0.2473 -0.6420
  456MOL0     C61487   9.665   2.537   7.705  0.1976  1.0232  0.2430
  456MOL0     C61488   9.658   2.678   7.771  0.2670 -0.7362  0.2915
  456MOL0     C61489   9.514   2.716   7.778 -0.2439  0.3864 -0.4981
  456MOL0     C61490   9.399   2.717   7.814  0.1945  0.5415 -0.1373
  456MOL0     C61491  10.091   2.356   7.457  0.3380  0.0599  0.0618
  456MOL0     C61492  10.205   2.294   7.384  0.1318  1.2168 -0.1918
  456MOL0     H61493  10.543   2.010   7.224  1.4674 -3.3046 -1.3372
  456MOL0     H61494  10.741   1.965   7.074 -2.4109 -1.8669  1.8734
  456MOL0     H61495  10.927   1.834   7.036  1.0713 -1.3284 -2.4174
  456MOL0     H61496  10.959   1.974   6.929  0.2166  0.2054  0.5623
  456MOL0     H61497  11.136   1.797   6.915  3.8815 -0.6685  0.6762
  456MOL0     H61498  11.205   1.944   6.983  2.6941 -1.3585  2.1657
  456MOL0     H61499  11.173   1.807   7.209 -0.3684 -0.5218  0.6012
  456MOL0     H61500  11.113   1.679   7.095 -0.2672  0.9861  0.7120
  456MOL0     H61501  11.355   1.719   6.981  1.6094  0.8043 -0.1939
  456MOL0     H61502  11.367   1.840   7.093  0.4216 -0.6325 -0.6452
  456MOL0     H61503  11.339   1.667   7.289  2.8134  0.1195  1.4186
  456MOL0     H61504  11.348   1.541   7.167  0.8107 -0.2017 -3.1020
  456MOL0     H61505  11.559   1.765   7.163  0.1524 -0.1934 -0.3440
  456MOL0     H61506  11.589   1.644   7.277  2.7213 -1.1871 -0.6786
  456MOL0     H61507  11.561   1.482   7.077 -0.9402  0.7029 -2.4700
  456MOL0     H61508  11.553   1.629   6.972  2.4134  1.3457 -0.4819
  456MOL0     H61509  11.790   1.544   6.992  0.5109 -1.4099  0.9888
  456MOL0     H61510  11.775   1.541   7.164  1.8369 -0.0593 -0.3295
  456MOL0     H61511  11.676   1.830   6.917  0.2624 -4.2724 -0.4842
  456MOL0     H61512  11.753   2.111   7.022  0.3491 -1.0031  0.6493
  456MOL0     H61513  11.924   2.131   6.969  0.2904  0.7056  1.6193
  456MOL0     H61514  11.711   2.019   6.778  0.2202  0.2425 -0.9028
  456MOL0     H61515  11.889   2.055   6.765  0.5913 -1.4135  2.0163
  456MOL0     H61516  11.823   2.292   6.797  0.2371  1.1126 -1.4796
  456MOL0     H61517  11.655   2.238   6.770  0.9625  0.8041  0.3764
  456MOL0     H61518  11.886   2.203   6.564 -0.5129 -1.5853 -1.9807
  456MOL0     H61519  11.759   2.306   6.547  3.9608  1.5814  0.8285
  456MOL0     H61520  11.507   1.941   6.626 -1.0712 -0.2388  0.1581
  456MOL0     H61521  11.181   2.010   6.729  1.2002  0.4879  0.9088
  456MOL0     H61522  11.189   1.927   6.560  1.1321 -0.8844 -0.0517
  456MOL0     H61523  11.309   1.898   6.692  2.2197  2.3100  1.1755
  456MOL0     H61524  10.803   2.267   6.650 -0.7486 -1.7667 -0.2366
  456MOL0     H61525  10.609   2.276   6.514 -1.0286  0.3520 -1.3038
  456MOL0     H61526  10.635   2.360   6.110 -0.2677  0.3692 -3.0086
  456MOL0     H61527  10.638   2.192   6.059  0.5651  0.4368 -0.3245
  456MOL0     H61528  10.401   2.353   6.145 -0.6794  0.8160 -1.7000
  456MOL0     H61529  10.438   2.344   5.992 -3.1151  3.3490  2.2175
  456MOL0     H61530  10.250   2.197   6.069  0.1144  0.4113 -4.2471
  456MOL0     H61531  10.367   2.100   6.167 -3.6398  0.4085 -0.0174
  456MOL0     H61532  10.366   2.136   5.858  0.7624  1.2855 -0.5647
  456MOL0     H61533  10.463   2.013   5.962 -1.1759 -0.9184  4.3866
  456MOL0     H61534  10.162   2.007   5.960 -0.2626  0.6219  1.0434
  456MOL0     H61535  10.277   1.895   6.027 -0.7421  0.0020 -0.7392
  456MOL0     H61536  10.309   1.948   5.732  1.3636  0.7388  1.3941
  456MOL0     H61537  10.347   1.812   5.838  1.9048  0.4527 -1.0829
  456MOL0     H61538  10.098   1.765   5.868 -3.8302  1.0739 -0.6663
  456MOL0     H61539  10.156   1.732   5.703 -1.0321  3.1459 -1.7300
  456MOL0     H61540  10.024   1.992   5.795 -2.1153 -1.8185  2.9227
  456MOL0     H61541   9.940   1.853   5.710  1.2243 -0.8904 -1.3385
  456MOL0     H61542  10.844   2.129   6.176  0.7128 -0.7141  0.8616
  456MOL0     H61543  11.044   2.131   6.311  0.9620  2.1562 -0.3047
  456MOL0     H61544  11.356   2.372   6.428 -0.0740 -1.2388 -1.4456
  456MOL0     H61545  11.578   2.319   6.420 -0.1784  0.5015  1.9561
  456MOL0     H61546  10.998   2.156   7.356 -1.0520  0.3977  5.2587
  456MOL0     H61547  10.801   2.233   7.481  1.1400  2.9688 -3.1357
  456MOL0     H61548  10.451   2.358   7.592 -1.0822 -3.1253  2.0646
  456MOL0     H61549  10.274   2.484   7.707  1.1265  1.5630 -0.8450
  456MOL0     H61550   9.885   2.637   7.614 -0.8134 -0.4678  0.3581
  456MOL0     H61551   9.878   2.495   7.512  2.4283  0.0043 -0.2156
  456MOL0     H61552   9.838   2.478   7.818  1.6836 -1.8886 -1.0044
  456MOL0     H61553   9.799   2.364   7.696  1.2395 -0.3970  0.0297
  456MOL0     H61554   9.588   2.474   7.750  2.1832  1.7485  5.2723
  456MOL0     H61555   9.643   2.532   7.598  1.7246  1.2058 -0.0967
  456MOL0     H61556   9.705   2.752   7.706  0.7792 -0.3281  1.1138
  456MOL0     H61557   9.700   2.682   7.871 -0.2033 -2.9815  0.6251
  456MOL0     H61558   9.302   2.702   7.858  1.4352  0.3849  2.7351
  456MOL0     H61559   9.988   2.352   7.423 -0.0721  0.2126  1.2392
  456MOL0     H61560  10.198   2.261   7.281  0.4552  0.9620 -0.1353
  457MOL0     O61561   3.852   6.139   0.879 -0.0343  0.1112 -0.2168
  457MOL0     C61562   3.842   6.259   0.855  0.2218 -0.4590  0.3892
  457MOL0     O61563   3.755   6.317   0.763  0.3043 -0.0577  0.0922
  457MOL0     C61564   3.649   6.248   0.719  0.4985  0.6291 -0.2730
  457MOL0     C61565   3.660   6.141   0.632 -0.8978 -0.3587 -0.9547
  457MOL0     C61566   3.550   6.054   0.603 -0.2032  0.5558  0.3662
  457MOL0     C61567   3.423   6.085   0.661  0.2949 -0.6899 -0.4348
  457MOL0     O61568   3.319   6.003   0.620 -0.2322  0.4272  0.0037
  457MOL0     C61569   3.190   5.999   0.684 -0.3389  0.5119 -0.9362
  457MOL0     C61570   3.178   5.934   0.825  0.7236  0.0486  0.9545
  457MOL0     C61571   3.162   5.785   0.813 -0.1471 -0.1709 -0.1918
  457MOL0     C61572   3.119   5.726   0.952 -0.5631  0.3690 -0.6649
  457MOL0     C61573   3.133   5.570   0.967  0.0285 -0.1479  0.8090
  457MOL0     C61574   3.044   5.499   0.863  0.1441  0.0811 -0.8217
  457MOL0     C61575   3.059   5.350   0.869 -0.1364 -0.6545  0.0700
  457MOL0     C61576   2.946   5.287   0.797 -0.1096  0.4709  0.7264
  457MOL0     N61577   2.944   5.324   0.650  0.0107  0.2765 -0.2756
  457MOL0     C61578   3.031   5.287   0.552 -0.8423  0.0162 -0.0083
  457MOL0     C61579   2.963   5.317   0.435 -0.0306  0.1273 -0.3569
  457MOL0     C61580   3.025   5.299   0.296 -0.5276  0.0364 -0.0313
  457MOL0     C61581   3.098   5.167   0.281  0.0838 -0.1844  0.1316
  457MOL0     C61582   3.013   5.050   0.206 -1.1699 -0.9304  0.0269
  457MOL0     C61583   3.092   4.926   0.180 -0.9608 -0.4008  0.2314
  457MOL0     O61584   3.171   4.920   0.061 -0.1654 -0.2036  0.7334
  457MOL0     C61585   3.307   4.882   0.066  0.0966  0.0319  0.0693
  457MOL0     C61586   3.368   4.784  -0.016  0.1197  0.3990  0.2826
  457MOL0     C61587   3.508   4.748  -0.006 -0.0008  0.6376 -0.3938
  457MOL0     C61588   3.540   4.632  -0.099 -0.0971 -0.6087 -0.0338
  457MOL0     C61589   3.592   4.830   0.067  0.3313  0.6885  0.0408
  457MOL0     C61590   3.736   4.790   0.088 -0.4148  0.9154 -0.2348
  457MOL0     O61591   3.795   4.876   0.166  0.6331  0.1757 -0.2775
  457MOL0     C61592   3.912   4.843   0.234  0.6006 -0.5228  0.2070
  457MOL0     C61593   4.017   4.936   0.238 -0.5559 -0.0525  0.3847
  457MOL0     C61594   4.125   4.910   0.322  0.6382 -0.5987  0.7098
  457MOL0     C61595   4.123   4.798   0.405  0.3712 -0.2897 -0.0836
  457MOL0     O61596   4.235   4.777   0.482 -0.0333 -0.2847 -0.5809
  457MOL0     C61597   4.315   4.673   0.433 -0.5782 -0.4062  0.8274
  457MOL0     C61598   4.422   4.612   0.531 -0.2550 -0.2860  0.6074
  457MOL0     C61599   4.539   4.544   0.461 -0.0700  0.2920 -0.2323
  457MOL0     C61600   4.589   4.420   0.542  0.2225 -0.6039 -0.3377
  457MOL0     C61601   4.726   4.382   0.506 -0.0247  0.2492  0.5374
  457MOL0     C61602   4.758   4.250   0.570 -0.3005 -0.1788  0.1570
  457MOL0     C61603   4.887   4.184   0.545 -0.0748 -0.3903  0.0164
  457MOL0     C61604   4.895   4.040   0.611 -0.6608  0.8303  0.4098
  457MOL0    Cl61605   4.786   3.924   0.519  0.3596  0.2188 -0.8116
  457MOL0     C61606   4.021   4.708   0.400 -0.1467 -0.3090 -0.9515
  457MOL0     C61607   3.914   4.730   0.325  0.4625  0.7088  0.4198
  457MOL0     O61608   3.794   4.693   0.041 -0.2981  0.5844  0.0382
  457MOL0     C61609   3.530   4.936   0.142 -0.4162  0.0735 -1.1563
  457MOL0     C61610   3.394   4.963   0.141 -0.4188  0.7942 -0.2614
  457MOL0     N61611   2.838   5.368   0.467 -0.7204 -0.0803 -0.2243
  457MOL0     N61612   2.825   5.362   0.598 -0.6795 -0.1173 -0.0030
  457MOL0     C61613   3.419   6.195   0.746  0.1261  1.2086 -0.9735
  457MOL0     C61614   3.531   6.268   0.787  0.5878 -0.2139 -0.4406
  457MOL0     C61615   3.937   6.356   0.929  0.5213  0.3160  0.1683
  457MOL0     C61616   4.030   6.316   1.014 -0.4572 -0.0056 -0.3887
  457MOL0     C61617   4.122   6.403   1.070  0.4019 -0.4221 -0.0380
  457MOL0     C61618   4.115   6.546   1.048 -0.4908 -0.7536 -0.1460
  457MOL0     O61619   4.194   6.629   1.120  0.0408 -0.8477 -0.4659
  457MOL0     C61620   4.155   6.762   1.121 -0.2905 -0.2296 -0.3050
  457MOL0     C61621   4.231   6.846   1.221 -0.4264  0.0974 -0.5167
  457MOL0     C61622   4.183   6.989   1.227 -0.2559 -0.7409  0.8764
  457MOL0     C61623   4.205   7.073   1.098  0.1871  0.1764  0.5640
  457MOL0     C61624   4.342   7.093   1.082 -0.5950  0.1080 -0.1282
  457MOL0     C61625   4.456   7.126   1.058  0.9469  0.0856  0.4203
  457MOL0     C61626   4.021   6.592   0.951 -0.3520  0.3872 -0.3110
  457MOL0     C61627   3.938   6.492   0.891 -0.4360  0.1725 -0.1980
  457MOL0     H61628   3.759   6.128   0.589 -0.7707 -1.4140 -0.3566
  457MOL0     H61629   3.563   5.974   0.530  0.3704 -0.4278  1.5164
  457MOL0     H61630   3.165   6.105   0.694 -1.7543 -0.0122  2.8222
  457MOL0     H61631   3.122   5.943   0.620  1.5656 -0.5043 -2.1701
  457MOL0     H61632   3.262   5.960   0.890  1.1512  2.7157 -0.5305
  457MOL0     H61633   3.097   5.990   0.873  0.7828 -0.8436  2.1484
  457MOL0     H61634   3.091   5.751   0.737 -1.3235  0.5799  0.5276
  457MOL0     H61635   3.258   5.739   0.789 -0.0915  1.0134 -2.4922
  457MOL0     H61636   3.185   5.763   1.032 -0.9217  0.1314 -0.2579
  457MOL0     H61637   3.019   5.763   0.976  0.0229 -0.2042  3.5927
  457MOL0     H61638   3.235   5.531   0.969 -1.0698 -3.3730  3.0981
  457MOL0     H61639   3.089   5.547   1.065  2.6059 -0.1333  2.0606
  457MOL0     H61640   2.937   5.524   0.867 -0.3805 -0.7071 -4.9751
  457MOL0     H61641   3.070   5.536   0.764 -2.4883  1.8192 -0.9828
  457MOL0     H61642   3.155   5.339   0.819  0.7936  0.0670  1.5931
  457MOL0     H61643   3.071   5.315   0.972  0.7265 -2.1735 -0.5288
  457MOL0     H61644   2.851   5.316   0.843  2.4508  2.2078  5.5925
  457MOL0     H61645   2.969   5.180   0.806  1.2256  0.7571  0.9485
  457MOL0     H61646   3.129   5.240   0.560 -1.2143 -0.6088  1.0237
  457MOL0     H61647   2.958   5.316   0.211 -1.8701 -3.2550  0.2175
  457MOL0     H61648   3.104   5.373   0.282 -0.0354 -0.9279 -2.9610
  457MOL0     H61649   3.124   5.136   0.382  1.0120  0.5876  0.1490
  457MOL0     H61650   3.189   5.176   0.220 -0.6822 -3.3117 -1.6781
  457MOL0     H61651   2.976   5.091   0.112 -0.5711 -0.3424  0.0344
  457MOL0     H61652   2.927   5.021   0.266  0.9385 -2.0817  2.7328
  457MOL0     H61653   3.016   4.847   0.180 -2.2551  0.7939 -0.8707
  457MOL0     H61654   3.164   4.917   0.262 -1.6789  1.6304  1.1561
  457MOL0     H61655   3.290   4.731  -0.070 -0.6665  2.0580 -0.2705
  457MOL0     H61656   3.451   4.608  -0.159  0.2249  0.0217 -0.7831
  457MOL0     H61657   3.628   4.663  -0.155 -1.3449 -0.0975 -1.8146
  457MOL0     H61658   3.556   4.542  -0.039 -3.9749 -0.7927  1.0407
  457MOL0     H61659   3.997   5.026   0.181 -2.5683 -2.1344 -2.5323
  457MOL0     H61660   4.214   4.971   0.312  0.8611 -0.8943  0.8655
  457MOL0     H61661   4.249   4.595   0.393 -2.7628  0.8056  1.8555
  457MOL0     H61662   4.375   4.709   0.349 -2.6919 -0.2784 -0.7258
  457MOL0     H61663   4.465   4.688   0.597  2.6751  0.2379 -1.7060
  457MOL0     H61664   4.369   4.555   0.608 -0.5637 -1.7499 -0.6485
  457MOL0     H61665   4.628   4.607   0.459 -0.5828  1.0225 -0.3818
  457MOL0     H61666   4.523   4.508   0.359  4.7949  0.4350 -1.2432
  457MOL0     H61667   4.569   4.444   0.647 -1.3153  2.9483 -1.2943
  457MOL0     H61668   4.515   4.344   0.517 -2.6105  1.7233  0.3795
  457MOL0     H61669   4.798   4.458   0.538 -1.4642  1.5737  0.7570
  457MOL0     H61670   4.731   4.375   0.397 -1.9811 -0.8455  0.4722
  457MOL0     H61671   4.728   4.259   0.675 -2.9095  1.4093 -0.6235
  457MOL0     H61672   4.692   4.173   0.528 -0.7167 -0.2158  0.8739
  457MOL0     H61673   4.960   4.244   0.599  0.3152 -0.9526  0.1234
  457MOL0     H61674   4.913   4.174   0.440 -0.9288 -0.3665 -0.2090
  457MOL0     H61675   4.849   4.042   0.711  2.7364  2.9222  2.1241
  457MOL0     H61676   4.998   4.005   0.621 -0.6229  0.3375 -1.4272
  457MOL0     H61677   4.032   4.626   0.470 -0.8158  0.6225  0.2932
  457MOL0     H61678   3.831   4.661   0.337 -0.8710  1.5039 -3.1123
  457MOL0     H61679   3.592   4.978   0.220 -2.4092 -1.1188  1.1805
  457MOL0     H61680   3.372   5.046   0.207  2.5771 -0.9068  3.2716
  457MOL0     H61681   3.326   6.224   0.794  0.4954 -0.2448  0.7803
  457MOL0     H61682   3.547   6.335   0.871  2.1059  0.7771 -1.4734
  457MOL0     H61683   4.034   6.212   1.045 -0.0584 -0.3056 -1.3911
  457MOL0     H61684   4.187   6.353   1.142 -1.0713 -0.0355  1.6388
  457MOL0     H61685   4.166   6.815   1.025 -0.4099 -0.7777 -0.6272
  457MOL0     H61686   4.049   6.766   1.147 -0.1585 -0.5862  0.3017
  457MOL0     H61687   4.335   6.861   1.189 -1.1568  4.2779 -1.4572
  457MOL0     H61688   4.241   6.802   1.321 -1.7893  3.5330  1.2826
  457MOL0     H61689   4.232   7.048   1.305  0.0417 -0.5636  0.5590
  457MOL0     H61690   4.075   6.988   1.246 -0.0765 -0.0833  2.0314
  457MOL0     H61691   4.159   7.172   1.110 -0.0523  0.0385  0.7846
  457MOL0     H61692   4.155   7.031   1.010 -2.0046  1.3298  1.1598
  457MOL0     H61693   4.560   7.138   1.035  1.1499 -0.4007  1.0472
  457MOL0     H61694   4.014   6.696   0.922 -0.2531  0.8666  1.2631
  457MOL0     H61695   3.865   6.521   0.815 -3.8662 -4.1939  1.0053
  458MOL0     O61696  10.531   3.802   2.867 -0.0095 -0.2681  0.0014
  458MOL0     C61697  10.479   3.906   2.917 -0.0438  0.6551 -0.1359
  458MOL0     O61698  10.490   3.952   3.050  0.5682  0.0039 -0.0189
  458MOL0     C61699  10.536   3.861   3.148 -0.1899 -0.6932  0.4010
  458MOL0     C61700  10.450   3.828   3.252  0.2177 -0.1418  0.9483
  458MOL0     C61701  10.478   3.739   3.354 -0.4007 -0.6917  0.4216
  458MOL0     C61702  10.602   3.689   3.358 -0.4866  0.2797  0.5303
  458MOL0     O61703  10.656   3.614   3.469  0.8741  0.1000 -0.7119
  458MOL0     C61704  10.559   3.543   3.545 -0.3951 -0.5876 -1.7365
  458MOL0     C61705  10.614   3.489   3.675 -0.4740  0.0444 -0.0785
  458MOL0     C61706  10.717   3.378   3.665 -0.3366  0.4508 -0.2466
  458MOL0     C61707  10.780   3.361   3.810  0.0453 -1.1831 -0.5417
  458MOL0     C61708  10.914   3.280   3.781 -0.0824  0.4554  0.4769
  458MOL0     C61709  11.002   3.263   3.913  0.1908 -0.0832  0.0943
  458MOL0     C61710  11.137   3.189   3.901 -0.1531  0.5828  0.2195
  458MOL0     C61711  11.150   3.087   4.017  0.8018 -0.8286  0.1816
  458MOL0     N61712  11.283   3.032   4.017 -0.0884  0.0832  0.7447
  458MOL0     C61713  11.396   3.105   4.029 -0.2346  0.1755  0.6672
  458MOL0     C61714  11.496   3.017   4.008 -0.4517  0.6141  0.1512
  458MOL0     C61715  11.649   3.045   4.021  0.8973  0.2318 -1.1017
  458MOL0     C61716  11.712   2.935   4.109 -0.7471  0.1034  1.2559
  458MOL0     C61717  11.866   2.916   4.092  0.1863  0.8342  0.8028
  458MOL0     C61718  11.942   3.035   4.153 -0.2717  0.3160 -0.4239
  458MOL0     O61719  11.926   3.157   4.087  0.2497  0.4038  0.2655
  458MOL0     C61720  11.959   3.163   3.959  0.1205  0.2443  0.0553
  458MOL0     C61721  12.088   3.110   3.905  0.7500  0.2171  0.2284
  458MOL0     C61722  12.115   3.115   3.761  0.4349 -0.3604 -0.6535
  458MOL0     C61723  12.226   3.025   3.709 -0.1225  0.4239 -0.2672
  458MOL0     C61724  12.030   3.196   3.676  0.7252  0.0131 -0.3473
  458MOL0     C61725  12.055   3.226   3.527  0.2537  0.6912 -0.4221
  458MOL0     O61726  12.142   3.153   3.458  0.1776 -0.2992  0.5874
  458MOL0     C61727  12.176   3.206   3.336 -0.6037 -0.0759 -0.2854
  458MOL0     C61728  12.262   3.313   3.332  0.4303  0.0585  0.4581
  458MOL0     C61729  12.302   3.366   3.207 -0.8538  0.0143 -0.4519
  458MOL0     C61730  12.278   3.295   3.087 -0.9529  0.5631 -0.6431
  458MOL0     O61731  12.325   3.330   2.976 -0.6355 -0.2338 -0.1324
  458MOL0     C61732  12.353   3.238   2.871  0.0506  0.3561  0.0707
  458MOL0     C61733  12.414   3.325   2.752  0.7115  0.8591 -0.2118
  458MOL0     C61734  12.500   3.241   2.653  0.4491 -0.7731 -0.3728
  458MOL0     C61735  12.625   3.185   2.708 -0.6227 -0.6803 -0.5790
  458MOL0     C61736  12.704   3.118   2.599 -0.8803 -0.1906 -0.7777
  458MOL0     C61737  12.807   3.028   2.660 -0.0581  0.2500 -0.2304
  458MOL0     C61738  12.906   2.988   2.547 -0.9325 -0.4928 -1.4772
  458MOL0     C61739  12.846   2.930   2.420  0.0037  0.0441 -0.8154
  458MOL0    Cl61740  12.816   2.761   2.439  0.0650 -0.0073  0.0619
  458MOL0     C61741  12.181   3.191   3.096  0.5366  0.1363 -0.2817
  458MOL0     C61742  12.135   3.142   3.212 -0.4507 -0.2903  0.2007
  458MOL0     O61743  11.993   3.319   3.478  0.6132 -0.3425 -0.3134
  458MOL0     C61744  11.916   3.259   3.732 -0.2503 -0.5160  0.9113
  458MOL0     C61745  11.884   3.238   3.865 -0.5832 -0.4583  0.3827
  458MOL0     N61746  11.440   2.898   3.958  0.0815 -0.9905  0.5721
  458MOL0     N61747  11.308   2.914   3.954 -0.5323 -0.0217 -0.2505
  458MOL0     C61748  10.694   3.718   3.260 -0.5450 -0.2765  0.3770
  458MOL0     C61749  10.668   3.808   3.156 -0.4679  1.2312  0.0111
  458MOL0     C61750  10.396   3.976   2.826  0.5811 -0.9494 -0.2564
  458MOL0     C61751  10.385   3.935   2.689 -0.2377 -0.2669  0.3618
  458MOL0     C61752  10.305   4.012   2.601 -0.0616  0.3714  0.3943
  458MOL0     C61753  10.254   4.128   2.636  0.0709  0.9948  0.0525
  458MOL0     O61754  10.195   4.212   2.540  0.6976  0.7017  0.5867
  458MOL0     C61755  10.281   4.275   2.450 -0.4515 -0.2345  0.4153
  458MOL0     C61756  10.323   4.198   2.318 -0.0067  0.3903 -0.3332
  458MOL0     C61757  10.431   4.269   2.246 -0.5427 -0.0240 -0.1506
  458MOL0     C61758  10.503   4.169   2.155 -0.3508 -0.4253  0.2000
  458MOL0     C61759  10.552   4.248   2.035 -0.4521  0.2731  0.0889
  458MOL0     C61760  10.590   4.313   1.939  0.1378 -0.6600 -0.3641
  458MOL0     C61761  10.254   4.168   2.767 -0.4981 -0.5707 -0.0314
  458MOL0     C61762  10.334   4.097   2.856 -1.1838 -0.0450 -0.1491
  458MOL0     H61763  10.357   3.884   3.249  0.3793  0.1722  1.6735
  458MOL0     H61764  10.403   3.713   3.428  0.9993 -3.8916  0.8731
  458MOL0     H61765  10.475   3.604   3.582 -1.3292 -3.4972  1.4025
  458MOL0     H61766  10.504   3.464   3.492 -1.0035 -1.8380  0.6265
  458MOL0     H61767  10.644   3.576   3.734 -3.4322 -0.1835  2.0515
  458MOL0     H61768  10.535   3.439   3.733 -0.4779  1.5178  1.2582
  458MOL0     H61769  10.665   3.289   3.628 -0.7779 -0.1996  1.8165
  458MOL0     H61770  10.795   3.403   3.593 -1.0867  0.4214 -1.0986
  458MOL0     H61771  10.796   3.459   3.855  1.1551 -1.5565 -0.0662
  458MOL0     H61772  10.709   3.300   3.867 -0.1484 -0.5765 -0.1309
  458MOL0     H61773  10.892   3.176   3.755  0.1642  0.6878 -0.6846
  458MOL0     H61774  10.986   3.313   3.706 -0.9471 -1.6640 -1.3763
  458MOL0     H61775  11.037   3.363   3.939 -0.1981  0.0521  0.1070
  458MOL0     H61776  10.936   3.221   3.989 -3.1005 -3.2353 -3.9887
  458MOL0     H61777  11.155   3.147   3.801 -1.3021  2.4959 -0.8379
  458MOL0     H61778  11.207   3.272   3.906  0.0415  0.7939 -3.4448
  458MOL0     H61779  11.082   3.011   3.979  1.4389 -0.5038 -1.6626
  458MOL0     H61780  11.117   3.132   4.112 -0.5265 -0.5921 -0.3708
  458MOL0     H61781  11.410   3.207   4.065 -0.8243  1.6007 -2.7986
  458MOL0     H61782  11.695   3.032   3.923  2.6101 -0.0242 -0.2921
  458MOL0     H61783  11.660   3.146   4.062 -0.3445 -0.7109  1.7772
  458MOL0     H61784  11.653   2.844   4.097  0.5303 -0.9069  2.3342
  458MOL0     H61785  11.692   2.960   4.214 -1.3150  1.0579  0.9399
  458MOL0     H61786  11.890   2.908   3.985  1.5512  2.8601  0.9050
  458MOL0     H61787  11.905   2.832   4.149 -1.1958  1.2636  2.4760
  458MOL0     H61788  12.044   2.998   4.155 -1.7874 -4.9921 -3.2836
  458MOL0     H61789  11.907   3.047   4.256  0.1645  1.0578 -0.3551
  458MOL0     H61790  12.161   3.055   3.963  0.4052  0.1867  0.6430
  458MOL0     H61791  12.298   3.020   3.791 -1.3823 -0.4676  0.8228
  458MOL0     H61792  12.198   2.921   3.692 -3.7247  1.0766  0.8640
  458MOL0     H61793  12.285   3.070   3.628 -1.7430  1.0524 -1.1328
  458MOL0     H61794  12.292   3.364   3.424 -2.8487  3.5249 -0.1222
  458MOL0     H61795  12.358   3.458   3.210  0.1336 -0.5139 -1.6572
  458MOL0     H61796  12.415   3.157   2.908 -1.6345 -0.6053  0.8948
  458MOL0     H61797  12.262   3.196   2.827 -0.2365  1.8026 -0.7981
  458MOL0     H61798  12.333   3.370   2.694  1.4004  1.3081 -0.8268
  458MOL0     H61799  12.455   3.413   2.801 -2.1890  0.6089  3.0992
  458MOL0     H61800  12.534   3.304   2.571  3.5882 -1.0877  0.5873
  458MOL0     H61801  12.447   3.157   2.606  0.9638 -1.0604 -0.4420
  458MOL0     H61802  12.686   3.271   2.739 -2.6427  0.1701  1.2433
  458MOL0     H61803  12.606   3.116   2.790  2.1630 -1.8606 -0.8185
  458MOL0     H61804  12.738   3.187   2.521 -1.5035  0.6812 -0.3073
  458MOL0     H61805  12.635   3.061   2.537 -1.4498  0.4441 -0.7365
  458MOL0     H61806  12.851   3.075   2.748 -2.2158  2.0489  0.0037
  458MOL0     H61807  12.764   2.937   2.703  0.6868  0.5973  1.3059
  458MOL0     H61808  12.982   2.922   2.588  0.0661  1.6305  0.3312
  458MOL0     H61809  12.955   3.083   2.522 -0.5597 -0.7247 -1.6183
  458MOL0     H61810  12.903   2.938   2.327 -4.3763 -1.6473 -3.9955
  458MOL0     H61811  12.751   2.975   2.389 -2.2419 -0.4916  4.3498
  458MOL0     H61812  12.152   3.138   3.006 -2.5667  0.3139  0.4915
  458MOL0     H61813  12.079   3.050   3.220 -1.7644  0.4843  0.0679
  458MOL0     H61814  11.845   3.314   3.671 -1.1884 -2.3428  0.2980
  458MOL0     H61815  11.794   3.282   3.906  0.6613  1.4476  1.2155
  458MOL0     H61816  10.793   3.673   3.269  1.5493  4.2260  3.6787
  458MOL0     H61817  10.739   3.838   3.080 -0.2290  2.0302  0.5311
  458MOL0     H61818  10.438   3.849   2.650  0.1204  0.3867 -0.6507
  458MOL0     H61819  10.293   3.983   2.497  2.0610 -0.5866  0.3724
  458MOL0     H61820  10.247   4.378   2.436  0.7964  0.5204  2.5229
  458MOL0     H61821  10.372   4.297   2.506  0.6345  1.8269 -1.9346
  458MOL0     H61822  10.238   4.197   2.250 -1.8016  1.1450  1.7733
  458MOL0     H61823  10.366   4.100   2.342  0.6535  0.3214 -1.7249
  458MOL0     H61824  10.507   4.296   2.320  0.3597 -0.6354 -0.8373
  458MOL0     H61825  10.383   4.349   2.190 -0.1922  0.1322 -0.2327
  458MOL0     H61826  10.443   4.081   2.131  0.4477 -0.9874  0.1853
  458MOL0     H61827  10.591   4.133   2.209  1.2076  4.3729  1.3267
  458MOL0     H61828  10.626   4.374   1.859  2.6962 -1.0560  0.3760
  458MOL0     H61829  10.215   4.267   2.788 -1.8597 -0.8050 -1.2752
  458MOL0     H61830  10.333   4.130   2.960  0.3604  0.5815 -0.3028
  459MOL0     O61831   5.970   2.814   6.811  0.0008 -0.2464 -0.2631
  459MOL0     C61832   6.012   2.730   6.891  0.1324 -0.7239  0.8152
  459MOL0     O61833   5.951   2.689   7.005 -0.0470 -0.0964 -0.2235
  459MOL0     C61834   5.814   2.713   7.034 -0.7256 -0.5332  1.3268
  459MOL0     C61835   5.760   2.842   7.022 -0.0479  0.3049  0.4117
  459MOL0     C61836   5.626   2.861   7.056 -0.1379 -0.8743  0.3324
  459MOL0     C61837   5.535   2.763   7.084 -0.3684 -0.3110  0.8328
  459MOL0     O61838   5.402   2.798   7.102 -1.0826  0.1369  0.4401
  459MOL0     C61839   5.343   2.879   6.989 -0.1432  0.6231 -0.4176
  459MOL0     C61840   5.190   2.865   6.976 -0.6271 -0.2597 -0.0924
  459MOL0     C61841   5.110   2.959   7.072 -0.2320 -1.0105  0.6543
  459MOL0     C61842   5.135   2.920   7.224 -0.2125  0.1905 -0.5227
  459MOL0     C61843   5.045   2.993   7.322  0.1928 -0.0893 -1.0280
  459MOL0     C61844   5.074   2.994   7.474  0.0428  0.5823 -0.0903
  459MOL0     C61845   5.222   3.022   7.498 -0.4631  0.3127 -0.5215
  459MOL0     C61846   5.287   2.888   7.521 -0.4650 -0.1655  0.0368
  459MOL0     N61847   5.429   2.902   7.522  0.4118 -0.5279 -0.6175
  459MOL0     C61848   5.521   2.839   7.442 -0.8664 -0.2649 -0.5645
  459MOL0     C61849   5.645   2.895   7.462  0.7184 -0.6142  0.1044
  459MOL0     C61850   5.763   2.867   7.377  0.5444 -0.9419  0.2578
  459MOL0     C61851   5.880   2.865   7.482  0.1328 -0.0639  0.0083
  459MOL0     C61852   6.014   2.821   7.426 -0.3015  0.1683  0.2930
  459MOL0     C61853   6.004   2.680   7.379 -0.7026  0.5331 -0.4307
  459MOL0     O61854   6.137   2.626   7.390  0.0352  0.7401 -0.6259
  459MOL0     C61855   6.149   2.496   7.354 -0.7310 -1.1528 -0.7417
  459MOL0     C61856   6.069   2.409   7.280 -0.3559  0.1782 -0.9241
  459MOL0     C61857   6.120   2.282   7.223  0.0024 -0.3956 -0.3160
  459MOL0     C61858   6.032   2.206   7.128 -0.1432 -0.3718  0.1932
  459MOL0     C61859   6.247   2.234   7.253  0.8235  0.1826 -0.6191
  459MOL0     C61860   6.311   2.106   7.206 -0.1303 -0.7121 -0.5145
  459MOL0     O61861   6.443   2.097   7.216  0.1355  0.5556 -0.8148
  459MOL0     C61862   6.511   1.978   7.242  0.1519 -0.1676  0.7851
  459MOL0     C61863   6.516   1.877   7.149  0.0909  0.2143 -0.7581
  459MOL0     C61864   6.600   1.767   7.171  0.6609  0.2099  0.6692
  459MOL0     C61865   6.687   1.764   7.284 -0.3391  0.4931  0.9122
  459MOL0     O61866   6.793   1.679   7.312 -0.2450 -0.1607 -0.3668
  459MOL0     C61867   6.811   1.566   7.220  0.2164 -0.6756 -0.2258
  459MOL0     C61868   6.714   1.453   7.252 -0.5607  1.3105  0.0174
  459MOL0     C61869   6.705   1.331   7.146 -0.3642  0.5806 -0.0925
  459MOL0     C61870   6.614   1.225   7.206  0.2862 -0.6175 -0.6309
  459MOL0     C61871   6.691   1.125   7.288  0.0815 -0.1463  0.1711
  459MOL0     C61872   6.777   1.030   7.200  0.5807  0.1081 -0.0450
  459MOL0     C61873   6.769   0.876   7.226  0.3427  0.3550  0.5258
  459MOL0     C61874   6.620   0.823   7.216 -0.2204 -0.4531 -1.8861
  459MOL0    Cl61875   6.543   0.865   7.058  0.1164  0.4722 -0.3062
  459MOL0     C61876   6.672   1.853   7.384 -0.2424  0.0185  0.1738
  459MOL0     C61877   6.592   1.962   7.364  0.4003  0.8892  0.0501
  459MOL0     O61878   6.245   2.010   7.156 -0.1399  0.2320 -0.1876
  459MOL0     C61879   6.321   2.326   7.337  0.4005  0.9825 -0.4024
  459MOL0     C61880   6.280   2.448   7.392  1.4079  0.0379 -0.2007
  459MOL0     N61881   5.624   3.001   7.551  0.6590 -0.0853  0.1139
  459MOL0     N61882   5.497   3.003   7.591 -0.0189 -0.0967  0.0654
  459MOL0     C61883   5.590   2.631   7.100  0.4675  0.1196 -1.1392
  459MOL0     C61884   5.728   2.605   7.076 -0.9139 -0.0277 -1.5436
  459MOL0     C61885   6.140   2.664   6.867 -0.0403 -0.4331 -0.0570
  459MOL0     C61886   6.208   2.592   6.968  0.0265  0.0659  0.4102
  459MOL0     C61887   6.333   2.529   6.948  0.2168  0.1639 -0.2679
  459MOL0     C61888   6.394   2.547   6.826 -0.0910 -0.2049  1.0999
  459MOL0     O61889   6.514   2.486   6.799 -0.6065  0.1748 -0.3663
  459MOL0     C61890   6.607   2.455   6.905  0.4232 -0.3293 -1.1573
  459MOL0     C61891   6.741   2.444   6.832  0.0113  0.1140 -0.7207
  459MOL0     C61892   6.744   2.326   6.728  0.0332 -0.0839  0.9437
  459MOL0     C61893   6.858   2.237   6.776 -0.1626  0.8258  0.2157
  459MOL0     C61894   6.828   2.158   6.887 -0.5118 -0.6236 -0.8074
  459MOL0     C61895   6.776   2.105   6.988  0.1971 -0.5514 -0.1172
  459MOL0     C61896   6.321   2.611   6.718 -0.3981  0.5531  0.6208
  459MOL0     C61897   6.196   2.669   6.744 -0.1320 -0.2845  1.3585
  459MOL0     H61898   5.820   2.927   6.991 -1.6620  1.1050 -0.6579
  459MOL0     H61899   5.597   2.964   7.068  3.2094  0.2048  0.2028
  459MOL0     H61900   5.370   2.984   7.000  0.4357  0.3063  1.4926
  459MOL0     H61901   5.384   2.842   6.894 -0.5463  2.2021 -1.2399
  459MOL0     H61902   5.158   2.892   6.875 -0.4732  1.7515  0.3509
  459MOL0     H61903   5.168   2.763   7.007 -2.0048 -0.2457 -0.9253
  459MOL0     H61904   5.133   3.065   7.056 -2.1423 -0.9064 -2.0257
  459MOL0     H61905   5.004   2.943   7.051 -0.1778 -0.3265 -0.2310
  459MOL0     H61906   5.117   2.813   7.240 -1.1632  0.4683  0.3697
  459MOL0     H61907   5.239   2.936   7.251 -1.1091  1.2556  2.7997
  459MOL0     H61908   5.056   3.096   7.287  1.8886 -0.9249 -3.2775
  459MOL0     H61909   4.942   2.958   7.316  0.4140 -1.7347  2.3833
  459MOL0     H61910   5.009   3.066   7.525 -3.3638 -1.3476 -1.4019
  459MOL0     H61911   5.055   2.900   7.526  1.3818  0.5472  0.3712
  459MOL0     H61912   5.257   3.081   7.413  2.7262  0.2505  0.6162
  459MOL0     H61913   5.242   3.073   7.593  3.8764 -0.4909 -0.7877
  459MOL0     H61914   5.275   2.810   7.445 -1.4767  0.2788 -0.2755
  459MOL0     H61915   5.248   2.850   7.616 -1.3213 -0.1629 -0.3107
  459MOL0     H61916   5.492   2.764   7.371 -0.8842 -0.9000  0.1032
  459MOL0     H61917   5.749   2.773   7.323 -0.8143 -0.4769 -0.2314
  459MOL0     H61918   5.771   2.941   7.297 -2.1797  0.2126  0.9476
  459MOL0     H61919   5.845   2.824   7.578  1.0304  0.2393  0.4836
  459MOL0     H61920   5.894   2.970   7.507 -1.3507 -0.0505  0.8806
  459MOL0     H61921   6.080   2.831   7.513  0.2011  0.0926 -0.0772
  459MOL0     H61922   6.059   2.891   7.356  2.5194  0.7590  2.4945
  459MOL0     H61923   5.969   2.673   7.276  1.7226  0.1067 -1.3008
  459MOL0     H61924   5.945   2.625   7.453 -2.0280  2.5389  0.0671
  459MOL0     H61925   5.971   2.436   7.242 -0.4569 -0.5674 -1.2130
  459MOL0     H61926   6.000   2.114   7.177 -0.4492 -0.3983 -0.0536
  459MOL0     H61927   5.950   2.275   7.106  1.1814  1.6187  1.1528
  459MOL0     H61928   6.074   2.172   7.033 -2.6002  0.8231 -1.4333
  459MOL0     H61929   6.458   1.886   7.057 -3.6333  0.2135  1.3734
  459MOL0     H61930   6.619   1.689   7.097 -0.7616  1.8669 -1.5765
  459MOL0     H61931   6.794   1.592   7.115  1.9565 -0.5868 -0.5095
  459MOL0     H61932   6.912   1.525   7.226 -0.5838 -2.5710  1.4966
  459MOL0     H61933   6.740   1.407   7.348  1.0194 -2.8394 -2.1486
  459MOL0     H61934   6.616   1.500   7.260 -0.5172  1.2135  1.2606
  459MOL0     H61935   6.800   1.287   7.117  1.8922  1.2038  5.2240
  459MOL0     H61936   6.653   1.377   7.061 -1.9738 -0.6165  0.1932
  459MOL0     H61937   6.539   1.271   7.270  1.2233 -3.5630  2.8932
  459MOL0     H61938   6.577   1.166   7.121  3.2464 -0.4476 -2.1914
  459MOL0     H61939   6.611   1.061   7.326 -2.5038  1.3238 -2.3653
  459MOL0     H61940   6.752   1.167   7.369 -1.0753 -1.3078  1.6940
  459MOL0     H61941   6.747   1.045   7.096 -2.3468  1.7836  0.9414
  459MOL0     H61942   6.882   1.060   7.205  0.7644 -0.4997 -0.1700
  459MOL0     H61943   6.823   0.843   7.314  2.7024 -0.2250 -1.0428
  459MOL0     H61944   6.825   0.823   7.147 -2.7080 -1.3378 -0.6957
  459MOL0     H61945   6.555   0.870   7.290 -2.8566 -0.4826 -4.0257
  459MOL0     H61946   6.612   0.717   7.243 -1.2732 -0.0447 -0.4775
  459MOL0     H61947   6.729   1.851   7.476 -1.8848  1.7575  1.3019
  459MOL0     H61948   6.603   2.039   7.440  0.8875  1.5282 -0.6582
  459MOL0     H61949   6.418   2.295   7.376 -0.2096  0.0784  0.4592
  459MOL0     H61950   6.330   2.518   7.457 -0.2516  0.0416  1.1481
  459MOL0     H61951   5.526   2.544   7.116 -0.5218  0.5301 -2.6392
  459MOL0     H61952   5.761   2.504   7.102 -2.2884 -0.2525 -0.5391
  459MOL0     H61953   6.158   2.573   7.063  0.4816  0.1661  0.6749
  459MOL0     H61954   6.382   2.468   7.023  2.5781 -0.9891 -2.5821
  459MOL0     H61955   6.617   2.535   6.979  3.5538  0.2371 -2.0442
  459MOL0     H61956   6.578   2.363   6.957  2.3726  0.1994  1.0593
  459MOL0     H61957   6.818   2.437   6.909  1.7268  1.0001 -2.2536
  459MOL0     H61958   6.759   2.530   6.766 -2.0828 -0.2613 -1.8755
  459MOL0     H61959   6.755   2.348   6.622  1.4965 -1.2189  0.8323
  459MOL0     H61960   6.646   2.279   6.738  0.2138 -1.4721 -2.5117
  459MOL0     H61961   6.954   2.284   6.798 -0.4063  1.2613  0.3519
  459MOL0     H61962   6.872   2.164   6.696 -0.7575  0.9259  0.0191
  459MOL0     H61963   6.722   2.064   7.071 -1.6299  1.0803 -0.3995
  459MOL0     H61964   6.354   2.592   6.616  0.6935 -2.1900  1.4079
  459MOL0     H61965   6.127   2.694   6.664 -0.1287 -1.0725  1.1093
  460MOL0     O61966   7.062   8.245   2.999  0.4802 -0.1854 -0.4487
  460MOL0     C61967   7.130   8.351   3.006  1.3830 -0.2008  0.3011
  460MOL0     O61968   7.090   8.465   2.965  0.3035  0.1895  0.1000
  460MOL0     C61969   6.956   8.475   2.930 -0.8581 -0.5303 -1.2318
  460MOL0     C61970   6.914   8.452   2.797 -0.3118 -0.3842  0.0160
  460MOL0     C61971   6.782   8.476   2.758  0.6374 -0.5473  0.1368
  460MOL0     C61972   6.695   8.543   2.850  0.3733  0.0693 -0.2474
  460MOL0     O61973   6.573   8.575   2.806 -0.2363  0.5247  0.8249
  460MOL0     C61974   6.524   8.701   2.856  0.1967  0.3290 -0.7782
  460MOL0     C61975   6.428   8.763   2.747  0.3333  0.3998 -0.7978
  460MOL0     C61976   6.288   8.709   2.719 -0.2547 -0.9065  0.3612
  460MOL0     C61977   6.240   8.793   2.602  1.1373  0.8631  0.2305
  460MOL0     C61978   6.089   8.773   2.563 -0.4741 -0.8016  0.3560
  460MOL0     C61979   6.067   8.847   2.430 -0.7990 -0.4432  0.3275
  460MOL0     C61980   5.915   8.854   2.402  0.1566  0.6927  1.3306
  460MOL0     C61981   5.909   8.889   2.252 -0.4132  0.4189 -0.1054
  460MOL0     N61982   5.782   8.946   2.218  0.5600  0.1910 -0.3744
  460MOL0     C61983   5.672   8.869   2.224  0.7774  0.1160  0.3075
  460MOL0     C61984   5.580   8.964   2.197 -0.8650  0.3854 -0.1270
  460MOL0     C61985   5.435   8.933   2.174 -0.5530 -0.1242 -0.2893
  460MOL0     C61986   5.367   9.037   2.084  0.1926  0.0059 -0.0783
  460MOL0     C61987   5.232   8.984   2.040 -0.3619 -0.6068 -0.3033
  460MOL0     C61988   5.169   9.061   1.929  0.9079 -0.2212  0.7607
  460MOL0     O61989   5.200   9.204   1.930  0.3630  0.5295 -0.0658
  460MOL0     C61990   5.140   9.280   1.846  0.3775 -0.1114 -0.0423
  460MOL0     C61991   5.052   9.236   1.741 -0.8317  0.2966 -1.1716
  460MOL0     C61992   4.989   9.329   1.662 -1.5641  1.4745  0.2219
  460MOL0     C61993   4.889   9.268   1.576  0.8771 -0.1078  0.2806
  460MOL0     C61994   5.014   9.472   1.678 -0.9587 -0.0337  0.6821
  460MOL0     C61995   4.949   9.579   1.601 -0.4999  0.0964  0.1906
  460MOL0     O61996   5.004   9.707   1.605 -0.2631 -0.0535  0.2003
  460MOL0     C61997   4.912   9.808   1.593  0.1017 -0.2289  0.1423
  460MOL0     C61998   4.847   9.872   1.705 -0.2725  0.4447  0.2387
  460MOL0     C61999   4.732   9.952   1.675  0.1508 -0.1921  0.5386
  460MOL0     C62000   4.699   9.988   1.545  0.2888 -0.4117  0.1804
  460MOL0     O62001   4.603  10.083   1.519 -0.0449 -0.6871 -0.4388
  460MOL0     C62002   4.639  10.211   1.568  0.0770  0.3470  0.3248
  460MOL0     C62003   4.598  10.305   1.455 -0.1861 -0.2941  0.3581
  460MOL0     C62004   4.634  10.447   1.496 -0.1461  0.5246 -0.0292
  460MOL0     C62005   4.561  10.541   1.406 -0.3505 -0.5170  0.6685
  460MOL0     C62006   4.586  10.689   1.440 -0.7970 -0.6211  0.0714
  460MOL0     C62007   4.559  10.740   1.589 -0.6241 -0.3170  0.0918
  460MOL0     C62008   4.412  10.746   1.620  1.0201  1.1290  0.3751
  460MOL0     C62009   4.397  10.716   1.769 -0.4184  0.1662 -0.7746
  460MOL0    Cl62010   4.447  10.555   1.820  0.3847  0.0092 -0.0047
  460MOL0     C62011   4.767   9.935   1.436 -1.3278  0.7838 -0.2894
  460MOL0     C62012   4.873   9.852   1.463  0.0135  0.7848  0.0837
  460MOL0     O62013   4.836   9.551   1.562 -0.0295  1.0039  0.1255
  460MOL0     C62014   5.116   9.508   1.765 -0.8476  0.0884 -0.8873
  460MOL0     C62015   5.179   9.418   1.851 -0.0096  0.1369 -0.5351
  460MOL0     N62016   5.638   9.087   2.186 -0.0164  0.4381 -0.7856
  460MOL0     N62017   5.764   9.078   2.182 -0.2128  0.2203 -0.5095
  460MOL0     C62018   6.735   8.562   2.986 -0.2341 -0.0093  1.1771
  460MOL0     C62019   6.868   8.523   3.025 -0.1429 -0.3254  0.0280
  460MOL0     C62020   7.260   8.350   3.063  0.4459 -0.5834 -0.4441
  460MOL0     C62021   7.332   8.462   3.057 -0.1547  0.4258 -0.7941
  460MOL0     C62022   7.455   8.460   3.114  1.5562 -1.1097 -1.1017
  460MOL0     C62023   7.507   8.350   3.196 -0.1546  0.6264 -0.5697
  460MOL0     O62024   7.629   8.344   3.260  0.3519  0.3801 -0.0811
  460MOL0     C62025   7.731   8.444   3.249  0.1376  0.2825 -0.3222
  460MOL0     C62026   7.788   8.427   3.107 -0.3630  0.3781 -0.0799
  460MOL0     C62027   7.913   8.514   3.090 -0.2629  0.9349 -0.2227
  460MOL0     C62028   7.896   8.666   3.118  0.8117 -1.1886  0.8531
  460MOL0     C62029   8.014   8.741   3.075 -0.0398 -0.6836 -0.2512
  460MOL0     C62030   8.102   8.825   3.047 -0.3992  0.9391  0.1935
  460MOL0     C62031   7.421   8.235   3.204  0.3447  0.2959  0.0510
  460MOL0     C62032   7.304   8.237   3.128 -0.3808  0.1827 -0.2470
  460MOL0     H62033   6.988   8.422   2.724  0.3198 -2.2879  1.3550
  460MOL0     H62034   6.760   8.491   2.653  3.0062 -0.6995 -0.4486
  460MOL0     H62035   6.462   8.671   2.941  3.1295 -0.0202  1.3684
  460MOL0     H62036   6.600   8.770   2.894 -0.4167  0.6406 -0.0898
  460MOL0     H62037   6.407   8.864   2.783  1.9181  0.5586 -0.2645
  460MOL0     H62038   6.486   8.778   2.656  3.4842 -0.9261  0.8048
  460MOL0     H62039   6.276   8.604   2.692 -4.2931 -0.4497 -0.3627
  460MOL0     H62040   6.226   8.729   2.807 -0.3332  0.8789 -0.0714
  460MOL0     H62041   6.255   8.901   2.614 -2.6614  1.4860  0.6393
  460MOL0     H62042   6.297   8.768   2.513 -2.0998 -0.5453 -1.6292
  460MOL0     H62043   6.077   8.666   2.543  0.9417 -1.0973  0.9506
  460MOL0     H62044   6.018   8.794   2.643 -0.8701 -1.8678  0.3033
  460MOL0     H62045   6.115   8.945   2.434  0.5359 -1.1115  2.2513
  460MOL0     H62046   6.121   8.802   2.346  2.8533  0.4015  2.0376
  460MOL0     H62047   5.879   8.754   2.427 -1.1756 -0.3686 -3.7434
  460MOL0     H62048   5.862   8.921   2.470 -1.1673 -0.4506  1.4589
  460MOL0     H62049   5.928   8.794   2.202 -0.6770  0.0173  0.5515
  460MOL0     H62050   5.989   8.960   2.225 -1.5664  1.2235 -1.5792
  460MOL0     H62051   5.650   8.763   2.222 -0.6456  0.3925 -0.6268
  460MOL0     H62052   5.426   8.834   2.129 -2.5422  0.1986 -0.6733
  460MOL0     H62053   5.377   8.926   2.266 -1.3795  1.3279 -0.6751
  460MOL0     H62054   5.433   9.053   1.998  0.5021  3.7694  0.7064
  460MOL0     H62055   5.361   9.128   2.145  4.1656  0.6511 -0.3542
  460MOL0     H62056   5.168   8.989   2.128  1.6065  3.4281  1.1390
  460MOL0     H62057   5.244   8.881   2.004 -0.8269 -0.9270  0.4361
  460MOL0     H62058   5.062   9.039   1.921  0.9826  0.0941 -1.9844
  460MOL0     H62059   5.220   9.021   1.841 -0.7314 -2.5496  0.7885
  460MOL0     H62060   5.028   9.130   1.733 -2.7452  0.4843  1.2004
  460MOL0     H62061   4.890   9.159   1.572 -0.4393 -0.1213 -0.0764
  460MOL0     H62062   4.793   9.293   1.621  0.0063 -0.9639 -1.0529
  460MOL0     H62063   4.887   9.305   1.473 -0.0405  3.3852  1.4145
  460MOL0     H62064   4.872   9.865   1.810  1.4422  0.8180 -0.1255
  460MOL0     H62065   4.667   9.999   1.748 -1.9300 -0.0275 -1.2788
  460MOL0     H62066   4.575  10.221   1.656  1.2006  2.0869  0.9902
  460MOL0     H62067   4.744  10.227   1.596  0.9472  0.7029 -2.8069
  460MOL0     H62068   4.649  10.281   1.362  0.5205  1.0879  0.3759
  460MOL0     H62069   4.488  10.306   1.451 -0.3202  2.0301  2.1811
  460MOL0     H62070   4.743  10.449   1.484  0.2219 -3.4629  1.3803
  460MOL0     H62071   4.601  10.469   1.598  0.5453 -0.0515  0.3262
  460MOL0     H62072   4.590  10.515   1.303  0.2754 -0.9101  0.9321
  460MOL0     H62073   4.454  10.521   1.400 -0.2405 -1.4905  1.5046
  460MOL0     H62074   4.524  10.741   1.366 -1.4139 -1.7522 -0.2192
  460MOL0     H62075   4.692  10.712   1.426 -1.1071  0.1898 -1.2031
  460MOL0     H62076   4.622  10.675   1.651 -0.2981  0.6331  0.7730
  460MOL0     H62077   4.602  10.840   1.593 -0.9446 -0.0896 -1.6526
  460MOL0     H62078   4.362  10.673   1.556 -1.3200  2.6120  0.4189
  460MOL0     H62079   4.378  10.848   1.599 -2.4072  0.3204  1.4199
  460MOL0     H62080   4.291  10.715   1.793 -0.3784  3.5796  0.0258
  460MOL0     H62081   4.453  10.780   1.838  2.2453 -3.3999  0.6774
  460MOL0     H62082   4.760   9.973   1.335 -1.8647  0.5702 -0.3376
  460MOL0     H62083   4.924   9.800   1.382 -1.3022 -1.2224  0.4752
  460MOL0     H62084   5.149   9.612   1.773 -1.7422  0.5983 -2.9582
  460MOL0     H62085   5.252   9.448   1.925 -1.7063  2.6512  0.2496
  460MOL0     H62086   6.672   8.624   3.049 -1.4403  1.8650 -1.6768
  460MOL0     H62087   6.898   8.533   3.129 -1.4079 -0.0419  0.3886
  460MOL0     H62088   7.304   8.550   3.000 -0.2764  0.3688 -0.8233
  460MOL0     H62089   7.513   8.552   3.117 -3.6659  2.5880 -0.5966
  460MOL0     H62090   7.691   8.543   3.269  0.5948  0.7235 -1.4926
  460MOL0     H62091   7.801   8.426   3.331 -1.5223 -1.0559  0.8724
  460MOL0     H62092   7.710   8.461   3.038 -1.6485  1.3211  1.7329
  460MOL0     H62093   7.807   8.322   3.086 -0.5022  0.3411 -0.0187
  460MOL0     H62094   7.948   8.490   2.989  0.3784 -0.3488  0.2820
  460MOL0     H62095   7.989   8.485   3.164  0.2728 -0.7483 -1.3570
  460MOL0     H62096   7.881   8.684   3.225 -0.6237  0.7942  0.3848
  460MOL0     H62097   7.812   8.719   3.072  0.5187  1.1318  3.7140
  460MOL0     H62098   8.173   8.900   3.020 -3.9072  2.9457 -5.1981
  460MOL0     H62099   7.432   8.152   3.273  0.2489 -0.6733 -1.0738
  460MOL0     H62100   7.249   8.145   3.146 -0.8940  0.8300  1.8443
  461MOL0     O62101   2.397   1.643   3.363 -0.6079  0.0903 -0.6205
  461MOL0     C62102   2.343   1.754   3.350 -0.4692  0.9684  0.0918
  461MOL0     O62103   2.410   1.868   3.374  0.0438  0.6655 -0.0184
  461MOL0     C62104   2.533   1.882   3.433 -1.4576  0.1671  0.1042
  461MOL0     C62105   2.621   1.972   3.370  0.7894  0.3179  0.1791
  461MOL0     C62106   2.750   1.999   3.423  0.5192  0.4542 -0.1753
  461MOL0     C62107   2.791   1.933   3.546  0.9181  0.7036  0.4494
  461MOL0     O62108   2.919   1.949   3.590  0.1690 -0.7154 -0.5508
  461MOL0     C62109   3.000   1.839   3.571 -1.0518  0.6498 -0.7618
  461MOL0     C62110   3.149   1.868   3.619  0.1884 -0.8163 -0.3192
  461MOL0     C62111   3.160   1.939   3.756 -0.0731  0.3473 -0.3736
  461MOL0     C62112   3.095   1.845   3.855  0.0741 -0.4579 -0.7958
  461MOL0     C62113   3.096   1.920   3.998 -0.5918  0.5074  0.0833
  461MOL0     C62114   3.220   1.885   4.072  0.2925  0.8002  0.0961
  461MOL0     C62115   3.202   1.956   4.214  0.3415  0.9012  0.6891
  461MOL0     C62116   3.085   1.895   4.299 -0.2884  0.7432 -1.2516
  461MOL0     N62117   3.063   1.993   4.412 -0.1507  0.6092  1.0072
  461MOL0     C62118   2.992   2.109   4.416 -0.4185  0.0287  1.0418
  461MOL0     C62119   2.982   2.134   4.548  0.5843 -0.1530 -0.1004
  461MOL0     C62120   2.937   2.262   4.603 -0.5153 -0.6352  0.4582
  461MOL0     C62121   3.054   2.330   4.663 -0.1242  0.9413  0.3603
  461MOL0     C62122   3.138   2.401   4.555 -0.2268  0.6074  0.2885
  461MOL0     C62123   3.277   2.456   4.605  0.2452 -0.6322 -0.4889
  461MOL0     O62124   3.285   2.514   4.736  0.4903 -0.2316  0.3805
  461MOL0     C62125   3.404   2.494   4.791  0.2165 -0.8748 -0.1552
  461MOL0     C62126   3.403   2.399   4.891  0.0844  0.2464  0.3082
  461MOL0     C62127   3.511   2.359   4.970  0.1336 -0.0786  0.3521
  461MOL0     C62128   3.491   2.254   5.080  0.3665  0.6781  0.3698
  461MOL0     C62129   3.632   2.441   4.952  0.4201 -0.2748 -0.2894
  461MOL0     C62130   3.757   2.437   5.035 -0.1617 -0.4626  0.4224
  461MOL0     O62131   3.866   2.502   4.984  0.8441  0.0826 -0.2533
  461MOL0     C62132   3.986   2.467   5.024 -0.4201 -0.2211 -0.4792
  461MOL0     C62133   4.082   2.564   5.040  0.6109 -0.3956  0.4255
  461MOL0     C62134   4.207   2.526   5.099 -0.8506  0.1664  0.6326
  461MOL0     C62135   4.236   2.391   5.120  0.1505  0.7574  0.6670
  461MOL0     O62136   4.367   2.362   5.158 -0.3761  0.0642  0.0372
  461MOL0     C62137   4.394   2.236   5.231 -0.5774  0.0051  0.5589
  461MOL0     C62138   4.488   2.283   5.345  0.1889  0.2971 -0.0069
  461MOL0     C62139   4.498   2.176   5.450  0.1784 -0.6381 -0.6672
  461MOL0     C62140   4.584   2.236   5.552  0.6793 -0.9119 -0.1632
  461MOL0     C62141   4.598   2.157   5.682 -0.3473  0.1077  0.7929
  461MOL0     C62142   4.676   2.030   5.644 -0.0304  0.0052 -0.5342
  461MOL0     C62143   4.578   1.917   5.673  0.9717  1.1291 -0.0248
  461MOL0     C62144   4.649   1.792   5.633 -0.7456 -0.6755  0.2707
  461MOL0    Cl62145   4.546   1.648   5.635 -0.3808  0.6351 -0.2239
  461MOL0     C62146   4.148   2.290   5.089  0.2249  0.7653 -0.6511
  461MOL0     C62147   4.019   2.330   5.046 -0.4798 -0.5487 -0.0898
  461MOL0     O62148   3.752   2.384   5.149 -0.3527  0.0884 -0.1228
  461MOL0     C62149   3.624   2.547   4.852  0.0080 -0.3601 -0.9470
  461MOL0     C62150   3.520   2.566   4.760 -0.3136  0.1637 -0.1925
  461MOL0     N62151   3.047   2.039   4.619  0.6738 -0.2490  0.3266
  461MOL0     N62152   3.096   1.955   4.540  0.4825  0.2271 -0.1098
  461MOL0     C62153   2.712   1.829   3.600 -0.6649  0.7843 -0.4217
  461MOL0     C62154   2.586   1.809   3.544 -0.1384  0.9968 -0.1372
  461MOL0     C62155   2.206   1.763   3.309  0.3631 -0.1992 -0.4159
  461MOL0     C62156   2.129   1.649   3.272 -0.3186  0.2407  0.9084
  461MOL0     C62157   2.000   1.657   3.222 -0.2659  0.2532  0.2308
  461MOL0     C62158   1.926   1.780   3.224  0.3954  1.2795 -0.8468
  461MOL0     O62159   1.792   1.796   3.192 -0.6593  0.2140  0.1004
  461MOL0     C62160   1.721   1.695   3.116  0.0711  0.4050 -0.8695
  461MOL0     C62161   1.584   1.746   3.101  0.1850 -0.1024  0.1940
  461MOL0     C62162   1.487   1.634   3.062  0.6531  1.4905 -0.9857
  461MOL0     C62163   1.354   1.690   3.010  1.4280  0.2972 -0.1132
  461MOL0     C62164   1.248   1.583   3.009 -0.7536 -0.4937 -0.2655
  461MOL0     C62165   1.174   1.489   2.998 -0.5214 -0.0488  0.6310
  461MOL0     C62166   1.996   1.894   3.260  0.4364 -0.1459  0.8804
  461MOL0     C62167   2.136   1.878   3.302  0.6899  0.0489  0.4286
  461MOL0     H62168   2.583   2.019   3.281 -1.9003  0.7301  1.4615
  461MOL0     H62169   2.812   2.079   3.384  2.9088 -1.9244 -1.5509
  461MOL0     H62170   2.971   1.749   3.625 -1.5071  2.0148  1.3959
  461MOL0     H62171   3.002   1.807   3.467  0.8806 -0.7430 -0.3433
  461MOL0     H62172   3.209   1.778   3.633 -1.2163 -1.6581  0.6375
  461MOL0     H62173   3.190   1.946   3.554  1.6105 -0.6009  0.7814
  461MOL0     H62174   3.263   1.964   3.781  1.1932 -1.3866 -3.3561
  461MOL0     H62175   3.105   2.034   3.753  0.5535  0.7065 -0.6562
  461MOL0     H62176   2.990   1.821   3.833 -1.1569  3.7580 -0.3921
  461MOL0     H62177   3.149   1.750   3.852  0.6021 -0.1661 -0.6792
  461MOL0     H62178   3.073   2.027   3.995  1.4361  0.9627 -1.5172
  461MOL0     H62179   3.003   1.872   4.032 -2.7790  2.8676 -2.0832
  461MOL0     H62180   3.247   1.779   4.086 -0.2023  1.0138  3.4275
  461MOL0     H62181   3.308   1.928   4.022 -0.3735 -0.2544 -2.1091
  461MOL0     H62182   3.292   1.937   4.273  2.8872  1.5267 -2.6593
  461MOL0     H62183   3.197   2.063   4.193  0.7448  0.5960 -1.2001
  461MOL0     H62184   3.122   1.799   4.336 -2.8182 -0.1422 -0.7969
  461MOL0     H62185   2.990   1.865   4.253 -0.2744 -0.2016 -0.7037
  461MOL0     H62186   2.966   2.171   4.331 -0.5415  2.5360  2.8114
  461MOL0     H62187   2.894   2.317   4.519 -2.1274  0.5076  1.9593
  461MOL0     H62188   2.858   2.247   4.677 -0.5171 -0.0878  0.5697
  461MOL0     H62189   3.110   2.260   4.725 -1.5749 -0.8012 -0.1997
  461MOL0     H62190   3.032   2.414   4.729  1.4552  3.1800 -1.7734
  461MOL0     H62191   3.076   2.483   4.515  0.1997  1.5214  1.4460
  461MOL0     H62192   3.163   2.335   4.471 -1.9701  0.5345 -0.2131
  461MOL0     H62193   3.301   2.542   4.540  0.2487 -0.6405 -0.4985
  461MOL0     H62194   3.349   2.376   4.584  2.3645  0.8883  0.5332
  461MOL0     H62195   3.308   2.356   4.922  1.4836 -1.5591  2.3673
  461MOL0     H62196   3.576   2.186   5.067  0.3918  1.0662 -1.8118
  461MOL0     H62197   3.488   2.287   5.184 -1.8856 -0.2030  0.6312
  461MOL0     H62198   3.394   2.208   5.063 -1.1727  3.4610  1.0266
  461MOL0     H62199   4.071   2.669   5.014  0.1366 -0.3949  0.6219
  461MOL0     H62200   4.279   2.603   5.127  0.3986 -0.8344  0.2902
  461MOL0     H62201   4.298   2.195   5.265  0.0636 -0.6836  1.5879
  461MOL0     H62202   4.447   2.167   5.166  1.3898  0.1605  1.9034
  461MOL0     H62203   4.591   2.297   5.311  1.9139 -0.2346  4.3852
  461MOL0     H62204   4.458   2.377   5.393  2.7169 -0.1572  2.7565
  461MOL0     H62205   4.550   2.090   5.408  1.4245 -1.0556  1.5838
  461MOL0     H62206   4.404   2.147   5.497 -0.4343  1.1822 -0.6754
  461MOL0     H62207   4.686   2.253   5.516  1.0342  0.4107  1.3320
  461MOL0     H62208   4.552   2.336   5.584 -0.4295 -1.6477  1.0657
  461MOL0     H62209   4.496   2.131   5.711 -0.9209 -0.9087 -1.8866
  461MOL0     H62210   4.659   2.215   5.751 -0.0850  1.0818 -0.2297
  461MOL0     H62211   4.702   2.030   5.538 -2.0197 -0.3527 -1.0688
  461MOL0     H62212   4.771   2.023   5.698  0.0028  0.0748 -0.5833
  461MOL0     H62213   4.480   1.929   5.626 -0.6288  0.3458  2.8396
  461MOL0     H62214   4.562   1.916   5.781 -1.7442 -2.2560 -0.2973
  461MOL0     H62215   4.744   1.785   5.685  0.1559  1.6775 -0.9160
  461MOL0     H62216   4.671   1.801   5.526 -2.5054  0.3313 -0.0478
  461MOL0     H62217   4.181   2.187   5.100 -1.3352  0.1842 -1.1958
  461MOL0     H62218   3.938   2.260   5.030 -0.5075 -0.1361 -1.9531
  461MOL0     H62219   3.712   2.607   4.836 -1.5479  2.1802 -0.5392
  461MOL0     H62220   3.514   2.629   4.672 -3.3174 -0.5046 -0.5796
  461MOL0     H62221   2.754   1.764   3.676  2.8774  2.2094 -0.9781
  461MOL0     H62222   2.509   1.753   3.596 -1.2280  1.4314 -1.2333
  461MOL0     H62223   2.171   1.550   3.287  0.2502  0.3483  0.0912
  461MOL0     H62224   1.949   1.562   3.207  1.9379 -1.7232  3.9022
  461MOL0     H62225   1.766   1.679   3.018 -0.4970 -0.8172 -0.9491
  461MOL0     H62226   1.725   1.598   3.165 -1.2100  1.8746  2.4593
  461MOL0     H62227   1.562   1.829   3.034 -3.5978 -1.4296 -0.4673
  461MOL0     H62228   1.539   1.780   3.196  0.5952 -2.5771  1.3391
  461MOL0     H62229   1.477   1.567   3.148  1.4440  0.3399 -1.7746
  461MOL0     H62230   1.533   1.584   2.977  3.1532  1.6964  0.1498
  461MOL0     H62231   1.361   1.737   2.911 -1.0948  1.9615  0.4078
  461MOL0     H62232   1.319   1.759   3.087 -1.1319 -0.4087 -0.5417
  461MOL0     H62233   1.113   1.410   2.960 -1.4665  1.7654 -1.8941
  461MOL0     H62234   1.939   1.986   3.254 -0.5937 -0.8004 -0.1070
  461MOL0     H62235   2.187   1.968   3.333 -1.0223  0.8916  0.9148
  462MOL0     O62236   1.394  11.089   5.289  0.1666  0.3669  0.9801
  462MOL0     C62237   1.301  11.029   5.338 -0.5553  0.6908  0.0975
  462MOL0     O62238   1.200  11.086   5.413 -0.5319  0.4323 -0.0321
  462MOL0     C62239   1.212  11.216   5.456 -1.4061  0.4654 -0.3423
  462MOL0     C62240   1.134  11.325   5.405 -0.5586  0.1796 -0.0904
  462MOL0     C62241   1.157  11.457   5.437 -0.2498 -0.1489 -0.4776
  462MOL0     C62242   1.267  11.491   5.526  0.3899  0.4869 -0.1592
  462MOL0     O62243   1.295  11.623   5.560  0.3366 -0.1362  0.0413
  462MOL0     C62244   1.238  11.677   5.679 -0.8322  0.1460  0.1724
  462MOL0     C62245   1.358  11.706   5.782 -0.4379 -1.3435 -0.5344
  462MOL0     C62246   1.324  11.773   5.922  0.2867  0.6777  0.1015
  462MOL0     C62247   1.274  11.653   6.011  0.3819  0.4697  0.6779
  462MOL0     C62248   1.236  11.691   6.160  0.1260  0.6724  0.6180
  462MOL0     C62249   1.156  11.574   6.220  0.6327  0.3493  0.7207
  462MOL0     C62250   1.223  11.449   6.244  0.6447  0.5386 -0.2219
  462MOL0     C62251   1.147  11.359   6.346  0.0637  0.4758 -0.2893
  462MOL0     N62252   1.210  11.232   6.363  0.3361  0.9843  0.2054
  462MOL0     C62253   1.249  11.141   6.262 -0.2525  0.0448  1.1256
  462MOL0     C62254   1.253  11.027   6.324 -0.1008  1.4025  0.1881
  462MOL0     C62255   1.281  10.883   6.270 -0.4682  0.1848 -0.0024
  462MOL0     C62256   1.140  10.801   6.251  0.1572  0.6973  0.5821
  462MOL0     C62257   1.117  10.713   6.374 -0.0176 -0.0488 -0.5459
  462MOL0     C62258   1.234  10.614   6.413  0.2613  0.7761 -0.2613
  462MOL0     O62259   1.267  10.549   6.299  1.0293  0.1318 -0.4186
  462MOL0     C62260   1.207  10.434   6.254  0.0949  0.5675  0.5822
  462MOL0     C62261   1.156  10.328   6.335 -0.5270 -0.3608 -0.5822
  462MOL0     C62262   1.096  10.217   6.279  0.7671  1.0597 -0.8942
  462MOL0     C62263   1.017  10.110   6.366  0.5605  0.1218 -0.4902
  462MOL0     C62264   1.101  10.205   6.135  0.2603 -0.8251 -0.3560
  462MOL0     C62265   1.050  10.089   6.075 -0.8544 -0.4800 -0.1915
  462MOL0     O62266   1.131   9.976   6.072  0.4737  0.3755  0.0779
  462MOL0     C62267   1.086   9.853   6.019  0.5420 -0.0720  0.0648
  462MOL0     C62268   0.963   9.802   6.052  0.1645 -0.5513 -0.2468
  462MOL0     C62269   0.928   9.672   6.011  0.3564 -0.4993 -0.2372
  462MOL0     C62270   1.005   9.595   5.924  0.4190 -0.3220  0.2672
  462MOL0     O62271   0.950   9.476   5.889  0.1659  1.2898 -0.2830
  462MOL0     C62272   0.947   9.440   5.748 -0.0896  0.5949 -0.0324
  462MOL0     C62273   0.806   9.401   5.699  0.4056  0.3196  0.2051
  462MOL0     C62274   0.712   9.525   5.685  0.1430 -0.1750 -0.0183
  462MOL0     C62275   0.571   9.477   5.646 -0.0205  0.9563 -0.1870
  462MOL0     C62276   0.492   9.597   5.609  0.6896  0.2624 -0.5285
  462MOL0     C62277   0.340   9.568   5.578  0.8196 -0.5715  0.5019
  462MOL0     C62278   0.261   9.695   5.535  0.0113 -0.3737  0.6559
  462MOL0     C62279   0.318   9.741   5.410 -0.2661  0.1573  0.0779
  462MOL0    Cl62280   0.295   9.623   5.281 -0.6562 -0.0476 -0.0164
  462MOL0     C62281   1.122   9.650   5.880 -0.3804 -0.1718 -0.4107
  462MOL0     C62282   1.166   9.776   5.935 -0.1468 -0.2333 -0.5086
  462MOL0     O62283   0.942  10.104   6.025  0.3460 -0.5790 -0.4996
  462MOL0     C62284   1.165  10.299   6.052  0.1070 -0.7685  0.1940
  462MOL0     C62285   1.214  10.415   6.111 -0.1959 -1.4969 -0.4555
  462MOL0     N62286   1.222  11.041   6.458  0.5295 -0.5810  0.1894
  462MOL0     N62287   1.200  11.167   6.487  0.6271  0.7131  0.4826
  462MOL0     C62288   1.349  11.387   5.580  0.1748  1.1276  0.7061
  462MOL0     C62289   1.317  11.252   5.537  0.1421 -0.1331 -0.5298
  462MOL0     C62290   1.282  10.884   5.313 -0.8360 -0.0093 -1.1847
  462MOL0     C62291   1.385  10.806   5.267  0.0195  0.8739 -0.1513
  462MOL0     C62292   1.364  10.672   5.245  0.6386  0.5300  0.3150
  462MOL0     C62293   1.239  10.611   5.276 -0.5730 -1.4201 -1.5348
  462MOL0     O62294   1.227  10.480   5.228 -0.3669 -0.4750 -0.3710
  462MOL0     C62295   1.171  10.456   5.096 -0.4934 -0.3897 -0.1065
  462MOL0     C62296   1.260  10.507   4.972  0.3924 -0.9745 -0.4824
  462MOL0     C62297   1.375  10.413   4.952  0.1886  0.8102 -0.2196
  462MOL0     C62298   1.338  10.292   4.863  0.3471 -0.8587  0.1793
  462MOL0     C62299   1.375  10.311   4.722  0.5127  0.8558 -0.1597
  462MOL0     C62300   1.389  10.304   4.603 -0.4933  0.2048  0.1961
  462MOL0     C62301   1.128  10.696   5.310 -0.4478 -0.1557  0.7333
  462MOL0     C62302   1.153  10.833   5.333  1.0899  0.8334  0.7809
  462MOL0     H62303   1.069  11.313   5.319  1.1473  1.8789 -1.7202
  462MOL0     H62304   1.109  11.542   5.389  0.6630  0.5534 -0.1861
  462MOL0     H62305   1.207  11.781   5.662  0.1301  0.0753 -2.5098
  462MOL0     H62306   1.152  11.621   5.718  0.4383 -2.1189 -0.1260
  462MOL0     H62307   1.408  11.610   5.799  3.4678  0.4358 -0.8780
  462MOL0     H62308   1.433  11.774   5.740 -3.0136  1.2059 -1.3128
  462MOL0     H62309   1.417  11.811   5.965  0.3240 -0.0501  0.6806
  462MOL0     H62310   1.253  11.856   5.915 -0.4472  0.2557  2.0822
  462MOL0     H62311   1.186  11.610   5.962  0.9137  0.3756 -0.2163
  462MOL0     H62312   1.347  11.572   6.010 -1.2412 -1.2387 -3.7775
  462MOL0     H62313   1.330  11.697   6.215  0.4782 -2.1723  0.4926
  462MOL0     H62314   1.176  11.781   6.170 -2.9237 -1.1426  0.1291
  462MOL0     H62315   1.120  11.616   6.314 -0.1159  0.9401  0.1893
  462MOL0     H62316   1.071  11.557   6.154 -0.6891  0.8888  2.2315
  462MOL0     H62317   1.226  11.398   6.148  1.5949 -2.7245  1.3887
  462MOL0     H62318   1.323  11.463   6.285  0.6306  2.0051 -0.6428
  462MOL0     H62319   1.048  11.340   6.304  0.0109 -0.1435  0.1041
  462MOL0     H62320   1.139  11.400   6.448 -3.3398  2.2947 -1.1408
  462MOL0     H62321   1.275  11.155   6.158 -3.6384  0.8326  0.2526
  462MOL0     H62322   1.333  10.897   6.175  0.9543  1.4051  0.9011
  462MOL0     H62323   1.352  10.831   6.334  1.8240  2.8369 -0.1850
  462MOL0     H62324   1.141  10.751   6.154  1.1629 -0.6780  1.2661
  462MOL0     H62325   1.057  10.871   6.238 -0.9120 -0.7744 -0.9349
  462MOL0     H62326   1.028  10.654   6.352  1.4224 -1.5029 -2.8058
  462MOL0     H62327   1.096  10.774   6.463 -1.8192 -0.3315 -0.7303
  462MOL0     H62328   1.191  10.547   6.488  0.2090 -2.2972 -2.8434
  462MOL0     H62329   1.320  10.655   6.467 -1.3940  0.4204  2.8606
  462MOL0     H62330   1.170  10.341   6.441  4.5804 -0.6290 -0.9763
  462MOL0     H62331   0.936  10.065   6.307  0.5390 -0.2760 -0.1621
  462MOL0     H62332   1.088  10.030   6.389 -0.7197 -0.4850  1.6290
  462MOL0     H62333   0.983  10.150   6.462  0.8586 -0.3390 -0.1898
  462MOL0     H62334   0.904   9.869   6.114  0.7383  0.1482 -0.4343
  462MOL0     H62335   0.841   9.621   6.050  1.0349 -1.8752 -0.4907
  462MOL0     H62336   0.993   9.512   5.678  0.8366  0.2416  0.1951
  462MOL0     H62337   1.008   9.350   5.740  1.9780  2.0810 -3.3352
  462MOL0     H62338   0.824   9.347   5.606  0.1135 -1.6310  1.2115
  462MOL0     H62339   0.771   9.329   5.774 -3.3094 -0.0980 -1.6753
  462MOL0     H62340   0.750   9.582   5.600 -2.3665  0.4296 -0.8290
  462MOL0     H62341   0.712   9.585   5.776 -0.2900  2.7319 -1.7927
  462MOL0     H62342   0.572   9.407   5.562  1.3997  0.3541  0.2962
  462MOL0     H62343   0.527   9.430   5.735 -3.1480  1.9485 -1.0700
  462MOL0     H62344   0.542   9.648   5.526 -3.4773  1.4000 -2.6040
  462MOL0     H62345   0.495   9.658   5.700 -1.8997  1.5505 -1.1950
  462MOL0     H62346   0.343   9.490   5.502  1.8950  0.1727 -0.2440
  462MOL0     H62347   0.296   9.534   5.673 -0.4385 -2.8306 -0.7884
  462MOL0     H62348   0.291   9.769   5.609 -2.3794  0.0944  1.2293
  462MOL0     H62349   0.154   9.671   5.533  0.3964 -2.3402  1.0234
  462MOL0     H62350   0.423   9.771   5.419 -0.5500  0.6608  2.5754
  462MOL0     H62351   0.266   9.834   5.385  1.4538  0.8628 -1.0552
  462MOL0     H62352   1.189   9.595   5.814  0.5064  1.0057 -0.5289
  462MOL0     H62353   1.265   9.813   5.914  0.2715 -1.3470 -0.6051
  462MOL0     H62354   1.140  10.284   5.947 -3.2171 -1.4711  0.9529
  462MOL0     H62355   1.247  10.503   6.057 -0.6277 -1.5991 -0.8880
  462MOL0     H62356   1.419  11.419   5.656 -0.0262  1.5736  0.7064
  462MOL0     H62357   1.375  11.170   5.579 -0.9748 -0.3579  0.6235
  462MOL0     H62358   1.485  10.848   5.261  0.5615 -0.2158  0.9530
  462MOL0     H62359   1.440  10.615   5.192 -1.5490 -1.9793 -0.3036
  462MOL0     H62360   1.136  10.353   5.092  1.9018 -1.4826  2.9069
  462MOL0     H62361   1.076  10.509   5.082 -0.7876 -0.6953  0.6781
  462MOL0     H62362   1.298  10.609   4.990 -1.7112 -0.0055 -1.2006
  462MOL0     H62363   1.209  10.523   4.877  1.4098 -1.1016 -1.0692
  462MOL0     H62364   1.416  10.375   5.045  1.4346  1.1678 -0.5940
  462MOL0     H62365   1.453  10.473   4.904 -2.0544  1.3893 -3.4909
  462MOL0     H62366   1.232  10.277   4.881  0.2206  0.6100  0.8612
  462MOL0     H62367   1.375  10.199   4.907 -2.3378 -0.7333  3.0778
  462MOL0     H62368   1.398  10.299   4.497  4.0524 -0.0744  0.4102
  462MOL0     H62369   1.032  10.645   5.304  0.3594 -1.6841  0.1323
  462MOL0     H62370   1.071  10.889   5.378 -0.1324 -1.2218  1.2890
  463MOL0     O62371  10.836   7.028  10.599  0.3468 -0.1501 -0.3562
  463MOL0     C62372  10.797   6.950  10.691 -1.2952 -0.1634 -0.0518
  463MOL0     O62373  10.723   6.836  10.670  1.0100  0.1946 -1.1363
  463MOL0     C62374  10.691   6.785  10.540 -0.3512 -0.4674 -0.4004
  463MOL0     C62375  10.556   6.750  10.525  0.0668 -0.6044 -0.7765
  463MOL0     C62376  10.522   6.703  10.398  0.5315  1.2293 -1.3538
  463MOL0     C62377  10.612   6.674  10.297 -0.1498  0.6036  0.5170
  463MOL0     O62378  10.588   6.604  10.173  0.5837  0.1313 -0.6755
  463MOL0     C62379  10.477   6.501  10.181  0.0111  0.1274  0.2671
  463MOL0     C62380  10.454   6.432  10.044 -0.1982  0.5274  0.0515
  463MOL0     C62381  10.320   6.364  10.032  0.1656 -0.2305  0.3906
  463MOL0     C62382  10.312   6.230   9.952 -0.2050 -0.1383 -0.6834
  463MOL0     C62383  10.188   6.150  10.004 -0.5824 -0.3633  0.0574
  463MOL0     C62384  10.064   6.229   9.963 -0.4811  0.1538 -0.2177
  463MOL0     C62385   9.940   6.153  10.012 -0.3100  0.4209 -0.0873
  463MOL0     C62386   9.903   6.015   9.955  0.1070 -0.0581  0.5764
  463MOL0     N62387   9.884   6.022   9.805  0.1017  0.0181  0.4313
  463MOL0     C62388   9.980   6.013   9.708 -0.0384 -0.7696 -1.1423
  463MOL0     C62389   9.918   6.001   9.591 -0.4537 -0.0600 -0.6196
  463MOL0     C62390   9.996   5.965   9.476  0.2721  0.9359 -0.3630
  463MOL0     C62391   9.937   5.849   9.399 -1.0511  0.6801  0.6652
  463MOL0     C62392  10.006   5.801   9.263  0.1934  0.2395  0.2781
  463MOL0     C62393   9.918   5.712   9.179  0.0082  0.9856 -0.5488
  463MOL0     O62394   9.804   5.793   9.127  0.8051  0.3719 -0.0364
  463MOL0     C62395   9.693   5.730   9.065 -0.2442  0.2571 -0.1950
  463MOL0     C62396   9.586   5.815   9.033  0.7196  0.2134 -0.8525
  463MOL0     C62397   9.475   5.763   8.967  0.7518  0.6665  0.4216
  463MOL0     C62398   9.347   5.849   8.963 -0.4663  0.5736 -0.2579
  463MOL0     C62399   9.482   5.633   8.912  0.7762  0.7773  0.8713
  463MOL0     C62400   9.380   5.574   8.822  0.2396  0.1076 -0.8833
  463MOL0     O62401   9.364   5.445   8.828  0.1399 -0.1012  0.2336
  463MOL0     C62402   9.262   5.388   8.762  0.7870  0.4500  0.3429
  463MOL0     C62403   9.148   5.349   8.831 -0.0122 -0.0449 -0.6582
  463MOL0     C62404   9.061   5.260   8.783 -0.2274 -0.1604 -0.1600
  463MOL0     C62405   9.077   5.216   8.645  0.1063  0.4105 -0.3085
  463MOL0     O62406   8.964   5.150   8.608  0.3245  0.6829  0.8007
  463MOL0     C62407   8.977   5.013   8.577 -0.1624 -0.5480  0.9754
  463MOL0     C62408   8.855   4.924   8.562 -0.6663 -0.6387 -0.6244
  463MOL0     C62409   8.746   4.986   8.464  0.4241 -0.7996 -0.4542
  463MOL0     C62410   8.642   4.885   8.410 -0.5080 -0.0107  0.8289
  463MOL0     C62411   8.550   4.963   8.307 -0.5061  0.2766  0.3627
  463MOL0     C62412   8.425   4.875   8.282 -0.4034 -0.1273 -1.2676
  463MOL0     C62413   8.320   4.963   8.219  0.1115  0.1706 -1.1926
  463MOL0     C62414   8.179   4.889   8.198  0.4891 -0.4676  0.0486
  463MOL0    Cl62415   8.199   4.735   8.116 -0.0696  0.0520 -0.1181
  463MOL0     C62416   9.183   5.257   8.568  0.5106  0.0473  0.9833
  463MOL0     C62417   9.281   5.339   8.630 -0.9946 -0.2621  0.1147
  463MOL0     O62418   9.315   5.643   8.751  0.2669 -0.2465  0.9371
  463MOL0     C62419   9.585   5.544   8.942 -0.2307 -0.7712  0.7487
  463MOL0     C62420   9.692   5.594   9.013  0.2144  0.3958 -0.5562
  463MOL0     N62421   9.787   6.006   9.611  0.7511 -0.3675  0.6248
  463MOL0     N62422   9.761   6.028   9.736  0.2216 -1.0709  0.0315
  463MOL0     C62423  10.751   6.722  10.313  0.1582  1.1113  0.4084
  463MOL0     C62424  10.775   6.790  10.428 -0.4350 -0.2478 -0.8359
  463MOL0     C62425  10.853   6.985  10.826  0.6033  0.2581 -0.4091
  463MOL0     C62426  10.870   6.884  10.923  0.1271  0.5869  0.1713
  463MOL0     C62427  10.903   6.899  11.052  0.3559  1.0454 -0.4401
  463MOL0     C62428  10.925   7.026  11.102  0.1251 -0.0213  0.3006
  463MOL0     O62429  10.956   7.044  11.234  0.8242  0.3240  0.4697
  463MOL0     C62430  10.838   7.045  11.314  0.8925 -0.1935  0.7143
  463MOL0     C62431  10.831   7.157  11.421  0.0865  0.3816  0.0909
  463MOL0     C62432  10.772   7.281  11.359  0.8725 -0.0154  0.1787
  463MOL0     C62433  10.873   7.396  11.328 -0.2307  0.1097  0.7730
  463MOL0     C62434  10.801   7.497  11.245 -0.8719  0.3284  0.1044
  463MOL0     C62435  10.748   7.558  11.162  0.2664 -0.0169  0.4089
  463MOL0     C62436  10.920   7.129  11.014 -0.2921  0.1665 -0.2599
  463MOL0     C62437  10.873   7.117  10.875 -1.0581  0.7314 -0.6319
  463MOL0     H62438  10.483   6.766  10.604  0.5824  0.1534 -0.4430
  463MOL0     H62439  10.414   6.690  10.396  0.6436  0.3011 -2.1152
  463MOL0     H62440  10.505   6.417  10.245  0.8305 -0.0203 -0.2752
  463MOL0     H62441  10.388   6.550  10.223  0.2583 -1.2759  2.5489
  463MOL0     H62442  10.457   6.512   9.969  0.1278  1.6655  1.2239
  463MOL0     H62443  10.535   6.359  10.039 -0.1902  0.3205  2.1251
  463MOL0     H62444  10.264   6.368  10.125 -0.2799  3.7001  0.1544
  463MOL0     H62445  10.256   6.430   9.973 -1.0946  0.2553  2.2310
  463MOL0     H62446  10.305   6.237   9.843 -1.1908 -3.6596 -0.9773
  463MOL0     H62447  10.398   6.163   9.961  0.2985  0.6469  0.7206
  463MOL0     H62448  10.188   6.055   9.950 -2.1772  0.0173 -0.6961
  463MOL0     H62449  10.189   6.133  10.112  2.6672 -0.6081  0.0919
  463MOL0     H62450  10.062   6.330  10.003  1.4020  0.2050 -0.1485
  463MOL0     H62451  10.053   6.231   9.854  1.0936 -1.5092 -0.4620
  463MOL0     H62452   9.945   6.144  10.121 -2.0832 -0.8108 -0.0687
  463MOL0     H62453   9.855   6.218   9.990 -0.0515  0.2163 -1.8626
  463MOL0     H62454   9.804   5.983   9.990 -0.8292  0.0808 -1.7426
  463MOL0     H62455   9.969   5.935   9.989  0.9389 -0.1643 -1.1447
  463MOL0     H62456  10.086   6.004   9.730 -0.0357 -0.4963 -1.0379
  463MOL0     H62457  10.013   6.053   9.414  0.8532 -0.2908 -2.0283
  463MOL0     H62458  10.092   5.927   9.514 -1.2157  0.4830  3.3492
  463MOL0     H62459   9.831   5.865   9.377 -1.0398 -1.4866 -1.4187
  463MOL0     H62460   9.933   5.766   9.470 -1.6476 -0.3011 -0.4873
  463MOL0     H62461  10.099   5.747   9.282 -1.2187 -1.9387  1.3794
  463MOL0     H62462  10.021   5.888   9.198 -3.5366  2.1998  1.7018
  463MOL0     H62463   9.892   5.616   9.224  0.7750 -1.0191 -4.0577
  463MOL0     H62464   9.966   5.677   9.088 -1.7599 -1.5898 -0.6135
  463MOL0     H62465   9.586   5.911   9.084  0.9266  0.4372 -1.2723
  463MOL0     H62466   9.352   5.925   9.042 -0.7318  1.7509 -1.3388
  463MOL0     H62467   9.358   5.910   8.873 -0.4272  0.8150 -0.0894
  463MOL0     H62468   9.249   5.803   8.978  1.0183 -1.8073  3.7837
  463MOL0     H62469   9.134   5.387   8.932 -1.5357  1.6396 -1.4369
  463MOL0     H62470   8.980   5.228   8.848  1.2465  0.6172  2.2252
  463MOL0     H62471   9.049   5.005   8.494 -1.0278  1.3554 -0.0497
  463MOL0     H62472   9.030   4.977   8.665  0.7755  3.5263  2.3150
  463MOL0     H62473   8.883   4.827   8.520  0.9448  0.5916 -2.6150
  463MOL0     H62474   8.802   4.894   8.653  0.6931 -0.4964  0.2346
  463MOL0     H62475   8.793   5.041   8.381  1.5592  1.5992  1.6246
  463MOL0     H62476   8.690   5.066   8.513 -1.9270 -0.8692 -2.7777
  463MOL0     H62477   8.683   4.793   8.369 -1.9313  0.8538 -2.9248
  463MOL0     H62478   8.581   4.850   8.495 -2.0866  2.2524  0.7187
  463MOL0     H62479   8.611   4.983   8.219  1.9320  1.6659  2.2193
  463MOL0     H62480   8.528   5.057   8.359 -1.6386 -0.7865  1.9092
  463MOL0     H62481   8.449   4.791   8.217 -1.9060 -4.4484  3.1816
  463MOL0     H62482   8.382   4.835   8.375  0.4119 -0.9659 -1.2395
  463MOL0     H62483   8.365   4.977   8.121  1.2403  1.6270 -0.5108
  463MOL0     H62484   8.300   5.063   8.259  0.3549  0.2928 -1.3748
  463MOL0     H62485   8.130   4.957   8.128  0.2053 -1.3466 -0.6399
  463MOL0     H62486   8.129   4.877   8.294 -0.4443  1.2547 -0.1905
  463MOL0     H62487   9.193   5.235   8.462 -0.6705 -1.0730  1.0678
  463MOL0     H62488   9.361   5.361   8.560 -1.7431  1.8171 -0.1865
  463MOL0     H62489   9.597   5.449   8.893  1.7712  0.8999 -2.3345
  463MOL0     H62490   9.769   5.518   9.019 -1.8580 -1.9142 -1.6704
  463MOL0     H62491  10.835   6.713  10.246  0.1103 -2.8335  0.6441
  463MOL0     H62492  10.876   6.825  10.449 -1.1882  0.7071  1.4890
  463MOL0     H62493  10.851   6.782  10.891 -0.4312  0.2968  1.3738
  463MOL0     H62494  10.912   6.806  11.107 -2.7940  0.8828 -0.0571
  463MOL0     H62495  10.755   7.035  11.243  1.0872 -0.8219  0.5671
  463MOL0     H62496  10.851   6.947  11.361 -0.8059 -1.3400 -1.0316
  463MOL0     H62497  10.928   7.192  11.457 -0.3953  1.9199 -0.0373
  463MOL0     H62498  10.773   7.119  11.505  0.5364  0.2881  0.3586
  463MOL0     H62499  10.704   7.330  11.429 -0.0502 -0.4433 -0.4098
  463MOL0     H62500  10.729   7.254  11.262  0.3682  1.0902  0.0791
  463MOL0     H62501  10.951   7.361  11.260 -0.9283  2.5966 -1.4593
  463MOL0     H62502  10.919   7.433  11.419 -0.3355  1.3715  0.3268
  463MOL0     H62503  10.703   7.613  11.081  4.4006  1.8767 -0.9061
  463MOL0     H62504  10.937   7.227  11.058  0.9991 -1.3367  2.9326
  463MOL0     H62505  10.850   7.205  10.817 -0.2169  0.5563 -1.2498
  464MOL0     O62506  10.484   0.241   6.889 -0.5908  0.1268 -0.4653
  464MOL0     C62507  10.527   0.356   6.901  0.1724 -0.1752  0.4115
  464MOL0     O62508  10.474   0.468   6.844 -0.0502  0.5154 -0.5127
  464MOL0     C62509  10.347   0.465   6.786  0.2657  0.9016 -0.5831
  464MOL0     C62510  10.236   0.391   6.835  0.1673 -0.3775 -0.3597
  464MOL0     C62511  10.116   0.398   6.765 -0.6704 -0.4180 -0.2786
  464MOL0     C62512  10.103   0.486   6.657  0.6697  0.0724 -0.0047
  464MOL0     O62513   9.994   0.482   6.571  0.1342  0.2353  0.3917
  464MOL0     C62514   9.977   0.363   6.501  0.1197 -0.3261 -0.3180
  464MOL0     C62515   9.835   0.329   6.546 -0.6268 -0.2404  0.0988
  464MOL0     C62516   9.730   0.447   6.528 -0.3555 -0.9095  0.4318
  464MOL0     C62517   9.586   0.390   6.547  0.0283  0.1282  0.9246
  464MOL0     C62518   9.464   0.494   6.539  0.3194 -0.5681 -0.4922
  464MOL0     C62519   9.338   0.423   6.577 -0.0794  0.2296  0.4747
  464MOL0     C62520   9.216   0.522   6.594  0.2901  0.1134 -0.0043
  464MOL0     C62521   9.121   0.457   6.697 -0.3781  0.4812 -0.0948
  464MOL0     N62522   9.004   0.536   6.742  0.2634 -0.1426 -0.9110
  464MOL0     C62523   8.875   0.529   6.687  0.8579  0.1078 -0.5709
  464MOL0     C62524   8.806   0.615   6.760 -0.3700  0.1483 -0.0708
  464MOL0     C62525   8.652   0.650   6.749  0.3371  0.1873 -0.1633
  464MOL0     C62526   8.634   0.812   6.763 -0.1642 -0.0387  0.3446
  464MOL0     C62527   8.494   0.859   6.715 -0.3425  0.0772 -0.2363
  464MOL0     C62528   8.427   0.948   6.828 -0.2875 -0.0309 -0.0376
  464MOL0     O62529   8.376   1.067   6.766  0.1249 -0.0524 -0.1143
  464MOL0     C62530   8.406   1.188   6.822 -0.2842  0.2892 -0.7266
  464MOL0     C62531   8.396   1.302   6.737 -0.5500 -0.8983  1.2389
  464MOL0     C62532   8.425   1.438   6.779 -0.0261 -0.0392 -0.2513
  464MOL0     C62533   8.415   1.553   6.678  0.2278  0.2603  1.0662
  464MOL0     C62534   8.443   1.462   6.921  0.3072 -0.5730 -0.6701
  464MOL0     C62535   8.480   1.592   6.988 -0.1273 -1.2255 -0.6276
  464MOL0     O62536   8.438   1.610   7.117  0.0912 -0.1972  0.0928
  464MOL0     C62537   8.508   1.691   7.205 -0.6180  0.0921  0.3407
  464MOL0     C62538   8.648   1.695   7.206 -0.2633  0.6405  0.2980
  464MOL0     C62539   8.720   1.771   7.303  0.1021  0.1552  0.4961
  464MOL0     C62540   8.650   1.845   7.391 -0.6624 -0.5376 -0.2583
  464MOL0     O62541   8.703   1.930   7.489 -0.4816  0.5606  0.2563
  464MOL0     C62542   8.788   2.023   7.432 -1.0269  0.5690  0.2023
  464MOL0     C62543   8.777   2.156   7.511  0.1124  0.4315 -0.4759
  464MOL0     C62544   8.653   2.237   7.490 -0.1230  0.1897 -0.5629
  464MOL0     C62545   8.686   2.386   7.529 -0.4802 -0.1511  0.0922
  464MOL0     C62546   8.573   2.480   7.474  0.2514  0.1986  0.2927
  464MOL0     C62547   8.646   2.610   7.458 -0.5734  0.6446  0.6545
  464MOL0     C62548   8.756   2.609   7.352  0.5767  0.3559 -0.1361
  464MOL0     C62549   8.757   2.738   7.282  0.0745 -0.2035  0.2360
  464MOL0    Cl62550   8.601   2.789   7.193 -0.2348  0.3655 -0.6118
  464MOL0     C62551   8.513   1.844   7.392 -0.0128 -0.0585  0.3603
  464MOL0     C62552   8.441   1.770   7.298  0.2608  0.4985  0.4711
  464MOL0     O62553   8.531   1.681   6.916 -0.1615  1.0952  0.5715
  464MOL0     C62554   8.443   1.345   7.006 -0.6569  1.0598  0.1496
  464MOL0     C62555   8.433   1.208   6.959 -0.6775 -0.3816  0.0792
  464MOL0     N62556   8.888   0.669   6.855  0.7047 -0.0969  0.3028
  464MOL0     N62557   9.006   0.625   6.841  0.1701  0.0091  0.3634
  464MOL0     C62558  10.205   0.574   6.629 -0.1177  0.7419 -0.1239
  464MOL0     C62559  10.325   0.571   6.693  0.0233  0.4689  1.0522
  464MOL0     C62560  10.649   0.382   6.975 -0.8450  0.1829 -0.4867
  464MOL0     C62561  10.688   0.510   7.025  0.4123 -0.0705 -0.6463
  464MOL0     C62562  10.803   0.524   7.111  0.4363  0.1363  0.2541
  464MOL0     C62563  10.874   0.412   7.151 -0.9728  0.1781 -0.2158
  464MOL0     O62564  10.981   0.440   7.229 -0.2092 -0.3100  0.1028
  464MOL0     C62565  11.042   0.333   7.293 -0.0707 -0.3534 -0.3456
  464MOL0     C62566  11.162   0.397   7.369  0.6918  0.3409 -0.6893
  464MOL0     C62567  11.263   0.294   7.402 -0.3300  0.6787 -0.0847
  464MOL0     C62568  11.230   0.163   7.479  0.4515 -0.4886 -0.0945
  464MOL0     C62569  11.359   0.105   7.515 -0.0232 -1.1646 -0.0509
  464MOL0     C62570  11.456   0.038   7.548 -0.1710 -0.1291  0.5175
  464MOL0     C62571  10.838   0.288   7.108 -0.2649  0.6947  0.2604
  464MOL0     C62572  10.728   0.275   7.024 -0.3936  0.8828 -0.4426
  464MOL0     H62573  10.248   0.325   6.921 -0.7183 -2.1345 -1.5353
  464MOL0     H62574  10.047   0.319   6.793  0.0854 -1.5854 -1.5951
  464MOL0     H62575   9.982   0.378   6.393  0.4530  0.6366 -0.1742
  464MOL0     H62576  10.052   0.291   6.535  2.2180  1.8802 -0.0597
  464MOL0     H62577   9.800   0.234   6.502 -1.1945  0.5674 -1.2591
  464MOL0     H62578   9.831   0.312   6.654 -0.7463  1.2702  0.3527
  464MOL0     H62579   9.736   0.534   6.595 -2.0978 -1.6366  1.5981
  464MOL0     H62580   9.733   0.486   6.426 -0.7925  0.9177  1.0741
  464MOL0     H62581   9.571   0.309   6.475  0.8816  1.0366 -0.3114
  464MOL0     H62582   9.574   0.353   6.649 -5.9855  0.2853  0.6128
  464MOL0     H62583   9.484   0.582   6.601 -0.6552  0.8168 -2.0728
  464MOL0     H62584   9.452   0.534   6.438  1.1125 -2.7282 -1.5041
  464MOL0     H62585   9.319   0.344   6.505  2.9306 -0.5577  0.4303
  464MOL0     H62586   9.372   0.380   6.672  2.0865  0.9513  0.0853
  464MOL0     H62587   9.255   0.622   6.613 -0.7678 -0.0134  3.5942
  464MOL0     H62588   9.152   0.521   6.505  1.6293  0.2969 -1.0059
  464MOL0     H62589   9.179   0.449   6.790  0.3300  3.5610 -0.1385
  464MOL0     H62590   9.102   0.353   6.671  0.4718 -0.3574  2.3792
  464MOL0     H62591   8.844   0.489   6.591 -0.0243 -0.7159  0.0381
  464MOL0     H62592   8.614   0.605   6.658 -0.3326  0.6117 -0.0963
  464MOL0     H62593   8.611   0.596   6.835  0.9374 -0.7899 -0.4725
  464MOL0     H62594   8.717   0.860   6.710  0.5198 -1.4927  0.0369
  464MOL0     H62595   8.644   0.839   6.868 -0.0265  0.4463  0.2057
  464MOL0     H62596   8.435   0.768   6.699  0.6810 -0.2823 -2.2878
  464MOL0     H62597   8.479   0.915   6.622 -2.6842 -0.3110 -0.1553
  464MOL0     H62598   8.489   0.961   6.916 -1.8352 -0.5129  1.1714
  464MOL0     H62599   8.339   0.892   6.862  0.4097 -1.7995 -0.9905
  464MOL0     H62600   8.390   1.292   6.629  0.0922  0.2585  1.0809
  464MOL0     H62601   8.470   1.646   6.696  2.7589 -1.3304  2.1975
  464MOL0     H62602   8.472   1.520   6.590 -0.7023  1.2382  0.0693
  464MOL0     H62603   8.320   1.567   6.625  0.4378  0.4489  0.7308
  464MOL0     H62604   8.707   1.630   7.141 -0.4835 -1.7321  2.2889
  464MOL0     H62605   8.828   1.782   7.297 -0.1538  3.2038 -0.6272
  464MOL0     H62606   8.893   1.993   7.442  0.0693  4.6407  3.0821
  464MOL0     H62607   8.782   2.032   7.323  3.5575 -6.1154 -1.2912
  464MOL0     H62608   8.792   2.146   7.619  1.6426  0.6668 -0.6366
  464MOL0     H62609   8.862   2.218   7.480  1.0274  0.4116  1.7764
  464MOL0     H62610   8.560   2.200   7.534 -0.4738 -1.0188 -2.2446
  464MOL0     H62611   8.643   2.241   7.381 -0.1303  1.8311 -0.5350
  464MOL0     H62612   8.690   2.389   7.639 -0.9866 -1.3492  0.1582
  464MOL0     H62613   8.780   2.412   7.479  0.1343  0.5065  1.5311
  464MOL0     H62614   8.481   2.490   7.533  0.0468 -0.7261  0.1397
  464MOL0     H62615   8.538   2.453   7.374 -1.5725  0.9014  0.6987
  464MOL0     H62616   8.582   2.697   7.441  0.1332  1.3991  1.7216
  464MOL0     H62617   8.699   2.634   7.551  0.4323  1.0951 -0.0305
  464MOL0     H62618   8.745   2.517   7.294  2.1689  0.7000 -1.0505
  464MOL0     H62619   8.849   2.612   7.411 -1.1919  2.3375  2.8461
  464MOL0     H62620   8.825   2.734   7.197 -1.2095 -0.1694 -0.8271
  464MOL0     H62621   8.789   2.814   7.354  0.4794 -1.7888  1.8047
  464MOL0     H62622   8.454   1.911   7.454  0.2975  0.3151  0.2587
  464MOL0     H62623   8.334   1.767   7.313  0.3406 -0.1747  0.9259
  464MOL0     H62624   8.456   1.365   7.112  0.9125 -0.7522  0.3462
  464MOL0     H62625   8.447   1.127   7.030  2.2492  1.4162  1.7296
  464MOL0     H62626  10.198   0.648   6.550 -0.9458 -1.2733 -2.0372
  464MOL0     H62627  10.402   0.643   6.669  3.2064 -3.5802 -2.3825
  464MOL0     H62628  10.637   0.594   6.977 -2.9201 -0.7000  1.4753
  464MOL0     H62629  10.835   0.621   7.147 -1.6193  1.1518 -0.5369
  464MOL0     H62630  10.976   0.281   7.363  0.4197 -0.2002  0.2406
  464MOL0     H62631  11.090   0.264   7.224 -0.5009 -0.0429 -0.9590
  464MOL0     H62632  11.133   0.449   7.461  0.5196 -1.6831  0.4359
  464MOL0     H62633  11.202   0.471   7.299 -4.0924  3.4513 -0.5909
  464MOL0     H62634  11.345   0.349   7.450  0.9478 -1.5278  0.4337
  464MOL0     H62635  11.306   0.275   7.304  1.0395  1.0599  0.4171
  464MOL0     H62636  11.161   0.111   7.412 -1.7363 -0.4646  1.9760
  464MOL0     H62637  11.173   0.184   7.571 -1.2361  3.0609 -1.7666
  464MOL0     H62638  11.538  -0.014   7.594 -0.0172 -0.3649 -0.0134
  464MOL0     H62639  10.890   0.194   7.128 -0.7675 -0.4135 -2.9732
  464MOL0     H62640  10.697   0.172   7.008 -1.9919  1.6782 -3.1904
  465MOL0     O62641   1.985   0.487   7.009 -0.0414 -0.0887  0.2351
  465MOL0     C62642   1.980   0.603   6.988 -1.3617  0.0574 -0.2279
  465MOL0     O62643   2.092   0.686   7.016  1.2892 -0.1544  0.7085
  465MOL0     C62644   2.204   0.625   7.049  0.2257  0.6672  0.0076
  465MOL0     C62645   2.236   0.602   7.182 -0.3985  0.4868  0.3200
  465MOL0     C62646   2.350   0.529   7.213  0.9033  0.4012 -0.5391
  465MOL0     C62647   2.436   0.480   7.105 -1.1088 -0.7544  0.5279
  465MOL0     O62648   2.557   0.416   7.111 -0.6843 -0.0235  0.7100
  465MOL0     C62649   2.605   0.364   7.237  0.5248 -0.0722 -0.4487
  465MOL0     C62650   2.681   0.228   7.209  1.1259 -0.1012 -0.5156
  465MOL0     C62651   2.781   0.191   7.319  0.4748  0.4867  0.1235
  465MOL0     C62652   2.721   0.147   7.448  0.3986 -0.0383  0.3353
  465MOL0     C62653   2.822   0.079   7.537  0.1448 -0.0495 -0.7977
  465MOL0     C62654   2.795   0.124   7.686  0.6350  0.9097  0.3970
  465MOL0     C62655   2.889   0.060   7.794  0.3946 -0.0831 -0.8316
  465MOL0     C62656   2.832  -0.083   7.829 -0.1363  0.6078 -0.4087
  465MOL0     N62657   2.912  -0.150   7.929 -0.4151  0.2980  0.9743
  465MOL0     C62658   3.024  -0.233   7.903  0.1795  0.1793  0.6612
  465MOL0     C62659   3.035  -0.303   8.014  0.6315 -0.3859  0.4643
  465MOL0     C62660   3.125  -0.412   8.013 -0.4478 -0.0249  0.0331
  465MOL0     C62661   3.041  -0.544   7.997 -0.2139  0.1238  0.4597
  465MOL0     C62662   3.113  -0.666   8.024 -0.5739  0.6992 -0.2516
  465MOL0     C62663   3.017  -0.774   8.056  0.0608 -0.2561  0.9930
  465MOL0     O62664   3.083  -0.902   8.044  0.7309 -0.2469 -0.3455
  465MOL0     C62665   3.077  -0.977   8.163  0.6315 -0.5337 -0.0213
  465MOL0     C62666   3.154  -0.934   8.272 -0.7523  0.1177  0.4621
  465MOL0     C62667   3.172  -1.020   8.382 -0.0509 -0.7232 -0.3810
  465MOL0     C62668   3.242  -0.952   8.493  0.2498 -0.0021 -0.0127
  465MOL0     C62669   3.112  -1.150   8.378 -0.4897 -0.2387 -0.4232
  465MOL0     C62670   3.117  -1.246   8.495 -0.4764 -0.4577 -0.6450
  465MOL0     O62671   3.021  -1.342   8.494 -0.9450  0.2781  0.1893
  465MOL0     C62672   3.031  -1.452   8.575  0.4495 -0.3228 -0.2567
  465MOL0     C62673   3.116  -1.572   8.576  0.5777 -0.9568  0.7006
  465MOL0     C62674   3.098  -1.677   8.664  0.4802  0.8190 -0.9639
  465MOL0     C62675   3.006  -1.657   8.769 -0.1384 -0.1891 -0.5616
  465MOL0     O62676   2.994  -1.762   8.850  0.2419  0.1562  0.0655
  465MOL0     C62677   2.858  -1.786   8.898  0.2437 -0.7970  0.4790
  465MOL0     C62678   2.862  -1.910   8.978 -0.3468  0.2906  0.2325
  465MOL0     C62679   2.725  -1.950   9.026  1.0779 -0.0341 -0.3199
  465MOL0     C62680   2.726  -2.062   9.130  0.3533 -0.7809 -0.5411
  465MOL0     C62681   2.609  -2.061   9.228 -0.4682 -0.7435  0.3726
  465MOL0     C62682   2.583  -2.193   9.316  0.1542 -0.2788  0.0232
  465MOL0     C62683   2.482  -2.162   9.427  0.5809  0.0848  0.0574
  465MOL0     C62684   2.422  -2.301   9.481  0.5686  0.6600  0.4627
  465MOL0    Cl62685   2.539  -2.411   9.569 -0.0706 -0.6772  0.5782
  465MOL0     C62686   2.931  -1.538   8.781 -0.8703  0.5435 -0.4180
  465MOL0     C62687   2.935  -1.438   8.681 -0.6759  0.1569 -0.0259
  465MOL0     O62688   3.210  -1.239   8.572  0.1901  0.2222  0.2425
  465MOL0     C62689   3.041  -1.188   8.268 -0.0002 -0.4461  0.6966
  465MOL0     C62690   3.017  -1.099   8.164  0.1231  0.5099 -0.0176
  465MOL0     N62691   2.933  -0.278   8.098 -0.7826 -0.2157  0.0713
  465MOL0     N62692   2.858  -0.185   8.042 -0.1916 -0.3942  0.0510
  465MOL0     C62693   2.397   0.496   6.972  1.2371 -0.0531  0.5255
  465MOL0     C62694   2.287   0.576   6.947  0.0476 -0.1700  0.1925
  465MOL0     C62695   1.855   0.666   6.934  0.3044  0.7909 -0.4616
  465MOL0     C62696   1.842   0.800   6.894 -0.3678 -0.3004  0.3776
  465MOL0     C62697   1.718   0.841   6.854  0.4603  1.5027 -0.7488
  465MOL0     C62698   1.603   0.757   6.839  0.2190  0.6950  0.5251
  465MOL0     O62699   1.487   0.811   6.783 -0.8403 -0.1644  0.3144
  465MOL0     C62700   1.410   0.894   6.862  0.0070 -0.6126 -0.0759
  465MOL0     C62701   1.264   0.872   6.827  0.0889  0.4559  0.1449
  465MOL0     C62702   1.211   0.729   6.834 -0.3321 -0.3052 -0.8060
  465MOL0     C62703   1.156   0.691   6.969 -1.0921 -0.2081 -0.4969
  465MOL0     C62704   1.113   0.554   6.974  0.8134  0.2495 -0.8192
  465MOL0     C62705   1.090   0.430   6.982  0.5841 -0.4279  0.6449
  465MOL0     C62706   1.615   0.625   6.880 -0.6571 -0.4596  0.2749
  465MOL0     C62707   1.741   0.583   6.921  0.4023  0.3467  0.0534
  465MOL0     H62708   2.172   0.638   7.261 -3.2019  1.0001 -2.0086
  465MOL0     H62709   2.383   0.504   7.314  1.2172 -1.9215 -1.1549
  465MOL0     H62710   2.666   0.444   7.281 -1.2010  3.8319 -4.3700
  465MOL0     H62711   2.527   0.337   7.309  0.7910  0.8353  0.2012
  465MOL0     H62712   2.604   0.150   7.202  0.4310  0.2566  2.0562
  465MOL0     H62713   2.731   0.241   7.112 -0.5717 -0.4338 -1.4884
  465MOL0     H62714   2.860   0.126   7.278  0.9400  2.2248 -1.9259
  465MOL0     H62715   2.842   0.280   7.338 -2.2877  2.0648  2.1974
  465MOL0     H62716   2.681   0.234   7.501 -0.0305 -1.4294  2.4268
  465MOL0     H62717   2.635   0.079   7.436  0.9865 -0.8176  0.4136
  465MOL0     H62718   2.826  -0.029   7.518 -1.6998  0.1500 -2.8321
  465MOL0     H62719   2.923   0.109   7.509  0.6131 -2.9494 -2.6588
  465MOL0     H62720   2.807   0.232   7.699  2.2100  0.5361  3.0033
  465MOL0     H62721   2.691   0.108   7.717  0.1366  3.0761 -0.0421
  465MOL0     H62722   2.996   0.051   7.772  0.5489  1.0439 -0.5631
  465MOL0     H62723   2.879   0.126   7.880  0.1641  1.2674 -1.8743
  465MOL0     H62724   2.840  -0.131   7.731 -0.3635 -3.9352  1.5632
  465MOL0     H62725   2.731  -0.080   7.870  1.0246  1.2298  2.6869
  465MOL0     H62726   3.077  -0.249   7.810 -0.0681 -1.9083  0.8510
  465MOL0     H62727   3.186  -0.415   7.922 -3.4903 -1.1617 -2.1544
  465MOL0     H62728   3.183  -0.404   8.105 -0.4721  1.0422 -0.0333
  465MOL0     H62729   2.993  -0.555   7.899 -1.9542  0.9672  1.1761
  465MOL0     H62730   2.958  -0.528   8.066  0.1654  0.9052  0.7438
  465MOL0     H62731   3.180  -0.659   8.110 -1.5552 -1.2337  0.7201
  465MOL0     H62732   3.172  -0.689   7.934  1.3290 -4.3107  1.8803
  465MOL0     H62733   2.927  -0.767   7.993 -1.7827 -4.1810  2.8194
  465MOL0     H62734   2.977  -0.751   8.155  0.0037  0.0003  0.9118
  465MOL0     H62735   3.206  -0.840   8.259 -0.4362 -0.4333 -4.1475
  465MOL0     H62736   3.197  -0.988   8.586 -2.9815  2.1948 -0.5557
  465MOL0     H62737   3.350  -0.966   8.497 -0.0424 -2.7189  0.3795
  465MOL0     H62738   3.216  -0.846   8.500  0.3392  0.1105 -1.2088
  465MOL0     H62739   3.180  -1.594   8.491 -0.0876 -1.9729  0.4404
  465MOL0     H62740   3.136  -1.778   8.657 -2.8613 -0.7867  1.2267
  465MOL0     H62741   2.836  -1.703   8.966  4.0031  3.3196 -2.7611
  465MOL0     H62742   2.791  -1.786   8.811  0.0435  1.9086  0.5363
  465MOL0     H62743   2.892  -1.992   8.911 -4.1902 -0.3820 -0.9400
  465MOL0     H62744   2.928  -1.901   9.064 -2.0588 -0.4654  1.7082
  465MOL0     H62745   2.665  -1.968   8.936  3.1468 -1.9841 -1.4062
  465MOL0     H62746   2.687  -1.865   9.083 -1.1177 -1.0066 -0.2329
  465MOL0     H62747   2.728  -2.152   9.068 -1.0739 -0.2106 -1.4669
  465MOL0     H62748   2.814  -2.056   9.193 -1.9857 -2.9638  3.3510
  465MOL0     H62749   2.519  -2.029   9.174  0.9480  3.3950  0.0685
  465MOL0     H62750   2.631  -1.985   9.304  2.1475 -0.5089 -0.5273
  465MOL0     H62751   2.536  -2.272   9.256 -0.8798  0.4385 -0.1490
  465MOL0     H62752   2.677  -2.231   9.356  1.2852 -2.1851 -3.9581
  465MOL0     H62753   2.409  -2.089   9.390  1.9007  1.6148  0.3413
  465MOL0     H62754   2.534  -2.115   9.511  0.6575 -1.4211  0.8993
  465MOL0     H62755   2.384  -2.353   9.393  0.3549  1.6967 -0.0673
  465MOL0     H62756   2.346  -2.261   9.549  0.6386  0.2172  0.8047
  465MOL0     H62757   2.865  -1.521   8.865  0.3149  0.8336  0.4769
  465MOL0     H62758   2.863  -1.360   8.660  1.6224  2.1750 -1.0477
  465MOL0     H62759   3.005  -1.289   8.253 -2.0040  0.6180 -3.0868
  465MOL0     H62760   2.964  -1.135   8.076 -0.4754  1.7187 -0.1678
  465MOL0     H62761   2.446   0.460   6.882 -1.7819 -1.2621 -0.7848
  465MOL0     H62762   2.262   0.614   6.848  1.0733  2.6595  0.9290
  465MOL0     H62763   1.936   0.854   6.898 -0.5839  0.2820 -1.5551
  465MOL0     H62764   1.715   0.942   6.815 -1.0875  2.0879  0.7636
  465MOL0     H62765   1.433   0.873   6.967  1.2568 -0.0874 -0.2286
  465MOL0     H62766   1.436   1.000   6.851  2.0948 -1.0420  0.2174
  465MOL0     H62767   1.248   0.906   6.724 -2.0224 -0.1031  0.2456
  465MOL0     H62768   1.194   0.942   6.874 -0.5262  0.2186 -0.4036
  465MOL0     H62769   1.283   0.650   6.813  1.2449 -0.7150  4.6235
  465MOL0     H62770   1.124   0.719   6.767  0.8324 -2.2204 -2.1397
  465MOL0     H62771   1.074   0.759   6.996  0.1764  0.9563  0.6049
  465MOL0     H62772   1.236   0.705   7.042 -2.6211 -1.6558  1.5699
  465MOL0     H62773   1.062   0.328   6.965 -3.6804  0.2683  2.2140
  465MOL0     H62774   1.530   0.558   6.871  1.5593 -3.2643 -1.4378
  465MOL0     H62775   1.755   0.477   6.942  2.3182  0.7587  1.0360
  466MOL0     O62776   4.449   1.776   0.517 -0.8196  0.1221 -0.2053
  466MOL0     C62777   4.341   1.766   0.578  0.3979  0.4589  0.4142
  466MOL0     O62778   4.322   1.754   0.704 -0.3251  0.3770 -0.0405
  466MOL0     C62779   4.427   1.731   0.782 -0.9483  0.3990  0.2092
  466MOL0     C62780   4.533   1.815   0.794  0.7489 -0.4774  1.3060
  466MOL0     C62781   4.641   1.791   0.876 -0.1650  0.5754 -0.3728
  466MOL0     C62782   4.644   1.669   0.951  0.1069 -0.2334 -0.7353
  466MOL0     O62783   4.735   1.624   1.049 -0.2905 -0.0876 -0.4410
  466MOL0     C62784   4.860   1.706   1.034 -0.5193 -0.6549  0.3492
  466MOL0     C62785   4.971   1.633   1.095 -0.5492  0.2932 -0.2027
  466MOL0     C62786   5.107   1.688   1.035  0.4850 -0.8005 -0.1768
  466MOL0     C62787   5.160   1.820   1.094 -0.2241  0.1250 -0.6490
  466MOL0     C62788   5.307   1.827   1.057  0.2305  0.8374 -0.0617
  466MOL0     C62789   5.393   1.940   1.104 -0.3992  0.7270  0.4382
  466MOL0     C62790   5.387   2.070   1.028  0.3757  0.5105 -1.0409
  466MOL0     C62791   5.270   2.161   1.082  1.0314 -0.1924 -0.0906
  466MOL0     N62792   5.277   2.290   1.014  0.0841 -0.4452  0.2962
  466MOL0     C62793   5.323   2.318   0.886 -0.0384  0.1568 -0.3769
  466MOL0     C62794   5.333   2.454   0.878 -0.4277 -0.3633  0.0046
  466MOL0     C62795   5.377   2.544   0.762 -0.2247 -0.1002 -0.3654
  466MOL0     C62796   5.292   2.669   0.748  0.5367 -0.2593  0.5314
  466MOL0     C62797   5.329   2.784   0.837  0.0089 -0.4480 -0.5331
  466MOL0     C62798   5.233   2.898   0.835 -0.2346 -0.6896  0.3942
  466MOL0     O62799   5.182   2.940   0.711  0.1991  0.7527 -0.0015
  466MOL0     C62800   5.189   3.071   0.665  0.5719  0.5627 -0.0897
  466MOL0     C62801   5.166   3.180   0.742 -0.6806 -0.5001 -0.3812
  466MOL0     C62802   5.171   3.300   0.681 -0.4967 -0.4964  0.8800
  466MOL0     C62803   5.152   3.421   0.776  0.1808  1.8998  0.1588
  466MOL0     C62804   5.209   3.311   0.542  0.0180 -0.3693  0.2293
  466MOL0     C62805   5.209   3.441   0.473  0.1783  0.4353 -0.1032
  466MOL0     O62806   5.120   3.541   0.511  0.2726  1.2768  0.2285
  466MOL0     C62807   5.119   3.668   0.448  0.6217 -0.3454 -0.3239
  466MOL0     C62808   5.002   3.709   0.379  0.8564  0.7738  1.1136
  466MOL0     C62809   4.994   3.824   0.303 -0.9166  0.0986 -0.4467
  466MOL0     C62810   5.094   3.921   0.328 -0.2361 -0.7647 -0.5211
  466MOL0     O62811   5.105   4.048   0.279 -0.0905 -0.4393  0.0917
  466MOL0     C62812   5.050   4.080   0.149  0.7437 -0.0485 -0.0299
  466MOL0     C62813   5.150   4.060   0.032 -0.3877  0.0868 -0.7906
  466MOL0     C62814   5.208   3.922  -0.009  0.1774 -0.6162  1.0975
  466MOL0     C62815   5.110   3.829  -0.082 -0.1812 -0.2126  0.7159
  466MOL0     C62816   5.183   3.722  -0.167 -0.6931 -0.4128  0.3177
  466MOL0     C62817   5.254   3.613  -0.095  0.1812 -0.5710  0.4472
  466MOL0     C62818   5.348   3.526  -0.187 -0.6093 -0.1275 -0.7133
  466MOL0     C62819   5.419   3.423  -0.097 -1.3593 -0.0836  0.4689
  466MOL0    Cl62820   5.323   3.336   0.017  0.4762 -0.1015 -0.0114
  466MOL0     C62821   5.201   3.891   0.407 -0.2890 -0.8806 -0.1826
  466MOL0     C62822   5.224   3.763   0.459 -0.2594 -0.6862  0.4931
  466MOL0     O62823   5.287   3.453   0.380 -0.1655  0.2274  0.0732
  466MOL0     C62824   5.257   3.193   0.479 -0.1345 -0.7460 -0.0738
  466MOL0     C62825   5.244   3.076   0.545  0.0129  0.4393  0.2859
  466MOL0     N62826   5.299   2.505   0.999 -0.5137  0.0828  0.8159
  466MOL0     N62827   5.269   2.409   1.082 -0.2642 -0.7162 -0.2043
  466MOL0     C62828   4.537   1.585   0.952  1.2045  0.0875 -0.5867
  466MOL0     C62829   4.430   1.607   0.855 -0.2271  0.2142 -0.0660
  466MOL0     C62830   4.218   1.748   0.487 -0.2431 -0.4872 -0.7383
  466MOL0     C62831   4.204   1.809   0.354 -0.3449 -1.0376 -0.2445
  466MOL0     C62832   4.090   1.788   0.280 -1.4639 -0.6744 -0.6643
  466MOL0     C62833   3.992   1.699   0.329  0.4800 -0.3001 -0.4349
  466MOL0     O62834   3.876   1.701   0.260  0.9407 -0.3763  0.3959
  466MOL0     C62835   3.859   1.598   0.167 -0.4626  0.1382 -0.5290
  466MOL0     C62836   3.782   1.651   0.053  0.9895 -0.7418  1.2685
  466MOL0     C62837   3.801   1.564  -0.078  0.5539  0.7663 -1.0403
  466MOL0     C62838   3.720   1.624  -0.192 -0.0213 -0.8429 -0.2612
  466MOL0     C62839   3.577   1.598  -0.185 -0.0479 -0.3209  0.0762
  466MOL0     C62840   3.464   1.567  -0.155 -0.1756  0.2088 -0.1718
  466MOL0     C62841   4.012   1.627   0.441 -0.6419 -0.3738  0.2111
  466MOL0     C62842   4.123   1.655   0.523  0.4044 -0.3804 -0.7893
  466MOL0     H62843   4.531   1.905   0.734 -0.5877 -1.5673 -0.3825
  466MOL0     H62844   4.727   1.857   0.879  1.7594 -1.8076  0.7862
  466MOL0     H62845   4.881   1.711   0.927  3.0223  1.0289  1.0108
  466MOL0     H62846   4.842   1.807   1.071 -1.8290 -1.3948  1.8594
  466MOL0     H62847   4.970   1.643   1.203  0.9964 -2.2598  0.1286
  466MOL0     H62848   4.966   1.528   1.065  0.7875 -0.3362  1.6203
  466MOL0     H62849   5.182   1.619   1.076 -2.8884 -3.5833  1.8829
  466MOL0     H62850   5.093   1.677   0.928  0.9026 -0.5662 -0.2574
  466MOL0     H62851   5.105   1.899   1.041 -1.4605  0.4956  1.1074
  466MOL0     H62852   5.141   1.840   1.200 -0.0777  0.2101 -0.6385
  466MOL0     H62853   5.351   1.736   1.099 -2.6385 -1.1562 -1.1033
  466MOL0     H62854   5.322   1.810   0.949  0.7786 -2.2436  0.4057
  466MOL0     H62855   5.373   1.954   1.211  0.0535 -0.5663  0.7067
  466MOL0     H62856   5.495   1.904   1.085 -1.0900 -0.4084 -1.4157
  466MOL0     H62857   5.481   2.126   1.033  3.1298 -3.7374  2.0184
  466MOL0     H62858   5.382   2.058   0.920 -0.2373 -0.7423 -0.8961
  466MOL0     H62859   5.281   2.180   1.189 -1.6226 -0.3305  0.2693
  466MOL0     H62860   5.172   2.117   1.066  0.6252  1.4444 -2.8418
  466MOL0     H62861   5.352   2.244   0.813 -2.4956 -0.1850 -1.1052
  466MOL0     H62862   5.479   2.583   0.762 -0.0765 -0.1851  3.1830
  466MOL0     H62863   5.362   2.485   0.672 -3.3285 -1.7934  1.1104
  466MOL0     H62864   5.191   2.639   0.780  0.3135 -0.1663 -0.0845
  466MOL0     H62865   5.288   2.701   0.644  0.9413 -1.6006  0.0850
  466MOL0     H62866   5.430   2.809   0.801 -0.4276 -1.3108 -2.4579
  466MOL0     H62867   5.333   2.751   0.941 -2.2973  0.4296 -0.1105
  466MOL0     H62868   5.275   2.991   0.875 -0.5155  0.7263 -2.3022
  466MOL0     H62869   5.151   2.880   0.905 -0.7611 -1.3110 -0.3629
  466MOL0     H62870   5.139   3.169   0.846 -1.8102 -0.4088 -0.6528
  466MOL0     H62871   5.159   3.381   0.877  1.6580 -0.7309 -0.8814
  466MOL0     H62872   5.235   3.482   0.739  0.1297  1.0762 -1.4095
  466MOL0     H62873   5.058   3.476   0.765 -2.6154 -2.7431 -2.3228
  466MOL0     H62874   4.923   3.635   0.368  1.0889  0.6564  0.1457
  466MOL0     H62875   4.912   3.848   0.236  0.1701  2.0070 -1.2044
  466MOL0     H62876   4.959   4.027   0.119  0.3984 -0.2709  1.3519
  466MOL0     H62877   5.033   4.188   0.155  0.9969 -0.0116  0.0067
  466MOL0     H62878   5.102   4.106  -0.055  0.2714 -0.7532 -1.6230
  466MOL0     H62879   5.246   4.113   0.040  0.9870 -1.9824 -2.4723
  466MOL0     H62880   5.266   3.883   0.076  0.6389 -0.1701  0.9895
  466MOL0     H62881   5.287   3.942  -0.082 -0.2905 -2.7429 -0.0763
  466MOL0     H62882   5.042   3.781  -0.011 -0.7573  0.5296  0.6759
  466MOL0     H62883   5.050   3.887  -0.153 -1.6672 -1.5062  0.8659
  466MOL0     H62884   5.250   3.788  -0.224 -1.4075  2.0090  2.0920
  466MOL0     H62885   5.108   3.673  -0.230 -1.4178  0.8168  0.1991
  466MOL0     H62886   5.310   3.663  -0.015 -1.4049 -0.6759  1.6821
  466MOL0     H62887   5.187   3.546  -0.040 -0.2264  0.9561  1.9080
  466MOL0     H62888   5.423   3.590  -0.234 -0.5987 -0.7536 -1.5576
  466MOL0     H62889   5.285   3.475  -0.260 -0.4394 -0.1589 -0.8375
  466MOL0     H62890   5.499   3.474  -0.043 -0.4324  0.3889 -1.2777
  466MOL0     H62891   5.462   3.340  -0.154 -0.9419  0.4639 -0.0265
  466MOL0     H62892   5.273   3.973   0.412 -1.3137  0.0169  0.2136
  466MOL0     H62893   5.321   3.749   0.505  1.6494  2.9539 -1.9179
  466MOL0     H62894   5.300   3.201   0.380  2.2175  4.0207  1.0451
  466MOL0     H62895   5.259   2.983   0.492 -0.1978  1.5840 -1.8839
  466MOL0     H62896   4.527   1.499   1.019  0.4885  1.5955  1.3385
  466MOL0     H62897   4.347   1.538   0.845 -0.5374  0.3897  1.2080
  466MOL0     H62898   4.278   1.879   0.314 -4.0756  2.1135 -2.3235
  466MOL0     H62899   4.073   1.851   0.194 -0.4898  0.0578 -0.3287
  466MOL0     H62900   3.958   1.555   0.152 -0.8048 -0.2504 -1.8267
  466MOL0     H62901   3.801   1.519   0.214 -0.3584 -0.1477 -0.8758
  466MOL0     H62902   3.824   1.748   0.024  0.6583 -1.3432 -1.5131
  466MOL0     H62903   3.678   1.671   0.079  1.1723  1.4673  0.5493
  466MOL0     H62904   3.762   1.465  -0.054  1.8368  0.9240  2.0616
  466MOL0     H62905   3.903   1.565  -0.119  0.1155  0.2026 -2.1900
  466MOL0     H62906   3.755   1.568  -0.279  3.3506  1.3906 -0.5330
  466MOL0     H62907   3.744   1.731  -0.195 -0.0265 -0.8072  0.6949
  466MOL0     H62908   3.362   1.554  -0.126 -0.1807  4.1051  2.3336
  466MOL0     H62909   3.955   1.540   0.473  2.9842 -4.3724 -2.8918
  466MOL0     H62910   4.138   1.606   0.619 -1.5506  2.9849  1.4685
  467MOL0     O62911   3.184   0.858   6.839 -0.1228 -0.0380 -0.7047
  467MOL0     C62912   3.165   0.874   6.961 -0.3064  0.9871  0.7519
  467MOL0     O62913   3.070   0.957   7.022 -0.3576 -0.2057 -0.6631
  467MOL0     C62914   2.983   1.045   6.954 -0.0547 -1.2077 -0.0962
  467MOL0     C62915   2.983   1.082   6.821  0.0860  0.6354 -0.4202
  467MOL0     C62916   2.901   1.190   6.783 -0.6656 -0.6414  0.2157
  467MOL0     C62917   2.802   1.235   6.866  0.8022  0.0370  0.3725
  467MOL0     O62918   2.705   1.325   6.828 -0.0417  0.0703  0.5335
  467MOL0     C62919   2.573   1.283   6.837 -0.4762  0.0816 -0.6702
  467MOL0     C62920   2.487   1.355   6.725  0.1379  0.8671 -0.3146
  467MOL0     C62921   2.339   1.321   6.717 -0.5361  0.1972  0.0440
  467MOL0     C62922   2.287   1.379   6.588  0.3518 -0.5332  1.2673
  467MOL0     C62923   2.138   1.336   6.563 -0.6430 -0.1279  0.2903
  467MOL0     C62924   2.084   1.416   6.443 -1.0299  0.7672  0.1189
  467MOL0     C62925   2.064   1.569   6.462 -0.6077 -0.2984 -0.2128
  467MOL0     C62926   2.012   1.639   6.336  0.2336  0.4751 -0.2735
  467MOL0     N62927   2.033   1.785   6.335 -0.1579  0.0814 -0.9537
  467MOL0     C62928   1.971   1.868   6.431  0.3468 -0.3655 -0.4213
  467MOL0     C62929   2.033   1.991   6.413  0.3388  1.0431  0.6037
  467MOL0     C62930   2.005   2.106   6.502 -0.5759 -0.3702 -0.2489
  467MOL0     C62931   2.026   2.081   6.655  0.8460  0.7351 -0.2743
  467MOL0     C62932   2.166   2.035   6.706 -0.0213 -0.0943 -0.4054
  467MOL0     C62933   2.142   1.952   6.836 -0.3856  0.5033 -0.2328
  467MOL0     O62934   2.082   1.827   6.818 -0.6769 -0.3810  0.6860
  467MOL0     C62935   2.073   1.752   6.929  0.3084  0.2035 -0.5770
  467MOL0     C62936   2.107   1.796   7.065 -0.2449 -0.6754 -0.5112
  467MOL0     C62937   2.093   1.711   7.173  0.5624  0.6203 -0.3855
  467MOL0     C62938   2.126   1.777   7.306  0.2136  0.8155  0.4513
  467MOL0     C62939   2.077   1.571   7.151 -0.4970 -0.5218  0.6911
  467MOL0     C62940   2.070   1.465   7.256 -0.0533  0.0646 -1.0391
  467MOL0     O62941   2.083   1.338   7.217 -0.5106  0.7455 -0.2607
  467MOL0     C62942   2.110   1.230   7.297 -1.3225  0.5331  0.1417
  467MOL0     C62943   2.108   1.093   7.256 -0.6927 -0.6230 -0.0839
  467MOL0     C62944   2.153   0.991   7.354  0.0991 -0.0429  0.1354
  467MOL0     C62945   2.188   1.024   7.480  0.7653  0.2105  0.2832
  467MOL0     O62946   2.226   0.920   7.557 -0.0615  0.7592  0.3616
  467MOL0     C62947   2.304   0.951   7.687  0.6736  0.1928  0.3420
  467MOL0     C62948   2.409   0.839   7.696 -0.5726  0.0297  0.3490
  467MOL0     C62949   2.502   0.882   7.812  0.3785  0.1481 -0.2264
  467MOL0     C62950   2.578   0.768   7.860 -0.4511 -0.0200 -0.2250
  467MOL0     C62951   2.621   0.776   8.011 -0.2527  0.5226 -0.3760
  467MOL0     C62952   2.524   0.745   8.123  0.0066  0.8691  1.1899
  467MOL0     C62953   2.572   0.787   8.266  0.1267  0.5811  0.3937
  467MOL0     C62954   2.679   0.685   8.304  0.2028  0.7968 -0.2279
  467MOL0    Cl62955   2.728   0.694   8.469 -0.2991 -0.6741 -0.0548
  467MOL0     C62956   2.189   1.156   7.520  0.4425  0.2841 -0.3521
  467MOL0     C62957   2.152   1.252   7.428  0.2775 -0.5784  0.0843
  467MOL0     O62958   2.039   1.509   7.369  0.1018 -1.0736 -0.1445
  467MOL0     C62959   2.060   1.532   7.019  0.2621  0.3428  0.1743
  467MOL0     C62960   2.049   1.618   6.911  1.3249 -0.4140  0.3748
  467MOL0     N62961   2.123   1.977   6.318 -0.0947  0.7616 -0.1398
  467MOL0     N62962   2.120   1.857   6.266 -0.1643  0.0188 -0.4152
  467MOL0     C62963   2.792   1.179   6.990 -1.0626  0.0288  0.5780
  467MOL0     C62964   2.888   1.095   7.041  0.7415 -0.0141 -0.0377
  467MOL0     C62965   3.261   0.811   7.052 -0.3652 -0.0896 -0.8053
  467MOL0     C62966   3.234   0.818   7.200  0.2472 -0.2084 -0.6500
  467MOL0     C62967   3.313   0.756   7.293  0.0687  0.0669 -0.2141
  467MOL0     C62968   3.432   0.689   7.254 -0.6009 -0.3069 -0.5268
  467MOL0     O62969   3.528   0.635   7.335  0.6082  0.3396 -0.3921
  467MOL0     C62970   3.516   0.653   7.482 -0.5328  0.0775  0.6176
  467MOL0     C62971   3.612   0.549   7.554  0.6725  0.3076 -0.1766
  467MOL0     C62972   3.560   0.524   7.703 -0.1594 -0.3126  0.1353
  467MOL0     C62973   3.675   0.468   7.781  0.1694  0.1784  0.2939
  467MOL0     C62974   3.621   0.424   7.906 -0.1498  0.0924 -0.2004
  467MOL0     C62975   3.587   0.404   8.016  0.5002 -1.2073 -0.9951
  467MOL0     C62976   3.466   0.698   7.118  0.6227  0.3704  0.0474
  467MOL0     C62977   3.384   0.763   7.020 -0.8144 -0.0405  0.9509
  467MOL0     H62978   3.061   1.048   6.753 -0.1049  1.7561 -1.2246
  467MOL0     H62979   2.916   1.229   6.683 -0.3273  1.2506  0.9594
  467MOL0     H62980   2.562   1.175   6.828 -2.2800  0.0396  1.2379
  467MOL0     H62981   2.538   1.306   6.938  1.5046  1.5055 -0.2459
  467MOL0     H62982   2.497   1.463   6.740  0.2548  1.1678 -2.3288
  467MOL0     H62983   2.533   1.336   6.628 -1.9936 -0.7025 -1.1060
  467MOL0     H62984   2.338   1.213   6.696  0.6509 -0.6721  3.7034
  467MOL0     H62985   2.281   1.335   6.809 -0.6461 -0.8836  0.1560
  467MOL0     H62986   2.298   1.486   6.605  0.2200 -0.5595  1.5202
  467MOL0     H62987   2.341   1.345   6.499 -2.2913 -0.6079 -0.4124
  467MOL0     H62988   2.135   1.234   6.523 -0.8387  1.0662 -3.0107
  467MOL0     H62989   2.081   1.341   6.656 -1.6545 -4.6786  0.1748
  467MOL0     H62990   2.151   1.383   6.363 -0.0556  0.6790  0.9383
  467MOL0     H62991   1.985   1.372   6.432  0.3639 -2.5290 -0.6736
  467MOL0     H62992   1.991   1.589   6.541 -1.5247  1.2570 -1.3877
  467MOL0     H62993   2.153   1.629   6.486 -2.0149  1.7837  0.0114
  467MOL0     H62994   1.906   1.617   6.318 -0.3343 -0.0502  3.0835
  467MOL0     H62995   2.066   1.600   6.249  0.2628 -0.2197  0.0475
  467MOL0     H62996   1.907   1.843   6.515  0.7828 -1.8172 -0.5042
  467MOL0     H62997   2.073   2.186   6.471  1.3204 -1.1232  1.6477
  467MOL0     H62998   1.900   2.131   6.486 -0.7324  0.7083  1.9578
  467MOL0     H62999   1.947   2.014   6.691  0.3760  2.8458  3.0854
  467MOL0     H63000   1.990   2.168   6.711 -0.8758  0.4185 -0.8382
  467MOL0     H63001   2.228   2.121   6.730 -0.4721 -0.1174  0.9385
  467MOL0     H63002   2.208   1.968   6.630  1.3139 -3.5813  3.0502
  467MOL0     H63003   2.073   2.010   6.898  0.2871  2.7665 -1.4932
  467MOL0     H63004   2.237   1.926   6.884 -1.0173  2.2410  2.1542
  467MOL0     H63005   2.129   1.901   7.084 -2.9201 -0.2620  0.8873
  467MOL0     H63006   2.202   1.855   7.290  0.2423  0.4989 -1.1583
  467MOL0     H63007   2.039   1.820   7.357  0.2880  1.8187 -0.2439
  467MOL0     H63008   2.174   1.702   7.369 -1.5862 -0.1903  0.6830
  467MOL0     H63009   2.089   1.080   7.150  2.0591 -0.2252 -0.6996
  467MOL0     H63010   2.148   0.886   7.326 -2.9963 -1.2172  4.2552
  467MOL0     H63011   2.360   1.044   7.680  0.7515  0.0159 -1.9448
  467MOL0     H63012   2.239   0.958   7.775  2.4768  3.4206  1.5630
  467MOL0     H63013   2.365   0.741   7.717  2.4862 -0.8957  3.4790
  467MOL0     H63014   2.467   0.842   7.603  0.6398 -1.8829  0.9786
  467MOL0     H63015   2.438   0.928   7.888 -1.2102  2.5572 -2.8158
  467MOL0     H63016   2.578   0.957   7.785  1.1910  1.9018  5.5164
  467MOL0     H63017   2.505   0.686   7.859 -2.7843  1.8920  1.2988
  467MOL0     H63018   2.655   0.742   7.787  1.9240  1.5889  1.5738
  467MOL0     H63019   2.671   0.871   8.032 -0.9173  1.0576 -1.1725
  467MOL0     H63020   2.702   0.704   8.021 -0.8837 -0.3500 -1.3222
  467MOL0     H63021   2.426   0.792   8.108 -1.7353 -2.8492 -0.6697
  467MOL0     H63022   2.495   0.641   8.105  0.3841  1.3311 -3.2949
  467MOL0     H63023   2.485   0.779   8.332 -0.8112  1.0086 -0.7603
  467MOL0     H63024   2.608   0.890   8.272 -1.9264  1.5564 -2.0182
  467MOL0     H63025   2.766   0.720   8.247 -0.2342  0.6957 -0.9659
  467MOL0     H63026   2.642   0.585   8.280 -0.3156 -0.3590  4.4539
  467MOL0     H63027   2.211   1.187   7.622  1.1739 -0.7173 -0.1977
  467MOL0     H63028   2.157   1.354   7.464 -3.3547  0.8056 -2.7347
  467MOL0     H63029   2.046   1.429   6.987 -1.7661  0.9259 -0.9762
  467MOL0     H63030   2.027   1.591   6.808  0.3617  0.3016  0.3799
  467MOL0     H63031   2.714   1.210   7.060 -2.4289 -0.4116 -0.7012
  467MOL0     H63032   2.891   1.063   7.144  0.1562  3.1063  1.0467
  467MOL0     H63033   3.147   0.871   7.235 -0.3775  0.2932 -2.8112
  467MOL0     H63034   3.279   0.757   7.396 -1.0555 -0.6798 -0.5663
  467MOL0     H63035   3.529   0.758   7.512 -0.5910 -0.3493  2.2339
  467MOL0     H63036   3.412   0.620   7.493 -0.1412 -1.3371  0.1786
  467MOL0     H63037   3.715   0.582   7.545  0.7638 -0.4506 -2.5935
  467MOL0     H63038   3.596   0.456   7.498  1.1821 -1.2297  2.0950
  467MOL0     H63039   3.468   0.469   7.723 -2.2464  3.4123  1.8939
  467MOL0     H63040   3.533   0.621   7.745 -3.8418 -1.4487  0.7886
  467MOL0     H63041   3.757   0.536   7.803  2.5447 -1.9621 -1.3052
  467MOL0     H63042   3.707   0.380   7.723 -4.1646 -0.4949 -1.4673
  467MOL0     H63043   3.570   0.380   8.119 -1.9325 -0.2318 -1.0902
  467MOL0     H63044   3.558   0.647   7.093  1.3670  0.8266  1.7746
  467MOL0     H63045   3.426   0.748   6.921 -0.9372 -1.5193  1.0943
  468MOL0     O63046   9.984   6.855   5.060 -0.0061 -0.3977  0.3093
  468MOL0     C63047  10.109   6.857   5.056 -0.5695 -0.0298  0.2325
  468MOL0     O63048  10.189   6.749   5.037  0.6244  0.1061  0.7712
  468MOL0     C63049  10.138   6.628   4.989  0.0722 -0.0613  0.6135
  468MOL0     C63050  10.022   6.600   4.912  0.5495  0.0752  0.4339
  468MOL0     C63051   9.992   6.466   4.888  0.2254 -0.5774 -0.6154
  468MOL0     C63052  10.085   6.362   4.916  0.2701 -0.2652  0.3666
  468MOL0     O63053  10.072   6.232   4.878 -0.4737  0.2509  0.6654
  468MOL0     C63054   9.945   6.178   4.846 -0.0421 -0.6824  0.8039
  468MOL0     C63055   9.926   6.196   4.694 -0.1900  0.8601  0.3835
  468MOL0     C63056  10.029   6.128   4.598 -0.7100  0.3727  0.2495
  468MOL0     C63057  10.178   6.177   4.624  0.3488  0.7854  0.0003
  468MOL0     C63058  10.268   6.149   4.509 -0.2506  0.7032 -0.6960
  468MOL0     C63059  10.329   6.013   4.505  0.0131 -0.2723  0.0492
  468MOL0     C63060  10.431   6.011   4.393 -0.0343 -0.3219  0.3831
  468MOL0     C63061  10.574   5.978   4.455  0.9719 -0.3422  0.5284
  468MOL0     N63062  10.634   6.086   4.524  0.2138 -0.5997 -0.2113
  468MOL0     C63063  10.655   6.206   4.466 -0.0645 -0.1513 -0.5762
  468MOL0     C63064  10.707   6.280   4.565 -0.2053  0.0091 -0.8791
  468MOL0     C63065  10.745   6.430   4.565  0.2481  0.1003  0.5399
  468MOL0     C63066  10.801   6.479   4.432  0.0341  0.4196  0.1502
  468MOL0     C63067  10.846   6.628   4.437  0.1406 -0.5784  0.7837
  468MOL0     C63068  10.766   6.724   4.342 -0.1112 -0.0122 -0.5000
  468MOL0     O63069  10.799   6.695   4.202 -0.3635  0.3423  1.2805
  468MOL0     C63070  10.706   6.730   4.102  0.1729  0.1879 -0.4639
  468MOL0     C63071  10.731   6.693   3.970 -0.2349  0.7845  0.2730
  468MOL0     C63072  10.642   6.712   3.861 -0.0482 -0.2891 -0.2697
  468MOL0     C63073  10.700   6.679   3.724 -0.2437  0.0110 -1.6058
  468MOL0     C63074  10.514   6.760   3.887  0.2574  0.1617 -0.1267
  468MOL0     C63075  10.409   6.782   3.781  0.3112 -0.4061 -0.6733
  468MOL0     O63076  10.290   6.826   3.823 -0.0708 -0.6204 -0.4892
  468MOL0     C63077  10.165   6.772   3.798 -1.0090  0.7918 -0.5331
  468MOL0     C63078  10.142   6.650   3.730 -0.7481 -0.2154  0.3074
  468MOL0     C63079  10.010   6.608   3.721  0.5630 -0.4072  0.2174
  468MOL0     C63080   9.905   6.679   3.765  0.6515 -0.1111  0.1875
  468MOL0     O63081   9.782   6.618   3.746 -0.3172 -0.2771  0.4752
  468MOL0     C63082   9.671   6.670   3.821 -0.3466  0.3457  0.0235
  468MOL0     C63083   9.581   6.551   3.855  0.1365 -1.0406 -0.1686
  468MOL0     C63084   9.481   6.577   3.964 -0.6924 -0.0707 -0.0273
  468MOL0     C63085   9.420   6.462   4.044  0.1386  0.5862 -0.6891
  468MOL0     C63086   9.507   6.334   4.058  0.2955 -0.6385 -0.1456
  468MOL0     C63087   9.435   6.226   4.135 -0.2641 -0.4175 -0.0199
  468MOL0     C63088   9.324   6.157   4.058  0.5023 -0.1316 -0.2469
  468MOL0     C63089   9.276   6.031   4.145 -0.1974 -0.7284  0.3057
  468MOL0    Cl63090   9.190   6.077   4.296  0.6608  0.1192 -0.0057
  468MOL0     C63091   9.926   6.799   3.832  0.6327  0.2641  0.0374
  468MOL0     C63092  10.057   6.843   3.846 -0.4707 -0.1492 -0.3042
  468MOL0     O63093  10.434   6.760   3.668 -0.0499 -0.2227 -0.3505
  468MOL0     C63094  10.487   6.795   4.017  0.5151 -0.1196  0.0629
  468MOL0     C63095  10.576   6.781   4.119  0.0589  0.3160 -0.2068
  468MOL0     N63096  10.730   6.202   4.679 -0.0760  0.5479  0.5002
  468MOL0     N63097  10.678   6.084   4.650  0.2521  0.0053 -0.3856
  468MOL0     C63098  10.202   6.399   4.980  0.2010 -0.1214 -0.1822
  468MOL0     C63099  10.230   6.530   5.017  0.0958 -0.5511 -0.3233
  468MOL0     C63100  10.177   6.988   5.077  0.9134 -0.4313  0.1878
  468MOL0     C63101  10.111   7.109   5.044  0.2561  0.0723  0.2551
  468MOL0     C63102  10.183   7.224   5.059  0.5107 -0.5429  0.6126
  468MOL0     C63103  10.310   7.226   5.116 -0.3127 -0.3823  0.9226
  468MOL0     O63104  10.381   7.347   5.141  0.3221 -0.4011  0.3461
  468MOL0     C63105  10.308   7.456   5.208 -0.2960  0.8254  0.1631
  468MOL0     C63106  10.408   7.565   5.250  0.0275  0.2078 -0.6787
  468MOL0     C63107  10.359   7.669   5.357  0.5137  1.0950 -0.3047
  468MOL0     C63108  10.277   7.781   5.297 -0.0907  0.4975  0.2682
  468MOL0     C63109  10.355   7.853   5.203  0.0896 -0.9706  0.0003
  468MOL0     C63110  10.429   7.916   5.126 -0.3304  0.4086 -0.4758
  468MOL0     C63111  10.372   7.111   5.148 -0.5372  1.2523  0.0835
  468MOL0     C63112  10.303   6.995   5.131 -0.5671  0.0134 -0.8808
  468MOL0     H63113   9.951   6.676   4.879  3.9803  3.5387  0.2348
  468MOL0     H63114   9.901   6.438   4.836  1.0024 -0.4680 -2.0876
  468MOL0     H63115   9.933   6.071   4.867  1.6537 -0.4269  3.5676
  468MOL0     H63116   9.869   6.236   4.899  0.3877  0.0156  0.6619
  468MOL0     H63117   9.823   6.170   4.669 -0.5212  2.2034  0.2884
  468MOL0     H63118   9.906   6.301   4.671  0.5824  0.3813 -2.9100
  468MOL0     H63119  10.022   6.019   4.598 -0.5425  0.3587 -0.3831
  468MOL0     H63120  10.016   6.143   4.491  1.1100 -2.4621 -0.4778
  468MOL0     H63121  10.176   6.285   4.637  1.4143  1.0940 -2.0754
  468MOL0     H63122  10.218   6.129   4.715 -1.9500 -1.7429 -0.1829
  468MOL0     H63123  10.208   6.153   4.418 -0.5116  0.8980 -0.5153
  468MOL0     H63124  10.347   6.224   4.510 -0.0892  0.5724  1.9288
  468MOL0     H63125  10.362   5.973   4.602 -2.7961 -4.3206 -0.4097
  468MOL0     H63126  10.250   5.941   4.482  2.0998 -2.3325 -1.1303
  468MOL0     H63127  10.398   5.937   4.319  0.3917 -0.3831  0.2496
  468MOL0     H63128  10.429   6.103   4.333 -1.7502 -1.8247 -2.0824
  468MOL0     H63129  10.633   5.953   4.367  2.5056  0.4464  1.2818
  468MOL0     H63130  10.574   5.894   4.525  1.1067 -0.4657  0.3789
  468MOL0     H63131  10.635   6.228   4.361 -0.1201 -0.9181 -0.7276
  468MOL0     H63132  10.655   6.490   4.584 -0.0395  0.9891 -2.9539
  468MOL0     H63133  10.814   6.454   4.647  0.9742  1.2275 -0.3563
  468MOL0     H63134  10.732   6.454   4.351 -1.1010 -1.3844  1.5631
  468MOL0     H63135  10.891   6.419   4.422  0.2154  0.4477  1.4407
  468MOL0     H63136  10.952   6.638   4.414  0.0079  1.3539  0.8292
  468MOL0     H63137  10.841   6.659   4.541  0.5687 -1.0086  0.9369
  468MOL0     H63138  10.796   6.823   4.379  2.0716 -1.3439  1.5800
  468MOL0     H63139  10.660   6.727   4.365  0.0112  1.5360 -0.0175
  468MOL0     H63140  10.830   6.657   3.942 -1.2400 -0.6617 -1.6561
  468MOL0     H63141  10.809   6.682   3.733 -0.2649 -3.0516  2.1489
  468MOL0     H63142  10.670   6.578   3.697  1.9688 -0.9790 -0.6389
  468MOL0     H63143  10.643   6.743   3.656 -2.5099  3.7134  3.1509
  468MOL0     H63144  10.224   6.584   3.703  1.3557  2.0594  0.7550
  468MOL0     H63145   9.993   6.511   3.677 -3.6789 -0.4601  1.5906
  468MOL0     H63146   9.703   6.722   3.911  1.8588  2.8046 -1.9991
  468MOL0     H63147   9.620   6.742   3.756  0.6978  1.2086  0.1325
  468MOL0     H63148   9.541   6.498   3.768  1.3115 -0.3439 -1.1688
  468MOL0     H63149   9.651   6.481   3.901  1.3090  0.4131  0.3723
  468MOL0     H63150   9.410   6.655   3.935  0.8741  0.4572 -2.7820
  468MOL0     H63151   9.537   6.632   4.040 -1.4172 -1.0221  1.2235
  468MOL0     H63152   9.393   6.495   4.144 -1.5604  3.6356 -2.0363
  468MOL0     H63153   9.335   6.422   3.987 -0.0892  1.5284 -1.0184
  468MOL0     H63154   9.601   6.356   4.109  1.4895 -0.7409 -2.1854
  468MOL0     H63155   9.547   6.306   3.960  4.4100  2.7440  0.2745
  468MOL0     H63156   9.506   6.153   4.177  0.3662  1.7336  3.0230
  468MOL0     H63157   9.396   6.279   4.222  1.6999 -1.8754  1.8759
  468MOL0     H63158   9.360   6.127   3.959  0.6356 -2.4117  0.4378
  468MOL0     H63159   9.240   6.227   4.052  2.1950  2.1233  0.5301
  468MOL0     H63160   9.366   5.974   4.171  1.8412  0.0605 -4.1174
  468MOL0     H63161   9.209   5.971   4.084 -0.1264 -0.6644  0.1641
  468MOL0     H63162   9.839   6.855   3.867 -1.0178 -1.8057 -0.5101
  468MOL0     H63163  10.078   6.933   3.904 -0.2827  0.0659 -0.6993
  468MOL0     H63164  10.394   6.844   4.044  0.4975 -0.2065  0.1557
  468MOL0     H63165  10.537   6.780   4.220 -4.0802 -1.9515 -1.5460
  468MOL0     H63166  10.275   6.326   5.014 -1.8653 -2.2970 -0.1117
  468MOL0     H63167  10.322   6.556   5.070 -0.7152 -0.8518  1.2804
  468MOL0     H63168  10.006   7.118   5.018  0.0136 -4.3740 -1.0440
  468MOL0     H63169  10.126   7.313   5.031 -1.7714 -2.1439 -0.1335
  468MOL0     H63170  10.232   7.489   5.137  0.5797 -1.2189 -1.8309
  468MOL0     H63171  10.250   7.416   5.292 -0.5831 -0.0866 -0.4548
  468MOL0     H63172  10.457   7.613   5.165  1.8713 -0.9605 -0.3223
  468MOL0     H63173  10.503   7.534   5.295 -0.1547  1.6648  0.7869
  468MOL0     H63174  10.447   7.711   5.407 -0.3028  0.9473  1.3158
  468MOL0     H63175  10.295   7.620   5.431 -0.7248  0.5923 -1.6415
  468MOL0     H63176  10.244   7.852   5.373  0.6549  2.0453 -0.8119
  468MOL0     H63177  10.199   7.723   5.247  1.2210 -1.4561  0.3917
  468MOL0     H63178  10.499   7.956   5.056 -0.4443 -1.3894 -1.6899
  468MOL0     H63179  10.469   7.103   5.196 -1.6046  1.0817  2.3346
  468MOL0     H63180  10.352   6.902   5.157  1.8535  1.6428  0.8061
  469MOL0     O63181   3.509  11.235   6.146  0.0879 -0.1093  0.3998
  469MOL0     C63182   3.447  11.302   6.060 -0.3605  0.5424  0.4450
  469MOL0     O63183   3.370  11.407   6.079  0.1071  0.3939 -0.0917
  469MOL0     C63184   3.367  11.486   6.193  0.5441  0.4386 -0.0741
  469MOL0     C63185   3.467  11.497   6.300 -0.2078  0.6440  0.1612
  469MOL0     C63186   3.443  11.588   6.407 -0.9108  0.7350  0.5569
  469MOL0     C63187   3.328  11.663   6.417  0.1867 -0.4989  0.2196
  469MOL0     O63188   3.292  11.745   6.523 -1.0271  0.2760 -1.2418
  469MOL0     C63189   3.391  11.793   6.611 -0.7078  0.6299 -0.0461
  469MOL0     C63190   3.338  11.860   6.733  0.7469  0.4139 -0.0088
  469MOL0     C63191   3.277  11.742   6.819 -1.3386  0.0552  0.0264
  469MOL0     C63192   3.217  11.799   6.956  0.0571 -0.6754  0.3826
  469MOL0     C63193   3.096  11.892   6.947 -0.1288 -0.6133 -0.7478
  469MOL0     C63194   3.057  11.933   7.083  0.0110  0.1302 -0.1590
  469MOL0     C63195   2.928  12.018   7.110  0.1250  1.4066  0.7494
  469MOL0     C63196   2.914  12.062   7.256 -0.4025 -0.1493 -0.3261
  469MOL0     N63197   2.801  12.142   7.289  0.3243 -0.8832  0.0241
  469MOL0     C63198   2.730  12.235   7.214 -0.2564 -0.4615  0.6908
  469MOL0     C63199   2.617  12.263   7.289  0.1219 -0.0995 -0.5032
  469MOL0     C63200   2.504  12.369   7.254  1.2623  0.3833  0.4561
  469MOL0     C63201   2.552  12.507   7.287 -0.3000  0.4856  0.4731
  469MOL0     C63202   2.467  12.607   7.211 -0.6071 -0.2493 -0.1408
  469MOL0     C63203   2.481  12.748   7.261 -0.8178  0.5485 -0.2526
  469MOL0     O63204   2.437  12.835   7.156 -0.2233  0.0740  0.3735
  469MOL0     C63205   2.472  12.969   7.179 -0.2692  0.8844  0.7520
  469MOL0     C63206   2.523  13.031   7.298 -0.2194 -0.1710  0.4941
  469MOL0     C63207   2.525  13.173   7.307  0.7926 -0.2136 -0.5106
  469MOL0     C63208   2.581  13.232   7.439 -0.7063 -0.1045 -0.0119
  469MOL0     C63209   2.487  13.253   7.201 -0.4656  0.6311 -0.4260
  469MOL0     C63210   2.476  13.401   7.207 -0.3431  0.0163  0.5227
  469MOL0     O63211   2.357  13.452   7.156  0.3112  0.0541 -0.2393
  469MOL0     C63212   2.338  13.585   7.174 -0.1517  0.2271  1.3093
  469MOL0     C63213   2.383  13.677   7.079  0.5224 -0.1425  0.8242
  469MOL0     C63214   2.319  13.809   7.078 -1.5624 -0.3642 -0.1900
  469MOL0     C63215   2.239  13.851   7.188  0.3205 -0.3730 -0.4031
  469MOL0     O63216   2.187  13.968   7.202 -0.1759  0.0622  0.2187
  469MOL0     C63217   2.211  14.063   7.099  0.0336 -0.0073  0.6983
  469MOL0     C63218   2.155  14.204   7.135 -0.7612 -0.6167 -0.6450
  469MOL0     C63219   2.003  14.210   7.118 -0.4962 -0.6532 -0.3555
  469MOL0     C63220   1.947  14.350   7.137  0.3303  0.1526 -1.0955
  469MOL0     C63221   1.805  14.323   7.210 -0.8255 -0.0590 -0.9549
  469MOL0     C63222   1.729  14.454   7.222  0.5842 -0.1404 -0.1397
  469MOL0     C63223   1.624  14.438   7.331  0.8545  0.6356  0.0280
  469MOL0     C63224   1.526  14.558   7.366  0.2942 -0.3671  1.0441
  469MOL0    Cl63225   1.615  14.710   7.382  0.2445  0.2152 -0.2048
  469MOL0     C63226   2.211  13.763   7.286 -0.8160 -0.4554  0.5524
  469MOL0     C63227   2.252  13.626   7.281  0.0212 -0.4335  0.3291
  469MOL0     O63228   2.570  13.459   7.255  0.4250  0.4127 -0.0910
  469MOL0     C63229   2.450  13.185   7.082  1.0734 -0.6584  0.3203
  469MOL0     C63230   2.433  13.048   7.075  0.4003  0.3056  0.9395
  469MOL0     N63231   2.623  12.192   7.413 -0.4090 -0.6157  0.5409
  469MOL0     N63232   2.733  12.128   7.406 -0.5435  0.4026 -0.4112
  469MOL0     C63233   3.229  11.642   6.319  0.7725 -0.0923 -0.4282
  469MOL0     C63234   3.253  11.554   6.213  0.1233 -0.1983 -0.5513
  469MOL0     C63235   3.482  11.264   5.924  0.0229  0.9460 -0.0970
  469MOL0     C63236   3.427  11.325   5.808 -0.5656 -0.1628 -0.4378
  469MOL0     C63237   3.458  11.302   5.676  0.4723 -0.0892  0.1382
  469MOL0     C63238   3.558  11.210   5.648 -0.4003  0.5676 -0.6607
  469MOL0     O63239   3.605  11.168   5.521  0.3752  0.6216 -0.9172
  469MOL0     C63240   3.514  11.188   5.415 -0.3347  0.0594  0.3843
  469MOL0     C63241   3.571  11.169   5.275 -0.0644 -0.1130 -0.3237
  469MOL0     C63242   3.645  11.298   5.238  0.6203  0.3368 -1.3327
  469MOL0     C63243   3.549  11.416   5.218 -0.0664  0.0961  0.0622
  469MOL0     C63244   3.593  11.520   5.131  0.0587 -0.3145  0.8201
  469MOL0     C63245   3.615  11.603   5.045  0.3507  0.5284 -0.3001
  469MOL0     C63246   3.618  11.145   5.760 -0.5293 -0.4634 -0.0926
  469MOL0     C63247   3.575  11.168   5.890 -0.3700  0.5072  0.6696
  469MOL0     H63248   3.566  11.455   6.294  0.0781  0.8095  2.6674
  469MOL0     H63249   3.527  11.591   6.476  2.1705  0.5395 -2.8974
  469MOL0     H63250   3.466  11.718   6.637 -0.3013  0.5543 -1.3654
  469MOL0     H63251   3.444  11.864   6.546 -1.5696 -0.3174 -1.8669
  469MOL0     H63252   3.414  11.924   6.780  0.3930 -0.3349  1.6793
  469MOL0     H63253   3.262  11.930   6.697 -0.3613  0.1870  1.7467
  469MOL0     H63254   3.197  11.702   6.756 -3.5602  2.0541  1.3872
  469MOL0     H63255   3.363  11.679   6.843 -0.2094  1.4706 -0.1430
  469MOL0     H63256   3.175  11.707   6.997  0.0261 -0.1226  1.6480
  469MOL0     H63257   3.288  11.844   7.025 -0.1738 -0.7767  0.6902
  469MOL0     H63258   3.105  11.988   6.895  0.1152  0.5824  1.3711
  469MOL0     H63259   3.018  11.838   6.893  1.3053 -4.2851  0.5405
  469MOL0     H63260   3.043  11.843   7.144  0.2371  1.2527  1.6268
  469MOL0     H63261   3.142  11.984   7.131  0.5695 -1.1280  0.2329
  469MOL0     H63262   2.935  12.106   7.045  0.4483  0.9213  0.1158
  469MOL0     H63263   2.835  11.964   7.088  1.8300 -2.4022  2.0141
  469MOL0     H63264   3.001  12.127   7.272 -2.0001  2.5972 -1.8532
  469MOL0     H63265   2.908  11.977   7.323 -0.5575 -0.5993 -0.8976
  469MOL0     H63266   2.754  12.279   7.118 -1.2378 -3.0511 -0.8519
  469MOL0     H63267   2.471  12.373   7.150 -1.2970 -0.8916  1.1457
  469MOL0     H63268   2.416  12.353   7.317 -0.8726  0.1120 -2.4331
  469MOL0     H63269   2.654  12.521   7.250 -0.7480  1.5832 -0.4017
  469MOL0     H63270   2.550  12.529   7.394 -2.8096  2.4637  0.1052
  469MOL0     H63271   2.362  12.574   7.215 -0.5786 -0.2519  0.8242
  469MOL0     H63272   2.490  12.605   7.104  1.3858 -1.7376  0.2715
  469MOL0     H63273   2.584  12.777   7.286 -1.2171  2.1648 -0.3329
  469MOL0     H63274   2.421  12.758   7.351  2.0375  1.1823  1.7261
  469MOL0     H63275   2.564  12.975   7.381 -2.0250 -2.0578  0.1900
  469MOL0     H63276   2.613  13.151   7.505 -1.5363 -0.6671 -0.2922
  469MOL0     H63277   2.667  13.294   7.410 -0.6509 -0.3007 -0.2732
  469MOL0     H63278   2.507  13.289   7.495 -1.0831  0.9686 -1.5273
  469MOL0     H63279   2.434  13.652   6.986 -1.6479 -0.7036 -0.2956
  469MOL0     H63280   2.339  13.885   7.003 -0.6643  1.3290  1.6649
  469MOL0     H63281   2.317  14.082   7.082 -0.1309  1.6729  1.3159
  469MOL0     H63282   2.151  14.034   7.013  0.5134 -2.8558  1.2146
  469MOL0     H63283   2.186  14.232   7.237  2.7922  0.2633 -1.7989
  469MOL0     H63284   2.201  14.273   7.064 -1.2266 -0.9162 -1.2438
  469MOL0     H63285   1.954  14.139   7.186 -0.7524 -0.6703 -0.5568
  469MOL0     H63286   1.978  14.177   7.016 -2.0693 -0.6009 -0.0013
  469MOL0     H63287   2.010  14.416   7.196  0.0709 -1.0704  0.6538
  469MOL0     H63288   1.922  14.407   7.048  3.6999  3.0250 -0.4149
  469MOL0     H63289   1.833  14.281   7.307  0.9700 -0.2361 -1.5174
  469MOL0     H63290   1.740  14.247   7.165 -1.0869  0.4175 -1.3975
  469MOL0     H63291   1.798  14.534   7.250  1.9008 -1.6233  1.0214
  469MOL0     H63292   1.678  14.475   7.128 -2.1382  1.7152  1.5880
  469MOL0     H63293   1.681  14.423   7.423 -1.9013 -1.7060  1.5195
  469MOL0     H63294   1.559  14.350   7.325  1.2249  0.4796 -2.7397
  469MOL0     H63295   1.467  14.535   7.455 -2.6861 -0.2247 -0.7614
  469MOL0     H63296   1.456  14.577   7.284 -0.7707 -1.1503  1.7565
  469MOL0     H63297   2.158  13.798   7.374 -2.8071  1.2694 -1.2167
  469MOL0     H63298   2.219  13.563   7.363 -0.9680 -0.7957 -0.3301
  469MOL0     H63299   2.402  13.236   6.999  0.4033  0.6081  1.4456
  469MOL0     H63300   2.381  13.003   6.992 -0.0719  0.6644  1.0407
  469MOL0     H63301   3.135  11.693   6.334  0.4248 -0.6004 -0.8370
  469MOL0     H63302   3.157  11.554   6.162 -1.4274  1.3364  2.0958
  469MOL0     H63303   3.357  11.407   5.819 -1.0866 -0.5283 -0.9378
  469MOL0     H63304   3.402  11.355   5.599  2.3000  0.7723 -0.6807
  469MOL0     H63305   3.437  11.111   5.426  1.0751 -1.5264 -0.3698
  469MOL0     H63306   3.476  11.290   5.431  2.4061  1.1157  0.7603
  469MOL0     H63307   3.507  11.154   5.188 -1.1204  1.2528  0.1789
  469MOL0     H63308   3.631  11.078   5.280 -0.7690 -0.5610  4.2090
  469MOL0     H63309   3.693  11.265   5.146 -1.3362 -3.7934 -1.0812
  469MOL0     H63310   3.728  11.315   5.307 -0.9698 -0.5972  0.9489
  469MOL0     H63311   3.544  11.470   5.313  3.3108  0.0978  0.3863
  469MOL0     H63312   3.452  11.380   5.183 -0.2542  0.3596  0.3126
  469MOL0     H63313   3.620  11.685   4.976 -1.2091  0.5864 -0.3838
  469MOL0     H63314   3.701  11.077   5.743 -0.7435 -0.8606  0.4280
  469MOL0     H63315   3.632  11.120   5.968  2.2221  0.7200 -0.9686
  470MOL0     O63316   3.752  11.320   9.718 -0.0580 -0.2024 -0.2754
  470MOL0     C63317   3.827  11.247   9.781 -0.3601  0.3962  0.6869
  470MOL0     O63318   3.913  11.279   9.887 -0.5887  0.4593  0.0423
  470MOL0     C63319   3.884  11.384   9.973  0.8764 -0.0372 -0.0785
  470MOL0     C63320   3.762  11.455   9.982 -0.0352 -0.2304  0.1028
  470MOL0     C63321   3.762  11.565  10.073  0.0878  0.2208  1.1342
  470MOL0     C63322   3.864  11.579  10.167 -0.4774 -0.5139 -0.4890
  470MOL0     O63323   3.868  11.677  10.259 -0.5407  0.9850 -0.4489
  470MOL0     C63324   3.826  11.798  10.213 -0.4908 -1.0850 -0.0877
  470MOL0     C63325   3.843  11.901  10.322  0.0974  0.1571 -0.9940
  470MOL0     C63326   3.795  12.046  10.285  0.5085  0.6377  0.3181
  470MOL0     C63327   3.803  12.139  10.404  0.5100 -0.0430 -0.3238
  470MOL0     C63328   3.754  12.280  10.381  0.1693  0.8574  0.0018
  470MOL0     C63329   3.734  12.370  10.506  0.4712  0.9071 -0.1698
  470MOL0     C63330   3.607  12.340  10.589 -0.0184 -0.4636 -0.0799
  470MOL0     C63331   3.591  12.421  10.712  0.2441 -0.3383 -0.2907
  470MOL0     N63332   3.451  12.449  10.757 -0.5894 -0.6161  0.1946
  470MOL0     C63333   3.372  12.375  10.840  0.2447 -0.2770  0.2798
  470MOL0     C63334   3.258  12.448  10.863  0.7194  0.2329 -0.1764
  470MOL0     C63335   3.135  12.406  10.939 -0.2712  0.2898  0.6072
  470MOL0     C63336   3.046  12.308  10.850 -0.1739  0.2045 -0.9026
  470MOL0     C63337   3.096  12.166  10.824  0.7501 -0.4086 -0.0293
  470MOL0     C63338   2.985  12.076  10.775  0.0994 -0.3905 -0.2174
  470MOL0     O63339   2.899  12.049  10.893 -0.6211  0.1942 -0.2414
  470MOL0     C63340   2.789  11.975  10.889  0.2193 -0.1450 -0.3070
  470MOL0     C63341   2.740  11.906  10.775 -0.7894  0.2947 -1.1646
  470MOL0     C63342   2.627  11.817  10.789 -1.3266  0.7331 -0.6795
  470MOL0     C63343   2.589  11.740  10.666 -0.0219  0.6659  0.1306
  470MOL0     C63344   2.560  11.815  10.913  0.4831  0.8210 -0.5392
  470MOL0     C63345   2.440  11.734  10.936  0.4574  0.6057 -0.1828
  470MOL0     O63346   2.330  11.750  10.851  0.4172 -0.0354 -0.4526
  470MOL0     C63347   2.222  11.664  10.868 -1.0599  0.7349  0.6262
  470MOL0     C63348   2.103  11.731  10.874 -0.2355 -0.4096 -0.7456
  470MOL0     C63349   1.986  11.658  10.908 -0.0799  0.8744 -0.7055
  470MOL0     C63350   1.992  11.525  10.939 -1.1823  0.1595  0.4773
  470MOL0     O63351   1.884  11.445  10.981  0.3363  0.7770  0.6849
  470MOL0     C63352   1.754  11.459  10.932 -1.4175 -2.0186  0.0829
  470MOL0     C63353   1.753  11.389  10.795 -0.2992 -0.4032  0.0707
  470MOL0     C63354   1.628  11.428  10.713 -0.3908 -0.2948 -0.4019
  470MOL0     C63355   1.644  11.378  10.574 -0.3623 -0.2569 -0.1738
  470MOL0     C63356   1.518  11.377  10.483  0.4296  0.6850 -0.6961
  470MOL0     C63357   1.551  11.352  10.335 -0.5094 -0.6126 -0.4387
  470MOL0     C63358   1.591  11.211  10.307 -0.5106 -0.0020  0.2572
  470MOL0     C63359   1.626  11.207  10.151 -0.7991  0.4559 -0.8564
  470MOL0    Cl63360   1.492  11.265  10.050 -0.4944  0.0934  0.1562
  470MOL0     C63361   2.105  11.453  10.928  1.0750  0.4672  0.5309
  470MOL0     C63362   2.224  11.523  10.889 -0.1056 -0.0175  0.3833
  470MOL0     O63363   2.438  11.663  11.035  0.6778 -0.0733  0.0222
  470MOL0     C63364   2.611  11.889  11.023  0.7033  0.9860 -0.7425
  470MOL0     C63365   2.721  11.971  11.014 -0.2180  0.2317  0.2965
  470MOL0     N63366   3.268  12.553  10.779  0.0082 -0.5187 -0.3017
  470MOL0     N63367   3.382  12.560  10.723 -0.4641 -0.3584  0.3366
  470MOL0     C63368   3.971  11.489  10.168 -0.7108  0.1059  1.1833
  470MOL0     C63369   3.978  11.388  10.078  0.2653 -0.1066  0.1784
  470MOL0     C63370   3.862  11.114   9.715 -0.0763 -0.4533 -0.3178
  470MOL0     C63371   3.798  11.080   9.600  0.3233 -0.3231  0.0093
  470MOL0     C63372   3.816  10.960   9.537  0.5214  0.0635  0.0561
  470MOL0     C63373   3.910  10.869   9.582 -0.8568 -0.3292  1.5498
  470MOL0     O63374   3.950  10.757   9.519  0.4601  0.1427  0.0991
  470MOL0     C63375   3.874  10.717   9.404  0.3457 -0.4804  0.2906
  470MOL0     C63376   3.955  10.621   9.320  0.7762 -0.3759  0.4817
  470MOL0     C63377   3.895  10.483   9.332 -0.0290 -1.0904  0.5751
  470MOL0     C63378   3.933  10.393   9.213 -0.6991  0.7743 -1.4654
  470MOL0     C63379   3.880  10.420   9.082 -0.5407 -0.2076  0.1379
  470MOL0     C63380   3.829  10.448   8.969  0.2628 -0.0912  0.3652
  470MOL0     C63381   3.972  10.906   9.697  0.7236  0.4664 -0.1226
  470MOL0     C63382   3.950  11.024   9.762  0.9554  0.2285 -0.9797
  470MOL0     H63383   3.677  11.435   9.919 -0.8646 -0.7467  1.3366
  470MOL0     H63384   3.673  11.626  10.072 -1.3805 -1.6522 -2.8863
  470MOL0     H63385   3.886  11.826  10.126 -3.8465 -0.7390 -2.4525
  470MOL0     H63386   3.723  11.805  10.177 -0.7629  1.3130  0.9863
  470MOL0     H63387   3.801  11.863  10.416 -0.1286  0.6248 -0.9014
  470MOL0     H63388   3.949  11.902  10.348  0.0059  0.3652 -0.6192
  470MOL0     H63389   3.861  12.090  10.210  2.9755  1.2199  2.6480
  470MOL0     H63390   3.691  12.045  10.250  0.4595  0.4516  0.4666
  470MOL0     H63391   3.738  12.089  10.477 -3.3115  2.8610 -1.3944
  470MOL0     H63392   3.901  12.142  10.452 -0.6200  2.6454  2.1395
  470MOL0     H63393   3.832  12.335  10.327  1.3790  0.8648  1.6447
  470MOL0     H63394   3.669  12.281  10.313 -0.9270  0.6536  1.3299
  470MOL0     H63395   3.822  12.339  10.563 -1.7503  0.4342  3.2920
  470MOL0     H63396   3.729  12.477  10.487 -1.3575  0.7013 -1.0997
  470MOL0     H63397   3.521  12.367  10.527 -1.6055 -1.7773  1.4435
  470MOL0     H63398   3.593  12.234  10.612  1.1624 -0.2222  2.0584
  470MOL0     H63399   3.632  12.519  10.689 -3.0114  1.2172  0.0014
  470MOL0     H63400   3.651  12.377  10.792 -0.2024  0.7737  0.6880
  470MOL0     H63401   3.410  12.279  10.874 -0.3854 -0.4942  0.3827
  470MOL0     H63402   3.153  12.364  11.039  0.4230 -0.8612  0.0298
  470MOL0     H63403   3.079  12.498  10.955 -0.0199  1.0220 -2.2260
  470MOL0     H63404   3.005  12.361  10.764 -0.8606  1.0981 -0.0491
  470MOL0     H63405   2.958  12.292  10.914 -0.6535 -3.2619 -2.2014
  470MOL0     H63406   3.145  12.128  10.914  2.9198  2.2547  0.0441
  470MOL0     H63407   3.182  12.174  10.757  0.7550  3.4013  0.2061
  470MOL0     H63408   3.018  11.977  10.741  0.1403 -0.2341 -0.6392
  470MOL0     H63409   2.924  12.127  10.699  1.4502  3.1112  0.8767
  470MOL0     H63410   2.787  11.915  10.677  1.0279  2.3546 -0.1754
  470MOL0     H63411   2.677  11.682  10.635  1.8839  2.7534  1.3764
  470MOL0     H63412   2.516  11.663  10.694  0.7130 -0.2634 -0.4251
  470MOL0     H63413   2.551  11.806  10.588 -4.3883 -0.8219  0.7114
  470MOL0     H63414   2.103  11.838  10.858 -1.9167 -0.4918 -1.5956
  470MOL0     H63415   1.893  11.710  10.928 -1.5561 -3.1764  6.2114
  470MOL0     H63416   1.676  11.414  10.993 -4.9498  3.2056  0.0194
  470MOL0     H63417   1.736  11.566  10.921 -0.4509 -2.0042 -2.0098
  470MOL0     H63418   1.843  11.414  10.737 -0.6001  1.4675  0.3516
  470MOL0     H63419   1.742  11.282  10.812 -2.1377 -0.2373  0.1321
  470MOL0     H63420   1.616  11.537  10.702  0.5621 -0.2111 -0.6510
  470MOL0     H63421   1.531  11.385  10.742 -0.1054 -1.7909 -1.5576
  470MOL0     H63422   1.724  11.437  10.529 -0.9490  2.7037  2.2845
  470MOL0     H63423   1.674  11.273  10.572  1.6364  0.1876  1.8944
  470MOL0     H63424   1.462  11.471  10.485  0.7864  1.3355 -6.2777
  470MOL0     H63425   1.455  11.294  10.518  2.2760  0.5023  2.6012
  470MOL0     H63426   1.465  11.382  10.275 -0.7369  1.3387  0.7901
  470MOL0     H63427   1.629  11.421  10.300 -0.9788  0.7637  1.1183
  470MOL0     H63428   1.510  11.138  10.323 -0.5963  0.2177  0.8560
  470MOL0     H63429   1.679  11.181  10.365  0.7677 -0.2446 -1.6897
  470MOL0     H63430   1.647  11.100  10.142 -0.0598 -0.0885  4.1023
  470MOL0     H63431   1.721  11.253  10.125 -1.2796  0.9746 -1.7028
  470MOL0     H63432   2.102  11.347  10.951  0.6602  0.3792  0.0843
  470MOL0     H63433   2.317  11.468  10.876  0.8530  2.0535 -2.6651
  470MOL0     H63434   2.554  11.898  11.115 -2.9917  2.8804 -2.9735
  470MOL0     H63435   2.749  12.016  11.109  0.3521 -2.9908  1.8239
  470MOL0     H63436   4.062  11.513  10.222 -0.6622  4.0087 -0.2609
  470MOL0     H63437   4.071  11.333  10.067 -0.3450 -1.1775  0.2558
  470MOL0     H63438   3.730  11.145   9.547 -0.3066 -1.6141 -0.8207
  470MOL0     H63439   3.745  10.940   9.457  1.7300  0.4160 -1.1379
  470MOL0     H63440   3.779  10.674   9.438 -0.6165  0.8873 -0.5744
  470MOL0     H63441   3.849  10.805   9.344  0.7890 -1.2087 -0.9979
  470MOL0     H63442   4.059  10.630   9.352  0.5179  2.0417  0.8449
  470MOL0     H63443   3.949  10.664   9.219 -2.5985  3.1569  1.9442
  470MOL0     H63444   3.787  10.492   9.350 -0.0352  1.0666 -0.1788
  470MOL0     H63445   3.940  10.436   9.419 -3.1757 -2.3050  1.6875
  470MOL0     H63446   3.909  10.290   9.238 -1.1222  0.2462 -3.7875
  470MOL0     H63447   4.042  10.391   9.212 -0.6827 -1.7976 -0.9334
  470MOL0     H63448   3.795  10.467   8.870  0.7426  0.8326  0.3637
  470MOL0     H63449   4.032  10.825   9.738 -2.1451 -3.2821 -2.6322
  470MOL0     H63450   3.997  11.055   9.854 -3.0111  1.4940  0.8447
  471MOL0     O63451   2.745   7.819  10.226  0.2269 -0.1952  0.3609
  471MOL0     C63452   2.819   7.742  10.158 -0.8801 -0.1402 -0.0726
  471MOL0     O63453   2.866   7.616  10.192 -0.2158  0.4073 -0.6595
  471MOL0     C63454   2.892   7.588  10.324 -1.5243 -0.7038  0.0107
  471MOL0     C63455   2.928   7.688  10.417 -0.4856 -0.5898 -0.2386
  471MOL0     C63456   2.955   7.648  10.546 -0.3889 -0.2702  0.3089
  471MOL0     C63457   2.957   7.510  10.589  0.4084  0.9044 -0.6782
  471MOL0     O63458   2.995   7.470  10.718 -0.8914 -0.0199 -0.4522
  471MOL0     C63459   3.001   7.567  10.825 -0.5521 -0.3305  0.6204
  471MOL0     C63460   3.016   7.468  10.954  0.3673 -0.8360  0.0227
  471MOL0     C63461   2.889   7.407  11.000  0.2707  0.5965  0.3849
  471MOL0     C63462   2.912   7.298  11.108 -0.2059 -0.7085  0.9641
  471MOL0     C63463   2.783   7.236  11.158  0.1865  0.3878 -0.0712
  471MOL0     C63464   2.818   7.094  11.197  0.5160  0.4651  0.0063
  471MOL0     C63465   2.681   7.036  11.236  0.2718  0.1341 -0.7407
  471MOL0     C63466   2.688   6.881  11.262  0.8466 -0.9078  1.2103
  471MOL0     N63467   2.721   6.821  11.139  0.3410 -0.8620 -0.1019
  471MOL0     C63468   2.817   6.733  11.103  0.2863 -0.4714 -0.7431
  471MOL0     C63469   2.793   6.688  10.983 -0.8650  0.7034  0.1237
  471MOL0     C63470   2.876   6.577  10.917 -0.5323  0.1736  0.6897
  471MOL0     C63471   2.823   6.519  10.790  0.0548  0.6198 -0.6552
  471MOL0     C63472   2.819   6.625  10.676  1.1671  0.5462  0.3463
  471MOL0     C63473   2.785   6.567  10.546 -0.3644 -0.4896 -0.3509
  471MOL0     O63474   2.655   6.485  10.539 -0.3535  0.0471 -0.3626
  471MOL0     C63475   2.621   6.429  10.421  0.1228 -0.4205 -0.6857
  471MOL0     C63476   2.663   6.478  10.299  0.1978  0.3108  0.2869
  471MOL0     C63477   2.650   6.392  10.180 -0.5584 -0.9330  0.1397
  471MOL0     C63478   2.691   6.433  10.043 -0.3843 -0.5361 -0.0610
  471MOL0     C63479   2.608   6.259  10.196 -1.1521 -0.0304  0.6830
  471MOL0     C63480   2.623   6.163  10.094 -0.3129  0.8710  0.5517
  471MOL0     O63481   2.513   6.112  10.033  0.4633 -0.8459  0.1087
  471MOL0     C63482   2.526   5.995   9.967  0.6975  0.0153  0.4269
  471MOL0     C63483   2.597   5.985   9.850  0.3238  0.1917  0.2191
  471MOL0     C63484   2.634   5.863   9.794  0.4097  1.1572  0.7203
  471MOL0     C63485   2.580   5.742   9.849  0.4366  0.6029  0.8319
  471MOL0     O63486   2.591   5.618   9.786 -0.4145 -0.1963 -0.2379
  471MOL0     C63487   2.680   5.520   9.849  0.5530  0.2613 -0.6428
  471MOL0     C63488   2.595   5.413   9.918 -1.0061 -0.4223  0.2090
  471MOL0     C63489   2.672   5.275   9.924  1.2897 -0.0244 -0.4118
  471MOL0     C63490   2.601   5.190  10.035  0.4399  0.7229  0.5013
  471MOL0     C63491   2.637   5.045  10.005 -0.0302  0.4511 -1.3590
  471MOL0     C63492   2.716   4.984  10.118 -0.5531  0.4738  0.1011
  471MOL0     C63493   2.863   5.022  10.128  0.1036 -0.5231 -0.3611
  471MOL0     C63494   2.959   4.938  10.207  0.2210 -0.0667 -0.4020
  471MOL0    Cl63495   3.007   4.793  10.106 -0.3623  0.3481 -0.5501
  471MOL0     C63496   2.502   5.755   9.962 -0.6481  0.7049 -0.4563
  471MOL0     C63497   2.471   5.874  10.021  1.6404 -0.4887  0.5852
  471MOL0     O63498   2.745   6.134  10.073 -0.0228 -0.1590 -0.5750
  471MOL0     C63499   2.540   6.227  10.311  0.0887  0.2808 -0.3929
  471MOL0     C63500   2.552   6.304  10.423  0.3291  0.2172 -0.7003
  471MOL0     N63501   2.671   6.730  10.953 -0.8598 -0.5110  0.0893
  471MOL0     N63502   2.625   6.804  11.047 -0.2239 -0.5786  0.2979
  471MOL0     C63503   2.926   7.415  10.495 -0.2121 -0.5478 -0.2824
  471MOL0     C63504   2.883   7.455  10.364  0.4042 -0.4447  0.6296
  471MOL0     C63505   2.878   7.801  10.033 -0.3663  0.5059  0.1414
  471MOL0     C63506   2.890   7.734   9.909 -0.6240  0.5512 -0.0409
  471MOL0     C63507   2.916   7.808   9.798  0.5536  0.2936  0.6789
  471MOL0     C63508   2.928   7.949   9.796  0.0147  0.2987 -0.0491
  471MOL0     O63509   2.950   8.031   9.692 -0.3151  0.0156  0.0020
  471MOL0     C63510   3.011   7.959   9.587  0.3317  0.4752  0.6778
  471MOL0     C63511   3.064   8.068   9.485 -0.4371 -0.7766  0.5644
  471MOL0     C63512   3.105   8.007   9.348  0.1107 -0.4914  0.3935
  471MOL0     C63513   3.000   7.947   9.259  0.7440 -0.1078 -0.2715
  471MOL0     C63514   2.950   7.810   9.296 -0.3199  0.3264  0.7399
  471MOL0     C63515   2.928   7.696   9.338  0.8899 -0.1885  0.0400
  471MOL0     C63516   2.898   8.017   9.918 -0.4571 -0.0871  0.5165
  471MOL0     C63517   2.882   7.945  10.033  0.4819 -0.0248  0.8479
  471MOL0     H63518   2.939   7.791  10.382  2.7592  0.8121  4.1123
  471MOL0     H63519   2.981   7.729  10.614  1.3141 -1.9365  1.7619
  471MOL0     H63520   3.092   7.624  10.803 -2.1665  2.7477  1.4054
  471MOL0     H63521   2.913   7.631  10.829 -0.8338 -0.7552  3.8323
  471MOL0     H63522   3.084   7.383  10.938 -0.9778 -1.9873  0.2184
  471MOL0     H63523   3.057   7.531  11.034 -0.8053 -1.5871  1.2645
  471MOL0     H63524   2.822   7.484  11.039  0.8564  0.4027  1.8217
  471MOL0     H63525   2.830   7.365  10.918 -0.0857  1.1773  0.3402
  471MOL0     H63526   2.980   7.222  11.068  0.1932 -0.5350  1.3001
  471MOL0     H63527   2.967   7.341  11.192  4.8368  0.5593 -2.5154
  471MOL0     H63528   2.755   7.291  11.248  0.9818  0.7978 -0.0655
  471MOL0     H63529   2.710   7.242  11.078 -0.3454 -2.5800  0.0643
  471MOL0     H63530   2.858   7.037  11.112  2.0960  5.4210 -2.9688
  471MOL0     H63531   2.892   7.102  11.277 -0.1591  2.0143  0.5087
  471MOL0     H63532   2.640   7.080  11.327  2.8476 -0.2562  0.6868
  471MOL0     H63533   2.613   7.052  11.151 -0.8380  1.3184  0.3325
  471MOL0     H63534   2.592   6.858  11.308 -0.4107  2.1171  0.3388
  471MOL0     H63535   2.765   6.861  11.337 -1.2195 -0.6771  3.4923
  471MOL0     H63536   2.906   6.708  11.159 -1.7976  0.6271  3.4958
  471MOL0     H63537   2.978   6.600  10.886  0.0960 -0.3936  2.2619
  471MOL0     H63538   2.877   6.498  10.992 -1.0404 -0.3444  0.1677
  471MOL0     H63539   2.717   6.497  10.797  0.4036 -1.0749 -0.3758
  471MOL0     H63540   2.879   6.429  10.763  0.5161  0.5094  0.5927
  471MOL0     H63541   2.914   6.679  10.679  1.5226 -0.0312 -0.2447
  471MOL0     H63542   2.738   6.696  10.695  0.5084 -0.2049  0.3934
  471MOL0     H63543   2.867   6.500  10.519  0.3151  0.9290 -1.9355
  471MOL0     H63544   2.779   6.644  10.469  0.4489  0.4991  0.5255
  471MOL0     H63545   2.713   6.573  10.287  0.8079  0.3678  2.8315
  471MOL0     H63546   2.800   6.426  10.045 -0.2155  1.6791  1.4398
  471MOL0     H63547   2.636   6.376   9.968 -0.9148 -1.1624  0.7847
  471MOL0     H63548   2.673   6.537  10.015  0.4973 -0.3489  0.0538
  471MOL0     H63549   2.634   6.074   9.799  2.3812 -0.5722  0.2887
  471MOL0     H63550   2.703   5.861   9.711 -1.6011  1.9607 -1.0792
  471MOL0     H63551   2.759   5.480   9.785  2.0779  0.2603  1.1600
  471MOL0     H63552   2.738   5.561   9.933  1.8066 -3.0503  0.2851
  471MOL0     H63553   2.570   5.451  10.018  1.6036  1.8251  0.1097
  471MOL0     H63554   2.504   5.402   9.859 -0.4805 -0.2197 -0.6464
  471MOL0     H63555   2.778   5.296   9.940  0.6322  3.3767  0.4060
  471MOL0     H63556   2.665   5.223   9.828 -0.7399 -1.4213  0.4154
  471MOL0     H63557   2.648   5.212  10.132  2.3681  0.5358 -0.3371
  471MOL0     H63558   2.492   5.197  10.036 -0.3541 -5.5948 -0.9443
  471MOL0     H63559   2.677   5.027   9.906 -0.6211 -1.9045 -1.2350
  471MOL0     H63560   2.541   4.992  10.002 -0.7198  1.2847  1.7110
  471MOL0     H63561   2.664   4.998  10.213  1.2176  0.5177  1.1047
  471MOL0     H63562   2.726   4.876  10.104 -1.4886 -0.2651  4.0253
  471MOL0     H63563   2.863   5.113  10.188 -0.2625 -2.8455  3.5350
  471MOL0     H63564   2.900   5.042  10.027 -3.1047  1.5793 -1.2609
  471MOL0     H63565   2.903   4.914  10.297 -0.3931 -0.6458 -0.9307
  471MOL0     H63566   3.049   5.000  10.219 -0.0062  0.2229 -0.1907
  471MOL0     H63567   2.467   5.667  10.016  1.1729  1.6827  2.5584
  471MOL0     H63568   2.404   5.870  10.107  1.6983 -1.0670  0.6074
  471MOL0     H63569   2.478   6.139  10.319  0.5879  0.1147  2.6410
  471MOL0     H63570   2.499   6.271  10.513 -2.2017 -2.3865 -2.9356
  471MOL0     H63571   2.923   7.311  10.526 -4.4835 -0.3779  0.5162
  471MOL0     H63572   2.836   7.389  10.292  0.4603  1.7579 -1.5521
  471MOL0     H63573   2.866   7.628   9.899 -2.2795  0.6196  2.3915
  471MOL0     H63574   2.921   7.757   9.702  2.7077  2.4251 -0.4473
  471MOL0     H63575   3.091   7.898   9.630 -0.4775 -1.8718 -0.8901
  471MOL0     H63576   2.944   7.895   9.529  2.8131 -1.8646  0.1471
  471MOL0     H63577   3.154   8.113   9.527  1.5083 -1.7810 -2.2323
  471MOL0     H63578   2.983   8.141   9.473  1.9297  2.0436  0.6189
  471MOL0     H63579   3.185   7.933   9.356 -0.1167 -0.7232  0.5270
  471MOL0     H63580   3.153   8.093   9.300  0.4898  0.0420  1.6811
  471MOL0     H63581   3.048   7.941   9.161  0.5061  0.6762 -0.4435
  471MOL0     H63582   2.923   8.025   9.255  4.4966  4.2041  2.5790
  471MOL0     H63583   2.917   7.592   9.365 -0.5979  0.3554  1.7414
  471MOL0     H63584   2.902   8.126   9.921  1.1211  0.0550 -2.8418
  471MOL0     H63585   2.865   8.005  10.122  0.9902  0.7905  0.4057
  472MOL0     O63586   9.761   0.057   5.819 -0.9192  0.6542 -0.4625
  472MOL0     C63587   9.872   0.050   5.869  0.3596 -0.0367  0.2463
  472MOL0     O63588   9.924   0.120   5.976  0.1079  0.7144 -0.1746
  472MOL0     C63589   9.847   0.237   6.000  0.2953  0.2599  0.1193
  472MOL0     C63590   9.890   0.366   5.945  1.0540  0.4027 -0.0091
  472MOL0     C63591   9.805   0.479   5.964 -0.1100  0.4436 -1.0358
  472MOL0     C63592   9.676   0.461   6.018 -0.4520 -0.1099 -0.7518
  472MOL0     O63593   9.587   0.563   6.039  0.5508  0.3157 -0.2382
  472MOL0     C63594   9.644   0.689   6.054 -0.5633  0.8891 -0.3236
  472MOL0     C63595   9.521   0.775   6.082  0.4049  0.2829  0.7380
  472MOL0     C63596   9.446   0.734   6.206  0.7093 -0.0929  0.4337
  472MOL0     C63597   9.349   0.853   6.239  1.0089 -0.3631 -0.6947
  472MOL0     C63598   9.287   0.828   6.379  0.9299 -0.1251  0.7137
  472MOL0     C63599   9.246   0.956   6.443  0.2683  0.0322 -0.0088
  472MOL0     C63600   9.200   0.935   6.588  0.1725 -0.4326  0.2220
  472MOL0     C63601   9.319   0.905   6.680 -0.3404  0.1362 -0.4414
  472MOL0     N63602   9.432   1.011   6.683 -0.3437 -0.5338  0.5287
  472MOL0     C63603   9.421   1.137   6.733  0.2283  0.0661  0.1050
  472MOL0     C63604   9.552   1.183   6.732  0.0933  0.3704 -0.8033
  472MOL0     C63605   9.610   1.301   6.791 -0.3333 -0.8348  1.0172
  472MOL0     C63606   9.542   1.423   6.729  0.2670 -0.1105 -0.5500
  472MOL0     C63607   9.429   1.485   6.815  1.0392 -0.1074 -0.4058
  472MOL0     C63608   9.376   1.614   6.757 -0.1740 -0.4830  0.1176
  472MOL0     O63609   9.257   1.575   6.677  0.8122  0.5088  0.3167
  472MOL0     C63610   9.276   1.587   6.547  1.0344  0.1417 -0.0841
  472MOL0     C63611   9.319   1.703   6.484 -0.5905  0.0445  0.1180
  472MOL0     C63612   9.338   1.703   6.339 -0.1716 -0.0823  0.6363
  472MOL0     C63613   9.399   1.829   6.287  0.5298 -0.2632 -0.4388
  472MOL0     C63614   9.320   1.582   6.262  0.4052  0.3255  0.0497
  472MOL0     C63615   9.346   1.572   6.118 -1.0004 -0.8454  0.2119
  472MOL0     O63616   9.257   1.500   6.039  0.0846  0.1846  0.9845
  472MOL0     C63617   9.269   1.513   5.900 -0.4486 -0.7306  0.2467
  472MOL0     C63618   9.224   1.632   5.838 -0.9416 -0.1489  0.6745
  472MOL0     C63619   9.255   1.651   5.699  0.0641 -0.3350 -0.3607
  472MOL0     C63620   9.325   1.547   5.633 -0.1974  0.5508  0.6375
  472MOL0     O63621   9.343   1.573   5.497  0.1589  0.6367  0.1781
  472MOL0     C63622   9.367   1.461   5.407 -0.3450 -0.6147  0.2694
  472MOL0     C63623   9.409   1.504   5.260  0.9931 -0.2849 -0.0861
  472MOL0     C63624   9.554   1.546   5.239 -0.0967 -0.5753 -0.1177
  472MOL0     C63625   9.569   1.572   5.091  0.3051 -0.0718  0.2953
  472MOL0     C63626   9.714   1.578   5.054 -0.2532  0.3249  0.2965
  472MOL0     C63627   9.722   1.570   4.895 -0.5853 -0.2539 -0.1207
  472MOL0     C63628   9.814   1.677   4.831  1.4623 -0.5937  0.3923
  472MOL0     C63629   9.767   1.825   4.847  0.2639  0.0298 -1.0291
  472MOL0    Cl63630   9.578   1.847   4.844 -0.5690 -0.4071  0.1555
  472MOL0     C63631   9.364   1.428   5.696 -0.0383 -0.9766  0.3034
  472MOL0     C63632   9.334   1.412   5.836 -0.9570 -0.9050  0.1114
  472MOL0     O63633   9.452   1.619   6.084 -0.1712  0.1171  0.0562
  472MOL0     C63634   9.275   1.467   6.332 -0.0004 -0.3978 -0.3218
  472MOL0     C63635   9.247   1.476   6.473 -0.1164  0.0617 -0.1510
  472MOL0     N63636   9.637   1.086   6.668  0.3853  0.1830 -0.2054
  472MOL0     N63637   9.562   0.987   6.643 -0.1151 -0.1197  0.0228
  472MOL0     C63638   9.638   0.336   6.053  0.2724  0.1440 -0.3391
  472MOL0     C63639   9.720   0.221   6.048  0.7655 -0.0532 -0.0259
  472MOL0     C63640   9.967  -0.042   5.807 -1.2753  0.5749 -0.0763
  472MOL0     C63641   9.939  -0.108   5.685  0.1677  0.6525 -0.2305
  472MOL0     C63642  10.019  -0.204   5.624  0.1183  0.2945  0.6272
  472MOL0     C63643  10.141  -0.224   5.679  0.0295 -0.3293  0.4605
  472MOL0     O63644  10.238  -0.308   5.627  0.4113 -0.7913  0.4060
  472MOL0     C63645  10.352  -0.229   5.590 -0.4758 -0.4587 -0.2442
  472MOL0     C63646  10.473  -0.318   5.555  0.8031 -0.1896 -0.7610
  472MOL0     C63647  10.455  -0.352   5.408 -0.1623  0.6245  0.6764
  472MOL0     C63648  10.539  -0.477   5.366  0.1662  0.1180 -0.5199
  472MOL0     C63649  10.594  -0.480   5.225  0.4082 -0.8330 -0.7548
  472MOL0     C63650  10.637  -0.495   5.114 -0.3764 -0.2354 -0.0429
  472MOL0     C63651  10.171  -0.155   5.800 -0.2893  0.0376 -0.1763
  472MOL0     C63652  10.092  -0.069   5.863 -0.9988  0.5654 -0.2519
  472MOL0     H63653   9.978   0.365   5.881  0.6976 -1.6084 -0.5477
  472MOL0     H63654   9.847   0.574   5.931 -0.9849  0.5819 -1.7641
  472MOL0     H63655   9.706   0.689   6.144  0.2997 -1.7157 -0.8460
  472MOL0     H63656   9.716   0.729   5.981  6.1324  1.2427  5.4703
  472MOL0     H63657   9.551   0.881   6.089  2.9377 -0.3950  1.2603
  472MOL0     H63658   9.452   0.764   5.998  0.5747 -3.0423  0.9395
  472MOL0     H63659   9.389   0.643   6.182  2.3184 -1.3114  1.0286
  472MOL0     H63660   9.515   0.715   6.289  1.1701  1.3412  0.4015
  472MOL0     H63661   9.401   0.950   6.235  0.4862 -0.0515 -0.0891
  472MOL0     H63662   9.274   0.853   6.160  1.1077  2.2732 -0.8926
  472MOL0     H63663   9.200   0.761   6.376  1.3616 -0.7707  1.9246
  472MOL0     H63664   9.351   0.777   6.452  2.8513 -0.9481 -1.4088
  472MOL0     H63665   9.319   1.038   6.450  1.0312 -0.7618  2.8388
  472MOL0     H63666   9.166   0.999   6.382 -2.3221 -2.4940  1.3794
  472MOL0     H63667   9.144   1.025   6.613 -3.4881 -3.2202  3.2149
  472MOL0     H63668   9.128   0.853   6.596  0.3291 -0.7161 -1.0987
  472MOL0     H63669   9.366   0.809   6.655 -0.8708 -0.1853 -0.2153
  472MOL0     H63670   9.282   0.906   6.783  2.4309 -1.1237  0.6668
  472MOL0     H63671   9.333   1.187   6.770  1.3112 -0.2029  3.4203
  472MOL0     H63672   9.593   1.300   6.899 -2.0674 -1.6548  0.7686
  472MOL0     H63673   9.717   1.307   6.772 -0.7515  1.3749 -1.2278
  472MOL0     H63674   9.515   1.413   6.624 -2.0602  1.2610 -0.1530
  472MOL0     H63675   9.625   1.492   6.749  0.6299 -0.6200 -0.2662
  472MOL0     H63676   9.470   1.497   6.917 -0.5029 -1.7993  0.4555
  472MOL0     H63677   9.359   1.402   6.821  1.4936 -0.4255  2.7930
  472MOL0     H63678   9.447   1.665   6.692 -0.3717 -1.8910 -1.2693
  472MOL0     H63679   9.338   1.672   6.841 -2.1770 -1.5117 -0.0019
  472MOL0     H63680   9.346   1.795   6.534 -0.6981  1.2399 -1.9291
  472MOL0     H63681   9.368   1.849   6.184  0.7324 -2.2074 -0.9222
  472MOL0     H63682   9.374   1.910   6.356  2.8059 -2.8774  3.9205
  472MOL0     H63683   9.508   1.828   6.282  0.6421  2.4940 -0.2129
  472MOL0     H63684   9.161   1.694   5.901 -2.5322 -0.2124 -0.7652
  472MOL0     H63685   9.218   1.737   5.643  2.6798  0.7411 -0.5841
  472MOL0     H63686   9.454   1.411   5.450  0.3655  0.6524  0.3539
  472MOL0     H63687   9.280   1.395   5.405 -1.0432  0.1297 -4.1688
  472MOL0     H63688   9.386   1.426   5.186  1.1194  0.2267 -0.6763
  472MOL0     H63689   9.346   1.588   5.228 -1.2080 -1.9632 -0.3552
  472MOL0     H63690   9.623   1.475   5.285 -1.2497 -1.8792 -0.3157
  472MOL0     H63691   9.573   1.644   5.285  2.2535 -0.4082 -1.2940
  472MOL0     H63692   9.518   1.497   5.030 -0.0021  1.3750 -1.3202
  472MOL0     H63693   9.528   1.669   5.059  1.7056 -0.2344 -2.3440
  472MOL0     H63694   9.771   1.500   5.104 -4.3764 -2.2043  1.5088
  472MOL0     H63695   9.761   1.666   5.099  2.9354 -1.9712  1.8465
  472MOL0     H63696   9.755   1.472   4.860 -0.3265  0.3909 -1.7383
  472MOL0     H63697   9.626   1.585   4.844 -1.3042 -1.2353  0.8878
  472MOL0     H63698   9.816   1.664   4.723  2.1299  1.2334  0.1529
  472MOL0     H63699   9.913   1.657   4.871  1.6283  3.2129  2.3226
  472MOL0     H63700   9.814   1.897   4.780  1.0804 -0.5993 -1.1356
  472MOL0     H63701   9.792   1.858   4.949  0.2272 -0.6515 -0.7947
  472MOL0     H63702   9.413   1.350   5.639  1.5211 -2.2405  3.1768
  472MOL0     H63703   9.371   1.324   5.887 -2.8295 -2.1868 -0.6055
  472MOL0     H63704   9.262   1.377   6.273 -0.1331 -0.3776 -0.3244
  472MOL0     H63705   9.207   1.391   6.529 -0.0829  1.0724  1.4845
  472MOL0     H63706   9.543   0.319   6.101 -1.1673  4.2014 -1.3968
  472MOL0     H63707   9.675   0.127   6.080 -1.8297  1.0728 -0.1455
  472MOL0     H63708   9.845  -0.084   5.637  1.3404  1.6810 -2.1305
  472MOL0     H63709   9.992  -0.259   5.534  1.2879  1.7106 -0.6557
  472MOL0     H63710  10.342  -0.160   5.505  0.6161  0.7867  0.5937
  472MOL0     H63711  10.390  -0.163   5.669 -2.4373 -1.4774  1.6627
  472MOL0     H63712  10.482  -0.399   5.628 -3.0820  0.2177  0.4349
  472MOL0     H63713  10.565  -0.260   5.566 -1.3230  3.2690  0.3802
  472MOL0     H63714  10.478  -0.267   5.343  2.4269 -2.0328 -2.1970
  472MOL0     H63715  10.351  -0.381   5.394 -1.2179  1.7315  4.8560
  472MOL0     H63716  10.475  -0.564   5.384  0.6318 -0.2286 -0.5343
  472MOL0     H63717  10.625  -0.490   5.432  1.6389  0.7160 -2.2571
  472MOL0     H63718  10.686  -0.504   5.019 -2.5622  2.3001 -1.5489
  472MOL0     H63719  10.270  -0.180   5.837 -1.6857 -2.3111  2.4008
  472MOL0     H63720  10.135  -0.025   5.953  2.6776 -0.2528 -1.4231
  473MOL0     O63721   3.009   2.988   6.245  0.0597 -0.4819  0.3097
  473MOL0     C63722   3.044   2.966   6.128  0.4817  1.1517 -1.5683
  473MOL0     O63723   3.170   2.946   6.073 -0.7102 -0.6189 -0.5862
  473MOL0     C63724   3.289   2.951   6.141  0.5671 -0.2181  0.0501
  473MOL0     C63725   3.402   2.905   6.069 -0.0852 -0.3883 -0.7930
  473MOL0     C63726   3.526   2.897   6.127  0.4088 -0.9998  0.5360
  473MOL0     C63727   3.543   2.917   6.267 -0.2024 -0.7636  0.6926
  473MOL0     O63728   3.670   2.907   6.308 -0.0855 -0.4924 -1.1338
  473MOL0     C63729   3.700   3.002   6.408 -0.6979 -0.6229  0.4872
  473MOL0     C63730   3.845   2.986   6.444  0.6574 -0.5481  0.5436
  473MOL0     C63731   3.945   2.981   6.328 -0.3594 -0.5921  0.4970
  473MOL0     C63732   4.094   2.984   6.378  0.0435  0.8246  0.6965
  473MOL0     C63733   4.186   2.993   6.254  0.1499 -0.1418 -0.7188
  473MOL0     C63734   4.330   3.036   6.289  0.4975  0.3084 -0.8288
  473MOL0     C63735   4.421   2.985   6.177 -0.2662 -0.8530 -0.7261
  473MOL0     C63736   4.562   3.036   6.193  1.3237  0.0456 -0.9891
  473MOL0     N63737   4.562   3.178   6.154  0.1230  0.0381  0.1123
  473MOL0     C63738   4.576   3.283   6.239  0.8468 -0.1562 -0.5803
  473MOL0     C63739   4.611   3.385   6.157  0.1991  0.1784  0.2737
  473MOL0     C63740   4.620   3.533   6.205 -0.7593  0.5876 -0.2432
  473MOL0     C63741   4.622   3.643   6.091 -0.1033 -0.5456 -1.0845
  473MOL0     C63742   4.651   3.792   6.143  0.9116 -0.8007  0.0045
  473MOL0     C63743   4.693   3.885   6.025  0.0364  0.1894 -0.4741
  473MOL0     O63744   4.624   3.868   5.898  0.2316  0.8030 -1.1690
  473MOL0     C63745   4.691   3.906   5.789 -0.7454 -0.7553  0.3714
  473MOL0     C63746   4.641   3.876   5.667  0.8003 -1.5860  0.5237
  473MOL0     C63747   4.711   3.917   5.541 -0.4407  0.0021 -0.2896
  473MOL0     C63748   4.646   3.868   5.418 -0.8788  0.4544 -0.2501
  473MOL0     C63749   4.836   3.993   5.551 -0.2699  0.0109  0.7449
  473MOL0     C63750   4.916   4.026   5.426 -0.0681 -0.2277 -0.1306
  473MOL0     O63751   4.831   4.088   5.335  0.7351 -0.5270  0.3562
  473MOL0     C63752   4.880   4.118   5.205  0.5539 -0.0076  0.0857
  473MOL0     C63753   4.952   4.231   5.195 -1.4905 -0.0389  0.7067
  473MOL0     C63754   5.017   4.264   5.074 -0.3297 -0.5603  0.6840
  473MOL0     C63755   5.012   4.183   4.961  0.0255 -0.8154  0.0069
  473MOL0     O63756   5.075   4.200   4.837 -0.4722 -0.0524  0.1427
  473MOL0     C63757   5.193   4.276   4.805 -0.0294  0.4213  0.3406
  473MOL0     C63758   5.324   4.216   4.855 -0.3541  0.9760 -0.3963
  473MOL0     C63759   5.356   4.075   4.802 -0.2737  0.3030 -0.8875
  473MOL0     C63760   5.505   4.022   4.843 -0.5491  0.4522  0.4351
  473MOL0     C63761   5.523   3.870   4.797 -0.7919 -0.3294 -0.3702
  473MOL0     C63762   5.498   3.861   4.648  0.0128  0.5993  0.3648
  473MOL0     C63763   5.552   3.729   4.603  0.7047 -0.2301 -0.5037
  473MOL0     C63764   5.523   3.718   4.451  0.1617 -0.4128 -0.3335
  473MOL0    Cl63765   5.341   3.690   4.422  0.0038 -0.1144 -0.2011
  473MOL0     C63766   4.936   4.064   4.976  0.0253 -1.0070 -0.1030
  473MOL0     C63767   4.873   4.032   5.099 -0.0108  0.1907  0.1526
  473MOL0     O63768   5.034   4.038   5.429 -0.8362  0.0909 -0.5161
  473MOL0     C63769   4.878   4.031   5.672  0.0895 -0.4515 -0.3257
  473MOL0     C63770   4.811   3.992   5.788 -0.0175 -0.8541 -0.5229
  473MOL0     N63771   4.632   3.334   6.029  0.7314 -1.2513  0.4538
  473MOL0     N63772   4.594   3.216   6.025  0.9237 -0.3540 -0.2344
  473MOL0     C63773   3.433   2.952   6.340  0.6558  0.9634 -0.3770
  473MOL0     C63774   3.308   2.974   6.281 -0.5400  0.2657  0.0723
  473MOL0     C63775   2.939   2.949   6.027 -0.5641  0.1846  0.1888
  473MOL0     C63776   2.966   2.943   5.888 -0.1140 -0.0750 -0.3197
  473MOL0     C63777   2.858   2.903   5.804  0.7226 -0.5435  0.2543
  473MOL0     C63778   2.727   2.885   5.855 -1.1421 -0.7210  0.3956
  473MOL0     O63779   2.626   2.859   5.761  0.8809  0.0127  0.0162
  473MOL0     C63780   2.589   2.713   5.778  0.2652  0.4913  0.6671
  473MOL0     C63781   2.494   2.666   5.669 -0.5982 -0.7833 -1.3579
  473MOL0     C63782   2.397   2.765   5.604 -0.5968  0.4814  0.1341
  473MOL0     C63783   2.462   2.843   5.484  0.1332 -0.0897 -0.2993
  473MOL0     C63784   2.363   2.929   5.416 -0.4622  0.3606  0.0182
  473MOL0     C63785   2.296   3.005   5.359  0.1852 -0.1671  0.3925
  473MOL0     C63786   2.704   2.901   5.992  1.0293  1.1549 -0.3315
  473MOL0     C63787   2.806   2.935   6.071  0.1214  0.7224 -0.4322
  473MOL0     H63788   3.401   2.875   5.965  0.6575  0.5495 -1.0895
  473MOL0     H63789   3.620   2.866   6.083  2.0406  1.5393  1.9705
  473MOL0     H63790   3.686   3.106   6.380 -3.2659 -0.7842  0.9405
  473MOL0     H63791   3.658   2.983   6.507  1.0370 -1.0048  1.1746
  473MOL0     H63792   3.860   3.063   6.519  0.7537  1.5066 -1.4931
  473MOL0     H63793   3.844   2.884   6.483 -0.7956 -1.9951 -2.8165
  473MOL0     H63794   3.933   2.890   6.269 -1.6317 -0.6293  0.7848
  473MOL0     H63795   3.926   3.071   6.270 -0.7794 -2.8857 -3.3039
  473MOL0     H63796   4.114   3.069   6.444  1.2512  0.7372  0.4586
  473MOL0     H63797   4.120   2.890   6.427  3.6891 -0.4324 -3.0630
  473MOL0     H63798   4.197   2.902   6.194 -0.2712  0.4090 -1.6551
  473MOL0     H63799   4.150   3.068   6.183 -4.3104 -2.5112 -1.3968
  473MOL0     H63800   4.317   3.145   6.292 -1.1657  0.1208 -0.4300
  473MOL0     H63801   4.362   2.997   6.386 -0.9260  0.7797 -0.1415
  473MOL0     H63802   4.422   2.876   6.184 -3.2369 -0.8314  3.5473
  473MOL0     H63803   4.375   3.014   6.082  2.9346 -1.4397 -2.6085
  473MOL0     H63804   4.634   2.971   6.144  1.1499 -1.4206  0.6144
  473MOL0     H63805   4.580   3.022   6.300 -1.1104 -0.6133 -0.5861
  473MOL0     H63806   4.558   3.290   6.345  1.9303  2.8653 -0.5020
  473MOL0     H63807   4.528   3.564   6.255 -1.6168  1.2084 -2.0959
  473MOL0     H63808   4.710   3.540   6.267 -0.4259 -0.1220 -0.6286
  473MOL0     H63809   4.530   3.649   6.032 -1.1524  0.1830  0.5615
  473MOL0     H63810   4.701   3.621   6.019 -1.1832 -1.9955 -1.8818
  473MOL0     H63811   4.730   3.783   6.218  1.0074 -2.9012 -0.3010
  473MOL0     H63812   4.560   3.841   6.180 -0.0435 -0.7951 -2.2203
  473MOL0     H63813   4.800   3.875   6.004  1.0137  2.8552  2.3861
  473MOL0     H63814   4.668   3.986   6.060 -0.4469  0.3581 -1.2911
  473MOL0     H63815   4.547   3.825   5.648  0.5931 -0.1698 -3.1955
  473MOL0     H63816   4.726   3.832   5.353 -1.3861  0.0405 -0.6546
  473MOL0     H63817   4.583   3.784   5.450 -0.5008  0.4219  0.4266
  473MOL0     H63818   4.579   3.941   5.371 -1.4004 -0.3992 -0.8652
  473MOL0     H63819   4.959   4.289   5.286  3.4084  0.1225  0.4613
  473MOL0     H63820   5.074   4.357   5.068 -0.1748 -0.7550 -3.0109
  473MOL0     H63821   5.211   4.276   4.697  0.1772 -1.7111  0.3277
  473MOL0     H63822   5.189   4.381   4.835 -3.5321  0.0637  1.4957
  473MOL0     H63823   5.406   4.282   4.826 -0.5253  1.3143 -0.1142
  473MOL0     H63824   5.305   4.214   4.963 -1.0662  0.5581 -0.5196
  473MOL0     H63825   5.344   4.073   4.694 -0.5611  0.1692 -0.8526
  473MOL0     H63826   5.279   4.007   4.841 -0.2469  1.1547  0.7473
  473MOL0     H63827   5.573   4.083   4.783  1.0306 -0.1743  1.5185
  473MOL0     H63828   5.526   4.029   4.951 -0.3391 -2.6125  0.6597
  473MOL0     H63829   5.460   3.800   4.854 -1.0234 -1.4455 -1.9363
  473MOL0     H63830   5.622   3.827   4.814 -0.6471 -2.1921 -4.7258
  473MOL0     H63831   5.390   3.872   4.631  0.3109  0.8077 -1.7344
  473MOL0     H63832   5.550   3.939   4.592  1.0227  1.4079  2.3354
  473MOL0     H63833   5.494   3.655   4.659  1.4446 -0.1553  0.3915
  473MOL0     H63834   5.657   3.715   4.631  0.7581  1.2373  0.0931
  473MOL0     H63835   5.571   3.633   4.402 -0.5111  0.0404 -1.8526
  473MOL0     H63836   5.556   3.812   4.404  0.5474 -0.2167  0.3143
  473MOL0     H63837   4.938   3.986   4.901  1.3571 -1.4185  0.3339
  473MOL0     H63838   4.828   3.939   5.131  1.3097  0.0377  1.7272
  473MOL0     H63839   4.957   4.105   5.685 -1.0748  1.1641 -2.0000
  473MOL0     H63840   4.848   4.036   5.880 -0.0576  0.8414 -1.2871
  473MOL0     H63841   3.432   2.967   6.447 -0.3923  2.7074 -0.5994
  473MOL0     H63842   3.222   3.003   6.340 -0.4661  3.0649 -1.0404
  473MOL0     H63843   3.066   2.949   5.847 -0.0015 -1.3488 -0.2682
  473MOL0     H63844   2.880   2.896   5.698  1.3371  0.4482  0.2975
  473MOL0     H63845   2.681   2.655   5.776  0.0243  0.0281  2.2592
  473MOL0     H63846   2.547   2.701   5.878  3.7088  2.5611  2.5489
  473MOL0     H63847   2.443   2.576   5.704  2.0841 -1.3141  1.7281
  473MOL0     H63848   2.552   2.630   5.583  1.2134 -2.7673  0.5540
  473MOL0     H63849   2.368   2.848   5.668 -1.0845  0.7426 -0.4094
  473MOL0     H63850   2.312   2.707   5.564  0.3634 -0.0998 -1.1408
  473MOL0     H63851   2.510   2.779   5.409  3.9799  1.5029  0.5630
  473MOL0     H63852   2.534   2.914   5.526  1.4005 -0.8171 -1.1465
  473MOL0     H63853   2.250   3.096   5.324  1.7014  2.1750  3.8752
  473MOL0     H63854   2.605   2.881   6.031  0.8158 -0.5737 -1.6450
  473MOL0     H63855   2.795   2.936   6.179  3.4115  0.3855  0.0088
  474MOL0     O63856   7.931   8.886   7.986 -0.3014 -0.3793 -0.4359
  474MOL0     C63857   8.022   8.912   8.073 -0.2164 -0.2658  0.2274
  474MOL0     O63858   8.032   8.866   8.204  0.5988  0.9580 -0.5712
  474MOL0     C63859   7.950   8.770   8.256 -1.0330  1.2573  0.2754
  474MOL0     C63860   7.819   8.788   8.275  0.3074  0.0519  0.0346
  474MOL0     C63861   7.744   8.688   8.329  0.4588 -0.6423 -1.6449
  474MOL0     C63862   7.802   8.568   8.374 -0.3563  0.6424  0.3320
  474MOL0     O63863   7.738   8.465   8.429  1.1698 -0.5048 -0.1660
  474MOL0     C63864   7.620   8.500   8.514 -0.0653 -0.6272  0.0196
  474MOL0     C63865   7.573   8.386   8.591 -0.2271 -0.4298 -0.6003
  474MOL0     C63866   7.476   8.426   8.696  0.2238 -0.6581 -0.0607
  474MOL0     C63867   7.409   8.307   8.762 -0.6479 -0.5027 -0.5880
  474MOL0     C63868   7.333   8.360   8.889 -0.7961  0.4554  0.5792
  474MOL0     C63869   7.228   8.257   8.937 -0.9320 -0.6053  0.1194
  474MOL0     C63870   7.140   8.288   9.056  0.4566 -0.1397 -0.5418
  474MOL0     C63871   7.037   8.189   9.096  0.1380  0.2449  0.4025
  474MOL0     N63872   7.095   8.064   9.145  0.0387 -0.3470  0.5255
  474MOL0     C63873   7.150   8.059   9.265  0.6426 -1.4965  0.3383
  474MOL0     C63874   7.184   7.928   9.295  0.4184  0.4400  0.3916
  474MOL0     C63875   7.267   7.885   9.414  0.4434  0.4566 -0.4530
  474MOL0     C63876   7.183   7.820   9.521 -0.4149  1.2382 -1.1373
  474MOL0     C63877   7.113   7.693   9.489 -0.1085  0.2239 -0.0357
  474MOL0     C63878   7.009   7.642   9.595 -0.1158 -0.0774 -0.4426
  474MOL0     O63879   6.945   7.517   9.566  0.0955 -0.1504 -0.5188
  474MOL0     C63880   7.034   7.414   9.550  0.2024  1.1035  0.5344
  474MOL0     C63881   7.129   7.382   9.648  0.4509  0.6718 -0.4269
  474MOL0     C63882   7.222   7.270   9.631 -0.1550 -0.1835 -0.4780
  474MOL0     C63883   7.315   7.239   9.743  0.2397 -0.7607  0.2668
  474MOL0     C63884   7.223   7.207   9.502  0.6734  0.0372 -0.3913
  474MOL0     C63885   7.297   7.083   9.481  0.6653  0.1397  0.2679
  474MOL0     O63886   7.429   7.074   9.483 -0.4818 -0.3455  0.6142
  474MOL0     C63887   7.506   7.191   9.453  0.2023 -0.6711  0.0010
  474MOL0     C63888   7.489   7.263   9.334  0.0688  0.4677  0.2273
  474MOL0     C63889   7.575   7.368   9.304  0.3797  0.0785  0.2163
  474MOL0     C63890   7.672   7.405   9.402  0.1896  0.5855 -0.4234
  474MOL0     O63891   7.754   7.515   9.393 -0.2904  0.0767 -0.1122
  474MOL0     C63892   7.680   7.633   9.350 -0.5520 -0.1884 -0.4391
  474MOL0     C63893   7.755   7.767   9.353 -0.5366  0.7172  0.1316
  474MOL0     C63894   7.652   7.876   9.355  0.2540  0.3811 -0.3173
  474MOL0     C63895   7.627   7.948   9.226  0.2410 -0.3038 -0.6974
  474MOL0     C63896   7.735   8.047   9.197 -0.1266  0.7877 -0.0146
  474MOL0     C63897   7.693   8.135   9.071 -0.3482 -0.0757 -0.2761
  474MOL0     C63898   7.809   8.225   9.016  0.2858 -0.7168 -0.6348
  474MOL0     C63899   7.774   8.275   8.874 -0.5727 -0.1069 -1.1469
  474MOL0    Cl63900   7.890   8.414   8.836  0.4027  0.6114  0.2605
  474MOL0     C63901   7.697   7.327   9.511 -0.0168  0.7139 -0.0613
  474MOL0     C63902   7.609   7.226   9.544  0.9552  1.4239 -0.5251
  474MOL0     O63903   7.224   6.982   9.476 -0.5851 -0.3509  0.2240
  474MOL0     C63904   7.131   7.249   9.405  0.3112  0.6361  0.3020
  474MOL0     C63905   7.035   7.351   9.424  0.0224 -0.0207 -0.3743
  474MOL0     N63906   7.147   7.862   9.175  0.4699  0.3436 -0.0421
  474MOL0     N63907   7.098   7.942   9.090  0.6379 -0.1551 -0.0341
  474MOL0     C63908   7.941   8.547   8.359 -0.2862 -0.2321 -0.2322
  474MOL0     C63909   8.013   8.647   8.302 -0.6270 -0.0284 -0.1278
  474MOL0     C63910   8.128   9.018   8.049  0.4320  1.1423  0.3964
  474MOL0     C63911   8.235   9.044   8.135  0.1385 -0.0471  0.0227
  474MOL0     C63912   8.334   9.138   8.102  0.6448 -0.2746  0.7744
  474MOL0     C63913   8.331   9.214   7.987 -0.4559 -0.3278 -0.3672
  474MOL0     O63914   8.417   9.317   7.957 -0.1344  0.0062 -0.4342
  474MOL0     C63915   8.543   9.324   8.024  0.0944 -0.0764  0.5835
  474MOL0     C63916   8.609   9.455   7.990  0.1642 -1.1463  0.0763
  474MOL0     C63917   8.540   9.580   8.043 -0.4709  0.3525  0.6845
  474MOL0     C63918   8.568   9.710   7.960  0.0033 -0.6751  0.3899
  474MOL0     C63919   8.698   9.746   7.986 -0.4569 -0.2689 -0.0495
  474MOL0     C63920   8.815   9.755   8.022  0.8632  0.4739 -0.5752
  474MOL0     C63921   8.220   9.193   7.903  0.2278 -0.5101  0.3664
  474MOL0     C63922   8.119   9.095   7.932 -0.5611  0.1761 -0.7529
  474MOL0     H63923   7.785   8.889   8.255 -2.9846 -0.3901  2.5159
  474MOL0     H63924   7.640   8.717   8.339  0.4439 -1.4335  4.1039
  474MOL0     H63925   7.642   8.569   8.596  1.4440 -2.6940  1.4878
  474MOL0     H63926   7.539   8.534   8.450 -0.6410 -1.0664  0.5088
  474MOL0     H63927   7.528   8.311   8.526 -0.2788 -0.5194 -0.4619
  474MOL0     H63928   7.654   8.327   8.635 -0.6853  0.2092  1.1619
  474MOL0     H63929   7.532   8.486   8.769  0.3198  1.6091 -1.8592
  474MOL0     H63930   7.389   8.484   8.662 -0.3041 -2.0730 -1.2329
  474MOL0     H63931   7.335   8.269   8.691  0.5988 -2.6652 -0.8481
  474MOL0     H63932   7.479   8.224   8.777  0.0895  0.4928  2.1345
  474MOL0     H63933   7.417   8.376   8.957 -0.4787 -1.7998  0.7848
  474MOL0     H63934   7.276   8.446   8.853 -2.1841 -0.9403 -0.7071
  474MOL0     H63935   7.163   8.248   8.850 -2.5559 -0.0665  1.2418
  474MOL0     H63936   7.275   8.159   8.951  0.2504  0.0615  1.0223
  474MOL0     H63937   7.205   8.300   9.143 -1.3628 -1.9319  1.1571
  474MOL0     H63938   7.098   8.387   9.037  2.4325  0.5801 -1.4784
  474MOL0     H63939   6.974   8.165   9.010 -0.3847  0.6950  0.6504
  474MOL0     H63940   6.980   8.232   9.179  2.8884  0.2064  2.4551
  474MOL0     H63941   7.152   8.144   9.332  2.3003 -0.4719 -0.9433
  474MOL0     H63942   7.329   7.803   9.376 -0.9575  0.4784 -2.9909
  474MOL0     H63943   7.333   7.957   9.463  0.7054 -1.3961  2.1290
  474MOL0     H63944   7.119   7.896   9.566  2.0959  3.3553 -0.8533
  474MOL0     H63945   7.263   7.801   9.593 -0.7892  0.8217 -0.8333
  474MOL0     H63946   7.186   7.617   9.462 -0.4316  0.6231 -2.3247
  474MOL0     H63947   7.061   7.707   9.393  0.7357 -0.4761 -0.6090
  474MOL0     H63948   6.929   7.716   9.598  1.0832  1.3708 -2.2470
  474MOL0     H63949   7.064   7.641   9.690  1.7707 -0.8487 -1.4799
  474MOL0     H63950   7.116   7.435   9.742 -1.9742  2.3222 -1.5805
  474MOL0     H63951   7.404   7.299   9.723 -1.6289  1.3205 -2.4739
  474MOL0     H63952   7.284   7.296   9.831  0.2740  2.2474 -1.5577
  474MOL0     H63953   7.334   7.132   9.758  0.2969 -0.5773  1.6483
  474MOL0     H63954   7.395   7.246   9.282 -1.4158  1.7440  2.3579
  474MOL0     H63955   7.562   7.419   9.209 -0.1113  0.1759  0.3325
  474MOL0     H63956   7.652   7.610   9.247  0.9494  0.3686 -1.0118
  474MOL0     H63957   7.608   7.637   9.432  0.6062 -3.2540  0.8778
  474MOL0     H63958   7.818   7.768   9.443  0.9541  3.1501 -0.8519
  474MOL0     H63959   7.818   7.781   9.265  0.5314  1.7987  1.0289
  474MOL0     H63960   7.690   7.947   9.430 -3.0188  0.0710  1.8888
  474MOL0     H63961   7.557   7.847   9.400 -0.4315  3.0261  0.1382
  474MOL0     H63962   7.613   7.876   9.144  1.4246 -1.2457 -0.1018
  474MOL0     H63963   7.533   8.005   9.227  0.2360 -0.2530  1.9047
  474MOL0     H63964   7.830   7.999   9.174  1.3922  3.6989 -0.3174
  474MOL0     H63965   7.750   8.118   9.279  0.3238  2.7514 -1.6918
  474MOL0     H63966   7.693   8.058   8.993  5.1775 -0.2141 -0.5634
  474MOL0     H63967   7.598   8.184   9.091 -1.5283 -1.9328 -1.0267
  474MOL0     H63968   7.900   8.164   9.009  1.1383  0.5048 -0.5167
  474MOL0     H63969   7.835   8.312   9.078 -0.4883  0.6325 -2.1407
  474MOL0     H63970   7.674   8.319   8.875 -0.8620 -0.7553 -1.1421
  474MOL0     H63971   7.781   8.195   8.800  1.8589 -2.0494  0.9722
  474MOL0     H63972   7.780   7.348   9.577  0.0004  3.0614 -0.7550
  474MOL0     H63973   7.625   7.168   9.635 -0.0446  0.7165 -0.7808
  474MOL0     H63974   7.127   7.202   9.307  1.9099 -0.3803  0.6932
  474MOL0     H63975   6.983   7.395   9.339 -1.3771  0.3478  0.6299
  474MOL0     H63976   7.977   8.456   8.406 -0.0771  0.4533  0.9678
  474MOL0     H63977   8.121   8.649   8.290 -0.3880  4.2179  1.0117
  474MOL0     H63978   8.242   8.979   8.221 -1.8355 -0.7307 -0.2881
  474MOL0     H63979   8.414   9.143   8.175  1.0478 -1.5711  0.4521
  474MOL0     H63980   8.529   9.331   8.132 -1.7438 -0.8612  0.4402
  474MOL0     H63981   8.602   9.235   8.000 -0.8268 -1.0152  1.6534
  474MOL0     H63982   8.625   9.458   7.881 -1.6897 -0.6305 -0.2248
  474MOL0     H63983   8.710   9.455   8.030 -0.5391 -1.5810  1.9188
  474MOL0     H63984   8.570   9.612   8.143  2.6131  1.7646 -0.5396
  474MOL0     H63985   8.432   9.563   8.040 -0.2357 -1.1130 -1.2885
  474MOL0     H63986   8.499   9.782   8.006 -1.1763 -2.0423  0.8378
  474MOL0     H63987   8.540   9.708   7.854  0.8281 -2.0502  0.1755
  474MOL0     H63988   8.920   9.759   8.046  0.6837 -1.6193  0.8553
  474MOL0     H63989   8.195   9.255   7.818 -1.0053  0.5114  1.4420
  474MOL0     H63990   8.040   9.106   7.859 -0.3126  2.2942 -0.7585
  475MOL0     O63991   1.613   4.318  10.887  0.1084  0.2263  0.8357
  475MOL0     C63992   1.666   4.267  10.985 -0.3993  0.4874  0.2159
  475MOL0     O63993   1.795   4.295  11.037  0.5939 -0.0936  0.0357
  475MOL0     C63994   1.872   4.396  10.990 -0.1496  0.6317 -0.3967
  475MOL0     C63995   2.005   4.381  11.012 -0.3231  0.6345  0.1589
  475MOL0     C63996   2.099   4.472  10.965 -0.3797 -0.9744  0.5000
  475MOL0     C63997   2.063   4.584  10.892  1.2028 -0.3185 -0.3711
  475MOL0     O63998   2.162   4.679  10.858  0.1793 -0.2026 -0.9448
  475MOL0     C63999   2.118   4.779  10.766  0.1695 -0.3442 -0.0202
  475MOL0     C64000   2.242   4.815  10.686  0.9295 -0.3449 -0.1682
  475MOL0     C64001   2.330   4.909  10.769 -0.4342 -0.5289 -0.5871
  475MOL0     C64002   2.472   4.839  10.794  0.2052 -0.1881 -0.2271
  475MOL0     C64003   2.573   4.939  10.859  0.5546  1.1930  0.9088
  475MOL0     C64004   2.532   4.964  11.004 -0.2936  0.0779 -0.9858
  475MOL0     C64005   2.632   5.065  11.073 -0.4916  0.3355 -0.8227
  475MOL0     C64006   2.604   5.072  11.225 -0.4120 -0.3458  0.2390
  475MOL0     N64007   2.684   5.183  11.278 -1.1034 -0.1285 -1.1664
  475MOL0     C64008   2.670   5.318  11.252 -0.7131 -0.2964  0.5289
  475MOL0     C64009   2.770   5.384  11.298  0.1685  0.3037  0.1465
  475MOL0     C64010   2.811   5.519  11.289 -0.4179 -0.4537  0.0157
  475MOL0     C64011   2.713   5.619  11.353  0.7205  0.2596  0.5656
  475MOL0     C64012   2.710   5.585  11.505  0.1978  0.3020 -0.3336
  475MOL0     C64013   2.842   5.580  11.582 -0.0726 -0.2539 -0.4418
  475MOL0     O64014   2.925   5.692  11.551  0.4998  0.8031 -0.8178
  475MOL0     C64015   3.050   5.688  11.604 -0.5537  0.2182  0.1725
  475MOL0     C64016   3.078   5.670  11.740  0.5232  0.7508  0.2241
  475MOL0     C64017   3.214   5.676  11.771  0.4019  0.6275  0.3610
  475MOL0     C64018   3.233   5.648  11.917 -0.3163  0.5903  0.2171
  475MOL0     C64019   3.321   5.702  11.678 -0.1737  0.5208  0.2692
  475MOL0     C64020   3.456   5.723  11.711 -0.5494  0.3459 -0.5512
  475MOL0     O64021   3.506   5.676  11.825 -0.2251  0.4828  0.0737
  475MOL0     C64022   3.643   5.686  11.848 -0.2658 -0.9668  0.3509
  475MOL0     C64023   3.725   5.803  11.816  0.0556 -0.6212 -0.2162
  475MOL0     C64024   3.863   5.813  11.856  0.8578 -0.3264 -0.3857
  475MOL0     C64025   3.917   5.702  11.931  0.7082 -0.5686  0.5238
  475MOL0     O64026   4.050   5.693  11.962 -0.0225 -0.1636 -0.1888
  475MOL0     C64027   4.069   5.759  12.083  1.0016 -0.5880 -0.5144
  475MOL0     C64028   4.124   5.905  12.070 -0.0581 -0.1856 -0.1754
  475MOL0     C64029   4.164   5.953  12.201 -0.4776  0.7423 -0.4400
  475MOL0     C64030   4.193   6.103  12.232  0.3526  0.3773  0.0964
  475MOL0     C64031   4.331   6.124  12.159  0.1728 -0.7527  0.4638
  475MOL0     C64032   4.404   6.252  12.208 -0.4534  0.2846 -0.4795
  475MOL0     C64033   4.323   6.380  12.174 -0.1763 -0.0703 -0.7638
  475MOL0     C64034   4.320   6.414  12.024  0.1289  0.1366  0.1206
  475MOL0    Cl64035   4.477   6.442  11.939 -0.5341 -0.0109 -0.4820
  475MOL0     C64036   3.832   5.590  11.958 -0.7780 -0.8129  0.0507
  475MOL0     C64037   3.694   5.581  11.927  1.1601  1.5855 -1.1655
  475MOL0     O64038   3.522   5.799  11.631 -0.1996 -1.1938  0.0036
  475MOL0     C64039   3.277   5.719  11.548 -0.3097 -0.1854 -0.0367
  475MOL0     C64040   3.143   5.716  11.514 -0.1874  0.3180 -0.5930
  475MOL0     N64041   2.848   5.300  11.377 -0.1154  0.3453 -0.2010
  475MOL0     N64042   2.799   5.180  11.365 -0.0957  0.2029 -1.1532
  475MOL0     C64043   1.924   4.609  10.878  0.2549  0.3107 -0.0499
  475MOL0     C64044   1.830   4.511  10.924  0.5397 -0.2840 -0.1480
  475MOL0     C64045   1.598   4.157  11.061  0.7837  0.6479 -0.1982
  475MOL0     C64046   1.661   4.092  11.167 -0.6439  0.6519  0.6991
  475MOL0     C64047   1.574   3.992  11.229 -0.3194 -0.2585  1.6319
  475MOL0     C64048   1.447   3.959  11.189 -0.0631 -0.7236  0.2241
  475MOL0     O64049   1.373   3.864  11.255 -0.7763  0.0277  0.0285
  475MOL0     C64050   1.406   3.827  11.387 -0.3471  0.7642  0.7111
  475MOL0     C64051   1.404   3.940  11.492 -0.0388  0.3623  0.6239
  475MOL0     C64052   1.254   3.985  11.496 -0.6928 -0.1954 -0.6635
  475MOL0     C64053   1.161   3.913  11.592  0.1031  0.1345  0.5852
  475MOL0     C64054   1.207   3.850  11.717  0.0919  0.2063 -0.2050
  475MOL0     C64055   1.262   3.794  11.806  0.1099  0.3228 -0.8383
  475MOL0     C64056   1.385   4.013  11.076  0.1125  0.0211 -0.4545
  475MOL0     C64057   1.465   4.115  11.019  0.3171  0.2752  0.2821
  475MOL0     H64058   2.043   4.299  11.072 -0.1500  1.0933  0.6885
  475MOL0     H64059   2.204   4.461  10.988 -0.1542  1.0231  0.5928
  475MOL0     H64060   2.042   4.747  10.696 -0.5154  2.1904 -0.5502
  475MOL0     H64061   2.091   4.872  10.817  1.0637 -0.0531 -0.0582
  475MOL0     H64062   2.293   4.718  10.677 -0.2778 -0.7988 -4.0887
  475MOL0     H64063   2.215   4.868  10.594 -1.9838  2.0976  1.8948
  475MOL0     H64064   2.352   5.004  10.720  0.7661 -0.2708  0.4000
  475MOL0     H64065   2.294   4.940  10.867  2.7274 -1.0805  0.8904
  475MOL0     H64066   2.461   4.747  10.852 -0.2848  0.7363  1.2233
  475MOL0     H64067   2.510   4.812  10.695  0.8696  1.1881 -0.3718
  475MOL0     H64068   2.672   4.893  10.853 -1.1777 -2.8126 -0.4066
  475MOL0     H64069   2.578   5.038  10.812 -1.9904  0.7639 -0.4619
  475MOL0     H64070   2.431   5.003  11.018  0.4613  1.9073 -0.2741
  475MOL0     H64071   2.540   4.872  11.062  0.3091 -0.8677 -2.4920
  475MOL0     H64072   2.734   5.034  11.052  0.1363  1.2085  0.7515
  475MOL0     H64073   2.614   5.165  11.032 -0.3018  0.5525 -0.3805
  475MOL0     H64074   2.642   4.986  11.280 -4.3567 -1.3620  1.6728
  475MOL0     H64075   2.498   5.084  11.250 -1.2734 -3.1466 -1.6382
  475MOL0     H64076   2.601   5.365  11.183  0.2138  0.3450  0.0319
  475MOL0     H64077   2.914   5.534  11.320 -1.0173 -0.8536  2.4250
  475MOL0     H64078   2.818   5.534  11.181  1.6057 -0.9187  0.0545
  475MOL0     H64079   2.612   5.601  11.314  1.8186 -0.5119 -2.1881
  475MOL0     H64080   2.733   5.723  11.327  0.4026  0.7090  2.0364
  475MOL0     H64081   2.655   5.492  11.522 -0.1652  1.0176  3.3767
  475MOL0     H64082   2.646   5.665  11.545 -0.8493 -1.0195  0.7509
  475MOL0     H64083   2.907   5.495  11.557  1.8564  0.8903  0.4365
  475MOL0     H64084   2.820   5.567  11.689  0.2990 -1.5851 -0.5008
  475MOL0     H64085   2.998   5.654  11.813  3.4394 -0.0807  3.5156
  475MOL0     H64086   3.144   5.619  11.973 -0.8920  1.1391 -0.3952
  475MOL0     H64087   3.297   5.560  11.929 -0.0970  0.5752 -0.9404
  475MOL0     H64088   3.286   5.735  11.956  1.2505 -0.3370  0.2774
  475MOL0     H64089   3.686   5.881  11.751  0.3751 -0.2703  0.0073
  475MOL0     H64090   3.917   5.898  11.817  0.6574  0.4899  1.0626
  475MOL0     H64091   3.975   5.764  12.140  1.7222  3.2474  0.6368
  475MOL0     H64092   4.144   5.699  12.136 -0.1137  0.4361  2.4700
  475MOL0     H64093   4.204   5.896  11.996 -3.5032  2.3607 -4.7387
  475MOL0     H64094   4.042   5.964  12.030  0.4057 -0.9435 -2.3852
  475MOL0     H64095   4.244   5.884  12.228 -3.5651 -2.5529  1.2283
  475MOL0     H64096   4.085   5.931  12.274  0.5536 -1.1283  0.1615
  475MOL0     H64097   4.128   6.176  12.182  1.2070  1.7872  0.9568
  475MOL0     H64098   4.201   6.139  12.335  0.3303  1.4890 -0.2769
  475MOL0     H64099   4.319   6.124  12.050  1.2294 -2.2815  0.3184
  475MOL0     H64100   4.396   6.041  12.186  0.2198 -1.5413 -1.8075
  475MOL0     H64101   4.416   6.240  12.316 -0.0439  0.1987 -0.5314
  475MOL0     H64102   4.502   6.265  12.159 -0.7316 -0.9658 -1.4306
  475MOL0     H64103   4.370   6.467  12.223  1.2366 -1.0699 -0.2790
  475MOL0     H64104   4.219   6.363  12.205  0.2069 -1.5783 -0.2444
  475MOL0     H64105   4.265   6.509  12.015  0.4721  0.3490  0.2432
  475MOL0     H64106   4.273   6.334  11.967 -0.6324 -1.8061  3.2171
  475MOL0     H64107   3.881   5.504  12.003  1.6972  0.5750  0.2173
  475MOL0     H64108   3.623   5.509  11.965  0.9885  3.0430  1.5156
  475MOL0     H64109   3.348   5.735  11.467  0.5011 -2.9413  0.0272
  475MOL0     H64110   3.108   5.729  11.412 -0.8360  0.0164 -0.4136
  475MOL0     H64111   1.879   4.703  10.850  2.8407  2.1428  1.4260
  475MOL0     H64112   1.729   4.542  10.899  0.4309 -0.0199  0.5876
  475MOL0     H64113   1.765   4.110  11.193 -0.1203  1.4775 -1.6809
  475MOL0     H64114   1.622   3.924  11.298  1.5616  0.9441  1.5767
  475MOL0     H64115   1.331   3.754  11.416 -0.8041  0.4263 -1.2301
  475MOL0     H64116   1.496   3.764  11.391 -0.6533  0.0884 -1.7196
  475MOL0     H64117   1.469   4.024  11.465  2.7739 -1.9935 -0.4770
  475MOL0     H64118   1.442   3.892  11.583  0.7086  0.8201  0.5610
  475MOL0     H64119   1.215   3.991  11.394 -0.6121  3.0656 -0.6162
  475MOL0     H64120   1.255   4.091  11.522 -0.3510 -0.7815  1.8932
  475MOL0     H64121   1.114   3.840  11.525  4.1240 -2.0580 -0.1487
  475MOL0     H64122   1.095   3.991  11.631  2.5385  1.7929  1.5931
  475MOL0     H64123   1.286   3.730  11.888 -1.3492 -1.3131 -1.6226
  475MOL0     H64124   1.287   4.001  11.032  0.3207  2.4024 -1.7488
  475MOL0     H64125   1.410   4.157  10.935 -1.1233  1.1273  1.5962
  476MOL0     O64126   7.279   6.525   8.870 -0.1186 -0.5123 -0.0042
  476MOL0     C64127   7.178   6.576   8.915  0.2396 -0.5027 -0.6543
  476MOL0     O64128   7.166   6.700   8.979  0.4381 -0.2426 -0.1000
  476MOL0     C64129   7.265   6.787   8.996  0.1692  0.0245 -0.4716
  476MOL0     C64130   7.329   6.808   9.118  0.4580 -0.8520  0.1868
  476MOL0     C64131   7.428   6.904   9.137  0.8592 -0.1630  0.1304
  476MOL0     C64132   7.467   6.987   9.029 -0.6263 -0.1665  0.7927
  476MOL0     O64133   7.559   7.088   9.041 -1.2601 -0.1132  0.0911
  476MOL0     C64134   7.674   7.045   9.123 -0.0175  0.2187 -0.5151
  476MOL0     C64135   7.788   7.142   9.124 -0.4392 -0.7764  0.6550
  476MOL0     C64136   7.872   7.133   9.249 -0.6083 -0.3816 -0.2471
  476MOL0     C64137   7.997   7.220   9.235  0.1677 -0.3178  0.2770
  476MOL0     C64138   8.068   7.246   9.372 -0.0162  0.0249  0.2268
  476MOL0     C64139   8.214   7.305   9.363  1.7365 -0.3778  0.2741
  476MOL0     C64140   8.224   7.444   9.283  0.6162 -0.1547 -0.1187
  476MOL0     C64141   8.366   7.502   9.291 -0.3137  0.0406  0.5933
  476MOL0     N64142   8.392   7.645   9.280  0.1444 -0.7829 -0.0402
  476MOL0     C64143   8.501   7.715   9.230  0.3377  0.2171 -0.2386
  476MOL0     C64144   8.469   7.851   9.238 -0.2516  0.5519  0.6883
  476MOL0     C64145   8.553   7.968   9.197 -0.3953  0.9466  0.4461
  476MOL0     C64146   8.454   8.066   9.148  0.5746  0.5688 -0.0216
  476MOL0     C64147   8.514   8.198   9.107 -0.5863  0.7676 -0.1552
  476MOL0     C64148   8.424   8.290   9.045  0.6647  0.5178  0.0260
  476MOL0     O64149   8.490   8.412   9.012  0.6967  0.4346 -0.8264
  476MOL0     C64150   8.440   8.536   9.052 -0.1785  0.6061  0.0132
  476MOL0     C64151   8.301   8.575   9.057  0.0860  0.4653  0.0393
  476MOL0     C64152   8.256   8.706   9.109 -0.4060  0.6653  0.4026
  476MOL0     C64153   8.101   8.733   9.117 -0.2859  0.2530 -0.2589
  476MOL0     C64154   8.353   8.805   9.134  0.3740  0.8150  0.5181
  476MOL0     C64155   8.319   8.942   9.181 -0.4933  0.4632  0.4450
  476MOL0     O64156   8.398   9.005   9.272 -0.2928  0.0263  0.2678
  476MOL0     C64157   8.344   9.112   9.339 -0.3790 -0.9592  0.6115
  476MOL0     C64158   8.417   9.229   9.347  0.3816 -0.3193  0.3841
  476MOL0     C64159   8.366   9.351   9.408  1.0655  0.8934  0.7294
  476MOL0     C64160   8.236   9.355   9.464 -0.2621 -0.6270  0.4392
  476MOL0     O64161   8.190   9.472   9.527 -0.1583 -0.2927  0.3704
  476MOL0     C64162   8.066   9.469   9.596 -0.1418  0.2127  0.1117
  476MOL0     C64163   8.022   9.609   9.639 -0.1804  0.0504 -0.0266
  476MOL0     C64164   8.045   9.726   9.539 -0.8041 -0.3161  0.1332
  476MOL0     C64165   8.016   9.865   9.606 -0.0077  0.5187 -0.1365
  476MOL0     C64166   8.073   9.981   9.521  0.2145 -0.2263 -0.5859
  476MOL0     C64167   7.987  10.013   9.402 -0.0952 -1.9855 -0.3835
  476MOL0     C64168   7.849  10.083   9.445 -0.1452  0.6812  0.1294
  476MOL0     C64169   7.813  10.206   9.356 -0.3199  0.2353 -0.6016
  476MOL0    Cl64170   7.848  10.165   9.177  0.2721  0.4595  0.1663
  476MOL0     C64171   8.165   9.228   9.465  0.4033  0.2558  0.3437
  476MOL0     C64172   8.216   9.110   9.397  0.4585 -0.1166 -0.9913
  476MOL0     O64173   8.217   8.991   9.120 -0.2892 -0.2552 -0.5943
  476MOL0     C64174   8.484   8.767   9.108 -0.0769  0.1756  0.7871
  476MOL0     C64175   8.529   8.643   9.073  1.2610  0.1303 -0.0043
  476MOL0     N64176   8.345   7.859   9.311 -0.4144  0.4047 -0.6217
  476MOL0     N64177   8.310   7.740   9.330  0.0566  0.0492  0.2708
  476MOL0     C64178   7.408   6.954   8.903  0.6463  1.3785  0.9570
  476MOL0     C64179   7.318   6.854   8.885  0.7176  0.4326 -0.3427
  476MOL0     C64180   7.054   6.495   8.909 -0.4985 -0.4512 -0.4394
  476MOL0     C64181   6.945   6.524   8.995  1.2800 -0.0755  0.5568
  476MOL0     C64182   6.828   6.451   8.968 -0.2830  0.9319  0.0783
  476MOL0     C64183   6.807   6.355   8.869  0.2058 -0.6225  1.0320
  476MOL0     O64184   6.683   6.301   8.865  0.2869  0.6985 -0.4017
  476MOL0     C64185   6.633   6.293   8.732 -0.1712  0.5829 -0.7954
  476MOL0     C64186   6.491   6.340   8.722  0.3527 -0.4868  0.4124
  476MOL0     C64187   6.460   6.360   8.575  0.3130  0.1590  0.2644
  476MOL0     C64188   6.306   6.409   8.554 -0.0248  0.0141 -1.0840
  476MOL0     C64189   6.217   6.288   8.565  1.0795  0.9373 -0.4964
  476MOL0     C64190   6.160   6.181   8.571 -0.1120  0.1039 -0.2643
  476MOL0     C64191   6.914   6.327   8.785  0.2084 -1.3650 -0.3120
  476MOL0     C64192   7.041   6.398   8.806  0.3258  0.0533 -0.5342
  476MOL0     H64193   7.291   6.746   9.198  3.6222 -0.6923  1.9656
  476MOL0     H64194   7.457   6.928   9.239 -1.1523  2.5765  0.1811
  476MOL0     H64195   7.636   7.035   9.225  0.3914  1.4032 -0.2260
  476MOL0     H64196   7.709   6.945   9.097  0.6224  0.1339  0.6202
  476MOL0     H64197   7.853   7.129   9.038  0.8882  3.4060  0.8038
  476MOL0     H64198   7.759   7.246   9.111  0.4642 -0.7824 -1.7783
  476MOL0     H64199   7.812   7.166   9.334 -1.2132 -0.8466 -0.4865
  476MOL0     H64200   7.907   7.030   9.252  0.7674 -0.0079 -1.9033
  476MOL0     H64201   8.065   7.172   9.164 -1.2531 -1.4166 -0.3928
  476MOL0     H64202   7.969   7.321   9.205  2.2263 -0.5162 -2.7296
  476MOL0     H64203   8.003   7.312   9.430  0.8804  0.3109  0.9083
  476MOL0     H64204   8.065   7.153   9.430 -1.4502  0.9569  1.7192
  476MOL0     H64205   8.253   7.314   9.465  2.4041 -0.2522  0.0155
  476MOL0     H64206   8.276   7.230   9.314  3.2816 -1.5450  3.6836
  476MOL0     H64207   8.203   7.426   9.177  0.7448  0.2700 -0.2187
  476MOL0     H64208   8.138   7.507   9.309 -0.3617 -0.7255 -1.7582
  476MOL0     H64209   8.431   7.452   9.219  0.8033 -0.0865  1.6517
  476MOL0     H64210   8.416   7.480   9.386  4.4428 -2.7585 -2.1569
  476MOL0     H64211   8.587   7.660   9.195 -0.0834 -0.6363  0.0504
  476MOL0     H64212   8.603   8.007   9.286 -0.5350 -1.3667  1.6198
  476MOL0     H64213   8.632   7.944   9.125  2.1742 -0.4646  3.4920
  476MOL0     H64214   8.375   8.086   9.221  0.9020  3.8111 -0.4094
  476MOL0     H64215   8.401   8.029   9.060 -1.7192 -2.5773  2.4387
  476MOL0     H64216   8.595   8.188   9.034 -0.3789  4.4839 -0.6024
  476MOL0     H64217   8.563   8.247   9.192  1.0722  1.4889 -1.4573
  476MOL0     H64218   8.347   8.304   9.122  0.1919 -2.3574  0.1723
  476MOL0     H64219   8.371   8.244   8.961  0.1936  2.5829 -0.8843
  476MOL0     H64220   8.230   8.500   9.023  1.4303 -2.6161  3.3468
  476MOL0     H64221   8.053   8.635   9.109 -0.1084  0.2231 -1.0574
  476MOL0     H64222   8.063   8.781   9.208 -0.6332 -0.6119  0.0655
  476MOL0     H64223   8.060   8.797   9.039 -1.9676  1.5744  1.5972
  476MOL0     H64224   8.515   9.232   9.301 -0.4767  1.2837 -1.4802
  476MOL0     H64225   8.432   9.437   9.411 -0.2462  1.9169  1.1342
  476MOL0     H64226   7.984   9.435   9.533 -1.1714  2.4897  0.1116
  476MOL0     H64227   8.084   9.414   9.689  2.2637 -3.1015 -2.0594
  476MOL0     H64228   7.916   9.602   9.664  0.1959 -1.0573  1.3921
  476MOL0     H64229   8.072   9.643   9.730 -0.0734 -0.6586  0.1864
  476MOL0     H64230   7.973   9.703   9.460 -1.5916  0.2389  0.6733
  476MOL0     H64231   8.149   9.730   9.505 -0.8007  1.4845  0.2644
  476MOL0     H64232   7.907   9.874   9.618 -0.0392  0.2738 -0.2503
  476MOL0     H64233   8.059   9.869   9.707 -1.8478 -4.6508  1.1614
  476MOL0     H64234   8.175   9.961   9.488  0.9647  3.2020 -0.7907
  476MOL0     H64235   8.092  10.069   9.582  1.8070 -1.7806  1.2569
  476MOL0     H64236   8.027  10.073   9.320 -0.0215 -1.5569 -0.0444
  476MOL0     H64237   7.950   9.916   9.367 -0.2345 -1.6259 -1.2435
  476MOL0     H64238   7.857  10.119   9.548  0.0081  1.7220 -0.2350
  476MOL0     H64239   7.775  10.003   9.446 -1.1169  1.5348 -0.6143
  476MOL0     H64240   7.881  10.289   9.378  1.0098 -0.5577 -1.5594
  476MOL0     H64241   7.711  10.241   9.375 -0.1742 -0.0896  0.9115
  476MOL0     H64242   8.061   9.212   9.493  0.2770 -2.0936 -1.1810
  476MOL0     H64243   8.148   9.030   9.370 -0.9890  1.1366 -1.2378
  476MOL0     H64244   8.566   8.826   9.148  0.2444 -0.1690  0.6482
  476MOL0     H64245   8.635   8.625   9.056  1.0767  1.4190 -3.3792
  476MOL0     H64246   7.419   7.023   8.819 -1.5893 -1.8311 -2.3103
  476MOL0     H64247   7.281   6.840   8.784  2.8918  1.2872 -1.3132
  476MOL0     H64248   6.955   6.604   9.067  0.9272  0.3388  0.1541
  476MOL0     H64249   6.746   6.463   9.038 -1.8974  0.6731 -1.7025
  476MOL0     H64250   6.694   6.348   8.660  2.7194 -1.0117  0.3092
  476MOL0     H64251   6.640   6.188   8.703  1.8105 -0.4522  2.8333
  476MOL0     H64252   6.482   6.438   8.770  1.2457 -0.3983  0.4183
  476MOL0     H64253   6.429   6.263   8.769 -0.3314  1.4010  2.8182
  476MOL0     H64254   6.472   6.259   8.534 -1.0101  0.5763 -1.3016
  476MOL0     H64255   6.524   6.432   8.523  0.4475 -0.5305 -0.5433
  476MOL0     H64256   6.292   6.452   8.454 -0.3296 -0.7245 -1.3612
  476MOL0     H64257   6.269   6.493   8.615 -1.6464 -1.3003 -0.1745
  476MOL0     H64258   6.110   6.087   8.564 -1.8169  0.4239  4.1047
  476MOL0     H64259   6.900   6.252   8.708  0.8483 -2.0551  0.2246
  476MOL0     H64260   7.119   6.379   8.733  1.1311  1.0892  0.0365
  477MOL0     O64261   8.031   4.350   9.392 -0.4658  0.6873  0.1418
  477MOL0     C64262   8.127   4.395   9.325  0.5335 -0.6614  0.5066
  477MOL0     O64263   8.168   4.345   9.210 -0.3171  0.5551 -0.8392
  477MOL0     C64264   8.087   4.247   9.154  0.0642 -0.0243  0.8148
  477MOL0     C64265   8.124   4.115   9.137 -0.6356  0.7602  0.0723
  477MOL0     C64266   8.036   4.019   9.089  0.0884 -0.2185  0.0909
  477MOL0     C64267   7.901   4.049   9.052  0.3261 -0.1349 -0.9037
  477MOL0     O64268   7.817   3.948   9.009  0.0117  0.2397 -0.2074
  477MOL0     C64269   7.679   3.972   8.973 -0.7459 -0.6488 -0.1504
  477MOL0     C64270   7.598   3.847   8.946  0.2776 -0.5811 -0.8550
  477MOL0     C64271   7.660   3.739   8.867  0.3341 -0.2267  0.1728
  477MOL0     C64272   7.693   3.779   8.723  0.5223 -0.2104 -0.8445
  477MOL0     C64273   7.747   3.662   8.637  1.7554  0.1298  0.1576
  477MOL0     C64274   7.760   3.705   8.493  1.2108  0.0467  0.0380
  477MOL0     C64275   7.852   3.822   8.447  0.1792 -0.3171 -0.6312
  477MOL0     C64276   7.879   3.817   8.303 -0.8717  0.1425 -0.0344
  477MOL0     N64277   7.988   3.909   8.262 -0.5421  0.6518 -0.0383
  477MOL0     C64278   8.119   3.868   8.262  0.3103 -0.0790  1.2017
  477MOL0     C64279   8.193   3.978   8.233  0.7114  0.5208  0.6824
  477MOL0     C64280   8.344   3.983   8.225  0.3729 -0.5078  0.0845
  477MOL0     C64281   8.404   4.128   8.247 -0.6460 -1.0812 -0.0248
  477MOL0     C64282   8.386   4.158   8.398 -0.4668  1.0407  0.2636
  477MOL0     C64283   8.436   4.288   8.451  0.1656  0.4425  0.7883
  477MOL0     O64284   8.430   4.272   8.592 -0.3633 -0.3443 -0.2734
  477MOL0     C64285   8.471   4.382   8.680  0.7088 -0.4192  0.2945
  477MOL0     C64286   8.476   4.363   8.815 -0.5984 -1.1369  0.0011
  477MOL0     C64287   8.514   4.466   8.903  0.3831 -0.3915  0.5872
  477MOL0     C64288   8.516   4.422   9.047  0.0114  0.0219  0.6947
  477MOL0     C64289   8.546   4.600   8.852  0.3069 -0.1917 -0.3677
  477MOL0     C64290   8.598   4.714   8.941 -0.1530 -0.1893  0.4120
  477MOL0     O64291   8.628   4.834   8.878 -0.2913  0.0529 -0.3082
  477MOL0     C64292   8.636   4.947   8.960  0.3741  0.5579  0.2111
  477MOL0     C64293   8.720   5.044   8.916 -0.3283  0.3308 -0.2894
  477MOL0     C64294   8.733   5.159   8.995  1.3212 -0.8907 -0.1728
  477MOL0     C64295   8.643   5.191   9.099  0.2629 -0.3518 -0.3972
  477MOL0     O64296   8.639   5.320   9.158 -0.8423 -0.0920  0.6067
  477MOL0     C64297   8.520   5.394   9.163 -0.3275 -0.4808  0.8564
  477MOL0     C64298   8.460   5.432   9.028  0.7183  0.4023 -0.6559
  477MOL0     C64299   8.546   5.498   8.917  0.7515  1.0170 -0.0679
  477MOL0     C64300   8.469   5.595   8.821 -0.3021  0.9546  0.9231
  477MOL0     C64301   8.562   5.663   8.715  0.0455  0.8689 -0.2017
  477MOL0     C64302   8.477   5.687   8.588  0.3086 -0.0474  0.0070
  477MOL0     C64303   8.415   5.574   8.509  0.6818  0.2872  0.4542
  477MOL0     C64304   8.388   5.608   8.358 -0.6890 -0.1364 -0.0850
  477MOL0    Cl64305   8.319   5.774   8.332 -0.0442  0.1537  0.2388
  477MOL0     C64306   8.541   5.092   9.129 -0.5701 -0.1784 -0.4609
  477MOL0     C64307   8.541   4.967   9.064 -0.0355 -0.6909 -0.5279
  477MOL0     O64308   8.608   4.697   9.069 -0.0584  0.1812 -1.0108
  477MOL0     C64309   8.528   4.620   8.711  0.1639  0.9681 -0.3002
  477MOL0     C64310   8.505   4.510   8.626  0.7753  0.0083 -1.2650
  477MOL0     N64311   8.102   4.075   8.207  1.3263 -0.2659 -1.2512
  477MOL0     N64312   7.979   4.039   8.216  0.0478  0.1478  0.0038
  477MOL0     C64313   7.859   4.184   9.081 -0.3014  0.3008  0.0940
  477MOL0     C64314   7.958   4.279   9.117  1.2420  0.5353  0.3785
  477MOL0     C64315   8.194   4.525   9.364  0.2931 -0.0295  0.5101
  477MOL0     C64316   8.173   4.570   9.497  0.1339 -0.0439 -0.3525
  477MOL0     C64317   8.240   4.689   9.546  0.8630 -0.1524  0.3263
  477MOL0     C64318   8.325   4.755   9.457  0.1097  0.4832 -0.2341
  477MOL0     O64319   8.403   4.868   9.484  0.1590  1.1616  0.3266
  477MOL0     C64320   8.366   4.953   9.590  0.3079 -0.1001 -0.5263
  477MOL0     C64321   8.411   5.111   9.578  0.1032  0.1283  1.0343
  477MOL0     C64322   8.339   5.192   9.692 -0.5497 -0.1496 -0.6227
  477MOL0     C64323   8.382   5.333   9.691 -0.1824  0.0054  1.1857
  477MOL0     C64324   8.311   5.406   9.583  0.9012  1.2645  0.7686
  477MOL0     C64325   8.254   5.471   9.489  1.4252  0.0006 -0.2156
  477MOL0     C64326   8.339   4.717   9.319  0.0352  0.0146  0.1255
  477MOL0     C64327   8.275   4.600   9.276 -0.5360 -0.4142  1.1238
  477MOL0     H64328   8.228   4.095   9.158 -0.7538 -0.3964 -0.3698
  477MOL0     H64329   8.080   3.921   9.077  3.5144  1.2439 -0.3571
  477MOL0     H64330   7.635   4.020   9.061 -1.5627  0.4925 -1.1435
  477MOL0     H64331   7.674   4.040   8.887  0.0669 -0.9282 -0.4346
  477MOL0     H64332   7.571   3.803   9.043  3.7989 -0.4071  0.3744
  477MOL0     H64333   7.501   3.879   8.908  0.8285 -0.6374 -2.3493
  477MOL0     H64334   7.761   3.710   8.896  0.6574  1.3292  0.7159
  477MOL0     H64335   7.597   3.650   8.863 -0.0744  0.0675 -0.0422
  477MOL0     H64336   7.608   3.822   8.668 -0.0027 -1.6400 -1.1949
  477MOL0     H64337   7.779   3.847   8.724  0.8180 -0.4966 -2.8043
  477MOL0     H64338   7.840   3.630   8.684  2.1971 -2.2448 -2.1358
  477MOL0     H64339   7.673   3.582   8.626  0.6056  1.1823  0.0773
  477MOL0     H64340   7.795   3.621   8.433  0.9914  1.8423 -2.8035
  477MOL0     H64341   7.661   3.736   8.458  1.2967  0.4818  0.1703
  477MOL0     H64342   7.808   3.920   8.467  0.5221 -0.2861  0.0096
  477MOL0     H64343   7.942   3.822   8.509  0.9313  1.0250 -1.6488
  477MOL0     H64344   7.788   3.838   8.245 -1.0444 -2.8313 -0.9893
  477MOL0     H64345   7.918   3.720   8.272  0.5267  0.2032  1.3999
  477MOL0     H64346   8.145   3.762   8.268 -0.9212 -0.3287  2.7320
  477MOL0     H64347   8.373   3.904   8.295 -2.1599 -0.4640  1.2826
  477MOL0     H64348   8.375   3.945   8.127 -3.5210 -2.1706 -0.6771
  477MOL0     H64349   8.355   4.202   8.184  1.8333 -0.9711 -1.9606
  477MOL0     H64350   8.514   4.127   8.242 -0.2427  2.9861  2.8494
  477MOL0     H64351   8.442   4.087   8.459  1.5506  1.9333 -0.4746
  477MOL0     H64352   8.278   4.158   8.420 -0.5081 -1.2969  0.2489
  477MOL0     H64353   8.368   4.369   8.422 -0.7120  0.2400  2.1451
  477MOL0     H64354   8.534   4.309   8.409 -1.3205  1.9506 -2.2795
  477MOL0     H64355   8.456   4.262   8.848 -0.9227 -0.5586  1.6346
  477MOL0     H64356   8.448   4.465   9.120 -1.2498 -0.6930 -0.0082
  477MOL0     H64357   8.481   4.319   9.060 -2.0369  0.7864  1.6782
  477MOL0     H64358   8.617   4.436   9.086 -0.9628  1.7978  2.7630
  477MOL0     H64359   8.795   5.039   8.838 -0.8849 -1.8925 -0.7406
  477MOL0     H64360   8.824   5.216   8.974  0.8712  0.0693  0.4178
  477MOL0     H64361   8.454   5.344   9.235 -0.0321  0.3501  1.7213
  477MOL0     H64362   8.534   5.494   9.203  1.6844 -0.0564 -0.7135
  477MOL0     H64363   8.431   5.331   8.996 -2.6179  1.0748 -0.0583
  477MOL0     H64364   8.377   5.501   9.046  0.6992  0.1059  0.4434
  477MOL0     H64365   8.593   5.421   8.855 -0.2633  1.8562 -1.9875
  477MOL0     H64366   8.618   5.561   8.970 -0.9533  0.3084  3.3903
  477MOL0     H64367   8.389   5.537   8.774  0.8960  0.1787 -0.2211
  477MOL0     H64368   8.425   5.679   8.876 -1.1052  1.5423 -0.5760
  477MOL0     H64369   8.654   5.607   8.696  1.8807  3.7968 -0.6065
  477MOL0     H64370   8.585   5.763   8.754 -0.0316  1.5943 -1.9566
  477MOL0     H64371   8.401   5.760   8.617 -1.4068 -1.6859 -0.1386
  477MOL0     H64372   8.541   5.740   8.518 -2.5569  2.3761 -0.9674
  477MOL0     H64373   8.321   5.548   8.559  1.1293  1.5462  2.0027
  477MOL0     H64374   8.485   5.489   8.509  0.3687  0.0174 -0.4202
  477MOL0     H64375   8.337   5.533   8.297  1.7544 -0.4363 -1.9000
  477MOL0     H64376   8.491   5.601   8.324  0.9380 -3.7073  4.5017
  477MOL0     H64377   8.478   5.109   9.216 -0.7471 -1.6404 -0.2763
  477MOL0     H64378   8.471   4.889   9.091 -0.9224  0.1398 -0.3948
  477MOL0     H64379   8.540   4.712   8.655 -1.0151 -0.6334 -3.4210
  477MOL0     H64380   8.486   4.530   8.521 -3.5749 -1.5649 -0.9783
  477MOL0     H64381   7.755   4.213   9.067 -0.6699 -0.8523  0.2665
  477MOL0     H64382   7.930   4.383   9.133  0.9882  0.7443 -1.2897
  477MOL0     H64383   8.132   4.504   9.574  0.2128 -0.1380 -0.3919
  477MOL0     H64384   8.227   4.728   9.646  1.0540 -0.9084  0.6494
  477MOL0     H64385   8.257   4.948   9.597  0.4238  0.1491  2.5079
  477MOL0     H64386   8.407   4.918   9.685  1.0832 -1.0083 -1.1782
  477MOL0     H64387   8.381   5.154   9.482  1.5785  0.6635  0.7894
  477MOL0     H64388   8.520   5.115   9.585  0.2319 -3.0058  2.4244
  477MOL0     H64389   8.373   5.160   9.791 -2.4449  3.4458  1.3766
  477MOL0     H64390   8.230   5.189   9.683 -0.8008  0.8151  1.4917
  477MOL0     H64391   8.488   5.340   9.665 -1.2079  0.4805 -4.0383
  477MOL0     H64392   8.367   5.372   9.792  1.3132  0.0073  1.4242
  477MOL0     H64393   8.205   5.523   9.408 -1.5800 -0.0507  1.4261
  477MOL0     H64394   8.389   4.786   9.253 -0.9025  0.0997 -0.5157
  477MOL0     H64395   8.268   4.571   9.171  0.0333  1.7033  0.4658
  478MOL0     O64396  11.210   8.139   6.879 -0.1709 -0.2401  0.3638
  478MOL0     C64397  11.232   8.088   6.987  1.3445 -0.0724  0.2995
  478MOL0     O64398  11.131   8.051   7.078  0.1915 -0.4695 -0.1232
  478MOL0     C64399  11.005   8.062   7.036  0.2343 -0.5233 -0.1384
  478MOL0     C64400  10.956   8.002   6.918  0.8519 -0.3383 -0.4664
  478MOL0     C64401  10.818   7.994   6.891  0.5660  0.2838  0.5688
  478MOL0     C64402  10.726   8.058   6.973  0.2504 -0.7480 -0.1562
  478MOL0     O64403  10.595   8.057   6.929 -0.9520  0.4615  0.7669
  478MOL0     C64404  10.491   8.142   6.983  0.7383  0.1744  0.4929
  478MOL0     C64405  10.528   8.289   6.964 -0.4119 -0.6049 -0.4323
  478MOL0     C64406  10.445   8.383   7.047  0.2408 -1.2865  0.4269
  478MOL0     C64407  10.478   8.537   7.005 -0.2031  0.7787  0.2465
  478MOL0     C64408  10.390   8.647   7.064  0.7913  0.5965  0.0278
  478MOL0     C64409  10.252   8.649   7.003  1.3451 -0.0948 -1.1773
  478MOL0     C64410  10.166   8.771   7.057 -0.5393  0.4389  0.1705
  478MOL0     C64411  10.200   8.835   7.200 -1.2851  0.4192  0.4818
  478MOL0     N64412  10.173   8.749   7.314 -0.2955  0.8939 -0.1769
  478MOL0     C64413  10.101   8.632   7.297 -0.5032 -0.4252 -0.7700
  478MOL0     C64414  10.092   8.582   7.425  0.5451 -0.2306  0.3837
  478MOL0     C64415  10.008   8.468   7.478 -1.0682  0.0986  0.0951
  478MOL0     C64416  10.030   8.336   7.394 -0.3274  0.1519  0.4474
  478MOL0     C64417  10.181   8.305   7.383 -0.0224  0.7657 -0.2013
  478MOL0     C64418  10.203   8.167   7.326  0.5497  0.0738 -1.0421
  478MOL0     O64419  10.342   8.137   7.339 -0.5268 -1.1012  0.4570
  478MOL0     C64420  10.382   8.002   7.339  0.0194 -0.1779  0.4311
  478MOL0     C64421  10.521   7.983   7.352 -0.8122  0.1316  0.2897
  478MOL0     C64422  10.578   7.859   7.342 -0.2549  0.3904  0.0866
  478MOL0     C64423  10.726   7.860   7.358  0.7155 -0.3137 -0.0386
  478MOL0     C64424  10.498   7.747   7.332  0.7235  0.3610 -0.5845
  478MOL0     C64425  10.538   7.601   7.314 -0.2903 -0.2078 -0.2221
  478MOL0     O64426  10.448   7.505   7.322 -0.1912  0.3381 -0.3683
  478MOL0     C64427  10.492   7.370   7.296  0.0051  1.2420  0.0566
  478MOL0     C64428  10.585   7.311   7.377 -0.2501 -0.3625  0.6558
  478MOL0     C64429  10.617   7.178   7.364 -0.1616 -1.2829  0.7416
  478MOL0     C64430  10.551   7.100   7.270 -0.8532  0.0471 -0.1512
  478MOL0     O64431  10.567   6.962   7.254 -0.2538 -0.5352  0.3752
  478MOL0     C64432  10.655   6.890   7.324 -1.0116 -0.1189 -0.4954
  478MOL0     C64433  10.618   6.745   7.296  0.3929  0.2874 -0.1356
  478MOL0     C64434  10.684   6.639   7.387  0.4468 -0.6579  1.0580
  478MOL0     C64435  10.625   6.599   7.525  0.5229 -0.2602  0.2899
  478MOL0     C64436  10.696   6.466   7.571 -0.9902 -0.5963  0.7146
  478MOL0     C64437  10.632   6.418   7.700  1.0216 -0.1098 -0.6499
  478MOL0     C64438  10.692   6.285   7.742  0.1877  0.3434  0.3523
  478MOL0     C64439  10.634   6.222   7.869  0.5200 -1.2228  0.1228
  478MOL0    Cl64440  10.586   6.360   7.979  0.5847 -0.4501 -0.1131
  478MOL0     C64441  10.465   7.165   7.176  0.3235 -0.3034 -0.7030
  478MOL0     C64442  10.428   7.303   7.189  0.1377 -0.0622  0.9170
  478MOL0     O64443  10.647   7.591   7.266 -0.5163  0.0530  0.3294
  478MOL0     C64444  10.358   7.762   7.330  0.7264 -0.1435  0.6252
  478MOL0     C64445  10.299   7.889   7.332 -0.0431  0.3767 -0.5168
  478MOL0     N64446  10.168   8.658   7.507 -1.0660  0.9325 -0.0694
  478MOL0     N64447  10.207   8.761   7.443 -0.2566  0.0021  0.4802
  478MOL0     C64448  10.774   8.113   7.092  0.1933  0.1573 -0.2480
  478MOL0     C64449  10.913   8.111   7.120  0.5460  0.0845 -0.6573
  478MOL0     C64450  11.363   8.085   7.038  0.1033 -0.1113  0.1617
  478MOL0     C64451  11.466   8.172   6.992 -0.4481  0.0212 -0.7261
  478MOL0     C64452  11.588   8.170   7.062  0.3104 -0.9583 -0.5670
  478MOL0     C64453  11.616   8.080   7.163  0.4784  0.1614  1.2531
  478MOL0     O64454  11.730   8.091   7.236 -0.0301 -0.7616 -0.5063
  478MOL0     C64455  11.834   8.191   7.209  0.2475 -0.1984 -0.3542
  478MOL0     C64456  11.941   8.141   7.097 -0.1001 -0.1362 -0.3104
  478MOL0     C64457  12.075   8.203   7.108  0.3577 -0.2751 -0.2965
  478MOL0     C64458  12.084   8.323   7.016 -0.3294  0.5534  0.6188
  478MOL0     C64459  11.978   8.422   7.035  0.1994  0.5311  0.1969
  478MOL0     C64460  11.896   8.499   7.058 -0.3445 -0.0755  0.5562
  478MOL0     C64461  11.517   7.994   7.207 -0.4711  0.2241  0.2150
  478MOL0     C64462  11.396   7.998   7.143  0.2419  0.4485 -0.8317
  478MOL0     H64463  11.027   7.948   6.855  0.7026 -1.4238  0.2729
  478MOL0     H64464  10.795   7.932   6.805  1.1579  1.2591 -0.3156
  478MOL0     H64465  10.393   8.112   6.945  1.4597 -0.9254 -0.5641
  478MOL0     H64466  10.490   8.140   7.092 -2.3549  2.0690  0.6039
  478MOL0     H64467  10.628   8.300   7.008 -0.2658  0.4740 -0.9998
  478MOL0     H64468  10.524   8.312   6.857  2.4518  0.0063 -0.5067
  478MOL0     H64469  10.341   8.365   7.020 -0.4718  3.1482 -0.5761
  478MOL0     H64470  10.456   8.372   7.155 -3.8849 -1.4651  0.9725
  478MOL0     H64471  10.582   8.548   7.038  1.1492  2.0834 -3.7899
  478MOL0     H64472  10.468   8.549   6.896  2.2413  0.9287 -0.0231
  478MOL0     H64473  10.388   8.636   7.173  3.2926  2.4554  0.3656
  478MOL0     H64474  10.429   8.749   7.054 -1.8753  1.7234  0.2720
  478MOL0     H64475  10.256   8.665   6.895 -0.5032  0.0779 -1.2481
  478MOL0     H64476  10.196   8.558   7.028 -1.6109  1.2230 -2.5964
  478MOL0     H64477  10.174   8.854   6.985 -1.1015 -0.2343 -0.6937
  478MOL0     H64478  10.058   8.754   7.053 -1.6984  5.8134  0.5296
  478MOL0     H64479  10.141   8.925   7.216  0.1729  1.4523  0.2424
  478MOL0     H64480  10.307   8.857   7.193 -0.4002 -2.5220  2.5536
  478MOL0     H64481  10.056   8.584   7.211  0.5802  1.4612 -2.4754
  478MOL0     H64482  10.018   8.455   7.586 -0.5565  2.9569  0.4658
  478MOL0     H64483   9.902   8.485   7.456 -1.8641 -3.3431  0.6468
  478MOL0     H64484   9.985   8.354   7.296 -0.3916 -1.2480  0.2017
  478MOL0     H64485   9.979   8.246   7.430 -2.3060  0.1089 -2.1958
  478MOL0     H64486  10.233   8.301   7.479 -1.6342 -0.0732  0.6786
  478MOL0     H64487  10.223   8.373   7.308 -1.2617  0.2474 -1.4097
  478MOL0     H64488  10.173   8.168   7.221  0.6236  3.2056 -1.1550
  478MOL0     H64489  10.150   8.091   7.384 -0.8709  0.7379 -1.4206
  478MOL0     H64490  10.580   8.073   7.369 -1.5378  0.9974 -1.4922
  478MOL0     H64491  10.758   7.946   7.417  0.0985  0.5909 -0.9941
  478MOL0     H64492  10.760   7.766   7.404  0.4233 -0.0401  0.7645
  478MOL0     H64493  10.768   7.872   7.258  0.6594 -1.4118 -0.2024
  478MOL0     H64494  10.642   7.371   7.447 -2.1905  0.2014  1.8333
  478MOL0     H64495  10.695   7.137   7.427 -0.1021  0.2592  1.7149
  478MOL0     H64496  10.755   6.923   7.295 -1.0103  0.0484 -0.3019
  478MOL0     H64497  10.637   6.888   7.432  1.5145 -0.1762 -0.0224
  478MOL0     H64498  10.512   6.733   7.324  0.4993 -0.0123  0.1425
  478MOL0     H64499  10.612   6.721   7.190 -0.3101  0.2724 -0.0996
  478MOL0     H64500  10.782   6.675   7.420  0.0000 -1.0751  2.9495
  478MOL0     H64501  10.700   6.543   7.337  0.6698 -0.0334 -0.1204
  478MOL0     H64502  10.642   6.672   7.604 -0.2623  0.2258  0.0219
  478MOL0     H64503  10.518   6.580   7.514  0.7356 -0.4494 -1.8227
  478MOL0     H64504  10.802   6.485   7.587 -0.6468 -1.0012 -0.9089
  478MOL0     H64505  10.696   6.389   7.493 -0.2934  1.2158 -1.1706
  478MOL0     H64506  10.643   6.497   7.775 -2.5102 -0.7081  0.6595
  478MOL0     H64507  10.525   6.407   7.679  0.0166  4.8318  0.6373
  478MOL0     H64508  10.796   6.305   7.768  0.4254 -1.0344  0.5695
  478MOL0     H64509  10.687   6.212   7.660 -3.3820  1.7227 -0.8424
  478MOL0     H64510  10.708   6.156   7.915 -1.3896 -3.0190  0.8494
  478MOL0     H64511  10.545   6.160   7.854 -1.1272  0.3668  2.5350
  478MOL0     H64512  10.430   7.098   7.098  1.0284 -2.0618  0.4197
  478MOL0     H64513  10.356   7.349   7.121  1.8135  1.5278  0.1318
  478MOL0     H64514  10.293   7.676   7.332  0.4470  0.0646  0.5436
  478MOL0     H64515  10.191   7.892   7.318 -0.4703  1.3192  2.2253
  478MOL0     H64516  10.703   8.148   7.167  0.3243  0.7286 -0.3882
  478MOL0     H64517  10.939   8.157   7.215  1.8247 -0.2799 -0.8154
  478MOL0     H64518  11.432   8.252   6.926 -3.7758 -1.6573 -1.2679
  478MOL0     H64519  11.661   8.246   7.035  0.5269 -0.6997  0.6764
  478MOL0     H64520  11.792   8.290   7.188 -1.8773 -1.4339 -2.5215
  478MOL0     H64521  11.878   8.219   7.304  1.2410  3.4197 -1.7330
  478MOL0     H64522  11.911   8.145   6.992 -0.7861  1.9458 -0.0745
  478MOL0     H64523  11.957   8.034   7.117 -0.5629 -0.2472 -0.5237
  478MOL0     H64524  12.149   8.127   7.080  0.3896 -0.4718  0.3087
  478MOL0     H64525  12.072   8.230   7.214 -3.7543  2.0613 -0.7717
  478MOL0     H64526  12.085   8.294   6.910 -0.9332  5.9520 -1.1660
  478MOL0     H64527  12.179   8.373   7.038  0.9599 -1.5733  0.1447
  478MOL0     H64528  11.819   8.571   7.077 -1.3086 -1.1973  1.0748
  478MOL0     H64529  11.539   7.931   7.292  0.5119  0.7789  0.3996
  478MOL0     H64530  11.317   7.932   7.178 -0.8872  2.2416  0.1648
  479MOL0     O64531   5.171   5.648   2.033 -0.5468 -0.1428 -0.4194
  479MOL0     C64532   5.294   5.623   2.042 -0.4418 -0.3619  1.4247
  479MOL0     O64533   5.347   5.514   2.088 -0.0776  0.0182  0.4293
  479MOL0     C64534   5.266   5.409   2.100  0.6949  0.6763  0.0693
  479MOL0     C64535   5.190   5.390   2.211  0.4454  0.1560  0.1134
  479MOL0     C64536   5.132   5.261   2.245 -0.4629  0.2279  0.2057
  479MOL0     C64537   5.148   5.154   2.159  0.3088 -0.3205  0.4277
  479MOL0     O64538   5.101   5.031   2.190  0.0421  0.0738  0.5986
  479MOL0     C64539   5.168   4.916   2.129  0.6726 -0.0697 -0.1669
  479MOL0     C64540   5.093   4.789   2.165  0.8497 -0.7008 -0.0092
  479MOL0     C64541   5.176   4.663   2.150 -0.5991 -0.4279 -0.4614
  479MOL0     C64542   5.259   4.642   2.276 -0.1049 -0.0602 -0.3184
  479MOL0     C64543   5.183   4.611   2.406 -0.1487 -0.0701 -0.6384
  479MOL0     C64544   5.260   4.528   2.500 -0.5044  0.4992 -1.4169
  479MOL0     C64545   5.175   4.490   2.627  0.4548  0.4119 -0.6980
  479MOL0     C64546   5.131   4.613   2.699 -0.9276 -0.4547 -0.1964
  479MOL0     N64547   5.074   4.581   2.830  0.0214  1.2551  0.4585
  479MOL0     C64548   5.110   4.480   2.917  0.3504 -0.3773  0.1601
  479MOL0     C64549   5.022   4.496   3.016 -0.9455 -0.8973 -0.5757
  479MOL0     C64550   5.015   4.425   3.145 -0.5382  0.3563  0.0429
  479MOL0     C64551   4.883   4.467   3.218  0.2894  0.4806 -0.0487
  479MOL0     C64552   4.852   4.364   3.338 -0.7972  1.2249 -1.8522
  479MOL0     C64553   4.703   4.350   3.365 -0.1928 -0.8787 -0.4733
  479MOL0     O64554   4.645   4.305   3.246  0.1855  0.1734  0.3682
  479MOL0     C64555   4.685   4.167   3.220 -0.2816 -0.5881  0.9995
  479MOL0     C64556   4.750   4.141   3.094  0.1382  0.2289 -0.1584
  479MOL0     C64557   4.787   4.020   3.046  1.0423  0.0392 -1.0639
  479MOL0     C64558   4.867   4.001   2.921 -0.6622 -0.5401 -0.5907
  479MOL0     C64559   4.766   3.907   3.124  0.5532 -0.5344 -0.4493
  479MOL0     C64560   4.797   3.762   3.097  0.2954  0.4666 -0.7516
  479MOL0     O64561   4.723   3.665   3.169 -0.1605  0.3986 -0.6581
  479MOL0     C64562   4.732   3.530   3.144  1.0305 -0.2058 -0.3597
  479MOL0     C64563   4.765   3.470   3.020  0.3909  0.6065  0.2381
  479MOL0     C64564   4.796   3.333   3.016  0.8069 -0.0775  0.4434
  479MOL0     C64565   4.788   3.248   3.125 -0.3574  0.7478  0.2225
  479MOL0     O64566   4.813   3.113   3.116  0.6723 -0.1931 -1.1491
  479MOL0     C64567   4.953   3.078   3.137  0.0068 -0.1000  0.0613
  479MOL0     C64568   4.954   2.951   3.232  0.5265  0.1476 -0.6499
  479MOL0     C64569   5.101   2.903   3.239  0.3002 -0.9143  0.2984
  479MOL0     C64570   5.202   3.009   3.298 -0.5428 -0.0733 -0.7262
  479MOL0     C64571   5.281   3.072   3.185  0.6870  0.7678 -0.3955
  479MOL0     C64572   5.402   3.138   3.238 -0.1601 -0.4912  0.1501
  479MOL0     C64573   5.465   3.215   3.121  0.2927  0.2174 -0.1960
  479MOL0     C64574   5.525   3.127   3.013 -0.4016 -0.2526 -0.0368
  479MOL0    Cl64575   5.656   3.032   3.076  0.4950 -0.1348 -0.5495
  479MOL0     C64576   4.742   3.306   3.243  0.5502  0.8186  0.7624
  479MOL0     C64577   4.706   3.445   3.252 -0.0841 -0.0691 -1.3334
  479MOL0     O64578   4.887   3.735   3.018 -0.8096  0.8716 -0.0549
  479MOL0     C64579   4.718   3.930   3.254 -0.1631 -0.0404  0.6680
  479MOL0     C64580   4.674   4.059   3.300 -0.1621  0.0517 -0.1151
  479MOL0     N64581   4.931   4.592   2.986 -1.0880 -0.1499 -0.1969
  479MOL0     N64582   4.965   4.647   2.873  0.0013 -1.3718 -0.4518
  479MOL0     C64583   5.223   5.181   2.033  1.2406 -1.0949  0.0715
  479MOL0     C64584   5.278   5.306   2.011  0.5213 -0.7279 -0.5222
  479MOL0     C64585   5.382   5.742   2.016 -0.2377  0.4039  0.8581
  479MOL0     C64586   5.526   5.708   2.026  1.2288 -0.1856 -0.4584
  479MOL0     C64587   5.614   5.812   1.971 -0.3682 -0.1284 -0.3134
  479MOL0     C64588   5.570   5.936   1.924  0.2715  0.6170  0.3268
  479MOL0     O64589   5.647   6.046   1.890 -0.2938  0.0966  0.1871
  479MOL0     C64590   5.774   6.021   1.845  0.3549 -0.6538 -0.3345
  479MOL0     C64591   5.838   6.157   1.820 -0.4439 -0.1126  0.3033
  479MOL0     C64592   5.790   6.222   1.690  0.2370 -0.8415 -0.0005
  479MOL0     C64593   5.780   6.381   1.698 -0.3173 -0.6090 -0.2826
  479MOL0     C64594   5.903   6.456   1.732  1.1320  0.2477 -1.1214
  479MOL0     C64595   6.003   6.506   1.778  0.5363 -0.9935  0.3167
  479MOL0     C64596   5.432   5.965   1.947 -0.0539 -0.2167  0.5462
  479MOL0     C64597   5.343   5.871   1.980  0.7366  0.4376 -0.2773
  479MOL0     H64598   5.174   5.476   2.276  0.4962  0.1110  0.1857
  479MOL0     H64599   5.070   5.246   2.333  1.9527  0.8119  2.1222
  479MOL0     H64600   5.157   4.923   2.020 -2.8591  1.4136  0.1425
  479MOL0     H64601   5.271   4.902   2.162  0.8857  0.4212 -0.6040
  479MOL0     H64602   5.058   4.797   2.268  1.1885 -1.7111  0.1922
  479MOL0     H64603   5.012   4.765   2.096  0.3205 -3.9256  1.5493
  479MOL0     H64604   5.113   4.575   2.137 -0.7513 -0.1634 -1.7198
  479MOL0     H64605   5.230   4.668   2.055  0.9317 -1.6168  0.2974
  479MOL0     H64606   5.311   4.550   2.249  0.5308  0.3054 -0.3634
  479MOL0     H64607   5.333   4.722   2.290  0.7823 -0.8456 -0.4163
  479MOL0     H64608   5.166   4.710   2.448 -1.4898 -1.4775  2.4105
  479MOL0     H64609   5.081   4.575   2.389 -0.5638 -0.1161  1.6745
  479MOL0     H64610   5.297   4.432   2.462 -1.5727 -0.6855  0.3835
  479MOL0     H64611   5.345   4.581   2.543 -1.5323 -1.5285  3.7910
  479MOL0     H64612   5.084   4.435   2.598 -0.1440 -0.1467  1.9753
  479MOL0     H64613   5.231   4.425   2.695 -0.6829  1.6620  1.5300
  479MOL0     H64614   5.056   4.671   2.644  0.3360  1.9667  0.4842
  479MOL0     H64615   5.226   4.667   2.706 -1.2315 -0.0116  0.5664
  479MOL0     H64616   5.196   4.414   2.915 -0.4441 -1.4521  0.1775
  479MOL0     H64617   5.026   4.316   3.133  0.6852  0.3212  1.1712
  479MOL0     H64618   5.105   4.443   3.205  0.5332 -1.1976 -1.0169
  479MOL0     H64619   4.802   4.478   3.146 -0.5025  0.8987  0.8847
  479MOL0     H64620   4.904   4.566   3.260 -0.7487  0.2061  1.1653
  479MOL0     H64621   4.911   4.398   3.424  1.5579 -0.2252 -2.8103
  479MOL0     H64622   4.896   4.266   3.321  1.2761  2.1872 -2.2957
  479MOL0     H64623   4.675   4.455   3.379  1.5804 -0.5997  1.4141
  479MOL0     H64624   4.687   4.294   3.458 -1.6118 -0.0637 -0.1986
  479MOL0     H64625   4.762   4.223   3.024  1.5706  1.0892  1.0347
  479MOL0     H64626   4.889   4.097   2.873  0.3695 -0.8802 -0.8316
  479MOL0     H64627   4.968   3.963   2.939 -0.6987 -1.2638 -1.8279
  479MOL0     H64628   4.816   3.939   2.847 -2.1124  0.1908 -0.2482
  479MOL0     H64629   4.772   3.529   2.929 -0.8315  1.3514  0.6096
  479MOL0     H64630   4.834   3.299   2.920 -1.0338  0.8999 -0.6996
  479MOL0     H64631   4.993   3.038   3.043 -0.5371 -3.0851  0.9967
  479MOL0     H64632   5.016   3.155   3.180  2.2978 -2.1686  0.6272
  479MOL0     H64633   4.925   2.977   3.334  0.1534 -3.4835  0.3203
  479MOL0     H64634   4.883   2.873   3.203  2.3830 -0.9865 -2.4902
  479MOL0     H64635   5.131   2.865   3.142 -1.4428  1.6099 -1.3687
  479MOL0     H64636   5.104   2.817   3.306  1.9955 -1.7728 -0.8192
  479MOL0     H64637   5.167   3.085   3.369  0.5265 -1.8279  1.8505
  479MOL0     H64638   5.270   2.949   3.359 -2.6883 -0.8088  1.0683
  479MOL0     H64639   5.218   3.133   3.119 -0.0550  1.6401  1.0568
  479MOL0     H64640   5.296   2.985   3.120 -0.8711  0.6486 -0.6495
  479MOL0     H64641   5.370   3.206   3.317 -2.3744 -0.4125 -0.7478
  479MOL0     H64642   5.467   3.067   3.291 -0.4537 -1.9052 -1.3161
  479MOL0     H64643   5.534   3.291   3.159  1.3130 -1.1735  0.8437
  479MOL0     H64644   5.381   3.275   3.085 -1.1753 -0.9047  1.2750
  479MOL0     H64645   5.563   3.200   2.942  0.9033 -0.2058  0.6890
  479MOL0     H64646   5.450   3.068   2.958  0.4096 -0.3794 -1.0299
  479MOL0     H64647   4.746   3.254   3.338  0.0986  0.0008  0.3381
  479MOL0     H64648   4.671   3.499   3.340 -2.3391  4.7469 -4.7886
  479MOL0     H64649   4.699   3.849   3.324  1.0912  0.0526  1.1474
  479MOL0     H64650   4.620   4.077   3.392  2.0053 -1.8257  1.6335
  479MOL0     H64651   5.238   5.102   1.961  3.9404 -0.7324  0.1407
  479MOL0     H64652   5.347   5.333   1.931  1.0319 -0.2985  0.0542
  479MOL0     H64653   5.573   5.618   2.064  1.5233 -0.4550 -1.4454
  479MOL0     H64654   5.717   5.778   1.974 -0.8004 -1.5444 -0.5992
  479MOL0     H64655   5.828   5.968   1.924 -2.7621 -1.8781  1.1115
  479MOL0     H64656   5.766   5.954   1.758 -1.4165  0.5162 -1.1287
  479MOL0     H64657   5.945   6.133   1.813 -0.4269  0.0688 -0.0865
  479MOL0     H64658   5.814   6.218   1.908  0.7631 -1.8976  1.9732
  479MOL0     H64659   5.696   6.177   1.657  1.5547 -0.5849 -4.8194
  479MOL0     H64660   5.871   6.196   1.621  1.0142 -2.1908  1.3552
  479MOL0     H64661   5.693   6.414   1.755 -0.5097  1.7907 -1.8012
  479MOL0     H64662   5.776   6.416   1.594  1.4694  0.9038  0.1030
  479MOL0     H64663   6.093   6.552   1.813 -0.1707 -0.0605  0.9670
  479MOL0     H64664   5.390   6.063   1.926 -0.5148 -0.6012 -0.3823
  479MOL0     H64665   5.237   5.892   1.980  0.5033 -0.6952  0.6113
  480MOL0     O64666   2.357   5.135  10.361 -0.5339  0.4034 -0.1286
  480MOL0     C64667   2.290   5.172  10.263  0.3298  0.8450 -0.2732
  480MOL0     O64668   2.285   5.291  10.211  1.7217  0.2955  0.0988
  480MOL0     C64669   2.309   5.396  10.297  0.1850  0.3394  0.0498
  480MOL0     C64670   2.207   5.447  10.370 -0.5834 -0.2898 -0.1276
  480MOL0     C64671   2.214   5.576  10.434 -0.1736 -0.5502 -0.4826
  480MOL0     C64672   2.328   5.648  10.432  0.1256  0.0441 -0.0263
  480MOL0     O64673   2.339   5.769  10.490 -0.4301 -1.0094 -0.7554
  480MOL0     C64674   2.455   5.798  10.558 -0.4694 -0.8771  0.3710
  480MOL0     C64675   2.431   5.942  10.618 -0.5141 -0.6347  0.4153
  480MOL0     C64676   2.572   5.998  10.679  0.0474  0.3268  0.0666
  480MOL0     C64677   2.556   6.103  10.791  0.2719 -0.8026  1.3353
  480MOL0     C64678   2.681   6.120  10.877  0.0309 -0.7613 -0.7603
  480MOL0     C64679   2.649   6.222  10.985 -0.4063 -0.3293  0.0369
  480MOL0     C64680   2.760   6.238  11.081  0.1352  0.0462  0.2928
  480MOL0     C64681   2.719   6.300  11.212  0.0404 -0.7742  1.1065
  480MOL0     N64682   2.811   6.261  11.317 -0.5340 -0.1480 -0.6526
  480MOL0     C64683   2.833   6.138  11.372  0.1217  0.6915 -0.4606
  480MOL0     C64684   2.946   6.143  11.443  0.1428  0.2012  0.2316
  480MOL0     C64685   3.008   6.024  11.512  0.4517 -0.6076 -0.3181
  480MOL0     C64686   3.151   6.073  11.565 -0.4762  0.8277 -0.2695
  480MOL0     C64687   3.143   6.165  11.692  0.0855  0.0152 -0.1713
  480MOL0     C64688   3.279   6.192  11.746 -0.4153  0.3299 -0.3634
  480MOL0     O64689   3.371   6.208  11.637 -0.5765 -0.0854  0.4669
  480MOL0     C64690   3.486   6.278  11.667 -0.9244  0.2619  1.1079
  480MOL0     C64691   3.567   6.298  11.556  0.5714 -0.1850 -0.8613
  480MOL0     C64692   3.688   6.368  11.565  1.2863 -0.0126 -0.2972
  480MOL0     C64693   3.763   6.389  11.439 -0.1836 -0.1349 -0.1316
  480MOL0     C64694   3.739   6.407  11.697  0.3938 -0.4676 -0.3380
  480MOL0     C64695   3.865   6.479  11.725  0.1022 -0.2353 -0.3679
  480MOL0     O64696   3.928   6.537  11.619 -0.1494 -0.2455  0.3275
  480MOL0     C64697   4.046   6.608  11.641 -0.6116 -0.8808  0.7831
  480MOL0     C64698   4.169   6.549  11.676  0.5546  1.1091  0.9650
  480MOL0     C64699   4.288   6.627  11.680 -1.2784  0.0221  0.2532
  480MOL0     C64700   4.285   6.766  11.657  0.0945 -0.0210 -0.1712
  480MOL0     O64701   4.399   6.840  11.644 -0.3172 -0.7748 -0.0032
  480MOL0     C64702   4.529   6.802  11.698 -0.1420  0.5047 -0.7909
  480MOL0     C64703   4.624   6.909  11.664  0.1326 -0.6643 -0.4704
  480MOL0     C64704   4.749   6.925  11.745 -0.0626  0.5260  0.3334
  480MOL0     C64705   4.839   7.048  11.704  0.1667  0.5191 -0.3283
  480MOL0     C64706   4.951   7.073  11.794 -0.4457  1.1704 -0.0702
  480MOL0     C64707   5.026   7.199  11.754 -0.6620  0.6702  0.2334
  480MOL0     C64708   5.135   7.234  11.864  0.4051  0.1545 -0.8693
  480MOL0     C64709   5.248   7.315  11.801 -0.4140 -0.3135 -0.7681
  480MOL0    Cl64710   5.321   7.226  11.656  0.1644 -0.2232 -0.0900
  480MOL0     C64711   4.160   6.821  11.630 -0.4227  0.1781  0.6653
  480MOL0     C64712   4.043   6.749  11.620  0.1447 -0.7340  0.2349
  480MOL0     O64713   3.908   6.486  11.838 -0.4704 -0.0506  0.2218
  480MOL0     C64714   3.658   6.381  11.806  0.2918  1.1250 -0.3783
  480MOL0     C64715   3.537   6.316  11.800  1.8947 -0.2418 -0.0707
  480MOL0     N64716   2.978   6.281  11.453 -0.2922 -0.3417  0.0408
  480MOL0     N64717   2.897   6.350  11.374  0.2688  0.1577  0.3936
  480MOL0     C64718   2.434   5.592  10.356  0.4613 -0.5980 -0.3924
  480MOL0     C64719   2.420   5.476  10.285  0.0103 -0.5601  0.1037
  480MOL0     C64720   2.226   5.065  10.172 -0.2349 -0.4368 -0.5784
  480MOL0     C64721   2.140   5.100  10.069  0.7129  0.0520 -0.3837
  480MOL0     C64722   2.076   4.995   9.998  0.0166 -0.0900  0.6054
  480MOL0     C64723   2.090   4.859  10.023 -0.4861 -0.0288 -0.5357
  480MOL0     O64724   2.034   4.744   9.965  0.3027 -0.3304  0.0837
  480MOL0     C64725   1.961   4.760   9.850  0.0003 -1.1979  0.1088
  480MOL0     C64726   1.886   4.633   9.836  0.1903 -0.3507  0.9697
  480MOL0     C64727   1.770   4.640   9.729 -0.3042  0.2859 -0.4110
  480MOL0     C64728   1.827   4.628   9.590  0.2753 -0.1275  0.9760
  480MOL0     C64729   1.868   4.760   9.538  0.0968 -0.2179 -0.9177
  480MOL0     C64730   1.902   4.865   9.488 -0.5859 -0.7666  0.2643
  480MOL0     C64731   2.177   4.827  10.134  0.1582 -0.9699  0.3531
  480MOL0     C64732   2.248   4.933  10.203  0.8250  1.1340 -0.0200
  480MOL0     H64733   2.114   5.390  10.365 -0.0502 -1.1423 -0.6405
  480MOL0     H64734   2.128   5.615  10.489 -1.0273 -3.0475  0.0791
  480MOL0     H64735   2.481   5.732  10.641 -1.3236 -2.7630 -0.8030
  480MOL0     H64736   2.544   5.802  10.495 -0.7639  3.0952 -0.0554
  480MOL0     H64737   2.403   6.020  10.547  0.3278  0.5998  1.3904
  480MOL0     H64738   2.355   5.938  10.697 -0.4502 -0.8950  0.4651
  480MOL0     H64739   2.622   5.905  10.708  0.9587 -0.5427 -3.6434
  480MOL0     H64740   2.632   6.051  10.603 -1.5847 -0.2627 -1.7106
  480MOL0     H64741   2.514   6.196  10.752  2.0256  0.4909  2.3685
  480MOL0     H64742   2.488   6.056  10.862  1.3165 -1.0316  2.2242
  480MOL0     H64743   2.709   6.025  10.922 -1.4698 -0.8273  0.1112
  480MOL0     H64744   2.761   6.157  10.812  1.7287  2.6909  2.8884
  480MOL0     H64745   2.614   6.315  10.940  0.4047  0.5780  1.2301
  480MOL0     H64746   2.559   6.186  11.036 -1.3739  0.8305 -0.7912
  480MOL0     H64747   2.791   6.138  11.113 -3.0969 -0.9461  0.7059
  480MOL0     H64748   2.837   6.291  11.024  3.4055 -0.6028  3.7460
  480MOL0     H64749   2.625   6.256  11.244  0.0390 -1.0629  0.7058
  480MOL0     H64750   2.713   6.408  11.193  1.5595 -1.2545 -3.1911
  480MOL0     H64751   2.779   6.046  11.351 -0.0989  0.7099  0.0034
  480MOL0     H64752   2.958   5.995  11.605  0.5314  1.0355  0.2690
  480MOL0     H64753   3.014   5.931  11.455  0.5997 -0.3457 -0.7297
  480MOL0     H64754   3.194   6.139  11.489 -1.3332  1.5358 -0.1595
  480MOL0     H64755   3.217   5.988  11.584  1.5398  1.8032 -2.3695
  480MOL0     H64756   3.082   6.105  11.760 -1.6088 -0.3451 -1.9221
  480MOL0     H64757   3.088   6.259  11.675 -1.9005 -0.8508  1.0441
  480MOL0     H64758   3.309   6.105  11.804  1.0642  0.9474 -0.1554
  480MOL0     H64759   3.279   6.275  11.818 -2.4037  1.1012 -1.1580
  480MOL0     H64760   3.527   6.262  11.462  0.9402 -2.0476 -0.3516
  480MOL0     H64761   3.863   6.349  11.458 -0.5652 -1.0798 -0.0427
  480MOL0     H64762   3.719   6.327  11.360 -1.1997  0.8480 -0.3720
  480MOL0     H64763   3.767   6.495  11.412  0.7069 -0.0230  0.4021
  480MOL0     H64764   4.167   6.444  11.701  0.6817  1.4030  2.3396
  480MOL0     H64765   4.380   6.573  11.696  0.6807  3.3244  1.2338
  480MOL0     H64766   4.531   6.817  11.806  1.6301  0.0487 -0.7371
  480MOL0     H64767   4.558   6.705  11.656  0.0924  0.3239 -0.2148
  480MOL0     H64768   4.663   6.890  11.563  3.2597  0.4576  0.4009
  480MOL0     H64769   4.570   7.004  11.661  0.1602 -0.6582 -3.1737
  480MOL0     H64770   4.807   6.832  11.746 -1.9333 -0.6967  1.2585
  480MOL0     H64771   4.716   6.952  11.845 -1.9855 -0.2104 -0.0642
  480MOL0     H64772   4.889   7.034  11.608  1.5383  1.8454  0.1505
  480MOL0     H64773   4.783   7.140  11.681  1.3937  1.0444 -1.2969
  480MOL0     H64774   5.021   6.988  11.794  1.0100  2.2742  2.6520
  480MOL0     H64775   4.921   7.087  11.898  1.9310  0.1690  0.8230
  480MOL0     H64776   5.068   7.175  11.656 -1.7424 -0.4583  0.0264
  480MOL0     H64777   4.965   7.289  11.742 -0.0545  0.7616 -3.0841
  480MOL0     H64778   5.182   7.144  11.905 -0.4685 -0.4422 -1.1560
  480MOL0     H64779   5.079   7.288  11.942  0.1848  2.5051 -2.5463
  480MOL0     H64780   5.325   7.329  11.878 -1.1196  3.3177 -0.5555
  480MOL0     H64781   5.217   7.413  11.766 -1.1010 -1.0828 -2.4013
  480MOL0     H64782   4.164   6.928  11.615  0.4141  0.0291 -0.3050
  480MOL0     H64783   3.950   6.805  11.613  0.6258  0.3079  1.6935
  480MOL0     H64784   3.678   6.415  11.908 -0.1556  4.3328 -1.2448
  480MOL0     H64785   3.487   6.287  11.892 -1.0648  1.7115 -0.9142
  480MOL0     H64786   2.525   5.648  10.336 -0.5637  0.6999 -1.6920
  480MOL0     H64787   2.512   5.441  10.241  1.7187 -0.1707  3.0582
  480MOL0     H64788   2.122   5.206  10.049  1.4023  0.4856  1.1742
  480MOL0     H64789   2.011   5.030   9.918  0.9745  1.4391  0.4609
  480MOL0     H64790   1.896   4.848   9.857  1.8338  0.4208 -1.7671
  480MOL0     H64791   2.033   4.770   9.768  1.0592  2.0738  1.2877
  480MOL0     H64792   1.846   4.586   9.927  0.3950 -3.5132 -0.4218
  480MOL0     H64793   1.963   4.560   9.810  3.5950  2.6867  1.7598
  480MOL0     H64794   1.715   4.731   9.752  0.0486 -0.3709  3.8421
  480MOL0     H64795   1.716   4.546   9.748  1.4153 -0.5602  0.5225
  480MOL0     H64796   1.759   4.590   9.513  3.1743 -2.5603 -0.6309
  480MOL0     H64797   1.919   4.568   9.592 -1.0500 -2.3065  0.2096
  480MOL0     H64798   1.925   4.951   9.429 -0.1710 -0.1834  1.2595
  480MOL0     H64799   2.202   4.721  10.139  2.3346 -0.5147  0.2116
  480MOL0     H64800   2.321   4.912  10.281 -2.1504  1.5339  3.1454
  481MOL0     O64801  10.605   7.688   2.341  0.4337  0.7083  0.1450
  481MOL0     C64802  10.538   7.581   2.350 -0.1792  0.8146  0.9186
  481MOL0     O64803  10.451   7.545   2.446 -0.5970  0.0097  0.5443
  481MOL0     C64804  10.423   7.647   2.537  0.1801 -0.0465 -0.0702
  481MOL0     C64805  10.297   7.708   2.532  0.6442  0.3976 -0.2616
  481MOL0     C64806  10.253   7.795   2.633  0.6814  0.9652  0.1289
  481MOL0     C64807  10.345   7.854   2.717  0.2692 -0.0084  0.4059
  481MOL0     O64808  10.309   7.963   2.791 -0.2248  0.7783 -0.4027
  481MOL0     C64809  10.183   7.962   2.861 -0.1612  0.4062  0.1872
  481MOL0     C64810  10.129   8.101   2.881 -1.1269  0.1945  0.4364
  481MOL0     C64811  10.215   8.184   2.985  0.6501  0.1348  0.3472
  481MOL0     C64812  10.177   8.336   2.977  0.2117 -0.5511  0.1015
  481MOL0     C64813  10.275   8.415   3.066  0.3368 -0.2071  1.6357
  481MOL0     C64814  10.397   8.472   2.983 -0.2036  0.4378  0.9288
  481MOL0     C64815  10.502   8.550   3.065 -0.0031  0.7719 -0.9323
  481MOL0     C64816  10.556   8.465   3.187  0.3316  0.8440  0.9515
  481MOL0     N64817  10.659   8.535   3.256  0.3055 -0.5019  0.1043
  481MOL0     C64818  10.648   8.667   3.290  0.3162 -0.3892  0.0070
  481MOL0     C64819  10.776   8.701   3.315  1.0527 -0.7978 -0.1513
  481MOL0     C64820  10.823   8.849   3.344 -0.1721 -0.2730  1.2634
  481MOL0     C64821  10.796   8.938   3.221 -0.7905 -0.1904  0.0648
  481MOL0     C64822  10.847   9.080   3.253  0.1958  0.3182 -0.8860
  481MOL0     C64823  10.858   9.175   3.142  0.3573  0.1257  0.4831
  481MOL0     O64824  10.959   9.130   3.047  0.1263  0.5244 -0.1917
  481MOL0     C64825  10.982   9.213   2.940 -0.4196  0.0108  0.6519
  481MOL0     C64826  11.088   9.168   2.868  0.0055 -0.3087 -0.1615
  481MOL0     C64827  11.113   9.216   2.740  0.2748 -0.0007  0.2536
  481MOL0     C64828  11.211   9.147   2.652 -1.0221 -0.2378 -0.6953
  481MOL0     C64829  11.044   9.326   2.694  0.4383 -0.3390 -0.1942
  481MOL0     C64830  11.047   9.390   2.566 -0.2744  0.7445 -0.2903
  481MOL0     O64831  11.074   9.520   2.570  0.4416  0.1228  0.7001
  481MOL0     C64832  11.116   9.588   2.461  0.2430  0.0129 -0.4920
  481MOL0     C64833  11.233   9.659   2.479  0.2372  0.0354 -0.1159
  481MOL0     C64834  11.294   9.734   2.379  0.3404  0.3691 -0.0503
  481MOL0     C64835  11.226   9.741   2.258 -0.1207  0.2076  0.9721
  481MOL0     O64836  11.288   9.833   2.168  0.0865 -0.2743  0.0473
  481MOL0     C64837  11.188   9.907   2.095  0.1470  0.6612 -0.0943
  481MOL0     C64838  11.247  10.018   2.008 -0.0135 -0.0415 -0.5135
  481MOL0     C64839  11.345   9.955   1.913 -0.1398  0.3837  0.3149
  481MOL0     C64840  11.415  10.063   1.821  0.3861  0.7445 -0.2430
  481MOL0     C64841  11.530  10.002   1.732  0.7844 -0.6483  0.2439
  481MOL0     C64842  11.594  10.114   1.656 -0.5082  0.1743  1.4541
  481MOL0     C64843  11.747  10.090   1.651  0.3862 -0.1779  0.1974
  481MOL0     C64844  11.817  10.223   1.641  0.0380 -1.2425  0.5999
  481MOL0    Cl64845  12.001  10.211   1.615  0.0974  0.1586 -0.2831
  481MOL0     C64846  11.094   9.683   2.247  0.5748 -0.0768 -0.3639
  481MOL0     C64847  11.044   9.602   2.351 -0.6526 -0.7663  0.6019
  481MOL0     O64848  11.036   9.323   2.466 -0.0165 -0.4833  0.0821
  481MOL0     C64849  10.956   9.385   2.787  0.3115  0.1303  0.2674
  481MOL0     C64850  10.921   9.331   2.907  0.0853  0.2121  0.7419
  481MOL0     N64851  10.864   8.601   3.276  0.0770 -0.2439 -0.0665
  481MOL0     N64852  10.789   8.506   3.242 -0.1210  0.1650  0.9532
  481MOL0     C64853  10.473   7.804   2.718 -0.1948 -0.6324  0.4929
  481MOL0     C64854  10.516   7.701   2.629 -0.3375  0.8524  0.2160
  481MOL0     C64855  10.546   7.478   2.237  0.2338 -0.7134 -0.7874
  481MOL0     C64856  10.620   7.511   2.126  0.6581  0.4078  0.3728
  481MOL0     C64857  10.622   7.428   2.013  0.3551 -0.7102  0.0661
  481MOL0     C64858  10.560   7.307   2.020  0.1770  0.2761 -1.0638
  481MOL0     O64859  10.541   7.220   1.917 -0.2603 -0.5561 -0.5715
  481MOL0     C64860  10.661   7.162   1.850 -0.0116 -0.7164  0.3093
  481MOL0     C64861  10.653   7.014   1.869 -0.2311 -0.3513 -1.1274
  481MOL0     C64862  10.517   6.962   1.828  0.2655  0.8517  0.2070
  481MOL0     C64863  10.416   6.921   1.941  0.0732  0.5970  0.0002
  481MOL0     C64864  10.478   6.797   2.000 -0.0384  0.6297  0.6498
  481MOL0     C64865  10.514   6.682   2.037  0.4976 -0.1731  0.6371
  481MOL0     C64866  10.478   7.270   2.127 -0.3219  0.2106 -1.1425
  481MOL0     C64867  10.485   7.352   2.240  1.0164  0.3829  0.5183
  481MOL0     H64868  10.226   7.671   2.459  0.9110  0.1554 -0.4007
  481MOL0     H64869  10.149   7.827   2.632  0.4470  0.7908  3.7610
  481MOL0     H64870  10.105   7.905   2.810 -0.2350 -0.9446  1.7311
  481MOL0     H64871  10.193   7.912   2.958  1.7894  0.2602 -0.0372
  481MOL0     H64872  10.111   8.148   2.784 -3.6830 -4.1529 -1.4851
  481MOL0     H64873  10.027   8.097   2.920 -1.4978  0.7907 -0.4412
  481MOL0     H64874  10.197   8.146   3.086  1.1068  2.1844  1.2580
  481MOL0     H64875  10.323   8.185   2.967  0.4756  0.0850 -0.7896
  481MOL0     H64876  10.181   8.385   2.879  3.5100  0.4327  0.5886
  481MOL0     H64877  10.072   8.353   3.002  0.7645  1.1218  1.5321
  481MOL0     H64878  10.227   8.504   3.108 -1.0605  1.3567 -2.6981
  481MOL0     H64879  10.309   8.351   3.147  0.2681 -1.7252  0.5045
  481MOL0     H64880  10.457   8.397   2.931 -2.0014  0.1452 -0.7973
  481MOL0     H64881  10.348   8.544   2.917 -0.8777 -0.1557  0.7698
  481MOL0     H64882  10.586   8.585   3.004  0.4335  0.7149 -0.3784
  481MOL0     H64883  10.463   8.646   3.098  1.5152  1.4102 -0.9019
  481MOL0     H64884  10.599   8.373   3.146 -2.6248  0.9217 -2.9479
  481MOL0     H64885  10.476   8.434   3.254 -1.6260 -0.4457 -1.7862
  481MOL0     H64886  10.559   8.728   3.299 -0.3303 -0.3982 -4.2537
  481MOL0     H64887  10.764   8.888   3.427 -0.5060 -1.2673  1.5175
  481MOL0     H64888  10.929   8.845   3.372  0.0482 -1.1910  0.3887
  481MOL0     H64889  10.689   8.949   3.202 -0.3144  2.1234 -1.8073
  481MOL0     H64890  10.850   8.880   3.145  0.7411  0.7630  0.3781
  481MOL0     H64891  10.939   9.068   3.311 -0.7491 -0.2887  0.5387
  481MOL0     H64892  10.786   9.118   3.334  1.1611 -1.2977  0.6720
  481MOL0     H64893  10.879   9.274   3.185  1.6462 -1.5666  4.1523
  481MOL0     H64894  10.757   9.178   3.099  0.6671 -2.5731 -0.5805
  481MOL0     H64895  11.144   9.085   2.909  1.7139  0.8095 -0.1458
  481MOL0     H64896  11.260   9.061   2.698 -0.9322 -1.0862 -2.3093
  481MOL0     H64897  11.168   9.100   2.563 -2.3282  1.0363 -0.7748
  481MOL0     H64898  11.292   9.221   2.646  0.4524 -1.5404  1.7069
  481MOL0     H64899  11.287   9.670   2.573 -1.7916  3.0341  0.8465
  481MOL0     H64900  11.384   9.792   2.391  1.7662 -1.9441  1.1485
  481MOL0     H64901  11.123   9.840   2.039  0.1696  1.2917 -0.9105
  481MOL0     H64902  11.123   9.961   2.164  0.1680  0.7726 -0.1605
  481MOL0     H64903  11.168  10.072   1.955  0.9855 -1.2322 -3.4783
  481MOL0     H64904  11.302  10.085   2.074 -0.1706  0.5108 -0.9357
  481MOL0     H64905  11.289   9.880   1.856 -0.4845 -2.3162  3.8197
  481MOL0     H64906  11.424   9.896   1.961 -0.3220  0.2851  0.4972
  481MOL0     H64907  11.334  10.108   1.764  1.2914  1.4291 -1.0098
  481MOL0     H64908  11.467  10.126   1.894 -0.1166  1.1664 -0.2451
  481MOL0     H64909  11.491   9.926   1.664 -1.1551 -2.2348  2.9347
  481MOL0     H64910  11.597   9.953   1.804  0.5621 -0.5503  0.5203
  481MOL0     H64911  11.551  10.127   1.557  0.1887 -2.4635  0.7378
  481MOL0     H64912  11.582  10.211   1.705  3.2460  0.5842  1.8573
  481MOL0     H64913  11.760  10.024   1.565 -3.0137 -0.0937 -0.5037
  481MOL0     H64914  11.777  10.044   1.745  0.6330 -1.2894 -0.4105
  481MOL0     H64915  11.798  10.279   1.733  0.5366  1.5592 -0.8791
  481MOL0     H64916  11.774  10.286   1.562 -0.7602 -5.0039 -2.2643
  481MOL0     H64917  11.046   9.681   2.150  3.6412  0.1750 -2.0156
  481MOL0     H64918  10.951   9.547   2.340 -0.6030 -0.6131 -0.8332
  481MOL0     H64919  10.903   9.477   2.764 -1.0786 -0.3069  1.5300
  481MOL0     H64920  10.845   9.386   2.961 -0.5730 -1.0476  1.1531
  481MOL0     H64921  10.540   7.860   2.783 -1.0674  0.1523  0.7477
  481MOL0     H64922  10.617   7.663   2.632 -0.5243  0.3736  1.2339
  481MOL0     H64923  10.684   7.599   2.124 -2.5901  2.9499 -0.5631
  481MOL0     H64924  10.683   7.450   1.926  0.1451 -0.3168  0.0194
  481MOL0     H64925  10.664   7.192   1.745  0.1711 -3.3051 -0.4928
  481MOL0     H64926  10.749   7.202   1.900 -0.7790 -0.9209  1.8876
  481MOL0     H64927  10.667   7.003   1.977 -0.4631  2.0663 -0.8000
  481MOL0     H64928  10.744   6.963   1.835 -1.0389 -2.4333 -0.3761
  481MOL0     H64929  10.538   6.877   1.762 -1.5782  0.4604  0.0455
  481MOL0     H64930  10.453   7.024   1.765 -1.5423  0.2367  1.3498
  481MOL0     H64931  10.314   6.909   1.902  0.5319  1.7521 -1.6531
  481MOL0     H64932  10.408   7.003   2.013  1.3378 -0.3081  1.2253
  481MOL0     H64933  10.547   6.587   2.076  1.6044  0.5086  1.4267
  481MOL0     H64934  10.421   7.178   2.128 -1.2205  0.7001 -3.1432
  481MOL0     H64935  10.425   7.321   2.325  0.5029  1.0033  0.3852
  482MOL0     O64936   8.813  10.566   0.798 -0.2225 -0.4698  0.7045
  482MOL0     C64937   8.922  10.509   0.812  0.1144  0.3279  0.0408
  482MOL0     O64938   8.954  10.381   0.770  0.7474  1.0423 -0.3139
  482MOL0     C64939   8.874  10.308   0.679 -0.9956  0.3460 -0.1456
  482MOL0     C64940   8.916  10.172   0.673  0.5576  1.3762 -0.6342
  482MOL0     C64941   8.850  10.091   0.585 -0.5920  0.6735  0.5404
  482MOL0     C64942   8.751  10.134   0.501  1.1610 -0.3077  0.2354
  482MOL0     O64943   8.684  10.060   0.409 -0.0459  1.3149 -0.7324
  482MOL0     C64944   8.716   9.923   0.395 -0.2697  0.0616  0.2903
  482MOL0     C64945   8.624   9.851   0.301 -0.2452 -1.1272  0.7163
  482MOL0     C64946   8.635   9.717   0.264 -0.3262  1.2104  0.3409
  482MOL0     C64947   8.622   9.616   0.388  0.0463 -0.0219  0.5527
  482MOL0     C64948   8.615   9.472   0.334 -0.0596 -0.4305  0.0397
  482MOL0     C64949   8.625   9.375   0.452  0.7620 -0.1947 -0.1532
  482MOL0     C64950   8.590   9.235   0.408  0.2105 -0.6479 -0.1731
  482MOL0     C64951   8.613   9.138   0.522 -0.1631  0.4429  0.3632
  482MOL0     N64952   8.523   9.026   0.528  0.7354  0.5667  0.7138
  482MOL0     C64953   8.545   8.912   0.461 -0.1203  0.4450 -0.6084
  482MOL0     C64954   8.439   8.834   0.490  0.0256 -0.2508  0.6505
  482MOL0     C64955   8.432   8.693   0.441 -0.1210  0.5058 -0.5022
  482MOL0     C64956   8.550   8.608   0.479  0.2512  1.3380  1.4278
  482MOL0     C64957   8.559   8.593   0.627  1.3859 -0.3237 -0.1818
  482MOL0     C64958   8.707   8.561   0.653 -0.2845 -0.1744  1.1177
  482MOL0     O64959   8.797   8.671   0.609 -0.3113 -0.4024  0.3635
  482MOL0     C64960   8.829   8.770   0.695 -0.2216 -0.0563 -0.2194
  482MOL0     C64961   8.846   8.757   0.830 -0.1930 -0.0020 -0.7133
  482MOL0     C64962   8.895   8.859   0.923  0.2110 -0.1465  0.1909
  482MOL0     C64963   8.903   8.825   1.066 -0.2546 -0.1184 -0.7782
  482MOL0     C64964   8.944   8.982   0.863  0.2351  0.1746 -0.3670
  482MOL0     C64965   9.015   9.087   0.939  0.5603 -0.0815 -0.2365
  482MOL0     O64966   9.056   9.182   0.863 -0.0366  0.4579 -0.3506
  482MOL0     C64967   9.141   9.273   0.925  0.0541 -0.4702 -0.3808
  482MOL0     C64968   9.284   9.253   0.945 -0.1445 -0.2265 -0.0624
  482MOL0     C64969   9.362   9.351   1.013 -0.1372  0.3305 -0.1920
  482MOL0     C64970   9.309   9.483   1.036  1.2354  1.3065 -0.3917
  482MOL0     O64971   9.383   9.580   1.098  0.2453  0.2848 -0.1134
  482MOL0     C64972   9.342   9.711   1.098 -0.4879 -0.0908 -1.3471
  482MOL0     C64973   9.464   9.801   1.114  1.1314  0.4564  1.4095
  482MOL0     C64974   9.489   9.845   1.260 -1.0285 -0.6671  0.3152
  482MOL0     C64975   9.376   9.917   1.325 -0.3757 -0.8243 -0.2373
  482MOL0     C64976   9.416   9.986   1.461  0.1399  1.0638 -0.5388
  482MOL0     C64977   9.462   9.880   1.561 -0.5347  0.8206 -0.0739
  482MOL0     C64978   9.513   9.958   1.684  0.4165  0.1506  0.0885
  482MOL0     C64979   9.667   9.974   1.690  0.2637  0.4053  0.5857
  482MOL0    Cl64980   9.760   9.809   1.715 -0.0266  0.0192 -0.3170
  482MOL0     C64981   9.174   9.505   0.993 -0.5251  0.5006  0.5960
  482MOL0     C64982   9.089   9.402   0.956 -0.0360  0.0001  0.1953
  482MOL0     O64983   9.030   9.077   1.060 -0.2747  0.4057 -0.9477
  482MOL0     C64984   8.944   8.989   0.720  0.0081  0.8748  0.2071
  482MOL0     C64985   8.871   8.890   0.645 -0.2765 -0.1801  0.5417
  482MOL0     N64986   8.358   8.907   0.575 -0.4253  1.4555  0.0045
  482MOL0     N64987   8.404   9.021   0.594  0.1763 -0.8345  1.1040
  482MOL0     C64988   8.723  10.267   0.497 -0.5872  0.0874 -0.1654
  482MOL0     C64989   8.789  10.357   0.583 -0.5021  1.7538 -1.3251
  482MOL0     C64990   9.010  10.573   0.903 -0.0334  0.9668 -0.3016
  482MOL0     C64991   9.122  10.505   0.965 -0.0593  1.2997 -0.4101
  482MOL0     C64992   9.191  10.568   1.067 -0.0361  0.4328  0.2047
  482MOL0     C64993   9.178  10.700   1.098 -0.3839  0.3666 -0.1651
  482MOL0     O64994   9.250  10.761   1.200 -0.1536 -0.4286  0.6408
  482MOL0     C64995   9.373  10.705   1.247  0.0530  0.5320 -0.7486
  482MOL0     C64996   9.461  10.828   1.280  0.6571 -0.1935 -0.7490
  482MOL0     C64997   9.496  10.891   1.143 -0.8926 -0.3553  1.0207
  482MOL0     C64998   9.491  11.044   1.144  0.8684  0.4140 -0.4456
  482MOL0     C64999   9.348  11.091   1.133  0.2028 -0.8066 -0.2770
  482MOL0     C65000   9.237  11.113   1.107 -0.3262 -0.1891  0.6052
  482MOL0     C65001   9.079  10.775   1.029 -0.5025  0.8562  0.0358
  482MOL0     C65002   8.999  10.705   0.934  0.2106  0.6413 -0.2161
  482MOL0     H65003   8.994  10.137   0.739 -0.4890  0.3255  0.1031
  482MOL0     H65004   8.875   9.985   0.580 -1.3481  0.5471 -1.3979
  482MOL0     H65005   8.816   9.911   0.351 -0.5006  0.2460 -0.3041
  482MOL0     H65006   8.708   9.871   0.490 -1.7881 -3.0277 -1.3701
  482MOL0     H65007   8.522   9.870   0.335 -0.0369 -0.0391  0.7888
  482MOL0     H65008   8.634   9.912   0.210  1.4257  0.5675  1.9588
  482MOL0     H65009   8.561   9.694   0.187  2.8560  0.5253 -2.8058
  482MOL0     H65010   8.735   9.691   0.227 -0.1544 -0.4086  1.8140
  482MOL0     H65011   8.712   9.623   0.451 -0.0156 -2.7172  1.0685
  482MOL0     H65012   8.535   9.636   0.451  0.6501  0.6876  1.1883
  482MOL0     H65013   8.525   9.458   0.272  0.6956  2.5660 -1.9544
  482MOL0     H65014   8.696   9.461   0.262  1.2832  0.8489  1.2760
  482MOL0     H65015   8.724   9.381   0.497  0.0848  2.0221  1.2100
  482MOL0     H65016   8.562   9.399   0.538  1.9868 -0.6620  0.8987
  482MOL0     H65017   8.486   9.243   0.376  1.3818  1.4791 -4.0915
  482MOL0     H65018   8.650   9.193   0.327 -2.0093 -0.1160 -2.2197
  482MOL0     H65019   8.592   9.184   0.619 -3.2176 -2.0567  1.0234
  482MOL0     H65020   8.716   9.104   0.535 -0.2872 -0.8748 -1.7265
  482MOL0     H65021   8.624   8.892   0.390  0.1933  2.4522 -0.8838
  482MOL0     H65022   8.344   8.640   0.477  1.0607 -0.6655  0.7784
  482MOL0     H65023   8.418   8.691   0.333  0.1057  0.1342 -0.5272
  482MOL0     H65024   8.638   8.654   0.434 -1.0480  3.2890  0.7333
  482MOL0     H65025   8.544   8.509   0.433 -2.7888  1.5848  1.0958
  482MOL0     H65026   8.506   8.502   0.654  0.1111  0.4003 -0.1619
  482MOL0     H65027   8.524   8.679   0.685 -0.0431  0.8435 -2.5916
  482MOL0     H65028   8.731   8.471   0.596 -1.2739 -1.0552  2.0488
  482MOL0     H65029   8.724   8.536   0.759 -0.3023 -0.1254  1.1319
  482MOL0     H65030   8.822   8.660   0.874  2.7037 -1.0277 -1.1696
  482MOL0     H65031   8.884   8.718   1.073  2.2081 -0.7623 -2.5503
  482MOL0     H65032   9.000   8.843   1.113 -2.4251  0.2344  4.2709
  482MOL0     H65033   8.821   8.878   1.115 -1.4228 -3.2207  0.9141
  482MOL0     H65034   9.327   9.155   0.930 -0.6593 -0.5202  0.3415
  482MOL0     H65035   9.467   9.334   1.035  0.1989  2.9231  0.4532
  482MOL0     H65036   9.289   9.732   1.005 -0.1284  2.2721 -1.0908
  482MOL0     H65037   9.275   9.732   1.182  0.8316  5.2002 -1.2864
  482MOL0     H65038   9.543   9.744   1.065 -1.2684 -2.1054  0.2400
  482MOL0     H65039   9.442   9.878   1.040 -0.4519 -2.6885 -1.6981
  482MOL0     H65040   9.576   9.910   1.246 -0.7846 -0.8376  1.0424
  482MOL0     H65041   9.511   9.756   1.319 -0.0554 -1.3070 -0.9645
  482MOL0     H65042   9.337   9.988   1.252 -2.2284 -2.2858 -0.7544
  482MOL0     H65043   9.292   9.848   1.339 -0.0437 -1.9683 -3.1600
  482MOL0     H65044   9.329  10.039   1.501  1.3450  1.3491  1.9228
  482MOL0     H65045   9.495  10.058   1.438  0.2765  0.7518 -1.0659
  482MOL0     H65046   9.374   9.822   1.588  0.4030 -0.3852  0.4629
  482MOL0     H65047   9.542   9.817   1.521 -1.5897 -0.7938  0.2790
  482MOL0     H65048   9.479   9.902   1.772  2.1593 -1.2669 -0.0830
  482MOL0     H65049   9.457  10.052   1.681 -1.7690 -1.0209  1.2318
  482MOL0     H65050   9.698  10.042   1.769 -0.5221 -0.3352  1.5556
  482MOL0     H65051   9.697  10.013   1.592 -1.4105  2.3173  0.7665
  482MOL0     H65052   9.124   9.602   0.987 -0.6430  0.4336  0.5059
  482MOL0     H65053   8.982   9.416   0.944  0.3127  0.9367 -2.9375
  482MOL0     H65054   9.003   9.058   0.661  0.5683 -0.9648 -1.4963
  482MOL0     H65055   8.863   8.899   0.537  0.0460  0.5898  0.5793
  482MOL0     H65056   8.641  10.308   0.439 -3.0963 -0.6815  2.6202
  482MOL0     H65057   8.760  10.461   0.578 -1.2856  1.6368  0.1109
  482MOL0     H65058   9.139  10.401   0.938 -0.2821  0.6729  1.6311
  482MOL0     H65059   9.251  10.497   1.122  2.0941 -0.1244 -2.6150
  482MOL0     H65060   9.369  10.652   1.342  0.5716 -1.7491 -1.9124
  482MOL0     H65061   9.431  10.657   1.166  0.2947  1.5130 -1.1689
  482MOL0     H65062   9.553  10.800   1.332  0.1009  0.4139  0.6140
  482MOL0     H65063   9.408  10.896   1.347  1.0182 -1.2418  0.6306
  482MOL0     H65064   9.442  10.857   1.054  1.8845 -1.7147 -0.2560
  482MOL0     H65065   9.597  10.858   1.120 -0.9356 -1.2420  2.0224
  482MOL0     H65066   9.547  11.083   1.058  0.7311  0.7339 -0.3883
  482MOL0     H65067   9.534  11.093   1.231 -1.2051  4.0675 -1.2535
  482MOL0     H65068   9.141  11.138   1.065 -0.0244  3.3105  1.6298
  482MOL0     H65069   9.058  10.881   1.039 -1.8635  1.0930 -3.6015
  482MOL0     H65070   8.931  10.766   0.876 -1.0657 -2.3323 -2.1256
  483MOL0     O65071  10.890   4.716   0.548 -0.1127  0.4467  0.2665
  483MOL0     C65072  10.809   4.641   0.485  0.1984  0.0904  0.6868
  483MOL0     O65073  10.785   4.650   0.350  1.1720  0.5139  0.0630
  483MOL0     C65074  10.833   4.742   0.264  0.2311 -0.5633 -0.2932
  483MOL0     C65075  10.885   4.871   0.298 -0.0671 -0.1014 -0.2131
  483MOL0     C65076  10.944   4.952   0.214 -0.7091 -0.5814 -0.3125
  483MOL0     C65077  10.956   4.920   0.083  0.4681  0.0733 -0.1500
  483MOL0     O65078  11.002   5.015   0.003  0.1016  0.4208  0.5684
  483MOL0     C65079  11.080   4.965  -0.104  0.1229  0.3043 -0.3985
  483MOL0     C65080  11.151   5.090  -0.167  0.1109 -0.2301  0.3926
  483MOL0     C65081  11.273   5.050  -0.248  1.0312  0.1466  0.5050
  483MOL0     C65082  11.351   5.177  -0.278  0.2566  0.2867 -0.4008
  483MOL0     C65083  11.472   5.167  -0.381 -0.3298  0.4286  0.4079
  483MOL0     C65084  11.563   5.043  -0.334  0.7564 -0.7837  0.0046
  483MOL0     C65085  11.702   5.037  -0.388 -0.0660 -0.6033 -0.8182
  483MOL0     C65086  11.706   5.030  -0.536  0.3496  0.2445 -0.2267
  483MOL0     N65087  11.693   4.884  -0.579  0.0458 -0.4673  0.4100
  483MOL0     C65088  11.591   4.833  -0.660 -0.0455 -0.5767 -0.1074
  483MOL0     C65089  11.648   4.726  -0.707  0.2899 -0.0285  0.5238
  483MOL0     C65090  11.577   4.624  -0.798  0.4309 -0.2674 -0.2722
  483MOL0     C65091  11.498   4.525  -0.709  0.0981 -0.1800 -0.6802
  483MOL0     C65092  11.575   4.413  -0.642 -0.2018 -0.0335 -0.5263
  483MOL0     C65093  11.479   4.339  -0.550 -0.3642  0.6912 -0.8653
  483MOL0     O65094  11.477   4.401  -0.421  0.1313  0.5877 -0.7050
  483MOL0     C65095  11.401   4.337  -0.323 -0.7954 -0.3121 -0.0654
  483MOL0     C65096  11.459   4.323  -0.190 -1.1963 -0.0196 -0.0853
  483MOL0     C65097  11.394   4.249  -0.092  0.7314 -0.0946 -0.3278
  483MOL0     C65098  11.433   4.252   0.050 -0.0733  0.5535 -0.7378
  483MOL0     C65099  11.272   4.188  -0.128 -0.9267 -0.1221  0.3465
  483MOL0     C65100  11.206   4.101  -0.029 -1.0228 -0.2638 -1.4916
  483MOL0     O65101  11.267   3.997   0.031 -0.7530  0.2789  0.6357
  483MOL0     C65102  11.201   3.925   0.131 -0.1482  0.5347  2.1240
  483MOL0     C65103  11.112   3.988   0.223 -0.4890  0.5398  0.1452
  483MOL0     C65104  11.040   3.904   0.306 -0.1774 -0.3475  1.4129
  483MOL0     C65105  11.068   3.764   0.326  0.9579 -0.7746 -0.2278
  483MOL0     O65106  11.008   3.686   0.412  0.0233 -0.1918 -0.2108
  483MOL0     C65107  10.974   3.747   0.538 -0.3161  0.4379  0.1355
  483MOL0     C65108  10.955   3.640   0.642  0.4762  0.2797 -0.1437
  483MOL0     C65109  11.071   3.561   0.703 -0.5163  0.5189 -0.1871
  483MOL0     C65110  11.165   3.638   0.809 -0.1237  0.3290  0.7583
  483MOL0     C65111  11.274   3.539   0.861 -0.0485 -0.5788  0.0107
  483MOL0     C65112  11.393   3.623   0.908  0.1487 -0.7391 -0.2789
  483MOL0     C65113  11.410   3.634   1.059 -0.2563  0.4950  0.1120
  483MOL0     C65114  11.459   3.517   1.131 -0.9462  0.3366 -0.3232
  483MOL0    Cl65115  11.443   3.541   1.307 -0.1183 -0.3853  0.4413
  483MOL0     C65116  11.161   3.709   0.237 -0.4393 -1.0842  0.4589
  483MOL0     C65117  11.220   3.786   0.135  0.3165  0.4985 -0.3081
  483MOL0     O65118  11.091   4.129  -0.016 -0.8508 -0.5279  0.0629
  483MOL0     C65119  11.214   4.207  -0.254 -0.8403 -0.0993 -0.5539
  483MOL0     C65120  11.279   4.285  -0.347  0.1181 -0.5235  0.3741
  483MOL0     N65121  11.771   4.711  -0.655 -0.0961 -0.1257 -0.3286
  483MOL0     N65122  11.801   4.807  -0.578  0.3796 -0.1491 -0.4973
  483MOL0     C65123  10.909   4.795   0.038  0.0906  0.7081 -0.0786
  483MOL0     C65124  10.844   4.706   0.120 -0.7561 -0.4680 -0.0930
  483MOL0     C65125  10.733   4.543   0.571  0.2455 -0.8869  0.0750
  483MOL0     C65126  10.762   4.540   0.706 -0.6136  0.4666 -0.0056
  483MOL0     C65127  10.698   4.446   0.791  0.4454 -0.2491 -0.3541
  483MOL0     C65128  10.585   4.367   0.754  0.3854  0.0693  0.4135
  483MOL0     O65129  10.521   4.296   0.845  0.6063 -0.0839  0.4134
  483MOL0     C65130  10.380   4.289   0.828 -0.5831  0.3515  0.3990
  483MOL0     C65131  10.301   4.281   0.972 -0.2039 -0.3740  1.0313
  483MOL0     C65132  10.152   4.281   0.946 -0.0741 -0.8017  0.2356
  483MOL0     C65133  10.086   4.252   1.077  0.2760  0.7058  0.5230
  483MOL0     C65134   9.941   4.226   1.051 -0.1138 -0.0634  0.2720
  483MOL0     C65135   9.820   4.219   1.049  0.3151 -0.5221  0.7049
  483MOL0     C65136  10.549   4.388   0.620  0.0184  0.9886 -0.1684
  483MOL0     C65137  10.618   4.472   0.532 -0.3640  1.0416  0.5204
  483MOL0     H65138  10.893   4.894   0.404  2.3306 -1.5239 -0.0286
  483MOL0     H65139  10.973   5.049   0.253  0.6818 -2.0902  2.8210
  483MOL0     H65140  11.159   4.894  -0.077  2.3551  1.7721 -2.5390
  483MOL0     H65141  11.015   4.912  -0.174 -2.6429 -0.3583  2.4627
  483MOL0     H65142  11.076   5.146  -0.224 -0.5407 -0.3517  1.1178
  483MOL0     H65143  11.191   5.150  -0.084  4.0118 -0.8490 -0.8418
  483MOL0     H65144  11.327   4.979  -0.184  1.3315  0.1046  0.2056
  483MOL0     H65145  11.226   5.004  -0.336 -2.5108  1.0071  1.8151
  483MOL0     H65146  11.283   5.250  -0.325  1.6008  0.9801 -1.3495
  483MOL0     H65147  11.387   5.210  -0.181 -0.6938  0.0014  0.0624
  483MOL0     H65148  11.450   5.149  -0.487 -2.1555 -1.0908  0.9893
  483MOL0     H65149  11.525   5.262  -0.385  4.3722 -1.5940  4.2006
  483MOL0     H65150  11.568   5.040  -0.224 -2.2254 -0.3262  0.2225
  483MOL0     H65151  11.518   4.949  -0.366  1.7935 -1.4841  0.5126
  483MOL0     H65152  11.753   5.129  -0.357  2.3456 -0.9516 -3.3568
  483MOL0     H65153  11.755   4.947  -0.352  3.1110  1.8027  1.1650
  483MOL0     H65154  11.804   5.060  -0.575  0.9995 -1.1336  0.3113
  483MOL0     H65155  11.632   5.093  -0.588  0.7687 -1.4542 -3.1297
  483MOL0     H65156  11.496   4.882  -0.679  0.1518 -0.8833 -1.9805
  483MOL0     H65157  11.514   4.675  -0.871 -0.0130 -2.4928 -1.5345
  483MOL0     H65158  11.653   4.559  -0.844 -1.2616 -3.9492  1.7292
  483MOL0     H65159  11.421   4.482  -0.773 -0.1407  2.6576 -2.4644
  483MOL0     H65160  11.447   4.589  -0.637  4.4856  1.9238  0.9184
  483MOL0     H65161  11.657   4.444  -0.577 -1.7882 -0.6242  1.9040
  483MOL0     H65162  11.617   4.352  -0.722 -2.2350  0.5941 -2.1594
  483MOL0     H65163  11.535   4.247  -0.533 -0.2101  1.0824  0.9594
  483MOL0     H65164  11.390   4.323  -0.611 -3.2143  2.7781  2.3644
  483MOL0     H65165  11.556   4.352  -0.152 -0.5499 -4.7021  2.6892
  483MOL0     H65166  11.472   4.155   0.082 -0.9854 -0.0662 -1.4428
  483MOL0     H65167  11.504   4.333   0.073  1.6243 -1.2599  0.7406
  483MOL0     H65168  11.347   4.271   0.114  0.2791  1.5700 -0.5319
  483MOL0     H65169  11.087   4.093   0.228 -0.4645  0.5230  0.7182
  483MOL0     H65170  10.964   3.950   0.369 -3.0227 -1.4093 -1.0251
  483MOL0     H65171  11.065   3.803   0.559  2.0641 -2.6747 -1.0363
  483MOL0     H65172  10.884   3.807   0.524  0.5255  2.0180  1.2429
  483MOL0     H65173  10.904   3.700   0.718  0.9274  0.5378 -0.0402
  483MOL0     H65174  10.872   3.573   0.620  0.9074 -0.5183  0.6182
  483MOL0     H65175  11.142   3.540   0.622 -2.1040  2.6589 -2.2827
  483MOL0     H65176  11.019   3.477   0.749 -1.4642  1.3781  0.3585
  483MOL0     H65177  11.214   3.714   0.749 -3.1285  2.6007  0.9563
  483MOL0     H65178  11.116   3.693   0.890  0.3408  1.5615  0.2185
  483MOL0     H65179  11.320   3.480   0.780  3.7660  0.6761  1.0690
  483MOL0     H65180  11.237   3.491   0.952  0.1284  1.3292  1.1373
  483MOL0     H65181  11.490   3.588   0.870  1.1055  1.5431 -0.0731
  483MOL0     H65182  11.385   3.722   0.863  0.2984 -1.6419 -2.4287
  483MOL0     H65183  11.314   3.670   1.097 -0.8134 -1.0070  0.1967
  483MOL0     H65184  11.487   3.709   1.079  1.1306 -1.0918  0.8838
  483MOL0     H65185  11.562   3.486   1.108 -1.1531  0.1759 -1.0555
  483MOL0     H65186  11.396   3.433   1.100 -1.1068 -0.7796  2.7376
  483MOL0     H65187  11.181   3.602   0.236  0.7156 -0.9300  2.6061
  483MOL0     H65188  11.261   3.720   0.059 -2.6851 -2.9726  0.8362
  483MOL0     H65189  11.117   4.162  -0.271 -0.4844 -0.2443 -2.3172
  483MOL0     H65190  11.240   4.299  -0.448  1.9867  0.3442 -0.2646
  483MOL0     H65191  10.916   4.772  -0.068  0.9597 -0.7193  0.2608
  483MOL0     H65192  10.813   4.609   0.083 -0.2265  0.2942 -2.7116
  483MOL0     H65193  10.849   4.594   0.742 -0.4467 -0.9782  1.9485
  483MOL0     H65194  10.727   4.443   0.895  1.9935 -0.5580 -0.7750
  483MOL0     H65195  10.333   4.372   0.774 -0.9440 -0.3373 -0.3726
  483MOL0     H65196  10.355   4.195   0.778  1.6709  0.0213 -0.1926
  483MOL0     H65197  10.326   4.375   1.022  0.3759 -0.1915  0.4103
  483MOL0     H65198  10.332   4.194   1.031 -2.2425 -2.8467 -1.2601
  483MOL0     H65199  10.121   4.204   0.874 -0.7411 -1.5963  1.3245
  483MOL0     H65200  10.114   4.377   0.911 -0.1540 -1.8503 -2.8977
  483MOL0     H65201  10.098   4.339   1.143  2.7289  0.6584  0.2511
  483MOL0     H65202  10.131   4.161   1.118 -0.6513 -1.3623 -2.6462
  483MOL0     H65203   9.713   4.216   1.057  0.0850 -3.3279 -1.7285
  483MOL0     H65204  10.464   4.332   0.583  0.2364 -0.9307  1.9760
  483MOL0     H65205  10.579   4.474   0.431  0.9993 -2.2406 -0.2099
  484MOL0     O65206   9.339   6.280   0.022  0.0507  0.1370  0.0313
  484MOL0     C65207   9.397   6.376  -0.020 -0.5028  0.1308 -0.1554
  484MOL0     O65208   9.345   6.501  -0.040  0.0136 -0.2437 -0.4069
  484MOL0     C65209   9.220   6.532   0.003  1.1091  0.0588 -0.7609
  484MOL0     C65210   9.153   6.494   0.128  0.3463 -0.0735  0.4564
  484MOL0     C65211   9.031   6.555   0.158 -0.2845 -0.0658  0.2013
  484MOL0     C65212   8.974   6.648   0.074  0.0637 -0.0200 -0.8375
  484MOL0     O65213   8.870   6.724   0.114  0.8460 -0.1144  0.0020
  484MOL0     C65214   8.847   6.725   0.262 -1.1322 -0.0124  0.1228
  484MOL0     C65215   8.749   6.821   0.325 -0.1360 -0.0862 -0.6313
  484MOL0     C65216   8.765   6.866   0.469  0.1506 -0.4722 -1.2464
  484MOL0     C65217   8.772   6.760   0.583  0.8300 -0.0237 -0.2288
  484MOL0     C65218   8.780   6.836   0.712  0.3104  0.6072 -0.6691
  484MOL0     C65219   8.819   6.746   0.837  0.7928 -0.4111 -0.1199
  484MOL0     C65220   8.859   6.825   0.965  0.8323 -0.1838  1.0569
  484MOL0     C65221   8.962   6.742   1.051  0.5789 -0.2583 -0.0160
  484MOL0     N65222   9.104   6.759   1.019 -0.4309  0.0879  1.1336
  484MOL0     C65223   9.176   6.744   0.901 -0.9256 -0.2166 -0.1617
  484MOL0     C65224   9.307   6.768   0.930 -0.3421  0.3484 -0.3607
  484MOL0     C65225   9.420   6.791   0.825 -1.8999 -0.5051 -0.8148
  484MOL0     C65226   9.491   6.923   0.835  0.1207  0.4422  0.1121
  484MOL0     C65227   9.617   6.907   0.743  0.8383  0.4153 -0.2242
  484MOL0     C65228   9.689   7.047   0.732 -0.0882  0.1195 -1.2994
  484MOL0     O65229   9.725   7.087   0.869  0.3440  0.0812  0.3410
  484MOL0     C65230   9.761   7.222   0.881  0.7678  0.3717  0.7419
  484MOL0     C65231   9.668   7.325   0.897  0.8985 -0.1788 -0.1554
  484MOL0     C65232   9.707   7.461   0.895  0.5084 -0.7078 -1.2983
  484MOL0     C65233   9.589   7.558   0.904 -0.1639  0.5656 -0.7770
  484MOL0     C65234   9.836   7.494   0.887 -0.9899  0.1975  0.0679
  484MOL0     C65235   9.877   7.632   0.860 -0.1299 -0.2112  0.2053
  484MOL0     O65236   9.790   7.722   0.806 -0.4173 -0.2612  0.4807
  484MOL0     C65237   9.838   7.835   0.766 -0.3450 -0.3320  0.0245
  484MOL0     C65238   9.877   7.850   0.634 -0.5802 -0.9700  0.3971
  484MOL0     C65239   9.936   7.975   0.597 -0.3185 -0.5608 -0.4807
  484MOL0     C65240   9.955   8.081   0.687 -1.0793  0.2025  0.1872
  484MOL0     O65241  10.019   8.190   0.624 -0.2848 -0.1745 -0.4203
  484MOL0     C65242   9.997   8.320   0.691  0.8162 -0.9462 -0.2035
  484MOL0     C65243   9.969   8.431   0.592  0.2599  0.0633  0.1367
  484MOL0     C65244   9.915   8.548   0.662 -0.9944 -0.3035  0.2591
  484MOL0     C65245  10.023   8.630   0.740  0.0430  0.0803 -0.1395
  484MOL0     C65246  10.093   8.735   0.662  0.1453 -0.0377 -0.2437
  484MOL0     C65247  10.198   8.813   0.742  0.1720 -0.4784  0.0515
  484MOL0     C65248  10.241   8.933   0.668 -0.1218 -0.4928  0.2979
  484MOL0     C65249  10.360   9.003   0.729  0.3965  0.2443  0.2019
  484MOL0    Cl65250  10.501   8.918   0.636  0.2013 -0.0605  0.3017
  484MOL0     C65251   9.914   8.057   0.821 -0.0883 -0.5848  1.0310
  484MOL0     C65252   9.856   7.932   0.857 -0.3497  0.0175 -0.1162
  484MOL0     O65253   9.991   7.655   0.881  0.1093  0.2292 -0.6627
  484MOL0     C65254   9.931   7.386   0.894 -0.0099  1.4712  0.8466
  484MOL0     C65255   9.894   7.251   0.880  0.1888 -0.1627  0.2780
  484MOL0     N65256   9.320   6.790   1.066 -0.1643 -0.2050  0.0832
  484MOL0     N65257   9.198   6.777   1.114 -0.3576 -0.7138 -0.6021
  484MOL0     C65258   9.043   6.687  -0.042 -0.1095 -0.3347 -0.5724
  484MOL0     C65259   9.163   6.632  -0.084  0.9788  0.4920  0.2714
  484MOL0     C65260   9.541   6.368  -0.052 -0.1359 -0.0534  0.0802
  484MOL0     C65261   9.618   6.256  -0.033  0.1355  0.4933 -0.2553
  484MOL0     C65262   9.754   6.244  -0.064  0.5176 -0.5377  0.1377
  484MOL0     C65263   9.819   6.354  -0.118 -0.9421  0.6722  1.1548
  484MOL0     O65264   9.956   6.361  -0.143 -0.6651  0.1719  0.9497
  484MOL0     C65265  10.021   6.236  -0.180 -0.3148 -0.2604 -0.2429
  484MOL0     C65266  10.134   6.267  -0.276 -0.0541 -0.4323  0.5220
  484MOL0     C65267  10.082   6.277  -0.421  1.0617  0.7799  0.0187
  484MOL0     C65268  10.195   6.292  -0.509  0.1519 -0.4290  0.1773
  484MOL0     C65269  10.131   6.286  -0.639  0.2819  0.2001  0.5831
  484MOL0     C65270  10.087   6.286  -0.756  1.2780 -0.1016 -0.0796
  484MOL0     C65271   9.746   6.472  -0.126  0.0509  0.1003 -0.3559
  484MOL0     C65272   9.609   6.478  -0.104  0.8845 -0.2055 -0.1979
  484MOL0     H65273   9.210   6.437   0.201  1.1608  1.6661  1.2236
  484MOL0     H65274   8.982   6.537   0.253 -2.6963  1.1830 -0.7233
  484MOL0     H65275   8.804   6.626   0.280 -0.9469  0.0029  0.6790
  484MOL0     H65276   8.939   6.724   0.322 -1.2915 -0.8235  0.3722
  484MOL0     H65277   8.763   6.912   0.266 -2.2582  0.3946 -0.4719
  484MOL0     H65278   8.644   6.790   0.317 -0.1887 -0.4875  1.0978
  484MOL0     H65279   8.856   6.926   0.477 -0.3624  0.2729 -0.8986
  484MOL0     H65280   8.679   6.926   0.500  2.9513  2.7988  0.9654
  484MOL0     H65281   8.677   6.706   0.575  0.6475  0.1628  0.5897
  484MOL0     H65282   8.853   6.690   0.564  1.1047  1.3032 -5.8001
  484MOL0     H65283   8.859   6.910   0.702  2.0382 -1.0426  0.1205
  484MOL0     H65284   8.692   6.889   0.748  2.1593  0.9138  4.0792
  484MOL0     H65285   8.732   6.684   0.864  0.1644  0.3736 -0.2979
  484MOL0     H65286   8.904   6.680   0.818  1.1869 -0.0387  0.3300
  484MOL0     H65287   8.888   6.928   0.941  0.5144 -0.1632  0.7706
  484MOL0     H65288   8.774   6.827   1.034  1.4953  0.2837  1.8933
  484MOL0     H65289   8.934   6.636   1.052 -0.9192  0.1203  0.5533
  484MOL0     H65290   8.948   6.792   1.147  1.0199  0.2377 -0.2035
  484MOL0     H65291   9.124   6.725   0.808 -1.0456  1.2422 -0.4210
  484MOL0     H65292   9.500   6.721   0.849 -1.7664  0.7429  3.1496
  484MOL0     H65293   9.374   6.770   0.728  1.2633  2.5538 -3.2292
  484MOL0     H65294   9.512   6.949   0.939  0.6364  0.4790  0.0025
  484MOL0     H65295   9.431   7.006   0.796 -0.4419  0.1708  0.4069
  484MOL0     H65296   9.589   6.878   0.642 -0.0645 -1.4403  0.5182
  484MOL0     H65297   9.688   6.836   0.786 -1.8837 -2.1966  0.3085
  484MOL0     H65298   9.619   7.119   0.687  1.5446  1.5360 -1.6666
  484MOL0     H65299   9.775   7.036   0.666  0.3046 -3.3132 -0.3711
  484MOL0     H65300   9.562   7.311   0.913  0.6711  2.2105  0.8233
  484MOL0     H65301   9.616   7.650   0.957  2.3510 -2.1864  3.2311
  484MOL0     H65302   9.541   7.586   0.810 -0.8806 -1.2877 -1.0051
  484MOL0     H65303   9.515   7.508   0.967  0.8044  1.8734  1.4960
  484MOL0     H65304   9.883   7.768   0.563 -0.3092  0.4301 -1.2821
  484MOL0     H65305   9.972   7.992   0.496 -1.1148  2.5133 -0.3432
  484MOL0     H65306   9.913   8.316   0.760  1.0144  0.5813  0.1630
  484MOL0     H65307  10.089   8.339   0.747  1.3178  0.2208 -1.3632
  484MOL0     H65308  10.058   8.463   0.537  1.2867 -3.8324 -0.7358
  484MOL0     H65309   9.888   8.402   0.526  0.0752  0.9676 -0.0390
  484MOL0     H65310   9.829   8.524   0.725 -3.8585  0.8504 -2.8907
  484MOL0     H65311   9.874   8.612   0.584 -1.2534 -0.4930  0.2406
  484MOL0     H65312   9.971   8.672   0.827 -1.0693 -0.5863 -0.4553
  484MOL0     H65313  10.094   8.566   0.793 -2.1477 -1.2036  1.3984
  484MOL0     H65314  10.020   8.815   0.645  3.0737  2.9610  0.3377
  484MOL0     H65315  10.136   8.692   0.571  0.2386  0.5529 -0.4855
  484MOL0     H65316  10.157   8.844   0.838  0.8355 -2.0265  0.8736
  484MOL0     H65317  10.286   8.749   0.755  0.8943 -0.0846 -2.4188
  484MOL0     H65318  10.156   9.001   0.671  0.4416  0.2871 -0.6758
  484MOL0     H65319  10.243   8.911   0.560  0.7942  2.1233 -0.2865
  484MOL0     H65320  10.361   8.984   0.837 -0.2770  4.5753  1.1344
  484MOL0     H65321  10.349   9.110   0.710  0.3103  0.2585  0.3390
  484MOL0     H65322   9.938   8.138   0.889  0.1573  3.1376 -2.9895
  484MOL0     H65323   9.830   7.911   0.960  0.3127  1.3322  0.3457
  484MOL0     H65324  10.032   7.414   0.865  0.1374  0.3660  0.2484
  484MOL0     H65325   9.964   7.167   0.874 -1.6263 -1.9177  2.1108
  484MOL0     H65326   9.003   6.757  -0.114  1.0695 -0.6881 -1.6089
  484MOL0     H65327   9.223   6.685  -0.157  0.8342 -0.2768 -0.4237
  484MOL0     H65328   9.579   6.162   0.006  2.2398  0.9534  3.4247
  484MOL0     H65329   9.809   6.152  -0.051  0.8522 -0.4166 -0.3901
  484MOL0     H65330  10.066   6.191  -0.091  0.4681 -1.2508 -1.1278
  484MOL0     H65331   9.950   6.171  -0.232 -0.2545  0.6590 -1.5293
  484MOL0     H65332  10.204   6.183  -0.269  0.6539  0.2427  1.6621
  484MOL0     H65333  10.195   6.351  -0.242  1.1628 -1.3184  0.5997
  484MOL0     H65334  10.010   6.358  -0.435  0.1873  0.0265  0.1040
  484MOL0     H65335  10.039   6.179  -0.441  0.1421  0.9746  0.9580
  484MOL0     H65336  10.266   6.210  -0.499  1.0476  0.1801 -0.9276
  484MOL0     H65337  10.242   6.390  -0.497 -2.8170  1.2026 -0.5109
  484MOL0     H65338  10.056   6.269  -0.857 -2.5417  2.3552  0.4929
  484MOL0     H65339   9.790   6.569  -0.152 -3.0818  1.7359  0.0032
  484MOL0     H65340   9.544   6.562  -0.128  0.6818 -0.3881 -0.2855
  485MOL0     O65341  10.389   5.589   9.414  0.2840 -0.2202 -0.0029
  485MOL0     C65342  10.285   5.544   9.465  0.4870 -0.6532  0.5265
  485MOL0     O65343  10.254   5.543   9.605  0.3602  0.7395  1.4315
  485MOL0     C65344  10.331   5.604   9.696  0.5159 -0.4837  0.8589
  485MOL0     C65345  10.261   5.647   9.802  1.2195  0.5392  1.3846
  485MOL0     C65346  10.325   5.705   9.915  0.4783 -1.0025  0.6454
  485MOL0     C65347  10.466   5.719   9.915  0.2623 -0.2847 -0.6243
  485MOL0     O65348  10.517   5.769  10.029 -0.1922  1.2288 -0.1513
  485MOL0     C65349  10.655   5.759  10.056 -0.5425 -0.3238  0.2654
  485MOL0     C65350  10.692   5.867  10.160 -0.2645 -0.2692 -0.3986
  485MOL0     C65351  10.642   6.002  10.099 -0.7999  0.3536 -0.7049
  485MOL0     C65352  10.634   6.111  10.198 -0.1155  0.5053 -0.3343
  485MOL0     C65353  10.769   6.158  10.253 -1.1030 -0.2954 -1.0030
  485MOL0     C65354  10.753   6.265  10.365 -0.1361  1.1678  0.5913
  485MOL0     C65355  10.889   6.310  10.430 -0.7106 -0.1089 -0.6919
  485MOL0     C65356  10.872   6.387  10.554  0.2586  1.3692 -0.5573
  485MOL0     N65357  10.991   6.473  10.567 -0.2655 -0.8737 -0.1312
  485MOL0     C65358  11.119   6.433  10.586 -0.3832  1.3003 -0.5114
  485MOL0     C65359  11.204   6.536  10.561  0.2696  1.2923 -0.3579
  485MOL0     C65360  11.352   6.539  10.559  0.6132 -0.2820  0.4128
  485MOL0     C65361  11.409   6.502  10.696 -0.6376  0.0598  0.6155
  485MOL0     C65362  11.405   6.624  10.799  0.3266  0.3477 -0.1680
  485MOL0     C65363  11.270   6.634  10.878  0.5007  0.3088  0.2292
  485MOL0     O65364  11.291   6.741  10.972 -0.0729  0.6409 -0.4303
  485MOL0     C65365  11.291   6.720  11.109  0.7577 -0.0416  0.5601
  485MOL0     C65366  11.313   6.601  11.177  0.8404 -0.3806 -0.9029
  485MOL0     C65367  11.305   6.599  11.321  0.3569  0.0748  0.2118
  485MOL0     C65368  11.324   6.465  11.394 -0.2233  0.1927  0.4323
  485MOL0     C65369  11.273   6.716  11.392 -0.0710  0.8629  0.7678
  485MOL0     C65370  11.253   6.727  11.542 -0.5994 -0.1681 -0.1121
  485MOL0     O65371  11.277   6.619  11.620 -0.0413 -0.1530 -0.1949
  485MOL0     C65372  11.271   6.622  11.762 -0.9834 -0.2854 -0.2785
  485MOL0     C65373  11.233   6.493  11.811  0.5021 -0.1707  0.3633
  485MOL0     C65374  11.215   6.477  11.951 -0.2175  1.3241 -0.1014
  485MOL0     C65375  11.237   6.580  12.030 -0.3503  0.5236  0.4557
  485MOL0     O65376  11.231   6.545  12.167 -0.4252 -0.3150 -0.0033
  485MOL0     C65377  11.256   6.649  12.264  0.1606  1.1558 -0.6973
  485MOL0     C65378  11.214   6.594  12.405 -0.2479 -0.5991 -0.0333
  485MOL0     C65379  11.060   6.555  12.405  0.0864 -0.2155  0.3099
  485MOL0     C65380  11.019   6.495  12.535 -0.8773  0.1795  0.3197
  485MOL0     C65381  10.951   6.588  12.640  0.2688 -0.0579  0.2072
  485MOL0     C65382  10.903   6.523  12.766  0.7681  1.2411  0.5663
  485MOL0     C65383  10.833   6.609  12.863  0.4142 -0.4420 -0.1566
  485MOL0     C65384  10.776   6.546  12.995  0.0074 -0.3213  0.5101
  485MOL0    Cl65385  10.644   6.642  13.085  0.2148  0.2426 -0.0608
  485MOL0     C65386  11.272   6.708  11.979  0.1022 -0.2164 -0.0046
  485MOL0     C65387  11.295   6.732  11.849  0.7570  0.0377 -0.8491
  485MOL0     O65388  11.227   6.838  11.590 -0.5238  0.6896  0.0110
  485MOL0     C65389  11.274   6.838  11.317  0.6990 -0.3432 -0.4667
  485MOL0     C65390  11.251   6.831  11.175  0.6317 -0.0576 -0.6597
  485MOL0     N65391  11.113   6.642  10.534  0.2266  0.0604  0.4470
  485MOL0     N65392  10.984   6.605  10.544 -0.3928 -0.6665 -0.1252
  485MOL0     C65393  10.542   5.670   9.803  0.2668 -1.2426  0.2472
  485MOL0     C65394  10.469   5.617   9.693 -0.9159 -0.9075 -0.4953
  485MOL0     C65395  10.174   5.502   9.378 -0.3235 -0.9954 -0.4691
  485MOL0     C65396  10.045   5.472   9.430 -0.0047  0.4477  0.6060
  485MOL0     C65397   9.952   5.403   9.343 -0.1461  0.7569 -0.8513
  485MOL0     C65398   9.971   5.386   9.202 -0.0996  0.1267 -0.8478
  485MOL0     O65399   9.870   5.334   9.129  0.5651 -0.0215  0.4419
  485MOL0     C65400   9.912   5.231   9.043  0.2076 -0.2872 -0.0453
  485MOL0     C65401   9.897   5.092   9.099  0.0810  0.3484 -0.7871
  485MOL0     C65402   9.768   5.065   9.167 -0.1041  0.8665  0.3586
  485MOL0     C65403   9.771   4.983   9.291 -0.0442 -0.5681  0.2831
  485MOL0     C65404   9.641   4.979   9.361  0.2269  0.7111 -0.2675
  485MOL0     C65405   9.529   4.976   9.411  0.4500 -0.2558  0.0189
  485MOL0     C65406  10.100   5.422   9.152  1.2923  0.8644  0.9337
  485MOL0     C65407  10.198   5.475   9.236 -0.0254 -0.9317  0.1747
  485MOL0     H65408  10.156   5.619   9.812  1.9207 -2.0517  2.5445
  485MOL0     H65409  10.279   5.752  10.001 -0.1212 -3.8296  2.0005
  485MOL0     H65410  10.692   5.661  10.088  0.6517 -0.3826 -1.1679
  485MOL0     H65411  10.714   5.788   9.968  0.2612  0.1787  0.9560
  485MOL0     H65412  10.631   5.838  10.246 -2.5927 -0.8254 -2.1293
  485MOL0     H65413  10.797   5.860  10.188 -0.8325 -2.3177  1.5564
  485MOL0     H65414  10.713   6.028  10.019 -1.3090  1.8851 -0.6898
  485MOL0     H65415  10.542   5.985  10.057 -0.8868 -0.7898 -0.0785
  485MOL0     H65416  10.581   6.191  10.146 -3.8762 -0.2276  1.9418
  485MOL0     H65417  10.575   6.078  10.284  0.9813 -2.8783 -0.7412
  485MOL0     H65418  10.841   6.082  10.286  0.0778  0.6167 -1.4043
  485MOL0     H65419  10.824   6.204  10.170  1.5617 -2.4903 -0.6229
  485MOL0     H65420  10.705   6.353  10.322 -0.8893  0.0686 -0.8893
  485MOL0     H65421  10.680   6.217  10.431 -0.7918 -1.0817 -1.6306
  485MOL0     H65422  10.954   6.224  10.450 -0.7303  0.4528  2.1941
  485MOL0     H65423  10.936   6.376  10.356 -0.1676 -0.3682 -0.5865
  485MOL0     H65424  10.867   6.320  10.640 -1.4976 -0.0160 -1.6597
  485MOL0     H65425  10.782   6.448  10.546  0.3637  1.7219  0.7275
  485MOL0     H65426  11.161   6.336  10.609  2.3177  2.3882 -0.4819
  485MOL0     H65427  11.384   6.462  10.488  0.4002 -0.2945  0.3298
  485MOL0     H65428  11.390   6.636  10.524  1.1764 -0.7301 -0.2430
  485MOL0     H65429  11.515   6.484  10.675 -0.6522 -0.5309  1.0233
  485MOL0     H65430  11.369   6.410  10.740  1.0652 -2.6402 -2.9646
  485MOL0     H65431  11.413   6.722  10.750 -4.3487  1.6989  1.2847
  485MOL0     H65432  11.486   6.622  10.873 -1.2273 -0.6146  1.5813
  485MOL0     H65433  11.250   6.537  10.923  2.4204  0.1173  0.7664
  485MOL0     H65434  11.189   6.671  10.814  0.5581  2.3424  1.2554
  485MOL0     H65435  11.343   6.514  11.119  0.9162  0.2508 -1.8281
  485MOL0     H65436  11.321   6.386  11.317 -3.7549  0.2561  0.3427
  485MOL0     H65437  11.416   6.460  11.452 -0.8761 -0.7996  1.4249
  485MOL0     H65438  11.234   6.441  11.452 -1.0135  4.4012  1.2565
  485MOL0     H65439  11.201   6.416  11.741  0.0326  0.8635 -0.5820
  485MOL0     H65440  11.180   6.391  12.007 -0.0200  1.8521  0.8557
  485MOL0     H65441  11.355   6.694  12.274 -0.9641  3.2200  2.6341
  485MOL0     H65442  11.187   6.731  12.247 -1.1359  0.4274  0.7682
  485MOL0     H65443  11.283   6.513  12.432  2.9989  2.3851  1.4796
  485MOL0     H65444  11.239   6.671  12.479  5.7675  0.0868 -2.2442
  485MOL0     H65445  11.045   6.473  12.335 -2.1002  0.3785  0.0129
  485MOL0     H65446  10.999   6.637  12.365  2.3769  1.1017 -0.7196
  485MOL0     H65447  10.953   6.411  12.515  1.4355 -1.9806  1.1410
  485MOL0     H65448  11.112   6.468  12.587 -0.0416  3.4421  0.7515
  485MOL0     H65449  10.872   6.644  12.588  0.6951  0.4962  0.1546
  485MOL0     H65450  11.024   6.661  12.675 -1.0140  1.9450 -1.0730
  485MOL0     H65451  10.822   6.457  12.737  2.0301  0.4318 -1.2899
  485MOL0     H65452  10.983   6.461  12.808 -0.5723 -1.9006 -1.2187
  485MOL0     H65453  10.750   6.656  12.809  0.9293  1.5311  0.6557
  485MOL0     H65454  10.908   6.675  12.908  1.8761 -4.3317  3.8897
  485MOL0     H65455  10.854   6.526  13.069 -1.1934  3.3135  3.0181
  485MOL0     H65456  10.726   6.450  12.978  0.6969 -0.3263 -1.8200
  485MOL0     H65457  11.289   6.794  12.043 -4.0631  1.4006 -0.7939
  485MOL0     H65458  11.324   6.830  11.812  0.1843  0.4858 -0.1339
  485MOL0     H65459  11.255   6.932  11.367  2.2465  0.5778 -1.5340
  485MOL0     H65460  11.226   6.919  11.117  1.3672  2.1248  2.0947
  485MOL0     H65461  10.649   5.689   9.793 -0.0411  1.2991  1.0760
  485MOL0     H65462  10.526   5.577   9.610 -0.9411  0.8223 -1.3676
  485MOL0     H65463  10.020   5.484   9.535 -0.1085 -0.5672  0.7072
  485MOL0     H65464   9.855   5.372   9.378  0.5145 -0.6438 -0.2022
  485MOL0     H65465   9.870   5.259   8.946  0.1863 -2.0429 -0.5700
  485MOL0     H65466  10.017   5.243   9.014  0.4730 -0.2394  0.9009
  485MOL0     H65467   9.971   5.076   9.177  0.9055  0.5494 -1.5052
  485MOL0     H65468   9.910   5.023   9.014  1.5750  1.2600 -1.3314
  485MOL0     H65469   9.704   5.014   9.095 -1.3567 -0.1946  2.1218
  485MOL0     H65470   9.719   5.157   9.198  1.8489  2.2585 -0.5348
  485MOL0     H65471   9.849   5.021   9.359  1.9964  1.5187 -2.9560
  485MOL0     H65472   9.788   4.881   9.258 -1.6714 -0.6347 -0.4770
  485MOL0     H65473   9.434   4.987   9.459 -0.0302  0.4917 -1.0812
  485MOL0     H65474  10.123   5.399   9.049  1.5667  0.3377  1.1052
  485MOL0     H65475  10.293   5.482   9.184  1.6276  1.7117  3.2099
  486MOL0     O65476   6.731   5.394   7.720  0.8196 -0.2736  0.4581
  486MOL0     C65477   6.801   5.490   7.755  0.0574 -1.1047  0.7303
  486MOL0     O65478   6.770   5.630   7.746 -0.1866  0.2184 -0.3503
  486MOL0     C65479   6.668   5.674   7.659 -0.7605  1.5640 -1.1429
  486MOL0     C65480   6.642   5.613   7.537  0.6716  0.0540 -0.9825
  486MOL0     C65481   6.543   5.657   7.452 -0.4289  0.3269  0.2178
  486MOL0     C65482   6.465   5.765   7.488 -0.2226  0.2892  0.0246
  486MOL0     O65483   6.365   5.782   7.396 -0.7535  0.4255 -0.8784
  486MOL0     C65484   6.257   5.831   7.467 -0.2483  0.0733  0.8989
  486MOL0     C65485   6.134   5.828   7.382  1.2553 -0.6740  0.7614
  486MOL0     C65486   6.124   5.709   7.288  0.4580 -0.1522  0.8585
  486MOL0     C65487   6.138   5.574   7.368  0.1740  0.2280  0.5958
  486MOL0     C65488   6.092   5.459   7.273 -0.5149  0.4199 -0.2863
  486MOL0     C65489   6.186   5.443   7.142 -0.1846 -0.1493 -0.3024
  486MOL0     C65490   6.329   5.406   7.188  0.0331 -0.3055  0.9875
  486MOL0     C65491   6.415   5.364   7.064  0.3356  0.1968  0.1743
  486MOL0     N65492   6.399   5.224   7.021 -0.3130 -0.2022 -0.7461
  486MOL0     C65493   6.508   5.148   6.993  0.3009 -0.5028 -0.3856
  486MOL0     C65494   6.459   5.039   6.928 -0.2164 -0.8006 -0.0026
  486MOL0     C65495   6.547   4.925   6.868  1.1179  0.0093 -0.0064
  486MOL0     C65496   6.614   4.966   6.733  0.9915  0.6562 -0.0642
  486MOL0     C65497   6.680   5.103   6.741 -0.5478 -0.6880 -0.2134
  486MOL0     C65498   6.766   5.133   6.616  0.0018  0.9997  0.9018
  486MOL0     O65499   6.900   5.076   6.642 -0.7864 -0.0658  0.8731
  486MOL0     C65500   7.014   5.126   6.583  0.1046 -0.3866  0.0886
  486MOL0     C65501   7.028   5.241   6.505  0.1725 -0.8115 -0.8320
  486MOL0     C65502   7.143   5.274   6.439  0.3443 -0.3701 -0.0726
  486MOL0     C65503   7.140   5.410   6.370 -0.4060 -0.6684  1.0070
  486MOL0     C65504   7.261   5.209   6.459  0.9053  1.0240 -0.4509
  486MOL0     C65505   7.396   5.251   6.415 -0.1088  0.5659  0.1553
  486MOL0     O65506   7.503   5.183   6.475  0.6889 -0.5260  0.2905
  486MOL0     C65507   7.635   5.235   6.453  0.5146 -0.6860 -0.9207
  486MOL0     C65508   7.668   5.372   6.470  0.0749  0.5303  0.3001
  486MOL0     C65509   7.793   5.425   6.436 -0.0581 -0.0127  0.2633
  486MOL0     C65510   7.897   5.332   6.401  0.0661 -0.6406  0.4456
  486MOL0     O65511   8.032   5.368   6.396 -0.2987 -0.6181 -0.2949
  486MOL0     C65512   8.064   5.480   6.318  0.8127 -0.4885  0.3713
  486MOL0     C65513   8.208   5.508   6.344 -0.6940 -0.0055  0.5980
  486MOL0     C65514   8.268   5.612   6.246  0.0071 -0.1248  0.4245
  486MOL0     C65515   8.420   5.617   6.268  0.1693  0.1980 -0.0078
  486MOL0     C65516   8.491   5.728   6.175  0.0523 -1.0398  0.0940
  486MOL0     C65517   8.547   5.666   6.057  0.3027  0.8302 -0.7516
  486MOL0     C65518   8.662   5.563   6.094  0.3291 -0.0085  1.0197
  486MOL0     C65519   8.795   5.600   6.024 -0.1141 -0.2562 -1.4504
  486MOL0    Cl65520   8.910   5.461   6.064 -0.1604  0.2684  0.0077
  486MOL0     C65521   7.868   5.199   6.402 -0.5381  0.2784  0.6872
  486MOL0     C65522   7.735   5.152   6.408 -0.7960  0.5640  0.4666
  486MOL0     O65523   7.412   5.348   6.337  0.4333  0.1875  0.3540
  486MOL0     C65524   7.258   5.091   6.545  0.6182  0.2908  0.5817
  486MOL0     C65525   7.132   5.060   6.606 -0.4514  0.8626  0.6155
  486MOL0     N65526   6.326   5.042   6.908 -0.6248 -0.3159 -0.0269
  486MOL0     N65527   6.288   5.161   6.963  0.1808  0.4580  0.3798
  486MOL0     C65528   6.489   5.824   7.616 -0.4194  0.0435 -0.0300
  486MOL0     C65529   6.595   5.785   7.696 -0.1122  0.0535  0.0638
  486MOL0     C65530   6.941   5.462   7.812  0.4945  0.5204 -0.2975
  486MOL0     C65531   7.004   5.339   7.779  0.1913 -0.6247  0.4636
  486MOL0     C65532   7.131   5.295   7.831 -0.3495 -0.5790 -0.0755
  486MOL0     C65533   7.203   5.398   7.897  0.2671  0.0006 -0.0827
  486MOL0     O65534   7.333   5.370   7.950  0.0170 -0.4189 -0.3059
  486MOL0     C65535   7.378   5.238   7.979 -0.2555 -0.9282  0.1356
  486MOL0     C65536   7.515   5.218   7.916 -0.8869  0.3470 -1.1375
  486MOL0     C65537   7.627   5.309   7.981  0.7306  0.1169  0.3120
  486MOL0     C65538   7.703   5.229   8.084 -0.7405  1.3429 -0.9406
  486MOL0     C65539   7.794   5.121   8.033  0.9689 -0.0306  0.3980
  486MOL0     C65540   7.859   5.028   7.988 -0.1831  0.4814 -0.3318
  486MOL0     C65541   7.149   5.527   7.920 -0.3995  0.1377  0.0382
  486MOL0     C65542   7.012   5.560   7.883  0.1708  0.6062  0.5863
  486MOL0     H65543   6.700   5.529   7.500 -2.2696 -2.2536 -0.6973
  486MOL0     H65544   6.514   5.604   7.362 -2.0456  0.4485  0.6420
  486MOL0     H65545   6.235   5.784   7.563 -4.9794  3.1025  1.6518
  486MOL0     H65546   6.283   5.935   7.491  2.5223 -0.1072 -0.8916
  486MOL0     H65547   6.046   5.830   7.448  2.1335 -1.2790  1.9881
  486MOL0     H65548   6.135   5.921   7.324  0.2326  0.2695  2.1885
  486MOL0     H65549   6.027   5.706   7.239  0.7121 -0.0947  0.3535
  486MOL0     H65550   6.208   5.725   7.219  0.1165  0.8639  0.6618
  486MOL0     H65551   6.242   5.563   7.398 -0.4520  0.3110  3.0663
  486MOL0     H65552   6.075   5.574   7.458 -2.2618  2.0168 -0.9421
  486MOL0     H65553   6.094   5.365   7.329  2.0957  1.1459  1.0330
  486MOL0     H65554   5.987   5.480   7.254 -0.3994  2.8466  1.2767
  486MOL0     H65555   6.146   5.362   7.079  0.2672 -2.4341  2.1771
  486MOL0     H65556   6.195   5.534   7.082  2.9386  0.5446  1.0189
  486MOL0     H65557   6.380   5.490   7.235  1.0178 -0.2731 -0.0888
  486MOL0     H65558   6.325   5.326   7.262 -2.8084 -0.3366  0.9103
  486MOL0     H65559   6.517   5.388   7.094 -0.6805  0.5881  3.8789
  486MOL0     H65560   6.389   5.423   6.975  1.4626 -0.4161 -0.5843
  486MOL0     H65561   6.612   5.173   7.011  0.0929  0.3101 -0.2903
  486MOL0     H65562   6.620   4.878   6.935 -0.7736 -2.6293  0.3429
  486MOL0     H65563   6.473   4.845   6.862  1.2230 -0.0476 -0.5499
  486MOL0     H65564   6.530   4.971   6.664 -1.2131  0.7698  2.4613
  486MOL0     H65565   6.689   4.892   6.705 -1.4911 -1.5700 -1.2630
  486MOL0     H65566   6.743   5.122   6.829  0.8419  1.3015 -1.5362
  486MOL0     H65567   6.601   5.177   6.731  2.0412  2.1256 -1.5191
  486MOL0     H65568   6.765   5.242   6.604  2.4893  0.8016 -2.9504
  486MOL0     H65569   6.734   5.080   6.526 -1.4826  1.4117  1.1593
  486MOL0     H65570   6.950   5.315   6.492  1.1589  1.0263  2.5630
  486MOL0     H65571   7.206   5.475   6.427  0.3915  0.7020 -1.3509
  486MOL0     H65572   7.169   5.393   6.266  0.6469 -0.2366  1.2237
  486MOL0     H65573   7.037   5.447   6.368  0.2069  1.1042 -0.1095
  486MOL0     H65574   7.588   5.441   6.496 -0.6758 -0.5547  1.0034
  486MOL0     H65575   7.814   5.532   6.434 -4.4470  1.0523  0.2703
  486MOL0     H65576   8.057   5.463   6.210  2.4740 -0.0640  0.1740
  486MOL0     H65577   7.997   5.562   6.346  1.7491  0.4329 -0.0260
  486MOL0     H65578   8.236   5.543   6.444  3.4379 -3.4635  0.9248
  486MOL0     H65579   8.252   5.410   6.326 -4.0724 -1.4840 -0.2667
  486MOL0     H65580   8.234   5.714   6.269 -0.2392  0.0352 -0.6009
  486MOL0     H65581   8.259   5.585   6.141  1.6318 -2.8592  0.8832
  486MOL0     H65582   8.423   5.652   6.372 -1.5958  0.9683 -0.1808
  486MOL0     H65583   8.465   5.519   6.251 -3.6721 -1.5955 -0.9353
  486MOL0     H65584   8.560   5.790   6.233 -1.4219 -0.2356  1.0443
  486MOL0     H65585   8.422   5.805   6.137  2.2081 -0.2147 -2.5234
  486MOL0     H65586   8.471   5.608   6.004 -1.6045 -0.4890  3.0239
  486MOL0     H65587   8.591   5.743   5.994  2.7302  1.2482  1.2580
  486MOL0     H65588   8.633   5.461   6.066  0.1510  0.0923  0.8325
  486MOL0     H65589   8.680   5.566   6.201  0.0242  2.5241  1.0614
  486MOL0     H65590   8.829   5.698   6.058 -3.5757  0.1094  1.5332
  486MOL0     H65591   8.782   5.613   5.917  3.7591  0.5682 -1.9465
  486MOL0     H65592   7.950   5.133   6.380 -0.7522 -1.0152  3.4081
  486MOL0     H65593   7.720   5.053   6.365  2.5145 -0.2382  0.8654
  486MOL0     H65594   7.343   5.025   6.561  0.0242 -0.5027  0.5074
  486MOL0     H65595   7.124   4.976   6.675 -0.3781  0.6177  0.3299
  486MOL0     H65596   6.432   5.915   7.634  0.2149  0.4274  0.0484
  486MOL0     H65597   6.603   5.838   7.790 -1.3819  1.3233 -0.5005
  486MOL0     H65598   6.951   5.257   7.733 -1.0756  1.0031 -1.1115
  486MOL0     H65599   7.183   5.207   7.796  1.5197  0.8015 -0.9210
  486MOL0     H65600   7.396   5.215   8.085 -2.5795 -0.2182  0.7281
  486MOL0     H65601   7.315   5.155   7.945  0.5409 -1.1744 -0.7717
  486MOL0     H65602   7.508   5.244   7.810  1.6123  2.2585 -0.9386
  486MOL0     H65603   7.544   5.113   7.930 -2.3416  0.0889  0.2319
  486MOL0     H65604   7.594   5.409   8.010 -1.8356 -0.9236  1.3088
  486MOL0     H65605   7.692   5.339   7.899  1.0891  0.9329  0.8780
  486MOL0     H65606   7.630   5.203   8.162 -0.1243  2.7252  0.1500
  486MOL0     H65607   7.770   5.294   8.142  1.5767 -2.9056  1.6266
  486MOL0     H65608   7.920   4.952   7.945  1.2563  2.4828 -2.0536
  486MOL0     H65609   7.218   5.591   7.974  0.7723 -0.8463 -0.2261
  486MOL0     H65610   6.968   5.659   7.895 -1.1870 -0.1126  1.9494
  487MOL0     O65611   7.571   1.277   5.484 -0.4608 -0.5324 -0.5517
  487MOL0     C65612   7.579   1.155   5.489  0.2940  0.1381  0.5448
  487MOL0     O65613   7.690   1.084   5.441  0.7828  0.1596 -0.1025
  487MOL0     C65614   7.781   1.149   5.374 -0.0931 -0.4764  0.2829
  487MOL0     C65615   7.762   1.187   5.249  0.3370 -0.1283  0.3048
  487MOL0     C65616   7.854   1.259   5.174 -0.7538 -0.0310 -0.6194
  487MOL0     C65617   7.976   1.293   5.230 -0.5345 -0.6871  0.5620
  487MOL0     O65618   8.055   1.382   5.152  0.4340 -0.3178  0.2021
  487MOL0     C65619   8.143   1.461   5.228  0.1788 -1.3996  0.4155
  487MOL0     C65620   8.173   1.585   5.140 -0.4082  0.3615 -0.1869
  487MOL0     C65621   8.232   1.553   5.005  0.7529 -0.6504 -0.7137
  487MOL0     C65622   8.360   1.467   5.012 -0.2714 -0.2782 -0.5139
  487MOL0     C65623   8.465   1.503   4.897  0.2638  0.5261  0.0016
  487MOL0     C65624   8.584   1.412   4.899  0.2725 -0.7194  0.3928
  487MOL0     C65625   8.671   1.448   5.019  0.5605 -0.4111 -0.0320
  487MOL0     C65626   8.806   1.380   4.994  0.4432  0.7483  0.6263
  487MOL0     N65627   8.877   1.370   5.125  0.3292 -0.3968 -0.0349
  487MOL0     C65628   8.837   1.303   5.242 -0.0564  0.6945  0.2397
  487MOL0     C65629   8.934   1.333   5.342  0.5364  0.1106  0.4889
  487MOL0     C65630   8.930   1.288   5.480 -0.3602  0.2401  0.5752
  487MOL0     C65631   8.872   1.380   5.577  0.2398  0.3759  0.3652
  487MOL0     C65632   8.902   1.352   5.724 -0.3045  0.6353 -0.1056
  487MOL0     C65633   8.805   1.253   5.796  1.2612 -0.3339  0.8364
  487MOL0     O65634   8.671   1.320   5.795  0.3412  0.1142 -0.1202
  487MOL0     C65635   8.567   1.259   5.856  0.5460  0.2021 -0.7648
  487MOL0     C65636   8.569   1.128   5.901  0.1060  0.4700 -0.5439
  487MOL0     C65637   8.466   1.072   5.972  0.2951  0.5493  0.0967
  487MOL0     C65638   8.483   0.931   6.020 -0.6328 -0.2647  0.3284
  487MOL0     C65639   8.352   1.147   5.997  0.0400  0.5999  1.0847
  487MOL0     C65640   8.247   1.106   6.094 -0.0319  0.4326  0.0449
  487MOL0     O65641   8.127   1.163   6.075 -0.9318  0.2844 -0.6358
  487MOL0     C65642   8.012   1.143   6.145 -0.3349  0.1867 -0.2904
  487MOL0     C65643   7.996   1.045   6.239  0.3960  0.2777 -0.3667
  487MOL0     C65644   7.883   1.032   6.314  0.3360 -0.4338 -0.1602
  487MOL0     C65645   7.770   1.114   6.286  0.1756  1.0421  0.8399
  487MOL0     O65646   7.659   1.106   6.357  0.4099 -0.4170  0.1649
  487MOL0     C65647   7.592   0.980   6.334  0.0206  0.1823  0.7597
  487MOL0     C65648   7.457   0.963   6.407  0.2432 -0.8705  0.8593
  487MOL0     C65649   7.474   0.984   6.559 -0.3489  0.0152 -0.2457
  487MOL0     C65650   7.347   0.989   6.637  0.9576  0.3396  1.1097
  487MOL0     C65651   7.274   1.121   6.651  0.6065  0.0431  0.5049
  487MOL0     C65652   7.152   1.120   6.743 -0.1360 -1.7670  0.2124
  487MOL0     C65653   7.087   1.260   6.751 -0.5516  0.0607 -0.9781
  487MOL0     C65654   6.999   1.259   6.876 -1.0142  0.1142  0.4239
  487MOL0    Cl65655   6.947   1.420   6.925  0.1312 -0.1575  0.0508
  487MOL0     C65656   7.783   1.203   6.175 -0.5016 -0.3121 -0.2780
  487MOL0     C65657   7.902   1.217   6.109  0.6786  0.6178  0.3280
  487MOL0     O65658   8.276   1.024   6.187  0.3262 -0.5571  0.1851
  487MOL0     C65659   8.342   1.274   5.944 -0.7249 -0.8355  0.0866
  487MOL0     C65660   8.453   1.330   5.873  0.2665 -0.0250  0.4264
  487MOL0     N65661   9.014   1.424   5.275 -0.6494 -0.4360  0.4245
  487MOL0     N65662   8.990   1.438   5.149 -0.4193  0.2555  0.5091
  487MOL0     C65663   8.002   1.253   5.365 -0.2063  0.5300  0.2551
  487MOL0     C65664   7.898   1.183   5.444 -0.4322  0.9192  0.3050
  487MOL0     C65665   7.469   1.075   5.544  0.2906 -0.7026 -0.2226
  487MOL0     C65666   7.470   0.935   5.542  0.2753 -1.0007  0.6960
  487MOL0     C65667   7.362   0.865   5.599  0.1786  0.0880  0.3404
  487MOL0     C65668   7.257   0.924   5.663  2.0935 -0.7937  0.9424
  487MOL0     O65669   7.162   0.844   5.718  0.0359 -0.2671 -0.6733
  487MOL0     C65670   7.061   0.807   5.629 -0.6441 -0.2948 -0.4198
  487MOL0     C65671   6.922   0.856   5.671 -0.5883 -0.5814  0.2776
  487MOL0     C65672   6.801   0.813   5.579 -0.2505 -0.1574  0.1114
  487MOL0     C65673   6.659   0.842   5.651  0.0015  0.7463  0.6848
  487MOL0     C65674   6.624   0.752   5.754 -0.6360 -0.1574 -0.3111
  487MOL0     C65675   6.600   0.661   5.831  0.1517 -0.2462  0.5595
  487MOL0     C65676   7.256   1.058   5.668  1.2029  0.8174 -0.3822
  487MOL0     C65677   7.358   1.132   5.611 -0.3655 -0.9985  0.1916
  487MOL0     H65678   7.666   1.163   5.205 -1.0280 -0.0106  2.9884
  487MOL0     H65679   7.833   1.286   5.070 -3.5166 -1.0572 -0.4341
  487MOL0     H65680   8.090   1.496   5.317  0.1065 -1.6606  0.4757
  487MOL0     H65681   8.236   1.410   5.257  0.1974  0.4776  4.2299
  487MOL0     H65682   8.080   1.642   5.135 -0.1764  0.7837  0.3408
  487MOL0     H65683   8.252   1.649   5.180 -0.4155  1.4052 -1.7467
  487MOL0     H65684   8.155   1.510   4.941  0.2895 -0.0460 -0.5684
  487MOL0     H65685   8.253   1.653   4.964  0.6154  0.0172  0.7754
  487MOL0     H65686   8.405   1.469   5.112  0.0888 -0.5905 -0.6651
  487MOL0     H65687   8.334   1.362   4.997  0.2810 -0.5535  0.3864
  487MOL0     H65688   8.419   1.490   4.799  0.6721  1.5147 -0.3349
  487MOL0     H65689   8.505   1.605   4.905  0.5061  0.3362  1.5005
  487MOL0     H65690   8.550   1.308   4.894  0.3069 -0.8237  1.9595
  487MOL0     H65691   8.636   1.438   4.806  0.1125  0.2238  0.5493
  487MOL0     H65692   8.694   1.551   5.047  1.8986  0.2734 -3.1987
  487MOL0     H65693   8.629   1.404   5.109 -0.7781 -1.1018 -0.9674
  487MOL0     H65694   8.868   1.437   4.924 -1.4516 -0.1723 -1.9670
  487MOL0     H65695   8.790   1.280   4.952  2.1725  1.7401 -2.7717
  487MOL0     H65696   8.760   1.227   5.247  1.6899 -1.3150 -1.5230
  487MOL0     H65697   8.888   1.189   5.502  0.5037  0.3904  3.1868
  487MOL0     H65698   9.038   1.283   5.499 -0.1601 -0.9824 -0.7213
  487MOL0     H65699   8.763   1.379   5.563 -0.0190 -0.3236  2.1874
  487MOL0     H65700   8.908   1.482   5.560  0.8026  0.0937 -0.1721
  487MOL0     H65701   8.906   1.434   5.796 -2.8497  0.4602  0.3131
  487MOL0     H65702   9.003   1.310   5.727  0.0712  1.5093  3.4952
  487MOL0     H65703   8.836   1.234   5.899  3.0805 -1.7977  0.0857
  487MOL0     H65704   8.816   1.161   5.738  1.9952  0.7773 -0.8739
  487MOL0     H65705   8.661   1.073   5.883 -0.3144 -0.1507 -0.8324
  487MOL0     H65706   8.545   0.875   5.950  1.6038  3.0204 -0.5788
  487MOL0     H65707   8.544   0.928   6.111 -0.1511  2.9857  0.2587
  487MOL0     H65708   8.385   0.887   6.040  0.1919 -1.8448  1.0614
  487MOL0     H65709   8.077   0.983   6.275 -0.5486 -0.8133 -0.0616
  487MOL0     H65710   7.877   0.963   6.398 -1.8211  3.0207  2.8520
  487MOL0     H65711   7.580   0.959   6.227  2.4533  0.6367  0.3407
  487MOL0     H65712   7.652   0.896   6.371 -0.1857 -1.4320 -2.2678
  487MOL0     H65713   7.380   1.020   6.354  1.8053 -0.9302 -1.6778
  487MOL0     H65714   7.424   0.859   6.393 -0.3946 -0.4118 -1.6795
  487MOL0     H65715   7.530   1.077   6.572 -2.4164  1.4651 -1.1055
  487MOL0     H65716   7.537   0.897   6.581  0.4813  0.7386  0.2779
  487MOL0     H65717   7.273   0.925   6.587  0.0974  2.3887 -0.4147
  487MOL0     H65718   7.364   0.939   6.733 -0.3446  1.0135  1.7239
  487MOL0     H65719   7.238   1.154   6.553 -1.3510 -0.0453  1.1470
  487MOL0     H65720   7.339   1.198   6.693 -0.9806  2.2049 -0.8157
  487MOL0     H65721   7.092   1.040   6.698 -0.2118 -0.1108 -2.8919
  487MOL0     H65722   7.182   1.088   6.843 -4.2776  0.4126  2.4164
  487MOL0     H65723   7.023   1.271   6.663  1.8130  0.0722 -2.8040
  487MOL0     H65724   7.159   1.340   6.766 -0.2479 -0.0744 -1.6442
  487MOL0     H65725   7.049   1.225   6.967 -1.1415  1.7977  1.1562
  487MOL0     H65726   6.910   1.200   6.849 -2.5713  2.3961  0.3254
  487MOL0     H65727   7.711   1.278   6.144 -2.0673 -1.0775  1.2874
  487MOL0     H65728   7.913   1.298   6.038  0.7436  0.2439 -0.0918
  487MOL0     H65729   8.248   1.329   5.944  1.0418  2.5626  2.2324
  487MOL0     H65730   8.457   1.434   5.843  0.0413 -0.2185 -0.2926
  487MOL0     H65731   8.103   1.266   5.402  1.2307 -1.0568 -2.7728
  487MOL0     H65732   7.907   1.160   5.549 -2.3917  1.9719  0.7470
  487MOL0     H65733   7.552   0.881   5.496 -0.2905  0.1496 -1.8621
  487MOL0     H65734   7.375   0.761   5.570  1.9496  1.1847 -3.5931
  487MOL0     H65735   7.076   0.845   5.528  0.2108 -1.8915 -0.9244
  487MOL0     H65736   7.067   0.697   5.630 -1.8474 -0.3927  1.4247
  487MOL0     H65737   6.918   0.964   5.661 -2.4990 -0.7987 -2.2984
  487MOL0     H65738   6.901   0.831   5.775  0.6068 -1.3575  0.3531
  487MOL0     H65739   6.810   0.706   5.556  0.5078 -0.2982  1.0184
  487MOL0     H65740   6.801   0.866   5.483  2.7038 -1.7292 -0.8911
  487MOL0     H65741   6.577   0.829   5.580  0.0858  1.8086  0.3789
  487MOL0     H65742   6.646   0.947   5.678  3.5672  1.2751  0.8125
  487MOL0     H65743   6.575   0.585   5.902 -1.3070 -0.4477 -0.1246
  487MOL0     H65744   7.178   1.118   5.715 -2.0591 -1.5049 -2.4325
  487MOL0     H65745   7.357   1.239   5.628  3.4118 -0.5673 -1.2288
  488MOL0     O65746   8.758   5.487   5.484 -0.2071 -0.6560  0.4226
  488MOL0     C65747   8.777   5.476   5.601 -0.1572 -0.0297  0.7005
  488MOL0     O65748   8.851   5.567   5.676 -0.4675  0.6432 -0.7095
  488MOL0     C65749   8.904   5.678   5.613 -0.0302 -0.1652 -0.0512
  488MOL0     C65750   8.825   5.794   5.603  0.4856  0.3528  0.3767
  488MOL0     C65751   8.864   5.904   5.529 -0.4929  0.0579  0.3774
  488MOL0     C65752   8.980   5.898   5.466 -0.1367 -0.6261  0.6803
  488MOL0     O65753   9.018   6.004   5.387 -0.6275 -0.4271  0.2083
  488MOL0     C65754   8.932   6.023   5.273  0.7558  0.1436 -0.3067
  488MOL0     C65755   9.007   6.109   5.168 -0.4708  0.7097 -0.1389
  488MOL0     C65756   8.906   6.165   5.068  0.1148  0.7193  1.0917
  488MOL0     C65757   8.975   6.219   4.944  0.0407 -0.5179  0.0011
  488MOL0     C65758   8.891   6.311   4.854 -0.5168 -0.0398 -0.2934
  488MOL0     C65759   8.765   6.237   4.790 -0.7338 -0.5644 -0.1049
  488MOL0     C65760   8.805   6.121   4.702  0.3457 -0.2871 -0.2997
  488MOL0     C65761   8.883   6.166   4.580  0.3567 -0.3780 -0.3404
  488MOL0     N65762   8.860   6.063   4.471  0.0700  0.7473 -0.0439
  488MOL0     C65763   8.838   6.094   4.339 -1.3959 -0.3189  0.0976
  488MOL0     C65764   8.846   5.974   4.269  0.9446 -0.7270 -0.0975
  488MOL0     C65765   8.847   5.950   4.123  0.0765  0.8431  0.4878
  488MOL0     C65766   8.792   6.080   4.048 -0.9016  0.7180  0.0355
  488MOL0     C65767   8.809   6.053   3.895  0.0431 -0.2704  0.4873
  488MOL0     C65768   8.947   6.109   3.847 -0.0075  0.2583  0.0581
  488MOL0     O65769   8.975   6.239   3.891 -0.2137  0.3049 -0.3766
  488MOL0     C65770   9.057   6.320   3.824 -0.1258 -0.6409 -0.7317
  488MOL0     C65771   9.161   6.282   3.746 -0.5902  0.1642 -1.2224
  488MOL0     C65772   9.231   6.379   3.674 -0.0013  0.0700 -0.0497
  488MOL0     C65773   9.340   6.327   3.584 -0.8801  0.9397  0.5360
  488MOL0     C65774   9.202   6.524   3.682  0.1581  0.8035  0.7448
  488MOL0     C65775   9.274   6.630   3.606  0.0261  0.6071 -0.4465
  488MOL0     O65776   9.352   6.599   3.497 -0.1836 -1.0597  0.2731
  488MOL0     C65777   9.451   6.695   3.476  0.1380  0.5235 -0.7735
  488MOL0     C65778   9.582   6.688   3.520 -0.5309  1.0182 -0.9112
  488MOL0     C65779   9.684   6.781   3.492  0.7523  0.8853 -0.0175
  488MOL0     C65780   9.654   6.898   3.409 -0.0356 -0.0277 -0.4737
  488MOL0     O65781   9.747   7.002   3.372  0.1363 -0.0531  0.1527
  488MOL0     C65782   9.853   7.026   3.461 -0.3748  0.0841  1.1074
  488MOL0     C65783   9.976   7.035   3.368 -0.1350 -0.1275 -0.1044
  488MOL0     C65784   9.997   6.905   3.302  0.6909  0.1576  0.2503
  488MOL0     C65785  10.086   6.808   3.378 -0.4989  0.2761  0.4247
  488MOL0     C65786  10.083   6.660   3.328 -0.4619  0.3359 -0.1313
  488MOL0     C65787  10.204   6.586   3.386  0.5712 -0.0951  0.1545
  488MOL0     C65788  10.194   6.439   3.358  0.9631  0.7988 -0.5116
  488MOL0     C65789  10.331   6.370   3.370 -0.6542  0.5133  0.0967
  488MOL0    Cl65790  10.409   6.410   3.522  0.2783  0.1357  0.3057
  488MOL0     C65791   9.519   6.906   3.370  0.3459 -0.1238  0.1717
  488MOL0     C65792   9.426   6.799   3.389 -0.8276 -0.6976 -0.0136
  488MOL0     O65793   9.266   6.740   3.663 -0.2177  0.6056  0.3503
  488MOL0     C65794   9.095   6.550   3.764 -0.1502 -1.1316  0.0416
  488MOL0     C65795   9.029   6.456   3.840  1.0773  1.2220  0.4425
  488MOL0     N65796   8.851   5.875   4.366  0.0083 -0.7078 -0.0138
  488MOL0     N65797   8.863   5.928   4.480 -0.0016 -0.3712 -0.8097
  488MOL0     C65798   9.063   5.782   5.477  0.1838 -0.0355 -0.5132
  488MOL0     C65799   9.024   5.672   5.544  0.9631  0.1888  0.1348
  488MOL0     C65800   8.713   5.357   5.667 -0.1676 -0.0377  0.6761
  488MOL0     C65801   8.615   5.282   5.599  0.2876 -0.4962  0.0338
  488MOL0     C65802   8.568   5.165   5.661  0.3129 -0.0379 -0.4565
  488MOL0     C65803   8.592   5.132   5.793 -0.3526 -0.1183 -0.4571
  488MOL0     O65804   8.515   5.035   5.854  0.0984 -1.1326  0.2326
  488MOL0     C65805   8.435   5.077   5.966  0.2109  0.2438 -0.3660
  488MOL0     C65806   8.489   4.992   6.083  0.1945 -0.0646  0.3968
  488MOL0     C65807   8.399   5.013   6.207 -0.6349  0.0579  0.0598
  488MOL0     C65808   8.407   5.160   6.258  1.3409  0.1134 -0.7582
  488MOL0     C65809   8.544   5.206   6.278 -0.9331 -0.1185 -0.2399
  488MOL0     C65810   8.658   5.243   6.294 -0.0074 -0.0900 -0.2248
  488MOL0     C65811   8.689   5.214   5.863  0.6721  0.8239  0.8895
  488MOL0     C65812   8.745   5.317   5.801  0.6534  0.1665  0.0164
  488MOL0     H65813   8.734   5.790   5.663  0.7323  0.4390  0.7620
  488MOL0     H65814   8.806   5.995   5.516 -0.3178 -0.2843 -6.5644
  488MOL0     H65815   8.873   5.935   5.248 -1.5513  1.6903 -0.5427
  488MOL0     H65816   8.845   6.083   5.300  0.9154  0.7130 -1.0078
  488MOL0     H65817   9.054   6.193   5.220 -3.3204  1.5029  1.3201
  488MOL0     H65818   9.086   6.051   5.119 -0.4914 -0.4267  1.1319
  488MOL0     H65819   8.833   6.088   5.042  2.1443 -0.6688 -0.9070
  488MOL0     H65820   8.854   6.251   5.112  1.1942  2.6914 -1.2085
  488MOL0     H65821   9.066   6.273   4.969 -0.5889  1.0089 -0.9017
  488MOL0     H65822   8.998   6.134   4.878  1.6948 -0.5666  0.5971
  488MOL0     H65823   8.854   6.402   4.902  1.7113 -0.2706  2.0425
  488MOL0     H65824   8.954   6.342   4.770  0.6963  0.4078  0.7541
  488MOL0     H65825   8.700   6.197   4.868 -0.8795 -1.4598 -0.6599
  488MOL0     H65826   8.704   6.307   4.732 -0.3105 -0.8277 -0.8850
  488MOL0     H65827   8.871   6.055   4.759  1.6372  1.9494  0.9328
  488MOL0     H65828   8.705   6.084   4.675 -1.4933  3.8454  0.0593
  488MOL0     H65829   8.987   6.186   4.606  0.2656  0.9850 -0.9070
  488MOL0     H65830   8.841   6.259   4.539  0.6233 -0.7929 -1.6002
  488MOL0     H65831   8.848   6.190   4.289  0.0841 -1.1626 -1.3505
  488MOL0     H65832   8.954   5.941   4.103 -0.4259 -1.9932 -1.6356
  488MOL0     H65833   8.794   5.857   4.100 -0.7428  1.5047 -0.4038
  488MOL0     H65834   8.854   6.163   4.083  0.1864 -0.8435  1.9514
  488MOL0     H65835   8.688   6.105   4.074 -0.4447  1.6090  1.0669
  488MOL0     H65836   8.731   6.105   3.839  1.1982 -0.8699 -1.7847
  488MOL0     H65837   8.784   5.950   3.867  2.6430 -0.2022 -2.6863
  488MOL0     H65838   8.957   6.100   3.739 -2.3151  2.8914 -0.4851
  488MOL0     H65839   9.018   6.049   3.906 -1.6797 -0.8927  0.9702
  488MOL0     H65840   9.194   6.179   3.745  0.3483  0.4583 -1.4856
  488MOL0     H65841   9.434   6.333   3.639 -0.3418 -0.3718 -0.2069
  488MOL0     H65842   9.329   6.219   3.569  1.3944  0.7046  0.2496
  488MOL0     H65843   9.345   6.368   3.483 -1.5146 -0.7847 -0.2341
  488MOL0     H65844   9.631   6.607   3.574  3.5403  1.6989 -3.1961
  488MOL0     H65845   9.785   6.761   3.529  1.7422  1.2519 -2.3811
  488MOL0     H65846   9.833   7.116   3.520 -2.0805 -1.6342  3.3412
  488MOL0     H65847   9.871   6.952   3.539 -2.7395 -0.0250  1.6469
  488MOL0     H65848   9.968   7.120   3.300  0.8525 -0.2275 -0.3536
  488MOL0     H65849  10.068   7.057   3.423  2.5256 -0.7147 -3.9587
  488MOL0     H65850  10.058   6.927   3.214  1.5230  3.0834  1.4521
  488MOL0     H65851   9.902   6.856   3.277 -0.7486  1.1523  3.2542
  488MOL0     H65852  10.188   6.848   3.373 -0.2341 -0.2083  1.6248
  488MOL0     H65853  10.052   6.807   3.481 -2.3826  0.3928 -0.1668
  488MOL0     H65854  10.111   6.652   3.223 -0.8668 -1.1035 -0.1493
  488MOL0     H65855   9.990   6.603   3.341  1.3017 -2.6477  0.4263
  488MOL0     H65856  10.291   6.627   3.335  0.4507 -0.7462 -0.5816
  488MOL0     H65857  10.216   6.608   3.493  1.6520  3.7658 -0.6172
  488MOL0     H65858  10.133   6.415   3.270 -0.6452 -1.1581  1.0374
  488MOL0     H65859  10.144   6.384   3.438  2.8360 -1.0053 -0.5099
  488MOL0     H65860  10.383   6.410   3.282  2.4212 -0.9581  1.1009
  488MOL0     H65861  10.326   6.262   3.360 -0.0564  0.3909  0.9791
  488MOL0     H65862   9.482   6.979   3.299 -1.2903 -3.0975 -2.3091
  488MOL0     H65863   9.330   6.806   3.339 -1.1527  0.8872  0.7786
  488MOL0     H65864   9.070   6.653   3.789  4.6160 -0.1405  1.7116
  488MOL0     H65865   8.962   6.488   3.919  0.7445  0.7710  0.3459
  488MOL0     H65866   9.153   5.780   5.415 -0.2991 -0.6577 -1.2174
  488MOL0     H65867   9.073   5.575   5.537 -2.3933 -1.7072  0.4544
  488MOL0     H65868   8.580   5.317   5.503  1.5616  0.4338 -0.1098
  488MOL0     H65869   8.491   5.119   5.600 -1.2972 -0.6090  1.8630
  488MOL0     H65870   8.441   5.183   5.993 -0.7743 -0.5442  3.4975
  488MOL0     H65871   8.328   5.065   5.947  0.0950 -1.6007  1.1499
  488MOL0     H65872   8.595   5.019   6.089  0.0068  1.3329 -1.5828
  488MOL0     H65873   8.469   4.891   6.047  0.3145 -0.0245  0.2181
  488MOL0     H65874   8.434   4.940   6.280  1.2660 -0.8203 -1.6409
  488MOL0     H65875   8.295   4.983   6.187 -0.3861 -1.8739  1.3505
  488MOL0     H65876   8.352   5.189   6.348  0.6640  0.9742 -1.4230
  488MOL0     H65877   8.352   5.221   6.186 -1.0000 -0.1008  0.7270
  488MOL0     H65878   8.757   5.284   6.299 -0.2378  0.4668 -0.1594
  488MOL0     H65879   8.696   5.185   5.967  0.1702 -0.1602  0.6694
  488MOL0     H65880   8.820   5.380   5.848  0.8235 -0.8795  1.2036
  489MOL0     O65881   3.782   6.232   8.407 -0.4798  0.2313  0.1818
  489MOL0     C65882   3.729   6.219   8.298 -0.7293 -0.0728 -0.4278
  489MOL0     O65883   3.598   6.237   8.273  0.2035 -0.9400  0.1964
  489MOL0     C65884   3.525   6.266   8.374  0.1520 -0.0918 -0.0162
  489MOL0     C65885   3.524   6.382   8.447 -0.7408  0.0257 -0.3263
  489MOL0     C65886   3.452   6.382   8.567  0.4304 -0.0210  0.0746
  489MOL0     C65887   3.374   6.277   8.617  0.6056  1.1562  0.2343
  489MOL0     O65888   3.292   6.296   8.729  0.4577  0.6521  0.0818
  489MOL0     C65889   3.357   6.344   8.847  0.2289 -0.1887 -0.5998
  489MOL0     C65890   3.272   6.441   8.934 -0.2398  0.7267 -0.2480
  489MOL0     C65891   3.158   6.367   9.003  0.1649  0.3851  0.4580
  489MOL0     C65892   3.058   6.457   9.082 -0.2326 -0.0243  0.2354
  489MOL0     C65893   3.119   6.515   9.207  0.5238  0.0874 -0.5603
  489MOL0     C65894   3.019   6.597   9.286 -0.8077 -0.5871 -0.0727
  489MOL0     C65895   3.102   6.664   9.411 -0.1034 -0.3240  0.6686
  489MOL0     C65896   3.000   6.725   9.502 -1.3772 -0.0370 -0.8014
  489MOL0     N65897   3.071   6.837   9.569 -0.4373 -0.0518 -0.7094
  489MOL0     C65898   3.011   6.954   9.616  0.0410  0.1405 -0.6301
  489MOL0     C65899   3.111   7.026   9.674  1.0761  0.8811  0.1458
  489MOL0     C65900   3.075   7.146   9.759  0.9541  0.1901  0.4279
  489MOL0     C65901   3.187   7.196   9.856 -0.6086 -0.5764  0.8027
  489MOL0     C65902   3.151   7.289   9.961  0.3355 -0.6863 -0.5535
  489MOL0     C65903   3.263   7.329  10.042 -0.5471 -0.4724 -0.2980
  489MOL0     O65904   3.225   7.448  10.110  0.7685 -0.0439 -0.8110
  489MOL0     C65905   3.315   7.504  10.199  0.3746  0.1269  0.1779
  489MOL0     C65906   3.272   7.601  10.292 -1.0039 -0.7137  0.6784
  489MOL0     C65907   3.357   7.689  10.351 -0.7258  0.1386  1.1045
  489MOL0     C65908   3.301   7.765  10.464  0.7260  0.6504  0.0403
  489MOL0     C65909   3.491   7.698  10.300  0.5776 -0.2639 -0.3800
  489MOL0     C65910   3.590   7.801  10.340 -0.0951  0.4599  0.2026
  489MOL0     O65911   3.549   7.936  10.343 -0.2857 -0.2300  0.0206
  489MOL0     C65912   3.642   8.035  10.369  0.4490  1.1953 -0.4529
  489MOL0     C65913   3.777   8.044  10.332  0.4202  0.7662  0.1228
  489MOL0     C65914   3.842   8.169  10.339 -0.7201 -0.2655  0.3319
  489MOL0     C65915   3.781   8.281  10.397  1.0995  0.2781  0.9448
  489MOL0     O65916   3.842   8.391  10.437  0.3916 -0.9129  0.1352
  489MOL0     C65917   3.984   8.415  10.421  0.2922 -0.5437  0.0564
  489MOL0     C65918   4.009   8.556  10.486  0.2664 -0.0722  0.1914
  489MOL0     C65919   4.148   8.606  10.441 -0.1545 -0.0749  0.0142
  489MOL0     C65920   4.153   8.761  10.438  1.1833  0.3268  0.7481
  489MOL0     C65921   4.288   8.832  10.451  0.0523 -0.7311 -0.4367
  489MOL0     C65922   4.252   8.986  10.417 -0.2556  0.8486 -0.1008
  489MOL0     C65923   4.175   9.055  10.532  0.1858 -0.0512 -0.1972
  489MOL0     C65924   4.083   9.167  10.486  0.6315 -0.3062 -0.9592
  489MOL0    Cl65925   3.943   9.097  10.406 -0.2203 -0.3305  0.1407
  489MOL0     C65926   3.654   8.259  10.449  0.0542 -0.4309  0.4730
  489MOL0     C65927   3.579   8.140  10.432  0.0062 -0.8541  0.5642
  489MOL0     O65928   3.703   7.763  10.354 -0.8915  0.3094 -0.5284
  489MOL0     C65929   3.542   7.586  10.221  0.0446 -0.4473 -0.6603
  489MOL0     C65930   3.456   7.489  10.181  0.0508  0.1468  0.0097
  489MOL0     N65931   3.233   6.961   9.657 -0.1625 -0.5787  1.0758
  489MOL0     N65932   3.204   6.847   9.600  0.0793  0.4392 -0.0583
  489MOL0     C65933   3.382   6.158   8.543 -0.0116 -0.3290 -0.2127
  489MOL0     C65934   3.454   6.153   8.427  0.2565  0.0291  0.1581
  489MOL0     C65935   3.817   6.174   8.173 -0.0758  0.6631 -0.8813
  489MOL0     C65936   3.757   6.145   8.049 -0.5049  0.4168 -0.5026
  489MOL0     C65937   3.831   6.119   7.936  1.0724 -0.6640  0.1460
  489MOL0     C65938   3.971   6.090   7.960  0.4375 -1.6031 -0.6117
  489MOL0     O65939   4.055   6.046   7.862 -0.1925  0.1556 -0.0431
  489MOL0     C65940   4.009   6.066   7.719 -0.2962  0.1583 -0.4340
  489MOL0     C65941   4.040   6.206   7.670 -0.1661 -0.6074  0.1840
  489MOL0     C65942   4.181   6.246   7.618 -0.0900  0.4528 -1.1372
  489MOL0     C65943   4.190   6.383   7.560 -0.5228  0.3364 -0.0034
  489MOL0     C65944   4.328   6.401   7.508  0.3816 -0.2984  0.3863
  489MOL0     C65945   4.435   6.419   7.472 -0.1634  0.2490  0.2399
  489MOL0     C65946   4.030   6.118   8.079 -1.1718  0.1062 -0.4145
  489MOL0     C65947   3.950   6.137   8.193  0.0610 -0.4247  0.2029
  489MOL0     H65948   3.587   6.460   8.407 -1.2063  0.1407 -0.8362
  489MOL0     H65949   3.439   6.477   8.619 -2.9366  0.0953 -0.7774
  489MOL0     H65950   3.396   6.264   8.910 -1.8466 -0.0502  0.9433
  489MOL0     H65951   3.447   6.402   8.824 -0.2308  0.7999  0.0499
  489MOL0     H65952   3.346   6.481   9.004  0.4886 -1.3593  0.2337
  489MOL0     H65953   3.227   6.517   8.869  1.5444 -0.4874 -3.1263
  489MOL0     H65954   3.117   6.303   8.925  0.2505  1.4890 -0.5231
  489MOL0     H65955   3.193   6.294   9.076  3.0913  0.7432 -0.4611
  489MOL0     H65956   3.014   6.534   9.018 -0.1472 -3.2747 -4.2255
  489MOL0     H65957   2.980   6.397   9.130  1.6279 -1.1028  2.0823
  489MOL0     H65958   3.165   6.444   9.277 -0.7645 -0.1224  0.1206
  489MOL0     H65959   3.206   6.568   9.169 -1.7244  2.5464 -2.6542
  489MOL0     H65960   2.972   6.679   9.230  0.9789  3.5439  3.8458
  489MOL0     H65961   2.938   6.535   9.325 -0.9632 -1.0316 -1.0846
  489MOL0     H65962   3.168   6.598   9.468  0.4606 -0.0997  0.2827
  489MOL0     H65963   3.162   6.743   9.365  0.7538 -1.5855 -0.4697
  489MOL0     H65964   2.988   6.653   9.584  1.4451  1.2523  0.9163
  489MOL0     H65965   2.899   6.751   9.467 -2.6739  0.4980  2.8025
  489MOL0     H65966   2.907   6.984   9.614  0.0281  0.3413  1.0545
  489MOL0     H65967   3.043   7.227   9.693  1.9946 -1.0943 -1.7629
  489MOL0     H65968   2.982   7.127   9.815  2.6415  0.3570  3.4866
  489MOL0     H65969   3.248   7.257   9.789 -1.9730 -1.7046 -1.5830
  489MOL0     H65970   3.243   7.110   9.895  1.6472 -0.1298 -1.1764
  489MOL0     H65971   3.084   7.246  10.035 -1.7665  0.6050 -1.6198
  489MOL0     H65972   3.081   7.367   9.930 -1.1992 -3.1195 -3.8778
  489MOL0     H65973   3.352   7.360   9.985 -0.6393  1.2179  0.4243
  489MOL0     H65974   3.287   7.244  10.107 -1.0576 -0.8902 -0.6532
  489MOL0     H65975   3.165   7.613  10.308 -0.8369  1.7455  0.2876
  489MOL0     H65976   3.381   7.810  10.523 -1.5234 -0.4087  4.2833
  489MOL0     H65977   3.226   7.840  10.435 -0.3389 -0.2119  0.4824
  489MOL0     H65978   3.249   7.693  10.528  1.6961  2.0229  2.5171
  489MOL0     H65979   3.822   7.956  10.286 -2.6886  0.0691 -1.9094
  489MOL0     H65980   3.949   8.178  10.322 -0.1877 -0.1282  3.3023
  489MOL0     H65981   4.049   8.348  10.477 -1.7889  0.5620  4.1783
  489MOL0     H65982   4.003   8.419  10.313 -1.6197  2.4173 -0.2817
  489MOL0     H65983   3.941   8.631  10.443  0.7246 -0.4605 -1.2687
  489MOL0     H65984   4.004   8.547  10.595  3.6242 -0.7873  0.3870
  489MOL0     H65985   4.168   8.562  10.343  0.3315  1.3824 -0.5741
  489MOL0     H65986   4.221   8.571  10.516  0.3378  2.5557  0.8887
  489MOL0     H65987   4.107   8.804  10.348 -0.9611  1.3290  2.2275
  489MOL0     H65988   4.080   8.790  10.514  1.9836  1.3550  1.1539
  489MOL0     H65989   4.361   8.781  10.387  0.6457 -1.5253  0.8412
  489MOL0     H65990   4.322   8.833  10.555 -1.4156 -2.5799  0.1135
  489MOL0     H65991   4.350   9.035  10.413  1.3285 -2.0981 -0.2625
  489MOL0     H65992   4.208   9.009  10.320  1.3134  0.6604 -0.8827
  489MOL0     H65993   4.244   9.098  10.606  1.0619  0.1836 -1.1317
  489MOL0     H65994   4.120   8.984  10.594  0.4755 -0.7873 -0.7727
  489MOL0     H65995   4.127   9.241  10.417  2.9637 -0.0486  0.6684
  489MOL0     H65996   4.052   9.223  10.575 -0.3671 -1.7281 -0.3947
  489MOL0     H65997   3.626   8.351  10.499  0.9572  0.5334 -0.7350
  489MOL0     H65998   3.475   8.138  10.463  0.1630 -0.4592  1.1299
  489MOL0     H65999   3.646   7.581  10.190 -1.0687  0.8242 -5.5387
  489MOL0     H66000   3.496   7.411  10.118 -2.8025  0.0355 -1.8834
  489MOL0     H66001   3.330   6.069   8.577  0.3989 -1.3462 -2.1510
  489MOL0     H66002   3.461   6.061   8.369  2.1152  0.0714  0.2435
  489MOL0     H66003   3.649   6.154   8.048 -0.5428  3.3260  3.4885
  489MOL0     H66004   3.779   6.125   7.841  1.9960  0.8345 -0.3016
  489MOL0     H66005   4.047   5.981   7.662 -0.1202 -1.2679  1.6674
  489MOL0     H66006   3.900   6.061   7.708 -0.2816 -3.8233 -0.1879
  489MOL0     H66007   4.005   6.275   7.747 -1.2794 -0.4387 -0.4449
  489MOL0     H66008   3.974   6.223   7.584  3.3623 -1.6853 -2.9866
  489MOL0     H66009   4.216   6.174   7.543  1.4235 -1.2134  1.0290
  489MOL0     H66010   4.246   6.254   7.705 -1.5639  1.8007 -0.1035
  489MOL0     H66011   4.172   6.461   7.635 -2.4262  3.2079 -3.1396
  489MOL0     H66012   4.116   6.391   7.479 -1.6825 -2.4669  0.6802
  489MOL0     H66013   4.542   6.412   7.464 -0.3150 -0.0939 -2.7881
  489MOL0     H66014   4.137   6.110   8.093 -1.6210 -2.8009  2.8695
  489MOL0     H66015   3.990   6.143   8.294  1.6304  1.8536 -0.4837
  490MOL0     O66016   7.944   3.474   0.845  0.0755  0.6378  0.1088
  490MOL0     C66017   7.906   3.388   0.925  0.1203 -0.1828 -0.1728
  490MOL0     O66018   7.893   3.405   1.064  0.1725  0.1390  0.0934
  490MOL0     C66019   7.922   3.524   1.126 -0.4641 -0.7963  0.2960
  490MOL0     C66020   7.989   3.525   1.249  0.4025 -0.3450  1.0693
  490MOL0     C66021   8.037   3.639   1.309 -0.0754 -0.1903 -0.2254
  490MOL0     C66022   8.004   3.764   1.260  0.3076  0.7943  0.1149
  490MOL0     O66023   8.062   3.878   1.319  0.0494 -0.0667  0.1371
  490MOL0     C66024   7.989   4.000   1.312  0.1145 -0.7231 -0.2702
  490MOL0     C66025   7.858   4.001   1.398 -0.1369 -0.8544  0.8986
  490MOL0     C66026   7.790   4.147   1.396  0.1056 -1.2197  0.2466
  490MOL0     C66027   7.639   4.138   1.423 -0.0968  0.0503  0.6302
  490MOL0     C66028   7.561   4.239   1.339  0.6560 -0.4938 -0.3908
  490MOL0     C66029   7.577   4.385   1.376  0.2438  0.4987 -0.7280
  490MOL0     C66030   7.560   4.415   1.534 -0.5314 -0.8189 -0.2992
  490MOL0     C66031   7.539   4.566   1.565  0.2549 -0.5492  0.0776
  490MOL0     N66032   7.662   4.643   1.530 -0.8130 -0.1529  0.7977
  490MOL0     C66033   7.777   4.644   1.603 -0.6938  0.6518  0.6230
  490MOL0     C66034   7.863   4.723   1.537  0.4207  0.6941 -0.3230
  490MOL0     C66035   7.998   4.744   1.591 -0.4943  0.4752  0.0712
  490MOL0     C66036   8.097   4.807   1.481  0.6265  0.8417 -0.1867
  490MOL0     C66037   8.117   4.724   1.356 -0.3528 -0.4429  0.0988
  490MOL0     C66038   8.156   4.823   1.240 -0.2987 -1.2004 -0.2007
  490MOL0     O66039   8.111   4.763   1.119 -0.0826  0.2116  0.0436
  490MOL0     C66040   8.122   4.825   1.000  1.4470  0.1248  0.8760
  490MOL0     C66041   8.040   4.789   0.895  0.9612 -0.5174  0.4872
  490MOL0     C66042   8.041   4.854   0.779 -0.7042  0.6266  0.2320
  490MOL0     C66043   7.929   4.806   0.686  0.1145 -0.7133  0.9542
  490MOL0     C66044   8.140   4.961   0.756  0.7524  1.0798  0.4547
  490MOL0     C66045   8.159   5.024   0.623 -0.0069 -0.0399  0.3092
  490MOL0     O66046   8.294   5.045   0.595  0.5149 -0.8055  0.0737
  490MOL0     C66047   8.344   5.089   0.474 -1.2980  0.1192  0.3328
  490MOL0     C66048   8.275   5.155   0.366 -0.5771  0.7634 -1.0512
  490MOL0     C66049   8.348   5.171   0.241  1.1751 -0.5106 -0.4884
  490MOL0     C66050   8.483   5.147   0.227 -0.3060 -0.7536  0.3742
  490MOL0     O66051   8.559   5.188   0.119 -0.1233 -0.3316  0.4219
  490MOL0     C66052   8.497   5.195  -0.011  0.0558 -0.3495  0.6434
  490MOL0     C66053   8.434   5.326  -0.043 -1.1945  0.7516  0.1440
  490MOL0     C66054   8.370   5.317  -0.191 -1.0542  1.0346 -0.6937
  490MOL0     C66055   8.347   5.456  -0.256  0.0856  0.3320 -0.6707
  490MOL0     C66056   8.322   5.451  -0.405 -0.1217 -0.5730 -0.9482
  490MOL0     C66057   8.334   5.583  -0.470 -0.8381 -0.1011  0.4202
  490MOL0     C66058   8.236   5.685  -0.420 -0.2948  0.6606 -0.2826
  490MOL0     C66059   8.245   5.819  -0.492  0.0944 -0.1447 -0.6087
  490MOL0    Cl66060   8.179   5.777  -0.650  0.1196 -0.0694  0.5955
  490MOL0     C66061   8.554   5.103   0.340 -0.7318 -0.3298 -0.7648
  490MOL0     C66062   8.482   5.067   0.456 -0.0647 -0.7795  1.1156
  490MOL0     O66063   8.066   5.057   0.553  0.0725  0.0106 -0.0821
  490MOL0     C66064   8.235   4.987   0.853  0.7220  0.2216 -0.3363
  490MOL0     C66065   8.218   4.921   0.975 -0.7326  0.0136  0.1638
  490MOL0     N66066   7.797   4.764   1.419  0.5531  0.9640  0.0743
  490MOL0     N66067   7.680   4.709   1.409  0.6057 -0.4735 -0.1007
  490MOL0     C66068   7.921   3.763   1.148  0.3653 -0.3287  0.4560
  490MOL0     C66069   7.887   3.646   1.078 -0.2033  0.4012 -0.5596
  490MOL0     C66070   7.881   3.250   0.860 -0.6811  0.2286 -1.2322
  490MOL0     C66071   7.872   3.139   0.944 -0.1904  0.5927 -0.1577
  490MOL0     C66072   7.837   3.010   0.895 -0.6116 -0.4713 -0.4530
  490MOL0     C66073   7.801   2.998   0.765  0.3183  0.5415 -0.0375
  490MOL0     O66074   7.735   2.879   0.744 -0.2796 -1.1744 -0.3251
  490MOL0     C66075   7.625   2.874   0.659 -0.0835 -0.4259  0.0054
  490MOL0     C66076   7.625   2.740   0.584  0.3796  0.5027 -0.0423
  490MOL0     C66077   7.535   2.635   0.673  0.1509 -0.5263  0.3562
  490MOL0     C66078   7.553   2.488   0.627 -0.0391 -1.2383 -0.8920
  490MOL0     C66079   7.506   2.470   0.489  0.1771  0.6704  0.1606
  490MOL0     C66080   7.464   2.457   0.379  0.4952 -0.4228 -0.8629
  490MOL0     C66081   7.826   3.106   0.679 -0.2187  0.0235  0.4671
  490MOL0     C66082   7.869   3.232   0.723 -0.2743 -0.4586  0.5926
  490MOL0     H66083   8.012   3.427   1.289  1.6191  0.0766  1.4757
  490MOL0     H66084   8.078   3.609   1.405 -0.1310 -5.0326 -1.4472
  490MOL0     H66085   8.058   4.085   1.325  2.6228 -2.3819 -1.8469
  490MOL0     H66086   7.949   4.015   1.212 -1.5993 -1.8017  0.2183
  490MOL0     H66087   7.787   3.927   1.361  1.2025 -0.7206 -2.3316
  490MOL0     H66088   7.888   3.974   1.499 -0.2950 -1.4193  0.7931
  490MOL0     H66089   7.837   4.200   1.480  3.2094 -5.1218  1.2731
  490MOL0     H66090   7.809   4.190   1.298 -0.3391 -1.0123  0.2503
  490MOL0     H66091   7.598   4.042   1.390  0.0812  0.5097 -1.0572
  490MOL0     H66092   7.616   4.152   1.529 -2.9549 -0.4881  0.1349
  490MOL0     H66093   7.582   4.246   1.232 -0.3965  0.5629 -0.5565
  490MOL0     H66094   7.454   4.214   1.341  0.5549 -0.1184 -0.8139
  490MOL0     H66095   7.680   4.407   1.348 -0.1674  2.1370 -1.0719
  490MOL0     H66096   7.510   4.450   1.318 -2.5901 -1.1110  0.5594
  490MOL0     H66097   7.475   4.363   1.580 -0.0419 -1.0593  0.3434
  490MOL0     H66098   7.648   4.386   1.591  0.3590  1.2549 -0.5146
  490MOL0     H66099   7.509   4.576   1.670 -0.4321 -0.9507 -0.0769
  490MOL0     H66100   7.455   4.609   1.511 -1.1129 -0.5353  2.1055
  490MOL0     H66101   7.808   4.602   1.698 -0.8282 -0.1125  0.3399
  490MOL0     H66102   7.991   4.818   1.672  1.4077  1.8784 -0.9641
  490MOL0     H66103   8.042   4.656   1.637  4.9218  3.3411  1.2105
  490MOL0     H66104   8.197   4.803   1.525  1.6582  2.4460 -2.2461
  490MOL0     H66105   8.072   4.912   1.462  0.7544  1.2187  1.5127
  490MOL0     H66106   8.030   4.670   1.318  0.7977 -2.8468  0.6458
  490MOL0     H66107   8.204   4.657   1.357  2.8055  3.2910 -1.3013
  490MOL0     H66108   8.264   4.832   1.256 -0.5473  1.9836  0.4048
  490MOL0     H66109   8.106   4.918   1.261  2.4466  0.3025 -0.0029
  490MOL0     H66110   7.960   4.717   0.908 -0.1726  0.7460  0.7560
  490MOL0     H66111   7.851   4.883   0.687  1.3075  0.5205  0.8693
  490MOL0     H66112   7.977   4.808   0.588  4.6552  2.0465  2.8914
  490MOL0     H66113   7.885   4.706   0.699  0.6379 -1.1681 -0.5813
  490MOL0     H66114   8.168   5.166   0.379 -0.1497  2.7809  1.3763
  490MOL0     H66115   8.289   5.223   0.166  2.3248  3.7146  1.2211
  490MOL0     H66116   8.577   5.175  -0.083  1.7199 -1.3846  2.6657
  490MOL0     H66117   8.418   5.121  -0.028 -0.9207  1.2703 -2.8418
  490MOL0     H66118   8.363   5.357   0.034  1.1244  1.1403  2.2716
  490MOL0     H66119   8.514   5.402  -0.048  2.4239 -2.6232  1.5287
  490MOL0     H66120   8.279   5.257  -0.178  1.4806 -3.5495 -1.8651
  490MOL0     H66121   8.434   5.255  -0.253 -2.4397 -1.9218  0.5930
  490MOL0     H66122   8.258   5.502  -0.213  1.5944  2.3593  0.4809
  490MOL0     H66123   8.429   5.526  -0.239 -0.1372  0.5485 -0.4958
  490MOL0     H66124   8.220   5.413  -0.404 -0.5413  0.3308  2.3268
  490MOL0     H66125   8.393   5.382  -0.453 -0.1383 -0.1404 -1.6075
  490MOL0     H66126   8.433   5.628  -0.457 -1.2984  0.5867  1.7319
  490MOL0     H66127   8.312   5.564  -0.576  1.5822 -2.5097  0.2342
  490MOL0     H66128   8.241   5.706  -0.313  0.2825  0.7686 -0.3277
  490MOL0     H66129   8.135   5.643  -0.430 -0.0358 -1.2588  3.2941
  490MOL0     H66130   8.351   5.847  -0.490 -0.0848  0.5660 -0.4849
  490MOL0     H66131   8.189   5.902  -0.449  2.1590  2.2192 -2.1810
  490MOL0     H66132   8.658   5.073   0.332 -1.2483 -1.8732 -2.3372
  490MOL0     H66133   8.542   5.020   0.534  2.1203 -0.4749 -0.2863
  490MOL0     H66134   8.312   5.057   0.825  0.3593  0.6920 -0.1652
  490MOL0     H66135   8.292   4.952   1.049  0.0761 -2.0762  0.2927
  490MOL0     H66136   7.889   3.853   1.096  0.1157 -1.3156 -1.1457
  490MOL0     H66137   7.851   3.650   0.976 -1.8702  0.2184 -0.0118
  490MOL0     H66138   7.874   3.149   1.052 -1.6544 -0.3021 -0.0085
  490MOL0     H66139   7.800   2.931   0.960 -0.5290 -0.0524  0.1114
  490MOL0     H66140   7.538   2.887   0.723 -0.1810 -1.2147  0.0539
  490MOL0     H66141   7.632   2.955   0.587 -1.2198  2.1388  2.5968
  490MOL0     H66142   7.727   2.699   0.580  1.4130  2.6331  1.7329
  490MOL0     H66143   7.603   2.749   0.477  1.3098 -2.0224 -0.5198
  490MOL0     H66144   7.430   2.650   0.645  0.0424 -2.3661 -0.3885
  490MOL0     H66145   7.551   2.651   0.779  0.7485 -1.0674  0.3550
  490MOL0     H66146   7.507   2.417   0.696 -1.5352  0.5983  0.1238
  490MOL0     H66147   7.657   2.456   0.621 -0.5677 -3.5962  1.0758
  490MOL0     H66148   7.427   2.454   0.278 -1.7421  0.9057 -0.1518
  490MOL0     H66149   7.792   3.095   0.576 -1.3006 -0.6955  0.8780
  490MOL0     H66150   7.866   3.311   0.649 -1.0082  0.0600  1.1575
  491MOL0     O66151   4.016   9.192   4.976  0.0918  0.0292  0.1980
  491MOL0     C66152   3.971   9.088   4.928 -0.5549 -0.1655 -0.0793
  491MOL0     O66153   3.930   8.982   4.997  0.1438 -0.3846  0.0556
  491MOL0     C66154   3.901   8.995   5.129 -1.3304  1.0065  0.3683
  491MOL0     C66155   3.782   8.927   5.167 -0.4131  0.0124  0.1639
  491MOL0     C66156   3.740   8.935   5.296  0.0038  0.1371 -0.2481
  491MOL0     C66157   3.802   9.020   5.395  0.8180  0.0104 -0.0283
  491MOL0     O66158   3.756   9.000   5.523  0.5961  0.7213  0.3226
  491MOL0     C66159   3.758   8.866   5.571  0.0813  0.3417  0.5779
  491MOL0     C66160   3.748   8.866   5.713 -0.1312 -0.5433 -0.3220
  491MOL0     C66161   3.880   8.925   5.774  0.4219  0.8803  0.1485
  491MOL0     C66162   3.881   9.072   5.775 -0.6548  0.3039 -0.4174
  491MOL0     C66163   3.962   9.126   5.893  0.4312 -0.1354  0.1656
  491MOL0     C66164   3.977   9.272   5.899  0.1161  0.0470 -0.0918
  491MOL0     C66165   3.951   9.323   6.041  0.5583 -0.3948  0.2450
  491MOL0     C66166   3.952   9.478   6.045 -0.0269  0.4118  0.1280
  491MOL0     N66167   3.876   9.534   6.153  0.4225 -0.6211 -0.0711
  491MOL0     C66168   3.745   9.539   6.154  0.0715 -0.6844 -0.1526
  491MOL0     C66169   3.719   9.624   6.256 -0.4299  0.4446 -0.0976
  491MOL0     C66170   3.577   9.670   6.295  0.5145 -0.1852  0.8990
  491MOL0     C66171   3.516   9.762   6.192  0.2747 -0.7515 -0.1780
  491MOL0     C66172   3.363   9.788   6.199  0.3767 -0.8307 -0.4434
  491MOL0     C66173   3.279   9.715   6.096  0.3784 -0.6250  0.4553
  491MOL0     O66174   3.259   9.784   5.969  0.6665  0.3860  0.7323
  491MOL0     C66175   3.150   9.862   5.959 -0.1772  0.2301  0.0466
  491MOL0     C66176   3.059   9.916   6.053  0.7182  0.4610  0.2284
  491MOL0     C66177   2.960  10.003   6.012  0.4524 -1.2102  0.5178
  491MOL0     C66178   2.877  10.062   6.119 -0.8984  0.3093 -0.1017
  491MOL0     C66179   2.943  10.042   5.873  0.5266  0.5418  0.1452
  491MOL0     C66180   2.837  10.138   5.824 -0.2454  0.4955  0.4340
  491MOL0     O66181   2.778  10.223   5.910  0.3712  0.3582  0.0518
  491MOL0     C66182   2.697  10.326   5.867 -0.6153 -0.3051  0.4255
  491MOL0     C66183   2.709  10.462   5.917  0.7037 -0.0008 -0.0074
  491MOL0     C66184   2.634  10.570   5.870  0.7189  0.6248 -0.0192
  491MOL0     C66185   2.522  10.546   5.787 -0.4330 -0.1455 -0.3155
  491MOL0     O66186   2.430  10.644   5.742  0.5978  0.0488 -0.3962
  491MOL0     C66187   2.387  10.739   5.840  1.5552  0.1356 -0.4338
  491MOL0     C66188   2.231  10.728   5.854 -0.9299  0.1891  0.5289
  491MOL0     C66189   2.159  10.863   5.893  0.6978 -0.3679  0.8205
  491MOL0     C66190   2.010  10.848   5.852 -0.5732 -0.1607  0.2819
  491MOL0     C66191   1.932  10.979   5.886 -0.3276 -0.0180  0.7070
  491MOL0     C66192   1.785  10.980   5.831  0.6210  0.3960  0.1611
  491MOL0     C66193   1.709  11.088   5.905  0.0149 -0.3140 -0.5807
  491MOL0     C66194   1.566  11.111   5.844  1.0770  0.7320  0.2356
  491MOL0    Cl66195   1.485  11.210   5.973  0.2672 -0.0461  0.4153
  491MOL0     C66196   2.500  10.413   5.757  0.3843 -0.3447 -0.4412
  491MOL0     C66197   2.582  10.301   5.792 -0.3452 -0.5634  0.1071
  491MOL0     O66198   2.801  10.127   5.701  0.3340 -0.8873 -0.0596
  491MOL0     C66199   3.025   9.976   5.782 -0.2261 -0.7771  0.6836
  491MOL0     C66200   3.129   9.894   5.823 -0.1259  0.2220 -0.2239
  491MOL0     N66201   3.831   9.674   6.310  0.4413 -0.2646  0.1581
  491MOL0     N66202   3.930   9.616   6.248  0.1242  0.2025 -0.3016
  491MOL0     C66203   3.917   9.092   5.364  0.9115 -0.1552 -0.1336
  491MOL0     C66204   3.969   9.077   5.231  0.9972 -0.7131  0.6936
  491MOL0     C66205   3.950   9.077   4.781  0.2536 -0.5877  0.1484
  491MOL0     C66206   3.900   8.955   4.733 -0.3616  0.4346  0.6258
  491MOL0     C66207   3.875   8.938   4.594  0.2537 -0.5355 -0.4773
  491MOL0     C66208   3.910   9.035   4.504 -0.3344 -0.3547 -0.0431
  491MOL0     O66209   3.890   9.027   4.367  0.1510 -0.7659 -0.4119
  491MOL0     C66210   3.919   8.916   4.285  0.2661  0.0217 -0.3649
  491MOL0     C66211   4.068   8.876   4.301  1.0448 -0.6123  0.1654
  491MOL0     C66212   4.164   8.994   4.290 -0.1227 -0.1243 -0.7005
  491MOL0     C66213   4.292   8.955   4.213 -0.5637  0.7345 -0.2355
  491MOL0     C66214   4.387   8.862   4.282  0.5823 -0.5819 -0.5670
  491MOL0     C66215   4.475   8.801   4.337 -0.1484 -0.1775 -0.0446
  491MOL0     C66216   3.967   9.152   4.553  0.4576  0.8790 -0.3491
  491MOL0     C66217   3.977   9.182   4.689  0.3895  0.1173 -0.4997
  491MOL0     H66218   3.724   8.882   5.087 -3.8106  5.3001 -0.8242
  491MOL0     H66219   3.651   8.877   5.318 -2.1590  2.3051 -2.5722
  491MOL0     H66220   3.685   8.801   5.522  1.3268  0.9692 -2.2926
  491MOL0     H66221   3.855   8.820   5.549 -0.4509 -0.7582  0.4599
  491MOL0     H66222   3.656   8.923   5.729  1.7952  2.0604  2.4855
  491MOL0     H66223   3.725   8.768   5.756 -0.2143 -0.2335  0.3529
  491MOL0     H66224   3.900   8.898   5.878  0.7872  2.8747  0.6347
  491MOL0     H66225   3.967   8.884   5.720  0.0240  0.8297 -0.4664
  491MOL0     H66226   3.931   9.093   5.679  2.3395  1.1793  1.1755
  491MOL0     H66227   3.780   9.113   5.783 -0.0089  1.5166  3.1799
  491MOL0     H66228   3.914   9.082   5.981 -0.9063 -1.9785 -1.4021
  491MOL0     H66229   4.057   9.072   5.892  0.4614 -0.0801 -0.1419
  491MOL0     H66230   4.073   9.307   5.863  1.6763 -2.2930  1.4948
  491MOL0     H66231   3.899   9.318   5.837  0.4681  3.0626  1.5344
  491MOL0     H66232   3.853   9.283   6.068  0.0148 -0.1971 -1.3503
  491MOL0     H66233   4.026   9.283   6.110  1.2850 -0.2425 -0.4402
  491MOL0     H66234   3.908   9.509   5.950 -0.7580  0.7732  0.5785
  491MOL0     H66235   4.054   9.517   6.033  1.1114 -2.3762  0.0507
  491MOL0     H66236   3.677   9.483   6.091 -1.9906  0.4311  0.9850
  491MOL0     H66237   3.520   9.578   6.310  2.1841 -1.8095 -1.8025
  491MOL0     H66238   3.587   9.726   6.388  0.0632 -0.8680  1.3583
  491MOL0     H66239   3.540   9.719   6.094 -0.8345 -3.1202  0.5060
  491MOL0     H66240   3.571   9.855   6.207  1.7362 -1.7506  0.8362
  491MOL0     H66241   3.348   9.895   6.177  0.5064 -0.6090  0.5209
  491MOL0     H66242   3.324   9.771   6.299 -0.6943 -2.2162 -1.0597
  491MOL0     H66243   3.177   9.705   6.134 -0.2505  3.3293  0.1735
  491MOL0     H66244   3.328   9.617   6.089 -1.4868 -1.5583  0.0207
  491MOL0     H66245   3.057   9.881   6.156  3.5242  2.5914  1.1411
  491MOL0     H66246   2.897  10.013   6.215 -1.4669 -0.4976 -0.3883
  491MOL0     H66247   2.910  10.165   6.133  2.8242 -0.5106 -1.5552
  491MOL0     H66248   2.769  10.056   6.101 -1.0893 -1.2605  1.3068
  491MOL0     H66249   2.789  10.487   5.986  0.7017  0.8916 -0.3163
  491MOL0     H66250   2.647  10.675   5.894 -0.6076  1.0744 -1.1360
  491MOL0     H66251   2.429  10.736   5.940 -4.2581  0.0764  2.4124
  491MOL0     H66252   2.404  10.835   5.789 -0.8912  0.6045 -0.5002
  491MOL0     H66253   2.192  10.690   5.759 -1.4696 -0.9892  1.1950
  491MOL0     H66254   2.210  10.649   5.927 -1.6413 -0.2201 -0.1060
  491MOL0     H66255   2.210  10.949   5.849 -1.4710 -0.4529 -2.1638
  491MOL0     H66256   2.163  10.891   5.999 -3.2013  0.6437  0.8559
  491MOL0     H66257   2.011  10.818   5.747  2.4494 -0.6812  0.3677
  491MOL0     H66258   1.960  10.768   5.908 -1.5982 -1.1694 -1.9166
  491MOL0     H66259   1.978  11.062   5.832  0.5859 -0.8906  0.0939
  491MOL0     H66260   1.944  10.999   5.993  0.2522  2.0264  0.2994
  491MOL0     H66261   1.775  10.996   5.723 -1.9601 -0.3000  0.2323
  491MOL0     H66262   1.732  10.885   5.842 -2.5136  1.9348 -0.4910
  491MOL0     H66263   1.770  11.179   5.898 -0.3749  0.0387  0.3929
  491MOL0     H66264   1.705  11.053   6.008  1.8189 -1.7196 -0.9361
  491MOL0     H66265   1.508  11.019   5.839 -0.8985  1.9734 -1.7259
  491MOL0     H66266   1.567  11.161   5.746 -1.8229 -0.3798 -0.4838
  491MOL0     H66267   2.401  10.399   5.716 -2.0842  2.8411  3.6667
  491MOL0     H66268   2.555  10.211   5.737 -0.7585 -1.8825  2.3542
  491MOL0     H66269   3.004   9.984   5.676  1.3995  1.0162  0.4447
  491MOL0     H66270   3.196   9.856   5.746  0.9689  0.6234  0.5076
  491MOL0     H66271   3.961   9.148   5.446  2.5977 -1.4632 -0.1041
  491MOL0     H66272   4.058   9.130   5.198 -0.0276  2.6359  2.7786
  491MOL0     H66273   3.874   8.869   4.794  1.6305 -1.4819 -1.0786
  491MOL0     H66274   3.822   8.848   4.564  0.9444 -1.0974 -0.0813
  491MOL0     H66275   3.837   8.848   4.308 -0.3036  0.3044 -1.4706
  491MOL0     H66276   3.905   8.945   4.180  1.3094  0.3628 -0.4295
  491MOL0     H66277   4.076   8.801   4.221 -2.5134 -1.3987  0.4030
  491MOL0     H66278   4.093   8.822   4.393  2.4161 -2.1259 -1.0239
  491MOL0     H66279   4.196   9.038   4.386 -3.9492  2.7135 -0.4681
  491MOL0     H66280   4.124   9.081   4.237 -0.3382  0.3615  0.2323
  491MOL0     H66281   4.349   9.049   4.207 -0.2648  0.5082 -0.9732
  491MOL0     H66282   4.268   8.926   4.111 -0.9741 -3.4551  0.8661
  491MOL0     H66283   4.545   8.731   4.379 -0.8490  0.9842  3.3710
  491MOL0     H66284   3.990   9.220   4.471  1.0808 -0.0242 -0.9342
  491MOL0     H66285   4.013   9.280   4.718 -2.5412  1.5446 -1.2590
  492MOL0     O66286   3.048   7.430   7.412  0.3383  0.1459  0.1478
  492MOL0     C66287   3.158   7.411   7.366  0.4831 -0.2530 -0.4747
  492MOL0     O66288   3.274   7.389   7.431 -0.2842  0.3517  0.6659
  492MOL0     C66289   3.292   7.428   7.565 -0.0319 -0.5652 -0.5807
  492MOL0     C66290   3.420   7.395   7.619 -0.1985 -0.0558  0.0674
  492MOL0     C66291   3.461   7.428   7.743 -0.6545  0.6627  0.1382
  492MOL0     C66292   3.387   7.512   7.823 -0.9002 -0.5368  1.2203
  492MOL0     O66293   3.426   7.561   7.948  0.8526  0.3928 -0.3738
  492MOL0     C66294   3.555   7.619   7.947  0.9728  0.4358  0.1439
  492MOL0     C66295   3.580   7.691   8.072  0.1973  0.2605 -0.3966
  492MOL0     C66296   3.510   7.816   8.110  0.2697 -0.5259  0.0302
  492MOL0     C66297   3.559   7.941   8.031  0.1036  0.2323 -0.3307
  492MOL0     C66298   3.502   8.071   8.089 -0.0475 -0.5190  0.7226
  492MOL0     C66299   3.576   8.197   8.024 -0.1651 -0.0325  0.3889
  492MOL0     C66300   3.503   8.319   8.065 -0.2806 -0.5226 -1.1945
  492MOL0     C66301   3.391   8.362   7.975 -0.0304 -0.2435  0.4358
  492MOL0     N66302   3.314   8.484   8.017 -0.9540 -0.2744  1.3002
  492MOL0     C66303   3.251   8.575   7.930 -0.4868  0.1486 -0.8823
  492MOL0     C66304   3.192   8.664   8.013 -0.7977 -0.4797  0.2714
  492MOL0     C66305   3.131   8.788   7.942 -0.3946 -0.3855 -0.4896
  492MOL0     C66306   2.985   8.812   7.993 -0.2217  0.2783  1.2790
  492MOL0     C66307   2.882   8.841   7.885  0.3185  0.3052 -0.0803
  492MOL0     C66308   2.888   8.722   7.786  0.7056  0.5594  0.0273
  492MOL0     O66309   2.941   8.782   7.657  0.8361  0.4613  0.1440
  492MOL0     C66310   2.951   8.695   7.543  1.6855  0.9604 -0.5945
  492MOL0     C66311   2.921   8.554   7.524  0.7468 -0.0285 -0.6392
  492MOL0     C66312   2.918   8.496   7.399  0.7217  0.0824 -0.6236
  492MOL0     C66313   2.877   8.347   7.402  0.9207  0.0412 -0.1268
  492MOL0     C66314   2.926   8.574   7.288 -0.0929 -0.5480 -0.5301
  492MOL0     C66315   2.911   8.515   7.148 -0.7223 -0.7482  0.5353
  492MOL0     O66316   2.975   8.594   7.057 -0.7773 -0.0790  0.7555
  492MOL0     C66317   2.944   8.556   6.923 -0.2109 -0.4424 -0.1396
  492MOL0     C66318   2.839   8.617   6.851 -0.9420 -0.3482  0.3540
  492MOL0     C66319   2.821   8.581   6.720  0.5424  0.0088  0.6156
  492MOL0     C66320   2.896   8.483   6.661 -0.0905 -0.4509 -0.0845
  492MOL0     O66321   2.850   8.436   6.544 -0.4460  0.1424 -0.0885
  492MOL0     C66322   2.957   8.384   6.460  0.7934 -1.3463  0.0061
  492MOL0     C66323   2.908   8.348   6.322  0.0905  0.6394 -0.0323
  492MOL0     C66324   2.794   8.431   6.263 -0.6918  0.8488  0.3572
  492MOL0     C66325   2.750   8.378   6.122 -0.7173  0.0073  0.3061
  492MOL0     C66326   2.603   8.432   6.083  0.4889 -0.2033  0.0106
  492MOL0     C66327   2.478   8.384   6.172 -0.0474 -0.3146 -0.6430
  492MOL0     C66328   2.342   8.398   6.114  0.3843 -0.4746  0.3371
  492MOL0     C66329   2.238   8.340   6.210  0.2575  0.0455  0.5878
  492MOL0    Cl66330   2.108   8.262   6.103 -0.0155 -0.4462  0.1426
  492MOL0     C66331   3.001   8.425   6.731 -0.3178 -0.3358 -0.3230
  492MOL0     C66332   3.022   8.470   6.858 -0.2121  1.0980 -0.7641
  492MOL0     O66333   2.836   8.426   7.125 -0.5724  0.0498  0.0698
  492MOL0     C66334   2.968   8.713   7.306 -0.1486 -0.1100  0.1763
  492MOL0     C66335   2.976   8.765   7.430 -0.2417 -0.3173  0.0681
  492MOL0     N66336   3.221   8.628   8.143  1.0750  0.9248 -0.9614
  492MOL0     N66337   3.301   8.530   8.144  0.9279 -0.3652 -0.6161
  492MOL0     C66338   3.257   7.540   7.777 -0.3990 -0.0255 -0.8185
  492MOL0     C66339   3.214   7.496   7.654  0.1551 -0.2203  0.1855
  492MOL0     C66340   3.161   7.394   7.223 -0.0699  0.2789  0.1262
  492MOL0     C66341   3.281   7.332   7.162  0.2269  0.4322  0.0142
  492MOL0     C66342   3.287   7.319   7.025  0.5731 -0.4316 -0.2924
  492MOL0     C66343   3.170   7.352   6.951 -0.5368 -0.4992  1.0066
  492MOL0     O66344   3.168   7.329   6.816  0.2330  0.6472  0.1841
  492MOL0     C66345   3.154   7.191   6.772 -0.3424 -0.2216  0.6192
  492MOL0     C66346   3.007   7.156   6.743  1.0607 -0.7865  0.0242
  492MOL0     C66347   2.933   7.124   6.878 -0.1679  0.1506 -0.0865
  492MOL0     C66348   2.803   7.040   6.864 -0.5296 -0.6253 -0.6702
  492MOL0     C66349   2.688   7.122   6.824 -0.6650  0.5838  0.1629
  492MOL0     C66350   2.583   7.170   6.787  0.3562 -0.0491 -0.9664
  492MOL0     C66351   3.063   7.408   7.004  0.3849 -0.4568 -1.0022
  492MOL0     C66352   3.047   7.428   7.138 -0.2480 -0.3639  0.3085
  492MOL0     H66353   3.484   7.338   7.552  0.3073 -0.0137  0.5084
  492MOL0     H66354   3.557   7.411   7.790  0.0995 -0.3800 -1.6540
  492MOL0     H66355   3.630   7.540   7.936  0.1883 -0.9677  3.5827
  492MOL0     H66356   3.567   7.699   7.873  1.6506 -0.4806 -0.7732
  492MOL0     H66357   3.549   7.616   8.145 -2.0660 -1.2488 -2.7517
  492MOL0     H66358   3.687   7.711   8.079  0.5515 -0.3981 -2.8589
  492MOL0     H66359   3.401   7.810   8.117  0.3235  0.4186  3.3214
  492MOL0     H66360   3.535   7.832   8.215 -1.6903 -0.7144  0.5671
  492MOL0     H66361   3.666   7.945   8.053 -0.0281  0.4748  0.2908
  492MOL0     H66362   3.536   7.936   7.924 -0.6245  1.0708 -0.2222
  492MOL0     H66363   3.399   8.080   8.054  0.9366  2.8374 -1.8458
  492MOL0     H66364   3.508   8.068   8.198  3.4874  0.5312  0.7028
  492MOL0     H66365   3.675   8.195   8.070  1.4546 -0.8080 -2.8691
  492MOL0     H66366   3.594   8.181   7.917  0.1307 -0.9322  0.5610
  492MOL0     H66367   3.473   8.291   8.167 -0.3131 -1.1976 -1.3850
  492MOL0     H66368   3.573   8.403   8.064 -1.2411  0.2998 -1.5102
  492MOL0     H66369   3.319   8.280   7.979 -1.3688  0.8828  0.2971
  492MOL0     H66370   3.428   8.368   7.873  3.1570  0.0312  1.4961
  492MOL0     H66371   3.247   8.587   7.823 -3.5359  0.5890 -0.7979
  492MOL0     H66372   3.208   8.863   7.960  1.7903 -2.5654 -0.1254
  492MOL0     H66373   3.134   8.782   7.832 -0.1062  1.4770 -0.6106
  492MOL0     H66374   2.990   8.901   8.057  1.7800  1.9320 -1.0370
  492MOL0     H66375   2.955   8.731   8.059 -0.0225 -0.3411  0.6165
  492MOL0     H66376   2.897   8.935   7.832  2.5744 -0.0045 -0.0707
  492MOL0     H66377   2.781   8.852   7.926 -0.8218 -3.7682 -1.2349
  492MOL0     H66378   2.782   8.698   7.769  0.2666  0.9442  1.9834
  492MOL0     H66379   2.948   8.636   7.816 -0.2597  0.3846  1.5970
  492MOL0     H66380   2.889   8.509   7.618  2.3483  4.7383  2.5690
  492MOL0     H66381   2.934   8.274   7.344 -1.0448  1.2765 -3.8897
  492MOL0     H66382   2.871   8.319   7.508 -0.3058  3.6971  0.9159
  492MOL0     H66383   2.775   8.348   7.363  1.7419 -2.2048 -2.6314
  492MOL0     H66384   2.782   8.696   6.899 -1.0428  1.3774 -2.4000
  492MOL0     H66385   2.745   8.630   6.659 -0.9317 -1.1310  1.4979
  492MOL0     H66386   3.028   8.464   6.434  0.4886 -1.4178 -1.1230
  492MOL0     H66387   3.001   8.291   6.496  3.8209 -0.2324 -0.4975
  492MOL0     H66388   2.998   8.348   6.260 -0.9442  1.3651 -1.6192
  492MOL0     H66389   2.869   8.246   6.328 -2.5660  1.5901  0.4315
  492MOL0     H66390   2.846   8.527   6.261  0.3943  0.3152  1.4686
  492MOL0     H66391   2.712   8.439   6.336 -0.7910 -2.5085  0.7898
  492MOL0     H66392   2.815   8.419   6.045 -0.0555 -0.7406  0.4635
  492MOL0     H66393   2.753   8.269   6.121  2.9572 -0.0809 -3.2185
  492MOL0     H66394   2.581   8.401   5.980 -2.2430 -1.7536  0.9800
  492MOL0     H66395   2.620   8.539   6.067 -0.7056 -0.3089 -2.5732
  492MOL0     H66396   2.486   8.279   6.200  1.3951 -0.1253 -0.2658
  492MOL0     H66397   2.467   8.445   6.262  0.1126 -1.0787 -0.0909
  492MOL0     H66398   2.337   8.345   6.018  0.5496 -0.9754  0.6018
  492MOL0     H66399   2.316   8.504   6.099 -0.8182 -0.6036  1.3537
  492MOL0     H66400   2.196   8.413   6.279  2.2553 -0.5464  2.5540
  492MOL0     H66401   2.274   8.257   6.271 -0.9760 -1.7398 -1.0014
  492MOL0     H66402   3.067   8.350   6.687  1.7450  0.4852  1.2181
  492MOL0     H66403   3.117   8.444   6.903  0.2856 -0.4058 -2.5655
  492MOL0     H66404   2.981   8.777   7.219  0.4970  0.3505  0.6127
  492MOL0     H66405   3.011   8.868   7.428 -0.6546 -0.1794 -0.2107
  492MOL0     H66406   3.198   7.602   7.844  0.4003 -1.5817  1.4225
  492MOL0     H66407   3.113   7.523   7.625  0.1996  0.7684  0.9008
  492MOL0     H66408   3.356   7.280   7.220 -0.1052  0.2731  0.3037
  492MOL0     H66409   3.385   7.302   6.982  0.6934  0.8875 -0.5714
  492MOL0     H66410   3.197   7.178   6.672 -1.6185 -0.1939  0.0455
  492MOL0     H66411   3.204   7.125   6.844  0.9217 -0.5830 -0.5454
  492MOL0     H66412   3.007   7.064   6.683  1.7996 -0.1091 -1.0544
  492MOL0     H66413   2.958   7.234   6.684 -2.9012 -2.4520  0.7708
  492MOL0     H66414   2.909   7.217   6.931  1.8300  2.1574 -2.4691
  492MOL0     H66415   2.999   7.066   6.944 -1.5403 -0.7861  0.5055
  492MOL0     H66416   2.786   6.985   6.957  1.3024  0.8052  0.5801
  492MOL0     H66417   2.826   6.964   6.789 -0.0319 -1.7106  0.5471
  492MOL0     H66418   2.490   7.217   6.759  1.3247  3.5015  1.1847
  492MOL0     H66419   2.991   7.440   6.929  2.8615 -0.3577 -3.4701
  492MOL0     H66420   2.960   7.488   7.163 -0.0042  0.0160  0.2395
  493MOL0     O66421   2.569   6.548   3.778 -0.0944  0.1128 -0.2354
  493MOL0     C66422   2.495   6.595   3.866 -0.2196 -0.4401  0.0897
  493MOL0     O66423   2.543   6.673   3.976 -1.2323  0.1127  0.4595
  493MOL0     C66424   2.685   6.681   4.007 -0.0760 -0.6322  0.5379
  493MOL0     C66425   2.711   6.789   4.098 -0.1150  1.0122 -0.2751
  493MOL0     C66426   2.837   6.807   4.152  0.7423 -0.2189 -0.1544
  493MOL0     C66427   2.942   6.723   4.123 -0.0634 -0.8591 -0.0822
  493MOL0     O66428   3.062   6.761   4.179 -1.0384 -0.4807  0.0571
  493MOL0     C66429   3.182   6.694   4.123  0.3884 -0.1817 -0.3443
  493MOL0     C66430   3.316   6.749   4.171 -0.6303 -0.0061  0.1034
  493MOL0     C66431   3.439   6.679   4.117 -0.5224 -0.4166 -0.5424
  493MOL0     C66432   3.566   6.761   4.152 -0.4883  0.0661 -0.4766
  493MOL0     C66433   3.684   6.704   4.067  0.6745 -0.2291 -0.7977
  493MOL0     C66434   3.806   6.794   4.059  0.6262  0.5566 -0.5287
  493MOL0     C66435   3.926   6.725   4.120 -0.0154 -0.2700  0.1113
  493MOL0     C66436   4.047   6.819   4.131 -0.1429  0.2600  0.1036
  493MOL0     N66437   4.064   6.893   4.248 -0.3452 -1.6040  0.7687
  493MOL0     C66438   4.101   6.839   4.370  0.4838 -0.1290  0.4766
  493MOL0     C66439   4.133   6.945   4.446 -0.4503  0.6264  0.8306
  493MOL0     C66440   4.170   6.945   4.590 -0.8548  0.2673 -0.6940
  493MOL0     C66441   4.225   7.079   4.628  0.6350 -0.0300  0.2223
  493MOL0     C66442   4.283   7.098   4.770  0.0585  0.9642  0.0718
  493MOL0     C66443   4.284   7.246   4.824 -1.0704  0.9067 -0.4714
  493MOL0     O66444   4.290   7.236   4.968  0.3337  0.3597 -0.2847
  493MOL0     C66445   4.397   7.215   5.047 -0.0907 -0.2124  0.8015
  493MOL0     C66446   4.528   7.204   5.000  0.5047 -0.3521 -0.3878
  493MOL0     C66447   4.636   7.197   5.092  0.9417  0.1761 -0.7759
  493MOL0     C66448   4.774   7.190   5.041 -0.4193 -0.4568 -0.4084
  493MOL0     C66449   4.612   7.200   5.234 -1.4899 -0.0134 -0.7852
  493MOL0     C66450   4.716   7.207   5.337  1.2018  0.1009 -0.1022
  493MOL0     O66451   4.850   7.198   5.304  0.8676  0.4210  0.6788
  493MOL0     C66452   4.935   7.202   5.408 -0.2520 -0.1259  0.6163
  493MOL0     C66453   4.993   7.322   5.438  0.3944  1.7457  0.2670
  493MOL0     C66454   5.096   7.333   5.526  0.3591 -0.1133 -0.9219
  493MOL0     C66455   5.140   7.219   5.600 -0.6598 -0.4942 -0.7211
  493MOL0     O66456   5.237   7.228   5.696  0.3347 -0.8455 -0.4135
  493MOL0     C66457   5.236   7.148   5.816 -0.1751  0.6978  0.1347
  493MOL0     C66458   5.342   7.190   5.924 -0.3323  0.2769 -0.0347
  493MOL0     C66459   5.477   7.240   5.870  0.6881  0.8707  0.1976
  493MOL0     C66460   5.544   7.160   5.761  0.7664  1.8051  0.1854
  493MOL0     C66461   5.684   7.221   5.730 -0.9242  0.3231  0.2189
  493MOL0     C66462   5.783   7.174   5.833  0.1383 -0.7861  0.0881
  493MOL0     C66463   5.827   7.026   5.836 -0.1873 -0.5500  0.4672
  493MOL0     C66464   5.953   7.007   5.915  0.3042 -0.1765  0.2202
  493MOL0    Cl66465   6.099   7.064   5.835  0.1380  0.2173 -0.3223
  493MOL0     C66466   5.072   7.096   5.579  0.8665 -1.1537  0.4612
  493MOL0     C66467   4.970   7.085   5.481 -0.2819 -0.5145  0.8435
  493MOL0     O66468   4.679   7.229   5.450  1.3576  0.2153 -0.1056
  493MOL0     C66469   4.475   7.213   5.274 -0.9103 -0.4741 -0.6113
  493MOL0     C66470   4.373   7.221   5.186 -0.7650  0.0396  1.1959
  493MOL0     N66471   4.098   7.063   4.368  0.5727 -0.3197 -0.0596
  493MOL0     N66472   4.060   7.033   4.252 -0.3035 -0.5515  0.2940
  493MOL0     C66473   2.915   6.618   4.030  1.7015  0.1340  0.5454
  493MOL0     C66474   2.793   6.599   3.974  1.0838  0.4271  0.5215
  493MOL0     C66475   2.345   6.562   3.855 -0.0030  0.0613 -0.0771
  493MOL0     C66476   2.294   6.442   3.796  0.6913 -0.6248 -0.0930
  493MOL0     C66477   2.154   6.438   3.784 -0.1799  0.8134 -0.5931
  493MOL0     C66478   2.063   6.530   3.836 -0.8314 -0.7517  0.6876
  493MOL0     O66479   1.927   6.496   3.815 -0.3898  0.2690 -0.2572
  493MOL0     C66480   1.842   6.593   3.762 -0.9939  0.1499  0.6112
  493MOL0     C66481   1.716   6.611   3.848  0.4541  0.3010 -0.1339
  493MOL0     C66482   1.627   6.485   3.843 -0.5401 -0.0462  0.1721
  493MOL0     C66483   1.627   6.432   3.989 -0.2076 -0.3556 -0.7362
  493MOL0     C66484   1.551   6.306   4.027 -0.3229 -0.4888  0.7144
  493MOL0     C66485   1.487   6.207   4.051  0.5573  0.7047  0.0581
  493MOL0     C66486   2.121   6.637   3.901 -0.6238 -0.4643 -0.2655
  493MOL0     C66487   2.257   6.660   3.908  0.7241  0.6136 -0.7367
  493MOL0     H66488   2.619   6.843   4.121 -0.4062  0.2245  0.4601
  493MOL0     H66489   2.852   6.891   4.219 -4.5988  0.1685  1.0180
  493MOL0     H66490   3.182   6.591   4.160  1.8469 -0.3045 -0.5963
  493MOL0     H66491   3.184   6.681   4.015  1.6957 -2.8442 -0.0812
  493MOL0     H66492   3.323   6.857   4.157 -2.1002  0.3385  1.6771
  493MOL0     H66493   3.315   6.742   4.280 -1.8574  1.4926  0.2246
  493MOL0     H66494   3.442   6.576   4.153 -0.5514  0.1637  1.2585
  493MOL0     H66495   3.435   6.688   4.008 -0.2052  1.4028 -0.4448
  493MOL0     H66496   3.562   6.869   4.134 -0.2812  0.1323 -0.1293
  493MOL0     H66497   3.585   6.740   4.257  0.5120  1.6455 -0.3156
  493MOL0     H66498   3.702   6.606   4.112  1.6742 -0.8806 -2.5191
  493MOL0     H66499   3.653   6.692   3.962  0.5595  1.7550 -1.0410
  493MOL0     H66500   3.813   6.807   3.950 -3.0522 -0.2296 -0.9984
  493MOL0     H66501   3.794   6.887   4.116 -2.5308 -0.5519  0.8185
  493MOL0     H66502   3.899   6.678   4.216  0.6753 -0.3746  0.2546
  493MOL0     H66503   3.940   6.642   4.049 -1.2847 -2.1870  1.9605
  493MOL0     H66504   4.057   6.879   4.040 -0.1201 -1.0183 -0.7601
  493MOL0     H66505   4.134   6.754   4.119 -0.3089 -0.3969  2.0781
  493MOL0     H66506   4.126   6.738   4.401  6.3723  1.5890  2.9435
  493MOL0     H66507   4.079   6.928   4.647 -0.2715  1.4892  0.6503
  493MOL0     H66508   4.235   6.859   4.608 -2.2137 -0.4720  0.8979
  493MOL0     H66509   4.151   7.158   4.612  3.2931  2.5672 -0.1634
  493MOL0     H66510   4.308   7.097   4.559 -0.6111  0.3111 -1.2431
  493MOL0     H66511   4.382   7.054   4.782 -1.0880 -1.7392  0.3876
  493MOL0     H66512   4.224   7.044   4.845  3.7211 -3.9143 -0.0701
  493MOL0     H66513   4.189   7.287   4.788 -1.5538 -1.3102 -1.9084
  493MOL0     H66514   4.363   7.311   4.784 -0.0263  0.3072  0.5656
  493MOL0     H66515   4.546   7.190   4.894  0.1157  0.1236 -0.5224
  493MOL0     H66516   4.830   7.103   5.076 -0.2358  0.4885  1.7821
  493MOL0     H66517   4.767   7.189   4.931  0.4875  1.2621 -0.5102
  493MOL0     H66518   4.823   7.285   5.063 -0.2602 -0.8410  0.9827
  493MOL0     H66519   4.955   7.410   5.386 -2.9935  1.5194  2.0455
  493MOL0     H66520   5.141   7.431   5.538  1.8531 -0.8216 -0.5122
  493MOL0     H66521   5.139   7.163   5.864 -0.7802 -1.3306 -0.3456
  493MOL0     H66522   5.246   7.043   5.786 -3.8350  0.3571 -0.4366
  493MOL0     H66523   5.305   7.269   5.990 -1.0800  1.0527 -1.3214
  493MOL0     H66524   5.361   7.103   5.988 -0.2298  0.8683  0.7478
  493MOL0     H66525   5.549   7.228   5.952 -2.6924 -1.8993  3.0993
  493MOL0     H66526   5.483   7.345   5.842 -0.4394  0.5255 -1.4911
  493MOL0     H66527   5.556   7.053   5.777  0.4691  1.7745  0.2098
  493MOL0     H66528   5.481   7.179   5.673  0.0361 -1.0697 -0.0046
  493MOL0     H66529   5.665   7.329   5.731  0.9553  0.7257 -1.5351
  493MOL0     H66530   5.702   7.188   5.627 -1.5742  2.6744 -0.7247
  493MOL0     H66531   5.875   7.230   5.817  1.4136 -2.0616  2.4707
  493MOL0     H66532   5.743   7.196   5.932 -3.0066 -3.8203 -0.3096
  493MOL0     H66533   5.843   6.981   5.737 -0.5693 -1.8151  0.9586
  493MOL0     H66534   5.754   6.962   5.887 -1.8644  2.6792  2.4879
  493MOL0     H66535   5.959   6.899   5.930 -2.0199 -0.3671  0.0848
  493MOL0     H66536   5.944   7.062   6.009 -1.8147 -0.6211  0.3201
  493MOL0     H66537   5.091   7.008   5.640 -1.0400 -3.2818 -1.7886
  493MOL0     H66538   4.928   6.993   5.441 -0.3389 -0.1416  0.0254
  493MOL0     H66539   4.452   7.216   5.380  3.0685  0.4841  0.3991
  493MOL0     H66540   4.269   7.227   5.216 -0.5802  1.0200  1.7030
  493MOL0     H66541   2.992   6.550   3.994  0.1836 -1.4205  0.1411
  493MOL0     H66542   2.768   6.515   3.910 -2.1305 -0.3101  2.4794
  493MOL0     H66543   2.372   6.379   3.754  0.9240 -1.2929  1.2775
  493MOL0     H66544   2.127   6.345   3.735  0.5281  0.5364 -0.4717
  493MOL0     H66545   1.876   6.694   3.740 -0.3524 -0.4501 -1.3495
  493MOL0     H66546   1.820   6.558   3.661  0.8585  2.4072 -0.6767
  493MOL0     H66547   1.657   6.688   3.797  1.0458 -0.1928 -1.5798
  493MOL0     H66548   1.746   6.644   3.948  0.3065  0.3181 -0.0943
  493MOL0     H66549   1.667   6.411   3.773 -0.4507 -0.8014  1.0042
  493MOL0     H66550   1.531   6.524   3.809  0.4430  3.1779  0.7050
  493MOL0     H66551   1.601   6.518   4.051  3.3000  0.0361  0.4075
  493MOL0     H66552   1.730   6.407   4.014 -0.1611  1.6693  1.4450
  493MOL0     H66553   1.424   6.124   4.076  0.6825  1.2272  2.4028
  493MOL0     H66554   2.061   6.722   3.934  0.2740  1.5708 -3.3981
  493MOL0     H66555   2.287   6.749   3.963  2.2184 -0.3851  0.1612
  494MOL0     O66556  10.426   7.774   5.976 -0.3403  0.5079 -0.2870
  494MOL0     C66557  10.531   7.836   6.001 -0.5310 -0.3334 -0.1651
  494MOL0     O66558  10.658   7.788   5.976  0.7020 -0.5944  0.7085
  494MOL0     C66559  10.691   7.692   5.883 -0.1424 -0.8643 -0.5329
  494MOL0     C66560  10.820   7.632   5.890  0.7463 -0.6136  0.1636
  494MOL0     C66561  10.864   7.544   5.788  0.2029 -0.4139 -0.1940
  494MOL0     C66562  10.784   7.519   5.674  0.2781 -0.1827  0.0167
  494MOL0     O66563  10.828   7.426   5.580 -0.5913 -0.8679 -0.1701
  494MOL0     C66564  10.739   7.362   5.490 -0.1802  0.3265 -0.2665
  494MOL0     C66565  10.816   7.337   5.354  0.4236 -0.2347 -0.9071
  494MOL0     C66566  10.715   7.301   5.241 -0.7535  0.3556 -0.5968
  494MOL0     C66567  10.789   7.249   5.116 -0.2192 -0.5352  0.4600
  494MOL0     C66568  10.697   7.241   4.989 -0.0117  1.1600 -0.2380
  494MOL0     C66569  10.776   7.162   4.872  0.0247  0.0710 -0.3625
  494MOL0     C66570  10.912   7.221   4.839  0.0669 -0.2274  0.1755
  494MOL0     C66571  10.976   7.168   4.708 -1.0303 -0.8949  0.0267
  494MOL0     N66572  11.001   7.020   4.703 -0.6455 -0.1617  0.1818
  494MOL0     C66573  11.090   6.947   4.777 -0.0080  0.1639 -0.7334
  494MOL0     C66574  11.075   6.820   4.733  0.7575  0.1339  0.4856
  494MOL0     C66575  11.153   6.697   4.768  0.3340 -0.2566 -0.6506
  494MOL0     C66576  11.293   6.729   4.723  0.1110 -0.6683  0.1556
  494MOL0     C66577  11.380   6.600   4.734  0.7976 -1.1918 -0.3479
  494MOL0     C66578  11.526   6.650   4.712  0.0505  0.2352 -0.0598
  494MOL0     O66579  11.608   6.540   4.697  0.2815 -0.0924 -0.3258
  494MOL0     C66580  11.577   6.431   4.619 -0.5499  0.2808 -1.0240
  494MOL0     C66581  11.584   6.440   4.477 -1.6916 -1.0776 -0.5680
  494MOL0     C66582  11.562   6.340   4.386 -0.2875 -0.2752  0.2581
  494MOL0     C66583  11.576   6.382   4.236 -0.2834 -0.1934  0.2657
  494MOL0     C66584  11.525   6.209   4.449 -0.4968  0.4382  0.0663
  494MOL0     C66585  11.498   6.094   4.360  0.6028 -1.0770 -0.5631
  494MOL0     O66586  11.450   6.120   4.239 -0.4070  0.3834 -0.4753
  494MOL0     C66587  11.451   6.017   4.144  0.0215 -0.4666 -0.5150
  494MOL0     C66588  11.558   5.996   4.059  0.7405 -0.6811 -0.5911
  494MOL0     C66589  11.564   5.902   3.967 -0.0732  0.3477 -0.2789
  494MOL0     C66590  11.462   5.803   3.958  0.7778 -0.1629  0.5383
  494MOL0     O66591  11.456   5.700   3.869 -0.3296 -0.7579 -0.1461
  494MOL0     C66592  11.565   5.695   3.773  0.5133  0.1472  0.1864
  494MOL0     C66593  11.564   5.807   3.665  0.2390 -0.1017 -0.0006
  494MOL0     C66594  11.643   5.759   3.542  0.6503 -0.5433 -0.3520
  494MOL0     C66595  11.608   5.863   3.430 -0.3576 -0.3518  0.6114
  494MOL0     C66596  11.706   5.836   3.309 -0.7434 -0.0150  0.4315
  494MOL0     C66597  11.827   5.925   3.323 -0.6722 -0.3409  0.5547
  494MOL0     C66598  11.935   5.902   3.207  1.2500 -0.3974  0.5461
  494MOL0     C66599  11.929   6.032   3.108 -0.2761 -0.2483  0.0621
  494MOL0    Cl66600  12.048   6.136   3.186  0.2465  0.2952  0.0339
  494MOL0     C66601  11.355   5.810   4.050  0.5789 -0.7517 -0.2063
  494MOL0     C66602  11.345   5.919   4.145  0.1099  0.0313  0.3570
  494MOL0     O66603  11.508   5.983   4.410 -0.0314 -0.4567  0.7358
  494MOL0     C66604  11.533   6.196   4.594 -0.7165  0.1416  0.1464
  494MOL0     C66605  11.559   6.309   4.678  0.6507  0.9449  0.4165
  494MOL0     N66606  10.979   6.827   4.637 -0.0961  0.3294  0.1900
  494MOL0     N66607  10.926   6.943   4.627  0.4517 -0.1174  0.1010
  494MOL0     C66608  10.661   7.590   5.660 -0.3287  0.3174 -0.6260
  494MOL0     C66609  10.627   7.676   5.768 -0.3988  0.0311  0.1737
  494MOL0     C66610  10.508   7.936   6.103 -0.0909  1.3183 -0.1343
  494MOL0     C66611  10.377   7.971   6.136  0.1670 -0.2481 -0.1482
  494MOL0     C66612  10.366   8.073   6.236  0.0111  0.0216  0.2090
  494MOL0     C66613  10.476   8.135   6.300  1.9821  0.2503  0.8295
  494MOL0     O66614  10.448   8.239   6.382 -0.1273  0.2068  0.3145
  494MOL0     C66615  10.548   8.340   6.381 -0.0328 -1.0599  0.8856
  494MOL0     C66616  10.637   8.331   6.500 -0.3301 -0.1104  0.1590
  494MOL0     C66617  10.641   8.457   6.584 -0.3611  0.1349 -0.6869
  494MOL0     C66618  10.704   8.580   6.512  0.4492 -0.0434  0.0896
  494MOL0     C66619  10.725   8.683   6.612  0.4842 -0.4311 -0.1523
  494MOL0     C66620  10.724   8.760   6.709 -0.6159  0.0637  0.4910
  494MOL0     C66621  10.602   8.080   6.270  0.2843 -0.3491  0.2405
  494MOL0     C66622  10.626   7.990   6.168  0.2053  0.3504 -0.7583
  494MOL0     H66623  10.888   7.648   5.973  0.5374  0.8257  0.0820
  494MOL0     H66624  10.959   7.492   5.782 -0.8552 -2.3144 -1.5958
  494MOL0     H66625  10.699   7.276   5.546 -0.4048  0.6115  0.0218
  494MOL0     H66626  10.651   7.422   5.465 -1.1462  0.0969  2.2429
  494MOL0     H66627  10.861   7.431   5.320 -1.0199  0.3926 -1.1602
  494MOL0     H66628  10.887   7.255   5.361 -2.9603 -3.3596 -0.4297
  494MOL0     H66629  10.647   7.219   5.266 -0.0158 -0.4686 -1.2393
  494MOL0     H66630  10.649   7.387   5.225  2.7086  3.4550  0.3357
  494MOL0     H66631  10.876   7.312   5.097 -1.8609  1.2702 -1.4033
  494MOL0     H66632  10.833   7.153   5.146 -0.5202 -0.7877  0.0909
  494MOL0     H66633  10.610   7.177   5.004  3.1512 -3.0041  2.6066
  494MOL0     H66634  10.662   7.340   4.960  1.1121  2.2325  1.8695
  494MOL0     H66635  10.783   7.056   4.898 -2.6075  0.3843  2.1649
  494MOL0     H66636  10.743   7.160   4.768  0.9067 -1.7839 -0.6461
  494MOL0     H66637  10.899   7.329   4.835  1.5398  0.1323  2.7373
  494MOL0     H66638  10.988   7.204   4.916  2.7039  3.8965 -1.1511
  494MOL0     H66639  11.074   7.215   4.693 -0.1894 -2.3789  0.5713
  494MOL0     H66640  10.909   7.194   4.625  1.6885  2.2069 -1.4326
  494MOL0     H66641  11.154   6.972   4.862 -2.0929 -4.7996  2.7573
  494MOL0     H66642  11.140   6.662   4.871 -0.3985 -0.1220 -0.6860
  494MOL0     H66643  11.109   6.615   4.709 -0.6522 -0.3501  0.1827
  494MOL0     H66644  11.330   6.822   4.767 -3.5826  1.0896 -0.0722
  494MOL0     H66645  11.284   6.759   4.618 -1.3762 -0.5735  0.2918
  494MOL0     H66646  11.345   6.530   4.658 -2.4274 -0.0787 -0.0280
  494MOL0     H66647  11.383   6.562   4.837  0.5104 -0.7691 -0.1804
  494MOL0     H66648  11.566   6.707   4.795  2.1765 -0.4810 -0.5224
  494MOL0     H66649  11.532   6.709   4.620 -1.6130 -0.1183 -0.4243
  494MOL0     H66650  11.613   6.537   4.437 -0.3335 -0.6129  1.3999
  494MOL0     H66651  11.623   6.295   4.189  1.1743 -0.7105  2.5291
  494MOL0     H66652  11.480   6.387   4.184  1.4761  0.0495 -3.3027
  494MOL0     H66653  11.634   6.474   4.220 -0.5112  0.0378  0.7559
  494MOL0     H66654  11.634   6.074   4.056 -0.8942  0.9441 -2.2365
  494MOL0     H66655  11.651   5.893   3.903 -0.9416 -1.7615 -1.2547
  494MOL0     H66656  11.666   5.694   3.814  0.2646  1.1369  0.8539
  494MOL0     H66657  11.546   5.600   3.721 -0.1649 -0.2497  1.1109
  494MOL0     H66658  11.459   5.822   3.636  0.9265 -1.1696 -3.5810
  494MOL0     H66659  11.608   5.903   3.695 -0.7927  1.2191 -2.3558
  494MOL0     H66660  11.613   5.656   3.524  2.2543 -2.0060  3.9205
  494MOL0     H66661  11.750   5.752   3.567  0.0978 -0.4493  2.4488
  494MOL0     H66662  11.505   5.835   3.407 -0.4883 -0.4907  1.3396
  494MOL0     H66663  11.605   5.968   3.463 -1.2977 -0.4720  0.9417
  494MOL0     H66664  11.653   5.857   3.216 -0.4163  0.6320  0.3859
  494MOL0     H66665  11.735   5.731   3.311 -1.4446 -0.2120  1.4101
  494MOL0     H66666  11.797   6.030   3.329  2.9538  0.8984 -0.7270
  494MOL0     H66667  11.884   5.891   3.410  0.7854  1.1677  0.2467
  494MOL0     H66668  11.900   5.824   3.139 -3.0521  3.4482 -2.2047
  494MOL0     H66669  12.029   5.892   3.263  1.4526  1.4991  0.6227
  494MOL0     H66670  11.836   6.089   3.103  1.8831  3.6820  0.7599
  494MOL0     H66671  11.955   5.989   3.011  2.7912  0.3891  0.5167
  494MOL0     H66672  11.273   5.739   4.050  1.0318 -1.4233  2.6953
  494MOL0     H66673  11.270   5.928   4.223  1.3033 -2.1886  1.8843
  494MOL0     H66674  11.521   6.097   4.636  0.7895  0.8300  2.3347
  494MOL0     H66675  11.572   6.305   4.786  0.2267  0.5545  0.4588
  494MOL0     H66676  10.606   7.586   5.566  0.3803 -2.8775 -1.0118
  494MOL0     H66677  10.531   7.719   5.742 -1.1776 -1.3300  0.6909
  494MOL0     H66678  10.286   7.930   6.092 -2.5133  2.2781  2.5572
  494MOL0     H66679  10.269   8.121   6.249 -1.3310 -2.0999 -1.2040
  494MOL0     H66680  10.598   8.349   6.284 -0.1273  2.3670  1.0463
  494MOL0     H66681  10.487   8.430   6.391 -1.7860 -1.8823 -1.6318
  494MOL0     H66682  10.738   8.310   6.464 -1.1237  1.7440 -3.6763
  494MOL0     H66683  10.602   8.262   6.578 -2.5061 -1.4733 -1.8628
  494MOL0     H66684  10.700   8.425   6.671 -2.3398 -2.3109 -0.1333
  494MOL0     H66685  10.540   8.482   6.618 -1.6317 -3.2334 -1.5993
  494MOL0     H66686  10.650   8.612   6.422  0.3373  2.4440  0.9608
  494MOL0     H66687  10.806   8.558   6.479  0.3633 -0.7106  0.2421
  494MOL0     H66688  10.721   8.818   6.799  1.6408 -1.4917  1.6705
  494MOL0     H66689  10.685   8.111   6.333 -1.3462  0.6973  1.9435
  494MOL0     H66690  10.724   7.944   6.157  0.9248  0.4172  3.4162
  495MOL0     O66691   9.287   7.216  10.127 -0.0488 -0.8363 -0.7212
  495MOL0     C66692   9.328   7.221  10.244 -0.0905  0.9007 -0.2317
  495MOL0     O66693   9.397   7.124  10.305  0.0879  0.6039  0.4434
  495MOL0     C66694   9.427   7.009  10.237 -0.7265 -0.1874 -0.8489
  495MOL0     C66695   9.559   6.969  10.244 -0.0595  0.0372 -0.0370
  495MOL0     C66696   9.603   6.855  10.164 -0.8189 -0.4064 -0.2360
  495MOL0     C66697   9.520   6.782  10.085 -0.1534  0.3635  1.0440
  495MOL0     O66698   9.574   6.676  10.013  0.0463  0.1532  0.1072
  495MOL0     C66699   9.519   6.641   9.889 -0.5971 -0.7660 -0.4075
  495MOL0     C66700   9.607   6.535   9.826 -0.6789 -0.3250 -0.1472
  495MOL0     C66701   9.746   6.594   9.802  0.6490  1.4709  0.7565
  495MOL0     C66702   9.837   6.488   9.726  0.5534  0.1081 -0.0339
  495MOL0     C66703   9.977   6.544   9.707 -0.2583 -0.2021  0.8110
  495MOL0     C66704   9.978   6.674   9.618 -0.4359 -0.8897 -0.1899
  495MOL0     C66705  10.105   6.761   9.608 -0.6461 -0.0849  0.4369
  495MOL0     C66706  10.149   6.838   9.739 -0.0215  0.7207 -0.9290
  495MOL0     N66707  10.070   6.961   9.762  0.3741 -0.4411  0.4454
  495MOL0     C66708   9.945   6.961   9.815  0.0158  0.7057  0.1765
  495MOL0     C66709   9.911   7.088   9.835 -0.6084 -0.1573  0.7383
  495MOL0     C66710   9.788   7.137   9.905  0.2797  0.9782 -0.1733
  495MOL0     C66711   9.684   7.201   9.810 -0.3457  0.8527 -0.8221
  495MOL0     C66712   9.545   7.199   9.879 -0.0536  1.2297  0.8384
  495MOL0     C66713   9.457   7.081   9.856 -0.6801  0.0773 -0.2801
  495MOL0     O66714   9.431   7.062   9.720 -0.8617 -0.5447  0.0875
  495MOL0     C66715   9.405   6.943   9.676  0.0093  0.7393 -0.6162
  495MOL0     C66716   9.281   6.878   9.708 -0.8783  0.2594 -0.1207
  495MOL0     C66717   9.250   6.747   9.656 -0.9885 -0.7818  0.9005
  495MOL0     C66718   9.135   6.675   9.721 -0.3376  0.1576  0.4053
  495MOL0     C66719   9.340   6.692   9.547  0.3375  0.2644  0.1547
  495MOL0     C66720   9.308   6.567   9.462  0.3876  0.4059 -0.2356
  495MOL0     O66721   9.403   6.534   9.375  0.0944  0.3185  0.2682
  495MOL0     C66722   9.411   6.403   9.353 -0.2118 -0.0813 -0.8591
  495MOL0     C66723   9.327   6.327   9.270 -0.6761 -1.2898  0.6082
  495MOL0     C66724   9.328   6.187   9.281 -0.2617  0.4662  0.1101
  495MOL0     C66725   9.401   6.114   9.380 -0.3262  0.4950  0.6731
  495MOL0     O66726   9.407   5.978   9.398 -0.2180 -0.4986 -0.7590
  495MOL0     C66727   9.547   5.939   9.384 -0.4982  1.1409  1.0314
  495MOL0     C66728   9.547   5.782   9.370 -0.1810  0.2707 -0.1532
  495MOL0     C66729   9.523   5.705   9.505 -0.2850  0.4287  0.6349
  495MOL0     C66730   9.486   5.563   9.480  0.0248 -0.2183 -0.1839
  495MOL0     C66731   9.404   5.507   9.606  0.1532 -0.1575  0.7866
  495MOL0     C66732   9.436   5.361   9.630  0.6003  0.4080 -0.2856
  495MOL0     C66733   9.398   5.291   9.766 -0.7735 -0.6343  0.0438
  495MOL0     C66734   9.257   5.223   9.763 -0.5892  0.0310  0.0153
  495MOL0    Cl66735   9.254   5.092   9.648  0.0406  0.3196  0.4351
  495MOL0     C66736   9.485   6.186   9.448 -0.0957  0.2681 -0.7903
  495MOL0     C66737   9.496   6.325   9.438  0.0420 -0.7340 -0.2641
  495MOL0     O66738   9.195   6.528   9.458  0.8136 -0.2488 -0.0641
  495MOL0     C66739   9.455   6.766   9.520 -0.0447  0.2966  0.3891
  495MOL0     C66740   9.489   6.881   9.588 -0.1852 -0.1092 -0.1457
  495MOL0     N66741  10.012   7.161   9.773  0.3063 -0.1509  0.0894
  495MOL0     N66742  10.115   7.088   9.744  0.3592  0.1566  0.0057
  495MOL0     C66743   9.385   6.813  10.093 -0.3833 -0.0831 -0.2074
  495MOL0     C66744   9.345   6.929  10.161  0.9781 -0.2713 -0.0321
  495MOL0     C66745   9.313   7.347  10.319  0.5500 -0.9115 -0.6930
  495MOL0     C66746   9.363   7.358  10.452 -0.1317 -0.2433  1.0487
  495MOL0     C66747   9.348   7.480  10.522 -0.7349  1.1320  0.3771
  495MOL0     C66748   9.298   7.590  10.460  1.1304 -0.8122  0.0559
  495MOL0     O66749   9.301   7.704  10.537 -0.0164  0.1754  0.5919
  495MOL0     C66750   9.295   7.836  10.480  0.0360 -0.0896  0.4652
  495MOL0     C66751   9.347   7.946  10.571 -0.5692  0.2700 -0.2190
  495MOL0     C66752   9.284   8.083  10.534  0.0754 -0.6906 -0.4705
  495MOL0     C66753   9.384   8.198  10.542  0.5446 -0.0027  0.2663
  495MOL0     C66754   9.496   8.182  10.454 -0.2460 -0.1001  0.0838
  495MOL0     C66755   9.600   8.188  10.390  0.1133  0.7079  0.2965
  495MOL0     C66756   9.242   7.576  10.337 -0.2774  0.5448 -0.2737
  495MOL0     C66757   9.240   7.455  10.269 -0.0595 -0.1190  0.9984
  495MOL0     H66758   9.645   7.018  10.286  1.2644 -1.5689 -0.7449
  495MOL0     H66759   9.708   6.829  10.154 -0.5605  0.3146  0.5391
  495MOL0     H66760   9.414   6.610   9.885 -1.7364  2.5403  0.6841
  495MOL0     H66761   9.530   6.733   9.831  2.5872 -1.7745 -1.6215
  495MOL0     H66762   9.625   6.453   9.895 -0.4551 -0.4446 -0.3472
  495MOL0     H66763   9.564   6.499   9.731  1.4493 -4.1955  0.1779
  495MOL0     H66764   9.741   6.673   9.727  1.6903 -1.2079 -2.3691
  495MOL0     H66765   9.787   6.641   9.892  0.2658 -0.3049  1.9239
  495MOL0     H66766   9.842   6.399   9.789 -2.4291  0.5902  1.0299
  495MOL0     H66767   9.813   6.460   9.623  1.7257  0.1992 -0.3430
  495MOL0     H66768  10.024   6.550   9.806 -1.7032  0.1063  1.4978
  495MOL0     H66769  10.033   6.473   9.645  2.6753  0.3629  2.5883
  495MOL0     H66770   9.941   6.644   9.520 -1.3755 -0.7001  0.0943
  495MOL0     H66771   9.907   6.754   9.641 -1.4973 -0.7423 -3.4848
  495MOL0     H66772  10.180   6.694   9.563 -3.5835 -3.0244 -0.4871
  495MOL0     H66773  10.085   6.836   9.532 -0.8393 -0.4607  0.1136
  495MOL0     H66774  10.256   6.860   9.736  0.6685 -2.0189  0.4225
  495MOL0     H66775  10.131   6.772   9.824  0.7372  1.1464 -0.4326
  495MOL0     H66776   9.879   6.882   9.850 -0.2290  1.6848  2.0824
  495MOL0     H66777   9.729   7.058   9.953  1.3355  0.7631  0.8227
  495MOL0     H66778   9.816   7.199   9.991  2.9177 -2.3367  1.6153
  495MOL0     H66779   9.683   7.152   9.712  0.0218  0.3970 -0.6012
  495MOL0     H66780   9.710   7.306   9.798 -1.7476  1.2283 -0.8153
  495MOL0     H66781   9.490   7.291   9.856  0.0521  0.9982 -0.4303
  495MOL0     H66782   9.552   7.219   9.986 -4.5188 -0.2289  1.6265
  495MOL0     H66783   9.361   7.108   9.902 -1.3809  0.9783 -2.1690
  495MOL0     H66784   9.493   6.982   9.887  1.1719 -0.1907 -2.9638
  495MOL0     H66785   9.217   6.920   9.785 -0.6055 -0.9491  0.7934
  495MOL0     H66786   9.133   6.686   9.829  1.9888 -3.8131  1.0482
  495MOL0     H66787   9.041   6.708   9.674  0.0030 -1.1769 -1.3435
  495MOL0     H66788   9.150   6.567   9.718 -2.4782 -0.2706  2.4073
  495MOL0     H66789   9.259   6.380   9.204  2.8761  0.9386 -1.6082
  495MOL0     H66790   9.255   6.135   9.220 -1.2943  0.6331  1.1604
  495MOL0     H66791   9.593   5.968   9.290 -1.7816  0.9075  0.3059
  495MOL0     H66792   9.605   5.974   9.470 -1.2415  2.7222  0.9161
  495MOL0     H66793   9.477   5.762   9.288  1.1277 -0.6126 -1.0840
  495MOL0     H66794   9.644   5.748   9.334 -0.1045 -1.7775  1.8058
  495MOL0     H66795   9.436   5.754   9.550 -1.5691  0.8249 -2.0482
  495MOL0     H66796   9.615   5.712   9.563  0.2801  1.2416 -0.3271
  495MOL0     H66797   9.417   5.557   9.395  0.2953  1.6401 -0.5639
  495MOL0     H66798   9.582   5.518   9.451  1.3244  3.5500 -2.4431
  495MOL0     H66799   9.296   5.519   9.593  0.4528  3.1925  0.4214
  495MOL0     H66800   9.430   5.561   9.697  4.1244 -0.0150 -0.2430
  495MOL0     H66801   9.395   5.297   9.551  1.1109  0.4169 -0.5627
  495MOL0     H66802   9.542   5.345   9.608 -0.0117 -1.7843 -1.9762
  495MOL0     H66803   9.403   5.361   9.849  8.4960  0.3957 -0.4238
  495MOL0     H66804   9.470   5.210   9.782  1.8219  1.4589 -0.3724
  495MOL0     H66805   9.175   5.290   9.738  0.3874  0.8101 -1.2788
  495MOL0     H66806   9.238   5.184   9.863 -0.0508 -0.1746  0.0457
  495MOL0     H66807   9.544   6.154   9.533 -0.2239  1.1813 -0.3416
  495MOL0     H66808   9.559   6.381   9.507 -1.6601  0.4645  0.3758
  495MOL0     H66809   9.520   6.737   9.438  0.9266  2.9991  0.1131
  495MOL0     H66810   9.575   6.931   9.544 -0.6869  1.3205  0.4337
  495MOL0     H66811   9.318   6.743  10.044 -1.3765 -0.9574  2.2585
  495MOL0     H66812   9.239   6.954  10.161  0.6137 -1.6596  0.9085
  495MOL0     H66813   9.407   7.268  10.493  0.7914 -1.8921 -3.0289
  495MOL0     H66814   9.377   7.477  10.627 -2.6196 -0.7018  0.9273
  495MOL0     H66815   9.336   7.851  10.379 -0.5806  2.7838  0.5671
  495MOL0     H66816   9.189   7.860  10.465  0.5723  2.0234 -0.2010
  495MOL0     H66817   9.456   7.950  10.568 -0.6267  2.1593 -1.4334
  495MOL0     H66818   9.319   7.925  10.674 -1.6870 -3.3617 -1.1188
  495MOL0     H66819   9.209   8.101  10.611  1.3383  0.1172  0.6205
  495MOL0     H66820   9.236   8.082  10.435  2.7601 -0.1554 -1.8689
  495MOL0     H66821   9.423   8.210  10.643 -0.6788  0.1654  0.7353
  495MOL0     H66822   9.331   8.290  10.515  1.4774  0.8229  1.1856
  495MOL0     H66823   9.682   8.169  10.323  0.0128 -3.1161  1.0047
  495MOL0     H66824   9.185   7.659  10.296 -0.6458 -0.4762 -1.9038
  495MOL0     H66825   9.191   7.446  10.173  2.0054 -0.8126 -0.0658
  496MOL0     O66826   7.008  11.079  10.445  0.8436  0.0243  0.0527
  496MOL0     C66827   7.043  11.059  10.566  0.2701 -0.0915  0.2497
  496MOL0     O66828   7.030  11.155  10.664  1.1314 -0.4480 -0.4628
  496MOL0     C66829   7.051  11.289  10.644 -0.1052  0.3929  0.0541
  496MOL0     C66830   7.047  11.371  10.759  0.2654  0.6653 -0.2921
  496MOL0     C66831   7.072  11.511  10.739  0.0157 -0.2451  0.0461
  496MOL0     C66832   7.086  11.575  10.618  0.3945 -0.1205  0.6955
  496MOL0     O66833   7.111  11.708  10.609  0.0109  0.0688 -0.9760
  496MOL0     C66834   7.013  11.781  10.535 -0.3269  0.5205 -0.1459
  496MOL0     C66835   6.864  11.771  10.592 -0.2481 -0.5639  0.3087
  496MOL0     C66836   6.765  11.841  10.493  0.1022  0.3066 -0.1360
  496MOL0     C66837   6.619  11.811  10.545 -0.0822  0.4372 -0.1623
  496MOL0     C66838   6.520  11.787  10.430  0.9283 -0.0698  0.3185
  496MOL0     C66839   6.377  11.750  10.485 -0.2510 -0.5842  0.1488
  496MOL0     C66840   6.298  11.863  10.552  0.2205 -0.4594 -1.4741
  496MOL0     C66841   6.163  11.815  10.611  0.8618 -0.2468  0.9249
  496MOL0     N66842   6.070  11.924  10.664 -0.1631 -0.4349  1.0480
  496MOL0     C66843   6.118  12.054  10.686 -0.5122 -0.2489  0.0819
  496MOL0     C66844   6.043  12.114  10.772 -0.5182  0.1093 -0.1748
  496MOL0     C66845   6.058  12.253  10.836  0.0120  0.1964  0.3657
  496MOL0     C66846   6.048  12.265  10.990 -0.4183 -0.7444  0.2564
  496MOL0     C66847   5.957  12.377  11.060 -0.1760 -0.3132  1.0912
  496MOL0     C66848   6.036  12.509  11.068  0.2229  0.9502 -0.3412
  496MOL0     O66849   5.944  12.609  11.107  0.4661 -0.6100  0.1025
  496MOL0     C66850   5.980  12.739  11.073 -1.2420 -0.4108 -0.2171
  496MOL0     C66851   6.111  12.779  11.031 -0.6897 -1.0444 -0.3751
  496MOL0     C66852   6.137  12.913  11.002 -0.9970 -0.4307 -1.4462
  496MOL0     C66853   6.286  12.941  10.975  0.4168  0.1696 -0.2791
  496MOL0     C66854   6.028  13.007  11.003  0.1186  0.1801 -0.0374
  496MOL0     C66855   6.046  13.153  10.979  0.3543  0.7364  0.5083
  496MOL0     O66856   6.159  13.198  10.945 -1.1314  0.8949  0.2829
  496MOL0     C66857   6.201  13.330  10.944 -0.1461  0.6457  0.6036
  496MOL0     C66858   6.325  13.364  11.007  0.9482  0.5062 -0.0261
  496MOL0     C66859   6.379  13.493  10.985  0.1699 -0.2176 -0.1914
  496MOL0     C66860   6.314  13.591  10.922  0.0267 -0.0499  0.5730
  496MOL0     O66861   6.361  13.719  10.912  0.1595 -0.1861  0.0497
  496MOL0     C66862   6.461  13.756  10.993  0.0024 -0.4476  0.7610
  496MOL0     C66863   6.490  13.909  10.955  0.0204  0.2524  1.2786
  496MOL0     C66864   6.631  13.941  11.002  0.8230  1.4180 -0.0191
  496MOL0     C66865   6.641  14.084  11.033 -0.0891 -0.3944  0.2009
  496MOL0     C66866   6.776  14.116  11.104  0.0094 -0.1375  0.6771
  496MOL0     C66867   6.792  14.267  11.146  0.8555  0.5010  0.5789
  496MOL0     C66868   6.913  14.297  11.236  0.4500  0.1483  0.3745
  496MOL0     C66869   6.969  14.432  11.204 -0.5078 -0.0356 -1.0019
  496MOL0    Cl66870   7.119  14.436  11.293 -0.5193  0.7148 -0.3543
  496MOL0     C66871   6.185  13.563  10.865 -0.0105 -0.2822 -1.0728
  496MOL0     C66872   6.123  13.436  10.880  0.3955  0.0248  0.0913
  496MOL0     O66873   5.952  13.222  11.002  0.3453 -0.6959 -0.3682
  496MOL0     C66874   5.901  12.959  11.054 -0.1040 -0.4730  0.7845
  496MOL0     C66875   5.878  12.827  11.079  1.1826  0.1000  0.0186
  496MOL0     N66876   5.954  12.025  10.815 -0.2297  0.6144 -0.0580
  496MOL0     N66877   5.965  11.911  10.746 -0.0695  0.0296  0.2492
  496MOL0     C66878   7.083  11.497  10.510  0.5342 -0.0610 -0.6705
  496MOL0     C66879   7.079  11.354  10.518  0.6987 -0.4191 -0.4652
  496MOL0     C66880   7.095  10.927  10.613 -0.5940  0.0116  0.8486
  496MOL0     C66881   7.136  10.822  10.527 -0.2306  0.2245 -0.1698
  496MOL0     C66882   7.183  10.701  10.582  0.6090 -0.1632  0.2399
  496MOL0     C66883   7.204  10.687  10.717 -0.0120 -0.6427 -0.3644
  496MOL0     O66884   7.274  10.569  10.754  0.0424 -0.2586 -0.7642
  496MOL0     C66885   7.261  10.526  10.897 -0.5993  0.3054  0.1667
  496MOL0     C66886   7.348  10.405  10.921 -0.2143  0.3665 -0.3637
  496MOL0     C66887   7.351  10.356  11.071 -0.2139 -0.6622  0.2051
  496MOL0     C66888   7.236  10.255  11.118 -0.1329  0.7083 -0.3454
  496MOL0     C66889   7.107  10.328  11.114  1.4660  0.3045  0.1059
  496MOL0     C66890   6.993  10.380  11.112  0.2406  0.5934 -0.6817
  496MOL0     C66891   7.157  10.790  10.806  0.0159  0.2449  0.5497
  496MOL0     C66892   7.096  10.905  10.751 -0.5622 -0.2640 -1.0716
  496MOL0     H66893   7.028  11.332  10.859 -1.7268 -1.8241 -1.5003
  496MOL0     H66894   7.064  11.579  10.823  3.8136  0.0416  0.3788
  496MOL0     H66895   7.047  11.885  10.538 -1.3715  0.8396  2.6618
  496MOL0     H66896   7.022  11.743  10.432  1.0282  3.4630 -1.2086
  496MOL0     H66897   6.843  11.664  10.595 -0.1556 -0.6920 -1.7992
  496MOL0     H66898   6.877  11.820  10.689 -2.1023  2.7909 -0.9615
  496MOL0     H66899   6.787  11.948  10.493 -0.7519  0.5030 -1.4596
  496MOL0     H66900   6.780  11.811  10.389 -1.6136  0.2935 -0.4162
  496MOL0     H66901   6.625  11.722  10.610  3.6231  0.3794 -0.3535
  496MOL0     H66902   6.586  11.896  10.606  1.5709  0.8320  0.2201
  496MOL0     H66903   6.509  11.869  10.358  0.6397 -0.7861 -0.4778
  496MOL0     H66904   6.565  11.700  10.381  0.4523 -1.1623  1.7151
  496MOL0     H66905   6.319  11.736  10.393 -1.1184  3.0081 -0.0095
  496MOL0     H66906   6.389  11.657  10.541  4.3150 -0.6322 -0.4836
  496MOL0     H66907   6.356  11.905  10.633  0.2299  0.5849 -2.0065
  496MOL0     H66908   6.280  11.933  10.470 -2.6618  1.0418  0.2619
  496MOL0     H66909   6.185  11.751  10.697 -0.4320 -0.4698  1.1098
  496MOL0     H66910   6.104  11.760  10.537  1.1248  0.3172  0.2964
  496MOL0     H66911   6.212  12.095  10.650 -0.6322  1.1293  1.2535
  496MOL0     H66912   6.158  12.282  10.804  0.1472 -0.8919 -0.2454
  496MOL0     H66913   5.984  12.315  10.784 -0.3574  0.2712  0.9657
  496MOL0     H66914   6.149  12.268  11.033  0.5462 -2.2805 -1.7127
  496MOL0     H66915   5.996  12.174  11.020 -2.5938 -0.6538 -2.7463
  496MOL0     H66916   5.909  12.354  11.156  1.5651 -1.1826  1.7889
  496MOL0     H66917   5.877  12.383  10.985  2.3970 -0.7430 -1.9203
  496MOL0     H66918   6.061  12.521  10.962  2.0227  0.3136 -0.0108
  496MOL0     H66919   6.122  12.504  11.134 -0.8859 -2.2822  1.0996
  496MOL0     H66920   6.192  12.710  11.010  0.7931  0.8696 -1.3783
  496MOL0     H66921   6.294  12.973  10.871 -2.2134 -0.2903 -0.6747
  496MOL0     H66922   6.321  13.031  11.027  0.6705  0.4201 -0.8658
  496MOL0     H66923   6.351  12.855  10.993 -0.0957 -0.6912 -2.2995
  496MOL0     H66924   6.379  13.288  11.063 -2.6438 -2.4906 -0.2533
  496MOL0     H66925   6.464  13.522  11.045 -0.3699  0.2396  0.3644
  496MOL0     H66926   6.442  13.742  11.100  0.4525  1.5209  1.1258
  496MOL0     H66927   6.544  13.694  10.955 -0.8454 -0.9097 -0.3955
  496MOL0     H66928   6.484  13.926  10.847 -0.0478 -0.5352  1.1531
  496MOL0     H66929   6.411  13.973  10.996 -0.3319 -0.7712  2.2582
  496MOL0     H66930   6.705  13.917  10.925  2.5259  1.0893  1.6324
  496MOL0     H66931   6.665  13.876  11.083  3.5627  2.2713 -0.3627
  496MOL0     H66932   6.631  14.150  10.947 -0.8920 -1.7012 -0.7327
  496MOL0     H66933   6.563  14.110  11.105  1.0771  2.8173  0.5061
  496MOL0     H66934   6.852  14.100  11.027 -1.2892  0.7341 -0.8591
  496MOL0     H66935   6.793  14.055  11.194 -0.9570  2.7587  2.9775
  496MOL0     H66936   6.808  14.328  11.057 -0.1173 -1.4284 -0.9963
  496MOL0     H66937   6.709  14.297  11.210  1.4910 -0.2547  1.8164
  496MOL0     H66938   6.992  14.224  11.217 -1.2552 -1.5489 -0.5881
  496MOL0     H66939   6.879  14.289  11.339 -1.7177  2.4936 -0.0510
  496MOL0     H66940   6.913  14.523  11.222  3.6116  2.3067  1.4313
  496MOL0     H66941   7.001  14.422  11.099  1.5395 -2.7178 -0.2497
  496MOL0     H66942   6.127  13.643  10.819 -1.7998 -0.9445 -0.0743
  496MOL0     H66943   6.022  13.425  10.841 -0.2994  1.8726  1.2539
  496MOL0     H66944   5.817  13.027  11.062 -0.6707 -0.7919 -1.6608
  496MOL0     H66945   5.773  12.809  11.099  1.5363 -1.0714  0.8927
  496MOL0     H66946   7.100  11.541  10.412 -2.7789 -0.0749 -1.3794
  496MOL0     H66947   7.085  11.299  10.425 -0.3926 -0.1423 -0.7153
  496MOL0     H66948   7.135  10.829  10.419 -2.3848  2.5129 -0.1026
  496MOL0     H66949   7.209  10.613  10.524  0.1808  0.1845 -0.4978
  496MOL0     H66950   7.285  10.601  10.973 -0.4066  0.6061 -0.1895
  496MOL0     H66951   7.156  10.505  10.922 -0.5577  2.0380  2.1120
  496MOL0     H66952   7.447  10.434  10.885 -0.5626  1.6026 -0.3832
  496MOL0     H66953   7.310  10.328  10.854  0.8465  0.7289 -1.4197
  496MOL0     H66954   7.336  10.445  11.134 -2.5483 -1.9531  1.5836
  496MOL0     H66955   7.446  10.311  11.103 -2.0384 -2.5653  3.4260
  496MOL0     H66956   7.251  10.234  11.224 -0.1050  1.2064 -0.2465
  496MOL0     H66957   7.233  10.156  11.073 -1.2708 -0.1578  1.5257
  496MOL0     H66958   6.889  10.405  11.109 -0.7664 -3.0682 -0.3701
  496MOL0     H66959   7.162  10.775  10.914 -0.2195  1.1233  0.6845
  496MOL0     H66960   7.063  10.980  10.822 -2.0656  0.5702 -2.5931
  497MOL0     O66961   9.731  11.308  11.262  0.2545  0.0512  1.0653
  497MOL0     C66962   9.746  11.282  11.142 -0.9870  0.5050 -0.9407
  497MOL0     O66963   9.723  11.365  11.036 -0.3452 -0.5433 -0.5358
  497MOL0     C66964   9.651  11.481  11.051  0.6426  0.8622  0.6516
  497MOL0     C66965   9.525  11.471  11.102  0.5976 -1.4301  0.6517
  497MOL0     C66966   9.457  11.598  11.112 -0.4787 -0.4328 -1.5679
  497MOL0     C66967   9.509  11.710  11.051  0.0060  0.0719  0.5895
  497MOL0     O66968   9.449  11.837  11.053  0.0299 -0.4469  0.1112
  497MOL0     C66969   9.307  11.850  11.069 -0.2982 -0.3263 -0.7280
  497MOL0     C66970   9.278  11.934  11.199 -0.5287  0.2108 -0.4867
  497MOL0     C66971   9.137  11.989  11.192  0.5704 -0.1774  0.4314
  497MOL0     C66972   9.027  11.880  11.190 -0.3291  0.7124  0.3404
  497MOL0     C66973   8.890  11.927  11.232  0.5338  0.6166  0.1688
  497MOL0     C66974   8.781  11.826  11.208  0.2052  0.1046 -0.4903
  497MOL0     C66975   8.804  11.681  11.275  0.0091  0.3197  0.9819
  497MOL0     C66976   8.706  11.576  11.237 -0.1639  0.1886  0.3153
  497MOL0     N66977   8.722  11.493  11.114  0.1216  0.1381  0.1306
  497MOL0     C66978   8.797  11.383  11.103  0.2902 -1.1242  0.6023
  497MOL0     C66979   8.756  11.330  10.982  0.6973 -0.1437  0.5432
  497MOL0     C66980   8.802  11.202  10.911  0.7244  0.5570 -0.7853
  497MOL0     C66981   8.780  11.074  11.003 -0.5336 -0.3731  0.4773
  497MOL0     C66982   8.634  11.034  11.037  0.2885  1.0058 -0.1104
  497MOL0     C66983   8.621  10.888  11.059 -0.1779 -0.2989 -0.4153
  497MOL0     O66984   8.603  10.824  10.937  0.4604 -0.2610 -0.8110
  497MOL0     C66985   8.638  10.692  10.924 -0.9494  0.3879 -0.1440
  497MOL0     C66986   8.685  10.640  10.799 -0.4530 -0.4773  0.4243
  497MOL0     C66987   8.705  10.505  10.778  0.0432 -0.2656  0.0065
  497MOL0     C66988   8.719  10.473  10.631 -0.0321 -0.3957  0.4992
  497MOL0     C66989   8.698  10.412  10.887  0.2707  0.4730  0.3616
  497MOL0     C66990   8.726  10.261  10.887  0.1442  0.0782 -0.2201
  497MOL0     O66991   8.789  10.203  10.769  0.2265  0.0826  0.2539
  497MOL0     C66992   8.796  10.059  10.771  0.2122  0.5112  0.3621
  497MOL0     C66993   8.914   9.993  10.807  0.1957 -0.2590 -0.8305
  497MOL0     C66994   8.921   9.853  10.806  0.6270 -0.4846  0.0750
  497MOL0     C66995   8.812   9.775  10.778 -1.0959 -0.1873 -0.1356
  497MOL0     O66996   8.830   9.639  10.792 -0.8639 -0.1922 -0.6158
  497MOL0     C66997   8.732   9.572  10.866  0.2892 -0.1932 -0.1051
  497MOL0     C66998   8.804   9.436  10.872  0.2390 -0.2478  0.1744
  497MOL0     C66999   8.699   9.317  10.910 -0.2777 -1.0846 -0.0803
  497MOL0     C67000   8.603   9.286  10.799 -0.3938 -0.0724  0.5086
  497MOL0     C67001   8.537   9.148  10.798 -0.3434 -0.2950 -0.4028
  497MOL0     C67002   8.644   9.031  10.811 -0.1521 -0.2770 -0.6360
  497MOL0     C67003   8.581   8.897  10.783  0.0733 -0.8500  0.4293
  497MOL0     C67004   8.690   8.782  10.786  0.3732 -0.5832  0.3285
  497MOL0    Cl67005   8.775   8.757  10.621  0.2224 -0.0566 -0.5400
  497MOL0     C67006   8.690   9.836  10.738 -0.3717 -0.6958 -0.3182
  497MOL0     C67007   8.680   9.982  10.735  0.0350 -1.5176  0.3296
  497MOL0     O67008   8.699  10.197  10.986  0.4815 -0.3012  0.0876
  497MOL0     C67009   8.667  10.472  11.007  0.0148 -0.2913 -0.0303
  497MOL0     C67010   8.645  10.604  11.025  0.0789  0.3227  1.2551
  497MOL0     N67011   8.660  11.406  10.927  0.1046 -0.1164  0.6680
  497MOL0     N67012   8.648  11.510  10.994  0.2547 -0.2640 -0.3754
  497MOL0     C67013   9.625  11.702  10.974 -0.8059  0.1978  0.0867
  497MOL0     C67014   9.694  11.583  10.976  0.5679 -1.3356 -0.8465
  497MOL0     C67015   9.804  11.149  11.116 -0.2453 -0.4373 -0.2668
  497MOL0     C67016   9.795  11.096  10.980 -0.4836 -0.0421 -0.0081
  497MOL0     C67017   9.832  10.973  10.945 -0.0947 -0.5095 -0.9734
  497MOL0     C67018   9.901  10.893  11.037  0.8958  0.0363  0.3811
  497MOL0     O67019   9.955  10.767  11.015 -0.1463  0.1429 -0.4973
  497MOL0     C67020   9.869  10.667  11.066  0.1450 -0.4050  0.0585
  497MOL0     C67021   9.946  10.538  11.068 -0.9474  0.3744  0.0933
  497MOL0     C67022   9.863  10.425  11.126  0.2466  0.0126 -0.4961
  497MOL0     C67023   9.944  10.299  11.156 -0.4304 -0.2025  0.1849
  497MOL0     C67024   9.860  10.186  11.202 -0.4960 -0.5136  0.6067
  497MOL0     C67025   9.796  10.107  11.262  0.8862 -0.5572  0.4460
  497MOL0     C67026   9.910  10.947  11.171 -0.0982  0.6021  0.9604
  497MOL0     C67027   9.863  11.067  11.212  0.6627  0.0708  0.0097
  497MOL0     H67028   9.485  11.377  11.139  0.7355 -1.7606 -0.0245
  497MOL0     H67029   9.364  11.610  11.166  1.0939  0.2731  1.1289
  497MOL0     H67030   9.280  11.912  10.983 -3.6322  2.2572  1.9641
  497MOL0     H67031   9.251  11.756  11.061  1.1912 -1.4538  1.2006
  497MOL0     H67032   9.295  11.872  11.287  1.4111 -3.0359 -2.9180
  497MOL0     H67033   9.342  12.022  11.200  1.5696 -1.2444  1.3560
  497MOL0     H67034   9.126  12.049  11.283 -0.1525 -2.2695  1.8055
  497MOL0     H67035   9.113  12.052  11.106  0.5732 -2.6669 -1.5284
  497MOL0     H67036   9.018  11.846  11.086 -1.1224  1.0055  0.3097
  497MOL0     H67037   9.056  11.800  11.260  0.9141  1.0096  0.1947
  497MOL0     H67038   8.904  11.931  11.340  1.3951 -3.1211  0.3479
  497MOL0     H67039   8.865  12.024  11.188  2.5474  0.7690 -0.7662
  497MOL0     H67040   8.692  11.868  11.256  0.3627 -1.8787  1.7114
  497MOL0     H67041   8.759  11.803  11.104 -1.1164 -2.8018  0.3270
  497MOL0     H67042   8.900  11.646  11.236 -1.4215 -2.3878 -0.3417
  497MOL0     H67043   8.814  11.691  11.384 -0.1525 -1.4707  1.1938
  497MOL0     H67044   8.621  11.637  11.204  1.8204  1.5394 -2.7592
  497MOL0     H67045   8.687  11.515  11.326  0.0766 -0.7540 -0.2692
  497MOL0     H67046   8.879  11.363  11.171  1.5840  1.8838  0.0960
  497MOL0     H67047   8.742  11.191  10.821  2.1391 -2.5699 -1.4873
  497MOL0     H67048   8.909  11.210  10.888  0.4032  4.1355 -1.6256
  497MOL0     H67049   8.835  11.088  11.096 -1.4326  2.6898  0.6693
  497MOL0     H67050   8.826  10.999  10.939  0.1893 -0.2617  0.8553
  497MOL0     H67051   8.563  11.078  10.967 -0.9152  1.3862  1.3002
  497MOL0     H67052   8.597  11.073  11.132 -1.4903 -0.9015  0.0570
  497MOL0     H67053   8.536  10.873  11.127 -0.0948  1.1937  0.0689
  497MOL0     H67054   8.712  10.854  11.109 -1.2609 -0.4855  1.5318
  497MOL0     H67055   8.696  10.718  10.724  2.6437 -1.4166 -0.2167
  497MOL0     H67056   8.645  10.394  10.614  0.3585 -0.9587  1.3821
  497MOL0     H67057   8.690  10.549  10.557  0.7886 -1.0590 -0.5252
  497MOL0     H67058   8.817  10.434  10.602 -0.2432 -0.9260  0.4823
  497MOL0     H67059   8.994  10.051  10.852 -1.8631  2.0733 -0.0168
  497MOL0     H67060   9.017   9.807  10.828 -1.0484 -4.9701 -0.8990
  497MOL0     H67061   8.733   9.610  10.969  0.9571  0.6740 -0.4306
  497MOL0     H67062   8.640   9.578  10.808  0.3687 -0.9221 -0.3206
  497MOL0     H67063   8.849   9.411  10.775  0.8329 -0.2697  0.4540
  497MOL0     H67064   8.872   9.439  10.957 -0.8809  1.6229  1.0615
  497MOL0     H67065   8.645   9.349  11.000  2.6592  3.2644  0.4686
  497MOL0     H67066   8.777   9.242  10.924  0.8646 -0.5638 -2.9356
  497MOL0     H67067   8.525   9.362  10.789 -0.8940 -0.8306 -1.9175
  497MOL0     H67068   8.658   9.290  10.705 -1.2939 -1.5713 -0.1192
  497MOL0     H67069   8.464   9.129  10.720 -0.6447  0.1037 -0.2220
  497MOL0     H67070   8.478   9.138  10.889  0.9267 -2.7899  0.2405
  497MOL0     H67071   8.721   9.034  10.733 -0.7828  0.2965 -1.2510
  497MOL0     H67072   8.702   9.040  10.903 -0.4324  4.6159 -0.6641
  497MOL0     H67073   8.531   8.887  10.686 -0.8053 -1.5209  0.9312
  497MOL0     H67074   8.501   8.884  10.857  1.1786  0.4806  1.9156
  497MOL0     H67075   8.646   8.693  10.832  0.8946  1.8306  6.4775
  497MOL0     H67076   8.765   8.807  10.862  0.5144 -2.7672  0.9751
  497MOL0     H67077   8.609   9.767  10.715 -0.7251 -0.2762 -0.3386
  497MOL0     H67078   8.589  10.038  10.718 -0.0192 -1.6330  0.2376
  497MOL0     H67079   8.645  10.393  11.079  3.2192 -1.9334 -0.6637
  497MOL0     H67080   8.607  10.627  11.124  0.8210 -3.7089  2.6620
  497MOL0     H67081   9.664  11.787  10.919 -0.4638 -1.2969 -2.0956
  497MOL0     H67082   9.794  11.582  10.934  1.2676  4.5720 -0.2381
  497MOL0     H67083   9.738  11.148  10.904  1.7460  2.8173  0.0799
  497MOL0     H67084   9.814  10.942  10.842  0.9770  3.2985 -2.4965
  497MOL0     H67085   9.825  10.692  11.162 -0.1943 -3.0103  0.6440
  497MOL0     H67086   9.790  10.659  10.990 -0.6880 -2.2233  1.0637
  497MOL0     H67087  10.035  10.554  11.130  1.2913 -0.1661 -2.7484
  497MOL0     H67088   9.978  10.514  10.966 -0.4810 -1.8074  0.6981
  497MOL0     H67089   9.775  10.411  11.061 -1.6471  0.2954  1.8843
  497MOL0     H67090   9.809  10.463  11.213 -0.4492  0.9803 -1.3119
  497MOL0     H67091  10.020  10.324  11.230 -1.5448  1.9816  0.6577
  497MOL0     H67092   9.998  10.272  11.064 -0.6340 -0.5404  0.1606
  497MOL0     H67093   9.730  10.056  11.329 -0.9667  1.3167  0.1197
  497MOL0     H67094   9.953  10.874  11.238 -0.7231  1.9525  2.9171
  497MOL0     H67095   9.879  11.097  11.316 -1.4830 -2.3423  1.1498
  498MOL0     O67096   0.512   6.864   8.167  0.9702  0.6801 -0.1612
  498MOL0     C67097   0.410   6.861   8.094 -0.2723  1.0319 -0.6191
  498MOL0     O67098   0.298   6.793   8.123 -0.5605 -0.2102  1.1789
  498MOL0     C67099   0.291   6.723   8.236 -0.0997  1.2983  1.1365
  498MOL0     C67100   0.318   6.588   8.216 -0.0645  0.6569 -0.4756
  498MOL0     C67101   0.332   6.500   8.324  0.2269 -0.2902 -0.0230
  498MOL0     C67102   0.308   6.543   8.454 -0.1775 -0.1632  0.1001
  498MOL0     O67103   0.303   6.450   8.562 -0.3497 -0.7393 -0.3034
  498MOL0     C67104   0.424   6.374   8.571  0.3815  0.3495 -0.3040
  498MOL0     C67105   0.510   6.413   8.695  0.2748 -0.1489  1.1948
  498MOL0     C67106   0.635   6.320   8.705 -0.1342 -0.6397  1.2169
  498MOL0     C67107   0.738   6.389   8.793  0.3521  0.3648 -0.4999
  498MOL0     C67108   0.846   6.464   8.717  0.4606 -0.0625 -0.3674
  498MOL0     C67109   0.983   6.470   8.782 -0.7060 -0.5550 -0.2917
  498MOL0     C67110   1.066   6.333   8.778 -0.2103  0.6464  0.0450
  498MOL0     C67111   1.214   6.369   8.771  0.2077  0.6595 -0.4461
  498MOL0     N67112   1.254   6.430   8.899  0.0367  0.9974  0.5255
  498MOL0     C67113   1.286   6.363   9.017 -0.8558 -0.3504  0.3106
  498MOL0     C67114   1.305   6.452   9.115  0.4699  0.1931 -0.2887
  498MOL0     C67115   1.346   6.421   9.255 -1.2284  0.3306 -0.1197
  498MOL0     C67116   1.228   6.406   9.347  0.2671 -0.1178 -0.1120
  498MOL0     C67117   1.262   6.379   9.496 -0.6030 -0.3762  0.2468
  498MOL0     C67118   1.145   6.356   9.590  0.1754  0.8900  0.2054
  498MOL0     O67119   1.076   6.476   9.615  0.7179  0.3175  0.9706
  498MOL0     C67120   1.083   6.548   9.727  0.1614 -0.3947 -0.0898
  498MOL0     C67121   1.034   6.681   9.712  0.1562 -0.1882 -0.2546
  498MOL0     C67122   1.037   6.786   9.810 -0.2994  0.5882 -0.3796
  498MOL0     C67123   0.984   6.925   9.771 -0.3039  0.4388  0.0476
  498MOL0     C67124   1.090   6.746   9.937  0.0740 -1.1225 -0.0574
  498MOL0     C67125   1.105   6.838  10.048 -0.5288 -1.2249 -0.0827
  498MOL0     O67126   1.211   6.823  10.136  0.5322  0.3576 -0.1403
  498MOL0     C67127   1.229   6.918  10.239 -0.1134 -0.3871 -0.0701
  498MOL0     C67128   1.215   6.877  10.374 -1.2457  0.2847 -0.0930
  498MOL0     C67129   1.209   6.974  10.478 -0.1204 -0.3848  0.4178
  498MOL0     C67130   1.232   7.107  10.455  0.0365 -0.7432  0.2881
  498MOL0     O67131   1.234   7.190  10.568 -0.0221  0.8011  0.7669
  498MOL0     C67132   1.266   7.332  10.551  0.0933 -1.0908 -0.2683
  498MOL0     C67133   1.294   7.410  10.684  0.1734  0.4812 -0.2661
  498MOL0     C67134   1.399   7.336  10.777  0.9314  0.9637  0.0918
  498MOL0     C67135   1.421   7.423  10.898  0.0506 -1.0142 -0.8446
  498MOL0     C67136   1.523   7.389  11.010 -0.6286 -0.3121  0.4392
  498MOL0     C67137   1.580   7.516  11.085 -0.2799  0.1632 -0.1320
  498MOL0     C67138   1.672   7.481  11.196  0.3000  0.0180 -0.7144
  498MOL0     C67139   1.756   7.596  11.250 -0.1882  0.0563  1.3266
  498MOL0    Cl67140   1.664   7.671  11.392 -0.2903 -0.1972  0.1359
  498MOL0     C67141   1.250   7.141  10.319  0.1789  0.1574  0.3231
  498MOL0     C67142   1.246   7.049  10.213  1.1272 -0.3135 -0.8497
  498MOL0     O67143   1.035   6.932  10.041  0.3798 -1.0620 -0.5235
  498MOL0     C67144   1.147   6.619   9.958 -0.2883 -0.2695 -0.5895
  498MOL0     C67145   1.135   6.524   9.857 -0.2218 -0.1241  0.7194
  498MOL0     N67146   1.287   6.570   9.050 -0.0992 -0.7439 -0.5921
  498MOL0     N67147   1.259   6.560   8.924 -1.0823 -0.5215 -0.4489
  498MOL0     C67148   0.295   6.684   8.473 -0.4571  0.0007  0.0015
  498MOL0     C67149   0.281   6.773   8.361 -0.1836 -0.7113  0.0384
  498MOL0     C67150   0.429   6.931   7.965  0.1561 -0.2828 -1.1368
  498MOL0     C67151   0.524   7.027   7.931 -0.6983  0.0073 -0.1143
  498MOL0     C67152   0.538   7.089   7.806  0.5283  1.0279 -0.1408
  498MOL0     C67153   0.447   7.058   7.703  0.2214 -0.1080 -0.5366
  498MOL0     O67154   0.457   7.120   7.583 -0.1757 -0.2096  0.0061
  498MOL0     C67155   0.399   7.075   7.463  0.0110  1.1101  0.1812
  498MOL0     C67156   0.459   7.111   7.337 -0.0329  0.6380 -0.2713
  498MOL0     C67157   0.589   7.033   7.304 -1.1150 -0.2578 -0.8455
  498MOL0     C67158   0.677   7.092   7.201 -0.8841  0.0817  1.1737
  498MOL0     C67159   0.605   7.094   7.079  0.2325  0.2440  0.9739
  498MOL0     C67160   0.537   7.082   6.972 -0.9480  0.2747  0.0744
  498MOL0     C67161   0.344   6.970   7.730 -0.5233  1.5496 -1.1636
  498MOL0     C67162   0.334   6.911   7.861 -0.2802 -0.1063  0.1222
  498MOL0     H67163   0.328   6.557   8.112 -0.6211  2.8293 -1.2179
  498MOL0     H67164   0.353   6.396   8.300  1.2927 -0.3960  1.2438
  498MOL0     H67165   0.395   6.269   8.565  2.6016 -0.3690  0.3437
  498MOL0     H67166   0.485   6.383   8.481 -3.3226  2.9785 -2.8661
  498MOL0     H67167   0.542   6.517   8.691 -1.4912  0.4075  1.0999
  498MOL0     H67168   0.449   6.410   8.786  1.1529  0.2788  1.8120
  498MOL0     H67169   0.601   6.222   8.739 -1.8679  0.7733  3.9173
  498MOL0     H67170   0.684   6.312   8.607 -0.4260  3.8610  0.5218
  498MOL0     H67171   0.702   6.452   8.875 -0.9668  3.3788 -3.1765
  498MOL0     H67172   0.792   6.305   8.839 -1.1476 -0.7332 -0.6929
  498MOL0     H67173   0.858   6.409   8.623 -2.7519 -0.9457 -0.3756
  498MOL0     H67174   0.794   6.560   8.706 -2.2267 -1.5688 -1.7427
  498MOL0     H67175   1.044   6.534   8.718  0.6176 -2.6285 -1.2280
  498MOL0     H67176   0.978   6.502   8.887  1.8628  0.3267 -0.3634
  498MOL0     H67177   1.037   6.275   8.865  1.0033  2.2693  1.5923
  498MOL0     H67178   1.051   6.283   8.682  0.5964  3.0298 -1.4247
  498MOL0     H67179   1.244   6.431   8.686 -2.2035 -1.6020 -3.1314
  498MOL0     H67180   1.269   6.275   8.771  0.9990  1.1109  0.2113
  498MOL0     H67181   1.294   6.256   9.030  0.7680 -0.0706  2.0414
  498MOL0     H67182   1.406   6.330   9.254 -0.5204  0.7858 -1.0539
  498MOL0     H67183   1.416   6.502   9.277  3.1308 -2.8802 -0.7680
  498MOL0     H67184   1.175   6.317   9.313 -0.1914  0.2108 -0.2660
  498MOL0     H67185   1.158   6.490   9.346  1.2264  0.6940 -0.5238
  498MOL0     H67186   1.318   6.465   9.535  1.0616 -1.3068 -0.0053
  498MOL0     H67187   1.311   6.282   9.494 -1.4126 -0.8414  1.6131
  498MOL0     H67188   1.191   6.321   9.683 -0.5263 -2.7777 -0.6667
  498MOL0     H67189   1.080   6.281   9.545  2.1849 -1.3646  0.8447
  498MOL0     H67190   0.980   6.708   9.622  2.0771  2.3161 -0.7476
  498MOL0     H67191   0.880   6.943   9.799  0.2429  1.9117  1.2622
  498MOL0     H67192   1.050   6.998   9.819 -0.9036  0.8789  0.2162
  498MOL0     H67193   0.988   6.932   9.662  1.1913 -0.9252 -0.0287
  498MOL0     H67194   1.205   6.778  10.420 -0.3379  0.3847  0.3611
  498MOL0     H67195   1.192   6.947  10.582 -0.1045  1.7409  1.0343
  498MOL0     H67196   1.362   7.339  10.499 -1.8504  0.3723 -4.1089
  498MOL0     H67197   1.189   7.386  10.494  0.0510 -1.1551 -0.2723
  498MOL0     H67198   1.337   7.508  10.662 -1.3580  0.8346 -1.9999
  498MOL0     H67199   1.197   7.405  10.735  1.3784 -3.2869  2.0584
  498MOL0     H67200   1.494   7.307  10.731  1.2508 -1.1697  1.9518
  498MOL0     H67201   1.362   7.238  10.809 -0.5949  1.4257 -0.1780
  498MOL0     H67202   1.456   7.520  10.860 -2.0001  0.4303  0.6803
  498MOL0     H67203   1.328   7.446  10.951  1.3994  0.5704  1.0103
  498MOL0     H67204   1.608   7.338  10.964  0.5499  3.2643 -1.8435
  498MOL0     H67205   1.480   7.311  11.072  0.9980 -1.3285  0.3280
  498MOL0     H67206   1.626   7.587  11.016  0.0328  1.0975  1.0066
  498MOL0     H67207   1.499   7.576  11.130 -1.3082 -1.1668 -0.1342
  498MOL0     H67208   1.741   7.411  11.149 -1.2761 -1.0480 -1.5283
  498MOL0     H67209   1.615   7.432  11.275 -0.7557  0.9306 -0.8810
  498MOL0     H67210   1.781   7.662  11.167  1.6734 -4.3000 -2.0085
  498MOL0     H67211   1.849   7.550  11.284  1.1846  2.9648  1.7723
  498MOL0     H67212   1.250   7.244  10.288  0.5036 -0.1941 -0.8759
  498MOL0     H67213   1.253   7.084  10.110  1.1804  0.4046 -0.6126
  498MOL0     H67214   1.171   6.593  10.060 -4.6342  2.9568  1.5819
  498MOL0     H67215   1.168   6.421   9.864  3.1888  0.7321 -0.6281
  498MOL0     H67216   0.281   6.724   8.573 -3.7136  2.2172 -1.1620
  498MOL0     H67217   0.259   6.878   8.377 -0.1049 -0.5314 -0.9569
  498MOL0     H67218   0.587   7.049   8.016 -1.1186  1.1253 -0.0804
  498MOL0     H67219   0.622   7.146   7.767  2.3933 -0.5408  1.3904
  498MOL0     H67220   0.398   6.965   7.465  0.2129  1.0379 -1.7600
  498MOL0     H67221   0.293   7.102   7.456 -0.5889 -1.0336  0.2513
  498MOL0     H67222   0.480   7.218   7.328 -0.9453  0.7494 -1.2758
  498MOL0     H67223   0.382   7.095   7.262  1.1418  1.1177 -1.6175
  498MOL0     H67224   0.576   6.929   7.274  0.6310 -1.1946  1.3897
  498MOL0     H67225   0.655   7.040   7.391 -0.1528 -0.4346 -1.5395
  498MOL0     H67226   0.760   7.023   7.188 -2.4792 -1.2900 -4.0516
  498MOL0     H67227   0.708   7.194   7.226 -2.4898  0.0178  3.8655
  498MOL0     H67228   0.475   7.087   6.886 -0.9307 -0.2695  0.0280
  498MOL0     H67229   0.281   6.920   7.658  1.5926 -2.3226 -0.5994
  498MOL0     H67230   0.260   6.833   7.872 -0.8811  0.3473 -0.6038
  499MOL0     O67231   7.181   5.873   1.107  0.0369 -0.6142 -0.8462
  499MOL0     C67232   7.234   5.908   1.217 -0.0180 -1.7585 -0.0212
  499MOL0     O67233   7.263   5.825   1.318 -1.3732  0.7201 -0.7231
  499MOL0     C67234   7.271   5.692   1.287  0.4842 -0.1001 -0.0276
  499MOL0     C67235   7.159   5.612   1.334 -1.1935 -0.0647 -0.3288
  499MOL0     C67236   7.167   5.471   1.326 -0.3270 -0.4181 -0.2186
  499MOL0     C67237   7.285   5.415   1.284 -0.4001  0.1545 -0.1465
  499MOL0     O67238   7.289   5.280   1.274  0.4949  0.8270  0.0998
  499MOL0     C67239   7.413   5.211   1.294  0.0171 -0.4818 -0.5465
  499MOL0     C67240   7.421   5.207   1.446  0.4944 -0.0245  0.6916
  499MOL0     C67241   7.295   5.166   1.524  0.3535  0.3059 -0.4152
  499MOL0     C67242   7.323   5.037   1.618  0.3401  0.0329  0.6768
  499MOL0     C67243   7.203   5.008   1.700  0.4956 -0.3537  0.4773
  499MOL0     C67244   7.206   4.874   1.759 -0.1324  0.9155 -0.4540
  499MOL0     C67245   7.063   4.831   1.805  0.0642 -0.7213 -0.0036
  499MOL0     C67246   7.058   4.715   1.911  0.0782  0.1694 -0.0533
  499MOL0     N67247   7.129   4.596   1.866 -0.2092 -0.4069  0.6002
  499MOL0     C67248   7.068   4.518   1.766 -0.8330  0.4454 -0.4056
  499MOL0     C67249   7.165   4.429   1.725 -0.0521 -0.4580 -0.4477
  499MOL0     C67250   7.140   4.332   1.607  0.0874 -0.0945 -0.3998
  499MOL0     C67251   7.142   4.184   1.652 -0.3000  0.0000 -0.4303
  499MOL0     C67252   7.136   4.101   1.524 -0.5807  0.0137 -0.8530
  499MOL0     C67253   6.993   4.095   1.466  0.5189 -0.5246 -0.0203
  499MOL0     O67254   6.891   4.014   1.531  0.0000 -0.1029  0.1697
  499MOL0     C67255   6.813   3.923   1.462 -0.5520 -0.1629  0.2231
  499MOL0     C67256   6.799   3.793   1.510 -0.5308 -0.4070 -0.5375
  499MOL0     C67257   6.709   3.697   1.452 -1.1415 -0.6453  0.0744
  499MOL0     C67258   6.666   3.578   1.539 -0.4482 -0.3936 -0.0978
  499MOL0     C67259   6.662   3.722   1.318  0.0814  0.3007  0.2493
  499MOL0     C67260   6.588   3.621   1.232  0.4346  0.5168  0.0505
  499MOL0     O67261   6.540   3.666   1.114  0.2177 -0.2653 -0.1500
  499MOL0     C67262   6.484   3.572   1.031  0.5149 -1.0939  0.5877
  499MOL0     C67263   6.371   3.491   1.058 -0.3780  0.0178 -0.1659
  499MOL0     C67264   6.315   3.416   0.952  0.2388 -0.5565 -0.4702
  499MOL0     C67265   6.376   3.428   0.824  0.2465  0.5394 -0.3740
  499MOL0     O67266   6.327   3.339   0.731 -1.0546 -0.0881  0.5230
  499MOL0     C67267   6.202   3.361   0.682  0.2810  0.1485  0.1019
  499MOL0     C67268   6.181   3.293   0.542 -0.8936  0.0556  0.7312
  499MOL0     C67269   6.275   3.352   0.438  0.0965  0.2857 -0.6297
  499MOL0     C67270   6.293   3.250   0.321  0.0109  0.0999 -0.7576
  499MOL0     C67271   6.257   3.309   0.188 -0.0278 -0.0369 -0.0003
  499MOL0     C67272   6.258   3.202   0.074 -0.2379  0.1831 -0.8369
  499MOL0     C67273   6.205   3.264  -0.051 -1.2103 -0.1056  0.4307
  499MOL0     C67274   6.332   3.321  -0.120  0.3501 -1.1602  0.3819
  499MOL0    Cl67275   6.310   3.461  -0.225  0.1305  0.5570  0.2508
  499MOL0     C67276   6.485   3.512   0.803 -0.1669 -0.1468  0.1459
  499MOL0     C67277   6.536   3.584   0.906  0.4894 -0.6577  0.7032
  499MOL0     O67278   6.565   3.503   1.285 -0.3176 -0.8126 -0.1680
  499MOL0     C67279   6.696   3.842   1.250 -0.3617  0.1322  0.5149
  499MOL0     C67280   6.765   3.943   1.326 -0.6058  0.6383  1.0229
  499MOL0     N67281   7.277   4.462   1.794  1.5127  0.2778 -0.4152
  499MOL0     N67282   7.255   4.553   1.880 -1.0706 -0.2090  0.1730
  499MOL0     C67283   7.399   5.495   1.241  1.0149 -0.1442  0.0140
  499MOL0     C67284   7.384   5.630   1.231  0.0216  0.2458 -0.7267
  499MOL0     C67285   7.221   6.054   1.260  0.5078  0.4955  1.9111
  499MOL0     C67286   7.190   6.164   1.168 -1.3116  0.6467  0.7243
  499MOL0     C67287   7.190   6.296   1.220 -0.0722 -0.1881  0.7560
  499MOL0     C67288   7.215   6.318   1.352 -0.6722 -0.0078  0.7104
  499MOL0     O67289   7.191   6.452   1.384 -0.1453  0.5790  0.9032
  499MOL0     C67290   7.307   6.534   1.359 -0.8975 -0.3728 -0.5472
  499MOL0     C67291   7.354   6.585   1.498  0.3462 -0.0125 -0.7735
  499MOL0     C67292   7.294   6.720   1.545 -0.1818  0.0613 -0.7387
  499MOL0     C67293   7.143   6.723   1.562  0.0111 -0.0464  0.2632
  499MOL0     C67294   7.074   6.735   1.432 -0.0215 -0.6833 -0.6507
  499MOL0     C67295   7.019   6.762   1.323  0.3812  0.1047  0.1363
  499MOL0     C67296   7.239   6.216   1.443  0.1843  0.1713  0.0259
  499MOL0     C67297   7.243   6.082   1.391  0.2671  0.1711  0.5868
  499MOL0     H67298   7.069   5.665   1.365 -1.4238  0.2105 -1.4086
  499MOL0     H67299   7.080   5.415   1.355 -0.3131  1.1234  3.3312
  499MOL0     H67300   7.397   5.105   1.271  2.2526 -1.0565  0.2620
  499MOL0     H67301   7.497   5.242   1.231  0.9290 -0.9722  0.3943
  499MOL0     H67302   7.495   5.132   1.477  0.6618  0.6623  1.9984
  499MOL0     H67303   7.456   5.309   1.466 -3.6697  2.2781 -2.2852
  499MOL0     H67304   7.274   5.256   1.583  0.9027 -0.6358  1.2890
  499MOL0     H67305   7.211   5.148   1.456 -0.8692  2.1154  0.5645
  499MOL0     H67306   7.356   4.954   1.556  0.8683 -1.1939  2.5160
  499MOL0     H67307   7.402   5.073   1.685  0.7732 -0.2605  0.3309
  499MOL0     H67308   7.179   5.080   1.779  2.0055 -0.4162  1.0411
  499MOL0     H67309   7.129   5.015   1.621  1.5468 -0.3187 -0.5352
  499MOL0     H67310   7.235   4.794   1.691 -1.9078  0.4886 -0.7714
  499MOL0     H67311   7.276   4.871   1.843 -0.6145 -2.0705 -0.0466
  499MOL0     H67312   7.010   4.912   1.855  1.5900 -0.5343  1.4066
  499MOL0     H67313   6.997   4.805   1.722 -0.7344  0.3644  0.2749
  499MOL0     H67314   6.955   4.688   1.935 -0.4065  0.7353 -1.3527
  499MOL0     H67315   7.105   4.767   1.995  1.5523  0.6096 -1.0903
  499MOL0     H67316   6.970   4.532   1.722 -1.1214  1.6609  0.5907
  499MOL0     H67317   7.054   4.371   1.552 -0.6437  1.8312  1.9539
  499MOL0     H67318   7.220   4.324   1.533 -0.2149 -4.2966 -0.5296
  499MOL0     H67319   7.059   4.163   1.719  0.0668  3.3777  1.2861
  499MOL0     H67320   7.241   4.173   1.698  1.8497  2.0054 -4.0399
  499MOL0     H67321   7.167   4.001   1.558 -0.1529  0.7753  1.1329
  499MOL0     H67322   7.210   4.143   1.455 -0.7235  0.5476 -0.6819
  499MOL0     H67323   7.002   4.054   1.365  0.7423 -0.2383 -0.1161
  499MOL0     H67324   6.955   4.197   1.453 -0.8320 -0.8427  1.1825
  499MOL0     H67325   6.831   3.775   1.613 -0.8775  0.0958 -0.3364
  499MOL0     H67326   6.559   3.598   1.533 -0.4656 -0.7434 -1.2248
  499MOL0     H67327   6.691   3.483   1.491 -3.2014 -0.7761 -0.9183
  499MOL0     H67328   6.693   3.578   1.645 -4.1650  0.3458  0.9903
  499MOL0     H67329   6.322   3.489   1.155  1.7896  0.4944  1.0182
  499MOL0     H67330   6.223   3.362   0.970 -0.4198  0.7239  0.1496
  499MOL0     H67331   6.122   3.326   0.747 -0.9537  0.5020 -1.1595
  499MOL0     H67332   6.188   3.469   0.673  2.0659  0.4325  0.3255
  499MOL0     H67333   6.189   3.184   0.551  0.1997 -0.2462 -2.5468
  499MOL0     H67334   6.084   3.308   0.494 -0.7596  0.9920  0.7479
  499MOL0     H67335   6.372   3.374   0.484 -1.2446  1.6838  1.7070
  499MOL0     H67336   6.232   3.446   0.403  0.5650  1.5092  1.8062
  499MOL0     H67337   6.398   3.217   0.326 -0.6326 -2.0110  2.9597
  499MOL0     H67338   6.238   3.156   0.329  0.4466 -0.0348  1.1501
  499MOL0     H67339   6.330   3.389   0.170 -1.8289  1.1429 -2.7871
  499MOL0     H67340   6.165   3.368   0.189  1.8106  3.1739 -2.0350
  499MOL0     H67341   6.357   3.158   0.073 -1.1998 -2.2025  0.6308
  499MOL0     H67342   6.191   3.126   0.115 -1.3671  2.3381  1.6444
  499MOL0     H67343   6.129   3.343  -0.046 -0.6519  0.4089  0.8228
  499MOL0     H67344   6.159   3.187  -0.114 -0.9956 -0.9622  1.3013
  499MOL0     H67345   6.395   3.242  -0.162 -0.7477 -2.1425  0.5539
  499MOL0     H67346   6.403   3.370  -0.053  1.3415 -2.1578  0.1092
  499MOL0     H67347   6.530   3.526   0.705  0.6740  0.8734  0.6699
  499MOL0     H67348   6.615   3.657   0.894  0.8091 -1.0510  0.3767
  499MOL0     H67349   6.670   3.866   1.147 -1.8454 -0.6149  0.6797
  499MOL0     H67350   6.776   4.041   1.280  0.9965  0.0358  0.0245
  499MOL0     H67351   7.490   5.452   1.203  0.1011 -2.6307  0.4325
  499MOL0     H67352   7.457   5.703   1.198 -1.6459  1.1264 -2.6666
  499MOL0     H67353   7.161   6.145   1.065 -2.8392  2.5102  0.7729
  499MOL0     H67354   7.182   6.365   1.136 -2.1230 -3.8752 -2.4487
  499MOL0     H67355   7.387   6.476   1.310  0.8796  2.5481 -1.3461
  499MOL0     H67356   7.278   6.620   1.299 -3.0769  1.8254  3.3212
  499MOL0     H67357   7.463   6.582   1.494  0.3386  0.4859 -1.3746
  499MOL0     H67358   7.321   6.514   1.576  2.4793  2.1304  2.3260
  499MOL0     H67359   7.326   6.791   1.468  1.4319 -0.2403 -0.3767
  499MOL0     H67360   7.353   6.740   1.635  2.1080 -1.9290 -1.6779
  499MOL0     H67361   7.114   6.811   1.621  2.7644  0.3660  1.1387
  499MOL0     H67362   7.127   6.630   1.617  0.9587  0.6304  1.7579
  499MOL0     H67363   6.972   6.765   1.227 -3.4215  0.2882  1.8059
  499MOL0     H67364   7.242   6.239   1.548  4.2100 -2.9582  0.8423
  499MOL0     H67365   7.272   6.010   1.467 -0.0882 -0.1228  0.4476
  500MOL0     O67366   4.690   8.395   9.283 -0.0970  0.4232 -0.6105
  500MOL0     C67367   4.617   8.316   9.219  0.2160  0.0433 -0.0046
  500MOL0     O67368   4.579   8.339   9.092 -0.0917 -0.4481  0.5285
  500MOL0     C67369   4.630   8.454   9.038 -0.3708  0.4984  0.0859
  500MOL0     C67370   4.730   8.424   8.944 -0.3104  0.0081 -0.3260
  500MOL0     C67371   4.779   8.539   8.875  0.4257  0.1780 -0.6106
  500MOL0     C67372   4.725   8.665   8.895 -0.7570 -0.1245  0.7974
  500MOL0     O67373   4.755   8.772   8.814 -0.7004 -0.8006  0.8941
  500MOL0     C67374   4.686   8.897   8.826 -0.7314 -0.2490 -0.1497
  500MOL0     C67375   4.747   9.016   8.739 -0.9308  0.8214 -0.2690
  500MOL0     C67376   4.787   8.987   8.594  0.7966 -0.2385  0.2777
  500MOL0     C67377   4.670   8.935   8.522  0.6743  0.4177  0.6131
  500MOL0     C67378   4.695   8.923   8.372  0.3644  0.0209  0.2688
  500MOL0     C67379   4.707   9.068   8.315 -0.0745 -0.3229  0.5632
  500MOL0     C67380   4.682   9.065   8.161  0.2021 -0.2611  0.6378
  500MOL0     C67381   4.816   9.075   8.080 -0.5491 -1.0283 -0.0780
  500MOL0     N67382   4.896   8.955   8.121  0.3355 -0.1629  0.5758
  500MOL0     C67383   4.867   8.830   8.078  0.8091  0.4068 -0.5925
  500MOL0     C67384   4.955   8.751   8.146 -0.0411 -0.4192 -0.2265
  500MOL0     C67385   4.961   8.607   8.127 -0.3566  0.1253  0.1108
  500MOL0     C67386   4.840   8.531   8.183  1.0830  0.6635 -0.0637
  500MOL0     C67387   4.851   8.540   8.337  1.0834 -0.7098  0.1444
  500MOL0     C67388   4.737   8.469   8.422  0.9071  0.3999  0.5223
  500MOL0     O67389   4.716   8.332   8.379 -0.2446  0.7061 -0.3045
  500MOL0     C67390   4.648   8.236   8.449 -0.1981  0.6871 -0.7393
  500MOL0     C67391   4.549   8.272   8.544 -0.0050  0.5450  0.7026
  500MOL0     C67392   4.490   8.175   8.625 -0.3897 -0.3272 -0.2901
  500MOL0     C67393   4.411   8.227   8.727  0.6595 -0.1994  1.0469
  500MOL0     C67394   4.512   8.033   8.596  0.2306 -0.3028 -0.7885
  500MOL0     C67395   4.459   7.916   8.673  0.0740 -0.6217  0.3064
  500MOL0     O67396   4.545   7.817   8.707 -0.5732  0.4133  0.8363
  500MOL0     C67397   4.500   7.700   8.761 -1.1736  0.1548 -0.6375
  500MOL0     C67398   4.479   7.690   8.902 -0.2625 -0.0584  0.5365
  500MOL0     C67399   4.432   7.569   8.950 -0.1452  0.9334 -0.5161
  500MOL0     C67400   4.438   7.446   8.878 -0.3204 -0.3929 -1.1645
  500MOL0     O67401   4.396   7.318   8.916 -0.2947  0.9132 -0.2504
  500MOL0     C67402   4.302   7.313   9.020 -0.1608  1.0440 -0.2013
  500MOL0     C67403   4.277   7.165   9.051  0.6114 -0.2442  0.9804
  500MOL0     C67404   4.384   7.095   9.141  0.7517 -0.1659  0.7008
  500MOL0     C67405   4.348   6.952   9.179  0.2040 -0.5336  0.1055
  500MOL0     C67406   4.448   6.894   9.288 -0.7318 -0.5914  0.6240
  500MOL0     C67407   4.405   6.758   9.342  0.6343  0.4633 -1.5124
  500MOL0     C67408   4.437   6.643   9.254  0.4390  0.5237  0.1678
  500MOL0     C67409   4.356   6.515   9.285  0.4785 -0.3059 -0.3076
  500MOL0    Cl67410   4.410   6.393   9.174  0.4250 -0.0668  0.0927
  500MOL0     C67411   4.466   7.463   8.754 -0.0383  0.4716 -0.1474
  500MOL0     C67412   4.496   7.576   8.686 -0.1634 -0.4313 -0.3875
  500MOL0     O67413   4.339   7.915   8.697 -0.1772 -0.9432  0.1856
  500MOL0     C67414   4.598   8.000   8.492 -0.7138  0.3522 -0.1615
  500MOL0     C67415   4.663   8.095   8.421 -0.2188  0.6166 -0.5377
  500MOL0     N67416   5.032   8.826   8.233  0.8668  0.0173 -0.2603
  500MOL0     N67417   4.999   8.953   8.214 -0.5679  0.5758 -0.1136
  500MOL0     C67418   4.638   8.691   9.003  0.0988  0.0833 -0.1591
  500MOL0     C67419   4.582   8.580   9.067  0.4455 -0.8098  0.3158
  500MOL0     C67420   4.570   8.202   9.285  0.1601  1.0301 -0.4500
  500MOL0     C67421   4.658   8.133   9.368 -0.7335  0.6096 -0.4142
  500MOL0     C67422   4.620   8.013   9.433 -0.6435 -0.9259 -0.1863
  500MOL0     C67423   4.496   7.959   9.394  0.2684  0.8949  0.2327
  500MOL0     O67424   4.450   7.839   9.447 -0.7458 -0.4039 -0.3013
  500MOL0     C67425   4.403   7.732   9.364  1.0353 -0.4526  0.0148
  500MOL0     C67426   4.352   7.606   9.443 -0.8065 -0.2634 -0.5567
  500MOL0     C67427   4.307   7.486   9.358 -0.3507 -0.5366 -0.1191
  500MOL0     C67428   4.261   7.373   9.437  0.2644 -0.0553  0.2455
  500MOL0     C67429   4.373   7.285   9.469 -0.1377 -0.5145 -0.3242
  500MOL0     C67430   4.461   7.208   9.490  0.3164  0.1137 -0.6706
  500MOL0     C67431   4.421   8.015   9.295 -0.1510  0.3462 -0.2742
  500MOL0     C67432   4.444   8.149   9.261  0.3502 -0.7802  0.0577
  500MOL0     H67433   4.760   8.320   8.941  2.6915  0.7765 -0.1043
  500MOL0     H67434   4.851   8.518   8.797  1.4635 -2.8037  0.9753
  500MOL0     H67435   4.580   8.872   8.812 -1.1623  0.6901  1.2870
  500MOL0     H67436   4.700   8.942   8.924  0.3942 -0.0664 -0.3859
  500MOL0     H67437   4.678   9.100   8.744 -0.4022  1.3871 -1.8864
  500MOL0     H67438   4.846   9.039   8.779 -1.8079  1.2206  1.8207
  500MOL0     H67439   4.812   9.086   8.554 -4.8188  0.7141 -1.8050
  500MOL0     H67440   4.875   8.925   8.575  0.2675 -0.8435 -0.2624
  500MOL0     H67441   4.654   8.834   8.560 -3.3712  0.3968 -0.7274
  500MOL0     H67442   4.582   8.994   8.550  0.0049 -0.0424 -0.4784
  500MOL0     H67443   4.776   8.850   8.361 -1.4025 -2.5131  2.5776
  500MOL0     H67444   4.609   8.870   8.330  0.3921  1.1058 -1.2078
  500MOL0     H67445   4.632   9.132   8.360  1.3373  0.5246  1.8130
  500MOL0     H67446   4.805   9.108   8.345 -1.0664  2.1260  0.7391
  500MOL0     H67447   4.638   8.968   8.136 -0.9018  0.2303  0.6215
  500MOL0     H67448   4.613   9.148   8.145  1.1336  0.8541  2.1040
  500MOL0     H67449   4.873   9.166   8.104 -0.3785 -1.8262  3.0281
  500MOL0     H67450   4.808   9.081   7.971  0.4478 -1.8775 -0.2159
  500MOL0     H67451   4.779   8.803   8.020 -1.9830  5.3565  0.6720
  500MOL0     H67452   4.951   8.596   8.018  0.1024  0.1750  0.0659
  500MOL0     H67453   5.053   8.558   8.159  0.9742  2.0200 -0.6689
  500MOL0     H67454   4.840   8.425   8.156  0.6674  1.1161 -1.9937
  500MOL0     H67455   4.750   8.579   8.141  3.1707  1.8508 -3.6573
  500MOL0     H67456   4.866   8.645   8.364 -1.1377  0.0425 -1.1984
  500MOL0     H67457   4.940   8.482   8.362  1.6932 -0.8569 -2.0796
  500MOL0     H67458   4.649   8.535   8.417  0.3097 -0.4290 -0.2597
  500MOL0     H67459   4.767   8.464   8.527  2.0846  2.6666  0.3680
  500MOL0     H67460   4.531   8.378   8.552  0.1852  0.5786  0.6981
  500MOL0     H67461   4.320   8.275   8.689 -0.4314 -2.3690  0.7712
  500MOL0     H67462   4.377   8.145   8.791 -0.5107  0.3254  1.1318
  500MOL0     H67463   4.462   8.298   8.792  2.0059 -0.5071  0.3610
  500MOL0     H67464   4.499   7.772   8.971  0.8128  1.0192 -0.9971
  500MOL0     H67465   4.404   7.552   9.053 -1.0961 -1.1725 -1.0737
  500MOL0     H67466   4.341   7.355   9.113  2.2325 -0.0813 -0.6155
  500MOL0     H67467   4.210   7.361   8.985 -0.3310  0.8134 -0.0785
  500MOL0     H67468   4.179   7.156   9.099 -0.6413  2.5100 -0.7977
  500MOL0     H67469   4.264   7.111   8.956 -0.1975  1.4835  0.0529
  500MOL0     H67470   4.392   7.154   9.232 -1.3554  0.6262  0.4210
  500MOL0     H67471   4.476   7.096   9.082  1.3452  3.1089  1.5227
  500MOL0     H67472   4.250   6.954   9.228  0.3957 -2.2074  0.6235
  500MOL0     H67473   4.332   6.888   9.092  1.7305  1.3020 -1.6292
  500MOL0     H67474   4.463   6.969   9.367  0.8221  0.3282 -0.4939
  500MOL0     H67475   4.542   6.892   9.234 -0.7508  0.3349  0.5292
  500MOL0     H67476   4.447   6.757   9.444 -1.1575 -0.9674 -0.7194
  500MOL0     H67477   4.297   6.762   9.362  0.9569 -0.2327  0.7396
  500MOL0     H67478   4.540   6.614   9.232 -0.0890 -1.5163  0.1205
  500MOL0     H67479   4.388   6.673   9.161 -0.5686 -1.2515  0.0817
  500MOL0     H67480   4.256   6.545   9.255  0.6924 -0.3966 -1.1516
  500MOL0     H67481   4.368   6.479   9.388 -2.3689 -2.6264 -0.6721
  500MOL0     H67482   4.476   7.368   8.701 -2.2364  1.0009 -1.6489
  500MOL0     H67483   4.517   7.579   8.579 -0.4402 -2.3228 -0.5392
  500MOL0     H67484   4.616   7.894   8.476 -3.8693 -0.4522  0.9427
  500MOL0     H67485   4.726   8.072   8.336 -0.4476 -0.5029 -0.4217
  500MOL0     H67486   4.584   8.781   9.030 -0.6245 -0.2643 -0.4360
  500MOL0     H67487   4.491   8.591   9.126 -1.2409 -1.5858 -1.9948
  500MOL0     H67488   4.756   8.176   9.389 -0.6345  0.0443  0.3061
  500MOL0     H67489   4.690   7.984   9.510 -0.0824  0.2774 -0.2105
  500MOL0     H67490   4.313   7.763   9.309  0.4907 -2.7597 -0.4976
  500MOL0     H67491   4.466   7.685   9.288 -0.3830 -3.4287  0.5441
  500MOL0     H67492   4.264   7.630   9.504  0.5895 -2.9199  2.8090
  500MOL0     H67493   4.429   7.585   9.518  0.3336  2.0353 -0.9879
  500MOL0     H67494   4.395   7.449   9.305  0.3675 -1.1590  1.4216
  500MOL0     H67495   4.245   7.533   9.281 -0.1360  2.0466  1.1688
  500MOL0     H67496   4.188   7.318   9.376  0.2461  0.0755  0.1497
  500MOL0     H67497   4.206   7.414   9.522  1.0500  0.3129  0.5818
  500MOL0     H67498   4.549   7.149   9.495  0.8911  0.9889 -0.1026
  500MOL0     H67499   4.324   7.980   9.261  0.3119 -1.3003 -0.0077
  500MOL0     H67500   4.372   8.186   9.189  0.0350  0.1573  0.8342
  501MOL0     O67501   9.889   8.889   3.061 -0.1339 -1.3557 -0.5709
  501MOL0     C67502   9.974   8.819   3.016  0.0401  0.3752  0.1640
  501MOL0     O67503   9.970   8.684   3.003  0.9634 -0.2949 -0.0976
  501MOL0     C67504   9.869   8.619   3.068  0.3708 -0.4713 -0.5958
  501MOL0     C67505   9.743   8.621   3.025  0.6634 -0.4761  0.1811
  501MOL0     C67506   9.641   8.549   3.085 -0.3386 -0.9388  0.7604
  501MOL0     C67507   9.662   8.487   3.203 -0.1393  0.3410 -0.3478
  501MOL0     O67508   9.567   8.403   3.262 -0.1565 -0.6071 -0.0119
  501MOL0     C67509   9.440   8.381   3.203  0.5737 -0.7354 -0.5174
  501MOL0     C67510   9.352   8.289   3.292  0.2591 -0.9959 -0.0589
  501MOL0     C67511   9.335   8.353   3.436 -0.2641  0.2710  0.8649
  501MOL0     C67512   9.248   8.271   3.537 -0.1498  0.4947  0.1908
  501MOL0     C67513   9.275   8.328   3.679  0.8034 -0.3840 -0.5442
  501MOL0     C67514   9.226   8.477   3.701  0.1789  0.5641 -0.0393
  501MOL0     C67515   9.091   8.515   3.637 -0.1225 -0.6960 -0.1649
  501MOL0     C67516   8.971   8.453   3.716  0.5679 -0.3783  0.0200
  501MOL0     N67517   8.845   8.521   3.688  0.8633 -0.3483 -0.7933
  501MOL0     C67518   8.798   8.637   3.746  0.1949 -0.2640  0.2335
  501MOL0     C67519   8.662   8.639   3.749 -0.2228 -0.0726  0.5071
  501MOL0     C67520   8.578   8.758   3.795 -0.0280 -0.2557  0.4755
  501MOL0     C67521   8.646   8.863   3.876 -0.5252 -0.4011  0.0569
  501MOL0     C67522   8.655   8.849   4.029  1.1399  1.0127  1.4366
  501MOL0     C67523   8.744   8.958   4.092  0.1274  0.1640  0.2838
  501MOL0     O67524   8.767   8.941   4.227  0.0361 -0.5884  0.0473
  501MOL0     C67525   8.824   9.044   4.296  0.0008  0.5086  0.2764
  501MOL0     C67526   8.964   9.062   4.290  0.3028 -0.2803 -0.0552
  501MOL0     C67527   9.027   9.164   4.378  0.2467 -0.7620 -0.3422
  501MOL0     C67528   9.169   9.190   4.363 -1.0020 -0.0815  0.6994
  501MOL0     C67529   8.944   9.239   4.457  0.0263  0.4745 -0.1224
  501MOL0     C67530   8.986   9.349   4.553 -0.6658 -0.4259  1.0129
  501MOL0     O67531   8.903   9.376   4.661  0.0217 -0.3202  0.2587
  501MOL0     C67532   8.897   9.494   4.727  0.0584  0.0037  0.0054
  501MOL0     C67533   8.841   9.485   4.858  0.0550  0.6510  0.3085
  501MOL0     C67534   8.827   9.601   4.938 -0.0345 -0.5658  0.0513
  501MOL0     C67535   8.854   9.731   4.885 -0.2991  0.6384 -0.4737
  501MOL0     O67536   8.842   9.831   4.982 -0.1982  0.3139 -0.6075
  501MOL0     C67537   8.862   9.974   4.950 -0.5180  0.5494  0.2310
  501MOL0     C67538   8.813  10.056   5.076 -1.0397 -1.4899 -0.3597
  501MOL0     C67539   8.855  10.206   5.076 -0.2842  0.2167  0.1137
  501MOL0     C67540   8.774  10.277   4.964 -0.2060 -0.0952 -0.1365
  501MOL0     C67541   8.797  10.427   4.979 -0.1762 -0.0618 -0.3463
  501MOL0     C67542   8.699  10.512   4.895 -0.4504 -0.1382 -0.6651
  501MOL0     C67543   8.773  10.603   4.797 -0.6492  0.6929 -0.0184
  501MOL0     C67544   8.841  10.516   4.682  0.5211  0.6098 -0.5983
  501MOL0    Cl67545   8.849  10.602   4.533  0.6542  0.3838  0.2159
  501MOL0     C67546   8.899   9.743   4.756  0.4460 -0.1067  0.0661
  501MOL0     C67547   8.920   9.627   4.679  0.0487  0.9983 -0.3358
  501MOL0     O67548   9.076   9.424   4.511  0.4764 -0.0071 -0.6197
  501MOL0     C67549   8.808   9.209   4.471 -0.3999  0.0154 -0.0954
  501MOL0     C67550   8.752   9.115   4.379  0.1942  0.0787 -0.5342
  501MOL0     N67551   8.626   8.524   3.687 -1.3485  0.2200  0.0875
  501MOL0     N67552   8.727   8.450   3.660 -1.0762 -0.5071 -0.6018
  501MOL0     C67553   9.790   8.491   3.257 -0.5491  0.0947  0.0482
  501MOL0     C67554   9.894   8.552   3.186 -0.3613 -0.1568 -0.5755
  501MOL0     C67555  10.087   8.895   2.957  0.0084 -0.3765 -0.2161
  501MOL0     C67556  10.072   9.034   2.928 -0.3041  0.3804  0.8269
  501MOL0     C67557  10.178   9.093   2.868 -0.5150 -0.5869 -0.6187
  501MOL0     C67558  10.295   9.028   2.833  0.1611  0.3852  0.4527
  501MOL0     O67559  10.382   9.108   2.759 -0.3424  0.1582  0.4030
  501MOL0     C67560  10.504   9.053   2.705  0.5495 -0.6871 -0.1626
  501MOL0     C67561  10.614   9.067   2.807  0.5058 -0.1559 -0.6454
  501MOL0     C67562  10.744   9.002   2.752  0.6485 -0.4139 -0.2992
  501MOL0     C67563  10.765   8.857   2.798  0.2476 -0.1176 -0.2651
  501MOL0     C67564  10.656   8.755   2.771 -0.5844 -0.3659  0.5481
  501MOL0     C67565  10.577   8.662   2.756 -0.0200  0.2114  0.6822
  501MOL0     C67566  10.313   8.892   2.856  0.6684 -0.4213 -0.5045
  501MOL0     C67567  10.205   8.831   2.923 -0.8711 -0.9229 -0.0791
  501MOL0     H67568   9.724   8.666   2.928  0.0283  1.2575  1.0632
  501MOL0     H67569   9.547   8.534   3.033 -2.2775  0.3136  3.6173
  501MOL0     H67570   9.384   8.473   3.182  0.1892 -0.8547 -0.0485
  501MOL0     H67571   9.442   8.333   3.104  0.7569  2.6556 -2.3365
  501MOL0     H67572   9.252   8.268   3.251  0.1490  2.5679 -1.9574
  501MOL0     H67573   9.419   8.202   3.293  0.8643 -0.5661 -1.5971
  501MOL0     H67574   9.434   8.371   3.479 -0.7363  2.1340  1.2641
  501MOL0     H67575   9.284   8.448   3.418 -2.4361 -1.3826 -2.9027
  501MOL0     H67576   9.143   8.258   3.507  0.0043 -0.8242  0.1535
  501MOL0     H67577   9.285   8.168   3.536 -1.0373  0.1343 -2.3458
  501MOL0     H67578   9.213   8.274   3.752  1.8094  1.3203  1.6955
  501MOL0     H67579   9.380   8.311   3.703  1.1208  0.7960 -1.0094
  501MOL0     H67580   9.231   8.487   3.810 -3.0822 -2.3991  0.5424
  501MOL0     H67581   9.299   8.547   3.658  2.9589 -2.2780 -0.3210
  501MOL0     H67582   9.081   8.623   3.648 -0.0330 -0.7971  1.0656
  501MOL0     H67583   9.088   8.496   3.529  1.8060 -0.6422 -0.2676
  501MOL0     H67584   9.001   8.479   3.818  0.7268 -3.8173  0.9577
  501MOL0     H67585   8.972   8.345   3.703  2.2824 -0.2129 -1.6490
  501MOL0     H67586   8.872   8.713   3.769  0.1814 -0.6485  1.6080
  501MOL0     H67587   8.550   8.805   3.701  1.4085 -2.8288 -1.3561
  501MOL0     H67588   8.483   8.720   3.832  0.5007 -1.7167  0.3697
  501MOL0     H67589   8.600   8.960   3.852 -0.1027 -0.7509 -2.4696
  501MOL0     H67590   8.747   8.873   3.835  1.1018 -1.0151  3.5911
  501MOL0     H67591   8.697   8.755   4.068 -0.5699  1.2200  4.0681
  501MOL0     H67592   8.551   8.841   4.060  1.1091 -4.1626  0.9345
  501MOL0     H67593   8.702   9.057   4.072 -1.2603 -0.1613  1.4518
  501MOL0     H67594   8.839   8.959   4.038 -1.9814 -0.1787 -3.8101
  501MOL0     H67595   9.030   9.009   4.221  0.3615 -0.8678  0.4421
  501MOL0     H67596   9.213   9.193   4.463  2.0338  0.3725 -0.5403
  501MOL0     H67597   9.217   9.114   4.300 -1.3828 -0.1550  0.4907
  501MOL0     H67598   9.185   9.288   4.319 -3.3245  0.0174 -0.0519
  501MOL0     H67599   8.825   9.386   4.899 -0.3043 -0.6608 -2.7045
  501MOL0     H67600   8.803   9.590   5.044 -1.8438  2.2175  0.0393
  501MOL0     H67601   8.970   9.991   4.939 -0.0979 -2.5706 -1.7649
  501MOL0     H67602   8.819  10.016   4.858  2.4441  3.3134 -0.0899
  501MOL0     H67603   8.704  10.061   5.075 -1.0888 -1.1760  1.8449
  501MOL0     H67604   8.851  10.016   5.171 -0.4314 -0.7502 -0.2805
  501MOL0     H67605   8.962  10.207   5.055  0.0609 -0.3789  1.6762
  501MOL0     H67606   8.830  10.250   5.173  2.0600  1.6431  0.1345
  501MOL0     H67607   8.815  10.251   4.866  0.9761  0.5507  0.1610
  501MOL0     H67608   8.672  10.246   4.986  0.1062 -1.7238 -0.8540
  501MOL0     H67609   8.902  10.438   4.951 -0.2027 -0.8526 -0.7839
  501MOL0     H67610   8.787  10.462   5.082 -1.7055  3.2957 -1.4673
  501MOL0     H67611   8.626  10.449   4.844  0.5488 -1.3718 -0.6154
  501MOL0     H67612   8.647  10.581   4.962  0.9155 -0.0413  0.3298
  501MOL0     H67613   8.857  10.659   4.839  0.6532  0.5200 -2.2122
  501MOL0     H67614   8.714  10.674   4.737 -0.8908  0.8731  0.4294
  501MOL0     H67615   8.782  10.426   4.664 -3.0897  2.2144  1.9495
  501MOL0     H67616   8.944  10.497   4.711  0.3237 -0.3047 -0.4768
  501MOL0     H67617   8.922   9.840   4.715 -1.8008 -0.2170 -1.6909
  501MOL0     H67618   8.949   9.639   4.575 -2.2696  3.3554 -0.8112
  501MOL0     H67619   8.744   9.249   4.549  0.2488 -0.6218  0.7945
  501MOL0     H67620   8.648   9.084   4.381  0.3659 -0.5539 -0.9024
  501MOL0     H67621   9.812   8.442   3.351 -0.2698  1.5323  0.7587
  501MOL0     H67622   9.997   8.549   3.220 -1.2744  2.5476  2.9854
  501MOL0     H67623   9.982   9.086   2.958 -0.1767 -0.0133  1.9382
  501MOL0     H67624  10.171   9.198   2.844 -0.3839 -0.7723 -1.5118
  501MOL0     H67625  10.496   8.952   2.666  2.3740 -1.4978  1.3975
  501MOL0     H67626  10.542   9.116   2.624 -2.3386  0.3337 -0.8720
  501MOL0     H67627  10.589   9.020   2.902  1.9486  0.4174  0.0422
  501MOL0     H67628  10.630   9.171   2.835 -0.4792  0.1331 -1.0772
  501MOL0     H67629  10.829   9.059   2.791  0.3704  0.0996 -0.4320
  501MOL0     H67630  10.753   9.005   2.643  1.8940  1.3003 -0.2013
  501MOL0     H67631  10.780   8.862   2.906  1.0025 -1.7882 -0.2726
  501MOL0     H67632  10.859   8.817   2.759  0.7600  0.9100 -0.1104
  501MOL0     H67633  10.500   8.589   2.742 -0.6725  1.0975 -0.5055
  501MOL0     H67634  10.398   8.825   2.851  0.0348 -1.6159  2.6576
  501MOL0     H67635  10.215   8.726   2.946 -3.3312 -0.7624  2.1571
  502MOL0     O67636   8.185  10.655   8.683 -0.2724  1.3223  0.5517
  502MOL0     C67637   8.263  10.560   8.667  0.9922 -0.6225  0.1949
  502MOL0     O67638   8.378  10.557   8.602 -0.0704 -0.3322  0.8097
  502MOL0     C67639   8.448  10.680   8.598  0.8296 -0.7615 -0.4441
  502MOL0     C67640   8.564  10.692   8.682 -0.1482 -0.7268  0.5796
  502MOL0     C67641   8.640  10.811   8.668  0.8962 -0.5260 -0.1884
  502MOL0     C67642   8.586  10.927   8.603  0.5882 -0.3846  0.3556
  502MOL0     O67643   8.645  11.048   8.592  0.2986  0.3093 -0.7827
  502MOL0     C67644   8.782  11.048   8.563 -0.7012  0.0010  0.0803
  502MOL0     C67645   8.825  11.192   8.542 -0.2086  0.6375 -0.6718
  502MOL0     C67646   8.973  11.194   8.543 -0.2830 -0.0085 -0.3414
  502MOL0     C67647   9.035  11.318   8.608  0.2832 -0.3056  0.2304
  502MOL0     C67648   9.189  11.329   8.596 -0.3239  0.0215  0.3054
  502MOL0     C67649   9.225  11.397   8.460 -0.1774 -0.0118 -0.2849
  502MOL0     C67650   9.377  11.451   8.458  0.4254 -0.0720 -0.6378
  502MOL0     C67651   9.425  11.550   8.565  0.4501  0.0160  0.5888
  502MOL0     N67652   9.365  11.682   8.544  0.4579  0.2549  0.4020
  502MOL0     C67653   9.238  11.716   8.582 -0.0026  0.1448 -0.3796
  502MOL0     C67654   9.209  11.829   8.522 -0.4422  1.5839  1.3375
  502MOL0     C67655   9.066  11.888   8.533 -0.1866  1.1646  0.5069
  502MOL0     C67656   9.082  12.036   8.566  0.5764 -0.1363  0.5273
  502MOL0     C67657   9.157  12.064   8.699 -0.2376  0.3332  0.8646
  502MOL0     C67658   9.214  12.207   8.726 -0.1618 -0.0040 -0.4975
  502MOL0     O67659   9.313  12.236   8.626 -0.2813 -0.8647 -1.0853
  502MOL0     C67660   9.257  12.307   8.524 -0.6494  0.1860  0.2911
  502MOL0     C67661   9.171  12.415   8.551 -0.7687  1.1826 -0.3687
  502MOL0     C67662   9.114  12.490   8.450 -0.5336  0.1667 -0.1170
  502MOL0     C67663   9.037  12.611   8.492  0.1325  0.2292  0.5798
  502MOL0     C67664   9.139  12.458   8.315 -0.2296 -0.3579 -0.9575
  502MOL0     C67665   9.101  12.539   8.198  0.4739 -0.6128 -0.3345
  502MOL0     O67666   9.038  12.497   8.092 -0.5699  0.6070 -0.3345
  502MOL0     C67667   8.995  12.366   8.083  0.9057  0.0378 -0.6497
  502MOL0     C67668   8.886  12.316   8.151 -0.4179  0.1754 -0.0591
  502MOL0     C67669   8.857  12.180   8.133 -0.1198  0.7029  0.0733
  502MOL0     C67670   8.930  12.090   8.060 -0.5242 -0.0346 -0.1450
  502MOL0     O67671   8.900  11.953   8.038 -0.2951 -0.0231  0.2907
  502MOL0     C67672   8.795  11.889   8.107 -0.2699 -0.2421  0.2944
  502MOL0     C67673   8.798  11.742   8.074  0.8383 -0.4076  0.6389
  502MOL0     C67674   8.763  11.713   7.927  0.8456  0.1578 -0.1469
  502MOL0     C67675   8.780  11.563   7.890  0.3445  0.4402 -0.3197
  502MOL0     C67676   8.722  11.519   7.755  0.4601  0.4315 -0.2224
  502MOL0     C67677   8.569  11.549   7.745  0.3880 -0.1677  0.2182
  502MOL0     C67678   8.494  11.450   7.839  0.0011 -0.1636  0.1821
  502MOL0     C67679   8.426  11.337   7.762  0.4005 -0.6858 -0.1668
  502MOL0    Cl67680   8.536  11.257   7.639 -0.0525  0.0509  0.4192
  502MOL0     C67681   9.036  12.150   7.990  0.4077  0.1170 -0.1702
  502MOL0     C67682   9.063  12.288   7.994 -0.3276  1.0806  0.0707
  502MOL0     O67683   9.139  12.655   8.203  0.7154 -0.0663 -0.1597
  502MOL0     C67684   9.217  12.344   8.290 -0.6846 -0.8969 -0.9956
  502MOL0     C67685   9.292  12.279   8.392  0.3656  0.4842 -0.0353
  502MOL0     N67686   9.323  11.879   8.459  0.6527  0.4237 -0.3730
  502MOL0     N67687   9.414  11.783   8.467  0.4231  1.4118  0.8897
  502MOL0     C67688   8.463  10.914   8.532 -0.2827 -1.0807  0.0877
  502MOL0     C67689   8.396  10.793   8.526  0.1813 -1.1083  0.3944
  502MOL0     C67690   8.233  10.438   8.732 -1.3958  0.6602  0.5415
  502MOL0     C67691   8.275  10.313   8.674 -0.0749 -0.3036 -0.5450
  502MOL0     C67692   8.267  10.191   8.746  0.8067  0.2009  0.2861
  502MOL0     C67693   8.217  10.199   8.873 -0.6634 -0.3678 -0.8979
  502MOL0     O67694   8.234  10.080   8.947 -0.5720  0.1264  0.4790
  502MOL0     C67695   8.121  10.023   9.018  0.2701 -0.1627  0.2635
  502MOL0     C67696   8.159   9.877   9.053 -0.7135  0.1150  0.2082
  502MOL0     C67697   8.261   9.861   9.165  0.1827  0.2273  0.7606
  502MOL0     C67698   8.232   9.736   9.251 -0.0527 -0.5430 -0.1293
  502MOL0     C67699   8.217   9.608   9.176 -0.4560  0.4057 -0.8355
  502MOL0     C67700   8.222   9.489   9.141 -0.1126 -0.3854  0.4635
  502MOL0     C67701   8.179  10.319   8.930  0.0252  0.0258  0.4222
  502MOL0     C67702   8.203  10.436   8.865 -0.1616  0.2956  0.4245
  502MOL0     H67703   8.594  10.603   8.737 -0.9813 -0.6526  1.1771
  502MOL0     H67704   8.732  10.818   8.726  1.7764  0.1973 -1.6231
  502MOL0     H67705   8.848  10.998   8.634  2.2052  2.4365 -0.7011
  502MOL0     H67706   8.799  10.997   8.468 -0.1172 -0.6658  0.5350
  502MOL0     H67707   8.786  11.227   8.446  0.8735 -0.7005 -1.6542
  502MOL0     H67708   8.791  11.264   8.617  1.9417  0.7320  0.2897
  502MOL0     H67709   9.020  11.109   8.592 -0.1146 -2.3755 -4.2299
  502MOL0     H67710   9.013  11.186   8.442  1.2601  0.0189  0.2380
  502MOL0     H67711   8.985  11.397   8.553 -1.4760 -1.2198  0.4637
  502MOL0     H67712   9.013  11.311   8.715  2.6413 -2.2983  0.6902
  502MOL0     H67713   9.240  11.389   8.672  0.6158 -0.1337 -0.1815
  502MOL0     H67714   9.217  11.223   8.602 -1.3583 -0.1878  4.4482
  502MOL0     H67715   9.211  11.327   8.377  2.3809  1.6256 -2.2340
  502MOL0     H67716   9.152  11.478   8.450  1.4324  1.5872  0.3754
  502MOL0     H67717   9.435  11.360   8.469 -0.6354 -0.5550  1.5772
  502MOL0     H67718   9.402  11.495   8.361 -1.5838 -1.0004 -1.6417
  502MOL0     H67719   9.531  11.564   8.544 -0.0326  0.8493 -1.5698
  502MOL0     H67720   9.400  11.505   8.662 -0.5937 -0.1336  0.2679
  502MOL0     H67721   9.169  11.669   8.652  0.0135  0.5697 -0.0798
  502MOL0     H67722   9.012  11.876   8.438  0.7255  2.1861 -0.1642
  502MOL0     H67723   9.005  11.832   8.605  0.8927 -1.5038 -0.5155
  502MOL0     H67724   8.981  12.078   8.562  0.0589 -1.2996 -3.4300
  502MOL0     H67725   9.134  12.073   8.476 -3.3031 -0.5322 -2.1256
  502MOL0     H67726   9.245  11.999   8.701  1.2123  1.7515 -3.5752
  502MOL0     H67727   9.096  12.019   8.777 -0.9610 -2.8625 -1.3533
  502MOL0     H67728   9.267  12.195   8.820 -0.3796 -4.0403 -0.7016
  502MOL0     H67729   9.120  12.264   8.733  0.8929  1.7942 -0.3556
  502MOL0     H67730   9.162  12.457   8.651  2.0572  2.2541 -0.4722
  502MOL0     H67731   8.928  12.600   8.484  0.0823  1.3791 -0.6859
  502MOL0     H67732   9.062  12.650   8.591  1.5872  1.2136 -0.1551
  502MOL0     H67733   9.059  12.702   8.436  0.5061  0.8085  1.6406
  502MOL0     H67734   8.841  12.385   8.221  0.2701  1.1888 -0.5886
  502MOL0     H67735   8.793  12.136   8.209 -1.4059  4.0216  1.1183
  502MOL0     H67736   8.813  11.883   8.215 -0.0274 -0.3964  0.2470
  502MOL0     H67737   8.696  11.934   8.103  0.9573  2.6478 -0.9643
  502MOL0     H67738   8.900  11.712   8.101  1.8555  2.5174  0.4463
  502MOL0     H67739   8.723  11.698   8.140 -1.9571  0.5999 -1.6580
  502MOL0     H67740   8.838  11.767   7.870  4.1496 -1.7769  1.9864
  502MOL0     H67741   8.659  11.745   7.912  0.0726 -0.8392  2.3576
  502MOL0     H67742   8.884  11.534   7.907  0.7705  1.3878 -1.2073
  502MOL0     H67743   8.727  11.503   7.964  0.3168  2.4323  1.3823
  502MOL0     H67744   8.735  11.414   7.729 -0.1580  0.7814 -2.0394
  502MOL0     H67745   8.779  11.570   7.676 -0.8785  0.1257 -1.4263
  502MOL0     H67746   8.546  11.654   7.768 -0.8546 -0.1611 -0.9528
  502MOL0     H67747   8.544  11.529   7.641  2.3292 -3.9375  0.3039
  502MOL0     H67748   8.418  11.508   7.892 -1.1287  0.7176 -2.2617
  502MOL0     H67749   8.564  11.408   7.911 -0.2177 -0.3771  0.2727
  502MOL0     H67750   8.335  11.371   7.710 -0.2194 -0.8367  0.8016
  502MOL0     H67751   8.404  11.257   7.833 -4.2268  0.6686  0.2578
  502MOL0     H67752   9.100  12.089   7.926  0.0021 -1.8966  1.2573
  502MOL0     H67753   9.144  12.329   7.934  1.6319  0.9617  2.4635
  502MOL0     H67754   9.238  12.330   8.185  2.0395  5.7923 -1.8046
  502MOL0     H67755   9.365  12.201   8.374  1.8811  2.2843 -2.1314
  502MOL0     H67756   8.408  11.000   8.497  2.6530  1.7224  1.7952
  502MOL0     H67757   8.297  10.784   8.482  0.0318  2.4906 -0.3136
  502MOL0     H67758   8.310  10.309   8.572  1.3030  0.6887 -0.1268
  502MOL0     H67759   8.306  10.100   8.702 -3.4885 -0.5657 -2.5008
  502MOL0     H67760   8.099  10.079   9.110 -2.6804 -1.8605  0.7235
  502MOL0     H67761   8.034  10.025   8.951  1.5810  0.9204 -1.4845
  502MOL0     H67762   8.204   9.829   8.965  2.8588  1.0910  1.3231
  502MOL0     H67763   8.075   9.815   9.087 -0.7657  0.0160 -0.0973
  502MOL0     H67764   8.270   9.953   9.225 -4.5744  0.0851  2.0990
  502MOL0     H67765   8.361   9.847   9.123 -0.1807 -3.7451  0.8769
  502MOL0     H67766   8.145   9.769   9.309  1.4646  1.6432  1.0836
  502MOL0     H67767   8.313   9.714   9.322 -0.1446 -0.0057  0.1456
  502MOL0     H67768   8.241   9.398   9.088  3.3939  1.4087 -1.7847
  502MOL0     H67769   8.146  10.316   9.034 -3.1048  1.2750 -0.4136
  502MOL0     H67770   8.196  10.520   8.934 -2.5136 -1.1747  2.1455
  503MOL0     O67771   8.003   0.187   8.254 -0.1734  0.4407  0.1338
  503MOL0     C67772   7.946   0.127   8.164  0.0028  0.2515  0.6202
  503MOL0     O67773   7.942   0.162   8.027  0.1144 -0.3072  0.3380
  503MOL0     C67774   8.043   0.250   7.982  0.2225  1.1924 -0.0592
  503MOL0     C67775   8.005   0.370   7.923  0.5111  1.0913  0.0339
  503MOL0     C67776   8.107   0.455   7.879  0.5965  0.0871 -0.3547
  503MOL0     C67777   8.237   0.423   7.892 -0.3868  1.2323  0.3059
  503MOL0     O67778   8.342   0.504   7.866  0.3258  0.3159 -0.4319
  503MOL0     C67779   8.347   0.630   7.943  0.0556  0.1867 -0.0222
  503MOL0     C67780   8.487   0.693   7.936  0.2136 -0.6111  0.5252
  503MOL0     C67781   8.495   0.833   8.001 -0.0526  0.3937  0.1092
  503MOL0     C67782   8.479   0.937   7.891  0.6128 -0.2987 -0.2467
  503MOL0     C67783   8.512   1.079   7.929 -0.2846  0.4357  0.6656
  503MOL0     C67784   8.654   1.134   7.936 -0.0221  0.4701 -0.5881
  503MOL0     C67785   8.668   1.264   8.012 -0.4144 -0.1123  0.3037
  503MOL0     C67786   8.741   1.252   8.142 -0.4905  0.5189  0.0129
  503MOL0     N67787   8.781   1.386   8.195  0.0725  0.3753 -0.5301
  503MOL0     C67788   8.896   1.444   8.155 -0.9683  0.0458 -0.1637
  503MOL0     C67789   8.881   1.574   8.205  0.1278 -0.2249 -0.0152
  503MOL0     C67790   8.971   1.700   8.187  0.1188  0.2378 -0.4175
  503MOL0     C67791   9.031   1.745   8.322 -0.0160  0.5098 -0.6338
  503MOL0     C67792   9.125   1.865   8.293  0.9459 -0.1478 -0.3176
  503MOL0     C67793   9.166   1.924   8.426 -0.8765  1.0111  0.1932
  503MOL0     O67794   9.285   2.013   8.402 -0.0232  0.3718 -0.8778
  503MOL0     C67795   9.357   2.064   8.507  0.6896  1.6645 -0.5708
  503MOL0     C67796   9.326   2.019   8.647 -0.1766 -0.1360  1.3835
  503MOL0     C67797   9.400   2.064   8.757  0.9563 -0.4281  0.7732
  503MOL0     C67798   9.347   2.036   8.897  1.0989 -0.2067 -0.1916
  503MOL0     C67799   9.506   2.151   8.732 -0.5060 -0.9515  0.8064
  503MOL0     C67800   9.590   2.209   8.835  0.4819  0.2327 -0.2669
  503MOL0     O67801   9.664   2.313   8.800 -0.2103 -0.1419  0.7152
  503MOL0     C67802   9.765   2.343   8.882 -0.0035 -0.0168 -0.4364
  503MOL0     C67803   9.893   2.306   8.851 -0.6292 -0.1357 -0.5310
  503MOL0     C67804  10.001   2.354   8.938 -0.1854  0.5723 -0.2730
  503MOL0     C67805   9.976   2.432   9.048 -0.8660 -0.3039  0.1987
  503MOL0     O67806  10.096   2.460   9.114 -0.4097  0.5631 -0.4409
  503MOL0     C67807  10.084   2.557   9.215  0.2695  0.3153 -0.7141
  503MOL0     C67808  10.222   2.582   9.286  0.2402 -0.0142  1.1131
  503MOL0     C67809  10.328   2.640   9.191 -1.0347 -1.3572 -0.4007
  503MOL0     C67810  10.299   2.797   9.167 -0.1020  0.3279 -0.0898
  503MOL0     C67811  10.414   2.872   9.089 -0.1701 -0.2475 -0.5839
  503MOL0     C67812  10.380   3.016   9.041  0.5328 -0.3752  0.0735
  503MOL0     C67813  10.332   3.113   9.147  0.1112  0.0535  0.9404
  503MOL0     C67814  10.307   3.255   9.088 -0.5590  0.0074 -0.4443
  503MOL0    Cl67815  10.168   3.271   8.994 -0.1582 -0.3630  0.0855
  503MOL0     C67816   9.845   2.461   9.089  0.0574 -0.8892 -0.3672
  503MOL0     C67817   9.740   2.412   9.006  0.2556 -0.2649  0.4223
  503MOL0     O67818   9.594   2.149   8.942  0.2194 -0.1329  0.0639
  503MOL0     C67819   9.543   2.184   8.596  0.7078 -0.5593 -0.2588
  503MOL0     C67820   9.466   2.150   8.490  0.8531  0.0354  0.9612
  503MOL0     N67821   8.756   1.592   8.264 -0.8387  0.1809  0.0775
  503MOL0     N67822   8.710   1.474   8.263  0.7759 -0.3107  0.0255
  503MOL0     C67823   8.269   0.293   7.941 -0.2305 -0.5603  0.2053
  503MOL0     C67824   8.174   0.211   7.997 -0.8302 -0.9879  0.3883
  503MOL0     C67825   7.854   0.018   8.205  0.0897  0.5929  0.2358
  503MOL0     C67826   7.807  -0.080   8.114 -0.4569 -0.5801 -0.3739
  503MOL0     C67827   7.727  -0.182   8.161 -0.2225  0.1447  0.3451
  503MOL0     C67828   7.676  -0.185   8.290  0.8293 -0.8252  0.0244
  503MOL0     O67829   7.583  -0.283   8.323  0.2640  0.2508 -0.0368
  503MOL0     C67830   7.517  -0.267   8.450 -0.5091  0.6675  0.0787
  503MOL0     C67831   7.409  -0.377   8.462  0.0320 -0.7913 -0.4051
  503MOL0     C67832   7.476  -0.509   8.500  0.0962  0.6964 -0.2952
  503MOL0     C67833   7.362  -0.604   8.540 -0.8986  0.3457 -0.5576
  503MOL0     C67834   7.418  -0.738   8.534 -0.0717 -0.1362  0.0190
  503MOL0     C67835   7.459  -0.842   8.495 -0.8066  0.7039 -0.7991
  503MOL0     C67836   7.727  -0.091   8.382 -0.2613 -0.1509  0.0133
  503MOL0     C67837   7.809   0.015   8.335  0.5588  0.0097  0.0718
  503MOL0     H67838   7.900   0.399   7.916  0.0643 -0.1502  1.2683
  503MOL0     H67839   8.083   0.556   7.846 -1.6606  0.2496  1.5362
  503MOL0     H67840   8.277   0.706   7.907  1.2065  1.5231  0.4746
  503MOL0     H67841   8.325   0.609   8.048 -2.2764  0.5164 -0.3937
  503MOL0     H67842   8.551   0.632   8.001  0.7064  3.4454  4.2564
  503MOL0     H67843   8.524   0.679   7.834 -1.9960 -1.5077 -0.2249
  503MOL0     H67844   8.418   0.831   8.079 -1.0671 -2.3328 -0.8141
  503MOL0     H67845   8.595   0.843   8.044  0.8954 -2.0957 -1.2461
  503MOL0     H67846   8.551   0.896   7.821  1.0566  1.5378 -0.9298
  503MOL0     H67847   8.378   0.944   7.849  0.3015 -0.2579  0.4936
  503MOL0     H67848   8.466   1.141   7.851  3.0916  1.7086 -0.4922
  503MOL0     H67849   8.460   1.095   8.024 -0.1173 -2.4015  1.3117
  503MOL0     H67850   8.722   1.061   7.981  1.6340  2.5826  0.5269
  503MOL0     H67851   8.687   1.142   7.833 -2.4517 -1.0973 -1.5720
  503MOL0     H67852   8.733   1.330   7.954 -2.6683  3.1735  1.2359
  503MOL0     H67853   8.578   1.327   8.016 -0.8279 -0.6322 -0.4063
  503MOL0     H67854   8.838   1.204   8.122 -0.0774  1.7962 -1.2112
  503MOL0     H67855   8.679   1.199   8.215  1.2082  0.3792  1.4224
  503MOL0     H67856   8.980   1.400   8.103 -0.3208  0.1577  0.7709
  503MOL0     H67857   9.057   1.674   8.124  1.1825  1.3237  0.5209
  503MOL0     H67858   8.912   1.781   8.142 -1.2363  0.3333  1.4164
  503MOL0     H67859   9.074   1.656   8.369 -3.6931 -1.5432 -0.7790
  503MOL0     H67860   8.951   1.788   8.382  1.4557  4.8364 -1.4039
  503MOL0     H67861   9.072   1.943   8.239  0.6937  0.6385  1.0065
  503MOL0     H67862   9.211   1.823   8.240  1.6778 -1.2145  1.6042
  503MOL0     H67863   9.192   1.841   8.492  1.5879  0.8614 -0.8435
  503MOL0     H67864   9.080   1.982   8.460 -1.4077 -0.5879  1.7128
  503MOL0     H67865   9.239   1.955   8.659 -0.5725 -0.8431 -3.3350
  503MOL0     H67866   9.417   1.996   8.972  0.1484  0.9259  1.3648
  503MOL0     H67867   9.303   2.128   8.935  0.1106 -0.4914 -0.6358
  503MOL0     H67868   9.262   1.968   8.908  0.4932  0.9868  4.9782
  503MOL0     H67869   9.925   2.258   8.759  2.1678 -0.8701  0.7038
  503MOL0     H67870  10.105   2.338   8.910  0.2032  1.7763  0.4150
  503MOL0     H67871  10.048   2.642   9.156 -1.4433  2.7529  3.4433
  503MOL0     H67872  10.013   2.540   9.297  0.1495 -1.0559 -1.0614
  503MOL0     H67873  10.202   2.656   9.365 -0.4970  1.0123  0.0149
  503MOL0     H67874  10.263   2.492   9.333  1.3699  0.1918  0.5385
  503MOL0     H67875  10.329   2.590   9.094 -1.4003 -1.5203 -0.3239
  503MOL0     H67876  10.421   2.637   9.248 -1.0587  3.2110  0.2121
  503MOL0     H67877  10.213   2.802   9.100 -1.1545 -1.2085  1.0570
  503MOL0     H67878  10.266   2.842   9.262 -3.0556 -2.0992  0.2045
  503MOL0     H67879  10.416   2.812   8.997 -0.7798 -3.6906  1.4453
  503MOL0     H67880  10.509   2.864   9.141  0.5867  4.2136 -0.8935
  503MOL0     H67881  10.464   3.061   8.988  0.5558  0.8313  1.0896
  503MOL0     H67882  10.298   3.003   8.969  0.7107  0.4846 -0.3049
  503MOL0     H67883  10.399   3.120   9.233 -3.0430 -4.1340  4.2206
  503MOL0     H67884  10.230   3.093   9.183 -1.3606  3.2534 -0.9455
  503MOL0     H67885  10.392   3.295   9.032  0.7294 -1.7382  0.1732
  503MOL0     H67886  10.294   3.322   9.173 -2.0828 -0.5839 -0.1797
  503MOL0     H67887   9.831   2.519   9.180  0.4895 -0.4666 -0.5689
  503MOL0     H67888   9.633   2.426   9.023 -0.1892 -1.1916 -1.3081
  503MOL0     H67889   9.624   2.251   8.570 -0.2308  0.1584 -1.4417
  503MOL0     H67890   9.495   2.186   8.392  0.1304 -0.7998  0.4241
  503MOL0     H67891   8.374   0.273   7.957 -0.0020  0.8490  0.5501
  503MOL0     H67892   8.212   0.116   8.032  0.5421 -0.6422 -0.0668
  503MOL0     H67893   7.833  -0.077   8.008  2.6774 -1.1127  0.2735
  503MOL0     H67894   7.683  -0.248   8.086  2.4858 -0.3938 -0.8754
  503MOL0     H67895   7.575  -0.280   8.542 -2.8912 -0.8805  1.4793
  503MOL0     H67896   7.455  -0.177   8.452 -2.8471 -0.8479 -0.5349
  503MOL0     H67897   7.356  -0.389   8.367  0.9144 -1.2669 -0.8485
  503MOL0     H67898   7.331  -0.337   8.528  0.7976 -0.3026  0.2253
  503MOL0     H67899   7.552  -0.493   8.577 -0.7091  1.1597  0.4268
  503MOL0     H67900   7.529  -0.547   8.413  3.3765  0.3610  1.6887
  503MOL0     H67901   7.283  -0.597   8.464 -0.5170  1.3820 -0.8754
  503MOL0     H67902   7.330  -0.567   8.637 -3.2765  0.3696 -1.2730
  503MOL0     H67903   7.494  -0.940   8.470  0.0245  0.9384 -0.5696
  503MOL0     H67904   7.719  -0.090   8.490  0.8215  0.0687  0.1053
  503MOL0     H67905   7.855   0.084   8.406  2.8832  1.8521 -2.9900
  504MOL0     O67906   5.121   7.879   3.868  0.3131  0.0250 -0.0282
  504MOL0     C67907   5.107   7.889   3.989  0.4485 -0.9874 -0.4981
  504MOL0     O67908   5.071   8.001   4.051  0.0406 -0.6328 -0.3197
  504MOL0     C67909   5.077   8.124   3.991 -0.6983 -0.3157 -0.6708
  504MOL0     C67910   5.047   8.154   3.855 -0.5519  0.1384 -0.0272
  504MOL0     C67911   5.069   8.276   3.788 -0.8038  0.2018  0.3955
  504MOL0     C67912   5.114   8.383   3.867 -0.4240  0.3215 -0.2384
  504MOL0     O67913   5.145   8.504   3.806  0.0136  0.6329  0.4608
  504MOL0     C67914   5.192   8.619   3.872 -0.5121 -0.9163 -0.2656
  504MOL0     C67915   5.220   8.724   3.767 -0.7236 -0.1943  0.1267
  504MOL0     C67916   5.338   8.679   3.678  0.1722  0.1995  0.1813
  504MOL0     C67917   5.343   8.749   3.539 -0.1211  0.3096  0.4298
  504MOL0     C67918   5.355   8.901   3.555  0.9279 -0.1480 -0.5358
  504MOL0     C67919   5.498   8.950   3.591 -0.2875 -0.0083 -0.1987
  504MOL0     C67920   5.501   9.085   3.661 -0.3194  0.3493 -0.2285
  504MOL0     C67921   5.649   9.118   3.683 -0.0089  0.8539  0.1494
  504MOL0     N67922   5.663   9.253   3.740 -0.4699  0.5644  0.0897
  504MOL0     C67923   5.636   9.305   3.864 -0.3774  0.2951 -0.7639
  504MOL0     C67924   5.687   9.433   3.864  0.5092  0.9706  0.0730
  504MOL0     C67925   5.672   9.536   3.978 -0.0316 -0.1983 -0.0611
  504MOL0     C67926   5.657   9.684   3.935 -0.3831  0.2959  0.9098
  504MOL0     C67927   5.650   9.772   4.067  0.3100 -0.2584  0.1862
  504MOL0     C67928   5.755   9.732   4.170  0.7802  0.5174  0.0679
  504MOL0     O67929   5.779   9.841   4.255  0.5394  0.1055  0.1315
  504MOL0     C67930   5.675   9.880   4.340 -0.7012 -0.7590 -1.0286
  504MOL0     C67931   5.572   9.799   4.400 -0.4383  0.5660 -0.6497
  504MOL0     C67932   5.479   9.849   4.497 -0.6439 -0.9003  0.7753
  504MOL0     C67933   5.379   9.739   4.539  0.9434 -1.2930  0.6282
  504MOL0     C67934   5.476   9.979   4.541  0.0075 -0.5061  0.2043
  504MOL0     C67935   5.382  10.039   4.635  0.4965 -0.6769 -0.3587
  504MOL0     O67936   5.295   9.952   4.692  0.3489 -0.3690 -0.7606
  504MOL0     C67937   5.196   9.986   4.780  0.5164  0.4574  0.4607
  504MOL0     C67938   5.167   9.903   4.893  0.7240 -0.1730 -0.9200
  504MOL0     C67939   5.059   9.937   4.980 -0.5086 -0.1235 -0.6593
  504MOL0     C67940   4.972  10.050   4.948 -0.0267  0.1192 -0.6693
  504MOL0     O67941   4.865  10.084   5.023 -0.1796 -0.5182  0.1298
  504MOL0     C67942   4.868  10.089   5.163  0.1881 -0.7577  0.0145
  504MOL0     C67943   4.722  10.097   5.185  0.5089 -0.0020  0.2804
  504MOL0     C67944   4.691  10.152   5.326  0.3330 -0.4187  1.0426
  504MOL0     C67945   4.703  10.058   5.437 -0.2142  0.7019 -0.3696
  504MOL0     C67946   4.609   9.939   5.446  0.0035  0.1328 -0.4960
  504MOL0     C67947   4.628   9.850   5.566 -0.5597  0.5942 -0.9489
  504MOL0     C67948   4.773   9.803   5.600  0.3148  0.2008 -0.1524
  504MOL0     C67949   4.754   9.694   5.709  0.2187 -0.0725 -0.3775
  504MOL0    Cl67950   4.892   9.699   5.806 -0.1532  0.2682  0.0389
  504MOL0     C67951   5.005  10.136   4.844 -0.4495  0.4105  0.9997
  504MOL0     C67952   5.112  10.099   4.763 -0.2215  0.2618  0.6944
  504MOL0     O67953   5.399  10.156   4.666 -0.5154 -0.0029 -0.4210
  504MOL0     C67954   5.581  10.059   4.486 -0.0744 -0.5441  1.1554
  504MOL0     C67955   5.677  10.013   4.392  0.1763  0.0134 -0.3241
  504MOL0     N67956   5.743   9.457   3.737 -0.6398  0.0802  0.7068
  504MOL0     N67957   5.727   9.345   3.669  0.0517  0.1705 -0.2202
  504MOL0     C67958   5.125   8.362   4.009 -0.5469  0.2532  0.2119
  504MOL0     C67959   5.114   8.238   4.068  0.6682  0.2500  0.2301
  504MOL0     C67960   5.106   7.770   4.068 -0.6717 -0.3380 -1.0829
  504MOL0     C67961   5.135   7.768   4.206 -0.8146 -0.0949  1.2853
  504MOL0     C67962   5.140   7.650   4.286 -0.3706  0.1908  1.2188
  504MOL0     C67963   5.116   7.528   4.223  0.2400 -0.4438 -1.1516
  504MOL0     O67964   5.112   7.412   4.292 -0.6728 -0.2060  0.3213
  504MOL0     C67965   5.062   7.415   4.427 -0.3604  0.1879  0.1925
  504MOL0     C67966   4.979   7.293   4.469 -1.1078  0.6271  0.0181
  504MOL0     C67967   5.038   7.158   4.419 -0.5152  0.4649 -0.6168
  504MOL0     C67968   4.929   7.045   4.424 -0.1345  0.2721  0.5186
  504MOL0     C67969   4.983   6.910   4.389  0.2515  0.1339  0.0737
  504MOL0     C67970   5.038   6.797   4.366  0.1418 -0.4897  0.5800
  504MOL0     C67971   5.095   7.523   4.088 -0.2651 -0.8798  0.6000
  504MOL0     C67972   5.081   7.640   4.009 -0.0223  0.6368 -0.1244
  504MOL0     H67973   4.995   8.081   3.794 -2.9514  1.8678 -0.1523
  504MOL0     H67974   5.049   8.290   3.682  0.5232  0.5877  0.1795
  504MOL0     H67975   5.123   8.649   3.952  0.3551 -2.0313  0.9375
  504MOL0     H67976   5.286   8.582   3.914 -0.8482 -1.9895 -0.4153
  504MOL0     H67977   5.128   8.759   3.718  0.5642  4.8999  0.7191
  504MOL0     H67978   5.254   8.808   3.828  1.1392 -0.7271 -0.1234
  504MOL0     H67979   5.433   8.703   3.727  1.0743  1.8643 -2.1720
  504MOL0     H67980   5.338   8.573   3.650 -3.1453 -0.1319  1.0277
  504MOL0     H67981   5.435   8.710   3.494 -0.1246  0.8015 -0.0169
  504MOL0     H67982   5.257   8.718   3.478 -0.2339 -2.3258  1.7773
  504MOL0     H67983   5.325   8.958   3.466 -1.1700  0.5557  0.5449
  504MOL0     H67984   5.280   8.924   3.632  1.8079 -1.7233  0.8467
  504MOL0     H67985   5.544   8.878   3.660 -0.7552  1.0895  1.3050
  504MOL0     H67986   5.552   8.958   3.497 -2.1546  2.5014 -1.1694
  504MOL0     H67987   5.463   9.168   3.600 -1.0075  0.5160  0.4082
  504MOL0     H67988   5.443   9.067   3.751 -0.4236 -6.1968 -1.1576
  504MOL0     H67989   5.713   9.114   3.595 -0.8060  3.6325 -0.6475
  504MOL0     H67990   5.681   9.045   3.758  4.8987  2.3632 -0.1416
  504MOL0     H67991   5.585   9.262   3.949 -1.4841  2.9583  0.0435
  504MOL0     H67992   5.586   9.511   4.040  1.2646 -2.1877  1.0508
  504MOL0     H67993   5.762   9.523   4.039  1.3139 -0.6192 -2.0244
  504MOL0     H67994   5.566   9.681   3.876  1.5620 -0.3950 -2.2988
  504MOL0     H67995   5.737   9.729   3.875 -0.0933 -0.2013  0.9169
  504MOL0     H67996   5.547   9.775   4.102 -0.9295  1.0767 -3.1470
  504MOL0     H67997   5.669   9.876   4.038 -4.4506  0.7297 -0.2040
  504MOL0     H67998   5.846   9.708   4.114 -0.8777  0.0302 -2.6015
  504MOL0     H67999   5.719   9.643   4.223  0.8052  0.4280 -0.0640
  504MOL0     H68000   5.581   9.691   4.392  2.1400  0.8128 -2.2268
  504MOL0     H68001   5.281   9.754   4.492  0.4195 -1.4827  1.6333
  504MOL0     H68002   5.420   9.639   4.522  1.1543 -1.3699  1.5175
  504MOL0     H68003   5.360   9.741   4.647  0.5440  0.9645  0.5581
  504MOL0     H68004   5.231   9.816   4.906  0.2907 -0.1970  1.5679
  504MOL0     H68005   5.027   9.874   5.063 -1.1407  1.4448  0.3420
  504MOL0     H68006   4.893  10.000   5.222 -1.3422 -1.1170  0.1889
  504MOL0     H68007   4.918  10.183   5.187  0.4539 -0.3813 -1.8723
  504MOL0     H68008   4.683  10.168   5.111  1.5992 -1.5920 -1.9311
  504MOL0     H68009   4.671  10.002   5.171  0.4709  0.1516 -0.7140
  504MOL0     H68010   4.594  10.202   5.313  1.0931  1.0701  0.8305
  504MOL0     H68011   4.762  10.232   5.351  1.1946 -1.2358  1.2450
  504MOL0     H68012   4.805  10.017   5.432 -0.8944 -1.0001 -0.7167
  504MOL0     H68013   4.695  10.116   5.530 -1.7721  4.0255 -2.4154
  504MOL0     H68014   4.631   9.877   5.359  2.4702  0.1663  0.0286
  504MOL0     H68015   4.504   9.972   5.450 -0.1044 -0.3004  1.0044
  504MOL0     H68016   4.587   9.900   5.654 -1.5374  1.0740 -1.6585
  504MOL0     H68017   4.569   9.760   5.547 -0.7876  0.3925  0.5517
  504MOL0     H68018   4.834   9.881   5.646 -0.4690  0.5464  0.3242
  504MOL0     H68019   4.819   9.757   5.512  0.0552 -2.4569  1.0313
  504MOL0     H68020   4.761   9.594   5.664 -0.5531 -0.1262 -0.4040
  504MOL0     H68021   4.663   9.716   5.766  1.0707  1.0201  0.6085
  504MOL0     H68022   4.941  10.216   4.810  0.2781  0.3588 -0.6153
  504MOL0     H68023   5.120  10.143   4.664  0.4836 -1.5919 -0.1243
  504MOL0     H68024   5.600  10.162   4.511  0.8617 -0.2829 -0.4762
  504MOL0     H68025   5.769  10.067   4.373 -0.4405  0.3123 -2.7790
  504MOL0     H68026   5.164   8.440   4.073  0.7423  0.0924 -0.3404
  504MOL0     H68027   5.140   8.216   4.171  1.3063  1.2768  0.3020
  504MOL0     H68028   5.153   7.865   4.251 -2.8358  0.1070  1.7358
  504MOL0     H68029   5.180   7.655   4.387  1.4104 -0.6796  0.5887
  504MOL0     H68030   5.146   7.408   4.497 -2.0454  0.8958  2.4013
  504MOL0     H68031   5.005   7.506   4.447 -0.3784 -0.7166  5.6536
  504MOL0     H68032   4.875   7.303   4.435 -0.7186  0.9907 -1.0971
  504MOL0     H68033   4.966   7.284   4.577 -1.6393 -0.4054 -0.1168
  504MOL0     H68034   5.115   7.131   4.492  1.2225  2.4925 -1.5541
  504MOL0     H68035   5.091   7.160   4.323 -1.8717 -3.9158 -1.6607
  504MOL0     H68036   4.840   7.074   4.367 -0.0880  2.0658  1.2761
  504MOL0     H68037   4.891   7.043   4.526  1.5248 -1.0218  1.1478
  504MOL0     H68038   5.093   6.706   4.353  0.9260  0.0547 -0.0608
  504MOL0     H68039   5.077   7.428   4.040 -1.1557 -0.0395 -0.8314
  504MOL0     H68040   5.056   7.620   3.905 -0.7871  0.9077  0.0030
  505MOL0     O68041  11.085   6.205   6.685 -0.8931 -0.7039  0.0005
  505MOL0     C68042  11.065   6.085   6.674  0.3435 -0.2495  0.8717
  505MOL0     O68043  11.021   6.030   6.561 -0.4563 -0.0715 -0.1032
  505MOL0     C68044  10.968   6.113   6.465  0.3579 -0.1678 -0.4279
  505MOL0     C68045  11.052   6.171   6.369 -0.9400  0.0612 -0.1035
  505MOL0     C68046  10.987   6.240   6.257 -0.4550  0.0370  0.0782
  505MOL0     C68047  10.851   6.242   6.244 -0.6923  0.3014  0.1034
  505MOL0     O68048  10.789   6.313   6.141 -0.8451 -0.0790  0.3778
  505MOL0     C68049  10.870   6.366   6.026 -0.6572 -1.2282 -0.5521
  505MOL0     C68050  10.787   6.466   5.942 -0.1649  0.2424  0.1740
  505MOL0     C68051  10.876   6.522   5.822 -0.6761 -0.0156  0.6855
  505MOL0     C68052  10.794   6.545   5.700  0.5126  0.7518 -0.8706
  505MOL0     C68053  10.891   6.552   5.575  0.5866 -1.2203 -0.4916
  505MOL0     C68054  10.996   6.664   5.573 -0.2576 -0.7875  0.1897
  505MOL0     C68055  11.075   6.649   5.443 -0.6977 -0.6076 -0.5620
  505MOL0     C68056  11.117   6.793   5.405  0.4285 -0.2274  0.0354
  505MOL0     N68057  11.212   6.787   5.296 -0.0150 -0.6583  0.3156
  505MOL0     C68058  11.343   6.739   5.296 -0.1554  0.0435  0.4567
  505MOL0     C68059  11.381   6.729   5.170  0.1466  0.5867  1.1280
  505MOL0     C68060  11.520   6.693   5.118 -0.0834  1.1138  0.1654
  505MOL0     C68061  11.545   6.544   5.130  0.2765  1.0360  0.3390
  505MOL0     C68062  11.671   6.485   5.056  0.2336 -0.6839 -0.7741
  505MOL0     C68063  11.804   6.548   5.102  0.3965  0.3421  0.4705
  505MOL0     O68064  11.906   6.504   5.020  0.2970  0.4705  0.2269
  505MOL0     C68065  12.031   6.524   5.058 -0.8349 -0.2448 -0.3523
  505MOL0     C68066  12.127   6.452   4.994 -0.2344  0.8360 -1.1236
  505MOL0     C68067  12.261   6.485   5.013  0.2410 -0.2537 -0.1975
  505MOL0     C68068  12.364   6.404   4.942  0.0365  0.7313 -0.2063
  505MOL0     C68069  12.294   6.596   5.100 -0.7553 -0.6216 -0.2364
  505MOL0     C68070  12.426   6.637   5.134  0.1110 -0.1906  0.6493
  505MOL0     O68071  12.428   6.764   5.178 -0.3845 -0.4611 -0.3774
  505MOL0     C68072  12.526   6.809   5.274  1.0170  0.6395 -1.0286
  505MOL0     C68073  12.470   6.906   5.367 -0.4092 -0.3133 -0.0047
  505MOL0     C68074  12.547   6.954   5.473  0.0157  0.3139 -0.4269
  505MOL0     C68075  12.679   6.918   5.495 -0.0246  0.4800 -0.5789
  505MOL0     O68076  12.777   6.963   5.585  1.0035  0.2156  0.0431
  505MOL0     C68077  12.731   7.040   5.691  0.6122 -0.9296 -0.6262
  505MOL0     C68078  12.844   7.087   5.772  0.2695  0.5107 -0.7594
  505MOL0     C68079  12.924   7.201   5.721  0.2900 -0.0594  0.7338
  505MOL0     C68080  13.003   7.249   5.841  1.2532 -0.5252 -0.1145
  505MOL0     C68081  13.035   7.403   5.817  0.1113  0.6438 -0.3751
  505MOL0     C68082  13.153   7.440   5.908  0.4686  0.3068 -0.4573
  505MOL0     C68083  13.216   7.583   5.891 -0.1121 -0.3666  0.2119
  505MOL0     C68084  13.142   7.682   5.979 -0.2643 -0.0417 -0.2806
  505MOL0    Cl68085  12.982   7.712   5.902 -0.0120 -0.0382  0.2807
  505MOL0     C68086  12.727   6.830   5.396 -0.2682  1.0823 -0.1566
  505MOL0     C68087  12.660   6.770   5.288  0.6408 -0.2077  0.0447
  505MOL0     O68088  12.520   6.560   5.120  0.4158  0.0736  0.4756
  505MOL0     C68089  12.187   6.663   5.170 -0.0159 -0.3889 -0.7500
  505MOL0     C68090  12.063   6.629   5.150  0.1142  0.0236 -0.0615
  505MOL0     N68091  11.274   6.764   5.088  0.3698 -0.2924 -0.7853
  505MOL0     N68092  11.177   6.789   5.165 -1.1234  0.7191  0.2950
  505MOL0     C68093  10.776   6.177   6.333  0.6101  1.6417 -0.2000
  505MOL0     C68094  10.828   6.117   6.449  0.5070  0.8670  0.2899
  505MOL0     C68095  11.051   6.012   6.806 -0.3677  0.5764 -0.0206
  505MOL0     C68096  11.102   6.064   6.929  0.9655 -0.1988  0.7338
  505MOL0     C68097  11.082   5.996   7.053  0.4499 -0.0693  1.1091
  505MOL0     C68098  11.014   5.879   7.061 -0.2441 -0.6362  0.2970
  505MOL0     O68099  10.990   5.822   7.178 -0.7255  0.1227  0.2129
  505MOL0     C68100  11.095   5.813   7.277 -0.3343 -0.4407  0.1991
  505MOL0     C68101  11.219   5.736   7.227  0.4086 -0.9909 -1.0093
  505MOL0     C68102  11.322   5.705   7.341 -0.3303  0.1459 -1.1326
  505MOL0     C68103  11.419   5.595   7.292  1.2742 -0.4826 -0.2144
  505MOL0     C68104  11.474   5.518   7.406 -0.4159 -0.1879  0.1152
  505MOL0     C68105  11.502   5.448   7.499  0.4717 -0.0988  0.5845
  505MOL0     C68106  10.971   5.818   6.943  0.6485  0.2117 -0.8040
  505MOL0     C68107  10.979   5.889   6.825 -0.2843  0.0743  0.6806
  505MOL0     H68108  11.159   6.156   6.377 -1.1571 -0.9780  1.2275
  505MOL0     H68109  11.055   6.287   6.187 -0.6492  2.2517  1.2932
  505MOL0     H68110  10.938   6.441   6.068 -1.5379 -1.3072  1.1224
  505MOL0     H68111  10.933   6.293   5.975 -3.1367 -4.0569  0.1048
  505MOL0     H68112  10.700   6.405   5.915 -0.4111 -0.0708  1.5835
  505MOL0     H68113  10.750   6.551   6.000 -3.3417 -2.6764  2.8631
  505MOL0     H68114  10.943   6.606   5.840 -1.6368  1.2096 -1.1879
  505MOL0     H68115  10.945   6.442   5.794 -1.7822 -1.0437  0.8083
  505MOL0     H68116  10.728   6.459   5.685 -1.5533  1.9408  0.8413
  505MOL0     H68117  10.729   6.633   5.706  0.5402  0.6888  0.7723
  505MOL0     H68118  10.941   6.454   5.576 -0.5262 -1.8107 -0.2223
  505MOL0     H68119  10.826   6.565   5.488 -1.9551 -2.1215  1.1521
  505MOL0     H68120  10.932   6.752   5.578  0.2947 -0.3878  0.3485
  505MOL0     H68121  11.068   6.667   5.656  2.4990  1.5748 -2.0356
  505MOL0     H68122  11.157   6.576   5.448 -0.8836 -1.0243 -2.6351
  505MOL0     H68123  11.016   6.615   5.358 -0.6408 -2.4212  0.0687
  505MOL0     H68124  11.169   6.843   5.487  0.1117 -0.1295  0.1780
  505MOL0     H68125  11.039   6.863   5.375  1.0202  0.6479  0.4877
  505MOL0     H68126  11.407   6.732   5.383  0.9045 -1.0227 -0.3707
  505MOL0     H68127  11.530   6.723   5.013  1.2216  0.8330  0.1969
  505MOL0     H68128  11.589   6.749   5.182 -0.1392  1.2692  0.0906
  505MOL0     H68129  11.460   6.491   5.086  0.7478  1.9295 -1.7548
  505MOL0     H68130  11.556   6.521   5.237 -2.0042 -1.0928  0.2351
  505MOL0     H68131  11.657   6.508   4.949 -0.3776  0.5590 -0.4494
  505MOL0     H68132  11.679   6.378   5.073 -1.5206 -0.7679 -0.3126
  505MOL0     H68133  11.807   6.528   5.210 -0.5487 -0.9665  0.2825
  505MOL0     H68134  11.801   6.656   5.089  2.0730  0.1837 -1.6848
  505MOL0     H68135  12.093   6.371   4.931 -0.2769 -0.4274  0.4571
  505MOL0     H68136  12.443   6.462   4.895 -1.1260  2.4363 -0.1474
  505MOL0     H68137  12.404   6.344   5.024 -0.0765 -0.5828 -1.0690
  505MOL0     H68138  12.311   6.338   4.872 -3.0025  0.7972  1.7940
  505MOL0     H68139  12.364   6.930   5.370 -1.1081 -3.0938  2.3043
  505MOL0     H68140  12.500   7.017   5.548  2.4299  0.4761  1.0782
  505MOL0     H68141  12.681   7.136   5.671  4.4568  1.5029  0.2906
  505MOL0     H68142  12.669   6.975   5.752 -0.1663 -1.7719 -2.2455
  505MOL0     H68143  12.815   7.090   5.877 -0.7367 -3.0934 -0.7860
  505MOL0     H68144  12.921   7.010   5.758  0.3822  0.4817 -0.0218
  505MOL0     H68145  12.857   7.279   5.684  0.3546 -1.3963 -2.5739
  505MOL0     H68146  12.985   7.169   5.635 -1.3531  0.3949 -0.6482
  505MOL0     H68147  12.960   7.245   5.942  2.2036  0.8795  0.3775
  505MOL0     H68148  13.098   7.195   5.843 -0.4289 -3.7367  0.3668
  505MOL0     H68149  12.948   7.465   5.837  0.5764  2.2702 -2.9836
  505MOL0     H68150  13.064   7.417   5.713 -0.5010 -0.7848 -0.7702
  505MOL0     H68151  13.122   7.437   6.012  2.1265  0.4505  0.0722
  505MOL0     H68152  13.228   7.363   5.889 -0.2588 -1.7169  3.8022
  505MOL0     H68153  13.215   7.606   5.784 -1.0193 -2.2728 -0.2328
  505MOL0     H68154  13.318   7.596   5.928 -0.8071  0.8789  1.8236
  505MOL0     H68155  13.202   7.772   5.997 -0.7405  0.1687  0.2547
  505MOL0     H68156  13.129   7.640   6.079 -1.4240 -0.5388 -0.6200
  505MOL0     H68157  12.831   6.803   5.407  0.6357  3.5552 -1.7705
  505MOL0     H68158  12.723   6.712   5.221  2.1640  1.2914  0.0747
  505MOL0     H68159  12.201   6.742   5.243 -0.2903 -1.3169  0.3389
  505MOL0     H68160  11.991   6.692   5.201  1.9681 -0.6911  3.8464
  505MOL0     H68161  10.668   6.187   6.320  0.8466  0.7347 -4.0675
  505MOL0     H68162  10.757   6.077   6.520  1.2802 -2.1951 -0.5076
  505MOL0     H68163  11.155   6.159   6.932  1.8851 -0.6666 -0.0224
  505MOL0     H68164  11.120   6.040   7.144  2.0310 -0.6101  0.7401
  505MOL0     H68165  11.111   5.909   7.327 -2.3331 -0.3822  0.8321
  505MOL0     H68166  11.064   5.756   7.365  2.3556 -1.5784  0.5024
  505MOL0     H68167  11.257   5.788   7.138 -2.6724  3.4872 -0.1054
  505MOL0     H68168  11.168   5.648   7.188 -1.2232 -0.3119 -0.5308
  505MOL0     H68169  11.270   5.664   7.428  1.0361 -2.2581 -1.3444
  505MOL0     H68170  11.381   5.796   7.356 -0.0192 -0.2980  0.4320
  505MOL0     H68171  11.500   5.645   7.238  1.5422 -0.3356  0.3192
  505MOL0     H68172  11.368   5.524   7.227 -0.1066 -1.6217  1.9964
  505MOL0     H68173  11.546   5.405   7.587  0.7240  3.2770  2.2745
  505MOL0     H68174  10.928   5.718   6.944  1.8929 -0.5423 -4.6903
  505MOL0     H68175  10.934   5.834   6.743 -1.3032  0.1139  1.1971
  506MOL0     O68176   1.956   1.022  10.939 -0.1717 -0.0521 -0.6464
  506MOL0     C68177   1.854   1.078  10.918  0.2004 -0.4525  0.5044
  506MOL0     O68178   1.807   1.182  11.000 -0.1952 -0.2419  0.3658
  506MOL0     C68179   1.888   1.268  11.068 -0.1802  0.9528  0.1402
  506MOL0     C68180   2.012   1.307  11.034 -0.1194  0.2743  0.5604
  506MOL0     C68181   2.066   1.408  11.109 -0.3797 -0.2690  1.1134
  506MOL0     C68182   2.001   1.472  11.213  0.8469 -0.4985 -0.5943
  506MOL0     O68183   2.061   1.582  11.273 -0.5189  0.5490 -0.7752
  506MOL0     C68184   2.103   1.558  11.409  0.2717 -0.6217 -0.1302
  506MOL0     C68185   2.236   1.629  11.428 -0.5132  0.6780 -0.8707
  506MOL0     C68186   2.364   1.571  11.358  0.2642  0.4000  0.8433
  506MOL0     C68187   2.484   1.653  11.395  0.0967  0.1926  0.7609
  506MOL0     C68188   2.609   1.601  11.329 -0.7646 -0.8892 -0.7006
  506MOL0     C68189   2.716   1.705  11.369 -0.3022  0.0129  0.9102
  506MOL0     C68190   2.846   1.677  11.282 -0.0889 -0.0389 -0.1994
  506MOL0     C68191   2.961   1.766  11.333 -0.2508  0.2693  0.0907
  506MOL0     N68192   3.082   1.753  11.249 -0.1960  0.2149 -0.1577
  506MOL0     C68193   3.120   1.637  11.175  0.1970  0.6688 -0.5274
  506MOL0     C68194   3.211   1.674  11.086  0.5331 -0.5222 -0.0952
  506MOL0     C68195   3.279   1.596  10.983  0.6606  0.1091 -0.4224
  506MOL0     C68196   3.203   1.587  10.860  0.6962 -0.0185  0.7000
  506MOL0     C68197   3.248   1.464  10.772  0.3149  0.3722  0.3596
  506MOL0     C68198   3.384   1.468  10.721 -0.7650 -0.7056 -0.3145
  506MOL0     O68199   3.494   1.441  10.817 -0.8067 -0.6404 -0.3622
  506MOL0     C68200   3.622   1.422  10.778 -1.1538  0.0464 -0.1493
  506MOL0     C68201   3.707   1.361  10.880 -1.4357  0.1399 -0.1563
  506MOL0     C68202   3.838   1.331  10.857  0.5378  0.6001  0.0240
  506MOL0     C68203   3.915   1.266  10.965 -0.3465  0.4698  0.2087
  506MOL0     C68204   3.893   1.339  10.728 -0.2770 -0.0679  0.3964
  506MOL0     C68205   4.016   1.269  10.684 -0.1077  0.4919  0.2519
  506MOL0     O68206   4.056   1.317  10.570 -0.8611 -1.1707 -0.3191
  506MOL0     C68207   4.178   1.279  10.508 -0.4524  0.2447 -0.3531
  506MOL0     C68208   4.232   1.380  10.426 -0.2958 -0.3178  0.9629
  506MOL0     C68209   4.348   1.365  10.345  0.2655  0.4117  0.1179
  506MOL0     C68210   4.414   1.244  10.370 -0.6083  0.2429  0.1575
  506MOL0     O68211   4.517   1.207  10.281  0.2171  0.7980  0.3615
  506MOL0     C68212   4.616   1.303  10.280 -0.4490 -0.3276 -0.5464
  506MOL0     C68213   4.686   1.328  10.145 -0.5246  0.5519 -0.6322
  506MOL0     C68214   4.597   1.410  10.048 -0.5993  0.2880  0.7423
  506MOL0     C68215   4.495   1.327   9.972 -0.2838  0.6346 -0.4008
  506MOL0     C68216   4.381   1.393   9.887 -0.0029 -1.4964  0.2808
  506MOL0     C68217   4.435   1.513   9.807 -0.1375  0.2489 -0.3160
  506MOL0     C68218   4.331   1.562   9.705 -0.5108 -0.5134  0.2594
  506MOL0     C68219   4.378   1.656   9.594  0.3954 -0.3340  0.4207
  506MOL0    Cl68220   4.360   1.828   9.638 -0.0373  0.1763  0.4297
  506MOL0     C68221   4.370   1.144  10.452  1.0760 -1.3222 -0.1737
  506MOL0     C68222   4.256   1.165  10.530  0.8294  0.2915  0.7293
  506MOL0     O68223   4.077   1.188  10.750 -0.2908  0.4095  0.3087
  506MOL0     C68224   3.814   1.402  10.627 -0.2526 -0.5019 -0.0265
  506MOL0     C68225   3.675   1.441  10.653 -0.0754  0.1607  0.3500
  506MOL0     N68226   3.241   1.805  11.111  0.4919 -0.0502  0.0933
  506MOL0     N68227   3.165   1.851  11.210 -0.3107  0.0831  0.1437
  506MOL0     C68228   1.869   1.428  11.252 -0.7305  0.0733  0.2411
  506MOL0     C68229   1.815   1.324  11.177  0.2409 -0.0633  0.5838
  506MOL0     C68230   1.775   1.035  10.804 -0.2916  0.0101 -0.0671
  506MOL0     C68231   1.834   0.994  10.679 -0.3453 -0.2719  0.5040
  506MOL0     C68232   1.763   0.951  10.574  0.3574  0.2398  0.3926
  506MOL0     C68233   1.625   0.936  10.587 -0.1709 -0.5631 -0.4312
  506MOL0     O68234   1.541   0.866  10.502  0.3899 -0.1382  0.1709
  506MOL0     C68235   1.604   0.811  10.387  0.0904 -0.6373  0.4769
  506MOL0     C68236   1.500   0.725  10.317 -0.3808  1.2474  0.4185
  506MOL0     C68237   1.538   0.671  10.186  0.2347  0.2206 -0.2991
  506MOL0     C68238   1.659   0.578  10.179  0.1337 -0.2261 -0.4027
  506MOL0     C68239   1.643   0.470  10.280 -0.0649 -0.9221 -0.1718
  506MOL0     C68240   1.624   0.397  10.364 -0.5574 -0.0866 -0.3442
  506MOL0     C68241   1.555   0.986  10.696  0.6472  0.6752  1.3537
  506MOL0     C68242   1.628   1.038  10.802 -0.2609 -0.1314 -0.0378
  506MOL0     H68243   2.060   1.264  10.947 -0.5341 -2.2296  1.4698
  506MOL0     H68244   2.161   1.446  11.075 -1.5531  0.9206 -0.9838
  506MOL0     H68245   2.025   1.606  11.468  0.6131 -1.2387  0.8667
  506MOL0     H68246   2.091   1.455  11.444 -1.3501  0.8523  4.4356
  506MOL0     H68247   2.220   1.730  11.391 -2.3574  0.2239 -1.4117
  506MOL0     H68248   2.261   1.630  11.535  2.6673  2.2911 -1.4896
  506MOL0     H68249   2.392   1.466  11.373  0.7038  0.1723 -1.2251
  506MOL0     H68250   2.352   1.577  11.250 -1.9402 -0.4244  1.0001
  506MOL0     H68251   2.458   1.753  11.358 -2.2980 -0.5212  0.4002
  506MOL0     H68252   2.496   1.652  11.504 -2.0267  1.5836  1.0586
  506MOL0     H68253   2.633   1.502  11.370 -2.3602 -0.9607  0.1568
  506MOL0     H68254   2.618   1.582  11.222  0.4709 -1.2278 -0.5525
  506MOL0     H68255   2.691   1.808  11.344  1.7613  0.9524  2.4226
  506MOL0     H68256   2.741   1.705  11.476 -1.9848 -0.1240  1.3331
  506MOL0     H68257   2.875   1.572  11.272 -0.9764 -0.1328 -2.7653
  506MOL0     H68258   2.821   1.710  11.180 -1.0483 -0.4755 -0.1179
  506MOL0     H68259   2.980   1.733  11.435  2.0396  1.0243 -0.0419
  506MOL0     H68260   2.930   1.870  11.343  2.3274  1.2114 -1.0106
  506MOL0     H68261   3.066   1.543  11.176  0.4003  0.5315  1.1255
  506MOL0     H68262   3.374   1.642  10.954  1.5091 -1.5121 -0.3392
  506MOL0     H68263   3.289   1.496  11.026  1.0045  0.5944  0.6722
  506MOL0     H68264   3.221   1.682  10.810  2.4281  0.3494  1.9377
  506MOL0     H68265   3.098   1.573  10.889  1.6836 -2.0561  3.8271
  506MOL0     H68266   3.182   1.473  10.686  0.6361 -0.0395  0.0698
  506MOL0     H68267   3.232   1.371  10.827  1.8521  0.1145  0.4078
  506MOL0     H68268   3.386   1.565  10.670 -1.3861 -0.7915 -0.5062
  506MOL0     H68269   3.388   1.391  10.644  2.8535 -0.4377 -0.5846
  506MOL0     H68270   3.673   1.345  10.982 -0.1394 -0.1948  0.2318
  506MOL0     H68271   3.859   1.279  11.058 -2.0430  0.8325 -0.8322
  506MOL0     H68272   3.951   1.163  10.953 -3.2411 -1.1777  3.6882
  506MOL0     H68273   4.007   1.321  10.989  1.9496 -2.1635 -1.8065
  506MOL0     H68274   4.179   1.474  10.416 -1.4302 -0.9249  1.1386
  506MOL0     H68275   4.385   1.441  10.277 -1.1814  0.8112 -0.2613
  506MOL0     H68276   4.593   1.404  10.317  3.2132  0.3185  0.3968
  506MOL0     H68277   4.699   1.270  10.344  0.1770 -0.3484 -1.3553
  506MOL0     H68278   4.780   1.383  10.158  0.0692 -0.0895 -2.0392
  506MOL0     H68279   4.720   1.233  10.103 -1.0696  0.6283 -1.2525
  506MOL0     H68280   4.663   1.440   9.966 -0.8051 -1.9271 -0.3004
  506MOL0     H68281   4.552   1.497  10.097 -0.5631  0.2531  0.8365
  506MOL0     H68282   4.553   1.255   9.914  0.7805  2.9764 -2.4560
  506MOL0     H68283   4.446   1.271  10.052 -2.5476 -0.2073 -2.2838
  506MOL0     H68284   4.304   1.425   9.958  0.9719 -1.4911  1.3662
  506MOL0     H68285   4.333   1.324   9.817  2.1051 -1.8301 -0.9406
  506MOL0     H68286   4.465   1.593   9.876 -1.4463  1.0092 -0.5952
  506MOL0     H68287   4.520   1.478   9.748  0.1952 -2.3323  1.5284
  506MOL0     H68288   4.255   1.622   9.756  0.3239  1.2129 -0.4521
  506MOL0     H68289   4.289   1.477   9.649  3.3182 -1.5875 -1.3066
  506MOL0     H68290   4.326   1.639   9.499 -1.8975 -0.4431  1.6082
  506MOL0     H68291   4.481   1.647   9.560  0.1918  3.4243 -1.6694
  506MOL0     H68292   4.425   1.051  10.461  4.8912  0.8573  2.0591
  506MOL0     H68293   4.224   1.083  10.593  3.8787 -1.3273  0.3695
  506MOL0     H68294   3.844   1.411  10.523 -1.4343 -0.4218 -0.3708
  506MOL0     H68295   3.607   1.474  10.574 -0.4048  0.1205  0.6167
  506MOL0     H68296   1.816   1.472  11.336 -3.1270  0.0182 -1.1453
  506MOL0     H68297   1.716   1.290  11.206 -1.0128 -1.3091 -4.1853
  506MOL0     H68298   1.940   1.004  10.657 -1.1447  0.2035 -4.2130
  506MOL0     H68299   1.813   0.940  10.479  2.2006  0.0207  1.3544
  506MOL0     H68300   1.626   0.893  10.318 -2.0647 -0.5037 -0.1066
  506MOL0     H68301   1.693   0.752  10.412  1.0961  1.2257  1.5329
  506MOL0     H68302   1.421   0.800  10.299  0.3922  1.6600 -1.4703
  506MOL0     H68303   1.468   0.647  10.387  0.2748  0.0409 -0.5906
  506MOL0     H68304   1.535   0.756  10.118  0.6876  0.3203 -0.1992
  506MOL0     H68305   1.449   0.616  10.154 -1.4723  2.9888 -0.5807
  506MOL0     H68306   1.747   0.639  10.196  1.7064 -3.2294  4.2676
  506MOL0     H68307   1.669   0.532  10.080  2.8975  0.2058 -0.4011
  506MOL0     H68308   1.618   0.321  10.440  0.2065 -0.6871 -0.8693
  506MOL0     H68309   1.447   0.978  10.701  0.5527  1.2202  0.3223
  506MOL0     H68310   1.579   1.061  10.896  1.8293 -0.2426  1.1581
  507MOL0     O68311   8.413   7.615   3.042 -0.1240 -0.3530 -0.7227
  507MOL0     C68312   8.381   7.732   3.032 -0.2521 -0.2298 -0.0572
  507MOL0     O68313   8.374   7.822   3.137  0.5846  0.2673  0.5989
  507MOL0     C68314   8.438   7.792   3.258 -0.3087 -0.2603 -0.1932
  507MOL0     C68315   8.392   7.872   3.366 -0.5550  0.8065 -0.6129
  507MOL0     C68316   8.464   7.879   3.488 -0.3458  1.2679 -0.4665
  507MOL0     C68317   8.574   7.796   3.503 -0.9524 -1.0001 -0.7088
  507MOL0     O68318   8.629   7.808   3.626 -0.5105 -0.0523 -0.4310
  507MOL0     C68319   8.712   7.700   3.669  0.8508  0.1394 -0.1244
  507MOL0     C68320   8.731   7.702   3.814 -0.1191 -0.4019 -0.8757
  507MOL0     C68321   8.601   7.659   3.896  0.8893  0.0054 -0.2898
  507MOL0     C68322   8.607   7.699   4.044  0.3508 -0.8944  0.1230
  507MOL0     C68323   8.497   7.624   4.131  0.0629 -0.3342  0.1049
  507MOL0     C68324   8.512   7.665   4.287  0.4346 -0.1227 -0.5786
  507MOL0     C68325   8.421   7.586   4.374  0.0025 -0.1169 -0.4568
  507MOL0     C68326   8.484   7.553   4.519 -0.0592  0.1224 -0.0180
  507MOL0     N68327   8.524   7.668   4.606  0.2659  0.1082 -0.6385
  507MOL0     C68328   8.441   7.744   4.689 -0.4343 -0.4522 -0.1335
  507MOL0     C68329   8.532   7.818   4.766 -0.7512  0.1507  0.0637
  507MOL0     C68330   8.511   7.923   4.873  0.6723 -0.3726 -0.3826
  507MOL0     C68331   8.624   7.933   4.984 -0.1374  0.3218 -0.0014
  507MOL0     C68332   8.626   7.804   5.075  0.4401  0.2168  0.0622
  507MOL0     C68333   8.728   7.833   5.195 -0.0573  0.4354 -0.1035
  507MOL0     O68334   8.725   7.731   5.295 -0.5465  0.0671  0.0600
  507MOL0     C68335   8.621   7.737   5.388 -0.2644 -0.8373 -0.7038
  507MOL0     C68336   8.606   7.617   5.454  0.0827 -0.8540  0.2720
  507MOL0     C68337   8.491   7.587   5.516  0.7800 -0.5196 -0.0826
  507MOL0     C68338   8.483   7.444   5.573  0.0603 -0.5376  0.0273
  507MOL0     C68339   8.397   7.692   5.552 -0.3381  0.0702 -0.4977
  507MOL0     C68340   8.265   7.666   5.630  0.2154  0.5653 -0.5711
  507MOL0     O68341   8.224   7.540   5.666 -0.0893 -0.1598  0.2402
  507MOL0     C68342   8.090   7.533   5.693 -0.6869  1.0230 -0.1053
  507MOL0     C68343   8.046   7.529   5.824 -0.3151  0.7690 -0.0405
  507MOL0     C68344   7.920   7.473   5.843  0.2904  0.5237 -0.2618
  507MOL0     C68345   7.831   7.433   5.739  0.3013 -1.1704  0.2885
  507MOL0     O68346   7.721   7.365   5.770  0.1017  0.0071 -0.0895
  507MOL0     C68347   7.593   7.408   5.713 -0.4178 -0.4176 -0.1796
  507MOL0     C68348   7.485   7.362   5.807 -0.5610  0.7121  0.6734
  507MOL0     C68349   7.443   7.218   5.781  0.8962 -0.0545  0.0103
  507MOL0     C68350   7.290   7.201   5.796  0.3637  0.9813 -0.2526
  507MOL0     C68351   7.229   7.074   5.723 -0.8975 -0.3681  0.0826
  507MOL0     C68352   7.217   7.083   5.574 -1.0880  0.5714  0.2572
  507MOL0     C68353   7.112   6.971   5.536  0.2217  0.0595  0.7605
  507MOL0     C68354   7.073   6.984   5.389  0.5903 -0.4406 -0.4727
  507MOL0    Cl68355   7.022   7.159   5.353 -0.3240 -0.3452 -0.0545
  507MOL0     C68356   7.875   7.465   5.606  0.0137  0.6369 -1.1826
  507MOL0     C68357   8.005   7.515   5.593  0.2647 -0.5459  0.5395
  507MOL0     O68358   8.193   7.764   5.638 -1.0536 -0.1129  0.1455
  507MOL0     C68359   8.423   7.820   5.496 -0.7387 -0.4181  0.1568
  507MOL0     C68360   8.528   7.838   5.413  0.2349  0.3484  0.1153
  507MOL0     N68361   8.659   7.788   4.720 -0.4350 -0.7673  0.1795
  507MOL0     N68362   8.655   7.697   4.630 -0.7299  0.2692  0.1623
  507MOL0     C68363   8.620   7.709   3.401  0.2193 -0.8135  0.0633
  507MOL0     C68364   8.544   7.699   3.286 -0.5586  0.9275 -0.4612
  507MOL0     C68365   8.329   7.788   2.904  0.3336 -0.4471  0.5845
  507MOL0     C68366   8.311   7.702   2.793 -0.3858  0.4732 -0.8390
  507MOL0     C68367   8.279   7.751   2.666 -0.0114 -0.3428  0.1905
  507MOL0     C68368   8.263   7.894   2.648 -0.5933  0.4028 -0.6316
  507MOL0     O68369   8.241   7.946   2.522 -0.5322 -0.5074 -0.7077
  507MOL0     C68370   8.163   7.862   2.435  0.2885 -0.4939 -0.4681
  507MOL0     C68371   8.081   7.954   2.348 -0.7610  0.5004  1.0978
  507MOL0     C68372   8.007   8.076   2.415  0.4822  1.1957 -0.5170
  507MOL0     C68373   7.855   8.039   2.457 -0.4416  0.0060  0.3581
  507MOL0     C68374   7.840   7.904   2.502 -0.2148 -0.0931 -0.5206
  507MOL0     C68375   7.827   7.783   2.515 -0.5964 -0.3978 -0.2403
  507MOL0     C68376   8.275   7.974   2.760 -0.3100 -0.0195  0.2884
  507MOL0     C68377   8.304   7.927   2.883 -0.4089  0.4270 -0.6977
  507MOL0     H68378   8.314   7.942   3.339  2.4425  3.8150 -2.1703
  507MOL0     H68379   8.428   7.948   3.564 -1.3305  0.0334  0.2393
  507MOL0     H68380   8.667   7.606   3.635 -3.1123  1.1942  1.6526
  507MOL0     H68381   8.807   7.710   3.616  0.1863  0.1179 -1.3593
  507MOL0     H68382   8.811   7.634   3.844 -0.2116 -0.0675  0.1526
  507MOL0     H68383   8.779   7.794   3.850 -0.0630 -0.9999  0.6479
  507MOL0     H68384   8.514   7.708   3.850  0.5664 -2.2272 -2.2574
  507MOL0     H68385   8.579   7.552   3.884 -0.1526  0.3459 -1.6958
  507MOL0     H68386   8.705   7.664   4.078  0.7819 -0.0650 -0.2297
  507MOL0     H68387   8.605   7.807   4.062 -1.3729 -0.7492 -0.7348
  507MOL0     H68388   8.398   7.656   4.098 -0.3125 -3.0770 -1.7106
  507MOL0     H68389   8.502   7.516   4.119 -2.1384 -0.5010  0.2600
  507MOL0     H68390   8.609   7.632   4.325  0.1388 -0.7397 -0.3331
  507MOL0     H68391   8.493   7.771   4.304 -1.6706 -0.3565 -1.1763
  507MOL0     H68392   8.321   7.625   4.396  0.1508 -0.7328  1.5971
  507MOL0     H68393   8.400   7.492   4.322  1.4430 -1.0788  0.6314
  507MOL0     H68394   8.579   7.503   4.499  1.3859  2.9576 -0.6111
  507MOL0     H68395   8.412   7.490   4.572  1.5863 -2.9164 -1.1435
  507MOL0     H68396   8.333   7.748   4.697 -0.3698  1.7013  0.5045
  507MOL0     H68397   8.479   8.017   4.829  2.0219  0.1188 -0.3631
  507MOL0     H68398   8.429   7.881   4.932  1.5731 -2.3763 -0.4503
  507MOL0     H68399   8.621   8.030   5.034  2.8684  0.7022 -0.3512
  507MOL0     H68400   8.719   7.926   4.930 -0.9953 -1.0752 -1.4283
  507MOL0     H68401   8.666   7.714   5.029 -0.3287 -2.5850  4.3014
  507MOL0     H68402   8.521   7.798   5.105  0.6854  1.9734  1.4627
  507MOL0     H68403   8.725   7.933   5.240 -0.5089  0.6309 -0.5687
  507MOL0     H68404   8.830   7.837   5.155  0.6935 -0.2156  1.6342
  507MOL0     H68405   8.690   7.550   5.435  3.3112  3.4435 -2.6736
  507MOL0     H68406   8.452   7.453   5.677 -0.9493  1.4272 -0.3906
  507MOL0     H68407   8.409   7.387   5.517 -0.0097  0.7265 -1.2220
  507MOL0     H68408   8.579   7.390   5.577 -0.4966 -1.7503 -1.6443
  507MOL0     H68409   8.135   7.547   5.884 -0.7040 -0.8161  1.0431
  507MOL0     H68410   7.890   7.444   5.943 -0.6221 -1.7384 -1.1117
  507MOL0     H68411   7.589   7.517   5.704 -3.9334 -0.6076 -4.5907
  507MOL0     H68412   7.569   7.387   5.608 -0.9371  0.2104 -0.1966
  507MOL0     H68413   7.512   7.382   5.911 -0.1046  1.3294  0.4482
  507MOL0     H68414   7.395   7.419   5.779 -0.9769 -0.0722  0.3971
  507MOL0     H68415   7.508   7.154   5.840  0.2369 -0.1709  0.6142
  507MOL0     H68416   7.468   7.189   5.678  3.4996  2.7039 -0.2860
  507MOL0     H68417   7.266   7.199   5.903 -0.8128 -0.1600 -0.5105
  507MOL0     H68418   7.238   7.290   5.761  1.2426  2.1903  1.3996
  507MOL0     H68419   7.126   7.065   5.759 -1.2061 -0.4714 -0.7852
  507MOL0     H68420   7.288   6.987   5.752 -4.1247 -1.8651  2.8068
  507MOL0     H68421   7.192   7.185   5.545 -0.7608  0.4436 -0.5062
  507MOL0     H68422   7.318   7.067   5.534 -0.5314  3.3613  0.3590
  507MOL0     H68423   7.022   6.981   5.597 -1.2629  0.3046 -1.3712
  507MOL0     H68424   7.146   6.869   5.557 -0.3717 -0.2775  0.1291
  507MOL0     H68425   6.980   6.928   5.380 -0.2828  1.0112 -0.8961
  507MOL0     H68426   7.147   6.948   5.317 -1.3087 -1.0879 -2.2094
  507MOL0     H68427   7.802   7.448   5.528  0.0360  0.1354 -1.0977
  507MOL0     H68428   8.029   7.505   5.487 -2.3303 -0.9779 -0.0693
  507MOL0     H68429   8.360   7.907   5.512  0.6137  0.8178 -0.9978
  507MOL0     H68430   8.543   7.934   5.364  2.1768 -0.7107 -1.5186
  507MOL0     H68431   8.713   7.654   3.411  2.1516  2.3100  0.6358
  507MOL0     H68432   8.578   7.630   3.210  0.9662  0.2317  0.7857
  507MOL0     H68433   8.323   7.594   2.802  0.1258  0.4761 -1.3930
  507MOL0     H68434   8.269   7.684   2.581  1.4199 -1.4814  0.8613
  507MOL0     H68435   8.232   7.800   2.378 -3.2287 -4.8081 -0.5436
  507MOL0     H68436   8.087   7.796   2.478 -3.0838  2.4441 -1.3772
  507MOL0     H68437   8.007   7.899   2.288 -1.2786  0.5059  1.7158
  507MOL0     H68438   8.151   8.005   2.281  0.1371 -0.2158  1.4717
  507MOL0     H68439   8.007   8.161   2.346  1.3737  0.5015 -1.4006
  507MOL0     H68440   8.055   8.106   2.508 -2.0258  1.7890  0.6565
  507MOL0     H68441   7.793   8.051   2.367  1.5028  0.1940 -1.0332
  507MOL0     H68442   7.818   8.105   2.536  0.1664  1.6760 -0.6971
  507MOL0     H68443   7.802   7.680   2.530 -2.7107  0.2451  0.9346
  507MOL0     H68444   8.271   8.080   2.738 -1.5729 -0.7336 -3.8421
  507MOL0     H68445   8.305   7.993   2.969 -1.7099  1.3796 -1.3785
  508MOL0     O68446   7.843   5.892   8.668 -0.0349  0.6629 -0.0957
  508MOL0     C68447   7.785   5.785   8.676 -0.0281 -0.1841  0.6299
  508MOL0     O68448   7.656   5.776   8.737 -0.3196  0.0790 -0.1793
  508MOL0     C68449   7.630   5.872   8.826  0.9866 -0.6174  0.4237
  508MOL0     C68450   7.669   5.853   8.956 -0.4406  0.5461  0.1262
  508MOL0     C68451   7.644   5.962   9.049 -0.2412 -0.1546  0.0854
  508MOL0     C68452   7.577   6.076   9.007  0.6852 -0.2114  0.1265
  508MOL0     O68453   7.534   6.161   9.106  1.0621 -0.0136 -0.1108
  508MOL0     C68454   7.523   6.309   9.078 -0.2902  1.2304 -0.0125
  508MOL0     C68455   7.523   6.383   9.205 -0.3345  0.5453 -0.0517
  508MOL0     C68456   7.522   6.536   9.171 -0.2077 -0.4936 -0.9630
  508MOL0     C68457   7.561   6.604   9.303 -0.2295 -1.2288  0.4894
  508MOL0     C68458   7.459   6.614   9.417  0.4061 -0.5428 -0.5223
  508MOL0     C68459   7.508   6.710   9.529 -0.7348  0.6954  0.5757
  508MOL0     C68460   7.437   6.683   9.661  0.1963 -0.3084 -0.1680
  508MOL0     C68461   7.426   6.807   9.744  0.2648 -1.5363 -0.0084
  508MOL0     N68462   7.552   6.846   9.808 -0.0962 -0.5581 -0.1151
  508MOL0     C68463   7.641   6.758   9.859 -0.5355 -0.2228  0.1452
  508MOL0     C68464   7.738   6.832   9.910  0.1168 -0.7952 -0.8466
  508MOL0     C68465   7.852   6.768   9.983  0.3679 -0.4170  0.5300
  508MOL0     C68466   7.918   6.860  10.082 -0.3233  0.4696 -0.4160
  508MOL0     C68467   8.021   6.805  10.176 -0.3688 -0.1314 -0.8552
  508MOL0     C68468   7.997   6.672  10.234 -0.1618  0.4365 -0.0115
  508MOL0     O68469   8.129   6.622  10.294  0.8341 -0.6360  0.3709
  508MOL0     C68470   8.134   6.579  10.416  1.0928 -0.3197  0.4117
  508MOL0     C68471   8.090   6.449  10.442  0.2136 -0.0571  0.5213
  508MOL0     C68472   8.113   6.394  10.568 -0.1200 -0.1210 -0.7054
  508MOL0     C68473   8.086   6.251  10.569  0.9557 -1.1793 -0.4626
  508MOL0     C68474   8.174   6.470  10.677  0.1895 -0.6443  0.3187
  508MOL0     C68475   8.197   6.431  10.823 -0.2003 -0.1345 -0.4055
  508MOL0     O68476   8.278   6.505  10.898  0.4011  0.0194 -1.4093
  508MOL0     C68477   8.301   6.488  11.029  0.3655 -0.2821 -0.0626
  508MOL0     C68478   8.330   6.608  11.100 -0.0537  0.0754  0.9623
  508MOL0     C68479   8.342   6.611  11.240 -0.9088  0.3002  0.0843
  508MOL0     C68480   8.332   6.481  11.308  0.9718 -0.3311 -0.0015
  508MOL0     O68481   8.325   6.458  11.444 -0.3467 -0.1616 -0.5444
  508MOL0     C68482   8.409   6.545  11.527  1.6619  0.6203 -0.4653
  508MOL0     C68483   8.344   6.529  11.676 -0.6910  0.1185  0.7518
  508MOL0     C68484   8.398   6.628  11.781  0.2331 -0.2671 -0.5254
  508MOL0     C68485   8.320   6.624  11.910  0.0084  0.2544  0.3955
  508MOL0     C68486   8.344   6.752  11.998  0.1492 -0.1610  0.3749
  508MOL0     C68487   8.254   6.744  12.117  0.4821  0.9628  0.3037
  508MOL0     C68488   8.254   6.876  12.213 -0.2634  0.9965 -0.1545
  508MOL0     C68489   8.397   6.911  12.262  0.0975 -0.2100 -0.8359
  508MOL0    Cl68490   8.430   6.837  12.422  0.0653  0.3351  0.0073
  508MOL0     C68491   8.321   6.368  11.236  0.3800  0.2429 -0.9595
  508MOL0     C68492   8.294   6.365  11.099  0.1021 -0.1615  0.0100
  508MOL0     O68493   8.136   6.324  10.857 -0.1806  0.1967  0.5291
  508MOL0     C68494   8.210   6.599  10.640 -0.3510  0.2563 -0.3354
  508MOL0     C68495   8.200   6.657  10.511  1.1724  1.9445 -0.4013
  508MOL0     N68496   7.704   6.967   9.899 -0.3286 -0.0239 -0.7485
  508MOL0     N68497   7.590   6.969   9.834 -0.0248 -0.6936 -0.1912
  508MOL0     C68498   7.535   6.090   8.873 -0.6298 -1.0625 -0.1196
  508MOL0     C68499   7.566   5.985   8.789 -0.8735  0.6467 -0.0648
  508MOL0     C68500   7.841   5.668   8.601 -0.6409  0.4576 -0.6483
  508MOL0     C68501   7.779   5.543   8.613  0.6964  0.0272 -0.8676
  508MOL0     C68502   7.813   5.438   8.535 -0.2522 -0.3937  0.4145
  508MOL0     C68503   7.925   5.445   8.450  0.2584 -0.6528  0.5081
  508MOL0     O68504   7.972   5.340   8.384 -0.4377 -2.1653 -0.9932
  508MOL0     C68505   7.928   5.211   8.395 -0.5393 -0.7560 -0.6282
  508MOL0     C68506   7.988   5.129   8.509 -0.7493 -0.8317 -0.4097
  508MOL0     C68507   8.142   5.168   8.532  0.5856 -0.5351 -0.4283
  508MOL0     C68508   8.215   5.056   8.610  0.9297  0.9941 -0.0565
  508MOL0     C68509   8.344   5.110   8.663 -0.2048 -0.1603  0.8777
  508MOL0     C68510   8.459   5.142   8.680 -0.0698 -0.3629  0.7146
  508MOL0     C68511   7.990   5.570   8.427  0.5572  0.3755  0.3253
  508MOL0     C68512   7.948   5.675   8.506  0.2491 -0.5320  0.3755
  508MOL0     H68513   7.728   5.765   8.979  1.3487  1.6403  0.0030
  508MOL0     H68514   7.677   5.951   9.152  0.8225 -0.8857 -0.3182
  508MOL0     H68515   7.605   6.344   9.014 -0.0170 -3.5483 -2.7433
  508MOL0     H68516   7.427   6.328   9.029 -0.0488 -2.0436 -2.0191
  508MOL0     H68517   7.434   6.353   9.262 -0.1748 -0.0328 -0.0970
  508MOL0     H68518   7.601   6.353   9.275 -1.2329 -0.1625  0.6736
  508MOL0     H68519   7.585   6.555   9.083 -0.1119  3.5025 -0.2153
  508MOL0     H68520   7.419   6.567   9.150 -0.5603 -0.1979  1.0016
  508MOL0     H68521   7.659   6.583   9.345  0.2883 -0.4700 -0.2996
  508MOL0     H68522   7.568   6.706   9.263  2.2088 -1.4097  0.3279
  508MOL0     H68523   7.359   6.637   9.380  0.3389  1.2493  0.6523
  508MOL0     H68524   7.444   6.512   9.455 -0.7807 -0.0764  0.3118
  508MOL0     H68525   7.615   6.687   9.536 -1.0983 -1.1039  0.5926
  508MOL0     H68526   7.493   6.814   9.500  0.1924  0.8856  0.7530
  508MOL0     H68527   7.336   6.649   9.636  0.5972 -0.3514 -1.8331
  508MOL0     H68528   7.478   6.601   9.722 -0.3661  0.3313  1.1044
  508MOL0     H68529   7.351   6.791   9.822 -1.2014  0.8692 -0.7970
  508MOL0     H68530   7.385   6.883   9.677 -0.5990 -0.5899  1.5431
  508MOL0     H68531   7.639   6.650   9.869  0.7965 -0.1698  1.3438
  508MOL0     H68532   7.818   6.680  10.037  2.4040 -2.6808 -1.5965
  508MOL0     H68533   7.916   6.735   9.900 -0.1955 -3.0833  1.0820
  508MOL0     H68534   7.844   6.910  10.146  2.0145 -0.4366  3.3016
  508MOL0     H68535   7.981   6.927  10.024 -1.5440  2.8114  0.8444
  508MOL0     H68536   8.043   6.877  10.255 -0.9809  0.3346 -1.1025
  508MOL0     H68537   8.113   6.784  10.121  1.1584 -2.9447  2.3941
  508MOL0     H68538   7.963   6.593  10.166 -0.6097 -0.7732  1.5457
  508MOL0     H68539   7.924   6.676  10.315  0.0520 -3.5927  0.5748
  508MOL0     H68540   8.045   6.403  10.355  0.9094 -2.1142  1.1955
  508MOL0     H68541   8.085   6.210  10.468  1.4134 -1.1398 -0.4820
  508MOL0     H68542   8.162   6.200  10.629  0.9795 -1.4184 -0.6924
  508MOL0     H68543   7.990   6.229  10.617  0.5274 -0.6963 -1.0902
  508MOL0     H68544   8.333   6.696  11.038  0.0323  0.2919  1.2698
  508MOL0     H68545   8.352   6.707  11.291 -0.8868 -1.0437  2.7774
  508MOL0     H68546   8.515   6.519  11.516  1.1308 -2.2216  0.3009
  508MOL0     H68547   8.401   6.651  11.502  1.4195  1.1554  1.6732
  508MOL0     H68548   8.239   6.560  11.666 -0.7661 -0.8722 -2.3730
  508MOL0     H68549   8.349   6.434  11.729 -2.1151 -0.5693 -0.2904
  508MOL0     H68550   8.380   6.727  11.737 -3.3059 -1.7477 -2.7821
  508MOL0     H68551   8.504   6.619  11.809 -0.1252 -0.4001  0.8494
  508MOL0     H68552   8.211   6.627  11.898  0.1319  4.6318 -1.0666
  508MOL0     H68553   8.338   6.527  11.958  0.5554 -1.6241 -3.2165
  508MOL0     H68554   8.329   6.847  11.946  2.8694 -1.0676 -2.4053
  508MOL0     H68555   8.452   6.752  12.020  0.2638 -1.4546 -0.1197
  508MOL0     H68556   8.148   6.740  12.093  0.2397 -0.8797  1.5125
  508MOL0     H68557   8.290   6.659  12.176  2.3147 -0.6186 -2.8130
  508MOL0     H68558   8.201   6.848  12.304  0.3693 -3.1187 -0.8311
  508MOL0     H68559   8.207   6.954  12.154  1.1714 -0.0741 -2.9405
  508MOL0     H68560   8.405   7.021  12.261 -1.4201 -0.0823 -2.1304
  508MOL0     H68561   8.469   6.887  12.184  2.4287  0.5875  0.9293
  508MOL0     H68562   8.302   6.283  11.302 -0.5540  1.5569  0.5423
  508MOL0     H68563   8.286   6.270  11.048  2.1360 -0.6179  0.4805
  508MOL0     H68564   8.267   6.660  10.709  1.0877 -0.9304 -0.4228
  508MOL0     H68565   8.251   6.748  10.480  3.1423  0.0912 -3.1681
  508MOL0     H68566   7.478   6.177   8.845  2.1824 -0.1950 -3.9728
  508MOL0     H68567   7.525   5.979   8.689 -2.7220  0.1183  0.6954
  508MOL0     H68568   7.695   5.523   8.677  2.9478 -3.3138  1.3874
  508MOL0     H68569   7.755   5.348   8.550 -0.2476 -0.1871  1.7946
  508MOL0     H68570   7.819   5.208   8.399 -0.8155  1.3928 -3.3138
  508MOL0     H68571   7.958   5.169   8.298 -2.6063  0.6097 -1.9410
  508MOL0     H68572   7.986   5.024   8.479 -0.2699 -1.3961  1.3954
  508MOL0     H68573   7.928   5.144   8.599 -1.2118 -2.3631 -0.4455
  508MOL0     H68574   8.150   5.264   8.584 -3.1420 -0.5287  0.3859
  508MOL0     H68575   8.186   5.175   8.432  0.2054 -3.3196 -0.8620
  508MOL0     H68576   8.243   4.973   8.545 -1.1714  0.5054 -0.4088
  508MOL0     H68577   8.158   5.006   8.688  0.9202 -1.4864 -1.5608
  508MOL0     H68578   8.564   5.156   8.699  0.4846 -2.6628 -0.3378
  508MOL0     H68579   8.066   5.586   8.351 -2.8360  0.7476 -3.3729
  508MOL0     H68580   8.009   5.762   8.485 -0.1626 -0.2096  0.5274
  509MOL0     O68581   1.672   8.805  10.251  0.0037 -1.0485 -0.2083
  509MOL0     C68582   1.646   8.893  10.333  0.5386 -0.5621  0.8433
  509MOL0     O68583   1.545   8.975  10.328 -0.8303  0.3673  0.0233
  509MOL0     C68584   1.545   9.070  10.230  0.5637 -1.1466  0.4828
  509MOL0     C68585   1.455   9.176  10.238 -0.1461 -0.4569 -0.2463
  509MOL0     C68586   1.440   9.279  10.148  0.9673  0.0513 -0.2152
  509MOL0     C68587   1.523   9.289  10.042  0.1326 -0.4267 -0.5558
  509MOL0     O68588   1.511   9.403   9.969  0.3863  0.4852 -0.7062
  509MOL0     C68589   1.576   9.417   9.850 -0.3243  0.3013  0.2435
  509MOL0     C68590   1.521   9.538   9.784 -1.0794 -0.5188  0.1718
  509MOL0     C68591   1.549   9.549   9.633 -0.0486  0.9271 -0.1433
  509MOL0     C68592   1.426   9.530   9.549 -0.0644  0.1289  1.3986
  509MOL0     C68593   1.329   9.648   9.542  0.2212  0.0603 -0.0100
  509MOL0     C68594   1.213   9.640   9.440 -0.4673 -0.2249 -0.4551
  509MOL0     C68595   1.263   9.607   9.295 -1.1022 -0.7680 -0.2648
  509MOL0     C68596   1.153   9.573   9.194  0.3897 -0.0168  0.2014
  509MOL0     N68597   1.043   9.671   9.190  0.4090  0.3685 -0.7392
  509MOL0     C68598   0.926   9.665   9.266 -1.3747  0.1967  0.4186
  509MOL0     C68599   0.879   9.787   9.241 -0.6206 -1.1058 -0.0500
  509MOL0     C68600   0.758   9.845   9.310 -0.3221 -0.7724 -0.6249
  509MOL0     C68601   0.802   9.896   9.446 -0.2684 -1.2634  0.4531
  509MOL0     C68602   0.853  10.045   9.432 -0.3550 -0.2428 -0.5856
  509MOL0     C68603   0.847  10.116   9.570  0.4008  0.5068  0.7910
  509MOL0     O68604   0.835  10.252   9.571 -0.8738  0.3523 -0.6508
  509MOL0     C68605   0.926  10.321   9.648  0.3705 -0.3341 -0.8270
  509MOL0     C68606   0.889  10.439   9.719 -0.0376  0.1341  0.0137
  509MOL0     C68607   0.993  10.509   9.785 -0.7386  0.3039  0.6683
  509MOL0     C68608   0.948  10.628   9.861 -0.2561  0.4425  0.2175
  509MOL0     C68609   1.133  10.465   9.780  0.5952  0.1394  0.1487
  509MOL0     C68610   1.245  10.518   9.854 -0.2066  0.2366 -0.0758
  509MOL0     O68611   1.365  10.457   9.837 -0.3381 -0.0338  0.5224
  509MOL0     C68612   1.470  10.496   9.919 -0.2187 -0.4786 -0.4131
  509MOL0     C68613   1.503  10.405  10.019  0.0344  1.0997 -1.0095
  509MOL0     C68614   1.592  10.452  10.121 -0.2978  0.7368  0.1141
  509MOL0     C68615   1.636  10.585  10.119  0.5405 -0.9613 -0.6200
  509MOL0     O68616   1.731  10.633  10.211  0.7951 -0.3386  0.0505
  509MOL0     C68617   1.768  10.550  10.321 -1.0349 -1.0703  0.2011
  509MOL0     C68618   1.883  10.634  10.399  0.1807  0.5782 -0.3094
  509MOL0     C68619   1.902  10.578  10.543  0.3376  0.8699  0.5773
  509MOL0     C68620   2.038  10.603  10.600 -0.1394  0.3050 -0.1250
  509MOL0     C68621   2.035  10.585  10.747  0.9174  1.2023 -0.7534
  509MOL0     C68622   2.121  10.463  10.798  0.2143  0.9108  0.3121
  509MOL0     C68623   2.056  10.318  10.768 -0.3110 -0.5695  0.5877
  509MOL0     C68624   2.161  10.217  10.731 -0.0194  0.5719  0.6554
  509MOL0    Cl68625   2.250  10.175  10.879  0.7385 -0.3530  0.1348
  509MOL0     C68626   1.590  10.674  10.018 -0.3017  0.1556  0.2170
  509MOL0     C68627   1.512  10.627   9.925  0.5816 -0.2096  1.1557
  509MOL0     O68628   1.211  10.592   9.946  0.0152 -0.1220 -1.0132
  509MOL0     C68629   1.160  10.362   9.678 -0.2172 -0.3372 -0.7684
  509MOL0     C68630   1.062  10.302   9.613 -0.2878  0.0561 -0.2906
  509MOL0     N68631   0.953   9.859   9.148  0.5919  0.1155 -0.3455
  509MOL0     N68632   1.048   9.781   9.109 -0.5233 -0.0725  0.0185
  509MOL0     C68633   1.601   9.177  10.019  0.2195 -1.0394 -0.0018
  509MOL0     C68634   1.611   9.070  10.107  0.2560  0.5471 -0.4291
  509MOL0     C68635   1.723   8.902  10.465 -0.5656  1.2220 -0.0750
  509MOL0     C68636   1.809   8.794  10.499 -0.4854 -0.7937  0.5018
  509MOL0     C68637   1.881   8.788  10.624 -0.0501 -1.0493  0.8966
  509MOL0     C68638   1.867   8.894  10.715  0.0739  0.3901 -0.8048
  509MOL0     O68639   1.947   8.914  10.827  0.3552  0.4253  0.8257
  509MOL0     C68640   2.040   8.812  10.870  0.1545 -0.7707 -0.0539
  509MOL0     C68641   2.124   8.874  10.988  0.4552 -0.1366 -0.5083
  509MOL0     C68642   2.040   8.849  11.114 -0.6763  0.8105 -0.4062
  509MOL0     C68643   2.096   8.911  11.247 -0.8352  1.1722  0.5733
  509MOL0     C68644   2.240   8.868  11.265  0.5834  0.1428  0.2772
  509MOL0     C68645   2.352   8.829  11.282 -0.4002 -0.1712  0.1933
  509MOL0     C68646   1.772   8.989  10.684 -1.0032  0.6722  0.3148
  509MOL0     C68647   1.710   9.001  10.551  0.1697 -0.6774 -1.2159
  509MOL0     H68648   1.400   9.182  10.332 -0.8952 -0.5178 -0.6682
  509MOL0     H68649   1.358   9.351  10.155  0.1185 -0.9928  1.0042
  509MOL0     H68650   1.685   9.413   9.858 -0.3773 -0.9145  0.5897
  509MOL0     H68651   1.554   9.328   9.790  3.9850  0.1680 -1.4810
  509MOL0     H68652   1.415   9.560   9.804 -0.8578  0.9420 -0.1567
  509MOL0     H68653   1.573   9.624   9.826 -0.4491 -0.7594 -0.1060
  509MOL0     H68654   1.606   9.640   9.614  3.1336 -1.0385 -0.7325
  509MOL0     H68655   1.613   9.464   9.606 -1.3697 -0.1090 -0.1669
  509MOL0     H68656   1.460   9.536   9.445 -1.0613 -1.5207  0.9453
  509MOL0     H68657   1.388   9.428   9.561  1.8793 -1.0871 -1.5257
  509MOL0     H68658   1.293   9.668   9.643  0.7157  3.9909 -0.4509
  509MOL0     H68659   1.391   9.736   9.521 -0.8739  0.4304 -1.8553
  509MOL0     H68660   1.148   9.558   9.474 -0.6198  1.1211  2.8527
  509MOL0     H68661   1.156   9.733   9.437  0.1671  0.1730 -0.4105
  509MOL0     H68662   1.326   9.690   9.260 -1.2700 -1.0697 -1.3212
  509MOL0     H68663   1.327   9.519   9.288  1.4726  1.0847 -2.1386
  509MOL0     H68664   1.113   9.471   9.200 -2.5829  1.1050  1.2236
  509MOL0     H68665   1.199   9.577   9.094 -5.3628 -2.4522 -3.0178
  509MOL0     H68666   0.879   9.598   9.337 -4.9637  0.3110 -1.5945
  509MOL0     H68667   0.712   9.922   9.247 -2.2901 -2.4491 -1.3637
  509MOL0     H68668   0.679   9.770   9.325  0.5971 -1.3876  1.5945
  509MOL0     H68669   0.894   9.853   9.485  0.1408 -1.6966 -0.9532
  509MOL0     H68670   0.722   9.880   9.520 -1.6695 -0.9599 -0.9332
  509MOL0     H68671   0.794  10.097   9.356 -1.0349  0.0120  0.1114
  509MOL0     H68672   0.957  10.035   9.400  0.4968 -0.1014  1.9421
  509MOL0     H68673   0.931  10.085   9.632  0.8813  0.0883 -0.0545
  509MOL0     H68674   0.759  10.078   9.623 -0.4984  1.6944  0.2031
  509MOL0     H68675   0.786  10.472   9.727 -0.7556 -1.0866 -2.7446
  509MOL0     H68676   0.847  10.659   9.832 -0.3850  0.6622  0.8651
  509MOL0     H68677   0.950  10.620   9.970 -0.2570 -0.0769  0.1810
  509MOL0     H68678   1.019  10.706   9.833 -0.5845  1.0948  1.1489
  509MOL0     H68679   1.471  10.302  10.028  0.9697  0.9508  1.4999
  509MOL0     H68680   1.619  10.388  10.204 -0.3547  2.8590  1.8565
  509MOL0     H68681   1.682  10.518  10.380 -1.3480 -0.5928  0.0082
  509MOL0     H68682   1.818  10.458  10.291 -0.7061 -1.1598  1.0016
  509MOL0     H68683   1.976  10.622  10.344 -0.0287 -3.1850 -0.1373
  509MOL0     H68684   1.871  10.742  10.414  0.6438  0.2208  4.0701
  509MOL0     H68685   1.874  10.472  10.544 -0.3565  1.0479  1.5278
  509MOL0     H68686   1.824  10.623  10.606  1.4564  2.0474  1.1519
  509MOL0     H68687   2.112  10.541  10.549  0.4505 -0.3780  1.4906
  509MOL0     H68688   2.072  10.706  10.583 -0.5472  0.3985 -0.3742
  509MOL0     H68689   1.930  10.571  10.775  1.1369 -0.6430 -0.6927
  509MOL0     H68690   2.072  10.669  10.807  1.3762  0.4262  0.0704
  509MOL0     H68691   2.224  10.469  10.760 -1.0820  2.9154 -3.3600
  509MOL0     H68692   2.131  10.480  10.905 -0.9337 -0.6634  0.6979
  509MOL0     H68693   1.983  10.321  10.687 -1.3929  1.5275  1.5731
  509MOL0     H68694   1.997  10.298  10.857 -3.2742  1.0081 -0.8756
  509MOL0     H68695   2.224  10.261  10.653 -0.6528 -0.6676 -0.6043
  509MOL0     H68696   2.122  10.122  10.692  0.2919  1.9503 -3.4792
  509MOL0     H68697   1.643  10.768  10.010 -1.0658  1.0436  3.7782
  509MOL0     H68698   1.476  10.699   9.853 -0.8011  0.8254  2.7906
  509MOL0     H68699   1.258  10.328   9.645  1.2314  2.1492  0.6156
  509MOL0     H68700   1.083  10.225   9.540  0.0666  1.6323 -1.9237
  509MOL0     H68701   1.657   9.186   9.927  1.2131  1.4028  0.7655
  509MOL0     H68702   1.677   8.986  10.090 -2.7453 -1.9063 -0.8297
  509MOL0     H68703   1.815   8.709  10.432 -0.2927 -0.5462  0.2059
  509MOL0     H68704   1.942   8.700  10.641 -0.6077 -1.4836  0.6882
  509MOL0     H68705   1.989   8.722  10.905 -1.0961 -1.0587 -2.3628
  509MOL0     H68706   2.111   8.795  10.788  1.3537  1.7471  0.3775
  509MOL0     H68707   2.120   8.981  10.968  1.2904  0.2324  1.0986
  509MOL0     H68708   2.220   8.821  10.987 -2.2514 -5.8717 -3.3666
  509MOL0     H68709   2.036   8.741  11.132  0.2525  1.1933  2.5223
  509MOL0     H68710   1.940   8.889  11.094 -0.6906  0.3242 -1.3602
  509MOL0     H68711   2.033   8.870  11.326 -1.8227  1.8568  0.1576
  509MOL0     H68712   2.074   9.018  11.241 -1.4833  0.9739 -1.0856
  509MOL0     H68713   2.451   8.789  11.294 -0.8843 -1.3165  0.4334
  509MOL0     H68714   1.757   9.074  10.750 -0.3821 -1.0162  2.7746
  509MOL0     H68715   1.648   9.085  10.524 -4.8906 -2.7875  2.1630
  510MOL0     O68716  10.785   3.867   4.824  0.4612 -0.6922  0.1780
  510MOL0     C68717  10.666   3.831   4.838 -0.5205  0.0564 -0.3908
  510MOL0     O68718  10.623   3.744   4.938 -0.2602  0.6227  0.3955
  510MOL0     C68719  10.711   3.713   5.039  0.9133  0.3901  0.8801
  510MOL0     C68720  10.681   3.745   5.173  0.0349 -1.1469  0.2572
  510MOL0     C68721  10.751   3.691   5.278 -0.5356  0.7201 -0.1239
  510MOL0     C68722  10.852   3.603   5.257  0.3892  0.2855  1.1098
  510MOL0     O68723  10.937   3.569   5.360  0.4540 -0.1956 -0.0828
  510MOL0     C68724  10.954   3.651   5.472  0.4706 -0.1147 -0.5793
  510MOL0     C68725  11.088   3.613   5.533  0.8954 -0.1331  0.3846
  510MOL0     C68726  11.091   3.473   5.584 -0.0360 -0.4566  0.8792
  510MOL0     C68727  11.224   3.425   5.629 -0.3218 -0.3660  0.2174
  510MOL0     C68728  11.202   3.311   5.731  0.9363 -0.2711 -1.1856
  510MOL0     C68729  11.343   3.255   5.778  0.0221 -0.5901  1.0530
  510MOL0     C68730  11.346   3.121   5.848 -0.1410  0.7143  0.2864
  510MOL0     C68731  11.312   3.010   5.756 -0.6252 -0.6176  0.4057
  510MOL0     N68732  11.346   2.888   5.823 -0.2511 -0.1818  0.1297
  510MOL0     C68733  11.266   2.778   5.858 -0.1825 -0.5465 -0.1949
  510MOL0     C68734  11.358   2.695   5.909 -0.3161 -0.7100  0.4134
  510MOL0     C68735  11.339   2.560   5.983  0.3400 -0.1687  0.6637
  510MOL0     C68736  11.199   2.549   6.056 -1.0111 -0.3882  0.2944
  510MOL0     C68737  11.186   2.640   6.186  0.3890 -0.3708 -0.2451
  510MOL0     C68738  11.068   2.586   6.261  0.4752  0.6553  1.1055
  510MOL0     O68739  10.952   2.630   6.195  0.1976  0.3582 -0.6132
  510MOL0     C68740  10.831   2.614   6.258 -1.1956 -0.3605 -0.7690
  510MOL0     C68741  10.734   2.651   6.168  0.1691 -0.4815 -0.1919
  510MOL0     C68742  10.596   2.642   6.219  0.4778  0.5710 -0.0847
  510MOL0     C68743  10.492   2.693   6.115  0.8277  0.3241  1.2278
  510MOL0     C68744  10.570   2.597   6.346 -0.6711 -0.2819  0.6812
  510MOL0     C68745  10.429   2.595   6.399  0.7885  0.4107  0.0090
  510MOL0     O68746  10.351   2.707   6.363 -0.0463 -0.6548 -0.4811
  510MOL0     C68747  10.250   2.755   6.446 -0.9436  0.4408 -0.4606
  510MOL0     C68748  10.129   2.798   6.395  0.8018  1.0749 -0.4536
  510MOL0     C68749  10.026   2.842   6.474 -0.0811 -0.0077  0.3084
  510MOL0     C68750  10.042   2.842   6.613 -0.6456 -1.0639 -0.6752
  510MOL0     O68751   9.938   2.876   6.703 -0.0299 -0.4451 -0.7586
  510MOL0     C68752   9.805   2.867   6.667  0.2560  0.4779  0.4186
  510MOL0     C68753   9.724   2.892   6.789  0.0785  0.9095 -0.3998
  510MOL0     C68754   9.755   2.787   6.898 -0.4562 -0.1093  0.3701
  510MOL0     C68755   9.660   2.669   6.902 -0.5682 -0.7559  0.2635
  510MOL0     C68756   9.694   2.576   7.027  0.6986  0.2188  1.0819
  510MOL0     C68757   9.612   2.446   7.013 -0.7952 -0.2110 -0.4517
  510MOL0     C68758   9.609   2.374   7.145  0.6817  0.1266  0.1774
  510MOL0     C68759   9.721   2.284   7.160  0.4478 -0.0050 -0.0764
  510MOL0    Cl68760   9.701   2.141   7.040  0.6506  0.1383  0.4997
  510MOL0     C68761  10.166   2.802   6.669 -0.7260 -0.1366  0.5496
  510MOL0     C68762  10.263   2.752   6.581 -0.2021  0.0504  0.8029
  510MOL0     O68763  10.391   2.505   6.479 -0.4363  0.4766 -0.3955
  510MOL0     C68764  10.684   2.566   6.431  0.1770 -0.4390  0.3304
  510MOL0     C68765  10.815   2.557   6.386  0.5057 -0.6060 -0.0367
  510MOL0     N68766  11.485   2.745   5.887 -0.4575 -0.0757  0.1896
  510MOL0     N68767  11.474   2.859   5.833 -0.4046  0.5717  0.8452
  510MOL0     C68768  10.877   3.563   5.120 -0.2616 -0.0114 -0.6600
  510MOL0     C68769  10.808   3.618   5.014 -0.6918 -1.1267 -1.0934
  510MOL0     C68770  10.558   3.851   4.740 -0.0563  0.2770  0.6609
  510MOL0     C68771  10.424   3.829   4.766  0.1199 -0.5073 -0.3692
  510MOL0     C68772  10.327   3.830   4.665  0.2937 -0.6893  0.2014
  510MOL0     C68773  10.359   3.850   4.532  0.7410 -0.0391 -0.1531
  510MOL0     O68774  10.249   3.848   4.440  0.1678 -0.3230  0.6423
  510MOL0     C68775  10.296   3.879   4.304  0.1087  0.1774  0.5798
  510MOL0     C68776  10.189   3.859   4.212  0.4208  0.6267 -0.2976
  510MOL0     C68777  10.175   3.973   4.108  0.1333 -0.0283  0.2887
  510MOL0     C68778  10.052   3.952   4.005 -0.0302 -1.2134 -0.4650
  510MOL0     C68779  10.031   4.076   3.919  0.1089 -0.3368 -0.2405
  510MOL0     C68780  10.012   4.163   3.836 -0.2989 -0.0623 -0.1974
  510MOL0     C68781  10.501   3.870   4.505  0.4072  0.0678  0.6168
  510MOL0     C68782  10.592   3.878   4.607  0.0529  0.5679  0.4683
  510MOL0     H68783  10.595   3.808   5.189  0.0460 -1.3771  1.2556
  510MOL0     H68784  10.724   3.736   5.372 -4.1051  0.0802 -0.6773
  510MOL0     H68785  10.955   3.757   5.449 -2.8172 -0.0061 -0.7625
  510MOL0     H68786  10.874   3.633   5.545 -1.0292  0.1193 -2.0917
  510MOL0     H68787  11.158   3.632   5.452  0.8928  1.1029  0.6493
  510MOL0     H68788  11.116   3.690   5.606 -1.6412 -0.7004  2.1028
  510MOL0     H68789  11.033   3.475   5.677 -1.7097 -1.2661 -0.0996
  510MOL0     H68790  11.045   3.407   5.510 -1.6967  3.0556 -1.4930
  510MOL0     H68791  11.276   3.399   5.537  0.3168  1.4339  0.0478
  510MOL0     H68792  11.275   3.506   5.682  0.3076 -0.4595 -0.2413
  510MOL0     H68793  11.154   3.330   5.827  2.9179  0.4493 -0.2829
  510MOL0     H68794  11.146   3.232   5.679 -0.0107 -1.9415  2.0703
  510MOL0     H68795  11.409   3.246   5.691 -1.1652 -0.2907  0.1008
  510MOL0     H68796  11.398   3.331   5.834 -0.8423  1.3186 -0.5789
  510MOL0     H68797  11.453   3.106   5.869  0.2489  1.2217 -1.2165
  510MOL0     H68798  11.285   3.114   5.939 -0.2720 -0.7683  0.1084
  510MOL0     H68799  11.377   3.005   5.668 -1.2668  0.7206 -0.1811
  510MOL0     H68800  11.207   3.001   5.727 -0.3542 -0.6901 -0.6096
  510MOL0     H68801  11.158   2.775   5.866 -0.1467  1.4882  4.9335
  510MOL0     H68802  11.356   2.494   5.898  1.4075  1.7864 -0.7205
  510MOL0     H68803  11.423   2.542   6.051  1.3051  2.0136  0.1288
  510MOL0     H68804  11.183   2.444   6.083 -0.9872  0.0363  2.0684
  510MOL0     H68805  11.118   2.571   5.985 -1.5721 -1.1054  0.6944
  510MOL0     H68806  11.177   2.747   6.165 -5.0070 -0.8538 -1.8188
  510MOL0     H68807  11.275   2.629   6.249  1.9339 -0.9322 -2.3924
  510MOL0     H68808  11.077   2.625   6.363 -1.4108  1.2956  1.0560
  510MOL0     H68809  11.068   2.476   6.265  0.6283  0.6340  0.6183
  510MOL0     H68810  10.749   2.690   6.068  2.6120 -0.4852  0.1301
  510MOL0     H68811  10.396   2.641   6.106  0.6679  0.5321  1.7055
  510MOL0     H68812  10.468   2.795   6.147  0.2430  0.3317  0.7733
  510MOL0     H68813  10.536   2.713   6.017  0.9050 -0.3883  1.1167
  510MOL0     H68814  10.111   2.788   6.288 -1.0454  4.4732 -0.5931
  510MOL0     H68815   9.929   2.864   6.431  1.0164  5.8238 -0.0228
  510MOL0     H68816   9.778   2.935   6.586  0.5093  1.8805  1.4734
  510MOL0     H68817   9.783   2.764   6.636 -1.2851  0.2804  1.9650
  510MOL0     H68818   9.735   2.996   6.823  1.8926  0.0275  1.9364
  510MOL0     H68819   9.617   2.884   6.768 -0.8220  2.4908  2.8215
  510MOL0     H68820   9.746   2.839   6.994 -0.5624  0.3622  0.1087
  510MOL0     H68821   9.856   2.747   6.901  0.1903  1.3768 -0.4969
  510MOL0     H68822   9.557   2.706   6.903  0.3381  2.1681 -1.8801
  510MOL0     H68823   9.669   2.608   6.811 -1.8832 -1.3218  0.4840
  510MOL0     H68824   9.673   2.628   7.121 -0.4464 -1.7888  2.0078
  510MOL0     H68825   9.799   2.547   7.025  0.3387 -1.1975  1.5347
  510MOL0     H68826   9.510   2.485   7.001 -0.5202  0.2050 -1.6198
  510MOL0     H68827   9.630   2.383   6.925 -0.2920  2.7976 -2.6735
  510MOL0     H68828   9.518   2.313   7.141 -0.3322  1.6617 -1.0703
  510MOL0     H68829   9.597   2.446   7.226  0.2750  4.1282 -3.1208
  510MOL0     H68830   9.716   2.232   7.257 -1.9899 -3.0626 -1.6453
  510MOL0     H68831   9.813   2.343   7.152  0.6499 -0.1107  1.1721
  510MOL0     H68832  10.170   2.808   6.778 -1.7837  2.9570  0.5084
  510MOL0     H68833  10.360   2.711   6.610  1.3873  0.5619 -3.1813
  510MOL0     H68834  10.660   2.534   6.532  2.7176 -1.2463  0.7348
  510MOL0     H68835  10.898   2.533   6.451 -0.6364 -2.7389  0.7465
  510MOL0     H68836  10.963   3.498   5.106  2.5654  1.8467  4.9297
  510MOL0     H68837  10.840   3.611   4.911 -1.1638  1.9291 -1.5149
  510MOL0     H68838  10.390   3.817   4.868 -0.6922 -0.0005 -0.5759
  510MOL0     H68839  10.222   3.813   4.687  0.4666 -2.1688 -0.0307
  510MOL0     H68840  10.334   3.981   4.297  1.3664 -0.3067 -0.0708
  510MOL0     H68841  10.385   3.819   4.279  0.7589  0.2808  2.4472
  510MOL0     H68842  10.096   3.878   4.267  0.9182  0.0850  0.7560
  510MOL0     H68843  10.191   3.755   4.180  0.5745  0.4162  0.3655
  510MOL0     H68844  10.273   3.970   4.060 -0.0474  2.8453 -0.4803
  510MOL0     H68845  10.169   4.076   4.144 -0.5065  0.0572 -0.0470
  510MOL0     H68846   9.962   3.919   4.056  1.3331 -2.6918  1.0706
  510MOL0     H68847  10.083   3.872   3.937 -1.2728  0.6820 -3.5158
  510MOL0     H68848   9.992   4.237   3.761 -2.2625  2.1336  2.2962
  510MOL0     H68849  10.541   3.892   4.407  1.1455 -0.3105  0.8238
  510MOL0     H68850  10.700   3.879   4.595  0.6440 -1.8713  4.0175
  511MOL0     O68851   0.613  10.578   3.057  0.1863  0.1851  0.4128
  511MOL0     C68852   0.701  10.667   3.048  0.3846 -0.8511  0.0930
  511MOL0     O68853   0.829  10.644   3.002 -0.1208 -0.0811  0.1979
  511MOL0     C68854   0.852  10.515   2.955 -0.2848 -0.5851 -0.2638
  511MOL0     C68855   0.781  10.450   2.856 -0.2740  0.3651  0.6600
  511MOL0     C68856   0.801  10.313   2.823 -0.5530 -0.0192 -0.0389
  511MOL0     C68857   0.893  10.238   2.896 -0.0577  0.0509 -0.3232
  511MOL0     O68858   0.905  10.100   2.864  0.8499 -0.6892 -0.1004
  511MOL0     C68859   0.835  10.015   2.958  1.2726 -0.1945  0.0628
  511MOL0     C68860   0.866   9.868   2.939 -1.2324 -0.3554 -0.0970
  511MOL0     C68861   1.009   9.843   2.987  0.0211 -0.0499  0.4820
  511MOL0     C68862   1.065   9.716   2.903 -0.0749 -0.2926 -0.0323
  511MOL0     C68863   1.194   9.682   2.963  0.7698  0.0478 -0.3695
  511MOL0     C68864   1.284   9.596   2.882 -0.4495  1.5215 -0.8462
  511MOL0     C68865   1.428   9.604   2.939 -0.1690 -0.2260 -1.0835
  511MOL0     C68866   1.535   9.516   2.870 -0.5139 -0.2014 -0.1139
  511MOL0     N68867   1.648   9.486   2.959 -0.0026 -0.2125 -0.2953
  511MOL0     C68868   1.745   9.573   3.004  1.8236 -0.6497  1.4550
  511MOL0     C68869   1.807   9.503   3.105 -0.3777  0.2348 -0.2951
  511MOL0     C68870   1.926   9.554   3.187  0.5542 -0.7678 -0.1331
  511MOL0     C68871   2.051   9.507   3.125  0.1687 -0.8638 -0.1020
  511MOL0     C68872   2.167   9.538   3.224  0.4008  0.3010 -0.2514
  511MOL0     C68873   2.181   9.431   3.338  0.7727 -0.8790  0.5002
  511MOL0     O68874   2.292   9.462   3.425 -0.0246  0.0374 -0.3427
  511MOL0     C68875   2.279   9.559   3.524 -0.7584 -1.0999 -1.2839
  511MOL0     C68876   2.395   9.637   3.544  0.3373  1.0074  0.3524
  511MOL0     C68877   2.403   9.734   3.640  0.1325 -0.0753 -0.4982
  511MOL0     C68878   2.536   9.801   3.655  0.0777 -0.0138  0.2103
  511MOL0     C68879   2.281   9.766   3.715 -0.8009  0.1105  0.4594
  511MOL0     C68880   2.277   9.854   3.839 -0.5595  0.1365  0.0600
  511MOL0     O68881   2.168   9.837   3.921 -0.0648  0.4608  0.4439
  511MOL0     C68882   2.160   9.892   4.047  0.3165  0.8610  0.1942
  511MOL0     C68883   2.272   9.912   4.127  0.2980 -0.5872  0.0931
  511MOL0     C68884   2.265   9.978   4.247 -0.0016 -0.0156 -0.5976
  511MOL0     C68885   2.134  10.023   4.300 -0.6539  0.2644  0.5804
  511MOL0     O68886   2.117  10.076   4.425  0.3599  0.1046  0.4181
  511MOL0     C68887   2.089  10.223   4.427  0.7707  0.2788  0.6177
  511MOL0     C68888   2.017  10.247   4.563  0.1621  1.0863  0.2418
  511MOL0     C68889   2.123  10.219   4.675 -0.4784  0.2434 -0.7055
  511MOL0     C68890   2.070  10.243   4.815  0.4495 -0.3236 -0.8971
  511MOL0     C68891   1.977  10.359   4.861  0.3810 -0.5968 -0.2631
  511MOL0     C68892   1.981  10.387   5.013 -0.3092  0.5119 -0.5282
  511MOL0     C68893   1.892  10.511   5.035 -0.2628  0.7631 -0.5291
  511MOL0     C68894   1.929  10.591   5.155  1.0674 -0.5707 -0.3277
  511MOL0    Cl68895   1.806  10.719   5.181  0.0039 -0.0174  0.0014
  511MOL0     C68896   2.027   9.990   4.221 -0.4251  0.1523 -0.1829
  511MOL0     C68897   2.034   9.923   4.099  0.0452  0.2256  0.0960
  511MOL0     O68898   2.364   9.942   3.858 -0.5770 -0.1617  0.1557
  511MOL0     C68899   2.164   9.697   3.682  0.1362  0.3195 -0.3586
  511MOL0     C68900   2.163   9.600   3.588  1.4918 -0.5097 -0.2893
  511MOL0     N68901   1.750   9.381   3.109  0.2936 -0.6965  0.3811
  511MOL0     N68902   1.671   9.364   3.013 -0.1826 -0.3400 -0.0065
  511MOL0     C68903   0.960  10.303   3.001 -0.2985 -1.0563  0.2647
  511MOL0     C68904   0.939  10.443   3.031  0.2836 -0.4415 -0.6580
  511MOL0     C68905   0.675  10.796   3.109 -0.1521 -0.2210  0.0575
  511MOL0     C68906   0.542  10.844   3.117  0.5723  1.3223 -0.9636
  511MOL0     C68907   0.528  10.972   3.163  0.4014  0.2559  0.8553
  511MOL0     C68908   0.630  11.063   3.189  0.0195  0.6579  0.1375
  511MOL0     O68909   0.605  11.186   3.230  1.1901 -0.2844 -0.2386
  511MOL0     C68910   0.682  11.295   3.174 -0.0546 -0.5962 -0.3466
  511MOL0     C68911   0.605  11.347   3.049  0.4744  0.4126 -0.0111
  511MOL0     C68912   0.456  11.382   3.076 -0.6841  0.2507  0.6728
  511MOL0     C68913   0.373  11.368   2.943 -1.3067 -0.5100  0.0241
  511MOL0     C68914   0.361  11.227   2.898 -0.2980  0.1521  0.3813
  511MOL0     C68915   0.339  11.111   2.864 -0.2185 -0.3486 -0.2799
  511MOL0     C68916   0.764  11.016   3.161  0.0685  0.1865 -0.2294
  511MOL0     C68917   0.781  10.885   3.124  0.4454  0.3472  0.4989
  511MOL0     H68918   0.693  10.505   2.825  0.4222  1.3184  0.3392
  511MOL0     H68919   0.749  10.275   2.736  1.6363 -1.6717 -0.7194
  511MOL0     H68920   0.861  10.043   3.061  2.4092  0.7192 -0.4492
  511MOL0     H68921   0.728  10.036   2.959  1.6599  2.0594 -0.1915
  511MOL0     H68922   0.808   9.791   2.990 -0.0301 -1.7284 -0.7241
  511MOL0     H68923   0.859   9.842   2.833  2.1485  2.8870 -1.3541
  511MOL0     H68924   1.064   9.931   2.951  0.2333 -0.0057  0.9108
  511MOL0     H68925   1.016   9.830   3.095  2.7647  2.4654  0.7397
  511MOL0     H68926   1.004   9.625   2.901 -2.1989  0.8726  3.0465
  511MOL0     H68927   1.085   9.745   2.800  0.4560  1.6105  0.5732
  511MOL0     H68928   1.243   9.774   2.996 -0.6574  0.2957  1.1639
  511MOL0     H68929   1.177   9.628   3.057  0.3440  0.7984 -0.0088
  511MOL0     H68930   1.256   9.491   2.892  0.4982  1.4626  2.2952
  511MOL0     H68931   1.287   9.624   2.776 -1.2157  1.2726 -0.9385
  511MOL0     H68932   1.454   9.710   2.948 -4.2587  0.8103  0.4178
  511MOL0     H68933   1.423   9.570   3.043  1.5473  3.7560  0.5394
  511MOL0     H68934   1.575   9.571   2.784 -1.4305  2.6590  1.1742
  511MOL0     H68935   1.483   9.425   2.840 -1.8477  0.3926  0.3471
  511MOL0     H68936   1.760   9.674   2.966  0.5451 -1.0497 -0.2454
  511MOL0     H68937   1.944   9.662   3.188  2.3197 -0.9634 -2.4746
  511MOL0     H68938   1.907   9.521   3.290  0.9349 -4.5447 -1.1358
  511MOL0     H68939   2.060   9.563   3.031  4.3933 -2.9080 -1.1583
  511MOL0     H68940   2.043   9.406   3.084 -2.4649 -0.9024  0.3241
  511MOL0     H68941   2.147   9.631   3.278  0.5090 -0.0638  0.4249
  511MOL0     H68942   2.254   9.553   3.160 -0.3814  0.7628 -1.2483
  511MOL0     H68943   2.198   9.330   3.299  1.6582 -1.7446  2.9343
  511MOL0     H68944   2.084   9.424   3.389  1.1752  0.3152  1.4801
  511MOL0     H68945   2.470   9.622   3.467  0.2292  3.7638 -0.3763
  511MOL0     H68946   2.620   9.743   3.613 -0.5682  0.3325 -1.6787
  511MOL0     H68947   2.533   9.893   3.596  4.8558  1.7012  2.1735
  511MOL0     H68948   2.562   9.818   3.760  3.7918  2.6695 -0.9159
  511MOL0     H68949   2.365   9.868   4.093 -0.6398 -0.4662 -2.8383
  511MOL0     H68950   2.346   9.990   4.318 -0.5083 -1.5701  0.2859
  511MOL0     H68951   2.180  10.281   4.407  0.7763 -0.0694 -0.4045
  511MOL0     H68952   2.015  10.250   4.351  0.3857 -3.2053 -0.4044
  511MOL0     H68953   1.981  10.349   4.581 -0.4239  0.7260  1.2127
  511MOL0     H68954   1.932  10.178   4.564  0.0909  1.1586  1.3922
  511MOL0     H68955   2.216  10.272   4.656  1.5720 -2.8325 -0.0420
  511MOL0     H68956   2.150  10.113   4.672  1.8216  0.7905 -1.3859
  511MOL0     H68957   2.022  10.152   4.850 -0.3530  1.0201  1.7906
  511MOL0     H68958   2.167  10.256   4.864  1.6636 -1.7789 -2.7738
  511MOL0     H68959   1.874  10.335   4.833 -0.1765 -0.4577  1.5686
  511MOL0     H68960   2.007  10.453   4.814 -1.9614  0.4791  0.2368
  511MOL0     H68961   1.953  10.298   5.070  4.2996 -0.0616  1.3044
  511MOL0     H68962   2.088  10.397   5.035  0.7374 -4.1246 -2.4296
  511MOL0     H68963   1.789  10.477   5.022 -0.6031  0.9906  1.3365
  511MOL0     H68964   1.913  10.587   4.959  0.3880  3.2511  1.9782
  511MOL0     H68965   2.024  10.641   5.137  0.9402 -0.3355 -0.3504
  511MOL0     H68966   1.927  10.544   5.254 -2.5188 -0.7105 -0.3348
  511MOL0     H68967   1.926  10.013   4.255 -0.2286  0.4429  0.2041
  511MOL0     H68968   1.941   9.890   4.055  0.4596 -0.9733  0.1053
  511MOL0     H68969   2.074   9.715   3.741 -0.8169 -0.7961 -1.4257
  511MOL0     H68970   2.064   9.563   3.565  0.5366  1.5939  0.2272
  511MOL0     H68971   1.032  10.247   3.060  1.9858 -0.4816 -1.7798
  511MOL0     H68972   0.986  10.483   3.120 -1.8314  0.1039  0.2908
  511MOL0     H68973   0.459  10.778   3.094  1.5899 -0.0066 -1.0065
  511MOL0     H68974   0.424  11.002   3.179  0.5423  1.1081  0.2083
  511MOL0     H68975   0.671  11.370   3.254 -0.6646 -1.8143  0.7426
  511MOL0     H68976   0.783  11.270   3.140 -0.8626 -0.8716 -2.6641
  511MOL0     H68977   0.597  11.276   2.966 -1.9425 -0.2349  0.6765
  511MOL0     H68978   0.660  11.432   3.008  0.0172  1.0811  0.7315
  511MOL0     H68979   0.457  11.488   3.101  0.1503 -0.1438  2.4965
  511MOL0     H68980   0.419  11.317   3.156 -4.2328 -0.6149 -1.4544
  511MOL0     H68981   0.441  11.420   2.874  1.6923  0.2390  3.2502
  511MOL0     H68982   0.275  11.416   2.936 -1.8506 -1.6236 -0.1312
  511MOL0     H68983   0.319  11.012   2.829 -0.4396  0.2635 -1.9993
  511MOL0     H68984   0.850  11.081   3.171  1.3359 -1.0898 -2.2221
  511MOL0     H68985   0.885  10.862   3.104 -0.0160  0.4376 -2.4005
  512MOL0     O68986   3.036   0.953   2.361 -0.0871 -0.6407  0.6126
  512MOL0     C68987   3.055   0.919   2.245  0.2349 -0.0736 -0.5908
  512MOL0     O68988   2.971   0.841   2.169  0.3099 -0.8161 -0.3880
  512MOL0     C68989   2.862   0.779   2.232  0.2069  0.0348  0.8182
  512MOL0     C68990   2.772   0.724   2.154  0.0484 -0.6747 -0.4517
  512MOL0     C68991   2.647   0.674   2.202 -0.4858 -0.0505 -0.2580
  512MOL0     C68992   2.631   0.674   2.338 -0.0840 -0.2352 -0.2669
  512MOL0     O68993   2.509   0.626   2.377  0.3145  0.4474 -0.2362
  512MOL0     C68994   2.462   0.668   2.509 -0.4146 -0.5243 -0.9267
  512MOL0     C68995   2.320   0.617   2.543  0.6769 -0.2691  0.1246
  512MOL0     C68996   2.285   0.645   2.691  0.1963  0.1740 -0.0938
  512MOL0     C68997   2.134   0.623   2.715  0.1772 -0.3980 -0.2569
  512MOL0     C68998   2.092   0.473   2.688  0.6137 -1.3199 -0.1167
  512MOL0     C68999   1.940   0.444   2.732  1.2168 -1.3008  0.3634
  512MOL0     C69000   1.851   0.539   2.641 -0.0043 -0.3460 -0.3686
  512MOL0     C69001   1.695   0.499   2.643  0.1259  0.7147 -0.4309
  512MOL0     N69002   1.617   0.595   2.565  0.0169  0.0599 -0.1070
  512MOL0     C69003   1.594   0.583   2.430  0.8063  0.1215  0.2122
  512MOL0     C69004   1.535   0.701   2.394  0.1330  0.5048  0.4226
  512MOL0     C69005   1.500   0.736   2.245 -0.8497  0.7696 -0.0499
  512MOL0     C69006   1.367   0.678   2.223  0.4325 -0.1638  0.0148
  512MOL0     C69007   1.340   0.709   2.076  0.2888  0.6197  0.1064
  512MOL0     C69008   1.221   0.630   2.025  0.0059 -0.2611 -0.7567
  512MOL0     O69009   1.225   0.650   1.879 -0.5524 -0.4371 -0.4237
  512MOL0     C69010   1.126   0.592   1.806 -0.7085 -0.1562  0.9324
  512MOL0     C69011   1.051   0.483   1.855  0.1258 -0.1276 -1.3466
  512MOL0     C69012   0.952   0.421   1.785  0.5478 -0.2686  0.0891
  512MOL0     C69013   0.859   0.324   1.857 -0.9389  0.0149  0.6818
  512MOL0     C69014   0.933   0.458   1.646  0.1045 -0.5322 -0.0349
  512MOL0     C69015   0.840   0.397   1.549  0.5097  0.3723  0.3739
  512MOL0     O69016   0.846   0.444   1.426 -0.1410  0.2441 -0.4002
  512MOL0     C69017   0.761   0.405   1.314  0.0421 -0.1376  0.3967
  512MOL0     C69018   0.802   0.462   1.192 -0.3242 -0.2248 -0.3338
  512MOL0     C69019   0.723   0.447   1.076 -0.4596 -0.0740 -0.0057
  512MOL0     C69020   0.594   0.382   1.091 -0.5441 -0.7342 -0.2264
  512MOL0     O69021   0.528   0.399   0.966  0.1463 -0.0666 -0.2877
  512MOL0     C69022   0.386   0.376   0.973 -0.3449 -0.2254  0.6670
  512MOL0     C69023   0.293   0.473   1.045 -0.2821 -0.5093 -0.6628
  512MOL0     C69024   0.302   0.621   1.013 -0.4813 -0.5120  0.5018
  512MOL0     C69025   0.243   0.653   0.871  0.0445  0.0376  0.1280
  512MOL0     C69026   0.091   0.649   0.859 -0.5841 -0.0589  0.9160
  512MOL0     C69027   0.030   0.699   0.721 -0.1174 -0.6020  0.3357
  512MOL0     C69028   0.070   0.849   0.689  0.4270 -0.3335 -0.0093
  512MOL0     C69029   0.041   0.872   0.542 -0.5789  0.8806  0.9109
  512MOL0    Cl69030  -0.134   0.883   0.516  0.5070 -0.0088  0.1353
  512MOL0     C69031   0.561   0.313   1.212  1.0638  0.4376 -0.1750
  512MOL0     C69032   0.648   0.326   1.319  0.5819 -0.4916  0.8559
  512MOL0     O69033   0.769   0.307   1.589  0.6442 -0.2160 -0.2026
  512MOL0     C69034   1.027   0.559   1.593  0.0924  1.1121  0.0500
  512MOL0     C69035   1.114   0.623   1.676  0.6838 -1.0282  0.3826
  512MOL0     N69036   1.501   0.769   2.515 -0.2173 -0.4954 -0.3188
  512MOL0     N69037   1.562   0.707   2.615 -0.5616 -0.3153  0.5145
  512MOL0     C69038   2.733   0.707   2.423  0.0369  0.1732 -0.0418
  512MOL0     C69039   2.848   0.750   2.372  0.3182 -0.6478  0.6008
  512MOL0     C69040   3.179   0.971   2.177 -0.7270 -0.2223  0.5476
  512MOL0     C69041   3.215   0.915   2.049  0.6067 -0.2579  1.7662
  512MOL0     C69042   3.320   0.977   1.981  0.1512 -0.4628  0.3165
  512MOL0     C69043   3.381   1.094   2.029  0.0806  0.9775  0.7443
  512MOL0     O69044   3.477   1.154   1.952  0.2176  0.0219 -0.6817
  512MOL0     C69045   3.574   1.247   2.001  0.9179 -0.5509  0.5457
  512MOL0     C69046   3.669   1.186   2.100 -0.0588 -0.2931 -0.1191
  512MOL0     C69047   3.773   1.091   2.036  0.6144 -0.2103  0.4362
  512MOL0     C69048   3.858   1.026   2.139  0.1551 -0.4225  0.5286
  512MOL0     C69049   3.948   0.928   2.085 -0.5896  0.4150  0.3243
  512MOL0     C69050   4.032   0.865   2.029  0.1272 -0.0617  0.0306
  512MOL0     C69051   3.346   1.141   2.154  0.2980 -0.0958 -0.2548
  512MOL0     C69052   3.250   1.072   2.233  0.8396 -0.4985 -0.0959
  512MOL0     H69053   2.772   0.728   2.045 -2.0133 -1.5931 -0.5381
  512MOL0     H69054   2.570   0.642   2.133  0.4237 -2.4027 -0.2554
  512MOL0     H69055   2.530   0.623   2.582 -3.3677 -2.3777  0.8885
  512MOL0     H69056   2.479   0.776   2.513  0.4914 -0.6628 -0.8085
  512MOL0     H69057   2.257   0.661   2.465  2.7031  2.1444 -0.2700
  512MOL0     H69058   2.307   0.511   2.518 -2.4375  0.2061 -0.6569
  512MOL0     H69059   2.342   0.586   2.763 -0.4277 -1.2041 -0.6913
  512MOL0     H69060   2.303   0.753   2.696 -2.3274  0.6978 -0.8988
  512MOL0     H69061   2.117   0.657   2.818  2.1183  0.1758 -0.0876
  512MOL0     H69062   2.071   0.687   2.653 -3.4067 -1.7957  1.6152
  512MOL0     H69063   2.092   0.462   2.579  0.5126  0.3075 -0.3170
  512MOL0     H69064   2.157   0.404   2.742 -0.4577 -1.9126  0.4571
  512MOL0     H69065   1.918   0.338   2.716 -1.3747 -0.9043  0.7858
  512MOL0     H69066   1.912   0.474   2.834 -0.2736 -1.8687  0.1482
  512MOL0     H69067   1.866   0.638   2.686 -4.5993  0.4680 -0.0868
  512MOL0     H69068   1.889   0.526   2.540  0.5723  2.2928 -0.5739
  512MOL0     H69069   1.663   0.476   2.745 -1.9741 -1.1303 -1.4254
  512MOL0     H69070   1.685   0.403   2.591 -1.4570  0.8790 -0.4868
  512MOL0     H69071   1.625   0.509   2.358  2.0334  1.7807 -1.0473
  512MOL0     H69072   1.490   0.845   2.237  1.5416  0.9062 -2.3365
  512MOL0     H69073   1.574   0.693   2.177  1.7070  6.2077 -1.2171
  512MOL0     H69074   1.291   0.706   2.296 -0.0513 -2.5120  0.4804
  512MOL0     H69075   1.385   0.570   2.231  2.3727  0.2209  1.5694
  512MOL0     H69076   1.422   0.684   2.008 -1.5362 -2.7396 -1.0875
  512MOL0     H69077   1.314   0.815   2.076 -1.4780  0.2618 -1.4494
  512MOL0     H69078   1.130   0.660   2.078  1.7838  0.8786  1.9104
  512MOL0     H69079   1.228   0.525   2.053 -0.9843 -0.1639 -0.0857
  512MOL0     H69080   1.065   0.445   1.956  0.1915 -0.0334 -1.3200
  512MOL0     H69081   0.754   0.336   1.832 -1.3308  1.5135  2.7754
  512MOL0     H69082   0.883   0.221   1.830  0.5554 -0.2963  2.8982
  512MOL0     H69083   0.869   0.339   1.965  1.6513 -1.1692  0.6814
  512MOL0     H69084   0.895   0.516   1.183 -1.6312  2.4144  1.0139
  512MOL0     H69085   0.764   0.494   0.987  1.5826 -1.8827 -0.1104
  512MOL0     H69086   0.359   0.380   0.867  1.0646  3.0708  0.3041
  512MOL0     H69087   0.372   0.273   1.009  1.5595 -0.1883  1.6537
  512MOL0     H69088   0.186   0.456   1.029 -0.5713 -1.3522  1.7039
  512MOL0     H69089   0.306   0.469   1.154  0.3177 -4.5205 -0.7312
  512MOL0     H69090   0.399   0.669   1.031 -0.0663 -1.3039  0.4356
  512MOL0     H69091   0.239   0.670   1.087  0.3639  2.9578 -0.8654
  512MOL0     H69092   0.289   0.743   0.829  0.3083  0.5786  1.5200
  512MOL0     H69093   0.293   0.578   0.809  1.9955  1.1345  0.2710
  512MOL0     H69094   0.044   0.723   0.925 -0.8139  0.6691 -0.0275
  512MOL0     H69095   0.066   0.544   0.877  0.7814 -0.1354  2.5602
  512MOL0     H69096   0.045   0.645   0.627 -3.0609  0.5601 -0.9210
  512MOL0     H69097  -0.077   0.706   0.743  0.2800 -2.0446  3.2189
  512MOL0     H69098   0.175   0.873   0.708  0.6510 -0.7504 -0.7043
  512MOL0     H69099   0.014   0.911   0.760 -0.8447 -0.1702 -1.1078
  512MOL0     H69100   0.091   0.802   0.475  1.3581  0.3293  2.8288
  512MOL0     H69101   0.078   0.972   0.516  3.0744 -0.7729 -0.9809
  512MOL0     H69102   0.467   0.260   1.227  2.4940 -1.6333  2.3617
  512MOL0     H69103   0.624   0.264   1.405 -1.0098 -1.7746 -0.4318
  512MOL0     H69104   1.021   0.600   1.492  0.6518  2.7020  0.6309
  512MOL0     H69105   1.164   0.703   1.622  0.6048 -2.5854 -2.2002
  512MOL0     H69106   2.721   0.681   2.528 -3.9426  0.9899 -0.1208
  512MOL0     H69107   2.930   0.757   2.442 -0.8346 -2.4028  2.2137
  512MOL0     H69108   3.161   0.842   1.990  0.1997 -1.7181  3.8564
  512MOL0     H69109   3.346   0.931   1.886  0.8209  0.7287 -0.1005
  512MOL0     H69110   3.619   1.290   1.911 -0.8261  1.7547  0.6788
  512MOL0     H69111   3.533   1.340   2.042  4.7782  1.5308  0.0967
  512MOL0     H69112   3.614   1.142   2.183 -1.2986  0.8607 -0.3091
  512MOL0     H69113   3.728   1.273   2.132 -0.7937  0.7714 -1.5088
  512MOL0     H69114   3.841   1.147   1.971  0.8870 -2.1696 -1.0557
  512MOL0     H69115   3.710   1.023   1.976  0.4334 -0.2415  0.6606
  512MOL0     H69116   3.797   0.986   2.220 -0.5380 -0.9885 -0.2521
  512MOL0     H69117   3.933   1.091   2.185  0.7520 -1.8720  1.6727
  512MOL0     H69118   4.099   0.813   1.962 -1.4621 -0.7080 -1.1171
  512MOL0     H69119   3.409   1.221   2.190  2.6061 -2.7305  2.0780
  512MOL0     H69120   3.227   1.094   2.337  1.4628 -1.3974  0.2438
  513MOL0     O69121   2.435   9.399   4.057  0.2861 -0.2250  0.0777
  513MOL0     C69122   2.319   9.397   4.009 -0.0360  0.2191  0.4588
  513MOL0     O69123   2.269   9.342   3.888 -0.1430  0.2066 -0.0850
  513MOL0     C69124   2.348   9.284   3.798 -0.5142 -0.0803  0.3754
  513MOL0     C69125   2.487   9.267   3.799 -0.1385  0.6437 -0.4212
  513MOL0     C69126   2.555   9.206   3.697 -0.3269  0.1426 -0.2058
  513MOL0     C69127   2.490   9.182   3.579 -0.0433  0.4947  1.1560
  513MOL0     O69128   2.547   9.121   3.469  0.0455 -0.4605  0.5176
  513MOL0     C69129   2.507   9.167   3.337  0.1189 -0.1373  0.4440
  513MOL0     C69130   2.632   9.154   3.257  0.3876  0.8273  0.2300
  513MOL0     C69131   2.749   9.223   3.324  0.2405  0.5402 -0.4161
  513MOL0     C69132   2.718   9.361   3.368  0.0585 -0.0068  0.0105
  513MOL0     C69133   2.838   9.413   3.456 -0.4427  0.3581  0.4810
  513MOL0     C69134   2.817   9.549   3.527 -0.2226 -0.5659 -0.7655
  513MOL0     C69135   2.955   9.583   3.587 -0.2651  1.0494 -1.0573
  513MOL0     C69136   2.943   9.710   3.671 -0.1061  0.5241 -0.0645
  513MOL0     N69137   3.058   9.737   3.760 -0.3260  0.1783  1.0273
  513MOL0     C69138   3.055   9.790   3.886 -0.2842  0.7562  0.4433
  513MOL0     C69139   3.183   9.842   3.907 -0.8421  0.3556  0.1137
  513MOL0     C69140   3.228   9.907   4.037 -0.6360  0.2997 -0.3122
  513MOL0     C69141   3.167  10.046   4.071 -0.0900  0.3564 -0.2928
  513MOL0     C69142   3.234  10.167   4.006  1.0844  0.6933  0.0060
  513MOL0     C69143   3.190  10.300   4.072  0.0195 -0.5857  0.2626
  513MOL0     O69144   3.062  10.338   4.012  0.4588 -0.0482  0.0176
  513MOL0     C69145   3.006  10.452   4.066  0.9904 -0.2029 -0.0292
  513MOL0     C69146   2.891  10.493   3.988 -0.3349 -0.3077  0.2227
  513MOL0     C69147   2.824  10.608   4.028 -0.2174 -0.1429  0.1157
  513MOL0     C69148   2.718  10.649   3.936 -0.0693 -0.5295 -0.5272
  513MOL0     C69149   2.857  10.669   4.155  1.1017  1.5819  0.0894
  513MOL0     C69150   2.765  10.771   4.212  0.2998 -0.3438  0.0850
  513MOL0     O69151   2.797  10.798   4.338  0.4176  0.3539  0.2337
  513MOL0     C69152   2.749  10.916   4.395  0.5488 -0.3783 -0.1128
  513MOL0     C69153   2.828  11.017   4.425  0.6608  0.2556  0.4439
  513MOL0     C69154   2.777  11.137   4.476  0.1036  0.1122 -0.5926
  513MOL0     C69155   2.637  11.150   4.497  0.0286 -0.1705  0.0014
  513MOL0     O69156   2.564  11.261   4.552  0.0632 -0.4959  0.0051
  513MOL0     C69157   2.630  11.380   4.603 -0.1998 -0.7777  0.6833
  513MOL0     C69158   2.704  11.374   4.729 -0.8267 -0.6943 -0.9132
  513MOL0     C69159   2.775  11.510   4.755 -0.1883  0.6307 -0.9329
  513MOL0     C69160   2.901  11.548   4.673  0.0258  0.7398  0.3321
  513MOL0     C69161   2.956  11.686   4.703  0.1296 -0.0599 -0.3237
  513MOL0     C69162   2.848  11.796   4.699  0.2022 -0.3710 -0.1444
  513MOL0     C69163   2.919  11.927   4.706 -0.8052  0.8148  0.9400
  513MOL0     C69164   2.813  12.032   4.684  0.0598  0.6048  0.5282
  513MOL0    Cl69165   2.690  12.017   4.808  0.4455  0.4936 -0.5198
  513MOL0     C69166   2.555  11.044   4.473  0.8053  0.6757 -0.1575
  513MOL0     C69167   2.613  10.929   4.419 -0.1426  0.1324  0.4332
  513MOL0     O69168   2.686  10.832   4.147 -0.4526 -0.0956 -0.2872
  513MOL0     C69169   2.968  10.631   4.223  0.0146  0.1562  0.5262
  513MOL0     C69170   3.038  10.519   4.185 -0.7222  0.4070 -0.4247
  513MOL0     N69171   3.257   9.816   3.793 -0.4060 -0.2122  0.6720
  513MOL0     N69172   3.183   9.759   3.705  0.2226  0.6988  0.1021
  513MOL0     C69173   2.356   9.209   3.568  1.0011  0.2196  0.2771
  513MOL0     C69174   2.285   9.257   3.677  0.1325 -0.9396  0.0602
  513MOL0     C69175   2.219   9.472   4.090 -0.2775 -0.0537  0.3191
  513MOL0     C69176   2.251   9.533   4.214  0.4063 -0.1048  0.1899
  513MOL0     C69177   2.167   9.622   4.271  0.6800 -0.3315 -0.1770
  513MOL0     C69178   2.036   9.633   4.236 -0.6249 -0.1871  0.2680
  513MOL0     O69179   1.956   9.713   4.316 -0.0878  0.5060  0.4873
  513MOL0     C69180   1.816   9.710   4.298  0.4991 -0.4615  0.6497
  513MOL0     C69181   1.755   9.812   4.402 -0.7694  0.1361 -0.5266
  513MOL0     C69182   1.602   9.848   4.408  0.8596  0.4778  0.5093
  513MOL0     C69183   1.568   9.961   4.510  0.7493  0.2324 -0.0466
  513MOL0     C69184   1.637  10.080   4.478 -0.9441 -0.5522 -0.1498
  513MOL0     C69185   1.691  10.188   4.473  0.5284 -0.4756  0.5943
  513MOL0     C69186   1.994   9.565   4.120 -0.6726  0.9724  0.7683
  513MOL0     C69187   2.084   9.492   4.044 -0.3606 -0.0150  0.0501
  513MOL0     H69188   2.541   9.284   3.891  0.4377 -0.0695 -0.6117
  513MOL0     H69189   2.663   9.196   3.701 -0.1326 -0.2606 -3.3937
  513MOL0     H69190   2.426   9.099   3.308  1.0403 -0.4575 -1.5743
  513MOL0     H69191   2.469   9.268   3.323 -0.0068 -0.1657  0.5729
  513MOL0     H69192   2.646   9.049   3.228 -2.8756  0.4858 -0.5308
  513MOL0     H69193   2.619   9.203   3.160 -2.3226 -1.5551 -0.7374
  513MOL0     H69194   2.786   9.172   3.413 -2.8444  0.7513  1.1138
  513MOL0     H69195   2.824   9.230   3.245 -0.9358  2.3817 -1.4412
  513MOL0     H69196   2.704   9.421   3.277  3.2863  0.5156 -0.2541
  513MOL0     H69197   2.628   9.374   3.428 -0.6576 -0.9415 -0.8321
  513MOL0     H69198   2.841   9.340   3.537  3.9717 -0.8794 -0.5367
  513MOL0     H69199   2.919   9.415   3.382 -0.5723 -0.2488  0.3179
  513MOL0     H69200   2.787   9.624   3.454 -4.3451 -2.3735 -1.2050
  513MOL0     H69201   2.740   9.547   3.605  0.4369  2.2501  0.0833
  513MOL0     H69202   2.990   9.499   3.648 -3.1131  0.2537 -0.3404
  513MOL0     H69203   3.020   9.591   3.499 -0.0428 -1.2729 -1.1563
  513MOL0     H69204   2.859   9.698   3.740  1.0582 -2.5980  1.0080
  513MOL0     H69205   2.925   9.796   3.607 -0.0065  0.8252  0.3085
  513MOL0     H69206   2.979   9.782   3.964  1.8450 -1.6768  2.4513
  513MOL0     H69207   3.195   9.839   4.115 -1.4184  1.8601  0.7736
  513MOL0     H69208   3.336   9.920   4.025 -0.4976  1.4832  1.7574
  513MOL0     H69209   3.192  10.065   4.175  1.8187  1.1493 -0.8556
  513MOL0     H69210   3.060  10.049   4.049  0.4188 -0.8653 -3.6180
  513MOL0     H69211   3.200  10.152   3.903  2.8017 -4.6177 -0.0954
  513MOL0     H69212   3.341  10.147   3.995  0.6750 -3.4259  1.6601
  513MOL0     H69213   3.257  10.382   4.047 -0.1428 -0.0001  1.6403
  513MOL0     H69214   3.183  10.301   4.181  0.0611  0.0186  0.2660
  513MOL0     H69215   2.857  10.429   3.907 -1.1137 -0.9927  1.0647
  513MOL0     H69216   2.615  10.651   3.973 -0.9144  2.1990 -2.7285
  513MOL0     H69217   2.738  10.755   3.919  2.3754 -0.9728 -0.7792
  513MOL0     H69218   2.704  10.594   3.843 -4.1725  1.4031 -1.3010
  513MOL0     H69219   2.936  11.015   4.414  0.8021 -5.3682  0.1478
  513MOL0     H69220   2.840  11.223   4.496  1.1387 -1.2135  2.3369
  513MOL0     H69221   2.690  11.425   4.524 -2.7716  0.8302 -0.4811
  513MOL0     H69222   2.560  11.461   4.627 -0.2884 -1.4997  3.1017
  513MOL0     H69223   2.640  11.350   4.815  0.9806 -0.4586  0.5906
  513MOL0     H69224   2.784  11.299   4.722 -1.7974 -1.8253 -0.2045
  513MOL0     H69225   2.798  11.511   4.862 -1.5207 -0.1947 -0.6093
  513MOL0     H69226   2.702  11.592   4.755  0.4373  1.3054  1.9216
  513MOL0     H69227   2.970  11.470   4.707  1.0964 -0.1765 -3.5268
  513MOL0     H69228   2.890  11.521   4.568  1.5217  2.6019 -0.3685
  513MOL0     H69229   3.029  11.699   4.622  1.2148 -2.1573  0.2415
  513MOL0     H69230   3.008  11.689   4.799 -3.4341 -0.6985  1.8141
  513MOL0     H69231   2.782  11.795   4.611  0.0605  1.5883 -0.1076
  513MOL0     H69232   2.782  11.785   4.785 -1.9306  2.5101 -1.2540
  513MOL0     H69233   2.989  11.930   4.622 -0.8507  1.5235  0.9190
  513MOL0     H69234   2.981  11.938   4.796  1.6203 -2.4223 -0.1375
  513MOL0     H69235   2.767  12.029   4.586 -1.0744 -3.2305  0.9927
  513MOL0     H69236   2.854  12.133   4.679 -3.7232  2.2077 -0.9487
  513MOL0     H69237   2.448  11.053   4.484  0.3321  0.8086 -3.6783
  513MOL0     H69238   2.550  10.851   4.377  1.7268 -2.3886  1.9823
  513MOL0     H69239   2.994  10.695   4.307 -2.1114  4.8256 -1.9923
  513MOL0     H69240   3.113  10.481   4.254 -1.6085  0.7192  0.7478
  513MOL0     H69241   2.302   9.193   3.475  1.0943 -0.2230  0.2982
  513MOL0     H69242   2.177   9.269   3.675  0.0132 -1.9863 -0.7523
  513MOL0     H69243   2.353   9.538   4.251  0.4108 -2.0156  0.5499
  513MOL0     H69244   2.197   9.677   4.359  0.9527 -2.4904  1.1537
  513MOL0     H69245   1.781   9.742   4.199 -0.2457 -0.9421  0.7493
  513MOL0     H69246   1.783   9.608   4.317  0.2812 -0.3990  0.6044
  513MOL0     H69247   1.812   9.905   4.398 -1.7404  1.0374  2.9283
  513MOL0     H69248   1.778   9.763   4.497 -1.8149  0.6687  0.0299
  513MOL0     H69249   1.541   9.762   4.438  0.8514 -0.0487 -0.9634
  513MOL0     H69250   1.559   9.868   4.309  0.5205  0.0908  0.5784
  513MOL0     H69251   1.599   9.936   4.612  0.6357 -0.1545 -0.1064
  513MOL0     H69252   1.461   9.985   4.513  1.0171  1.6643 -1.0520
  513MOL0     H69253   1.744  10.280   4.487  1.1067 -0.8362  0.8440
  513MOL0     H69254   1.894   9.553   4.080  0.7060 -1.9310 -2.3457
  513MOL0     H69255   2.048   9.447   3.952 -2.7094  0.5186  0.6231
  514MOL0     O69256   6.383   8.430   0.860  0.1920 -0.8918 -1.0125
  514MOL0     C69257   6.449   8.406   0.758 -0.4141 -0.2195 -0.1088
  514MOL0     O69258   6.441   8.302   0.680  0.3206  0.3524  0.2115
  514MOL0     C69259   6.352   8.195   0.695  0.2088 -0.8496 -0.7966
  514MOL0     C69260   6.283   8.154   0.812 -0.2221  0.8870 -0.4835
  514MOL0     C69261   6.196   8.040   0.802 -0.1480  0.7547 -0.6236
  514MOL0     C69262   6.168   7.983   0.676 -0.2330  0.3597  0.1915
  514MOL0     O69263   6.077   7.887   0.651 -0.3324 -0.3138 -0.5975
  514MOL0     C69264   6.003   7.828   0.755  0.4350  0.1883 -0.4446
  514MOL0     C69265   6.029   7.677   0.740  0.2931 -0.2152 -1.4346
  514MOL0     C69266   5.946   7.613   0.626 -1.1165 -0.7114  0.0599
  514MOL0     C69267   6.029   7.604   0.485 -0.4004  0.3597 -0.6657
  514MOL0     C69268   5.951   7.534   0.371  0.3871 -0.0597  0.1748
  514MOL0     C69269   5.811   7.601   0.342 -0.7648  0.0820 -0.2571
  514MOL0     C69270   5.789   7.656   0.204 -0.0284  0.3220 -0.6622
  514MOL0     C69271   5.879   7.774   0.174  0.0513  0.4896  0.6949
  514MOL0     N69272   5.827   7.910   0.221  0.4174 -0.2517  0.6269
  514MOL0     C69273   5.882   7.985   0.323 -0.1574  1.2739  0.2080
  514MOL0     C69274   5.790   8.094   0.331 -0.2853  0.5833 -0.4799
  514MOL0     C69275   5.802   8.193   0.443 -0.8264 -0.6777 -0.5666
  514MOL0     C69276   5.898   8.304   0.402 -0.2926 -0.4930 -0.1322
  514MOL0     C69277   6.042   8.272   0.356  0.0229 -0.4218  0.1733
  514MOL0     C69278   6.161   8.379   0.377 -0.5744 -0.1319  0.3682
  514MOL0     O69279   6.284   8.331   0.315  0.0788 -0.1558 -0.0104
  514MOL0     C69280   6.380   8.421   0.287 -0.3125  0.2930 -0.7123
  514MOL0     C69281   6.378   8.557   0.322  0.5709 -0.0393  0.0075
  514MOL0     C69282   6.479   8.645   0.292 -0.2910 -1.1634 -0.4877
  514MOL0     C69283   6.466   8.787   0.340  0.7846  0.3567 -0.6077
  514MOL0     C69284   6.594   8.595   0.221 -0.0659  0.5810 -0.0529
  514MOL0     C69285   6.704   8.674   0.179  0.1018 -0.3192  0.1873
  514MOL0     O69286   6.731   8.794   0.236  0.4670  0.9889  0.0298
  514MOL0     C69287   6.816   8.884   0.175 -1.1994 -0.0021  0.0968
  514MOL0     C69288   6.780   8.961   0.062  0.4988 -0.6967 -0.3956
  514MOL0     C69289   6.862   9.066   0.023  0.7702 -0.4331  0.5852
  514MOL0     C69290   6.977   9.106   0.086 -0.8325  0.5577  0.4714
  514MOL0     O69291   7.047   9.215   0.033  0.2088 -0.5985 -0.4299
  514MOL0     C69292   7.150   9.283   0.113 -0.3275  0.8712 -0.2296
  514MOL0     C69293   7.147   9.427   0.105  0.7398 -0.4187 -0.3286
  514MOL0     C69294   7.187   9.480  -0.032  0.2365 -0.3051  0.8951
  514MOL0     C69295   7.220   9.629  -0.025 -0.0170 -0.2953 -0.6768
  514MOL0     C69296   7.229   9.695  -0.168  0.5848 -0.2262 -0.3149
  514MOL0     C69297   7.351   9.652  -0.242 -0.4827 -0.0651  0.2261
  514MOL0     C69298   7.375   9.729  -0.376  1.0048  0.3157 -0.9381
  514MOL0     C69299   7.390   9.878  -0.344 -0.4605 -0.9248 -0.7631
  514MOL0    Cl69300   7.448   9.986  -0.479  0.3723 -0.4347  0.1972
  514MOL0     C69301   7.029   9.009   0.174 -1.4220  0.5773  0.4144
  514MOL0     C69302   6.948   8.907   0.226 -0.1101  0.5759 -0.2649
  514MOL0     O69303   6.740   8.641   0.067 -1.3730 -0.3547  0.0069
  514MOL0     C69304   6.600   8.459   0.193 -0.0606  0.2235 -1.0341
  514MOL0     C69305   6.496   8.376   0.222 -0.3218 -0.4344  0.5804
  514MOL0     N69306   5.692   8.077   0.236  0.4863  0.1640 -0.6208
  514MOL0     N69307   5.712   7.963   0.178  0.8801  0.9505 -0.2142
  514MOL0     C69308   6.237   8.029   0.560  0.9339 -0.6687 -0.5436
  514MOL0     C69309   6.338   8.122   0.574 -0.0484 -0.4844 -0.6051
  514MOL0     C69310   6.575   8.480   0.737  0.1282 -0.6553 -0.1795
  514MOL0     C69311   6.638   8.545   0.848  0.6805  0.3180  0.0567
  514MOL0     C69312   6.740   8.633   0.821  0.2535  0.8888  1.0017
  514MOL0     C69313   6.777   8.662   0.686  0.1055 -0.1724 -0.1546
  514MOL0     O69314   6.869   8.762   0.673 -0.0914  0.2315  0.1816
  514MOL0     C69315   6.864   8.841   0.555  0.5769  0.0354 -0.9895
  514MOL0     C69316   6.759   8.953   0.579 -0.7108 -1.2474  0.5437
  514MOL0     C69317   6.774   9.081   0.474  0.0507 -1.0503 -0.0092
  514MOL0     C69318   6.917   9.133   0.495  0.4738 -0.8293 -0.3402
  514MOL0     C69319   6.926   9.271   0.456 -0.9692  0.2023  0.0235
  514MOL0     C69320   6.920   9.389   0.424  0.5139  0.8685  0.2285
  514MOL0     C69321   6.716   8.594   0.581 -0.0028 -0.4835 -0.6538
  514MOL0     C69322   6.622   8.494   0.605 -0.0347 -0.5888  0.0040
  514MOL0     H69323   6.316   8.188   0.909  0.0487 -1.1500  0.1917
  514MOL0     H69324   6.156   8.004   0.896 -1.3581  1.8533 -0.6848
  514MOL0     H69325   6.049   7.844   0.853  2.4059  1.9746 -1.5709
  514MOL0     H69326   5.898   7.852   0.742  0.2372 -1.2606 -1.8629
  514MOL0     H69327   6.136   7.662   0.729  0.3027 -0.1225 -1.4626
  514MOL0     H69328   5.991   7.628   0.831 -1.3321  2.6078 -0.4374
  514MOL0     H69329   5.930   7.510   0.658 -4.2325  0.0580  1.3369
  514MOL0     H69330   5.843   7.650   0.618 -1.1397 -1.0613 -1.7046
  514MOL0     H69331   6.065   7.705   0.466  0.7683 -0.2719 -2.0748
  514MOL0     H69332   6.122   7.548   0.504 -0.8459  0.3111  1.6696
  514MOL0     H69333   6.000   7.545   0.274 -0.1566 -1.5447 -0.2980
  514MOL0     H69334   5.926   7.428   0.387 -1.3598  0.1244 -1.1155
  514MOL0     H69335   5.729   7.533   0.366 -1.3090  0.8552  0.1395
  514MOL0     H69336   5.787   7.681   0.412  0.9463  0.7375 -0.3838
  514MOL0     H69337   5.809   7.576   0.133 -0.0024  0.3521 -0.6887
  514MOL0     H69338   5.682   7.675   0.208 -0.5991 -2.5800  1.8457
  514MOL0     H69339   5.900   7.782   0.067 -1.3436  0.3534  0.3938
  514MOL0     H69340   5.976   7.759   0.222 -0.4521  2.1402  2.3670
  514MOL0     H69341   5.959   7.956   0.394  2.6623  1.4847 -2.5507
  514MOL0     H69342   5.702   8.236   0.455 -0.3604 -0.0051  1.0788
  514MOL0     H69343   5.839   8.143   0.534  0.3453 -1.9762 -1.6965
  514MOL0     H69344   5.896   8.360   0.496 -0.6761 -0.9552  0.1373
  514MOL0     H69345   5.857   8.370   0.325 -1.7815 -1.9679 -0.6520
  514MOL0     H69346   6.031   8.250   0.249  1.4955 -4.1703  0.6220
  514MOL0     H69347   6.075   8.179   0.404  0.7554 -0.5685 -0.5827
  514MOL0     H69348   6.182   8.381   0.484  0.2954 -5.2967  0.5936
  514MOL0     H69349   6.133   8.474   0.331 -3.5739  0.9022  3.9093
  514MOL0     H69350   6.290   8.594   0.374 -1.3607 -1.4802 -2.0614
  514MOL0     H69351   6.378   8.808   0.403  3.1490  2.4748  2.2750
  514MOL0     H69352   6.552   8.796   0.406  1.0523  0.9541 -1.0283
  514MOL0     H69353   6.463   8.861   0.259  0.8701 -1.5898 -2.4538
  514MOL0     H69354   6.678   8.962   0.025  0.8916  2.8695 -1.7393
  514MOL0     H69355   6.837   9.140  -0.052 -1.1672 -0.9539  0.6476
  514MOL0     H69356   7.134   9.252   0.217 -0.5408  0.6062 -0.3399
  514MOL0     H69357   7.248   9.251   0.077 -1.0756 -2.3040  0.2369
  514MOL0     H69358   7.049   9.472   0.127 -0.7234 -2.1980 -2.7572
  514MOL0     H69359   7.228   9.464   0.168  1.0367  1.9164 -1.9527
  514MOL0     H69360   7.100   9.474  -0.098  2.1785  0.9547 -1.9879
  514MOL0     H69361   7.264   9.427  -0.089 -2.0469 -0.1462 -2.7017
  514MOL0     H69362   7.157   9.689   0.042  1.3904 -0.0322  0.4690
  514MOL0     H69363   7.320   9.637   0.019  1.4128 -1.4693 -3.4757
  514MOL0     H69364   7.209   9.803  -0.159 -2.3074 -0.8461  2.5278
  514MOL0     H69365   7.150   9.659  -0.235  1.1371  0.9813 -1.6756
  514MOL0     H69366   7.436   9.676  -0.178 -0.5002  0.0559  0.2021
  514MOL0     H69367   7.343   9.546  -0.270 -0.5981  0.5166 -2.1290
  514MOL0     H69368   7.292   9.717  -0.447  0.5722 -0.8786 -0.2554
  514MOL0     H69369   7.466   9.687  -0.419  0.5108  0.4323 -2.1406
  514MOL0     H69370   7.470   9.895  -0.272 -0.3436  2.3123 -1.4939
  514MOL0     H69371   7.293   9.919  -0.316  0.5905  2.9604 -2.0922
  514MOL0     H69372   7.132   9.023   0.206 -0.9736 -0.0721 -0.6728
  514MOL0     H69373   6.982   8.837   0.302  0.6436  0.2896 -0.8601
  514MOL0     H69374   6.684   8.409   0.143  0.1093 -0.1839 -0.3613
  514MOL0     H69375   6.493   8.274   0.184 -0.6881 -0.9039  1.8069
  514MOL0     H69376   6.218   7.979   0.465  1.5741 -1.6562 -0.1635
  514MOL0     H69377   6.397   8.162   0.492  1.4812  3.5631  2.1280
  514MOL0     H69378   6.609   8.525   0.951  2.7748 -3.8961  0.0754
  514MOL0     H69379   6.796   8.684   0.899  2.8476  0.4367 -0.4842
  514MOL0     H69380   6.962   8.889   0.563  0.7572 -0.6170  2.8350
  514MOL0     H69381   6.843   8.789   0.461 -3.5267 -0.1935 -0.1253
  514MOL0     H69382   6.768   8.995   0.680 -2.5715 -2.3675  1.2080
  514MOL0     H69383   6.659   8.909   0.574 -0.6733 -1.4805  1.6236
  514MOL0     H69384   6.700   9.147   0.519  1.5001 -1.0300  2.5441
  514MOL0     H69385   6.748   9.061   0.370  0.3436 -0.4614 -0.1997
  514MOL0     H69386   6.987   9.072   0.437  1.8616 -0.7768  1.2036
  514MOL0     H69387   6.955   9.126   0.598  1.0786  0.1181 -0.4843
  514MOL0     H69388   6.938   9.482   0.373  2.0885 -0.3845 -1.6468
  514MOL0     H69389   6.752   8.611   0.480  2.1863 -0.1811  0.1372
  514MOL0     H69390   6.601   8.437   0.515  2.5130  0.4077 -1.3194
  515MOL0     O69391   7.270  10.227   7.066  0.8832 -0.4156 -0.1833
  515MOL0     C69392   7.273  10.173   7.174  0.1782 -0.5212  0.5470
  515MOL0     O69393   7.354  10.218   7.273 -0.1344 -0.4563 -0.0970
  515MOL0     C69394   7.358  10.355   7.285 -0.2073  0.3756 -0.4236
  515MOL0     C69395   7.447  10.400   7.385  0.0740  0.2963 -0.3161
  515MOL0     C69396   7.465  10.531   7.418 -0.3308 -0.1708  0.2684
  515MOL0     C69397   7.398  10.630   7.347 -0.4652  0.0756  0.0389
  515MOL0     O69398   7.420  10.756   7.377  0.3761  0.6365  0.9823
  515MOL0     C69399   7.296  10.826   7.413  0.0453  0.6344 -0.2590
  515MOL0     C69400   7.323  10.949   7.511 -0.0271 -0.1503 -0.0393
  515MOL0     C69401   7.194  11.039   7.535 -0.0512 -0.9041  0.4239
  515MOL0     C69402   7.230  11.173   7.603  0.4882  1.1186  0.3178
  515MOL0     C69403   7.192  11.299   7.519  0.3481  0.0791 -0.4554
  515MOL0     C69404   7.273  11.426   7.553  0.6151 -0.3524 -0.2574
  515MOL0     C69405   7.192  11.554   7.519  0.0961 -0.4831 -0.2584
  515MOL0     C69406   7.256  11.678   7.582  0.4795 -0.5128 -0.5637
  515MOL0     N69407   7.389  11.716   7.538 -0.3230  0.0443 -0.1733
  515MOL0     C69408   7.483  11.794   7.603  0.9640  0.4111  0.0221
  515MOL0     C69409   7.588  11.804   7.521  0.0055 -0.0488  0.7619
  515MOL0     C69410   7.733  11.856   7.557  0.6870 -0.0643  0.0904
  515MOL0     C69411   7.765  11.991   7.509 -0.5205  0.1482 -0.5485
  515MOL0     C69412   7.774  12.006   7.363  0.5240  0.6206 -0.2946
  515MOL0     C69413   7.808  12.145   7.316 -0.7890  1.1319  0.1322
  515MOL0     O69414   7.779  12.162   7.170  0.0379 -0.0631 -0.6009
  515MOL0     C69415   7.733  12.281   7.122  1.0629  0.0993 -0.9323
  515MOL0     C69416   7.758  12.404   7.191 -0.3375 -0.5132  0.3974
  515MOL0     C69417   7.714  12.528   7.152 -0.3052 -0.1626 -0.6312
  515MOL0     C69418   7.718  12.648   7.243  0.8344  0.4648  0.2667
  515MOL0     C69419   7.654  12.543   7.022  0.1937 -0.5625 -0.1202
  515MOL0     C69420   7.606  12.672   6.954 -0.5254 -0.6074  0.1136
  515MOL0     O69421   7.615  12.790   7.022  0.1631  0.4345 -0.0977
  515MOL0     C69422   7.523  12.887   6.995 -0.5909  0.0257 -0.4229
  515MOL0     C69423   7.407  12.868   6.926  0.1064  0.3637 -0.6642
  515MOL0     C69424   7.327  12.985   6.908 -0.7540 -0.2093  0.3209
  515MOL0     C69425   7.355  13.100   6.974 -0.6939  0.5002 -0.9731
  515MOL0     O69426   7.279  13.210   6.978  0.7994  0.2406 -0.9819
  515MOL0     C69427   7.301  13.301   6.871 -0.3306 -0.0865 -0.0623
  515MOL0     C69428   7.160  13.363   6.836 -0.7298 -0.1675  0.6964
  515MOL0     C69429   7.072  13.261   6.761  0.0525 -0.2049 -0.2609
  515MOL0     C69430   7.116  13.266   6.607 -0.1447  1.1034  0.7064
  515MOL0     C69431   7.065  13.165   6.505  0.2556  0.4488 -0.8993
  515MOL0     C69432   7.072  13.023   6.544  0.1699  0.0685  0.1475
  515MOL0     C69433   7.077  12.912   6.431  1.2097 -0.3532  0.0950
  515MOL0     C69434   6.962  12.928   6.339  0.2419  0.6002 -0.1383
  515MOL0    Cl69435   6.797  12.935   6.433 -0.5207  0.1662  0.5020
  515MOL0     C69436   7.465  13.114   7.050  0.2472 -0.4505 -0.2852
  515MOL0     C69437   7.551  13.006   7.056 -0.1838  0.5692  0.3191
  515MOL0     O69438   7.580  12.667   6.833  0.1652  0.5600 -0.2967
  515MOL0     C69439   7.631  12.421   6.944  0.0173 -0.1449  0.2330
  515MOL0     C69440   7.668  12.297   6.999  0.4871 -0.1183  0.5047
  515MOL0     N69441   7.550  11.741   7.402  0.0323  1.1691  0.0360
  515MOL0     N69442   7.433  11.692   7.415 -0.2884  0.2734 -0.2470
  515MOL0     C69443   7.300  10.588   7.260  0.4306  0.1894  0.6070
  515MOL0     C69444   7.284  10.458   7.218  0.5058  0.0908  0.1055
  515MOL0     C69445   7.209  10.036   7.177  0.2219 -0.4778 -0.4698
  515MOL0     C69446   7.126   9.986   7.067 -0.1978  0.4746  0.8649
  515MOL0     C69447   7.064   9.859   7.071 -0.2638  0.0185  0.8812
  515MOL0     C69448   7.086   9.780   7.184  0.3335 -0.7550 -0.9969
  515MOL0     O69449   7.018   9.663   7.179  0.0459 -0.1158  0.2496
  515MOL0     C69450   7.074   9.548   7.225 -0.3257  0.6588  0.6290
  515MOL0     C69451   7.014   9.516   7.362 -0.5159  0.7681 -0.8581
  515MOL0     C69452   7.099   9.423   7.444 -1.1093  0.1080 -0.6626
  515MOL0     C69453   7.102   9.273   7.416 -0.2780 -0.5767  0.1612
  515MOL0     C69454   6.966   9.222   7.434 -0.8997 -0.6742 -0.0617
  515MOL0     C69455   6.854   9.188   7.441  0.4153  0.5306  0.4121
  515MOL0     C69456   7.159   9.827   7.293 -0.6440  0.4214  0.1314
  515MOL0     C69457   7.216   9.951   7.287 -0.1814 -0.4660 -0.2010
  515MOL0     H69458   7.501  10.329   7.446  0.5700 -0.6968 -1.8498
  515MOL0     H69459   7.551  10.546   7.483 -2.0175  0.1756  2.5322
  515MOL0     H69460   7.253  10.852   7.315  1.4323 -0.0901 -1.0956
  515MOL0     H69461   7.225  10.764   7.469  0.6341 -0.6992 -0.9450
  515MOL0     H69462   7.364  10.926   7.609 -0.1022  1.1660  0.3243
  515MOL0     H69463   7.407  11.000   7.463 -0.3242  0.3566 -0.0323
  515MOL0     H69464   7.147  11.057   7.438 -1.5895  2.2076  1.5801
  515MOL0     H69465   7.122  10.976   7.589  1.8396 -1.8657  1.9450
  515MOL0     H69466   7.189  11.186   7.704  0.1477  1.7650  0.1000
  515MOL0     H69467   7.339  11.178   7.609  0.4865  4.0857 -0.6625
  515MOL0     H69468   7.199  11.272   7.413 -2.3161 -1.8669 -0.2536
  515MOL0     H69469   7.082  11.301   7.522  0.3057  2.0372 -1.6424
  515MOL0     H69470   7.302  11.411   7.658  0.7342 -3.4083 -0.6147
  515MOL0     H69471   7.366  11.434   7.496  0.9854  1.7130  0.5743
  515MOL0     H69472   7.186  11.567   7.410  0.3909  2.2167 -0.0092
  515MOL0     H69473   7.088  11.546   7.551  0.1572 -1.5570 -0.2833
  515MOL0     H69474   7.267  11.670   7.691  1.6115 -3.9885 -0.8069
  515MOL0     H69475   7.205  11.774   7.572  1.9266  0.1325 -2.5436
  515MOL0     H69476   7.465  11.834   7.702 -1.5808 -0.2385 -0.1085
  515MOL0     H69477   7.732  11.861   7.666  0.6100 -1.6107  0.1766
  515MOL0     H69478   7.805  11.776   7.535 -0.2958 -0.7536 -0.6983
  515MOL0     H69479   7.857  12.020   7.561 -2.3331  0.6293  2.6113
  515MOL0     H69480   7.696  12.067   7.546  0.0073 -0.0154  0.8065
  515MOL0     H69481   7.679  11.966   7.328  1.1075 -0.3183 -0.8466
  515MOL0     H69482   7.849  11.940   7.319  0.4016  0.7264 -0.6688
  515MOL0     H69483   7.916  12.163   7.322 -0.1659 -1.2292 -2.4139
  515MOL0     H69484   7.754  12.223   7.371  0.4277  1.9039  0.2705
  515MOL0     H69485   7.816  12.390   7.281  3.3083 -0.1534 -1.7195
  515MOL0     H69486   7.749  12.618   7.344 -1.0195 -0.1936  0.6825
  515MOL0     H69487   7.790  12.720   7.205 -2.2962  4.4021  1.1872
  515MOL0     H69488   7.620  12.693   7.258  0.7045  0.4925 -0.6496
  515MOL0     H69489   7.376  12.777   6.875  1.3917 -0.1718 -0.5240
  515MOL0     H69490   7.239  12.969   6.848  0.5885 -6.1918 -0.7017
  515MOL0     H69491   7.366  13.380   6.910  1.4836 -0.2514 -2.5192
  515MOL0     H69492   7.348  13.259   6.782  0.0175 -1.0476  0.5601
  515MOL0     H69493   7.118  13.384   6.935  2.3066 -1.9012  2.5419
  515MOL0     H69494   7.176  13.464   6.797 -3.6056  0.4331  0.8395
  515MOL0     H69495   6.967  13.290   6.772 -0.5340 -1.0695 -2.7966
  515MOL0     H69496   7.085  13.161   6.802 -0.5343  0.1683  0.8862
  515MOL0     H69497   7.103  13.364   6.561  2.1802  3.1210  4.0048
  515MOL0     H69498   7.224  13.254   6.602 -0.3454 -0.8169 -0.0912
  515MOL0     H69499   7.121  13.184   6.413  0.3272 -1.3855 -1.2666
  515MOL0     H69500   6.958  13.178   6.489 -0.2702 -0.5945  1.4582
  515MOL0     H69501   7.165  13.017   6.601  1.2469 -1.1329 -1.6277
  515MOL0     H69502   6.985  12.997   6.605 -1.1334  2.0747 -0.7481
  515MOL0     H69503   7.079  12.811   6.473 -3.1357 -0.8300 -0.4222
  515MOL0     H69504   7.169  12.923   6.372  1.9311 -0.0877  1.2267
  515MOL0     H69505   6.963  12.848   6.264  1.2286  1.5438 -1.1824
  515MOL0     H69506   6.966  13.022   6.283 -1.3554  0.3537 -0.7021
  515MOL0     H69507   7.486  13.214   7.086 -3.0922  0.4934 -0.6380
  515MOL0     H69508   7.638  13.017   7.120  1.6462  0.3362 -1.9691
  515MOL0     H69509   7.586  12.424   6.845  0.2395 -2.9361 -0.0244
  515MOL0     H69510   7.635  12.204   6.953  1.6404 -0.8805  1.1524
  515MOL0     H69511   7.247  10.661   7.198  0.0717 -1.4180 -1.0781
  515MOL0     H69512   7.208  10.430   7.145  1.1146 -0.3437 -0.3756
  515MOL0     H69513   7.136  10.016   6.963  0.5966  0.6166  0.9783
  515MOL0     H69514   7.013   9.813   6.987  0.6660 -0.8423  0.7620
  515MOL0     H69515   7.034   9.471   7.158 -2.7773  2.0112  0.4064
  515MOL0     H69516   7.183   9.552   7.231 -0.1946 -0.0531 -0.8244
  515MOL0     H69517   6.920   9.461   7.352  0.3358 -0.5038 -2.0878
  515MOL0     H69518   6.994   9.612   7.412  4.7811  0.9487  1.5735
  515MOL0     H69519   7.054   9.434   7.543 -0.6682 -0.8057 -0.3491
  515MOL0     H69520   7.202   9.458   7.452 -0.7518 -1.1304  0.5667
  515MOL0     H69521   7.175   9.216   7.475 -0.4891 -1.0421 -0.0250
  515MOL0     H69522   7.131   9.265   7.311 -1.2485  1.3656 -0.2993
  515MOL0     H69523   6.759   9.144   7.422 -0.2406  2.9546 -2.8914
  515MOL0     H69524   7.153   9.761   7.379  0.0040  0.0920 -0.0674
  515MOL0     H69525   7.262   9.982   7.380 -0.3749  0.8481 -0.5225
  516MOL0     O69526   7.120   1.569   4.905 -0.3037 -0.4712 -1.1006
  516MOL0     C69527   7.124   1.628   4.795  0.1002 -0.0508  0.0105
  516MOL0     O69528   7.222   1.707   4.752  0.4926  0.2719 -0.6157
  516MOL0     C69529   7.342   1.696   4.811 -0.6157  0.8529 -0.0524
  516MOL0     C69530   7.410   1.572   4.825  0.3327  0.3355  0.2008
  516MOL0     C69531   7.535   1.565   4.882  0.0980  0.3640  0.8407
  516MOL0     C69532   7.596   1.679   4.931  0.1324 -0.4233 -0.0418
  516MOL0     O69533   7.709   1.674   5.003 -0.2128  0.0256  0.3253
  516MOL0     C69534   7.813   1.566   4.987  0.6965  1.1064 -0.2454
  516MOL0     C69535   7.901   1.588   4.854  0.5302  0.6416 -0.1659
  516MOL0     C69536   7.953   1.737   4.861 -0.0429 -0.1872  0.4122
  516MOL0     C69537   8.047   1.759   4.745  0.4668 -0.2869  0.0959
  516MOL0     C69538   8.137   1.878   4.773 -0.2082  0.2692 -0.1472
  516MOL0     C69539   8.075   2.012   4.808 -0.0174  0.6490 -0.2504
  516MOL0     C69540   8.170   2.124   4.829 -0.3014 -1.0190 -0.5588
  516MOL0     C69541   8.096   2.247   4.886  0.1258  0.0772 -0.1811
  516MOL0     N69542   8.177   2.370   4.866 -0.6294  0.6485  1.1392
  516MOL0     C69543   8.262   2.425   4.955  0.1138 -0.1929  0.5020
  516MOL0     C69544   8.304   2.538   4.898 -0.4253 -0.8872  0.0690
  516MOL0     C69545   8.413   2.622   4.976 -0.4132 -1.2298  0.0591
  516MOL0     C69546   8.519   2.544   5.053 -0.0185  0.3663 -0.1773
  516MOL0     C69547   8.656   2.615   5.068  0.7037 -0.5691  0.5772
  516MOL0     C69548   8.772   2.525   5.122  0.2796  0.0431 -0.0995
  516MOL0     O69549   8.722   2.483   5.252  0.6675 -0.7390 -0.4237
  516MOL0     C69550   8.773   2.535   5.370 -0.0768 -0.5703  0.1332
  516MOL0     C69551   8.713   2.482   5.478  0.0013  0.3858  0.2667
  516MOL0     C69552   8.750   2.503   5.612  0.5417 -0.7230  0.4205
  516MOL0     C69553   8.686   2.427   5.729  0.6027 -0.4144 -1.1096
  516MOL0     C69554   8.857   2.591   5.642 -0.0940 -0.4702 -0.3165
  516MOL0     C69555   8.903   2.623   5.784  0.8343  0.5217  0.6048
  516MOL0     O69556   9.042   2.641   5.789  0.6161 -0.3712  0.5265
  516MOL0     C69557   9.110   2.631   5.906  0.4509  0.0515  0.2118
  516MOL0     C69558   9.197   2.729   5.945  0.3914 -0.2864 -0.7337
  516MOL0     C69559   9.260   2.721   6.074 -0.0224  0.4607 -0.4253
  516MOL0     C69560   9.235   2.626   6.166  0.0386 -0.2366  0.0393
  516MOL0     O69561   9.307   2.637   6.287  0.2763  0.1474 -0.7371
  516MOL0     C69562   9.295   2.519   6.364 -0.1339 -0.1349  1.6256
  516MOL0     C69563   9.382   2.537   6.487 -0.2936 -0.1704  0.3404
  516MOL0     C69564   9.373   2.409   6.566  1.0054  0.0197 -0.1613
  516MOL0     C69565   9.237   2.383   6.633 -0.5473  0.1562 -0.5044
  516MOL0     C69566   9.231   2.245   6.707 -0.6172 -0.5455  0.5900
  516MOL0     C69567   9.354   2.219   6.797  0.7603 -0.2349  0.0530
  516MOL0     C69568   9.344   2.095   6.887 -0.3719  0.0672  0.0560
  516MOL0     C69569   9.448   1.979   6.864 -0.1800  0.4579 -0.0813
  516MOL0    Cl69570   9.436   1.847   6.993  0.1871 -0.6633 -0.2951
  516MOL0     C69571   9.143   2.519   6.126  0.4223 -0.1428  0.0331
  516MOL0     C69572   9.093   2.518   5.990  0.6501 -0.1532 -0.1309
  516MOL0     O69573   8.830   2.645   5.880 -0.2306 -0.0337 -0.3917
  516MOL0     C69574   8.924   2.639   5.531 -0.2597  0.3502 -0.6191
  516MOL0     C69575   8.893   2.606   5.396 -0.5473  0.1429 -0.3056
  516MOL0     N69576   8.256   2.550   4.771 -0.0473  0.3521  0.4260
  516MOL0     N69577   8.170   2.458   4.759 -0.5231  0.1196 -0.0273
  516MOL0     C69578   7.518   1.802   4.937 -0.3952  0.6385  0.6453
  516MOL0     C69579   7.391   1.806   4.867 -0.2050  0.2475 -0.4260
  516MOL0     C69580   7.012   1.617   4.698  0.1005  0.1160 -0.0637
  516MOL0     C69581   7.019   1.663   4.569  0.2968  0.5136  0.7407
  516MOL0     C69582   6.916   1.652   4.474  0.5587  0.8232  0.4239
  516MOL0     C69583   6.798   1.598   4.524 -0.1850 -1.0520 -0.4211
  516MOL0     O69584   6.705   1.585   4.423 -0.2530 -0.3560  0.1678
  516MOL0     C69585   6.625   1.704   4.399 -0.2144 -0.4558 -0.0157
  516MOL0     C69586   6.521   1.720   4.504  0.3893  0.3675 -0.0327
  516MOL0     C69587   6.444   1.858   4.507 -0.0938  0.1735 -0.7521
  516MOL0     C69588   6.527   1.981   4.560 -0.3621 -0.5051 -1.1193
  516MOL0     C69589   6.626   1.963   4.669  0.6380 -0.3244 -0.4531
  516MOL0     C69590   6.710   1.959   4.751 -0.4828  0.0971 -0.2601
  516MOL0     C69591   6.787   1.549   4.655 -0.3132  0.4038  0.0402
  516MOL0     C69592   6.893   1.557   4.739  0.0006  0.7900  0.1725
  516MOL0     H69593   7.352   1.489   4.786 -1.1113  1.5584 -0.3374
  516MOL0     H69594   7.578   1.466   4.897 -2.1945 -0.9611 -0.7420
  516MOL0     H69595   7.876   1.561   5.076 -0.4483  0.4988  0.5656
  516MOL0     H69596   7.767   1.466   4.979 -1.8783  2.2995 -1.5363
  516MOL0     H69597   7.981   1.515   4.843 -0.2412 -0.9239  3.3624
  516MOL0     H69598   7.845   1.591   4.760  0.5147  1.9084 -0.1370
  516MOL0     H69599   7.874   1.813   4.865  0.1901  0.1659 -1.0454
  516MOL0     H69600   8.014   1.759   4.949 -1.6806  1.3519  1.2286
  516MOL0     H69601   8.104   1.667   4.729  0.7279 -0.9655  3.9871
  516MOL0     H69602   7.985   1.789   4.660 -0.8311 -1.8145  0.4572
  516MOL0     H69603   8.202   1.851   4.856 -0.2823 -1.3542 -0.5887
  516MOL0     H69604   8.203   1.898   4.688  1.9474 -2.1304  0.8423
  516MOL0     H69605   7.996   2.034   4.734 -0.3822 -2.0054 -0.7299
  516MOL0     H69606   8.024   1.995   4.903 -1.1631 -0.4104 -1.0213
  516MOL0     H69607   8.260   2.102   4.887 -0.4477  0.4187  0.2720
  516MOL0     H69608   8.205   2.155   4.730 -1.3984 -2.5423 -1.4772
  516MOL0     H69609   8.075   2.229   4.992 -0.2477  0.6873 -0.1442
  516MOL0     H69610   8.003   2.275   4.836  2.0794  2.6126 -2.7646
  516MOL0     H69611   8.284   2.380   5.051 -2.9378 -2.6473  0.2277
  516MOL0     H69612   8.462   2.689   4.905  0.5929 -3.2842 -1.2462
  516MOL0     H69613   8.361   2.698   5.035 -1.7891 -0.5859 -1.8787
  516MOL0     H69614   8.547   2.449   5.008 -0.7432  0.0981 -0.0728
  516MOL0     H69615   8.490   2.530   5.158  2.4260 -0.0025  0.5130
  516MOL0     H69616   8.637   2.712   5.115  0.9786  0.6548 -1.7115
  516MOL0     H69617   8.691   2.635   4.967 -2.4775 -2.6505 -1.0884
  516MOL0     H69618   8.870   2.573   5.128 -0.1941  0.8829  1.5371
  516MOL0     H69619   8.778   2.430   5.068 -3.3832 -1.2127  1.3983
  516MOL0     H69620   8.637   2.405   5.473  0.9775 -0.6584  1.0302
  516MOL0     H69621   8.629   2.342   5.689  0.2173 -0.1297 -1.1637
  516MOL0     H69622   8.756   2.387   5.804 -1.0426 -0.8842  0.2244
  516MOL0     H69623   8.624   2.499   5.783  2.5448 -0.1436  0.9179
  516MOL0     H69624   9.215   2.812   5.879  1.7235 -1.0729 -1.3935
  516MOL0     H69625   9.318   2.809   6.098  2.1306 -0.6097 -1.4330
  516MOL0     H69626   9.191   2.515   6.396  0.0942 -0.8710  2.3180
  516MOL0     H69627   9.307   2.422   6.316 -3.4871 -1.1617  2.6112
  516MOL0     H69628   9.484   2.556   6.454 -0.6624 -1.7043 -1.9410
  516MOL0     H69629   9.347   2.623   6.544 -1.9332 -2.2184  2.6132
  516MOL0     H69630   9.439   2.424   6.651  1.8746  0.2767 -0.8732
  516MOL0     H69631   9.404   2.324   6.505  0.2577  0.0445 -0.5922
  516MOL0     H69632   9.215   2.463   6.706  0.0663  0.9450 -1.1640
  516MOL0     H69633   9.154   2.383   6.562  0.5590  0.4463 -1.8295
  516MOL0     H69634   9.221   2.159   6.639 -2.5011 -0.3838  0.6300
  516MOL0     H69635   9.146   2.239   6.774  1.2231 -0.6057  3.0597
  516MOL0     H69636   9.438   2.198   6.730  2.2942 -1.1778  2.1499
  516MOL0     H69637   9.384   2.303   6.861 -0.1919 -0.1806  0.4423
  516MOL0     H69638   9.249   2.044   6.870 -2.3704  3.3134  0.6450
  516MOL0     H69639   9.340   2.134   6.990  1.7231  2.8224 -0.7594
  516MOL0     H69640   9.549   2.020   6.864 -1.6165  4.4188 -1.1430
  516MOL0     H69641   9.437   1.931   6.767  0.6116 -1.6180  0.7905
  516MOL0     H69642   9.098   2.442   6.187 -4.6857  0.6003 -2.2300
  516MOL0     H69643   9.031   2.436   5.957  2.7328 -2.2615  0.8782
  516MOL0     H69644   9.014   2.691   5.562 -0.7050 -0.4656  2.2949
  516MOL0     H69645   8.957   2.662   5.329 -0.3494  1.2592  0.7924
  516MOL0     H69646   7.553   1.893   4.985 -1.4117  1.9135 -0.9386
  516MOL0     H69647   7.337   1.895   4.835  0.2262 -0.1826 -2.5316
  516MOL0     H69648   7.107   1.719   4.541  0.7677 -0.3184  0.5095
  516MOL0     H69649   6.913   1.688   4.371 -0.4544 -2.5445 -0.8610
  516MOL0     H69650   6.679   1.800   4.395 -0.3346 -0.2683  1.8642
  516MOL0     H69651   6.580   1.693   4.300  2.5908 -0.1362 -1.4148
  516MOL0     H69652   6.566   1.709   4.603 -0.9992 -0.7341  0.5099
  516MOL0     H69653   6.450   1.642   4.477  1.3250 -0.8102  0.7933
  516MOL0     H69654   6.356   1.845   4.571 -0.7116  2.7741 -0.9405
  516MOL0     H69655   6.403   1.889   4.410 -1.2115 -0.8053 -0.6192
  516MOL0     H69656   6.465   2.063   4.598  0.9322 -0.8597  2.1217
  516MOL0     H69657   6.585   2.025   4.478  2.4020  1.9188  1.8373
  516MOL0     H69658   6.787   1.956   4.826  0.3304  0.3675 -1.0548
  516MOL0     H69659   6.701   1.497   4.697  0.6683 -2.1314 -0.8647
  516MOL0     H69660   6.884   1.520   4.841 -2.2158 -3.0326 -1.2095
  517MOL0     O69661   7.670  10.208  11.208  0.7775  0.4281 -0.8521
  517MOL0     C69662   7.713  10.287  11.291 -0.8473 -0.2990  0.2289
  517MOL0     O69663   7.725  10.271  11.429 -0.0397  0.0308 -0.8167
  517MOL0     C69664   7.656  10.179  11.503  0.5732 -0.1678 -0.5490
  517MOL0     C69665   7.699  10.159  11.632 -0.8612  0.4735 -0.7262
  517MOL0     C69666   7.621  10.079  11.720 -0.4795 -0.8400  0.2656
  517MOL0     C69667   7.503  10.020  11.680 -0.3885  0.9821  0.0619
  517MOL0     O69668   7.426   9.936  11.760 -0.2507  0.5791  0.0639
  517MOL0     C69669   7.452   9.916  11.900  0.2502 -0.3193 -0.4527
  517MOL0     C69670   7.336   9.866  11.973 -0.7025  0.3086 -0.1065
  517MOL0     C69671   7.254   9.753  11.914 -0.0518 -0.1919  0.2548
  517MOL0     C69672   7.129   9.725  11.991  0.2124 -0.1373 -0.7035
  517MOL0     C69673   7.169   9.640  12.114  0.0941  0.6268  0.0704
  517MOL0     C69674   7.048   9.587  12.198 -0.2284  0.4050  0.1298
  517MOL0     C69675   7.086   9.474  12.303 -0.2490  0.6249 -0.0775
  517MOL0     C69676   7.201   9.507  12.400  0.2265  0.4259 -0.8279
  517MOL0     N69677   7.222   9.419  12.520 -0.9202 -0.6712  0.9114
  517MOL0     C69678   7.160   9.433  12.643 -0.3070  0.8180 -0.1494
  517MOL0     C69679   7.225   9.338  12.726 -0.3705  0.4993  1.0493
  517MOL0     C69680   7.199   9.292  12.862  0.7764 -1.2902 -0.3796
  517MOL0     C69681   7.314   9.336  12.961  0.2009  0.3653  0.6612
  517MOL0     C69682   7.450   9.273  12.945  0.4992  0.0265  0.1456
  517MOL0     C69683   7.551   9.318  13.054  0.4099 -0.4288 -0.5022
  517MOL0     O69684   7.513   9.251  13.173 -0.4228  0.2542  0.3151
  517MOL0     C69685   7.604   9.255  13.272 -0.1506 -0.1282 -0.2462
  517MOL0     C69686   7.584   9.154  13.373  0.5903 -0.0667  0.3675
  517MOL0     C69687   7.658   9.143  13.485 -0.0757 -0.3532  0.2845
  517MOL0     C69688   7.615   9.048  13.599  0.3979 -0.7974  0.3156
  517MOL0     C69689   7.780   9.217  13.490 -0.2970  0.6151  0.2098
  517MOL0     C69690   7.893   9.192  13.587 -0.7058 -0.4800 -0.2348
  517MOL0     O69691   7.988   9.292  13.597  0.8880 -0.0865  0.8804
  517MOL0     C69692   8.102   9.290  13.665  0.7597  0.1382 -0.3964
  517MOL0     C69693   8.118   9.242  13.800 -0.4502  0.3414 -0.2486
  517MOL0     C69694   8.240   9.245  13.870  0.1250  0.5599  0.1656
  517MOL0     C69695   8.345   9.307  13.808 -0.9830 -0.0127  0.0919
  517MOL0     O69696   8.473   9.310  13.847 -0.2214  0.4806 -0.1175
  517MOL0     C69697   8.518   9.305  13.982 -0.1549  0.8278  0.3164
  517MOL0     C69698   8.623   9.202  13.981 -0.2768 -0.6051 -1.2352
  517MOL0     C69699   8.761   9.278  13.991 -0.3092 -0.7915  0.2665
  517MOL0     C69700   8.885   9.196  13.957  0.0698 -0.3035  0.0302
  517MOL0     C69701   9.020   9.262  14.013 -0.5195 -0.1350  0.5721
  517MOL0     C69702   9.147   9.164  14.011  0.4358 -0.3129 -0.0770
  517MOL0     C69703   9.146   9.068  14.136 -0.5388 -1.1681 -0.7603
  517MOL0     C69704   9.191   9.137  14.263  0.1478 -1.2511 -0.0369
  517MOL0    Cl69705   9.176   9.003  14.374  0.6713 -0.1715 -0.3810
  517MOL0     C69706   8.334   9.368  13.683  0.0645 -0.1635  0.6182
  517MOL0     C69707   8.209   9.360  13.615  0.0853  0.4399 -0.2990
  517MOL0     O69708   7.900   9.090  13.662  0.4790 -0.1566 -0.0415
  517MOL0     C69709   7.802   9.319  13.397 -0.0352 -0.2718 -0.0929
  517MOL0     C69710   7.720   9.330  13.282 -0.2996  0.2553 -0.1124
  517MOL0     N69711   7.332   9.285  12.639  0.2715  1.1958 -0.0866
  517MOL0     N69712   7.337   9.337  12.519  0.2731 -0.0944  0.1353
  517MOL0     C69713   7.451  10.032  11.555  0.6504 -0.0578  0.6756
  517MOL0     C69714   7.536  10.104  11.465 -0.0587  0.3215 -0.1271
  517MOL0     C69715   7.779  10.409  11.234  0.0549  0.2684  0.0396
  517MOL0     C69716   7.768  10.431  11.099 -0.8778 -0.2305  0.0170
  517MOL0     C69717   7.834  10.545  11.045 -0.0269 -0.4422  0.8102
  517MOL0     C69718   7.901  10.639  11.125 -0.2099  0.2224 -0.2344
  517MOL0     O69719   7.969  10.759  11.084  0.9603  0.6591 -1.0274
  517MOL0     C69720   7.949  10.821  10.958 -0.5432 -0.1869 -0.1190
  517MOL0     C69721   8.024  10.949  10.954  0.4163 -0.6863  0.1985
  517MOL0     C69722   8.034  11.022  10.816  0.2855  0.3888  0.4569
  517MOL0     C69723   8.038  11.180  10.838 -0.1908 -0.3515 -0.2746
  517MOL0     C69724   8.162  11.218  10.897  0.9003  0.3517 -0.3487
  517MOL0     C69725   8.275  11.226  10.936 -0.1365  0.2146  1.0366
  517MOL0     C69726   7.908  10.616  11.264 -0.2300  0.2054 -0.8897
  517MOL0     C69727   7.835  10.506  11.318  0.2272  0.4986 -0.5122
  517MOL0     H69728   7.789  10.202  11.676 -1.4305 -0.9620  2.0225
  517MOL0     H69729   7.653  10.065  11.823  0.1774  1.7071  0.4859
  517MOL0     H69730   7.532   9.842  11.908 -0.3813 -0.8680  0.9521
  517MOL0     H69731   7.488  10.012  11.940 -1.7448  0.8114 -1.1959
  517MOL0     H69732   7.366   9.838  12.075 -0.4899  1.3822  0.1417
  517MOL0     H69733   7.266   9.949  11.976  1.0910  1.9741 -1.5624
  517MOL0     H69734   7.218   9.780  11.814  0.2624 -0.6176  0.0208
  517MOL0     H69735   7.304   9.661  11.881  1.5380  1.4541 -2.3901
  517MOL0     H69736   7.079   9.815  12.027  1.6021  0.4848 -0.2487
  517MOL0     H69737   7.058   9.673  11.926  2.1236 -3.5520 -0.2766
  517MOL0     H69738   7.231   9.553  12.091 -1.7314 -0.7859  0.1960
  517MOL0     H69739   7.226   9.703  12.183 -0.0406  2.3287 -1.3129
  517MOL0     H69740   6.994   9.669  12.247 -0.2106 -0.0768  0.9842
  517MOL0     H69741   6.983   9.540  12.124 -0.7664 -2.6412  2.3603
  517MOL0     H69742   6.989   9.470  12.354  0.4453  3.1056  1.6238
  517MOL0     H69743   7.101   9.375  12.260 -2.5028 -1.1866  2.9029
  517MOL0     H69744   7.195   9.612  12.431 -2.9349 -0.2873  1.4420
  517MOL0     H69745   7.295   9.494  12.346  2.6653 -0.9977  3.2569
  517MOL0     H69746   7.083   9.501  12.678 -1.0920 -0.8723  1.6388
  517MOL0     H69747   7.120   9.348  12.912  0.6802  1.0944 -2.9465
  517MOL0     H69748   7.193   9.183  12.868 -0.0637 -1.1561  2.9381
  517MOL0     H69749   7.289   9.314  13.065  2.0198  0.8168  1.2365
  517MOL0     H69750   7.329   9.443  12.943 -3.2148  0.8957  0.4386
  517MOL0     H69751   7.486   9.308  12.848  0.3978 -0.7798 -0.1869
  517MOL0     H69752   7.450   9.164  12.947  3.3872 -0.0647  2.7353
  517MOL0     H69753   7.537   9.426  13.064 -0.5564 -0.5544 -0.4293
  517MOL0     H69754   7.654   9.294  13.027  1.1704  0.1636  1.6819
  517MOL0     H69755   7.497   9.089  13.377  0.9912 -0.5649  2.9824
  517MOL0     H69756   7.512   9.075  13.621  1.1688  2.6148  0.3334
  517MOL0     H69757   7.626   8.943  13.572 -0.0963 -0.6990 -0.3001
  517MOL0     H69758   7.658   9.062  13.699 -0.9991 -2.4405  1.1855
  517MOL0     H69759   8.031   9.207  13.855 -2.0733 -0.6866 -3.1789
  517MOL0     H69760   8.244   9.206  13.972  0.5925 -1.2679 -0.5200
  517MOL0     H69761   8.552   9.399  14.025 -0.3289  0.8475  0.4130
  517MOL0     H69762   8.438   9.265  14.045 -0.0054  0.3426  0.2072
  517MOL0     H69763   8.611   9.141  14.071 -0.7876 -0.4604 -1.2010
  517MOL0     H69764   8.611   9.143  13.890  1.0112  0.2510 -2.0006
  517MOL0     H69765   8.769   9.324  14.090  1.7297  0.8954 -0.6061
  517MOL0     H69766   8.767   9.358  13.916 -0.7976 -1.4552 -0.5012
  517MOL0     H69767   8.874   9.093  13.990  0.6774 -0.7424 -1.0743
  517MOL0     H69768   8.906   9.194  13.849  3.0416 -0.9704  0.5289
  517MOL0     H69769   9.007   9.309  14.111 -1.6280  1.0486 -0.1131
  517MOL0     H69770   9.047   9.347  13.950  0.6809 -1.8338 -1.3017
  517MOL0     H69771   9.162   9.112  13.916 -1.8240 -1.2062  0.0063
  517MOL0     H69772   9.235   9.229  14.018  0.8977 -1.0523  5.0441
  517MOL0     H69773   9.220   8.989  14.124  0.4838 -0.1473 -1.4117
  517MOL0     H69774   9.045   9.026  14.148 -0.7656 -0.0395  1.8015
  517MOL0     H69775   9.116   9.208  14.299 -0.7215 -2.1130 -0.0887
  517MOL0     H69776   9.289   9.183  14.252 -0.7083  0.7135  0.0306
  517MOL0     H69777   8.412   9.420  13.630 -0.9915  0.7798 -0.0454
  517MOL0     H69778   8.195   9.412  13.521 -0.3435  0.2361 -0.3529
  517MOL0     H69779   7.886   9.389  13.398 -3.0398  3.8752 -3.1344
  517MOL0     H69780   7.760   9.404  13.213  1.8579 -0.1366  0.6473
  517MOL0     H69781   7.361   9.984  11.519  2.8104 -3.7965 -0.3301
  517MOL0     H69782   7.489  10.111  11.368  2.3127  3.0603 -1.2155
  517MOL0     H69783   7.702  10.375  11.034  0.3739 -2.6047  0.6468
  517MOL0     H69784   7.832  10.555  10.937  0.2920 -0.3721  0.8103
  517MOL0     H69785   7.983  10.750  10.882 -2.1513 -1.5940  0.3965
  517MOL0     H69786   7.845  10.844  10.931 -0.6655 -1.5017 -0.8807
  517MOL0     H69787   8.127  10.928  10.987  0.4851  0.7115  0.9093
  517MOL0     H69788   7.981  11.014  11.030  0.7911 -1.3291  0.9762
  517MOL0     H69789   7.947  11.016  10.749  0.6368  1.8131 -0.1625
  517MOL0     H69790   8.127  10.990  10.768  0.3538  1.5464 -0.2309
  517MOL0     H69791   7.962  11.221  10.905 -0.9469 -0.8996 -0.7803
  517MOL0     H69792   8.034  11.219  10.735 -1.4463 -2.7102 -1.1911
  517MOL0     H69793   8.378  11.251  10.950 -0.6849  3.0389  0.8118
  517MOL0     H69794   7.965  10.691  11.317 -3.3604  2.1854 -0.0217
  517MOL0     H69795   7.836  10.484  11.424 -1.1834 -1.7529 -0.9075
  518MOL0     O69796   9.395   4.685   2.424 -0.5871 -0.2032  0.2639
  518MOL0     C69797   9.310   4.685   2.512 -1.1017 -0.1417  0.3920
  518MOL0     O69798   9.329   4.714   2.646  0.0109  0.8751  0.4316
  518MOL0     C69799   9.442   4.783   2.695 -0.2662 -0.0774  0.3673
  518MOL0     C69800   9.480   4.779   2.833  0.5378 -0.0091  0.2413
  518MOL0     C69801   9.584   4.863   2.884  0.2097 -0.1365  0.2107
  518MOL0     C69802   9.653   4.952   2.803  1.0191 -0.6497  0.0457
  518MOL0     O69803   9.748   5.031   2.859  0.4396 -0.1415  0.5364
  518MOL0     C69804   9.858   5.064   2.770 -0.2038 -0.4130  0.6321
  518MOL0     C69805   9.964   5.147   2.848  0.0866  0.3366  0.0776
  518MOL0     C69806  10.015   5.073   2.980  0.3566  0.2017 -0.1257
  518MOL0     C69807   9.959   5.156   3.093 -0.6540  0.1088 -0.6539
  518MOL0     C69808  10.020   5.126   3.232 -0.2645 -1.2436 -0.6736
  518MOL0     C69809  10.175   5.166   3.243  0.8491 -0.0222 -0.5672
  518MOL0     C69810  10.229   5.179   3.391 -0.2490  1.1630  0.0473
  518MOL0     C69811  10.232   5.061   3.481  0.1567 -0.3198  0.0230
  518MOL0     N69812  10.249   5.090   3.622  0.5887  0.0845 -0.0626
  518MOL0     C69813  10.366   5.102   3.686  0.1137 -0.8301  0.6384
  518MOL0     C69814  10.339   5.129   3.815  0.3319  0.0828  0.7924
  518MOL0     C69815  10.448   5.145   3.915  0.7260  0.6718  0.2033
  518MOL0     C69816  10.434   5.253   4.027  1.5716 -0.2671 -0.0449
  518MOL0     C69817  10.496   5.206   4.168  0.0997  0.0185  0.0746
  518MOL0     C69818  10.530   5.323   4.260 -1.0808 -0.5119 -0.8868
  518MOL0     O69819  10.418   5.417   4.258 -0.6267  0.5516  0.4592
  518MOL0     C69820  10.398   5.493   4.366  0.1422  0.0981  0.4986
  518MOL0     C69821  10.270   5.522   4.395 -0.3782  0.5186 -0.2474
  518MOL0     C69822  10.231   5.589   4.509 -0.3016 -0.8479  1.0992
  518MOL0     C69823  10.080   5.635   4.489 -0.2647 -0.0159  0.3966
  518MOL0     C69824  10.323   5.629   4.606 -0.7228  0.6204  0.0911
  518MOL0     C69825  10.298   5.711   4.728  0.7817 -0.5825 -0.6825
  518MOL0     O69826  10.179   5.770   4.747  0.4085 -0.0049 -0.3294
  518MOL0     C69827  10.145   5.822   4.872  1.1158 -0.7125  0.1359
  518MOL0     C69828  10.032   5.772   4.929 -0.2284  0.7738 -0.2977
  518MOL0     C69829   9.988   5.818   5.054 -0.2210 -0.6022 -0.5116
  518MOL0     C69830  10.053   5.925   5.117  0.6342  0.1845  0.0791
  518MOL0     O69831  10.000   5.962   5.238 -0.4019  0.7956 -0.4326
  518MOL0     C69832  10.000   6.104   5.256 -0.9082  0.6932  0.2699
  518MOL0     C69833   9.911   6.119   5.381  0.3579 -0.1284  0.1250
  518MOL0     C69834   9.905   6.262   5.440 -0.2199  0.1468  0.1338
  518MOL0     C69835   9.788   6.344   5.393  0.4096  0.4628  0.2374
  518MOL0     C69836   9.783   6.485   5.464 -0.5419  0.3467 -0.8808
  518MOL0     C69837   9.788   6.477   5.609 -0.6765 -0.7162  0.0088
  518MOL0     C69838   9.772   6.613   5.679  0.3905 -0.6043 -0.1791
  518MOL0     C69839   9.800   6.593   5.830 -0.5568  0.3837  0.1886
  518MOL0    Cl69840   9.780   6.762   5.897 -0.9484  0.0204 -0.1069
  518MOL0     C69841  10.174   5.972   5.065 -0.4539 -0.4329  1.0640
  518MOL0     C69842  10.210   5.931   4.930  0.4403 -0.0736 -0.1094
  518MOL0     O69843  10.383   5.724   4.809 -0.2212 -0.5790 -0.2831
  518MOL0     C69844  10.455   5.588   4.585  0.8574 -0.7231 -0.3224
  518MOL0     C69845  10.487   5.513   4.476  0.2170  0.3338  0.8048
  518MOL0     N69846  10.206   5.145   3.834 -0.1411 -0.3684  0.0823
  518MOL0     N69847  10.155   5.106   3.721  0.3668  0.2576 -0.6905
  518MOL0     C69848   9.625   4.947   2.667  0.6203 -0.4811  0.7439
  518MOL0     C69849   9.518   4.872   2.609  0.2893  0.0080 -1.0981
  518MOL0     C69850   9.181   4.635   2.463  1.2512  0.0132 -0.0097
  518MOL0     C69851   9.089   4.588   2.556  0.2427  0.6154  0.0433
  518MOL0     C69852   8.971   4.530   2.522  0.2595 -0.9666  0.5499
  518MOL0     C69853   8.930   4.521   2.384  1.1006  0.2488 -0.5707
  518MOL0     O69854   8.822   4.462   2.333  0.4071  0.5329  0.1134
  518MOL0     C69855   8.745   4.379   2.429  0.8487  0.7761 -0.7702
  518MOL0     C69856   8.794   4.229   2.433  0.6407 -0.4196 -0.7476
  518MOL0     C69857   8.831   4.156   2.305  0.3893  0.5694 -0.0455
  518MOL0     C69858   8.744   4.166   2.181 -0.3378  0.2241 -0.0654
  518MOL0     C69859   8.808   4.232   2.064  0.2252 -0.4544 -0.3915
  518MOL0     C69860   8.865   4.296   1.983 -0.2067 -0.5894  0.7194
  518MOL0     C69861   9.022   4.568   2.283 -0.2470  0.4751  0.8221
  518MOL0     C69862   9.150   4.619   2.328  0.4772  1.8938 -0.2319
  518MOL0     H69863   9.444   4.704   2.902  1.0963 -1.1616 -0.6908
  518MOL0     H69864   9.623   4.858   2.985  0.1204  1.9538  0.4087
  518MOL0     H69865   9.914   4.973   2.747  1.4495  0.3919  1.3060
  518MOL0     H69866   9.824   5.130   2.690 -1.1600 -0.2511  1.1599
  518MOL0     H69867  10.045   5.174   2.779 -2.1507  1.9326 -2.1051
  518MOL0     H69868   9.920   5.245   2.868 -1.4141  0.5986 -3.6272
  518MOL0     H69869   9.972   4.972   2.986  0.7420  0.0504  0.1142
  518MOL0     H69870  10.124   5.072   2.984  0.3557 -1.0512 -0.0072
  518MOL0     H69871   9.966   5.263   3.074  0.9163  0.3933  1.2858
  518MOL0     H69872   9.851   5.138   3.089 -0.5001 -2.4603  2.5944
  518MOL0     H69873   9.966   5.180   3.310 -0.1457 -1.5790 -0.3520
  518MOL0     H69874  10.002   5.019   3.250 -1.4062 -0.8114  0.9774
  518MOL0     H69875  10.237   5.092   3.192 -1.6761 -3.0205  0.4118
  518MOL0     H69876  10.189   5.269   3.207  2.9042 -0.4304 -1.0280
  518MOL0     H69877  10.330   5.212   3.365 -0.2525  1.8199  0.8425
  518MOL0     H69878  10.174   5.267   3.423 -0.6704  2.4389 -3.7066
  518MOL0     H69879  10.301   4.987   3.439 -1.4988  0.3108 -4.2900
  518MOL0     H69880  10.140   5.003   3.473 -0.6111  1.1000 -2.9689
  518MOL0     H69881  10.460   5.080   3.635  0.4465 -1.2862  1.4386
  518MOL0     H69882  10.450   5.048   3.967  0.7683 -0.4908 -1.8608
  518MOL0     H69883  10.547   5.162   3.873  0.7458  2.0107  0.7374
  518MOL0     H69884  10.333   5.284   4.057  2.7136 -0.0504  4.3171
  518MOL0     H69885  10.490   5.343   4.001  0.7984  0.0485 -0.6702
  518MOL0     H69886  10.587   5.147   4.154 -1.4098 -2.3897 -0.1068
  518MOL0     H69887  10.437   5.146   4.238  2.0695  2.6647  4.4387
  518MOL0     H69888  10.621   5.373   4.227 -0.8719 -0.2317  0.0787
  518MOL0     H69889  10.543   5.284   4.362  1.1360  4.0945  0.8402
  518MOL0     H69890  10.200   5.490   4.319 -1.4961 -0.1953  1.0428
  518MOL0     H69891  10.070   5.651   4.382 -1.7652 -0.5589  0.4364
  518MOL0     H69892  10.009   5.560   4.525 -0.7837 -1.4847 -3.2779
  518MOL0     H69893  10.066   5.732   4.538 -1.4882  0.1454 -0.2434
  518MOL0     H69894   9.971   5.688   4.896  0.1977 -0.4683  1.8725
  518MOL0     H69895   9.908   5.772   5.112  2.0848 -0.3225  3.2450
  518MOL0     H69896  10.102   6.141   5.268 -0.5149 -0.7713  1.7581
  518MOL0     H69897   9.959   6.144   5.163  1.6728 -2.6792 -2.5896
  518MOL0     H69898   9.812   6.088   5.346  0.7238 -0.3972 -0.6900
  518MOL0     H69899   9.942   6.049   5.459 -0.4561 -1.8492 -1.0280
  518MOL0     H69900   9.999   6.307   5.406 -0.2991 -1.9152 -3.3180
  518MOL0     H69901   9.907   6.256   5.549 -2.8419  1.1925  0.3107
  518MOL0     H69902   9.794   6.350   5.284  1.8400 -0.8300  0.2207
  518MOL0     H69903   9.698   6.291   5.426 -1.0069  0.6147 -2.9916
  518MOL0     H69904   9.692   6.543   5.446 -0.8256  0.7533  1.5707
  518MOL0     H69905   9.862   6.548   5.421  0.5419  0.0375  0.5691
  518MOL0     H69906   9.711   6.412   5.652 -0.9115 -2.5442 -2.8860
  518MOL0     H69907   9.885   6.441   5.645 -0.6434  0.3702  1.0696
  518MOL0     H69908   9.672   6.653   5.658 -0.2701 -0.8019  2.2678
  518MOL0     H69909   9.841   6.687   5.640 -0.0358  0.5200  1.1088
  518MOL0     H69910   9.900   6.555   5.852  0.7888  2.4115 -1.8993
  518MOL0     H69911   9.722   6.531   5.876  1.3067 -2.2137  0.0221
  518MOL0     H69912  10.228   6.044   5.125 -2.0572  0.2252  1.7755
  518MOL0     H69913  10.303   5.950   4.877  1.3725  0.6265  1.6850
  518MOL0     H69914  10.532   5.615   4.657 -0.0143  0.0140  0.3481
  518MOL0     H69915  10.586   5.474   4.493  0.8394  2.1660  1.6879
  518MOL0     H69916   9.674   5.013   2.596  1.4782 -0.8514  0.9668
  518MOL0     H69917   9.494   4.888   2.504 -0.3933 -1.0514 -1.1185
  518MOL0     H69918   9.131   4.585   2.656  0.2571 -1.2200  0.0144
  518MOL0     H69919   8.902   4.516   2.604  1.6965  0.7233  2.1655
  518MOL0     H69920   8.730   4.424   2.527 -0.7838  0.4055 -0.8245
  518MOL0     H69921   8.641   4.373   2.396  1.2275  1.0456 -2.1033
  518MOL0     H69922   8.709   4.168   2.464 -1.1909  0.9476 -2.7400
  518MOL0     H69923   8.878   4.221   2.503  2.1901 -3.8920 -2.7616
  518MOL0     H69924   8.851   4.048   2.307  0.9168  0.6477 -0.5958
  518MOL0     H69925   8.925   4.198   2.268  0.6217 -0.9963 -1.3618
  518MOL0     H69926   8.649   4.214   2.206 -3.1516 -4.6730 -0.0789
  518MOL0     H69927   8.720   4.063   2.153 -1.4639 -0.6494  3.5836
  518MOL0     H69928   8.908   4.351   1.902 -1.5360  3.0643  2.2872
  518MOL0     H69929   9.008   4.548   2.177  1.6589  2.3488  0.1561
  518MOL0     H69930   9.215   4.650   2.247  1.8776  1.8735  0.8478
  519MOL0     O69931   2.775   9.140   7.060 -0.6393 -0.0253  0.2868
  519MOL0     C69932   2.769   9.082   6.950  0.0395  0.6615 -0.8973
  519MOL0     O69933   2.851   9.091   6.855 -0.1121 -0.1163 -0.2025
  519MOL0     C69934   2.946   9.196   6.870  0.2966  0.4932 -1.4771
  519MOL0     C69935   2.977   9.283   6.763 -0.2881 -1.1965 -0.2877
  519MOL0     C69936   3.044   9.406   6.781 -0.7202  0.4505  0.1204
  519MOL0     C69937   3.096   9.442   6.900  0.2505 -0.2588 -0.1405
  519MOL0     O69938   3.173   9.554   6.904  0.9231 -0.3997 -0.1350
  519MOL0     C69939   3.311   9.522   6.875 -0.3389  0.9367  0.3618
  519MOL0     C69940   3.385   9.653   6.870  0.5976 -0.1082 -0.0007
  519MOL0     C69941   3.367   9.720   6.737 -0.0557 -0.8044 -0.2957
  519MOL0     C69942   3.478   9.826   6.702  0.8226 -0.0389 -0.2888
  519MOL0     C69943   3.525   9.912   6.818  0.7370  1.0209  0.1583
  519MOL0     C69944   3.414  10.012   6.869 -0.1004 -0.9166  0.1362
  519MOL0     C69945   3.469  10.097   6.985  0.0913 -0.7889 -0.3869
  519MOL0     C69946   3.559  10.203   6.943  0.3511 -0.5435 -0.8813
  519MOL0     N69947   3.581  10.301   7.051  0.0841  0.3533 -0.2593
  519MOL0     C69948   3.672  10.305   7.150 -0.2154  0.3055  0.3154
  519MOL0     C69949   3.659  10.418   7.227  0.2519  0.0295  0.4996
  519MOL0     C69950   3.731  10.455   7.354  0.0323  0.4584 -0.5206
  519MOL0     C69951   3.886  10.421   7.346  0.3210  0.2453 -0.0649
  519MOL0     C69952   3.958  10.542   7.408  0.4377  0.0530 -1.1398
  519MOL0     C69953   3.987  10.655   7.314  0.4424  0.6439  0.1422
  519MOL0     O69954   4.010  10.762   7.391 -0.5574  0.6569 -0.2097
  519MOL0     C69955   4.051  10.880   7.329  0.5791 -0.4679 -1.3979
  519MOL0     C69956   4.032  10.919   7.197  0.4865  0.2055 -0.7779
  519MOL0     C69957   4.078  11.033   7.135 -0.8401 -0.8326 -0.2336
  519MOL0     C69958   4.052  11.046   6.983  0.9311  0.6911  0.0392
  519MOL0     C69959   4.124  11.143   7.220  0.4968  0.5887 -0.0222
  519MOL0     C69960   4.162  11.281   7.170  0.0850 -0.0547 -0.5373
  519MOL0     O69961   4.155  11.383   7.261 -0.9338  0.0674  0.4122
  519MOL0     C69962   4.196  11.500   7.211 -0.9960 -1.2587 -0.6638
  519MOL0     C69963   4.334  11.527   7.200  0.4865 -0.0704  0.1287
  519MOL0     C69964   4.381  11.658   7.164 -0.0333 -0.3320 -0.2723
  519MOL0     C69965   4.286  11.756   7.132  0.4521  0.1270  0.1402
  519MOL0     O69966   4.314  11.887   7.097  0.2000 -0.2757  0.1376
  519MOL0     C69967   4.444  11.928   7.089 -0.0812 -0.7043  0.0022
  519MOL0     C69968   4.424  12.074   7.061  0.1909  0.1970  1.0832
  519MOL0     C69969   4.557  12.149   7.053 -1.0474 -0.1263  0.2681
  519MOL0     C69970   4.595  12.189   7.201  0.6369 -0.3889 -0.1916
  519MOL0     C69971   4.733  12.264   7.203 -0.0585  0.6170  1.0178
  519MOL0     C69972   4.790  12.273   7.342 -0.0049 -0.4967  0.1638
  519MOL0     C69973   4.904  12.374   7.345 -0.3872  0.0165  0.3319
  519MOL0     C69974   5.005  12.377   7.455 -0.9758  0.1329  0.3228
  519MOL0    Cl69975   4.961  12.481   7.607 -0.0149 -0.2623 -0.2334
  519MOL0     C69976   4.146  11.727   7.137 -0.5566  0.0216  0.2213
  519MOL0     C69977   4.101  11.598   7.177 -0.0674 -0.7847 -0.6741
  519MOL0     O69978   4.192  11.288   7.048 -0.5561 -0.9990 -0.4339
  519MOL0     C69979   4.136  11.113   7.364 -0.3752 -0.2409  0.5607
  519MOL0     C69980   4.108  10.985   7.412 -0.0714 -0.2415 -0.0405
  519MOL0     N69981   3.560  10.496   7.164 -0.7109 -0.5548 -0.4972
  519MOL0     N69982   3.529  10.429   7.060  0.1024  0.0867  0.0006
  519MOL0     C69983   3.097   9.350   7.005  0.1382  0.9931 -0.8418
  519MOL0     C69984   3.032   9.226   6.981 -0.6277 -0.2787  0.2772
  519MOL0     C69985   2.677   8.966   6.947  0.1810 -1.1674  0.3151
  519MOL0     C69986   2.639   8.906   6.826  0.4375 -0.4339 -0.1152
  519MOL0     C69987   2.553   8.794   6.836 -0.0011 -0.0972 -0.7261
  519MOL0     C69988   2.507   8.728   6.953 -0.2466 -1.1276 -0.3396
  519MOL0     O69989   2.406   8.634   6.952  0.0435 -0.3809  0.1809
  519MOL0     C69990   2.382   8.546   7.053 -0.7616  1.1260 -0.0527
  519MOL0     C69991   2.495   8.448   7.077 -0.3642  0.6077  0.2693
  519MOL0     C69992   2.475   8.358   7.202 -0.1857  0.6300  0.2296
  519MOL0     C69993   2.455   8.421   7.339  0.3497 -0.0119 -0.1695
  519MOL0     C69994   2.547   8.533   7.364 -0.6331 -0.1750 -0.1013
  519MOL0     C69995   2.626   8.615   7.387 -0.4457 -0.0633 -0.6722
  519MOL0     C69996   2.546   8.789   7.075  0.4180  0.2795 -0.1047
  519MOL0     C69997   2.628   8.906   7.072 -0.3645  0.3704 -0.2110
  519MOL0     H69998   2.925   9.276   6.668  0.0032  2.4467 -0.8437
  519MOL0     H69999   3.060   9.477   6.700 -0.8314  1.3531  0.8713
  519MOL0     H70000   3.361   9.452   6.943  0.8689 -0.1790 -1.5797
  519MOL0     H70001   3.323   9.472   6.779  2.1647  2.8925 -0.4532
  519MOL0     H70002   3.350   9.714   6.954  1.6832 -0.5028  0.7489
  519MOL0     H70003   3.490   9.629   6.888  0.5301 -0.8723 -0.5537
  519MOL0     H70004   3.354   9.648   6.656 -3.1404 -1.7698  0.8797
  519MOL0     H70005   3.273   9.776   6.733 -0.0235 -0.5564  1.5594
  519MOL0     H70006   3.567   9.774   6.666  0.6523  0.6904 -1.8592
  519MOL0     H70007   3.449   9.879   6.611  0.2717 -4.4670 -2.9391
  519MOL0     H70008   3.553   9.854   6.906  0.4308 -0.3778 -0.6240
  519MOL0     H70009   3.615   9.958   6.777  0.9668  0.5226  0.1024
  519MOL0     H70010   3.382  10.064   6.778  1.4765 -2.1387 -1.1551
  519MOL0     H70011   3.324   9.960   6.903 -1.9122  3.0015  1.9968
  519MOL0     H70012   3.391  10.140   7.048  1.5733  1.6916 -0.1045
  519MOL0     H70013   3.529  10.036   7.053  0.8976  0.4258  0.0163
  519MOL0     H70014   3.490  10.255   6.876 -2.3814 -4.7133 -1.7054
  519MOL0     H70015   3.643  10.163   6.887 -0.3791 -1.7043 -1.1962
  519MOL0     H70016   3.744  10.227   7.173 -0.0504 -0.6915 -3.1188
  519MOL0     H70017   3.710  10.561   7.375  1.0892  0.8641 -1.4045
  519MOL0     H70018   3.688  10.396   7.436  3.8703 -0.1966  1.2411
  519MOL0     H70019   3.914  10.404   7.241 -4.0178 -0.5375 -1.3109
  519MOL0     H70020   3.910  10.329   7.401  1.1809 -0.4813 -1.5617
  519MOL0     H70021   4.050  10.508   7.456 -0.6215 -2.9919 -1.0225
  519MOL0     H70022   3.888  10.581   7.482  1.3030 -1.7340  0.7109
  519MOL0     H70023   3.896  10.670   7.254 -2.0012 -2.1280  2.7720
  519MOL0     H70024   4.073  10.636   7.250  1.6576  2.7382  1.0610
  519MOL0     H70025   3.980  10.843   7.138 -4.4640  0.0022  3.2001
  519MOL0     H70026   3.981  11.129   6.976  0.4613  0.1427 -2.7662
  519MOL0     H70027   4.140  11.058   6.920 -0.4329  0.4576 -1.9889
  519MOL0     H70028   4.015  10.952   6.940 -0.6535  1.8260 -1.2250
  519MOL0     H70029   4.413  11.457   7.222  1.2875  1.8960  4.7864
  519MOL0     H70030   4.488  11.677   7.168 -0.2627  0.8812  1.5249
  519MOL0     H70031   4.477  11.902   7.190 -0.8757 -0.3019  0.3838
  519MOL0     H70032   4.499  11.876   7.010  0.4047  2.0736 -1.6473
  519MOL0     H70033   4.388  12.080   6.958  2.6330  1.1253  0.1991
  519MOL0     H70034   4.354  12.127   7.125 -1.2076  0.4610 -0.5948
  519MOL0     H70035   4.549  12.246   7.003  0.2582  0.9651  2.0905
  519MOL0     H70036   4.632  12.085   7.005 -0.7878  2.4852 -3.1927
  519MOL0     H70037   4.510  12.248   7.235  2.9161  4.5143 -2.0736
  519MOL0     H70038   4.599  12.093   7.254  2.2422 -0.1008  0.2521
  519MOL0     H70039   4.729  12.362   7.154  2.9117 -0.2949 -1.4302
  519MOL0     H70040   4.807  12.215   7.138 -0.0053  1.3007  0.5415
  519MOL0     H70041   4.712  12.300   7.414 -0.1645  0.5124 -0.3712
  519MOL0     H70042   4.816  12.169   7.365 -3.0343 -1.3039  0.4403
  519MOL0     H70043   4.870  12.477   7.336  1.5690  0.9400  2.4846
  519MOL0     H70044   4.957  12.351   7.252 -2.3454 -0.8122 -0.6376
  519MOL0     H70045   5.097  12.418   7.412 -0.7910  0.0533  0.6401
  519MOL0     H70046   5.024  12.274   7.487 -1.6718 -0.2641 -0.4947
  519MOL0     H70047   4.080  11.810   7.117  0.6765  0.8496 -0.5304
  519MOL0     H70048   3.996  11.574   7.170 -0.9633  2.5390 -0.4057
  519MOL0     H70049   4.175  11.191   7.428  2.0663 -0.8346 -0.0825
  519MOL0     H70050   4.117  10.967   7.519 -0.7252  0.1060  0.0754
  519MOL0     H70051   3.149   9.352   7.100  0.1170 -1.2669 -0.7306
  519MOL0     H70052   3.039   9.157   7.065 -0.7889 -2.9486 -1.7631
  519MOL0     H70053   2.650   8.949   6.727 -1.9200 -2.7435 -1.4970
  519MOL0     H70054   2.508   8.755   6.745 -2.0413  1.2225 -0.3278
  519MOL0     H70055   2.356   8.596   7.147 -0.5320 -1.3039  1.3950
  519MOL0     H70056   2.291   8.492   7.024 -0.4607 -1.4263  3.1916
  519MOL0     H70057   2.596   8.489   7.079 -1.2848  3.0680  1.0270
  519MOL0     H70058   2.491   8.383   6.989 -3.8139  0.4896  0.3705
  519MOL0     H70059   2.558   8.287   7.217 -1.1816 -0.0989  2.7685
  519MOL0     H70060   2.393   8.290   7.178  2.1656 -2.4060  0.1711
  519MOL0     H70061   2.464   8.341   7.413  2.9488  1.0061  0.6998
  519MOL0     H70062   2.355   8.465   7.338 -0.4192 -1.6484  0.5750
  519MOL0     H70063   2.681   8.700   7.423 -1.0538  0.0390  0.0373
  519MOL0     H70064   2.498   8.766   7.170  2.1191  0.9041  0.9342
  519MOL0     H70065   2.643   8.936   7.175  0.3402 -0.5906 -0.0194
  520MOL0     O70066   7.382   1.549   2.788 -0.3195 -0.1416  0.8880
  520MOL0     C70067   7.269   1.591   2.810 -0.2007  0.3982 -0.4824
  520MOL0     O70068   7.229   1.628   2.927 -0.1325 -1.1354 -0.0730
  520MOL0     C70069   7.316   1.664   3.029  0.1005 -0.6240 -0.0987
  520MOL0     C70070   7.277   1.626   3.160  0.0957 -1.4812  0.0198
  520MOL0     C70071   7.359   1.669   3.270  0.4993 -0.5301  0.2103
  520MOL0     C70072   7.459   1.761   3.256 -0.0043 -0.0819  1.1234
  520MOL0     O70073   7.533   1.807   3.359 -0.2305  0.3167 -0.7606
  520MOL0     C70074   7.643   1.717   3.400  0.9476 -0.7581 -0.3530
  520MOL0     C70075   7.734   1.785   3.503 -0.2577 -0.6398  0.6058
  520MOL0     C70076   7.676   1.770   3.642 -0.2456  0.2472 -0.7422
  520MOL0     C70077   7.751   1.851   3.748  0.2777  0.1907  0.2940
  520MOL0     C70078   7.889   1.797   3.788 -0.3096  0.0242  0.3274
  520MOL0     C70079   7.924   1.829   3.938  0.3508 -0.1280 -0.4028
  520MOL0     C70080   7.940   1.980   3.954 -0.4291 -0.6679  0.8673
  520MOL0     C70081   7.965   2.016   4.102  0.1396  0.3532 -0.1147
  520MOL0     N70082   8.099   1.977   4.141  0.6356  0.1818 -1.1179
  520MOL0     C70083   8.223   2.032   4.108  0.3413 -0.1148 -0.0684
  520MOL0     C70084   8.317   1.955   4.159  0.3072 -0.0337 -0.6945
  520MOL0     C70085   8.471   1.972   4.162 -0.3820  0.7489  0.0062
  520MOL0     C70086   8.535   1.834   4.164 -0.8113  1.1058  0.3195
  520MOL0     C70087   8.689   1.849   4.155  0.1243 -0.0350 -0.7575
  520MOL0     C70088   8.746   1.878   4.289 -0.4951  0.0560 -0.0164
  520MOL0     O70089   8.880   1.844   4.319  0.0640  0.1937  0.8725
  520MOL0     C70090   8.936   1.896   4.436  0.5966 -0.4908  0.8587
  520MOL0     C70091   9.059   1.844   4.468  0.2192  0.8030 -0.6208
  520MOL0     C70092   9.122   1.885   4.586 -0.1675 -0.5301 -0.9927
  520MOL0     C70093   9.264   1.842   4.618  0.1353  1.2008  0.0859
  520MOL0     C70094   9.065   1.994   4.666 -0.2419  1.1655  0.9289
  520MOL0     C70095   9.130   2.047   4.787 -0.3564 -0.2443  0.2861
  520MOL0     O70096   9.048   2.098   4.883  0.6598 -0.1053 -0.1565
  520MOL0     C70097   9.093   2.105   5.014  0.0983 -0.6027  0.0203
  520MOL0     C70098   9.199   2.023   5.065  0.0861 -0.5629 -0.6629
  520MOL0     C70099   9.238   2.045   5.201  0.5857 -0.7061 -0.3967
  520MOL0     C70100   9.162   2.129   5.285 -0.6485  0.3249  0.9117
  520MOL0     O70101   9.175   2.131   5.418  0.0065 -0.1923 -0.1721
  520MOL0     C70102   9.193   2.263   5.487  0.1404  0.8332 -0.5555
  520MOL0     C70103   9.216   2.236   5.638  0.1752 -0.3266 -0.1970
  520MOL0     C70104   9.106   2.154   5.718  0.4641  0.2741 -0.8226
  520MOL0     C70105   9.161   2.113   5.859 -0.5331 -0.4775  0.8152
  520MOL0     C70106   9.060   2.026   5.943 -0.1430  0.3945  0.4009
  520MOL0     C70107   9.107   2.024   6.090 -0.7062  0.3669  0.2639
  520MOL0     C70108   9.060   1.915   6.177  0.0218 -0.0672  0.3017
  520MOL0     C70109   8.997   1.954   6.305 -0.4306 -0.0369  0.4710
  520MOL0    Cl70110   9.113   2.045   6.394  0.7356 -0.2253  0.0352
  520MOL0     C70111   9.055   2.207   5.230  0.5672 -0.7367  0.2948
  520MOL0     C70112   9.021   2.194   5.088  1.2046  0.0006  0.6128
  520MOL0     O70113   9.250   2.067   4.778 -1.7712  0.8313 -0.5869
  520MOL0     C70114   8.944   2.039   4.624  0.8932  0.1224  0.7312
  520MOL0     C70115   8.880   1.987   4.517  0.3012  0.1632  0.1175
  520MOL0     N70116   8.241   1.849   4.221 -0.8957  0.0368 -0.6794
  520MOL0     N70117   8.120   1.858   4.206  0.4988  0.9946  0.4820
  520MOL0     C70118   7.493   1.800   3.125  0.4058  0.8614  0.0914
  520MOL0     C70119   7.420   1.752   3.011  0.0274  0.2254  0.6610
  520MOL0     C70120   7.154   1.574   2.717 -0.7730 -0.2362 -0.1110
  520MOL0     C70121   7.025   1.603   2.758 -1.0049 -0.3579  1.1144
  520MOL0     C70122   6.919   1.582   2.667  0.2337  0.1566  0.1422
  520MOL0     C70123   6.944   1.532   2.533  0.3232  0.7364 -0.4626
  520MOL0     O70124   6.840   1.508   2.443  0.4265  0.2963  0.5826
  520MOL0     C70125   6.861   1.493   2.301 -0.5298  0.7233 -0.4247
  520MOL0     C70126   6.732   1.539   2.236 -0.4774  0.2257  0.4074
  520MOL0     C70127   6.744   1.542   2.081 -0.2802 -0.2305 -0.1585
  520MOL0     C70128   6.606   1.561   2.021 -1.0342  0.0958 -0.5049
  520MOL0     C70129   6.556   1.691   2.045  1.4325 -0.3988  1.1002
  520MOL0     C70130   6.528   1.803   2.071 -0.6529 -0.4571  0.9675
  520MOL0     C70131   7.081   1.505   2.497  0.5099  0.0907 -0.2178
  520MOL0     C70132   7.183   1.530   2.589  1.7703 -0.3149  0.2557
  520MOL0     H70133   7.186   1.582   3.198 -0.9062  1.9588  2.0121
  520MOL0     H70134   7.326   1.647   3.371  1.5597  1.9456  1.1981
  520MOL0     H70135   7.611   1.615   3.425 -1.4692 -0.6430 -2.5147
  520MOL0     H70136   7.703   1.701   3.310  0.5468 -3.0838 -0.2825
  520MOL0     H70137   7.837   1.749   3.508  0.2513  0.4536 -1.0542
  520MOL0     H70138   7.727   1.891   3.477 -0.2337 -0.4145  1.4881
  520MOL0     H70139   7.571   1.801   3.640  0.3557  2.4257 -1.2111
  520MOL0     H70140   7.675   1.662   3.662 -0.7295 -0.4489 -3.9536
  520MOL0     H70141   7.755   1.957   3.721 -1.2443  1.0662  3.0809
  520MOL0     H70142   7.689   1.847   3.838 -2.2039 -0.5010 -1.3516
  520MOL0     H70143   7.879   1.688   3.788  2.2855 -0.3114  2.5322
  520MOL0     H70144   7.961   1.842   3.720 -1.8186  2.1953  0.0693
  520MOL0     H70145   7.849   1.790   4.008  0.0874 -0.8989 -1.1007
  520MOL0     H70146   8.020   1.783   3.964  1.5247  1.8466 -1.0172
  520MOL0     H70147   8.014   2.028   3.889 -1.2602  0.1500  0.5042
  520MOL0     H70148   7.855   2.039   3.917 -1.7385 -0.6979  3.5998
  520MOL0     H70149   7.886   1.964   4.157 -1.4272  2.8281  0.1554
  520MOL0     H70150   7.952   2.123   4.122  3.7293  0.2363  4.5477
  520MOL0     H70151   8.234   2.126   4.054  2.1810 -0.6360 -0.6851
  520MOL0     H70152   8.509   2.029   4.077  1.2137 -1.4171 -0.8554
  520MOL0     H70153   8.504   2.029   4.249  1.0525  1.3755 -0.9108
  520MOL0     H70154   8.496   1.778   4.079  0.1399  1.1965 -0.1930
  520MOL0     H70155   8.511   1.775   4.253 -0.4571  2.8224  1.5963
  520MOL0     H70156   8.704   1.932   4.084  1.3870 -2.3037 -3.3556
  520MOL0     H70157   8.732   1.755   4.119 -2.1002 -1.6030  0.4668
  520MOL0     H70158   8.675   1.838   4.361  0.5330 -1.8229  0.0177
  520MOL0     H70159   8.744   1.987   4.290  1.5377  0.2792 -3.2275
  520MOL0     H70160   9.101   1.763   4.411  1.8696  0.6325  0.7606
  520MOL0     H70161   9.318   1.930   4.581 -2.9347  2.3624 -2.0779
  520MOL0     H70162   9.280   1.815   4.723 -1.2734  1.9471  0.5313
  520MOL0     H70163   9.302   1.763   4.553  5.3270  1.8010  1.9199
  520MOL0     H70164   9.241   1.947   5.000 -0.6500  0.2911 -2.1665
  520MOL0     H70165   9.302   1.964   5.234 -0.5929 -0.5142  2.6260
  520MOL0     H70166   9.281   2.312   5.444  0.2866  0.5365 -0.5944
  520MOL0     H70167   9.099   2.318   5.470  1.2337  2.3836 -1.9242
  520MOL0     H70168   9.315   2.191   5.645 -0.4214 -1.4668  1.6860
  520MOL0     H70169   9.224   2.330   5.694 -2.0286 -0.8043  1.0503
  520MOL0     H70170   9.094   2.056   5.672 -0.3621  0.7755 -1.6973
  520MOL0     H70171   9.019   2.219   5.731  1.8853  1.9564  0.8961
  520MOL0     H70172   9.253   2.055   5.852 -1.8070 -2.3888 -1.5142
  520MOL0     H70173   9.194   2.201   5.915  1.2659 -2.6041  3.3635
  520MOL0     H70174   9.066   1.928   5.895 -1.3477  0.1602  0.7000
  520MOL0     H70175   8.963   2.077   5.945  0.9616  2.6120  1.1647
  520MOL0     H70176   9.215   2.014   6.080 -0.7072  0.1473  0.4508
  520MOL0     H70177   9.093   2.125   6.129  0.0600  2.1352 -3.5411
  520MOL0     H70178   9.141   1.848   6.209  0.6528  0.6612  0.2566
  520MOL0     H70179   8.997   1.843   6.123 -0.2513 -0.7784  1.5452
  520MOL0     H70180   8.956   1.870   6.361 -0.6262  0.0891  0.5175
  520MOL0     H70181   8.912   2.022   6.299 -0.0000  0.5101  0.3861
  520MOL0     H70182   8.988   2.272   5.285 -2.1684 -0.9152 -2.5944
  520MOL0     H70183   8.939   2.242   5.036  1.1702  1.3316  1.8453
  520MOL0     H70184   8.892   2.121   4.672  0.5642 -0.2630  1.0347
  520MOL0     H70185   8.780   2.023   4.495 -0.0747 -0.7610  0.2754
  520MOL0     H70186   7.563   1.882   3.111  1.0715  1.1884  4.1904
  520MOL0     H70187   7.441   1.786   2.910 -3.2750 -0.2351 -0.3144
  520MOL0     H70188   7.014   1.634   2.861  3.1545 -2.1088  2.2751
  520MOL0     H70189   6.823   1.621   2.699  0.7744  1.0963  0.6560
  520MOL0     H70190   6.951   1.546   2.270  1.2165 -2.0961 -0.5091
  520MOL0     H70191   6.876   1.385   2.293  1.2075  0.7327  1.6947
  520MOL0     H70192   6.696   1.631   2.284 -4.1237 -0.6743 -0.2482
  520MOL0     H70193   6.650   1.467   2.245 -0.1537 -0.3551 -1.1341
  520MOL0     H70194   6.781   1.447   2.041 -3.0801 -1.2717 -0.4959
  520MOL0     H70195   6.808   1.626   2.049  0.5093 -0.9797 -0.5808
  520MOL0     H70196   6.532   1.486   2.050 -0.0059 -0.3215  1.1346
  520MOL0     H70197   6.618   1.537   1.915 -1.2247 -1.5320 -0.1820
  520MOL0     H70198   6.492   1.902   2.089 -1.6028 -1.3537  5.1531
  520MOL0     H70199   7.109   1.448   2.409 -0.3341 -1.2028  0.3250
  520MOL0     H70200   7.286   1.506   2.567  1.6296 -1.1121  0.4110
  521MOL0     O70201   9.879   9.491   6.833  0.3976 -0.0731  0.0587
  521MOL0     C70202   9.762   9.487   6.864 -0.3345  0.3665  0.4238
  521MOL0     O70203   9.683   9.380   6.891  0.0224 -0.1490  0.0157
  521MOL0     C70204   9.747   9.264   6.878 -0.2299  0.5709 -0.4636
  521MOL0     C70205   9.807   9.191   6.989  0.1603  0.7700  0.7596
  521MOL0     C70206   9.873   9.068   6.963 -0.7304 -0.6986 -0.5847
  521MOL0     C70207   9.864   9.008   6.831  0.5521 -1.0737 -0.9931
  521MOL0     O70208   9.913   8.890   6.822  0.3671 -0.1326  0.5881
  521MOL0     C70209   9.857   8.812   6.714 -0.7436  0.2449  0.9728
  521MOL0     C70210   9.902   8.663   6.745  0.5757 -0.7175  0.9908
  521MOL0     C70211  10.036   8.630   6.685  0.4285  0.4736 -0.7038
  521MOL0     C70212  10.073   8.485   6.734 -0.8542  0.5868  0.0946
  521MOL0     C70213  10.211   8.453   6.688  0.4120 -0.1570 -0.4411
  521MOL0     C70214  10.264   8.316   6.719 -0.9775  0.0084 -0.2193
  521MOL0     C70215  10.207   8.203   6.639  1.0680 -1.1656  0.4153
  521MOL0     C70216  10.238   8.068   6.706  0.1262 -0.5416  0.0821
  521MOL0     N70217  10.159   7.961   6.654 -0.0601  0.9414  0.1158
  521MOL0     C70218  10.028   7.939   6.676  0.7989 -0.0358 -0.6537
  521MOL0     C70219   9.997   7.822   6.620 -0.2488  0.2269 -0.0362
  521MOL0     C70220   9.862   7.748   6.609  0.1157  0.1466 -0.7104
  521MOL0     C70221   9.740   7.841   6.629  0.1516  0.0777  0.1569
  521MOL0     C70222   9.724   7.945   6.517 -0.3727 -0.2827 -0.1317
  521MOL0     C70223   9.597   8.024   6.540  1.1533 -0.6863 -0.1363
  521MOL0     O70224   9.608   8.097   6.667  0.0182 -0.0465  0.2805
  521MOL0     C70225   9.543   8.220   6.672  0.3598  0.4608 -0.8759
  521MOL0     C70226   9.403   8.237   6.674  0.3288  0.2390 -0.6332
  521MOL0     C70227   9.351   8.369   6.674  0.5823  0.1593  0.5128
  521MOL0     C70228   9.198   8.365   6.668 -0.9189 -0.2887  0.6794
  521MOL0     C70229   9.432   8.481   6.678 -0.5902  0.2461  0.9893
  521MOL0     C70230   9.380   8.625   6.682 -0.2914  0.1342 -0.5234
  521MOL0     O70231   9.475   8.724   6.675 -0.5739 -0.0448  0.9274
  521MOL0     C70232   9.450   8.834   6.604 -0.1970 -0.0948  0.3740
  521MOL0     C70233   9.478   8.958   6.672 -0.2412  0.5593 -0.4346
  521MOL0     C70234   9.440   9.077   6.605 -0.5397 -0.1329  0.2103
  521MOL0     C70235   9.407   9.072   6.469 -0.8108  0.1028  0.3985
  521MOL0     O70236   9.389   9.181   6.383  0.6465  0.7806  0.1915
  521MOL0     C70237   9.372   9.315   6.438 -0.3709 -1.1527  0.4119
  521MOL0     C70238   9.507   9.374   6.493  0.0552 -0.7052 -0.4772
  521MOL0     C70239   9.494   9.533   6.519  0.5383 -0.5148  0.5572
  521MOL0     C70240   9.626   9.600   6.515  0.1913 -0.4061  0.4333
  521MOL0     C70241   9.612   9.749   6.543 -0.2006  0.0043  0.1545
  521MOL0     C70242   9.549   9.820   6.419 -0.5674 -0.2693 -0.3299
  521MOL0     C70243   9.546   9.974   6.459  0.3337  0.2357  0.8369
  521MOL0     C70244   9.449  10.018   6.574  0.5799  0.4757  0.5922
  521MOL0    Cl70245   9.287   9.991   6.524 -0.1870  0.2558  0.2395
  521MOL0     C70246   9.400   8.953   6.397  0.3035 -0.4319 -0.0021
  521MOL0     C70247   9.426   8.830   6.465 -0.1647 -0.3265 -0.0414
  521MOL0     O70248   9.262   8.645   6.703 -0.5137 -0.8883  0.9095
  521MOL0     C70249   9.570   8.464   6.682  0.6787 -0.1613 -0.3378
  521MOL0     C70250   9.627   8.332   6.686 -0.0064  0.0936  1.4756
  521MOL0     N70251  10.114   7.768   6.574  0.1061 -0.6437  1.1210
  521MOL0     N70252  10.210   7.847   6.597  0.1766 -0.1570 -0.4810
  521MOL0     C70253   9.819   9.087   6.726  0.5238  0.3244  0.1612
  521MOL0     C70254   9.768   9.218   6.746  0.2621  0.1660  0.0520
  521MOL0     C70255   9.700   9.612   6.890 -0.1292  0.0940  0.2136
  521MOL0     C70256   9.558   9.619   6.867 -0.0979  0.7217 -0.2186
  521MOL0     C70257   9.485   9.732   6.907  0.8255 -0.2940 -0.2721
  521MOL0     C70258   9.556   9.849   6.939  1.2930 -0.1834  0.0059
  521MOL0     O70259   9.461   9.947   6.962 -0.7972  0.5492  0.5703
  521MOL0     C70260   9.505  10.063   7.025  0.0506 -0.2177  0.2653
  521MOL0     C70261   9.387  10.157   7.030 -0.3916 -0.3136  0.2592
  521MOL0     C70262   9.339  10.211   6.892  0.2599  0.3468 -0.0614
  521MOL0     C70263   9.207  10.294   6.901  0.1440  0.4276 -0.7931
  521MOL0     C70264   9.164  10.320   6.767  1.2702 -0.4530  0.7718
  521MOL0     C70265   9.112  10.356   6.655  0.5017 -0.5717  0.4159
  521MOL0     C70266   9.701   9.845   6.948 -0.0488 -0.1777 -0.3161
  521MOL0     C70267   9.773   9.723   6.928  0.4477 -0.9565  0.1986
  521MOL0     H70268   9.799   9.247   7.082 -2.1325 -0.3059  1.2703
  521MOL0     H70269   9.906   9.016   7.053 -2.4288 -0.5132  0.1900
  521MOL0     H70270   9.748   8.820   6.715 -1.1227 -1.4630 -3.6401
  521MOL0     H70271   9.882   8.847   6.613  0.3437  0.6097  1.3507
  521MOL0     H70272   9.912   8.650   6.853 -1.4116 -1.7584  1.1074
  521MOL0     H70273   9.835   8.582   6.715  3.8606 -2.2006 -3.5709
  521MOL0     H70274  10.043   8.634   6.576 -1.7308 -0.1835 -0.9218
  521MOL0     H70275  10.106   8.708   6.715 -0.3690  1.9956 -2.5966
  521MOL0     H70276  10.065   8.473   6.843 -0.4603 -1.3853 -0.0639
  521MOL0     H70277  10.004   8.412   6.691 -0.0722 -1.6059  2.3019
  521MOL0     H70278  10.211   8.462   6.579  0.4307  2.2499 -0.2954
  521MOL0     H70279  10.288   8.526   6.716  3.0529 -1.7685 -2.9665
  521MOL0     H70280  10.369   8.320   6.689 -1.4736  1.9500 -1.9443
  521MOL0     H70281  10.256   8.308   6.828  1.4149 -2.6958 -0.1149
  521MOL0     H70282  10.099   8.219   6.632  0.8418 -3.0029 -1.3855
  521MOL0     H70283  10.234   8.202   6.533 -0.9466  2.0345 -0.2614
  521MOL0     H70284  10.212   8.091   6.810  1.5086  2.3210 -0.1032
  521MOL0     H70285  10.346   8.056   6.693  0.1863  1.8276 -2.7562
  521MOL0     H70286   9.960   7.999   6.736 -0.5743 -2.8224  0.7381
  521MOL0     H70287   9.846   7.709   6.508  1.7993  1.9243 -1.7298
  521MOL0     H70288   9.848   7.671   6.685 -4.6741  1.5397  0.1979
  521MOL0     H70289   9.761   7.894   6.722  1.4099  2.5605 -1.4232
  521MOL0     H70290   9.650   7.779   6.636 -0.0668  0.2957 -0.5524
  521MOL0     H70291   9.724   7.904   6.416 -1.4547  3.9504 -2.0782
  521MOL0     H70292   9.801   8.021   6.512 -2.9102  2.4231 -1.3193
  521MOL0     H70293   9.507   7.962   6.536  0.0786  0.8642 -2.7541
  521MOL0     H70294   9.593   8.096   6.458 -0.1729 -0.7541 -0.1482
  521MOL0     H70295   9.335   8.153   6.675 -1.9676  1.9841 -1.9622
  521MOL0     H70296   9.144   8.409   6.583 -2.2406  0.6004  1.9303
  521MOL0     H70297   9.156   8.264   6.679 -1.9707  0.0897  0.2504
  521MOL0     H70298   9.151   8.413   6.754 -2.4411 -1.0714  0.3299
  521MOL0     H70299   9.510   8.957   6.775  0.4470 -0.6861 -0.6442
  521MOL0     H70300   9.445   9.167   6.665  1.3909  1.8274 -2.6063
  521MOL0     H70301   9.347   9.382   6.355  1.9114 -0.6063  0.0780
  521MOL0     H70302   9.299   9.311   6.519 -1.2238  1.9145 -0.0745
  521MOL0     H70303   9.532   9.325   6.588  0.7573 -0.1917 -0.3888
  521MOL0     H70304   9.592   9.358   6.426  1.6513  0.7486  1.0923
  521MOL0     H70305   9.444   9.556   6.613 -0.5515  1.3278 -0.3997
  521MOL0     H70306   9.437   9.587   6.442  1.1465 -0.4500  0.1436
  521MOL0     H70307   9.688   9.541   6.583 -1.5797 -2.1263  0.6452
  521MOL0     H70308   9.673   9.592   6.416 -0.0109 -2.4013  0.4572
  521MOL0     H70309   9.711   9.794   6.554 -0.2238  0.5086 -1.4310
  521MOL0     H70310   9.554   9.765   6.634 -0.1734 -1.0199  0.3631
  521MOL0     H70311   9.607   9.803   6.328  0.5307 -0.1928  0.3377
  521MOL0     H70312   9.443   9.802   6.396 -0.6975  2.6635 -2.7413
  521MOL0     H70313   9.506  10.026   6.372  2.1139 -0.6711 -0.5777
  521MOL0     H70314   9.649  10.008   6.473  1.2933 -2.5138  0.9766
  521MOL0     H70315   9.454  10.126   6.592 -1.6386  0.9037 -1.0006
  521MOL0     H70316   9.465   9.962   6.666 -3.6488 -0.6097  0.8407
  521MOL0     H70317   9.382   8.945   6.291  0.1196 -2.0804  0.1267
  521MOL0     H70318   9.419   8.728   6.426  0.9053  0.0014 -1.1663
  521MOL0     H70319   9.639   8.548   6.690 -1.4677  1.5787  1.2476
  521MOL0     H70320   9.733   8.310   6.684 -0.2340 -1.1412  2.1652
  521MOL0     H70321   9.822   9.061   6.621 -1.0278  4.7139 -1.2067
  521MOL0     H70322   9.743   9.296   6.675 -1.2799  0.3282  0.7382
  521MOL0     H70323   9.499   9.537   6.829  1.1621 -1.1493  1.6062
  521MOL0     H70324   9.379   9.730   6.883  0.8608 -3.2547 -0.5473
  521MOL0     H70325   9.547  10.034   7.121  0.6380  1.8778  0.6683
  521MOL0     H70326   9.591  10.103   6.970  0.9387 -0.4001  1.5020
  521MOL0     H70327   9.416  10.247   7.085 -3.3222  1.2381 -0.4914
  521MOL0     H70328   9.302  10.103   7.073  0.0156 -1.2177 -0.0416
  521MOL0     H70329   9.334  10.126   6.824  0.1543  0.8366 -0.6773
  521MOL0     H70330   9.420  10.274   6.854 -1.9561  0.8055 -4.6619
  521MOL0     H70331   9.217  10.385   6.960 -2.0469  1.7303 -2.3190
  521MOL0     H70332   9.136  10.231   6.955 -1.1385  1.6465 -0.9934
  521MOL0     H70333   9.057  10.386   6.568  1.8288 -0.1282 -0.3099
  521MOL0     H70334   9.759   9.935   6.966 -2.7449  2.1396 -2.3011
  521MOL0     H70335   9.879   9.734   6.947  0.8360 -4.4879  0.8531
  522MOL0     O70336   5.337   4.732  10.626 -0.5990  0.2359 -0.6467
  522MOL0     C70337   5.384   4.618  10.608  0.2456  0.3063 -0.0451
  522MOL0     O70338   5.355   4.545  10.503 -0.2063  0.3511 -0.6069
  522MOL0     C70339   5.276   4.610  10.403 -1.0928  0.5213 -1.1259
  522MOL0     C70340   5.160   4.540  10.356  0.2231  0.9332 -0.4217
  522MOL0     C70341   5.075   4.592  10.266  0.2696  0.9073  0.0985
  522MOL0     C70342   5.113   4.711  10.203  0.5476  0.0812 -0.5648
  522MOL0     O70343   5.035   4.778  10.112  0.6270  0.4549 -0.0971
  522MOL0     C70344   4.894   4.777  10.146  0.0249 -0.5339  0.1845
  522MOL0     C70345   4.856   4.861  10.272 -0.1280  0.1007  0.7729
  522MOL0     C70346   4.882   5.008  10.253 -0.4540 -0.7051  0.2531
  522MOL0     C70347   4.852   5.082  10.382  0.6901  0.2215 -0.2219
  522MOL0     C70348   4.980   5.108  10.460  0.8585  0.9716 -0.3988
  522MOL0     C70349   4.941   5.164  10.598 -0.1320 -0.4939 -1.1589
  522MOL0     C70350   5.059   5.162  10.700  0.1906  0.3585  0.0445
  522MOL0     C70351   5.040   5.255  10.823 -0.2790  0.4670  0.1318
  522MOL0     N70352   4.933   5.213  10.917  0.1155  0.5834  0.0438
  522MOL0     C70353   4.799   5.207  10.890  0.4488  0.3538 -0.5302
  522MOL0     C70354   4.740   5.184  11.009 -0.2236  0.0024  0.7196
  522MOL0     C70355   4.586   5.157  11.025  0.3695  0.1656  0.6205
  522MOL0     C70356   4.558   5.003  10.994  0.1026 -0.1690 -0.5354
  522MOL0     C70357   4.406   4.980  11.007 -0.4630  0.2146 -0.8790
  522MOL0     C70358   4.342   4.847  10.968  0.1412 -0.0398  0.0109
  522MOL0     O70359   4.224   4.835  11.055  0.3355  0.1270 -0.0369
  522MOL0     C70360   4.126   4.744  11.026  0.4571 -0.5150 -0.0633
  522MOL0     C70361   3.994   4.782  10.991  0.3295 -0.1041  0.2776
  522MOL0     C70362   3.899   4.690  10.972  0.4827 -0.0413 -0.0974
  522MOL0     C70363   3.763   4.736  10.929 -0.0757  0.3434 -0.6740
  522MOL0     C70364   3.933   4.556  10.991 -0.4104  0.0450  0.6251
  522MOL0     C70365   3.840   4.452  10.955 -0.0378 -1.3345  0.3850
  522MOL0     O70366   3.717   4.438  11.018 -0.2159  0.0517 -0.1890
  522MOL0     C70367   3.653   4.326  10.983  0.5439 -0.9223 -0.0754
  522MOL0     C70368   3.698   4.200  11.028 -0.5548 -0.7144  0.4291
  522MOL0     C70369   3.625   4.083  10.999  0.3114 -0.3830  0.1225
  522MOL0     C70370   3.508   4.077  10.930  0.3132 -0.8427 -0.0339
  522MOL0     O70371   3.424   3.966  10.912 -0.0462  0.3060 -0.4354
  522MOL0     C70372   3.460   3.841  10.977 -0.4417  1.2282 -0.5640
  522MOL0     C70373   3.455   3.834  11.134  0.4626 -0.2380  0.6185
  522MOL0     C70374   3.310   3.834  11.185  1.0856  0.2068 -0.9654
  522MOL0     C70375   3.247   3.981  11.194 -0.0527 -0.1665 -0.2228
  522MOL0     C70376   3.097   3.979  11.185  0.4009 -0.0787  0.4995
  522MOL0     C70377   3.019   3.891  11.277 -0.3780  0.1223 -0.9450
  522MOL0     C70378   3.069   3.911  11.426  0.2535  0.2379 -0.7427
  522MOL0     C70379   2.957   3.870  11.524 -0.2018  0.0799 -0.0048
  522MOL0    Cl70380   2.936   3.690  11.518 -0.0703  0.0509 -0.0047
  522MOL0     C70381   3.464   4.195  10.871  0.1167 -0.1575 -0.3525
  522MOL0     C70382   3.538   4.313  10.898 -0.0084 -0.1163  1.0615
  522MOL0     O70383   3.888   4.393  10.856  0.2516 -0.1173  0.5421
  522MOL0     C70384   4.061   4.511  11.031  0.7144  0.7361  0.2836
  522MOL0     C70385   4.159   4.614  11.047  0.6269  0.7051  0.5109
  522MOL0     N70386   4.841   5.176  11.106 -0.5361 -0.5433 -0.7428
  522MOL0     N70387   4.950   5.193  11.049  0.5068 -0.0317  0.9888
  522MOL0     C70388   5.229   4.771  10.238 -0.6428  0.3291  0.4994
  522MOL0     C70389   5.317   4.721  10.331 -0.5778  0.5691  0.2392
  522MOL0     C70390   5.471   4.561  10.715  0.8693 -0.0518 -0.7417
  522MOL0     C70391   5.492   4.626  10.838 -0.0219 -0.6551 -0.5214
  522MOL0     C70392   5.578   4.568  10.939  0.0868 -0.0575  0.6704
  522MOL0     C70393   5.631   4.436  10.916  0.3229 -0.8277  0.0508
  522MOL0     O70394   5.698   4.363  11.005  0.8236 -0.0205 -0.0285
  522MOL0     C70395   5.694   4.390  11.143 -0.3307 -0.0149 -1.2378
  522MOL0     C70396   5.826   4.350  11.198  0.0118 -0.1252 -0.1228
  522MOL0     C70397   5.935   4.450  11.141 -0.0600  0.0677 -0.3986
  522MOL0     C70398   6.069   4.444  11.217  0.5478  0.3315 -0.0856
  522MOL0     C70399   6.040   4.476  11.356 -0.4352  0.6021 -0.9437
  522MOL0     C70400   5.998   4.477  11.469 -0.3565  0.4622 -0.6966
  522MOL0     C70401   5.609   4.375  10.788 -0.7256  0.4458 -0.7975
  522MOL0     C70402   5.525   4.433  10.694  0.8710 -0.3702 -1.1358
  522MOL0     H70403   5.134   4.452  10.413 -0.9296  0.8918 -1.0021
  522MOL0     H70404   4.983   4.534  10.263  0.9624 -0.2642  0.7841
  522MOL0     H70405   4.840   4.821  10.061 -0.5777  0.2376  0.9456
  522MOL0     H70406   4.851   4.676  10.149 -0.4156 -0.6520 -4.2619
  522MOL0     H70407   4.750   4.838  10.284  0.1451 -2.3745 -0.7794
  522MOL0     H70408   4.915   4.824  10.357  1.4998 -1.2443 -0.8614
  522MOL0     H70409   4.985   5.019  10.217 -0.7097 -0.3671 -0.3795
  522MOL0     H70410   4.815   5.052  10.179  2.7604 -0.1736 -2.5963
  522MOL0     H70411   4.800   5.175  10.358  0.4273  0.0066 -0.5022
  522MOL0     H70412   4.785   5.022  10.445  1.4904 -1.0099 -0.5262
  522MOL0     H70413   5.033   5.014  10.478 -0.4588  0.5020  1.3097
  522MOL0     H70414   5.051   5.170  10.404  1.3170  0.8397  0.0183
  522MOL0     H70415   4.908   5.268  10.588  1.1241  0.3052  1.6947
  522MOL0     H70416   4.860   5.103  10.638 -1.0197  2.6985  2.5104
  522MOL0     H70417   5.080   5.061  10.735  0.7971  0.4957  0.0955
  522MOL0     H70418   5.145   5.200  10.643 -0.8612 -0.6084 -2.3134
  522MOL0     H70419   5.025   5.360  10.796  2.0428  0.8609  0.1614
  522MOL0     H70420   5.126   5.240  10.890  1.0281 -0.6422 -1.6781
  522MOL0     H70421   4.751   5.217  10.793  0.0313 -1.4027 -0.5445
  522MOL0     H70422   4.545   5.184  11.122 -0.2765  0.3286  0.3086
  522MOL0     H70423   4.525   5.211  10.951  2.6283  1.5859 -0.3110
  522MOL0     H70424   4.606   4.936  11.065 -0.7340 -0.7626 -0.5123
  522MOL0     H70425   4.598   4.978  10.896  1.7047  1.9060 -0.4797
  522MOL0     H70426   4.363   5.068  10.957  1.3696  0.9904 -1.1593
  522MOL0     H70427   4.391   4.987  11.115  3.9375  2.9243 -0.1995
  522MOL0     H70428   4.413   4.765  10.986 -2.1220 -2.6440 -1.9304
  522MOL0     H70429   4.314   4.855  10.863  2.4546  2.0455 -0.5340
  522MOL0     H70430   3.973   4.887  10.976  1.0615  0.0359  0.2148
  522MOL0     H70431   3.736   4.700  10.830 -1.4858 -1.4642  0.3262
  522MOL0     H70432   3.696   4.701  11.008 -0.1125  3.2236  0.7098
  522MOL0     H70433   3.764   4.845  10.915  1.4142  0.3398 -0.8168
  522MOL0     H70434   3.789   4.192  11.086  0.0098 -2.2365 -0.5910
  522MOL0     H70435   3.661   3.991  11.044 -3.1025 -0.3102  3.3981
  522MOL0     H70436   3.403   3.761  10.929 -0.6373  2.8911 -3.2605
  522MOL0     H70437   3.563   3.814  10.953  0.9714  3.9334  1.8704
  522MOL0     H70438   3.509   3.746  11.171 -0.4063  0.1215  2.9004
  522MOL0     H70439   3.512   3.916  11.178  1.8252 -1.2260  0.7743
  522MOL0     H70440   3.303   3.786  11.283  0.8542 -3.0060 -2.3991
  522MOL0     H70441   3.255   3.770  11.115  0.7568 -2.2733  1.3615
  522MOL0     H70442   3.279   4.014  11.293 -4.3501 -0.2965  1.4027
  522MOL0     H70443   3.298   4.051  11.126 -0.1900  1.9473  1.7578
  522MOL0     H70444   3.062   3.938  11.089  0.8509 -0.1170  0.3502
  522MOL0     H70445   3.057   4.080  11.194  3.5312  1.2696  0.5502
  522MOL0     H70446   2.910   3.896  11.271 -0.7288 -1.2838  2.4605
  522MOL0     H70447   3.033   3.786  11.249 -0.3591 -0.0945 -0.1506
  522MOL0     H70448   3.076   4.020  11.433  0.6762  0.2176 -0.7986
  522MOL0     H70449   3.169   3.871  11.447 -1.5684 -2.7907  3.2002
  522MOL0     H70450   2.861   3.911  11.493 -0.5634 -0.5601  0.2442
  522MOL0     H70451   2.972   3.903  11.627  1.2087  1.5399 -0.6342
  522MOL0     H70452   3.375   4.190  10.808  0.4238 -3.7061 -0.7136
  522MOL0     H70453   3.501   4.401  10.846  1.1519  0.3168  0.9289
  522MOL0     H70454   4.079   4.407  11.055  1.8352  1.1621  1.3921
  522MOL0     H70455   4.258   4.589  11.085 -0.7057 -2.6642  2.1862
  522MOL0     H70456   5.260   4.854  10.176 -1.2593  0.5131  0.4292
  522MOL0     H70457   5.408   4.777  10.353 -0.6410  1.0673 -0.7125
  522MOL0     H70458   5.445   4.722  10.853 -2.1665 -1.1261 -3.5332
  522MOL0     H70459   5.594   4.629  11.028  0.5822  0.2017  0.4077
  522MOL0     H70460   5.693   4.497  11.166  3.9654  0.5524 -2.7139
  522MOL0     H70461   5.610   4.345  11.196 -0.9786  1.8803 -0.5657
  522MOL0     H70462   5.848   4.245  11.179  1.0338  0.0767 -0.1230
  522MOL0     H70463   5.810   4.378  11.302  1.2320  1.6153 -0.3580
  522MOL0     H70464   5.908   4.556  11.132 -1.2239 -0.1774  0.0052
  522MOL0     H70465   5.948   4.421  11.037 -1.6927 -2.2801 -0.0236
  522MOL0     H70466   6.129   4.523  11.172 -2.6366  2.6685 -0.6227
  522MOL0     H70467   6.107   4.342  11.222 -1.9078 -0.5880  2.0945
  522MOL0     H70468   5.986   4.480  11.575  2.0428 -1.5165 -0.2779
  522MOL0     H70469   5.659   4.280  10.769 -1.5614  0.0639 -1.1241
  522MOL0     H70470   5.504   4.384  10.599 -0.4942 -1.9482 -0.0860
  523MOL0     O70471   9.842   2.326   0.812  0.3554 -0.2810 -0.1761
  523MOL0     C70472   9.849   2.389   0.915  0.9411  0.7646 -0.0108
  523MOL0     O70473   9.878   2.341   1.041  0.7243 -0.3967  0.4059
  523MOL0     C70474   9.880   2.200   1.056  1.1890  0.1110  0.9904
  523MOL0     C70475   9.993   2.145   1.120  0.5221 -0.7485  0.4147
  523MOL0     C70476   9.997   2.007   1.150 -0.1065 -0.4089  0.8643
  523MOL0     C70477   9.892   1.919   1.126  0.5052 -0.4965 -0.7337
  523MOL0     O70478   9.904   1.790   1.171  0.8463  0.8306 -0.3236
  523MOL0     C70479   9.780   1.701   1.176  0.1867 -0.5822  0.8554
  523MOL0     C70480   9.807   1.575   1.253 -1.2238  1.0230 -0.5580
  523MOL0     C70481   9.676   1.511   1.274 -0.1580  0.5640  0.7373
  523MOL0     C70482   9.698   1.382   1.352 -0.1716  1.7536  0.3006
  523MOL0     C70483   9.570   1.314   1.391  0.0113  0.2576  0.8864
  523MOL0     C70484   9.485   1.271   1.270  0.4936 -0.4019 -0.3036
  523MOL0     C70485   9.358   1.196   1.315 -0.0958  0.9659  0.2715
  523MOL0     C70486   9.307   1.130   1.199  0.8231  0.6382  0.1222
  523MOL0     N70487   9.269   0.990   1.228  1.7259  0.3164 -0.1553
  523MOL0     C70488   9.242   0.896   1.134  1.1236  0.3809  0.2310
  523MOL0     C70489   9.254   0.781   1.191 -0.1212 -0.1027 -0.3304
  523MOL0     C70490   9.238   0.658   1.106  0.0190  0.6378  0.2139
  523MOL0     C70491   9.222   0.530   1.177 -0.0506  0.4376  0.1484
  523MOL0     C70492   9.087   0.508   1.243 -0.5062  0.3055 -1.3236
  523MOL0     C70493   9.079   0.383   1.329  0.3332 -0.6156 -0.4170
  523MOL0     O70494   9.107   0.268   1.257 -0.5053  0.1047  0.5028
  523MOL0     C70495   9.010   0.206   1.185 -0.3122  0.5559  0.0641
  523MOL0     C70496   8.873   0.225   1.187 -0.0428 -0.4294 -0.4194
  523MOL0     C70497   8.781   0.135   1.132  0.2522 -0.7176  0.1167
  523MOL0     C70498   8.629   0.175   1.130  0.9794 -0.2664 -0.5057
  523MOL0     C70499   8.829   0.019   1.069 -0.3857  0.2895  0.2966
  523MOL0     C70500   8.748  -0.086   1.014 -0.2664 -0.1117  0.0552
  523MOL0     O70501   8.762  -0.220   1.052 -0.2942  0.6403  0.8184
  523MOL0     C70502   8.690  -0.310   0.974 -0.7465  0.3203 -0.1005
  523MOL0     C70503   8.772  -0.397   0.895 -0.2836  0.4225 -0.4275
  523MOL0     C70504   8.711  -0.490   0.804 -0.6803  1.1451 -0.0947
  523MOL0     C70505   8.569  -0.511   0.820  1.6260  0.4294 -0.3209
  523MOL0     O70506   8.504  -0.612   0.755 -0.4582  0.3045 -0.5574
  523MOL0     C70507   8.539  -0.631   0.621  0.7429  0.0683 -0.6439
  523MOL0     C70508   8.423  -0.696   0.543  0.1662  0.3902 -0.7289
  523MOL0     C70509   8.270  -0.689   0.599 -0.2222 -0.0115 -0.4548
  523MOL0     C70510   8.176  -0.729   0.486 -0.6730  0.3382  0.1974
  523MOL0     C70511   8.024  -0.720   0.542  1.1382 -0.2055  0.6243
  523MOL0     C70512   7.913  -0.779   0.449  0.2190 -0.5828 -0.0853
  523MOL0     C70513   7.894  -0.940   0.437 -0.4117 -0.9141 -0.2101
  523MOL0     C70514   7.854  -0.986   0.582  0.5405  0.9375 -0.1612
  523MOL0    Cl70515   7.739  -1.122   0.570  0.4659  0.2823 -0.7079
  523MOL0     C70516   8.494  -0.432   0.910  0.2016 -0.9999  0.2673
  523MOL0     C70517   8.555  -0.331   0.987  0.3336 -0.2540 -0.6641
  523MOL0     O70518   8.675  -0.053   0.922  0.3906 -0.0249  1.0806
  523MOL0     C70519   8.971   0.000   1.064  0.6204  0.2753 -0.1715
  523MOL0     C70520   9.062   0.092   1.118  0.2374 -0.1065  0.4833
  523MOL0     N70521   9.279   0.801   1.322 -0.3165 -0.4165 -0.6732
  523MOL0     N70522   9.283   0.927   1.350 -0.4177  0.8294 -0.1445
  523MOL0     C70523   9.776   1.980   1.076  0.4112  0.2156 -0.0898
  523MOL0     C70524   9.771   2.111   1.042  0.3822  0.0897 -0.4091
  523MOL0     C70525   9.821   2.533   0.908  0.3222  0.8647 -0.5612
  523MOL0     C70526   9.859   2.618   1.012 -0.3799  0.2532 -0.7109
  523MOL0     C70527   9.840   2.753   1.009 -0.5144 -0.5121  0.0753
  523MOL0     C70528   9.775   2.815   0.893 -0.1765  0.3779  0.5330
  523MOL0     O70529   9.743   2.949   0.875  0.1257 -0.4999  0.9957
  523MOL0     C70530   9.733   3.041   0.990  0.2023  0.8560 -0.9194
  523MOL0     C70531   9.843   3.140   0.991 -0.5272  0.6585  0.3266
  523MOL0     C70532   9.825   3.230   1.113 -0.2429 -0.6446  0.4336
  523MOL0     C70533   9.946   3.297   1.170  0.5841 -0.4061  0.2561
  523MOL0     C70534  10.002   3.397   1.073  0.0851  1.2681  0.0752
  523MOL0     C70535  10.035   3.469   0.987 -0.1178 -0.0112  0.2330
  523MOL0     C70536   9.728   2.727   0.795  0.3081  0.5504 -0.2599
  523MOL0     C70537   9.750   2.587   0.807 -0.0034 -0.3031  0.4146
  523MOL0     H70538  10.077   2.205   1.152  1.8332 -2.1607 -0.1902
  523MOL0     H70539  10.081   1.958   1.198 -0.7678 -3.5893 -0.9283
  523MOL0     H70540   9.704   1.767   1.218  1.7186  1.2569  0.8692
  523MOL0     H70541   9.752   1.682   1.072  0.3923  1.6252  0.3483
  523MOL0     H70542   9.884   1.518   1.200 -1.4678 -0.6775  0.8435
  523MOL0     H70543   9.845   1.607   1.350 -2.1893 -0.7821  0.4714
  523MOL0     H70544   9.615   1.568   1.344 -1.1810 -0.1475  0.4531
  523MOL0     H70545   9.620   1.503   1.180  1.9209 -0.4734 -0.4831
  523MOL0     H70546   9.752   1.320   1.280 -0.4261  1.7022  0.1509
  523MOL0     H70547   9.767   1.391   1.436 -1.8885  0.9297  1.8689
  523MOL0     H70548   9.587   1.222   1.447 -5.5860 -2.7809 -1.5297
  523MOL0     H70549   9.507   1.382   1.448 -2.9213 -0.1789 -1.5691
  523MOL0     H70550   9.450   1.362   1.221  0.4470  2.5258  4.4842
  523MOL0     H70551   9.544   1.209   1.202 -0.3425 -3.9446  1.9400
  523MOL0     H70552   9.395   1.123   1.388 -0.0088 -0.3235 -1.0140
  523MOL0     H70553   9.291   1.274   1.352  0.5436  1.6955 -0.0930
  523MOL0     H70554   9.382   1.121   1.120 -0.6338 -0.9333 -1.1650
  523MOL0     H70555   9.222   1.180   1.152  0.7405 -2.0450 -2.9587
  523MOL0     H70556   9.220   0.910   1.029  2.1978 -0.0560 -0.0757
  523MOL0     H70557   9.150   0.675   1.044  1.3340  1.2538 -1.5952
  523MOL0     H70558   9.317   0.647   1.030  0.7481  1.1779  0.8683
  523MOL0     H70559   9.306   0.525   1.247  0.6343  2.4853 -0.4646
  523MOL0     H70560   9.220   0.452   1.100 -1.0729  1.2975 -0.7309
  523MOL0     H70561   9.008   0.506   1.166  0.1256  2.5663 -2.1111
  523MOL0     H70562   9.078   0.591   1.314  2.8291  0.6841 -1.2214
  523MOL0     H70563   8.983   0.384   1.381  1.2300 -1.0512  1.3539
  523MOL0     H70564   9.146   0.391   1.415 -1.9568 -0.8124  1.4904
  523MOL0     H70565   8.837   0.320   1.227  4.2197  1.6095 -0.8622
  523MOL0     H70566   8.608   0.256   1.201  3.3484  1.3055 -1.4425
  523MOL0     H70567   8.590   0.210   1.035  1.7841 -2.2686 -1.6322
  523MOL0     H70568   8.576   0.082   1.148  2.3159 -1.3058 -1.7161
  523MOL0     H70569   8.877  -0.372   0.899  0.0456 -1.0953  1.5656
  523MOL0     H70570   8.765  -0.564   0.746 -3.0445  0.2364 -1.2454
  523MOL0     H70571   8.568  -0.540   0.568  0.1923  0.9985  0.5924
  523MOL0     H70572   8.626  -0.696   0.607 -0.2679 -0.8809 -3.0327
  523MOL0     H70573   8.417  -0.656   0.441  1.9079 -2.4646 -2.0714
  523MOL0     H70574   8.450  -0.802   0.538 -1.3083 -0.1027  0.8562
  523MOL0     H70575   8.249  -0.591   0.643  0.6129 -1.8537  4.7987
  523MOL0     H70576   8.256  -0.763   0.679 -2.3706 -0.0786 -0.8274
  523MOL0     H70577   8.186  -0.646   0.415 -1.6134 -0.9632 -1.5246
  523MOL0     H70578   8.208  -0.813   0.425 -2.6341 -0.0294 -0.3858
  523MOL0     H70579   8.016  -0.612   0.561  0.9965 -0.3223  1.2680
  523MOL0     H70580   8.022  -0.785   0.630  3.1221 -3.2343 -1.3677
  523MOL0     H70581   7.820  -0.753   0.500 -0.1409 -2.9369  0.5548
  523MOL0     H70582   7.923  -0.738   0.347 -0.4440  0.4506  0.2501
  523MOL0     H70583   7.986  -0.995   0.413  2.1772  2.2994  1.5700
  523MOL0     H70584   7.808  -0.961   0.372 -0.9376 -2.1052  0.8241
  523MOL0     H70585   7.809  -0.903   0.639 -1.1828  1.2915 -1.9484
  523MOL0     H70586   7.947  -1.010   0.635 -0.3846  0.7302  1.4300
  523MOL0     H70587   8.392  -0.458   0.937 -0.7823  2.7932  0.7470
  523MOL0     H70588   8.512  -0.266   1.062  1.2767 -1.7408  1.2692
  523MOL0     H70589   9.004  -0.092   1.016  0.1104  0.4275 -0.8310
  523MOL0     H70590   9.165   0.062   1.109  1.6563  2.9476  3.8470
  523MOL0     H70591   9.692   1.913   1.057 -0.2439  0.5060  1.5613
  523MOL0     H70592   9.674   2.155   1.016 -0.4658 -0.2051  2.0095
  523MOL0     H70593   9.921   2.574   1.089  1.3858  0.3064 -2.0459
  523MOL0     H70594   9.867   2.809   1.097  0.4169 -1.4448  0.3928
  523MOL0     H70595   9.634   3.088   0.984  0.3089  1.3185  0.5784
  523MOL0     H70596   9.728   2.977   1.078 -1.4371 -0.8564 -2.1835
  523MOL0     H70597   9.851   3.197   0.898  4.7634  2.3527  1.4539
  523MOL0     H70598   9.933   3.078   0.990 -0.5515  0.5697 -2.3203
  523MOL0     H70599   9.762   3.173   1.181 -0.7783 -0.3455  0.1982
  523MOL0     H70600   9.764   3.319   1.095  0.5361  0.1320  1.4577
  523MOL0     H70601  10.020   3.219   1.189 -1.4797 -2.8423 -1.0565
  523MOL0     H70602   9.928   3.359   1.258 -1.8257 -1.8488  0.8629
  523MOL0     H70603  10.072   3.532   0.909 -2.1922  1.2330  0.1749
  523MOL0     H70604   9.679   2.774   0.710  0.4931  3.0465  0.9200
  523MOL0     H70605   9.718   2.519   0.729  1.4125 -0.8250  0.2618
  524MOL0     O70606   1.856   1.736   3.759 -0.3139  0.7420  1.3244
  524MOL0     C70607   1.912   1.654   3.682  0.5982 -1.1882  0.7512
  524MOL0     O70608   2.047   1.627   3.673  0.1039 -0.0421  0.5384
  524MOL0     C70609   2.138   1.701   3.743 -0.2157 -0.1180 -0.3016
  524MOL0     C70610   2.171   1.677   3.870 -0.1815  0.0835  1.1793
  524MOL0     C70611   2.257   1.756   3.939 -1.0340 -0.0331  0.6879
  524MOL0     C70612   2.340   1.856   3.877  1.6743 -0.1248 -0.0879
  524MOL0     O70613   2.421   1.927   3.953 -0.0559  0.3808  0.3857
  524MOL0     C70614   2.493   2.034   3.883 -0.3665  0.0858 -0.0106
  524MOL0     C70615   2.563   2.126   3.991 -0.0959 -0.0999 -0.0955
  524MOL0     C70616   2.668   2.052   4.062  0.2688 -0.3621 -0.2238
  524MOL0     C70617   2.742   2.146   4.157 -0.2911 -1.1459 -0.2815
  524MOL0     C70618   2.670   2.215   4.272  0.6983 -0.5082  0.1810
  524MOL0     C70619   2.600   2.125   4.378 -0.0878 -0.5427  0.2594
  524MOL0     C70620   2.556   2.206   4.506 -0.6610  0.4368 -0.6529
  524MOL0     C70621   2.451   2.311   4.480  0.3851  0.0462  0.1614
  524MOL0     N70622   2.321   2.252   4.444 -0.3369  1.0437 -0.9458
  524MOL0     C70623   2.259   2.263   4.317  0.6061 -0.6435  0.3495
  524MOL0     C70624   2.146   2.198   4.325 -1.0674 -0.5442  0.4504
  524MOL0     C70625   2.046   2.190   4.210 -0.2424  0.0404 -0.9203
  524MOL0     C70626   2.099   2.101   4.097 -0.3631 -0.5386  0.0605
  524MOL0     C70627   1.997   2.055   3.990 -0.6849 -0.1543 -0.0011
  524MOL0     C70628   1.886   1.962   4.051 -0.9153 -0.6859  0.4873
  524MOL0     O70629   1.773   2.042   4.095  0.1547 -0.2622  0.4617
  524MOL0     C70630   1.690   2.092   3.993 -0.5606  0.6557 -0.0926
  524MOL0     C70631   1.633   2.220   4.032 -0.9127 -0.4336 -0.0400
  524MOL0     C70632   1.558   2.302   3.956 -0.0455 -0.4289  0.6704
  524MOL0     C70633   1.519   2.433   4.017 -0.1430 -0.7147 -0.3295
  524MOL0     C70634   1.537   2.252   3.820 -0.2559 -0.6259 -0.3461
  524MOL0     C70635   1.492   2.346   3.714  0.3797 -0.1883  0.2971
  524MOL0     O70636   1.447   2.293   3.596 -0.6603  0.1288 -0.1960
  524MOL0     C70637   1.398   2.370   3.497  0.6857 -0.9738 -0.0650
  524MOL0     C70638   1.259   2.359   3.453  0.0290 -1.0356  0.1510
  524MOL0     C70639   1.210   2.448   3.353 -0.0633  0.3087 -0.0152
  524MOL0     C70640   1.288   2.538   3.283 -0.2784  0.4136  0.2457
  524MOL0     O70641   1.255   2.612   3.175  0.3224  0.6215 -1.1748
  524MOL0     C70642   1.145   2.568   3.096 -0.4709  0.3573  0.7556
  524MOL0     C70643   1.200   2.521   2.961  0.3815  0.1795  0.1491
  524MOL0     C70644   1.085   2.495   2.854  0.2083 -1.2256  0.3186
  524MOL0     C70645   1.087   2.599   2.743 -0.1881  0.3474  0.3948
  524MOL0     C70646   0.966   2.593   2.648 -0.6017  0.5284  0.4236
  524MOL0     C70647   0.985   2.680   2.526  0.7081 -0.6037 -0.2092
  524MOL0     C70648   0.973   2.833   2.563 -0.4778 -0.5509  0.2532
  524MOL0     C70649   0.989   2.913   2.430  0.6949  0.7873  0.6013
  524MOL0    Cl70650   0.827   2.887   2.329  0.2416 -0.2798  0.2343
  524MOL0     C70651   1.427   2.546   3.320 -0.1202 -0.0463  0.6477
  524MOL0     C70652   1.476   2.467   3.429 -0.5848 -0.3958 -1.2701
  524MOL0     O70653   1.498   2.464   3.738  0.1003  0.3217 -0.1334
  524MOL0     C70654   1.580   2.122   3.785  0.4279  0.7125 -0.7702
  524MOL0     C70655   1.652   2.038   3.871 -0.0222 -0.2375  0.6432
  524MOL0     N70656   2.137   2.135   4.449  0.0133 -0.0945  0.6838
  524MOL0     N70657   2.248   2.166   4.516 -0.5722  0.0998  0.2077
  524MOL0     C70658   2.316   1.875   3.737  0.6686  0.6518 -0.7729
  524MOL0     C70659   2.213   1.797   3.672  0.3457 -0.3755  0.7115
  524MOL0     C70660   1.828   1.572   3.595  1.1530 -0.5597  0.1696
  524MOL0     C70661   1.687   1.575   3.603  0.0104  0.4854  0.1377
  524MOL0     C70662   1.600   1.490   3.528 -0.2470  0.8826  0.5517
  524MOL0     C70663   1.654   1.405   3.422  0.4359 -0.1588  0.0903
  524MOL0     O70664   1.583   1.321   3.333  0.2163  0.4443 -0.0582
  524MOL0     C70665   1.448   1.292   3.365 -0.4862 -0.4097 -1.5630
  524MOL0     C70666   1.381   1.182   3.288 -0.3062  0.0826 -0.0012
  524MOL0     C70667   1.415   1.183   3.135 -0.6842 -0.3982 -0.1252
  524MOL0     C70668   1.322   1.085   3.060 -0.4702 -0.7087 -0.7567
  524MOL0     C70669   1.386   1.021   2.944  0.2948 -0.8937 -0.3901
  524MOL0     C70670   1.437   0.967   2.849  0.5964 -0.5224  0.5440
  524MOL0     C70671   1.795   1.406   3.410 -0.1145 -1.1938  0.5594
  524MOL0     C70672   1.876   1.497   3.483  0.1337 -0.0588  0.2010
  524MOL0     H70673   2.131   1.594   3.929  0.3003 -1.4334 -0.5421
  524MOL0     H70674   2.274   1.743   4.045  2.2588  1.2352  0.4395
  524MOL0     H70675   2.562   1.999   3.807 -2.5306 -1.3961 -1.4060
  524MOL0     H70676   2.431   2.105   3.828  0.6407  1.0928  0.1102
  524MOL0     H70677   2.624   2.204   3.944  0.0772 -0.4605 -0.4727
  524MOL0     H70678   2.485   2.170   4.054 -0.7122 -0.7146 -0.4136
  524MOL0     H70679   2.631   1.967   4.119  0.5812 -1.1734 -1.1988
  524MOL0     H70680   2.747   2.012   3.997 -1.8334 -0.2245 -3.0655
  524MOL0     H70681   2.827   2.093   4.201 -0.0824 -1.6095 -1.2186
  524MOL0     H70682   2.786   2.229   4.101 -1.8584 -0.2776 -0.3015
  524MOL0     H70683   2.750   2.260   4.333  1.5020 -4.4941  2.4191
  524MOL0     H70684   2.610   2.298   4.233  0.6723  0.6181  2.4534
  524MOL0     H70685   2.505   2.078   4.349  1.4797 -3.5872 -0.3594
  524MOL0     H70686   2.672   2.050   4.412  1.3857  0.7410  0.0919
  524MOL0     H70687   2.521   2.127   4.574 -3.0536  0.2315 -1.9893
  524MOL0     H70688   2.637   2.258   4.558 -3.1414  1.8922  2.0239
  524MOL0     H70689   2.474   2.357   4.383  3.3415 -2.6220 -0.5254
  524MOL0     H70690   2.445   2.375   4.569 -2.2858  0.2964 -0.1088
  524MOL0     H70691   2.306   2.296   4.224 -4.3783  2.0898 -1.5778
  524MOL0     H70692   1.951   2.154   4.251  0.8818  0.6948  2.5683
  524MOL0     H70693   2.017   2.290   4.175 -3.3105 -0.6918 -0.7684
  524MOL0     H70694   2.140   2.010   4.140 -0.4856 -1.0674 -0.9006
  524MOL0     H70695   2.170   2.166   4.045  1.8956 -2.0899  1.1041
  524MOL0     H70696   2.045   1.995   3.912 -0.4269  0.8253 -0.6257
  524MOL0     H70697   1.956   2.140   3.934 -2.3910 -0.5041  0.6520
  524MOL0     H70698   1.929   1.907   4.135  1.1371 -1.1385 -0.8085
  524MOL0     H70699   1.857   1.881   3.984  2.8263 -0.3204 -1.8645
  524MOL0     H70700   1.658   2.254   4.132  1.3327  0.9256 -0.9979
  524MOL0     H70701   1.413   2.460   4.015  0.1132  0.3916 -2.4097
  524MOL0     H70702   1.548   2.433   4.122  3.3078  1.3410 -1.1255
  524MOL0     H70703   1.573   2.510   3.961 -0.3171  0.3915  0.9950
  524MOL0     H70704   1.195   2.291   3.507  0.4590 -2.3730 -0.9686
  524MOL0     H70705   1.102   2.447   3.342 -0.2209  1.3431  1.1832
  524MOL0     H70706   1.065   2.503   3.134  0.1792 -1.0167 -0.1401
  524MOL0     H70707   1.088   2.660   3.078 -0.1479  0.4398  0.1330
  524MOL0     H70708   1.270   2.593   2.917 -0.0813  1.1610  0.9712
  524MOL0     H70709   1.256   2.429   2.979 -0.9007 -0.5781  0.4443
  524MOL0     H70710   0.990   2.489   2.907 -2.0183 -1.7270 -3.4101
  524MOL0     H70711   1.108   2.399   2.807  2.5448  0.7094 -2.8662
  524MOL0     H70712   1.086   2.701   2.782  0.7945  0.8352 -0.7589
  524MOL0     H70713   1.184   2.593   2.692  0.5642 -3.6288  1.9654
  524MOL0     H70714   0.879   2.629   2.704 -1.7919  2.0827 -2.2210
  524MOL0     H70715   0.949   2.489   2.622 -3.9956  0.6504  1.5996
  524MOL0     H70716   1.080   2.650   2.479  2.0813 -0.0673  2.0431
  524MOL0     H70717   0.898   2.655   2.465  1.9667 -0.0979 -2.3538
  524MOL0     H70718   1.050   2.861   2.635 -0.9918 -1.7906  1.3327
  524MOL0     H70719   0.881   2.865   2.613 -0.3476  0.4215 -0.0986
  524MOL0     H70720   1.068   2.875   2.365 -0.9776 -0.3750 -0.8689
  524MOL0     H70721   1.001   3.022   2.431 -3.8766  1.5861 -1.9491
  524MOL0     H70722   1.484   2.620   3.265  0.6097 -0.7038  0.4973
  524MOL0     H70723   1.579   2.486   3.459 -0.7968  0.6025 -1.1244
  524MOL0     H70724   1.554   2.090   3.685 -2.8096  1.4869 -0.2807
  524MOL0     H70725   1.694   1.946   3.833 -0.1263 -0.0973  0.1666
  524MOL0     H70726   2.374   1.944   3.677  4.1228  0.7701  2.3176
  524MOL0     H70727   2.191   1.812   3.567 -1.2970 -3.5020  0.4886
  524MOL0     H70728   1.636   1.645   3.668  0.1947  3.1717 -2.4123
  524MOL0     H70729   1.493   1.504   3.533 -0.2399  1.2957 -0.2928
  524MOL0     H70730   1.447   1.264   3.471 -1.8459  2.9999 -0.5298
  524MOL0     H70731   1.388   1.383   3.359 -1.3978 -0.6373  1.7016
  524MOL0     H70732   1.275   1.205   3.283  0.2732  3.2041 -0.0151
  524MOL0     H70733   1.403   1.090   3.343  0.1761 -0.6880 -1.4332
  524MOL0     H70734   1.520   1.155   3.117  0.0668 -0.2674  3.3685
  524MOL0     H70735   1.386   1.283   3.102 -2.8264 -0.6958  0.7265
  524MOL0     H70736   1.234   1.143   3.032 -0.5230 -0.0158  0.7259
  524MOL0     H70737   1.290   1.009   3.132 -0.1142 -0.6940 -0.5756
  524MOL0     H70738   1.488   0.898   2.783 -1.0943 -0.6114 -0.7510
  524MOL0     H70739   1.841   1.355   3.327  0.1095  1.2605 -0.9238
  524MOL0     H70740   1.980   1.510   3.456 -0.4631  4.0784 -0.7879
  525MOL0     O70741   2.164   6.122   0.491 -0.8080  0.0954  0.3456
  525MOL0     C70742   2.095   6.125   0.590  0.1395 -0.4803 -0.9774
  525MOL0     O70743   1.966   6.168   0.605  0.2459  0.3541  0.4757
  525MOL0     C70744   1.916   6.214   0.488 -0.0891  0.0544  0.6047
  525MOL0     C70745   1.847   6.123   0.405  0.0220  0.1303 -0.6668
  525MOL0     C70746   1.796   6.161   0.281 -0.7155 -0.5784  0.2759
  525MOL0     C70747   1.815   6.293   0.230  0.8421  0.7632 -0.4698
  525MOL0     O70748   1.768   6.346   0.115 -0.4482 -0.2870  0.3266
  525MOL0     C70749   1.645   6.290   0.073 -0.6652  0.5424 -0.7011
  525MOL0     C70750   1.559   6.386  -0.008 -0.3361 -0.3996  0.4764
  525MOL0     C70751   1.639   6.414  -0.137 -0.2762  0.2235 -0.1522
  525MOL0     C70752   1.572   6.506  -0.235  0.1292  0.1115  0.4310
  525MOL0     C70753   1.639   6.507  -0.379 -0.8158 -0.9899 -0.2920
  525MOL0     C70754   1.596   6.623  -0.476  0.1180  0.7057 -0.9341
  525MOL0     C70755   1.443   6.626  -0.490 -0.7250  0.4002  0.9817
  525MOL0     C70756   1.403   6.738  -0.585  0.1500 -0.5866  0.2151
  525MOL0     N70757   1.416   6.702  -0.722  0.4549  0.0755  0.2405
  525MOL0     C70758   1.532   6.718  -0.787 -0.4646  0.5619  0.7350
  525MOL0     C70759   1.524   6.651  -0.904  0.1288 -0.9995 -0.0791
  525MOL0     C70760   1.617   6.635  -1.026  0.6962  0.1399  0.1169
  525MOL0     C70761   1.547   6.663  -1.154 -1.2106  0.4397  0.1372
  525MOL0     C70762   1.662   6.708  -1.249 -0.6543 -0.2645  0.2425
  525MOL0     C70763   1.586   6.734  -1.393 -0.1068 -0.2926 -0.8855
  525MOL0     O70764   1.569   6.879  -1.410 -0.0555 -0.2622  0.1866
  525MOL0     C70765   1.501   6.938  -1.511 -0.0346  0.8050  1.2029
  525MOL0     C70766   1.437   6.863  -1.604 -0.7373  0.2113  0.7289
  525MOL0     C70767   1.377   6.915  -1.720  0.4835  0.0420 -0.2593
  525MOL0     C70768   1.320   6.831  -1.827  0.2172 -0.2540 -0.4145
  525MOL0     C70769   1.381   7.057  -1.746  0.3244  0.3121  0.0632
  525MOL0     C70770   1.322   7.135  -1.860  0.4755 -0.0243 -0.0401
  525MOL0     O70771   1.235   7.066  -1.939  0.2571 -0.4344  0.5481
  525MOL0     C70772   1.173   7.132  -2.045  0.0471  0.4971 -0.4064
  525MOL0     C70773   1.081   7.239  -2.033 -0.4113 -1.1635 -0.0026
  525MOL0     C70774   1.016   7.302  -2.139  0.4674  0.4995  0.7196
  525MOL0     C70775   1.054   7.270  -2.273 -0.0306 -0.4388  0.5152
  525MOL0     O70776   1.007   7.354  -2.377 -0.4767 -0.5318  0.3052
  525MOL0     C70777   1.092   7.364  -2.495 -0.1423  0.8945 -0.6262
  525MOL0     C70778   1.029   7.420  -2.608  0.5875 -0.6429 -0.1488
  525MOL0     C70779   0.905   7.353  -2.652  0.3189  0.2988  0.4402
  525MOL0     C70780   0.836   7.405  -2.772 -0.3157 -0.0071 -0.1897
  525MOL0     C70781   0.900   7.376  -2.903  0.1319 -0.3146  0.7982
  525MOL0     C70782   0.801   7.411  -3.011  0.6662 -0.3642 -0.2534
  525MOL0     C70783   0.846   7.354  -3.142  1.0880 -0.4233  0.3582
  525MOL0     C70784   0.751   7.374  -3.259 -0.3960 -0.0838  0.1229
  525MOL0    Cl70785   0.824   7.325  -3.415  0.0659  0.6131 -0.1772
  525MOL0     C70786   1.149   7.168  -2.285  0.3519 -0.3188  0.8478
  525MOL0     C70787   1.203   7.098  -2.173 -0.2814 -0.7841  1.1034
  525MOL0     O70788   1.366   7.245  -1.885  0.2319  1.0810  0.1052
  525MOL0     C70789   1.439   7.139  -1.644 -0.5192  0.3689  0.0945
  525MOL0     C70790   1.487   7.071  -1.525 -0.3867 -0.6965 -1.0676
  525MOL0     N70791   1.393   6.592  -0.904 -0.9019 -0.5977  0.4010
  525MOL0     N70792   1.334   6.620  -0.792  0.2137 -0.3297 -0.4613
  525MOL0     C70793   1.899   6.377   0.303  0.6189 -0.3724  0.6565
  525MOL0     C70794   1.932   6.346   0.438 -0.2565 -0.0708 -0.2183
  525MOL0     C70795   2.147   6.064   0.717  0.7356  0.5971 -0.8833
  525MOL0     C70796   2.079   6.085   0.833 -0.1016  0.1234 -0.0717
  525MOL0     C70797   2.122   6.041   0.953  1.2287 -0.2161  0.6108
  525MOL0     C70798   2.231   5.955   0.960 -1.1320  0.3095  0.1696
  525MOL0     O70799   2.271   5.881   1.073  0.2464 -0.7275  0.2891
  525MOL0     C70800   2.178   5.882   1.184 -0.0285  0.5960 -0.3374
  525MOL0     C70801   2.046   5.796   1.143 -1.0179 -0.0007 -0.0760
  525MOL0     C70802   1.916   5.854   1.194 -0.0270  0.1233 -1.0239
  525MOL0     C70803   1.891   5.856   1.345  0.5545  0.2369 -0.0104
  525MOL0     C70804   1.955   5.965   1.417 -0.1261  0.3843  0.3499
  525MOL0     C70805   2.015   6.062   1.465 -0.3160  0.9014 -0.0513
  525MOL0     C70806   2.306   5.926   0.844  0.1575  0.3862 -1.0861
  525MOL0     C70807   2.264   5.994   0.722  0.3663 -0.9436 -0.5551
  525MOL0     H70808   1.824   6.021   0.433 -4.6130  1.5068  1.5614
  525MOL0     H70809   1.754   6.082   0.219 -0.0321 -0.2574 -0.6219
  525MOL0     H70810   1.670   6.207   0.006 -0.5985 -0.4442  0.5142
  525MOL0     H70811   1.584   6.249   0.154 -0.5340  1.3189 -0.2029
  525MOL0     H70812   1.458   6.347  -0.027 -0.6733  0.7882 -0.3122
  525MOL0     H70813   1.545   6.480   0.047  0.7465  0.0911 -0.0614
  525MOL0     H70814   1.740   6.444  -0.107 -0.5984 -0.5410  1.8585
  525MOL0     H70815   1.640   6.316  -0.186  3.0867 -0.2453  0.6072
  525MOL0     H70816   1.471   6.469  -0.254 -0.3756  1.5912  0.1464
  525MOL0     H70817   1.576   6.610  -0.201  1.3169  0.4225 -0.5580
  525MOL0     H70818   1.746   6.512  -0.359 -0.4335  0.9149 -2.4057
  525MOL0     H70819   1.611   6.422  -0.441 -1.7394  0.8820 -2.5653
  525MOL0     H70820   1.637   6.713  -0.430  0.9440 -1.3944  2.8832
  525MOL0     H70821   1.645   6.621  -0.573 -1.0840 -1.4348 -1.5837
  525MOL0     H70822   1.407   6.530  -0.529 -1.5388  2.2021 -3.1644
  525MOL0     H70823   1.403   6.639  -0.389  0.8486 -0.6231  1.7920
  525MOL0     H70824   1.457   6.833  -0.573 -0.1503 -0.5292  1.2028
  525MOL0     H70825   1.296   6.759  -0.572 -0.5317 -2.9129 -1.0627
  525MOL0     H70826   1.612   6.782  -0.750 -2.6988  3.1846  1.3339
  525MOL0     H70827   1.701   6.704  -1.012  2.2275 -1.0465 -2.6486
  525MOL0     H70828   1.658   6.535  -1.034 -1.5556 -0.8359 -0.0279
  525MOL0     H70829   1.467   6.733  -1.129 -2.0187 -0.5609  0.4284
  525MOL0     H70830   1.510   6.582  -1.217  1.3385 -2.0762  1.6314
  525MOL0     H70831   1.737   6.630  -1.266  0.2509 -0.2838  3.6244
  525MOL0     H70832   1.719   6.799  -1.232  1.1537 -1.4479  0.8536
  525MOL0     H70833   1.492   6.681  -1.414  0.6915 -1.5431 -1.3911
  525MOL0     H70834   1.657   6.698  -1.468  1.9581 -1.3106  1.4269
  525MOL0     H70835   1.456   6.757  -1.617  1.1499  0.5505  0.5220
  525MOL0     H70836   1.215   6.851  -1.852 -0.7216 -5.4340 -1.8717
  525MOL0     H70837   1.384   6.836  -1.916  0.1421 -1.0878 -0.5314
  525MOL0     H70838   1.328   6.728  -1.789  2.2706  1.1857  3.6607
  525MOL0     H70839   1.062   7.258  -1.928 -0.9029  0.1575 -0.3158
  525MOL0     H70840   0.948   7.386  -2.138  0.7824  0.8298  4.0017
  525MOL0     H70841   1.187   7.413  -2.473 -0.1632  0.6518  0.0224
  525MOL0     H70842   1.130   7.264  -2.519 -0.0727 -0.0865  3.0506
  525MOL0     H70843   0.992   7.521  -2.589 -0.4876 -0.8543 -1.0411
  525MOL0     H70844   1.100   7.429  -2.691 -0.1748  4.6632 -0.5686
  525MOL0     H70845   0.838   7.364  -2.566  1.3314 -0.0359  1.2911
  525MOL0     H70846   0.934   7.248  -2.660 -0.9688 -0.1715  1.5725
  525MOL0     H70847   0.732   7.373  -2.762 -0.3289  0.7403  3.7365
  525MOL0     H70848   0.839   7.514  -2.773  2.5267 -0.0016 -1.5402
  525MOL0     H70849   0.917   7.268  -2.916 -0.9400 -0.2142 -2.3545
  525MOL0     H70850   0.998   7.423  -2.916  0.1341  0.4232  3.0810
  525MOL0     H70851   0.708   7.358  -2.987  0.8281 -1.2959 -1.6295
  525MOL0     H70852   0.786   7.519  -3.012 -0.6504 -0.5286 -0.5143
  525MOL0     H70853   0.862   7.246  -3.135 -1.3179 -0.8777 -0.4414
  525MOL0     H70854   0.934   7.416  -3.163 -1.5338  3.0547 -1.5783
  525MOL0     H70855   0.720   7.478  -3.248 -0.1554 -0.1574  1.6893
  525MOL0     H70856   0.668   7.306  -3.238 -1.0074  1.2774  2.4354
  525MOL0     H70857   1.187   7.143  -2.383  2.2808  7.2910 -0.9701
  525MOL0     H70858   1.270   7.013  -2.185 -1.2295 -1.1870 -2.3565
  525MOL0     H70859   1.449   7.245  -1.661 -0.8409  0.0559 -2.4591
  525MOL0     H70860   1.522   7.134  -1.444  2.0304  0.0437 -2.5911
  525MOL0     H70861   1.919   6.477   0.266  1.4426  0.5608  3.4227
  525MOL0     H70862   1.984   6.425   0.490  2.2843 -2.0750  0.5058
  525MOL0     H70863   1.984   6.138   0.835 -0.6838 -0.7683 -1.8240
  525MOL0     H70864   2.071   6.078   1.042  2.6265  1.8914  0.6129
  525MOL0     H70865   2.225   5.832   1.269 -0.4489  2.0656  0.8023
  525MOL0     H70866   2.146   5.982   1.215 -2.0462 -0.1739  0.2605
  525MOL0     H70867   2.042   5.693   1.180 -1.5995 -1.1496 -3.0890
  525MOL0     H70868   2.044   5.790   1.034  4.4288 -2.2759 -0.3632
  525MOL0     H70869   1.840   5.795   1.142  0.4469  0.3871 -2.0363
  525MOL0     H70870   1.911   5.955   1.152 -2.3323  0.4982 -0.0215
  525MOL0     H70871   1.923   5.758   1.381 -2.2455 -0.0676  1.9972
  525MOL0     H70872   1.782   5.865   1.350  0.4596  1.0544 -2.1564
  525MOL0     H70873   2.062   6.134   1.528 -1.4111  1.2532  0.3834
  525MOL0     H70874   2.388   5.858   0.867 -1.4357 -1.7656 -1.4985
  525MOL0     H70875   2.316   5.985   0.627  3.4553 -0.6030  0.9783
  526MOL0     O70876   9.802   5.283  10.567 -1.1403 -0.5269 -0.2230
  526MOL0     C70877   9.719   5.282  10.659  0.8126  0.2662 -0.2253
  526MOL0     O70878   9.580   5.272  10.636  0.1681  1.1526  0.0608
  526MOL0     C70879   9.528   5.298  10.515 -1.0567 -0.4481  0.8962
  526MOL0     C70880   9.433   5.405  10.508 -0.7133  0.5736  0.1791
  526MOL0     C70881   9.381   5.445  10.392 -0.1375 -0.4669  0.2964
  526MOL0     C70882   9.429   5.401  10.276  0.7302  0.6453  0.2056
  526MOL0     O70883   9.391   5.434  10.148 -0.6098  0.3631  1.4420
  526MOL0     C70884   9.251   5.425  10.138  0.0822 -0.5298 -1.1444
  526MOL0     C70885   9.196   5.287  10.146  0.8766 -0.6876 -0.1279
  526MOL0     C70886   9.044   5.302  10.118 -0.5936 -0.4265  0.4600
  526MOL0     C70887   8.959   5.294  10.248 -0.1523  1.1914  0.1665
  526MOL0     C70888   8.816   5.338  10.237 -0.3520 -0.1482  0.0350
  526MOL0     C70889   8.716   5.242  10.165  0.0494 -0.4350  0.0213
  526MOL0     C70890   8.743   5.243  10.011  0.0667 -0.3674 -0.1829
  526MOL0     C70891   8.615   5.190   9.942  0.0560 -0.3045  0.2975
  526MOL0     N70892   8.596   5.050   9.961  0.0360  0.1000  0.1524
  526MOL0     C70893   8.532   4.996  10.063 -0.3472  0.4293  0.2443
  526MOL0     C70894   8.528   4.863  10.047  0.5604  0.3211 -0.3255
  526MOL0     C70895   8.450   4.774  10.140  0.6496 -0.6459 -0.6117
  526MOL0     C70896   8.381   4.660  10.061 -0.4136 -0.5732 -0.4024
  526MOL0     C70897   8.481   4.553  10.005 -0.8902  0.3306  0.1740
  526MOL0     C70898   8.443   4.405  10.015  0.8490  0.3326 -0.2715
  526MOL0     O70899   8.330   4.382   9.927  0.5136  0.5743  0.5626
  526MOL0     C70900   8.297   4.253   9.884  0.5534 -0.2535  0.4876
  526MOL0     C70901   8.337   4.134   9.936 -0.0577  0.1938 -0.3438
  526MOL0     C70902   8.289   4.014   9.890 -0.7638  1.3339 -1.1811
  526MOL0     C70903   8.342   3.889   9.963  0.0946 -0.4112 -0.7043
  526MOL0     C70904   8.200   4.010   9.783 -0.3572 -0.1201 -0.3794
  526MOL0     C70905   8.133   3.876   9.731 -0.1604 -0.1953  0.3686
  526MOL0     O70906   8.060   3.899   9.617  0.2294 -0.3847 -0.1623
  526MOL0     C70907   7.988   3.810   9.547  0.2911  1.6546  0.4111
  526MOL0     C70908   7.918   3.691   9.610 -0.5822 -0.7505 -0.6040
  526MOL0     C70909   7.829   3.610   9.541  0.1921 -0.5818 -0.1412
  526MOL0     C70910   7.795   3.637   9.406 -0.4297 -0.0743  0.0398
  526MOL0     O70911   7.703   3.574   9.336 -0.9601  0.1625  0.0660
  526MOL0     C70912   7.653   3.452   9.369 -0.1124 -0.3635  0.4695
  526MOL0     C70913   7.557   3.387   9.257 -0.5444  0.2614 -0.3084
  526MOL0     C70914   7.636   3.356   9.123 -0.8698 -0.4785 -0.4345
  526MOL0     C70915   7.554   3.320   9.003  0.4723  0.5479 -0.6970
  526MOL0     C70916   7.641   3.230   8.912 -0.2693 -0.2721 -0.0862
  526MOL0     C70917   7.695   3.310   8.799 -0.0544 -0.2329  1.1985
  526MOL0     C70918   7.805   3.224   8.730  0.8397  0.3116  0.8582
  526MOL0     C70919   7.865   3.279   8.599 -0.4418  0.1804  0.1134
  526MOL0    Cl70920   7.755   3.253   8.451 -0.2180 -0.1954 -0.0377
  526MOL0     C70921   7.862   3.754   9.345  0.0432 -0.6538  0.1480
  526MOL0     C70922   7.953   3.832   9.414  0.0217 -0.5367  0.1493
  526MOL0     O70923   8.139   3.775   9.789 -0.5865  0.0555 -0.0301
  526MOL0     C70924   8.156   4.126   9.726 -0.0891 -0.0919  0.5310
  526MOL0     C70925   8.202   4.252   9.777  0.3708  0.5374 -0.1267
  526MOL0     N70926   8.595   4.837   9.931 -0.3595  0.4775  1.4456
  526MOL0     N70927   8.642   4.952   9.885  0.1302 -0.0957 -0.2644
  526MOL0     C70928   9.533   5.301  10.271 -0.0429  0.0878  0.8039
  526MOL0     C70929   9.573   5.243  10.389 -1.0929  0.2639 -0.8179
  526MOL0     C70930   9.782   5.294  10.796  0.2959 -0.0335  1.0118
  526MOL0     C70931   9.915   5.316  10.814 -1.1121 -0.6712  0.4420
  526MOL0     C70932   9.961   5.346  10.944 -0.0432 -0.0813 -1.1067
  526MOL0     C70933   9.881   5.345  11.054  0.4016 -0.0263 -0.8722
  526MOL0     O70934   9.927   5.347  11.185 -0.3073  0.6671 -0.0632
  526MOL0     C70935   9.918   5.463  11.253  0.2101 -0.4865  0.3479
  526MOL0     C70936   9.814   5.449  11.361  0.0253 -0.6601  0.4098
  526MOL0     C70937   9.836   5.341  11.472 -0.5948  0.4386  0.8817
  526MOL0     C70938   9.725   5.325  11.571 -1.0506 -0.3118 -0.4805
  526MOL0     C70939   9.718   5.435  11.673  0.4708 -0.8410  0.0396
  526MOL0     C70940   9.731   5.528  11.746  0.3786  0.2696  1.1872
  526MOL0     C70941   9.750   5.312  11.028 -0.0537 -0.4644 -0.2360
  526MOL0     C70942   9.702   5.288  10.902 -0.3442 -0.7709 -0.4542
  526MOL0     H70943   9.406   5.453  10.602 -1.1736 -2.1961  1.5540
  526MOL0     H70944   9.306   5.523  10.389  0.2683  0.0187  1.8074
  526MOL0     H70945   9.202   5.489  10.212  0.0738 -0.8989 -0.8282
  526MOL0     H70946   9.216   5.461  10.041 -0.4380  0.0191 -0.7610
  526MOL0     H70947   9.244   5.226  10.069  1.6973 -1.1621  0.7393
  526MOL0     H70948   9.210   5.233  10.240  0.8183  1.0371  0.9206
  526MOL0     H70949   9.023   5.402  10.077  1.2925 -0.2032 -0.0879
  526MOL0     H70950   9.004   5.230  10.047 -0.2651  0.0245 -0.2021
  526MOL0     H70951   8.962   5.191  10.285  2.2330  0.5703 -1.5129
  526MOL0     H70952   9.001   5.359  10.325  1.2173  0.6536 -0.1010
  526MOL0     H70953   8.781   5.352  10.340 -0.2401  1.4079 -0.1222
  526MOL0     H70954   8.803   5.438  10.196 -0.7667 -0.1657  0.1264
  526MOL0     H70955   8.728   5.135  10.185 -1.2968 -0.9021 -1.4945
  526MOL0     H70956   8.615   5.276  10.189 -0.7997 -2.0956 -0.9818
  526MOL0     H70957   8.754   5.343   9.969  0.2349 -0.8781 -1.4038
  526MOL0     H70958   8.819   5.178   9.967 -1.3356 -1.6213 -0.8730
  526MOL0     H70959   8.626   5.208   9.834  0.2405 -0.4872  0.2854
  526MOL0     H70960   8.528   5.244   9.981 -0.1716 -0.7307  0.3801
  526MOL0     H70961   8.498   5.054  10.148  0.7686  0.8124  0.4414
  526MOL0     H70962   8.520   4.732  10.213 -0.4092  0.0245  0.8361
  526MOL0     H70963   8.371   4.825  10.196  1.2005  1.5051 -1.6985
  526MOL0     H70964   8.318   4.695   9.978 -0.4625 -1.9144 -0.9517
  526MOL0     H70965   8.320   4.608  10.136  0.6782  1.2481  1.8637
  526MOL0     H70966   8.581   4.567  10.046  0.4526 -2.4914 -1.8086
  526MOL0     H70967   8.494   4.575   9.899  2.4942  0.3351  0.4956
  526MOL0     H70968   8.418   4.381  10.119 -0.3932 -0.3039 -0.6993
  526MOL0     H70969   8.527   4.346   9.978 -0.5815 -2.1546  0.1949
  526MOL0     H70970   8.390   4.132  10.031 -1.5181  2.1825  0.6066
  526MOL0     H70971   8.434   3.913  10.017  0.5021 -0.8427 -1.1893
  526MOL0     H70972   8.262   3.860  10.031 -1.7627 -0.9130 -2.9891
  526MOL0     H70973   8.357   3.805   9.895  1.6008  0.7150 -1.8426
  526MOL0     H70974   7.926   3.676   9.717  0.5927  3.0039 -0.0180
  526MOL0     H70975   7.790   3.529   9.602  1.1367  1.2428  3.1418
  526MOL0     H70976   7.742   3.390   9.379 -1.5122 -2.8168 -1.1165
  526MOL0     H70977   7.604   3.441   9.466 -1.2660 -0.9242 -0.1551
  526MOL0     H70978   7.510   3.291   9.280  0.7061 -0.4962 -0.7718
  526MOL0     H70979   7.481   3.465   9.243 -0.1444  0.4505 -1.5678
  526MOL0     H70980   7.700   3.272   9.152 -0.3246 -0.8032 -2.4046
  526MOL0     H70981   7.694   3.446   9.103 -1.6770  0.9566  3.0267
  526MOL0     H70982   7.478   3.257   9.050  2.7834 -1.5505  0.4233
  526MOL0     H70983   7.498   3.403   8.958 -0.6144  0.7456  0.9268
  526MOL0     H70984   7.577   3.147   8.880  0.2292 -1.7583  2.5199
  526MOL0     H70985   7.732   3.184   8.950 -0.4455 -0.9829 -0.5063
  526MOL0     H70986   7.611   3.326   8.730 -2.0784 -2.1108  3.0610
  526MOL0     H70987   7.735   3.405   8.837 -0.5263  0.2115  0.6029
  526MOL0     H70988   7.751   3.131   8.711 -2.3945  1.8426  1.7297
  526MOL0     H70989   7.883   3.206   8.805 -1.1814  2.1583  3.6239
  526MOL0     H70990   7.956   3.219   8.590 -1.3907 -1.2406 -0.4290
  526MOL0     H70991   7.896   3.383   8.611  1.2247 -0.4995  2.5697
  526MOL0     H70992   7.831   3.772   9.242  1.2329  3.2192  0.3278
  526MOL0     H70993   7.985   3.920   9.359  0.4305 -0.2356  0.8408
  526MOL0     H70994   8.079   4.133   9.650  1.8611 -1.4905 -1.7305
  526MOL0     H70995   8.153   4.343   9.743  2.6661  2.1913  0.7637
  526MOL0     H70996   9.573   5.254  10.181  0.1234 -4.2243  2.8451
  526MOL0     H70997   9.653   5.170  10.396 -0.5313  0.5004 -3.7278
  526MOL0     H70998   9.987   5.329  10.735 -0.9977 -1.7416  0.3558
  526MOL0     H70999  10.068   5.364  10.957  0.2648 -2.7944  0.8461
  526MOL0     H71000  10.014   5.490  11.298 -0.3213  2.7799 -0.1742
  526MOL0     H71001   9.868   5.541  11.194  2.3785  1.0149  0.3659
  526MOL0     H71002   9.718   5.425  11.315 -0.6183  1.8273  0.3390
  526MOL0     H71003   9.791   5.544  11.409 -1.9746 -2.1381  2.5848
  526MOL0     H71004   9.927   5.374  11.522  2.5978 -3.4232 -1.7739
  526MOL0     H71005   9.868   5.252  11.418  0.0566  2.1957 -1.8471
  526MOL0     H71006   9.744   5.225  11.612  1.2131  0.5132  0.6395
  526MOL0     H71007   9.636   5.332  11.507 -1.6936 -0.6787  0.3574
  526MOL0     H71008   9.718   5.601  11.823  0.6437  0.1468  1.3497
  526MOL0     H71009   9.683   5.319  11.113 -1.0151  1.0157 -1.0663
  526MOL0     H71010   9.593   5.286  10.901 -0.6543  2.3657  3.6095
  527MOL0     O71011   1.384   1.745   6.323 -0.3825  0.1378 -0.0797
  527MOL0     C71012   1.377   1.667   6.229  0.3698  0.0128 -0.4933
  527MOL0     O71013   1.256   1.650   6.158 -0.0752 -0.2027  0.3141
  527MOL0     C71014   1.133   1.700   6.214 -0.2805  0.5041 -0.2855
  527MOL0     C71015   1.049   1.607   6.279 -0.2622 -0.4754  0.0694
  527MOL0     C71016   0.933   1.653   6.342 -0.0492 -0.1908  0.1315
  527MOL0     C71017   0.905   1.795   6.351  0.2462  0.2252  0.8382
  527MOL0     O71018   0.806   1.822   6.439  0.4863 -0.0711 -0.3052
  527MOL0     C71019   0.770   1.960   6.453  0.7871 -0.2270  0.2624
  527MOL0     C71020   0.666   1.987   6.564  0.5543 -0.0489 -0.0554
  527MOL0     C71021   0.725   1.940   6.697 -0.9132 -0.2729 -0.2249
  527MOL0     C71022   0.682   1.802   6.744  0.2486 -0.4375 -0.0938
  527MOL0     C71023   0.743   1.751   6.877  0.5916 -0.2916 -0.2087
  527MOL0     C71024   0.720   1.601   6.882  0.6442 -0.3579 -0.9208
  527MOL0     C71025   0.760   1.534   7.016 -0.3635  0.6167  1.0341
  527MOL0     C71026   0.717   1.388   7.019 -0.2754 -0.0931  0.0902
  527MOL0     N71027   0.659   1.369   7.154 -0.3191 -0.4252 -0.9666
  527MOL0     C71028   0.717   1.324   7.266 -0.4568 -0.4519 -0.6708
  527MOL0     C71029   0.622   1.343   7.358  0.5420  0.7321 -0.1806
  527MOL0     C71030   0.633   1.306   7.502 -0.0695  0.5113  0.5264
  527MOL0     C71031   0.567   1.410   7.587  0.4189  0.6986 -0.1788
  527MOL0     C71032   0.560   1.365   7.737 -0.5006 -0.1019  0.1836
  527MOL0     C71033   0.691   1.352   7.809 -0.0882 -1.0067 -0.1709
  527MOL0     O71034   0.766   1.233   7.804 -0.4365  0.0020 -0.5199
  527MOL0     C71035   0.712   1.124   7.864 -0.0579 -0.0701 -0.3486
  527MOL0     C71036   0.637   1.027   7.799 -0.3470  0.0529 -0.3033
  527MOL0     C71037   0.586   0.919   7.857  0.0120 -0.1376 -0.2370
  527MOL0     C71038   0.508   0.831   7.766  0.7640  0.4597 -0.3347
  527MOL0     C71039   0.594   0.900   7.993  0.0005  0.1788 -0.4783
  527MOL0     C71040   0.537   0.792   8.088 -0.3706  0.4010 -0.6121
  527MOL0     O71041   0.560   0.810   8.215 -0.4383 -0.6956  1.1066
  527MOL0     C71042   0.484   0.736   8.298 -0.2450 -0.2051 -0.1241
  527MOL0     C71043   0.349   0.767   8.320 -0.4658  0.1376  0.4107
  527MOL0     C71044   0.278   0.689   8.418  0.1572  0.3435  0.0716
  527MOL0     C71045   0.334   0.587   8.489 -1.2210 -0.0692 -0.0577
  527MOL0     O71046   0.272   0.500   8.576 -0.6858  0.3972 -0.6394
  527MOL0     C71047   0.133   0.530   8.614 -1.1203 -0.5870 -0.2706
  527MOL0     C71048   0.102   0.457   8.745 -0.7770  0.3513 -1.5487
  527MOL0     C71049  -0.034   0.385   8.746 -0.4283 -1.1166 -0.4271
  527MOL0     C71050  -0.056   0.292   8.855  0.6720  0.6557 -0.6639
  527MOL0     C71051  -0.187   0.209   8.835  0.1812  0.6442  0.6526
  527MOL0     C71052  -0.203   0.107   8.950  0.8625  0.1339 -0.3641
  527MOL0     C71053  -0.329   0.023   8.923 -0.5504  0.4783 -0.2159
  527MOL0     C71054  -0.464   0.095   8.947  0.6583 -0.0560 -0.4127
  527MOL0    Cl71055  -0.516   0.105   9.123  0.3748  0.0549  0.2131
  527MOL0     C71056   0.473   0.558   8.461  0.9188 -1.5495  0.3810
  527MOL0     C71057   0.547   0.638   8.366  0.8530 -0.1329 -0.2589
  527MOL0     O71058   0.453   0.715   8.044  0.6239 -0.8813  0.0577
  527MOL0     C71059   0.682   0.994   8.061  0.4240 -1.0606  0.3219
  527MOL0     C71060   0.739   1.104   8.004  0.5587 -0.0060 -0.5992
  527MOL0     N71061   0.515   1.406   7.301 -0.0762 -0.5665 -0.2034
  527MOL0     N71062   0.536   1.416   7.183  0.2961  0.0926  0.0489
  527MOL0     C71063   0.991   1.886   6.272 -0.4287 -0.7789  0.4978
  527MOL0     C71064   1.104   1.834   6.210  0.2097  0.5354 -0.5318
  527MOL0     C71065   1.503   1.620   6.168  0.1856 -0.7317  0.3155
  527MOL0     C71066   1.614   1.712   6.176 -0.0993  0.0776 -0.3611
  527MOL0     C71067   1.741   1.672   6.126 -0.1719  0.6415  0.2714
  527MOL0     C71068   1.759   1.548   6.067 -0.4634 -0.5343  0.4892
  527MOL0     O71069   1.890   1.524   6.035  0.0102  0.2252 -0.3365
  527MOL0     C71070   1.931   1.389   6.030 -0.2035  0.8725 -0.1657
  527MOL0     C71071   2.081   1.390   6.059 -0.5463  1.0814  0.1770
  527MOL0     C71072   2.131   1.249   6.064  0.4693  0.2822  0.1465
  527MOL0     C71073   2.282   1.238   6.029 -0.4166  0.2625  0.9180
  527MOL0     C71074   2.334   1.292   5.900  0.0928 -0.3029 -0.4122
  527MOL0     C71075   2.385   1.339   5.799  0.0490 -0.1687  0.0627
  527MOL0     C71076   1.648   1.463   6.065 -0.1020 -0.1204 -0.9227
  527MOL0     C71077   1.520   1.492   6.107  0.6100  0.4719 -0.4743
  527MOL0     H71078   1.096   1.509   6.281  2.1203  0.6021  1.8019
  527MOL0     H71079   0.866   1.590   6.399 -1.8989  0.0316 -1.6992
  527MOL0     H71080   0.857   2.020   6.481  1.6452 -0.5960 -1.4846
  527MOL0     H71081   0.743   1.997   6.354 -1.3226 -0.6766  0.6138
  527MOL0     H71082   0.635   2.092   6.566  0.0351 -0.2022  0.9314
  527MOL0     H71083   0.585   1.922   6.529 -1.5998  3.3558 -1.9501
  527MOL0     H71084   0.834   1.956   6.699 -0.6347 -1.9768 -0.5627
  527MOL0     H71085   0.696   2.010   6.776  2.7951 -0.2924  1.4109
  527MOL0     H71086   0.576   1.818   6.764  0.5895  1.9939  0.1201
  527MOL0     H71087   0.713   1.720   6.678  1.8889 -1.8897  2.3183
  527MOL0     H71088   0.847   1.785   6.885  0.1854  0.5738  1.9889
  527MOL0     H71089   0.686   1.795   6.959  0.8701  0.7140 -0.5382
  527MOL0     H71090   0.612   1.583   6.869  0.2022  2.0376 -1.0407
  527MOL0     H71091   0.765   1.551   6.795 -0.9511 -4.2137  0.2401
  527MOL0     H71092   0.868   1.547   7.029 -0.3439 -0.4606  2.2384
  527MOL0     H71093   0.714   1.595   7.094 -0.9190  0.6231  0.7031
  527MOL0     H71094   0.797   1.315   7.006 -2.0443 -1.9555 -0.9424
  527MOL0     H71095   0.639   1.382   6.942  1.0284 -0.9501 -1.2318
  527MOL0     H71096   0.819   1.285   7.273  2.4403  5.3014 -3.7527
  527MOL0     H71097   0.591   1.208   7.524 -1.0893  1.0642  1.0999
  527MOL0     H71098   0.740   1.314   7.524  0.3350  1.0383 -1.4436
  527MOL0     H71099   0.464   1.434   7.558 -1.2173 -3.4568  1.3805
  527MOL0     H71100   0.606   1.511   7.575 -1.8400  1.8520  1.4647
  527MOL0     H71101   0.507   1.270   7.746 -0.3688  0.0135  2.9219
  527MOL0     H71102   0.510   1.452   7.782  1.1898 -0.3471  2.7490
  527MOL0     H71103   0.669   1.385   7.910 -4.3236  2.2396 -1.8722
  527MOL0     H71104   0.760   1.422   7.760  0.8990 -2.9735 -1.7734
  527MOL0     H71105   0.624   1.054   7.695 -1.2861  2.1132  0.3012
  527MOL0     H71106   0.400   0.838   7.784  0.4430  1.9306 -2.4204
  527MOL0     H71107   0.525   0.841   7.658  1.7471  0.3756 -0.1984
  527MOL0     H71108   0.548   0.732   7.791  1.1025  0.5860 -0.3789
  527MOL0     H71109   0.305   0.847   8.262  0.0930  0.3784  0.3121
  527MOL0     H71110   0.177   0.719   8.443 -0.7022 -0.3658 -2.2905
  527MOL0     H71111   0.119   0.638   8.626 -2.7135 -0.9635  1.9951
  527MOL0     H71112   0.069   0.507   8.528 -0.6766  1.4622 -1.2160
  527MOL0     H71113   0.176   0.379   8.764 -1.2645 -0.4767 -2.8592
  527MOL0     H71114   0.098   0.531   8.825 -0.5514 -0.6577 -0.5865
  527MOL0     H71115  -0.042   0.325   8.654 -0.3341  0.4940 -1.5240
  527MOL0     H71116  -0.117   0.456   8.746 -1.7405 -2.5633  0.8840
  527MOL0     H71117   0.026   0.221   8.863  0.6390  0.7653  1.1143
  527MOL0     H71118  -0.047   0.341   8.952 -0.7577 -3.3212  1.6973
  527MOL0     H71119  -0.186   0.154   8.740 -0.1567 -0.6542  1.3799
  527MOL0     H71120  -0.272   0.277   8.835 -0.6299 -0.3340  0.0140
  527MOL0     H71121  -0.110   0.051   8.956 -1.0755 -3.4522 -1.3145
  527MOL0     H71122  -0.213   0.151   9.050  1.4253 -0.3375 -0.0921
  527MOL0     H71123  -0.329  -0.062   8.992 -1.1392 -0.2055 -1.0392
  527MOL0     H71124  -0.329  -0.017   8.821 -4.3121 -1.1057  0.2286
  527MOL0     H71125  -0.532   0.019   8.907  0.0681  0.8184 -1.1047
  527MOL0     H71126  -0.479   0.181   8.882  1.4619 -0.9836 -1.8920
  527MOL0     H71127   0.510   0.463   8.498  1.5281 -0.1271  3.7878
  527MOL0     H71128   0.649   0.622   8.333  0.0649 -0.4520 -2.7596
  527MOL0     H71129   0.717   0.982   8.163 -2.3271 -5.5571  1.0191
  527MOL0     H71130   0.795   1.176   8.061 -1.2876  2.8775 -2.1963
  527MOL0     H71131   0.975   1.993   6.268 -2.9154 -1.0141  1.7639
  527MOL0     H71132   1.165   1.896   6.145 -0.7438 -0.1200 -2.1146
  527MOL0     H71133   1.606   1.812   6.217  0.9728 -0.8773  2.4177
  527MOL0     H71134   1.810   1.756   6.122 -0.8734  1.3061  1.3931
  527MOL0     H71135   1.890   1.326   6.110 -1.8594  4.5090  2.1228
  527MOL0     H71136   1.895   1.352   5.933 -2.1977  2.1090  0.0279
  527MOL0     H71137   2.116   1.434   6.153 -0.5982  2.8697 -0.6024
  527MOL0     H71138   2.130   1.434   5.971  1.7199 -1.8125 -0.1615
  527MOL0     H71139   2.091   1.195   5.978  0.2934  0.9765 -0.2084
  527MOL0     H71140   2.130   1.200   6.163  4.2552  0.3562  0.3630
  527MOL0     H71141   2.301   1.130   6.038 -1.7199 -0.0405  0.2771
  527MOL0     H71142   2.325   1.293   6.113 -1.4637  1.7216  0.5487
  527MOL0     H71143   2.433   1.404   5.729  0.2540 -0.1437  0.2221
  527MOL0     H71144   1.666   1.375   6.004 -2.5240 -0.7181 -0.8923
  527MOL0     H71145   1.446   1.414   6.099  0.9069  0.2763 -1.3630
  528MOL0     O71146   5.280   8.392   4.925  0.5767 -0.9039 -0.6500
  528MOL0     C71147   5.385   8.381   4.865 -0.4393  0.1126 -0.4957
  528MOL0     O71148   5.508   8.430   4.916  0.4339  0.4370 -0.2759
  528MOL0     C71149   5.536   8.508   5.028  0.3821  0.5119 -0.3390
  528MOL0     C71150   5.675   8.539   5.049  0.3348  0.4441  0.4021
  528MOL0     C71151   5.714   8.612   5.153 -0.2449 -0.5434  0.6407
  528MOL0     C71152   5.632   8.671   5.245  0.1445 -0.0288 -0.3853
  528MOL0     O71153   5.666   8.731   5.363 -0.0802  0.7123 -0.2893
  528MOL0     C71154   5.801   8.730   5.407 -0.1055 -0.3346 -0.2383
  528MOL0     C71155   5.807   8.777   5.555  0.7701 -1.3806  0.0617
  528MOL0     C71156   5.743   8.915   5.571 -0.2900 -1.2951  0.4746
  528MOL0     C71157   5.709   8.953   5.718 -0.6890 -0.0603  0.6706
  528MOL0     C71158   5.656   9.092   5.737 -1.0688  0.5541  0.8741
  528MOL0     C71159   5.749   9.211   5.695  0.1526  0.5644  0.9924
  528MOL0     C71160   5.702   9.355   5.739  0.1746  0.7001 -0.1582
  528MOL0     C71161   5.743   9.421   5.869  0.6082  0.5277 -0.4745
  528MOL0     N71162   5.888   9.437   5.892 -0.2166  0.3025  0.6181
  528MOL0     C71163   5.967   9.502   5.804  0.5605 -0.8471 -0.4191
  528MOL0     C71164   6.087   9.516   5.877  0.1717  0.8451 -0.4007
  528MOL0     C71165   6.219   9.591   5.839  0.8124  0.3104 -0.9718
  528MOL0     C71166   6.275   9.568   5.702 -1.4143  0.1998 -0.3612
  528MOL0     C71167   6.281   9.696   5.620 -0.6085  1.2331 -0.2156
  528MOL0     C71168   6.146   9.737   5.562 -0.4060 -0.8771 -0.0342
  528MOL0     O71169   6.043   9.775   5.669 -0.3658  0.4587  0.7023
  528MOL0     C71170   5.984   9.897   5.655  0.7773  0.1269  1.1554
  528MOL0     C71171   6.059  10.011   5.646  0.1878  1.1131 -0.8680
  528MOL0     C71172   5.999  10.145   5.647  0.2901  0.1024  0.0404
  528MOL0     C71173   6.104  10.251   5.631 -0.5551  0.9053  0.2718
  528MOL0     C71174   5.856  10.155   5.658 -0.3668 -0.5126 -0.1305
  528MOL0     C71175   5.777  10.279   5.670 -0.9382 -0.4367  0.0716
  528MOL0     O71176   5.648  10.276   5.732  0.3262  0.2618  0.1428
  528MOL0     C71177   5.560  10.371   5.751 -0.1808 -0.1018  0.6329
  528MOL0     C71178   5.561  10.486   5.664  0.1554 -0.2284 -0.3366
  528MOL0     C71179   5.467  10.577   5.696  0.7931 -0.1788  0.0423
  528MOL0     C71180   5.363  10.564   5.787  1.1847  0.7072  0.7594
  528MOL0     O71181   5.271  10.669   5.800 -0.6103  0.1226  1.1985
  528MOL0     C71182   5.140  10.628   5.842  0.1249  0.2187 -0.4727
  528MOL0     C71183   5.070  10.534   5.740  0.0123 -1.1397 -0.3124
  528MOL0     C71184   4.912  10.533   5.740  1.0101  0.8194 -0.2919
  528MOL0     C71185   4.852  10.429   5.827  0.6773  0.1659  0.1532
  528MOL0     C71186   4.707  10.403   5.794 -0.5994 -0.1824  0.2221
  528MOL0     C71187   4.663  10.309   5.897  0.3786  1.0512 -0.6302
  528MOL0     C71188   4.522  10.266   5.860  0.5327  0.4188  0.1528
  528MOL0     C71189   4.463  10.159   5.952 -0.2720 -0.5331  0.2490
  528MOL0    Cl71190   4.553  10.018   5.944 -0.6351  0.4062 -0.1083
  528MOL0     C71191   5.371  10.447   5.863 -0.0666  0.1464  0.4063
  528MOL0     C71192   5.469  10.357   5.847 -0.3683 -0.8549 -0.4269
  528MOL0     O71193   5.821  10.372   5.600  0.5655  0.0723  0.6246
  528MOL0     C71194   5.781  10.042   5.682  0.3167  0.6188  0.0484
  528MOL0     C71195   5.847   9.919   5.678  0.3597 -0.1161  1.0848
  528MOL0     N71196   6.087   9.425   5.985  0.4889  0.5271  0.5812
  528MOL0     N71197   5.961   9.380   5.988 -0.1412  0.2929 -0.4508
  528MOL0     C71198   5.495   8.644   5.229 -0.1105  0.2724  0.2039
  528MOL0     C71199   5.448   8.574   5.114 -0.3378  0.5916  0.0155
  528MOL0     C71200   5.370   8.315   4.736  0.6794 -0.6100 -0.2690
  528MOL0     C71201   5.269   8.221   4.706 -0.4592  0.1058 -0.3862
  528MOL0     C71202   5.265   8.170   4.578 -0.5526 -0.4566  0.5513
  528MOL0     C71203   5.362   8.212   4.479 -0.6061  0.2602 -0.1851
  528MOL0     O71204   5.368   8.163   4.351  0.0187  0.8429  0.1024
  528MOL0     C71205   5.410   8.024   4.337 -0.5806 -0.9999 -0.3986
  528MOL0     C71206   5.516   8.016   4.222 -0.0304  0.1676 -0.2133
  528MOL0     C71207   5.454   7.983   4.090 -0.3733  0.3847  0.5597
  528MOL0     C71208   5.565   7.969   3.982  0.4405 -0.7810 -0.8655
  528MOL0     C71209   5.519   7.936   3.847 -0.9670  0.7205  0.4634
  528MOL0     C71210   5.475   7.927   3.731 -1.2436  0.2207 -0.4287
  528MOL0     C71211   5.464   8.297   4.518 -0.0862  0.0663 -0.6844
  528MOL0     C71212   5.478   8.348   4.644  0.2594  0.5227 -0.4316
  528MOL0     H71213   5.740   8.490   4.977 -0.9040  0.6622 -0.9025
  528MOL0     H71214   5.821   8.625   5.151 -0.2843 -0.2858 -0.0321
  528MOL0     H71215   5.830   8.625   5.418  3.0827  0.4793  0.2590
  528MOL0     H71216   5.859   8.802   5.349 -0.7498 -0.2027 -0.7233
  528MOL0     H71217   5.740   8.715   5.615 -1.7900  2.1861  1.2323
  528MOL0     H71218   5.907   8.781   5.600 -0.4508  0.3306  2.9068
  528MOL0     H71219   5.805   9.001   5.545 -0.6350 -0.8651  1.0462
  528MOL0     H71220   5.644   8.921   5.526  0.6719  0.5894 -1.5937
  528MOL0     H71221   5.650   8.874   5.765  1.4581 -2.6940 -0.7821
  528MOL0     H71222   5.806   8.957   5.769 -0.8607 -4.6587  1.7865
  528MOL0     H71223   5.564   9.098   5.678  0.7201 -3.2892 -2.7713
  528MOL0     H71224   5.630   9.094   5.843  1.2651 -2.5989  1.6388
  528MOL0     H71225   5.843   9.189   5.746  1.5797  4.2181  0.1976
  528MOL0     H71226   5.767   9.215   5.588  1.3364 -0.9778  1.1071
  528MOL0     H71227   5.752   9.413   5.662  1.8999 -0.9925 -0.3900
  528MOL0     H71228   5.594   9.365   5.726  0.1316  0.8833  0.3237
  528MOL0     H71229   5.697   9.367   5.952  3.1622 -3.5971 -1.4622
  528MOL0     H71230   5.711   9.526   5.871  2.7164  1.2103  0.0186
  528MOL0     H71231   5.945   9.570   5.722  0.7212 -0.2424  0.0327
  528MOL0     H71232   6.209   9.698   5.858 -1.7080  0.2295 -1.5842
  528MOL0     H71233   6.286   9.556   5.917 -0.0643  0.4295 -0.1540
  528MOL0     H71234   6.217   9.491   5.650  0.2890 -0.0493 -1.9934
  528MOL0     H71235   6.376   9.525   5.703 -1.2120  0.6731  0.8429
  528MOL0     H71236   6.350   9.689   5.535 -1.8669 -1.5666 -1.1218
  528MOL0     H71237   6.323   9.778   5.679 -0.5218  4.4510 -4.3308
  528MOL0     H71238   6.106   9.655   5.501  0.8923 -0.1853 -1.8972
  528MOL0     H71239   6.169   9.818   5.492 -1.0387 -1.8187 -1.3799
  528MOL0     H71240   6.167  10.005   5.649  0.1040 -2.2961 -0.9907
  528MOL0     H71241   6.067  10.354   5.624  1.1743  1.4574 -2.1781
  528MOL0     H71242   6.184  10.243   5.705 -1.9527  0.0590  1.7562
  528MOL0     H71243   6.139  10.243   5.527 -1.7714  2.6973 -0.3151
  528MOL0     H71244   5.631  10.504   5.583  1.7938 -0.8189  0.8801
  528MOL0     H71245   5.479  10.676   5.653 -2.6968 -0.3061 -1.5411
  528MOL0     H71246   5.151  10.584   5.942 -3.9133  0.7734  0.3726
  528MOL0     H71247   5.072  10.711   5.863 -1.0593 -0.7028 -0.5550
  528MOL0     H71248   5.098  10.565   5.639  0.2228  1.2048  0.4028
  528MOL0     H71249   5.103  10.434   5.770 -1.2291 -0.2205  5.1099
  528MOL0     H71250   4.878  10.526   5.636 -0.4001 -1.2140  0.2315
  528MOL0     H71251   4.877  10.631   5.775 -0.3628 -0.7850  3.2962
  528MOL0     H71252   4.921  10.344   5.828  1.9357  1.1548 -0.1825
  528MOL0     H71253   4.845  10.478   5.925 -2.1641 -0.9698  0.6142
  528MOL0     H71254   4.688  10.360   5.696  1.7857 -0.2414 -0.2755
  528MOL0     H71255   4.642  10.491   5.791 -0.2439  0.0584 -0.7665
  528MOL0     H71256   4.734  10.226   5.896 -0.6146  0.1256  1.2146
  528MOL0     H71257   4.672  10.346   5.999  0.7404 -0.2842 -0.1633
  528MOL0     H71258   4.531  10.224   5.759  0.4682  1.2787 -0.2221
  528MOL0     H71259   4.456  10.353   5.854 -1.5742 -1.1867 -1.5150
  528MOL0     H71260   4.359  10.141   5.925 -0.1553 -0.5624 -0.1846
  528MOL0     H71261   4.460  10.190   6.057  0.8794  1.7505 -0.3361
  528MOL0     H71262   5.300  10.438   5.945  0.3872  1.4021  0.9661
  528MOL0     H71263   5.471  10.268   5.909 -0.1197 -2.4069 -2.5634
  528MOL0     H71264   5.676  10.036   5.709 -0.3333 -1.2113 -2.4924
  528MOL0     H71265   5.778   9.837   5.694 -0.5535  0.2683 -0.6610
  528MOL0     H71266   5.421   8.695   5.289 -0.0427 -1.0925  1.5170
  528MOL0     H71267   5.341   8.576   5.095 -0.5570 -2.2790  0.4621
  528MOL0     H71268   5.194   8.200   4.782 -1.3338 -0.6291 -1.4117
  528MOL0     H71269   5.191   8.095   4.550 -2.1831  1.3194 -0.1579
  528MOL0     H71270   5.467   7.995   4.426  0.8328  0.9456 -0.6131
  528MOL0     H71271   5.328   7.953   4.319 -1.8548  0.6728 -1.4496
  528MOL0     H71272   5.592   7.944   4.255 -1.1911 -0.9014  0.2138
  528MOL0     H71273   5.567   8.112   4.209 -3.2921  1.7927 -2.4741
  528MOL0     H71274   5.386   8.058   4.049 -0.7359 -0.8549 -1.2286
  528MOL0     H71275   5.395   7.891   4.091  0.3186 -0.1478  3.8052
  528MOL0     H71276   5.636   7.892   4.016  2.9745  0.8210 -2.1731
  528MOL0     H71277   5.630   8.057   3.982  0.5761 -0.8798 -1.0144
  528MOL0     H71278   5.423   7.917   3.638 -2.6851 -1.2000  0.4645
  528MOL0     H71279   5.540   8.339   4.452  1.7859 -2.8502 -0.5516
  528MOL0     H71280   5.554   8.419   4.673  0.4774 -0.1701  0.7728
  529MOL0     O71281   8.838   9.056   8.406 -0.3717  0.5054 -0.3899
  529MOL0     C71282   8.762   9.141   8.358  0.6666  0.8466  1.1747
  529MOL0     O71283   8.655   9.113   8.280 -0.1164 -0.0121  0.1510
  529MOL0     C71284   8.611   8.985   8.269  0.8335 -0.4279 -0.7637
  529MOL0     C71285   8.553   8.906   8.376 -0.3736 -0.8080  0.9642
  529MOL0     C71286   8.494   8.785   8.344  0.5252 -0.5630  0.5132
  529MOL0     C71287   8.497   8.723   8.213 -0.5124 -0.8561  0.8343
  529MOL0     O71288   8.430   8.609   8.175 -0.1972  0.2073 -0.6505
  529MOL0     C71289   8.420   8.501   8.275  0.4341 -0.0703 -0.1580
  529MOL0     C71290   8.410   8.377   8.184  0.5779  1.0096 -0.5403
  529MOL0     C71291   8.380   8.259   8.283  0.4118 -0.5884  0.2652
  529MOL0     C71292   8.460   8.136   8.236 -0.1394 -0.0589  0.4001
  529MOL0     C71293   8.444   8.017   8.342  0.3282 -0.1842  0.1512
  529MOL0     C71294   8.561   7.925   8.359  0.5067 -1.1694 -0.6916
  529MOL0     C71295   8.627   7.870   8.232  0.0359 -0.1824 -0.3336
  529MOL0     C71296   8.773   7.843   8.245  0.0447 -0.4298 -0.1369
  529MOL0     N71297   8.852   7.815   8.127 -0.8785 -0.1253  0.2271
  529MOL0     C71298   8.821   7.714   8.041  0.5604  0.2270 -0.1807
  529MOL0     C71299   8.927   7.700   7.960  0.0473 -1.1802 -0.0102
  529MOL0     C71300   8.958   7.608   7.842  0.0179 -0.9029 -0.4398
  529MOL0     C71301   8.992   7.464   7.891 -0.1055 -0.0542  0.9946
  529MOL0     C71302   9.100   7.453   7.997 -0.5467 -0.6066 -0.4514
  529MOL0     C71303   9.232   7.498   7.950 -0.2096 -0.6510 -0.0614
  529MOL0     O71304   9.267   7.447   7.824 -0.4287 -0.1365  0.3104
  529MOL0     C71305   9.335   7.537   7.748  0.3200 -0.4528  0.3587
  529MOL0     C71306   9.289   7.568   7.620 -0.2659 -0.5228 -0.6121
  529MOL0     C71307   9.351   7.668   7.546  0.5272 -0.0335  0.1196
  529MOL0     C71308   9.282   7.685   7.409 -0.8126 -1.0170  0.0329
  529MOL0     C71309   9.469   7.734   7.591  0.3956  0.3484  0.0648
  529MOL0     C71310   9.543   7.835   7.515  0.0694  0.0899 -0.6956
  529MOL0     O71311   9.675   7.842   7.549 -0.0294 -0.0980  0.0673
  529MOL0     C71312   9.748   7.736   7.508  0.4546  0.4203 -0.0217
  529MOL0     C71313   9.756   7.694   7.377  1.4686  1.2046  0.2910
  529MOL0     C71314   9.845   7.596   7.338  0.4801 -0.3791  0.2957
  529MOL0     C71315   9.898   7.508   7.438  0.4169 -0.0835  0.2233
  529MOL0     O71316   9.951   7.394   7.403 -0.1335  0.1180 -0.2136
  529MOL0     C71317  10.034   7.313   7.483  0.4370  0.2708 -0.4898
  529MOL0     C71318  10.097   7.199   7.402  0.2057 -0.5393  0.0537
  529MOL0     C71319  10.004   7.139   7.286  0.6944  0.5535  0.2709
  529MOL0     C71320  10.045   6.981   7.287  1.3882 -0.0487 -1.4782
  529MOL0     C71321  10.022   6.922   7.154 -0.2706 -0.5792  0.4041
  529MOL0     C71322  10.016   6.767   7.158  0.0339  0.3711 -0.1792
  529MOL0     C71323   9.947   6.707   7.277  0.1776  0.0127  0.4111
  529MOL0     C71324   9.933   6.556   7.262 -0.4403  0.3002  0.2139
  529MOL0    Cl71325  10.101   6.470   7.244  0.0764  0.0021  0.1961
  529MOL0     C71326   9.872   7.541   7.571 -0.5001 -1.4066 -0.7979
  529MOL0     C71327   9.811   7.660   7.604  0.0419 -0.2718 -0.1794
  529MOL0     O71328   9.480   7.920   7.460  0.3234 -0.6320 -0.6559
  529MOL0     C71329   9.511   7.710   7.724  0.8211  0.7654  0.7057
  529MOL0     C71330   9.440   7.621   7.800  0.4924  0.4701 -0.4871
  529MOL0     N71331   9.029   7.793   8.005 -0.3452  0.0863  0.0812
  529MOL0     N71332   8.978   7.868   8.096  1.2278  0.1874 -0.7059
  529MOL0     C71333   8.559   8.797   8.113 -0.3470 -0.3452 -0.0175
  529MOL0     C71334   8.611   8.927   8.143  0.7651 -0.8236  0.3937
  529MOL0     C71335   8.800   9.277   8.367 -0.4371  0.3836 -0.0890
  529MOL0     C71336   8.930   9.320   8.407  0.0132  0.0379 -0.1652
  529MOL0     C71337   8.961   9.454   8.416 -0.5969  1.0163  0.3549
  529MOL0     C71338   8.867   9.557   8.395 -0.4014 -1.2437  0.2496
  529MOL0     O71339   8.913   9.687   8.406  0.0751 -0.2832  1.5352
  529MOL0     C71340   8.819   9.803   8.381  0.2367  0.5040  1.1977
  529MOL0     C71341   8.772   9.862   8.513  0.9588  0.1934  0.4391
  529MOL0     C71342   8.649   9.937   8.470  0.6397  0.8284 -0.3291
  529MOL0     C71343   8.513   9.871   8.512 -0.3726 -0.2656  0.4214
  529MOL0     C71344   8.476   9.876   8.654 -0.3213 -0.0688  1.0236
  529MOL0     C71345   8.442   9.883   8.772  0.4658 -0.2289  0.2588
  529MOL0     C71346   8.732   9.513   8.363 -0.1542 -1.2985  0.3919
  529MOL0     C71347   8.703   9.375   8.345  0.1177 -0.6087 -0.9398
  529MOL0     H71348   8.546   8.944   8.478 -0.5803 -1.6904  1.2861
  529MOL0     H71349   8.434   8.732   8.418  1.0985 -0.3672  1.1222
  529MOL0     H71350   8.500   8.495   8.349 -1.8172  1.9850  2.6755
  529MOL0     H71351   8.334   8.522   8.340  2.1589  1.2638  1.8350
  529MOL0     H71352   8.331   8.395   8.111 -0.8970 -2.0173  0.1517
  529MOL0     H71353   8.506   8.364   8.132  0.5984  1.5150 -0.6340
  529MOL0     H71354   8.419   8.285   8.382  2.5545 -2.0748 -0.1343
  529MOL0     H71355   8.272   8.240   8.295  0.3933  0.0732  1.3125
  529MOL0     H71356   8.412   8.104   8.143  0.0954 -0.9884  0.5874
  529MOL0     H71357   8.565   8.163   8.230 -0.2188  0.0896 -0.3903
  529MOL0     H71358   8.429   8.056   8.443  1.2221 -1.6916  0.9003
  529MOL0     H71359   8.346   7.973   8.320 -1.6166  3.2434  1.1771
  529MOL0     H71360   8.633   7.976   8.423  0.2413  0.0839 -1.3748
  529MOL0     H71361   8.518   7.842   8.416 -2.6649  0.9502  0.2808
  529MOL0     H71362   8.585   7.773   8.206  3.7802 -1.8476 -0.7533
  529MOL0     H71363   8.612   7.934   8.144 -2.0986 -0.7403 -0.4255
  529MOL0     H71364   8.790   7.762   8.316 -1.2924  0.3550  1.1535
  529MOL0     H71365   8.827   7.929   8.288 -0.3646 -0.3228  0.1699
  529MOL0     H71366   8.722   7.668   8.046  0.6562  0.1708  1.7001
  529MOL0     H71367   8.870   7.614   7.777  1.1175 -1.5632 -2.0835
  529MOL0     H71368   9.043   7.654   7.790 -1.1865  1.6531 -0.2747
  529MOL0     H71369   9.027   7.411   7.802  2.7705  5.8259 -1.9701
  529MOL0     H71370   8.903   7.425   7.941 -0.0788  0.7637  1.7024
  529MOL0     H71371   9.114   7.347   8.019 -0.2100 -0.7055 -1.1067
  529MOL0     H71372   9.065   7.510   8.084 -3.8715  0.5201 -2.3465
  529MOL0     H71373   9.296   7.460   8.032 -1.9385 -1.0071  1.1773
  529MOL0     H71374   9.222   7.606   7.961 -1.1467 -0.8826  1.9673
  529MOL0     H71375   9.213   7.501   7.580 -1.5266 -1.0751  2.4448
  529MOL0     H71376   9.212   7.601   7.401  0.1027 -1.8487  0.4871
  529MOL0     H71377   9.234   7.781   7.389  0.0706 -0.8204 -1.3264
  529MOL0     H71378   9.361   7.669   7.334 -1.7462 -1.5154 -0.8722
  529MOL0     H71379   9.700   7.747   7.300 -0.3181  0.8593  1.3116
  529MOL0     H71380   9.865   7.561   7.237  5.4364 -0.9109  1.2443
  529MOL0     H71381  10.114   7.368   7.534 -0.3167  0.7263  0.2283
  529MOL0     H71382   9.974   7.261   7.558  3.4585  1.2213  2.8907
  529MOL0     H71383  10.190   7.242   7.364  0.5906  0.1802  1.6850
  529MOL0     H71384  10.127   7.119   7.471 -0.2470 -1.7676 -1.1404
  529MOL0     H71385  10.012   7.191   7.190 -1.0873 -0.5201 -0.5024
  529MOL0     H71386   9.898   7.145   7.311  0.4752 -0.7316 -0.2951
  529MOL0     H71387  10.150   6.969   7.314  1.4950 -0.0856 -1.9063
  529MOL0     H71388   9.988   6.941   7.372  2.3502  1.8756  0.1584
  529MOL0     H71389  10.091   6.949   7.074  0.0833  0.8339  1.1652
  529MOL0     H71390   9.924   6.958   7.121 -0.1234 -1.9307 -1.7515
  529MOL0     H71391   9.959   6.732   7.072 -1.2568 -0.6312  1.0257
  529MOL0     H71392  10.119   6.731   7.150 -0.5034 -2.1576  2.3625
  529MOL0     H71393   9.846   6.748   7.278  0.9944  2.1879 -0.7167
  529MOL0     H71394  10.010   6.733   7.361 -1.2561  1.6818  1.0222
  529MOL0     H71395   9.866   6.537   7.178 -1.1483  2.6667  0.1829
  529MOL0     H71396   9.876   6.526   7.351  2.3930 -1.7244  1.4904
  529MOL0     H71397   9.922   7.484   7.649  2.4623  0.9415 -0.8111
  529MOL0     H71398   9.805   7.688   7.709  1.1612  0.3971 -0.2800
  529MOL0     H71399   9.597   7.762   7.763 -0.5716  1.5284  2.9205
  529MOL0     H71400   9.472   7.588   7.898 -1.6792  0.1040  0.1513
  529MOL0     H71401   8.562   8.751   8.015 -0.3940 -0.6491  0.1219
  529MOL0     H71402   8.662   8.973   8.060  0.5577 -0.3878  0.5064
  529MOL0     H71403   9.007   9.246   8.424 -0.8004 -0.6333  0.6731
  529MOL0     H71404   9.059   9.489   8.447 -1.7369  2.4894  2.6048
  529MOL0     H71405   8.870   9.883   8.326 -0.3100  0.3768  0.4883
  529MOL0     H71406   8.739   9.762   8.319  1.6769 -1.6583  0.6529
  529MOL0     H71407   8.848   9.926   8.558  2.1310  0.5042 -1.8528
  529MOL0     H71408   8.733   9.784   8.580 -2.5029  1.8721  0.5874
  529MOL0     H71409   8.647   9.950   8.361 -3.5242 -1.1741 -0.6840
  529MOL0     H71410   8.650  10.038   8.512 -3.1491  1.8344 -2.1858
  529MOL0     H71411   8.507   9.766   8.479  0.4637  0.6447 -2.9969
  529MOL0     H71412   8.438   9.923   8.453 -0.4354 -2.6874 -1.8301
  529MOL0     H71413   8.408   9.911   8.870  0.9878 -2.9500  1.3206
  529MOL0     H71414   8.657   9.590   8.351  2.3915  1.2611 -0.2451
  529MOL0     H71415   8.598   9.354   8.323  0.1061 -0.5615 -0.9280
  530MOL0     O71416  11.167   9.599  10.093  0.2956 -0.2510  0.2927
  530MOL0     C71417  11.075   9.517  10.100  0.9762 -0.5022 -1.6203
  530MOL0     O71418  10.945   9.542  10.055 -0.2606  0.7990 -0.2787
  530MOL0     C71419  10.931   9.662   9.992  1.4264 -0.3444  1.2220
  530MOL0     C71420  10.960   9.678   9.853 -0.1328  0.0219 -0.3726
  530MOL0     C71421  10.954   9.803   9.793 -0.2750  1.1176 -0.1622
  530MOL0     C71422  10.918   9.914   9.865 -0.1615 -1.0457 -0.4891
  530MOL0     O71423  10.903  10.041   9.818 -0.2113  0.2730  0.1150
  530MOL0     C71424  10.911  10.061   9.676  0.2888 -0.0643 -0.0786
  530MOL0     C71425  10.875  10.206   9.660 -0.7895  0.2171  1.2597
  530MOL0     C71426  10.749  10.247   9.736 -0.9237  0.6654 -0.3186
  530MOL0     C71427  10.715  10.397   9.707  0.0470 -0.0180 -0.9874
  530MOL0     C71428  10.579  10.441   9.756 -0.0619 -0.1121 -0.4055
  530MOL0     C71429  10.584  10.593   9.793 -0.5383  0.2117  0.0424
  530MOL0     C71430  10.455  10.669   9.812  0.8265  0.7217  0.1444
  530MOL0     C71431  10.342  10.665   9.705  0.1427 -1.3902  0.3640
  530MOL0     N71432  10.228  10.743   9.742 -0.2006 -0.6174  0.3501
  530MOL0     C71433  10.215  10.879   9.739  0.4329 -0.6351 -0.9687
  530MOL0     C71434  10.089  10.912   9.768  0.3864  1.0172  0.2281
  530MOL0     C71435  10.019  11.040   9.772  0.0610 -0.0067 -0.2574
  530MOL0     C71436   9.942  11.072   9.898  0.3900 -0.0455  0.1099
  530MOL0     C71437  10.027  11.148  10.008  0.8434  0.0972  0.9065
  530MOL0     C71438  10.106  11.060  10.099 -0.3540 -0.5525 -0.0115
  530MOL0     O71439  10.013  10.992  10.182  0.1127 -0.3342 -0.2031
  530MOL0     C71440  10.068  10.909  10.282 -0.2431  0.0674  0.8604
  530MOL0     C71441  10.005  10.893  10.403  0.3366 -1.1217  0.3453
  530MOL0     C71442  10.057  10.827  10.510 -0.2015  0.5148 -0.7855
  530MOL0     C71443   9.963  10.819  10.632  0.3365  0.1748  0.8732
  530MOL0     C71444  10.183  10.769  10.502 -1.1724 -0.4072  0.7858
  530MOL0     C71445  10.264  10.718  10.618  0.0105  0.8237 -0.1307
  530MOL0     O71446  10.354  10.618  10.591  0.0561  0.1699 -0.6684
  530MOL0     C71447  10.410  10.555  10.698 -0.3548  0.5218 -0.2247
  530MOL0     C71448  10.350  10.502  10.811 -0.0209 -0.4376  0.1066
  530MOL0     C71449  10.424  10.440  10.921  0.1897  0.3525  0.5481
  530MOL0     C71450  10.564  10.433  10.903 -0.4205 -0.4369 -0.9568
  530MOL0     O71451  10.649  10.403  11.007 -0.1998 -0.3413  0.2410
  530MOL0     C71452  10.597  10.335  11.128  0.7863 -0.1644 -0.1919
  530MOL0     C71453  10.703  10.325  11.226  0.2063 -0.2543 -0.3411
  530MOL0     C71454  10.653  10.242  11.346 -0.2197 -0.5042 -0.2263
  530MOL0     C71455  10.711  10.286  11.481  0.0615  0.0699 -0.0425
  530MOL0     C71456  10.664  10.198  11.600 -0.9633 -0.3624 -0.2960
  530MOL0     C71457  10.516  10.200  11.626  0.0041 -0.0187 -0.3005
  530MOL0     C71458  10.469  10.092  11.720  0.6465  0.0590 -0.2994
  530MOL0     C71459  10.492  10.134  11.866 -0.2880 -0.7785 -0.4227
  530MOL0    Cl71460  10.437   9.996  11.964 -0.0714  0.1964 -0.2540
  530MOL0     C71461  10.628  10.466  10.784 -0.1885  0.1414  0.5770
  530MOL0     C71462  10.554  10.532  10.683 -0.5325  0.1510 -0.2598
  530MOL0     O71463  10.261  10.798  10.713 -0.3783  0.7237 -0.1393
  530MOL0     C71464  10.240  10.770  10.373  0.3445 -0.5788 -0.8460
  530MOL0     C71465  10.183  10.839  10.263  0.3592  0.5106 -0.1225
  530MOL0     N71466  10.028  10.787   9.798  0.3313 -0.2105 -0.1330
  530MOL0     N71467  10.112  10.695   9.777  0.6344 -0.3761 -0.4329
  530MOL0     C71468  10.902   9.906  10.004  0.5736  0.2795 -0.2610
  530MOL0     C71469  10.918   9.774  10.062  0.0315  0.1143  0.3570
  530MOL0     C71470  11.116   9.385  10.167 -0.4083 -0.0960 -0.5001
  530MOL0     C71471  11.250   9.359  10.182 -0.7735 -0.5151 -0.2418
  530MOL0     C71472  11.286   9.242  10.256 -0.0632  0.1219  0.7541
  530MOL0     C71473  11.197   9.154  10.313 -0.6761 -0.2458  0.3538
  530MOL0     O71474  11.239   9.031  10.363 -0.2295  0.4707 -0.4528
  530MOL0     C71475  11.301   8.941  10.268 -0.2959  0.3219 -1.2646
  530MOL0     C71476  11.362   8.816  10.330 -0.2617 -0.4360  0.0523
  530MOL0     C71477  11.284   8.743  10.435 -0.1381 -0.3233  0.1173
  530MOL0     C71478  11.376   8.658  10.528 -0.4166 -1.1699 -0.1123
  530MOL0     C71479  11.434   8.541  10.473 -0.1293 -0.2488 -0.3193
  530MOL0     C71480  11.494   8.439  10.437  0.9946  0.5617 -0.0630
  530MOL0     C71481  11.066   9.183  10.299  0.7749  0.0205 -0.0893
  530MOL0     C71482  11.023   9.300  10.227 -0.8870  0.6361  0.2212
  530MOL0     H71483  10.999   9.603   9.785  0.5701  1.4794 -1.6371
  530MOL0     H71484  10.996   9.812   9.693 -1.6870 -2.3722 -1.2175
  530MOL0     H71485  11.007  10.038   9.629 -0.3004 -1.6273 -0.5502
  530MOL0     H71486  10.832  10.001   9.631  0.8749 -1.6157  0.8730
  530MOL0     H71487  10.960  10.269   9.686 -1.1652  1.2763  0.0696
  530MOL0     H71488  10.861  10.225   9.553  1.7045  1.4448  1.0813
  530MOL0     H71489  10.665  10.180   9.713 -0.5703 -1.0859  2.8665
  530MOL0     H71490  10.759  10.242   9.845  1.1262 -0.2175 -0.5080
  530MOL0     H71491  10.790  10.452   9.766 -1.6554  1.7491 -0.3749
  530MOL0     H71492  10.738  10.423   9.603 -0.8540  0.6801 -1.0247
  530MOL0     H71493  10.518  10.409   9.671 -0.4377  1.7994 -0.8880
  530MOL0     H71494  10.547  10.391   9.848  1.0500 -0.4829 -0.2009
  530MOL0     H71495  10.649  10.607   9.879  0.5017  1.6950 -0.9407
  530MOL0     H71496  10.644  10.634   9.711  2.8000 -1.7935  1.3026
  530MOL0     H71497  10.410  10.644   9.909  2.1276 -0.7293  0.4291
  530MOL0     H71498  10.489  10.773   9.808  4.5158 -0.3527 -0.3596
  530MOL0     H71499  10.316  10.565   9.669  0.5131 -0.7371 -1.8968
  530MOL0     H71500  10.378  10.704   9.609  0.8548  1.3637  1.6476
  530MOL0     H71501  10.286  10.956   9.710  0.1027  0.5922  1.2191
  530MOL0     H71502  10.073  11.124   9.727 -1.2720  0.1374 -1.6818
  530MOL0     H71503   9.936  11.021   9.703 -1.6435 -1.1003  1.9528
  530MOL0     H71504   9.894  10.982   9.939  1.6160 -0.0083  1.7264
  530MOL0     H71505   9.856  11.135   9.875  0.0104 -0.4368  0.4380
  530MOL0     H71506   9.963  11.216  10.065 -0.0261  0.7703 -0.8135
  530MOL0     H71507  10.106  11.209   9.963  0.8877  0.1876  1.1069
  530MOL0     H71508  10.181  11.117  10.154 -1.5323  1.0426  0.0106
  530MOL0     H71509  10.169  10.995  10.038  0.0005 -0.2664  0.0521
  530MOL0     H71510   9.910  10.944  10.413  0.1292 -0.8122 -2.3631
  530MOL0     H71511   9.971  10.718  10.673  0.6577 -0.4073 -0.5759
  530MOL0     H71512   9.976  10.897  10.707 -1.8446  3.7117 -2.0747
  530MOL0     H71513   9.859  10.819  10.597  1.5325  1.5990 -3.2172
  530MOL0     H71514  10.244  10.516  10.830  0.4515  0.0104  2.8317
  530MOL0     H71515  10.367  10.416  11.011  1.4651 -1.0871  1.0208
  530MOL0     H71516  10.514  10.388  11.175  0.0218 -1.9278  0.5241
  530MOL0     H71517  10.570  10.236  11.091 -3.1654  0.5038  0.4653
  530MOL0     H71518  10.789  10.277  11.179 -0.1327  0.0529 -1.2908
  530MOL0     H71519  10.730  10.424  11.263 -0.2311 -0.1272 -0.3631
  530MOL0     H71520  10.670  10.136  11.324  0.0154 -0.8705  1.5880
  530MOL0     H71521  10.545  10.261  11.355  0.0091  3.7067 -3.2180
  530MOL0     H71522  10.820  10.275  11.472 -0.3099 -2.8056 -3.0886
  530MOL0     H71523  10.703  10.391  11.511  1.4204 -0.8319  4.0260
  530MOL0     H71524  10.719  10.239  11.685 -0.9668  0.3804 -0.6422
  530MOL0     H71525  10.706  10.097  11.589  1.9223  0.6377  0.6980
  530MOL0     H71526  10.500  10.301  11.665  1.4027  0.1062 -0.0097
  530MOL0     H71527  10.468  10.185  11.529  1.4647  2.4603 -1.5186
  530MOL0     H71528  10.502   9.996  11.682  0.7482  0.3009 -0.8353
  530MOL0     H71529  10.360  10.079  11.715  0.9158 -3.3209  0.7899
  530MOL0     H71530  10.433  10.217  11.906  0.1710 -1.0067  0.7517
  530MOL0     H71531  10.598  10.148  11.886 -0.6934  3.4360 -0.2973
  530MOL0     H71532  10.735  10.459  10.769 -0.5003  2.1683 -5.0764
  530MOL0     H71533  10.610  10.568  10.597 -0.2085 -1.5233 -0.7848
  530MOL0     H71534  10.336  10.722  10.357 -0.2613 -1.7457 -1.1200
  530MOL0     H71535  10.239  10.830  10.170  0.5166  0.1845  0.0008
  530MOL0     H71536  10.902   9.995  10.066 -3.5564 -0.9315  1.8286
  530MOL0     H71537  10.898   9.768  10.168 -3.3254 -0.1605 -0.1833
  530MOL0     H71538  11.324   9.425  10.138 -4.6421  3.6279 -1.3382
  530MOL0     H71539  11.390   9.212  10.255  0.0484 -0.1380 -4.2840
  530MOL0     H71540  11.220   8.907  10.202  0.0038  1.7164 -2.4140
  530MOL0     H71541  11.379   8.998  10.216  3.0244 -1.3124  1.5469
  530MOL0     H71542  11.460   8.845  10.368 -0.1951 -1.2002  0.4999
  530MOL0     H71543  11.396   8.757  10.244 -2.6513  1.4039 -2.3478
  530MOL0     H71544  11.207   8.688  10.381 -2.2127  3.6326 -1.3902
  530MOL0     H71545  11.235   8.827  10.485 -1.8233 -1.3939  0.3305
  530MOL0     H71546  11.324   8.638  10.622  1.6917  0.4010  1.4951
  530MOL0     H71547  11.455   8.721  10.571 -1.0455 -0.9031  0.6683
  530MOL0     H71548  11.539   8.346  10.407 -2.1334 -0.3716 -2.4225
  530MOL0     H71549  10.990   9.111  10.330  0.9486 -0.5106 -0.8531
  530MOL0     H71550  10.917   9.321  10.227 -0.8895  0.7134 -1.0016
  531MOL0     O71551   1.298   8.413   7.346 -1.3685 -0.4368 -0.1525
  531MOL0     C71552   1.288   8.513   7.270  0.5280  1.0722 -0.2714
  531MOL0     O71553   1.172   8.577   7.238  0.2727  0.0094 -0.3235
  531MOL0     C71554   1.060   8.562   7.316 -0.0217 -0.0219 -0.4923
  531MOL0     C71555   0.930   8.563   7.251 -0.4409 -0.0676  0.6068
  531MOL0     C71556   0.811   8.553   7.318  0.1581  0.0223 -0.0435
  531MOL0     C71557   0.809   8.543   7.457  0.2085  0.0599  1.0585
  531MOL0     O71558   0.699   8.547   7.533 -0.4394 -0.0938 -0.4519
  531MOL0     C71559   0.570   8.580   7.483 -0.3124  0.3432 -0.7163
  531MOL0     C71560   0.463   8.548   7.576 -0.2695  0.1935 -0.0339
  531MOL0     C71561   0.419   8.399   7.562  0.1226  0.1636  0.2242
  531MOL0     C71562   0.283   8.378   7.635 -0.0355  0.4315 -0.7374
  531MOL0     C71563   0.231   8.245   7.586  0.1583 -0.1445 -0.6061
  531MOL0     C71564   0.094   8.216   7.653  0.0571  0.5483  0.2030
  531MOL0     C71565   0.060   8.070   7.635  0.3583 -0.0946  0.6787
  531MOL0     C71566  -0.036   8.024   7.734  0.2032  0.2476 -0.3667
  531MOL0     N71567  -0.112   7.907   7.679 -0.6607 -0.4367 -0.2839
  531MOL0     C71568  -0.052   7.783   7.646 -0.8190  0.2155 -0.2362
  531MOL0     C71569  -0.156   7.705   7.621 -0.8066  0.2442 -0.3514
  531MOL0     C71570  -0.156   7.555   7.588 -0.9559 -0.2206 -0.1761
  531MOL0     C71571  -0.048   7.524   7.493  0.3318  0.6206  0.1602
  531MOL0     C71572  -0.076   7.584   7.347 -1.5568 -0.5092  0.0679
  531MOL0     C71573  -0.169   7.488   7.266  0.0553 -0.4664  0.4715
  531MOL0     O71574  -0.227   7.560   7.159  0.3137 -0.1578  0.3490
  531MOL0     C71575  -0.160   7.604   7.054  0.0774  0.1116  0.2972
  531MOL0     C71576  -0.023   7.600   7.036 -0.4350  0.6067  0.3307
  531MOL0     C71577   0.053   7.675   6.934 -0.2387  0.3914  1.4267
  531MOL0     C71578   0.199   7.658   6.910 -0.5999 -0.8180  0.2308
  531MOL0     C71579  -0.028   7.756   6.852 -0.0302  0.1623  0.2013
  531MOL0     C71580   0.027   7.850   6.755  0.2927  0.3327  0.5376
  531MOL0     O71581  -0.037   7.860   6.629  0.3226 -1.1289  0.1894
  531MOL0     C71582   0.006   7.962   6.549 -0.5475 -0.4919 -0.6684
  531MOL0     C71583   0.044   7.925   6.424  0.3189 -0.3386 -0.9464
  531MOL0     C71584   0.060   8.021   6.332 -0.0366 -0.2872 -0.2703
  531MOL0     C71585   0.047   8.160   6.355  0.1232  1.4582  0.3760
  531MOL0     O71586   0.085   8.247   6.261 -0.8571 -0.1809  0.2144
  531MOL0     C71587   0.224   8.256   6.232  0.3673  0.6455  0.3601
  531MOL0     C71588   0.235   8.341   6.105 -0.2519 -0.4583  0.0971
  531MOL0     C71589   0.182   8.485   6.132  0.0236 -0.5629 -0.9414
  531MOL0     C71590   0.204   8.594   6.019  1.1090 -0.2511 -0.5097
  531MOL0     C71591   0.103   8.708   6.029  0.4116 -0.2345 -0.1143
  531MOL0     C71592  -0.028   8.688   5.947  0.1944  0.7241 -1.6778
  531MOL0     C71593  -0.010   8.672   5.798  0.4414  0.6058  0.3706
  531MOL0     C71594   0.073   8.791   5.740  0.0564 -1.1118 -0.6168
  531MOL0    Cl71595   0.053   8.766   5.564 -0.0404 -0.5113  0.2316
  531MOL0     C71596   0.009   8.201   6.481 -0.5887 -0.0648  0.6283
  531MOL0     C71597  -0.024   8.098   6.575 -0.9616 -0.0790 -0.1505
  531MOL0     O71598   0.118   7.925   6.795 -0.1377  0.0965  0.4195
  531MOL0     C71599  -0.163   7.753   6.860  0.2459 -0.3041 -0.3282
  531MOL0     C71600  -0.229   7.680   6.959 -0.3441  0.9896 -0.3480
  531MOL0     N71601  -0.272   7.779   7.628 -0.1726  0.2136  0.5377
  531MOL0     N71602  -0.249   7.900   7.671  0.5043 -0.1461 -0.5445
  531MOL0     C71603   0.935   8.547   7.515  0.2923 -0.4361 -0.0169
  531MOL0     C71604   1.056   8.543   7.450  0.1746 -1.0479  0.0273
  531MOL0     C71605   1.407   8.556   7.206 -1.0096 -0.4633 -0.1377
  531MOL0     C71606   1.408   8.646   7.103 -0.2641  0.8383 -0.5777
  531MOL0     C71607   1.523   8.698   7.053  0.0907  0.0528 -0.8298
  531MOL0     C71608   1.647   8.662   7.111  0.3893  0.0839  0.2483
  531MOL0     O71609   1.756   8.725   7.068  0.1596  0.6657  0.1858
  531MOL0     C71610   1.834   8.814   7.150 -0.0995  1.1680 -1.5124
  531MOL0     C71611   1.894   8.923   7.065 -0.7307 -0.4823 -0.1960
  531MOL0     C71612   1.824   9.057   7.068  1.0095  0.3470  0.2710
  531MOL0     C71613   1.873   9.156   6.960 -0.0467  0.8042  0.0954
  531MOL0     C71614   1.817   9.286   6.982 -0.2329  0.0024  0.1807
  531MOL0     C71615   1.786   9.409   6.997 -0.5993 -0.2225  0.6059
  531MOL0     C71616   1.656   8.574   7.205 -0.3195 -0.0551  0.1194
  531MOL0     C71617   1.539   8.512   7.253 -0.9575 -0.3159 -0.7392
  531MOL0     H71618   0.941   8.579   7.144  2.9619 -1.0142  0.7106
  531MOL0     H71619   0.711   8.544   7.279 -1.2710  0.2547  3.2109
  531MOL0     H71620   0.567   8.688   7.466  2.7409  0.8541  1.1463
  531MOL0     H71621   0.550   8.515   7.397 -1.0603 -1.9748  1.1119
  531MOL0     H71622   0.495   8.578   7.677 -3.5941  0.8460  0.9458
  531MOL0     H71623   0.388   8.622   7.547 -0.7807  1.0829  3.1336
  531MOL0     H71624   0.417   8.375   7.456  1.6482 -0.3349  0.2814
  531MOL0     H71625   0.497   8.338   7.607  0.1700  0.8279  1.0749
  531MOL0     H71626   0.308   8.378   7.742 -2.7919  1.7669  0.0154
  531MOL0     H71627   0.217   8.464   7.622  0.6593  1.2723  0.9503
  531MOL0     H71628   0.212   8.269   7.481 -1.8549 -2.1231 -0.7740
  531MOL0     H71629   0.308   8.169   7.605 -1.1558 -1.5239 -0.6141
  531MOL0     H71630   0.107   8.227   7.761 -3.3692 -0.6475  0.8537
  531MOL0     H71631   0.017   8.281   7.609  1.1695  0.9563 -1.2178
  531MOL0     H71632   0.014   8.059   7.537  3.2544 -0.3983 -0.7387
  531MOL0     H71633   0.144   7.999   7.631  0.1220 -0.4568  1.6758
  531MOL0     H71634  -0.102   8.107   7.760  2.7444  2.4625 -0.5413
  531MOL0     H71635   0.014   7.999   7.828 -0.0856  3.0917  0.6348
  531MOL0     H71636   0.053   7.756   7.655 -1.4212 -2.7779 -1.0002
  531MOL0     H71637  -0.146   7.506   7.686  0.5715  1.5320  0.6080
  531MOL0     H71638  -0.253   7.537   7.540 -1.2296 -1.0780  0.6669
  531MOL0     H71639  -0.040   7.415   7.494 -0.4053  0.5703  0.8342
  531MOL0     H71640   0.049   7.558   7.532  0.9786 -1.7164  0.7391
  531MOL0     H71641   0.020   7.581   7.293 -2.0084 -2.7942 -0.7317
  531MOL0     H71642  -0.113   7.687   7.348  1.3545  0.7718 -3.1816
  531MOL0     H71643  -0.244   7.434   7.324  0.0792 -1.2923 -0.2472
  531MOL0     H71644  -0.106   7.407   7.228  1.2222  0.2120  0.8897
  531MOL0     H71645   0.042   7.539   7.097  2.6072  0.4515 -2.7457
  531MOL0     H71646   0.261   7.650   7.000 -0.1455 -0.0791 -0.0047
  531MOL0     H71647   0.218   7.569   6.849 -0.4287 -1.4418  1.1757
  531MOL0     H71648   0.252   7.740   6.859  0.5180 -0.8047  1.3535
  531MOL0     H71649   0.045   7.820   6.395  1.0095 -0.3675 -0.8535
  531MOL0     H71650   0.091   7.982   6.236 -0.7455  1.2753 -1.1714
  531MOL0     H71651   0.268   8.315   6.312  1.8429  2.3604 -1.5992
  531MOL0     H71652   0.268   8.156   6.222 -0.7695  0.1195  0.5098
  531MOL0     H71653   0.341   8.351   6.081 -0.6883  5.6115 -0.9145
  531MOL0     H71654   0.182   8.300   6.019 -1.2957  1.4855 -0.2467
  531MOL0     H71655   0.229   8.518   6.225  0.1676 -3.4707  0.1180
  531MOL0     H71656   0.076   8.474   6.154  0.2191  2.3012  2.2146
  531MOL0     H71657   0.303   8.635   6.040  0.8951  0.1137 -0.1898
  531MOL0     H71658   0.217   8.546   5.922  2.0271  1.3657 -1.2347
  531MOL0     H71659   0.157   8.798   5.999  2.2422 -1.7234 -1.4712
  531MOL0     H71660   0.067   8.723   6.132 -0.7129  1.3218 -0.6939
  531MOL0     H71661  -0.079   8.599   5.986  0.0321  0.6710 -2.0042
  531MOL0     H71662  -0.097   8.772   5.961  0.1575  0.3238  1.0024
  531MOL0     H71663  -0.114   8.662   5.764 -1.0803  1.5386  4.2461
  531MOL0     H71664   0.037   8.576   5.775 -2.6906 -1.5640  2.2711
  531MOL0     H71665   0.176   8.798   5.777 -0.0971 -1.8323 -0.0327
  531MOL0     H71666   0.030   8.891   5.754  2.4383  0.2286 -2.2098
  531MOL0     H71667  -0.008   8.305   6.510  0.0322 -0.2392  1.6641
  531MOL0     H71668  -0.071   8.126   6.669 -2.8005  0.1478 -1.0975
  531MOL0     H71669  -0.227   7.812   6.796 -0.0993 -0.3836 -0.0606
  531MOL0     H71670  -0.337   7.677   6.972 -0.1194  0.7958  1.8390
  531MOL0     H71671   0.937   8.553   7.624 -2.1771  1.2672  0.0206
  531MOL0     H71672   1.146   8.556   7.510 -0.2107 -0.3123  0.4696
  531MOL0     H71673   1.316   8.693   7.070 -0.7649 -1.0354 -2.0299
  531MOL0     H71674   1.529   8.772   6.974 -0.6775  1.6086  0.5328
  531MOL0     H71675   1.777   8.844   7.238 -0.3318 -2.7534 -0.1207
  531MOL0     H71676   1.906   8.751   7.203 -2.3812 -0.8680 -0.6510
  531MOL0     H71677   1.887   8.878   6.966 -1.4696  2.5193 -1.6367
  531MOL0     H71678   2.000   8.937   7.087 -0.6817 -0.7504 -0.2690
  531MOL0     H71679   1.853   9.102   7.164 -1.1092  2.1307  0.1507
  531MOL0     H71680   1.715   9.055   7.074  0.6344  3.3857 -2.7046
  531MOL0     H71681   1.832   9.123   6.864  0.0105  0.0685  0.3202
  531MOL0     H71682   1.981   9.172   6.948  0.0359  0.0298 -0.2556
  531MOL0     H71683   1.763   9.513   7.006  0.3216 -0.1167  2.0205
  531MOL0     H71684   1.751   8.549   7.251  0.5068  0.3158 -1.3355
  531MOL0     H71685   1.552   8.443   7.336 -5.7855 -1.0397 -0.2804
  532MOL0     O71686   5.089  10.542   4.454  0.4920 -0.2546  0.1745
  532MOL0     C71687   4.980  10.562   4.506  0.0869  0.3288 -0.2273
  532MOL0     O71688   4.968  10.590   4.642  0.1304 -0.0167 -0.5278
  532MOL0     C71689   5.087  10.583   4.713 -0.0863 -0.2479  0.8348
  532MOL0     C71690   5.170  10.468   4.719 -0.2459  0.1439 -0.7478
  532MOL0     C71691   5.288  10.463   4.794 -0.1266 -0.8464  0.0378
  532MOL0     C71692   5.319  10.574   4.872 -0.0023 -0.1643 -0.8446
  532MOL0     O71693   5.429  10.583   4.953 -0.7946  0.3804  1.0802
  532MOL0     C71694   5.534  10.485   4.944 -0.6019  0.3372 -0.0657
  532MOL0     C71695   5.629  10.494   4.833  0.7882 -0.5151 -0.9253
  532MOL0     C71696   5.708  10.635   4.847  0.8136 -1.3371  0.9741
  532MOL0     C71697   5.802  10.653   4.722  0.2773  0.5937 -0.1199
  532MOL0     C71698   5.879  10.782   4.738 -0.4753 -0.7184 -0.0237
  532MOL0     C71699   5.981  10.798   4.620  0.6453 -0.4442 -0.3317
  532MOL0     C71700   6.081  10.912   4.635  0.3635  0.1025  0.2612
  532MOL0     C71701   6.008  11.048   4.633  0.4308 -0.2098  0.1416
  532MOL0     N71702   6.092  11.148   4.693  0.5284 -0.3132  0.2362
  532MOL0     C71703   6.141  11.141   4.822  0.2664  0.5967 -0.4919
  532MOL0     C71704   6.188  11.258   4.854 -0.4955  0.0200  0.1232
  532MOL0     C71705   6.276  11.288   4.976  0.3018 -0.0498  0.0606
  532MOL0     C71706   6.209  11.247   5.107 -0.0890 -0.1048  0.6072
  532MOL0     C71707   6.219  11.351   5.221  0.2074 -0.0298 -0.0833
  532MOL0     C71708   6.357  11.369   5.276 -1.1399  0.4363 -0.2459
  532MOL0     O71709   6.347  11.432   5.398 -0.2949 -0.7947 -0.2720
  532MOL0     C71710   6.376  11.364   5.517 -1.0056  0.5339 -0.5128
  532MOL0     C71711   6.414  11.443   5.624 -0.1513  0.2321  0.8996
  532MOL0     C71712   6.431  11.384   5.747 -0.7883 -0.5080 -0.7738
  532MOL0     C71713   6.458  11.481   5.861 -0.0967  0.6347 -0.0031
  532MOL0     C71714   6.413  11.245   5.763 -0.8777 -1.9093  0.1673
  532MOL0     C71715   6.426  11.178   5.887  0.0228 -0.1580  0.4350
  532MOL0     O71716   6.317  11.169   5.961  0.0440  0.0934 -0.8942
  532MOL0     C71717   6.314  11.059   6.045  0.2002  0.0840  0.4165
  532MOL0     C71718   6.310  11.092   6.184 -0.3394  0.6923  1.0298
  532MOL0     C71719   6.306  10.985   6.263 -0.6949  0.8652  0.4717
  532MOL0     C71720   6.292  10.851   6.222 -0.2084 -0.9935 -0.5438
  532MOL0     O71721   6.280  10.744   6.319  0.2307  0.0725  0.1143
  532MOL0     C71722   6.227  10.783   6.450  0.1856 -0.2413 -1.1657
  532MOL0     C71723   6.166  10.659   6.512 -0.0697  0.7318 -1.0950
  532MOL0     C71724   6.054  10.608   6.418 -0.3282  0.7063  0.2282
  532MOL0     C71725   6.028  10.449   6.435 -0.5051 -0.1232 -0.0770
  532MOL0     C71726   5.953  10.432   6.569 -0.8289 -0.8685  0.2614
  532MOL0     C71727   5.949  10.283   6.609 -0.5980 -0.2089 -0.2289
  532MOL0     C71728   5.863  10.255   6.738 -0.4555  0.2316  0.1992
  532MOL0     C71729   5.880  10.118   6.799 -0.7612 -0.9621 -0.0096
  532MOL0    Cl71730   5.723  10.019   6.823  0.1393 -0.0547  0.2665
  532MOL0     C71731   6.283  10.817   6.087 -0.1674 -0.1527 -0.6013
  532MOL0     C71732   6.299  10.926   5.996 -0.9680 -0.3445  0.8557
  532MOL0     O71733   6.535  11.127   5.909 -0.0054  1.1313 -1.0672
  532MOL0     C71734   6.375  11.163   5.661 -0.3928 -0.2487  0.4547
  532MOL0     C71735   6.365  11.226   5.538  0.1366  0.0736  0.1101
  532MOL0     N71736   6.172  11.336   4.743  0.3097 -0.6448  0.6790
  532MOL0     N71737   6.122  11.271   4.645 -0.2538  0.1761 -0.5550
  532MOL0     C71738   5.242  10.685   4.873  0.4003  0.0122  0.4379
  532MOL0     C71739   5.127  10.691   4.793  0.8723 -1.1812 -0.0879
  532MOL0     C71740   4.865  10.575   4.415  0.2914  0.0747  0.6184
  532MOL0     C71741   4.736  10.611   4.461  0.3490  0.0361  0.1159
  532MOL0     C71742   4.632  10.623   4.373  0.5638  0.4366 -0.0540
  532MOL0     C71743   4.649  10.614   4.239  0.1822  0.1085 -0.0882
  532MOL0     O71744   4.536  10.647   4.162  0.2079  0.3886 -0.6958
  532MOL0     C71745   4.541  10.641   4.017 -0.0629 -0.1462  0.0940
  532MOL0     C71746   4.397  10.652   3.980 -0.6381 -0.1610  0.8162
  532MOL0     C71747   4.382  10.666   3.825  0.7263 -0.5717  0.1393
  532MOL0     C71748   4.241  10.625   3.773  0.1533 -0.6681 -0.2498
  532MOL0     C71749   4.207  10.478   3.804 -0.2404 -0.6222 -0.0440
  532MOL0     C71750   4.185  10.361   3.816  1.4415 -0.2062 -0.1292
  532MOL0     C71751   4.773  10.579   4.184 -0.7712  0.3430 -0.3882
  532MOL0     C71752   4.888  10.562   4.275  0.2952 -0.6073 -0.5559
  532MOL0     H71753   5.146  10.382   4.657 -1.6472  1.0199 -1.4652
  532MOL0     H71754   5.348  10.374   4.779 -4.6450 -4.2243 -0.2234
  532MOL0     H71755   5.596  10.499   5.032 -1.0255  0.3187  0.2398
  532MOL0     H71756   5.489  10.385   4.949  2.8617 -1.2910  2.5252
  532MOL0     H71757   5.701  10.412   4.835  0.9418 -0.3836  1.0345
  532MOL0     H71758   5.576  10.487   4.738 -0.0522 -0.2988 -0.4793
  532MOL0     H71759   5.639  10.719   4.862  1.1288 -0.3974 -2.1278
  532MOL0     H71760   5.769  10.623   4.936  0.5362  0.5286  1.4717
  532MOL0     H71761   5.858  10.561   4.743 -4.0328 -2.3981 -0.5316
  532MOL0     H71762   5.763  10.650   4.620  0.8156  1.3355 -0.3553
  532MOL0     H71763   5.806  10.864   4.732  0.8765  0.8940  2.9119
  532MOL0     H71764   5.929  10.780   4.835 -0.3078 -0.3088 -0.0981
  532MOL0     H71765   6.041  10.706   4.618  1.1548 -0.1251 -3.2341
  532MOL0     H71766   5.917  10.805   4.532  0.6344  2.7004 -0.1593
  532MOL0     H71767   6.129  10.887   4.730 -0.2822 -3.4567 -0.2166
  532MOL0     H71768   6.150  10.907   4.551  0.7316 -0.3981  0.5844
  532MOL0     H71769   5.910  11.047   4.682  0.8720  0.1297  1.0513
  532MOL0     H71770   5.990  11.084   4.532  2.8609 -0.2114 -0.3390
  532MOL0     H71771   6.131  11.050   4.880  0.2238  1.3201  0.6739
  532MOL0     H71772   6.371  11.233   4.978 -0.5218 -1.5418 -0.0501
  532MOL0     H71773   6.275  11.397   4.985 -0.5420  0.1734 -2.0621
  532MOL0     H71774   6.248  11.157   5.154  2.5991  1.5735  1.8523
  532MOL0     H71775   6.104  11.229   5.083  0.1069  0.3691 -0.7434
  532MOL0     H71776   6.160  11.322   5.308 -0.2872  2.4570  0.4702
  532MOL0     H71777   6.192  11.454   5.197  0.4912 -0.2936 -1.6715
  532MOL0     H71778   6.419  11.435   5.213  0.0955  0.8250  1.3227
  532MOL0     H71779   6.402  11.269   5.283 -1.9871  0.0897  0.3016
  532MOL0     H71780   6.435  11.548   5.609  1.3084 -0.1769 -0.2050
  532MOL0     H71781   6.377  11.555   5.853 -3.3027 -2.7910 -2.9578
  532MOL0     H71782   6.450  11.436   5.960 -4.3482 -1.2445 -0.9907
  532MOL0     H71783   6.548  11.540   5.841  0.7402 -0.6350 -0.0337
  532MOL0     H71784   6.313  11.196   6.214  1.0900  1.7207 -2.2220
  532MOL0     H71785   6.322  11.010   6.367  3.2651 -0.6694  0.4223
  532MOL0     H71786   6.302  10.824   6.517  0.0923 -0.7715 -0.7294
  532MOL0     H71787   6.139  10.848   6.444 -0.0220 -0.4740 -0.6417
  532MOL0     H71788   6.247  10.587   6.530 -0.5480  0.3922 -0.2335
  532MOL0     H71789   6.128  10.690   6.610 -6.0820  1.1334 -3.1767
  532MOL0     H71790   6.081  10.617   6.313  0.0059 -0.0683  0.2420
  532MOL0     H71791   5.958  10.660   6.427 -1.8768 -1.4094 -2.6248
  532MOL0     H71792   5.963  10.417   6.352 -2.0584  1.5004  0.4658
  532MOL0     H71793   6.118  10.388   6.446 -0.7475 -0.0315  3.8427
  532MOL0     H71794   5.862  10.492   6.571  0.7593  1.6717 -0.2655
  532MOL0     H71795   6.014  10.477   6.648  2.3515  0.5633 -2.7466
  532MOL0     H71796   5.894  10.244   6.524  2.6214  0.4959 -2.8379
  532MOL0     H71797   6.051  10.247   6.626 -0.7251  0.1145  1.3772
  532MOL0     H71798   5.758  10.284   6.739 -0.3526  0.6372  1.6663
  532MOL0     H71799   5.907  10.318   6.817 -2.2469  0.0588  1.3788
  532MOL0     H71800   5.920  10.130   6.900 -2.3453 -0.0296  0.5329
  532MOL0     H71801   5.948  10.058   6.738 -0.3353 -0.8562  0.3549
  532MOL0     H71802   6.279  10.718   6.043  1.7271  1.2426 -4.3304
  532MOL0     H71803   6.290  10.892   5.894  2.3852 -2.2029  1.0523
  532MOL0     H71804   6.351  11.058   5.675  2.3590 -1.3871 -2.3735
  532MOL0     H71805   6.334  11.169   5.451 -0.5894  3.2041 -1.8398
  532MOL0     H71806   5.269  10.773   4.930  3.4589 -0.4210 -0.1838
  532MOL0     H71807   5.064  10.779   4.786  0.9119 -1.2998 -3.4425
  532MOL0     H71808   4.716  10.641   4.564 -2.0750 -0.6359 -0.1109
  532MOL0     H71809   4.533  10.632   4.416 -0.5626 -4.0736 -1.1422
  532MOL0     H71810   4.600  10.718   3.966  0.6438  1.3285  2.9079
  532MOL0     H71811   4.576  10.544   3.981  1.3288  0.4048 -0.1169
  532MOL0     H71812   4.349  10.736   4.031  1.0686  1.1917  0.3284
  532MOL0     H71813   4.364  10.552   4.009  0.2928 -0.8713 -0.4297
  532MOL0     H71814   4.461  10.599   3.792  4.3032  3.9384 -1.5924
  532MOL0     H71815   4.403  10.768   3.792  0.8139 -0.6946 -0.1881
  532MOL0     H71816   4.242  10.628   3.664  0.0013  3.2654 -0.2704
  532MOL0     H71817   4.172  10.701   3.812 -2.4149 -3.4116  1.0193
  532MOL0     H71818   4.166  10.257   3.833  3.0072 -0.6134 -0.6877
  532MOL0     H71819   4.794  10.550   4.082 -0.7310 -2.6211  0.3649
  532MOL0     H71820   4.979  10.535   4.222 -1.4329 -0.6226 -3.8081
  533MOL0     O71821   6.954   9.311   5.577 -0.3369 -0.0878 -0.1751
  533MOL0     C71822   6.858   9.376   5.557 -0.3917 -0.3395  1.0283
  533MOL0     O71823   6.764   9.339   5.471  0.5099  0.2245 -0.3892
  533MOL0     C71824   6.787   9.227   5.390 -0.4126  1.0982  0.7314
  533MOL0     C71825   6.848   9.244   5.265  0.1273 -0.4754  0.3707
  533MOL0     C71826   6.890   9.132   5.187 -0.0821  0.2674  0.1388
  533MOL0     C71827   6.857   9.002   5.229  0.1912  0.0902 -0.6028
  533MOL0     O71828   6.912   8.899   5.154 -0.3692  0.4739  0.1140
  533MOL0     C71829   6.978   8.789   5.213 -0.4461  0.3686  0.0100
  533MOL0     C71830   6.986   8.662   5.122 -0.6248  0.0605 -0.8676
  533MOL0     C71831   6.860   8.575   5.099  1.2207  1.2289 -0.4229
  533MOL0     C71832   6.732   8.652   5.058  0.0987 -0.1728 -0.5343
  533MOL0     C71833   6.606   8.565   5.010 -0.1614  0.2710 -0.9125
  533MOL0     C71834   6.467   8.642   5.010  0.2967  0.0031 -0.2764
  533MOL0     C71835   6.366   8.621   5.129  0.2688  1.0694  0.2446
  533MOL0     C71836   6.417   8.650   5.271 -0.2846  0.4201 -0.3921
  533MOL0     N71837   6.305   8.605   5.351  0.1471 -0.1567 -0.0472
  533MOL0     C71838   6.305   8.505   5.450  0.4689 -0.2263 -0.1059
  533MOL0     C71839   6.190   8.523   5.520 -1.0224  0.6285  1.0311
  533MOL0     C71840   6.142   8.454   5.643 -0.7280 -0.9271 -1.0165
  533MOL0     C71841   5.992   8.470   5.666 -0.8112  0.5435 -0.2428
  533MOL0     C71842   5.949   8.338   5.737 -0.0306  0.3061 -0.1379
  533MOL0     C71843   5.799   8.350   5.738  0.2390 -0.2965 -0.0694
  533MOL0     O71844   5.735   8.382   5.614 -0.3475  0.5355 -0.3220
  533MOL0     C71845   5.724   8.274   5.523 -0.0383  0.2670 -0.2587
  533MOL0     C71846   5.747   8.139   5.551 -0.5213 -0.1732  0.7786
  533MOL0     C71847   5.734   8.048   5.450 -0.6829 -0.6445  0.0147
  533MOL0     C71848   5.754   7.901   5.483 -0.2655 -0.0804 -0.3821
  533MOL0     C71849   5.686   8.085   5.322  0.6840  0.4421  0.4571
  533MOL0     C71850   5.654   7.980   5.215  0.2789 -0.5945  0.9599
  533MOL0     O71851   5.518   7.965   5.188  0.2341  0.8265 -0.7504
  533MOL0     C71852   5.497   7.921   5.062  0.2753 -0.3704  0.1164
  533MOL0     C71853   5.452   8.012   4.968  0.0033 -0.7872  0.2640
  533MOL0     C71854   5.444   7.965   4.835  0.3145 -0.8215 -0.3365
  533MOL0     C71855   5.491   7.841   4.797 -0.5567 -0.5649  0.0827
  533MOL0     O71856   5.478   7.814   4.662 -0.2369 -0.1053  0.6075
  533MOL0     C71857   5.580   7.738   4.599  0.4376  0.2990 -0.2183
  533MOL0     C71858   5.513   7.673   4.473  0.1634  0.2208 -0.5029
  533MOL0     C71859   5.624   7.627   4.389  0.3035  0.1848 -0.4699
  533MOL0     C71860   5.580   7.536   4.272  0.1275  0.4679 -0.3057
  533MOL0     C71861   5.516   7.608   4.150 -0.0438 -0.3650 -0.3399
  533MOL0     C71862   5.493   7.507   4.032 -0.1303 -0.2246  0.2305
  533MOL0     C71863   5.422   7.583   3.922  0.2139 -0.3995  0.1253
  533MOL0     C71864   5.368   7.485   3.820 -1.1422 -0.4252  0.0291
  533MOL0    Cl71865   5.315   7.570   3.665 -0.2519  0.1355 -0.1943
  533MOL0     C71866   5.540   7.756   4.889 -0.1629  1.1119 -0.2002
  533MOL0     C71867   5.545   7.795   5.026 -0.5161  0.7201  0.6795
  533MOL0     O71868   5.743   7.901   5.192  0.3887  0.4185 -0.4377
  533MOL0     C71869   5.650   8.222   5.307 -0.9184 -1.4218  0.1768
  533MOL0     C71870   5.671   8.318   5.399 -0.3347  0.1735 -0.1421
  533MOL0     N71871   6.121   8.622   5.464  0.9283  0.3012 -0.1376
  533MOL0     N71872   6.185   8.669   5.363  0.3841 -0.1921  0.0179
  533MOL0     C71873   6.780   8.984   5.343  0.9312 -0.0415  0.1179
  533MOL0     C71874   6.753   9.096   5.426 -0.6929  0.3974  0.2337
  533MOL0     C71875   6.858   9.493   5.635  0.1166 -0.5819  0.6837
  533MOL0     C71876   6.728   9.546   5.667  0.1298 -0.3670  0.6975
  533MOL0     C71877   6.718   9.643   5.765  0.0143  0.0697 -0.2478
  533MOL0     C71878   6.832   9.680   5.833 -1.3361  0.1068 -0.1528
  533MOL0     O71879   6.812   9.764   5.945 -0.0207 -0.1189  1.1806
  533MOL0     C71880   6.911   9.841   6.014 -1.4199  0.1069 -0.0784
  533MOL0     C71881   6.869   9.875   6.164  0.2727 -0.7499  0.2279
  533MOL0     C71882   6.781  10.005   6.157 -0.3910 -0.4207  0.1298
  533MOL0     C71883   6.631   9.979   6.164  0.4182  0.4508  0.5890
  533MOL0     C71884   6.596   9.911   6.289  0.8707 -0.5068  0.3716
  533MOL0     C71885   6.587   9.861   6.398 -0.3678  0.5637  0.0725
  533MOL0     C71886   6.960   9.648   5.798  0.8264  0.7559  0.7800
  533MOL0     C71887   6.973   9.553   5.697  0.0588  0.9029 -0.1607
  533MOL0     H71888   6.865   9.343   5.225 -2.5162 -1.2502 -3.2033
  533MOL0     H71889   6.954   9.150   5.101  1.6987 -0.1562  1.3190
  533MOL0     H71890   7.085   8.810   5.222 -0.1864 -0.9951  0.3759
  533MOL0     H71891   6.943   8.754   5.311 -1.1996 -0.4373 -0.5226
  533MOL0     H71892   7.022   8.706   5.029  2.5180  1.8960  1.0335
  533MOL0     H71893   7.069   8.601   5.160 -0.0860  0.5539 -1.2454
  533MOL0     H71894   6.875   8.490   5.032 -3.2996 -1.6480  1.6740
  533MOL0     H71895   6.837   8.519   5.191 -0.4542  0.0222 -1.5017
  533MOL0     H71896   6.698   8.718   5.138  1.9716  2.3868 -1.7007
  533MOL0     H71897   6.761   8.711   4.970 -1.7669 -0.4643 -1.3866
  533MOL0     H71898   6.630   8.536   4.907 -2.1781  0.0917 -1.3751
  533MOL0     H71899   6.592   8.477   5.074  1.7901  0.2410 -0.4702
  533MOL0     H71900   6.487   8.744   4.977  1.8691 -0.1608  0.0828
  533MOL0     H71901   6.412   8.608   4.922 -0.2604  1.1288 -0.3714
  533MOL0     H71902   6.268   8.663   5.107 -0.6524 -0.4729  1.1658
  533MOL0     H71903   6.338   8.515   5.125 -2.4858  1.7318  0.5148
  533MOL0     H71904   6.446   8.753   5.292 -1.4496  0.4986  0.9468
  533MOL0     H71905   6.509   8.597   5.299 -0.6612  0.4478  0.9678
  533MOL0     H71906   6.378   8.428   5.475  1.3167  0.6362  0.1434
  533MOL0     H71907   6.164   8.347   5.638 -1.8410 -1.1117 -2.5295
  533MOL0     H71908   6.199   8.498   5.725 -3.2913 -0.7637  0.7863
  533MOL0     H71909   5.935   8.478   5.573 -1.5218 -1.2217 -0.0170
  533MOL0     H71910   5.953   8.558   5.717 -0.0778 -0.8963  3.0828
  533MOL0     H71911   5.986   8.327   5.840 -0.7940 -0.1235  0.0994
  533MOL0     H71912   5.969   8.249   5.676  1.7686 -1.6838  3.0386
  533MOL0     H71913   5.773   8.430   5.807 -2.7790  0.1376 -1.5568
  533MOL0     H71914   5.758   8.262   5.789  0.2410 -1.3169 -1.7585
  533MOL0     H71915   5.786   8.108   5.647  2.0790 -0.5697 -0.3220
  533MOL0     H71916   5.854   7.878   5.445  0.2770 -1.1182  1.5248
  533MOL0     H71917   5.757   7.891   5.592 -0.1701 -1.5388 -0.4996
  533MOL0     H71918   5.681   7.832   5.440 -2.2270  1.0606  0.9588
  533MOL0     H71919   5.410   8.105   5.005  1.0070 -0.3021  0.2119
  533MOL0     H71920   5.398   8.036   4.768  0.5205  1.2144  1.5648
  533MOL0     H71921   5.670   7.792   4.568  0.5522  0.4982  0.4689
  533MOL0     H71922   5.623   7.661   4.664  0.3969  2.0283  1.9524
  533MOL0     H71923   5.463   7.585   4.514 -1.2696  1.5417  0.6554
  533MOL0     H71924   5.457   7.751   4.422 -1.0667  0.8869  1.7570
  533MOL0     H71925   5.694   7.566   4.447 -0.3135 -2.0887 -1.9642
  533MOL0     H71926   5.699   7.703   4.362  0.6080 -0.3919 -1.3087
  533MOL0     H71927   5.666   7.482   4.231 -0.6567  1.1113 -3.0179
  533MOL0     H71928   5.508   7.463   4.310  1.6265  0.4386  2.7856
  533MOL0     H71929   5.582   7.688   4.117  0.5226 -0.6179  0.1412
  533MOL0     H71930   5.422   7.655   4.178 -1.6714 -2.4500 -1.9679
  533MOL0     H71931   5.586   7.460   4.000 -0.2251 -1.3169  1.4653
  533MOL0     H71932   5.425   7.430   4.070 -1.0965 -0.4716 -1.8559
  533MOL0     H71933   5.494   7.650   3.875 -1.4234 -0.4744 -2.7601
  533MOL0     H71934   5.332   7.637   3.955  1.3599  1.9970 -0.4489
  533MOL0     H71935   5.278   7.447   3.867 -2.1756  1.0239 -0.6975
  533MOL0     H71936   5.426   7.393   3.809 -0.5682 -0.0288 -0.3795
  533MOL0     H71937   5.556   7.651   4.865  1.1986  1.2602 -0.0045
  533MOL0     H71938   5.584   7.735   5.107  1.0411 -0.7493 -1.0494
  533MOL0     H71939   5.612   8.255   5.211 -2.9592  2.5633  2.0998
  533MOL0     H71940   5.654   8.424   5.385  0.2868  0.5542  1.6786
  533MOL0     H71941   6.757   8.890   5.393  1.3026  0.7742  1.8901
  533MOL0     H71942   6.738   9.066   5.529 -0.9465 -0.1024  0.0519
  533MOL0     H71943   6.643   9.515   5.607  1.1377 -2.4565  0.2731
  533MOL0     H71944   6.619   9.675   5.794 -1.3306 -2.5983 -1.5953
  533MOL0     H71945   7.003   9.788   6.039 -1.3490  0.5389  0.6168
  533MOL0     H71946   6.942   9.926   5.953 -2.5068  0.7531  0.2253
  533MOL0     H71947   6.959   9.901   6.220 -0.3756 -1.7026  1.7892
  533MOL0     H71948   6.825   9.779   6.192  1.4559 -3.1944 -5.0674
  533MOL0     H71949   6.806  10.060   6.065  1.6692 -2.0580 -0.3616
  533MOL0     H71950   6.791  10.076   6.239 -2.0422  1.2033 -0.9836
  533MOL0     H71951   6.598   9.926   6.074 -2.4071  1.0011  1.2004
  533MOL0     H71952   6.575  10.073   6.160 -0.2031  0.1379  1.6128
  533MOL0     H71953   6.581   9.809   6.492 -0.1005  1.6160  0.6974
  533MOL0     H71954   7.057   9.669   5.840  2.4090  2.8639 -3.3383
  533MOL0     H71955   7.073   9.515   5.688  0.1071 -0.1119  3.3003
  534MOL0     O71956   6.923   7.350   4.835 -0.0315  0.3596  0.6618
  534MOL0     C71957   6.869   7.295   4.744  0.2785  0.7246 -0.1071
  534MOL0     O71958   6.752   7.217   4.748  0.2204 -0.3919  0.3793
  534MOL0     C71959   6.689   7.180   4.860  0.6221  0.2845  0.5719
  534MOL0     C71960   6.620   7.065   4.864  0.2481  0.0484  0.7995
  534MOL0     C71961   6.566   7.006   4.974  0.5186 -0.2586 -0.5739
  534MOL0     C71962   6.559   7.079   5.095 -0.3482  0.3547 -0.0683
  534MOL0     O71963   6.473   7.038   5.190  0.4604  0.1967  0.3980
  534MOL0     C71964   6.392   7.140   5.253  0.2603 -0.1923  0.9897
  534MOL0     C71965   6.305   7.083   5.365  1.2209 -0.1995  0.0612
  534MOL0     C71966   6.229   7.184   5.454 -0.9193 -0.1831 -0.4981
  534MOL0     C71967   6.099   7.237   5.384  0.1236 -0.0042 -0.0375
  534MOL0     C71968   5.976   7.151   5.437 -0.2803  0.1984 -0.8933
  534MOL0     C71969   5.840   7.163   5.367 -0.2610  0.2270  0.2584
  534MOL0     C71970   5.851   7.122   5.222 -0.1235 -0.4143 -0.3242
  534MOL0     C71971   5.712   7.110   5.158  1.5015  0.1016  0.1510
  534MOL0     N71972   5.649   7.246   5.163  0.2745  0.9078 -0.2218
  534MOL0     C71973   5.520   7.275   5.193 -0.1767 -0.2894  0.0046
  534MOL0     C71974   5.505   7.408   5.170 -1.2914 -0.6979 -1.3756
  534MOL0     C71975   5.379   7.480   5.196 -0.3178 -0.1333 -0.3177
  534MOL0     C71976   5.365   7.523   5.339 -0.0359  0.5677  0.4145
  534MOL0     C71977   5.459   7.629   5.395  0.3852  0.4058  0.1397
  534MOL0     C71978   5.459   7.643   5.551 -0.0141 -0.3006  0.0881
  534MOL0     O71979   5.335   7.701   5.591 -0.1754 -0.3205 -0.4804
  534MOL0     C71980   5.308   7.835   5.576  0.2583 -0.2811 -0.5966
  534MOL0     C71981   5.179   7.888   5.629  0.4627  0.4186  0.3234
  534MOL0     C71982   5.152   8.023   5.628  0.2698 -0.1882 -0.1270
  534MOL0     C71983   5.020   8.059   5.696 -0.8188  0.8960 -0.5245
  534MOL0     C71984   5.233   8.114   5.558  0.0753  0.3046  0.2858
  534MOL0     C71985   5.199   8.262   5.549  1.1004 -1.2894  0.2936
  534MOL0     O71986   5.301   8.337   5.499  0.3472  0.1776  0.2772
  534MOL0     C71987   5.288   8.478   5.489  0.7363 -0.3634 -0.1067
  534MOL0     C71988   5.164   8.545   5.451 -0.3782  1.4399  0.0493
  534MOL0     C71989   5.155   8.683   5.445  0.2785 -0.3723  0.1129
  534MOL0     C71990   5.258   8.761   5.496 -0.2308 -0.2694 -0.5766
  534MOL0     O71991   5.245   8.900   5.503 -0.7715 -0.5507  0.1086
  534MOL0     C71992   5.174   8.959   5.617 -0.3101 -0.3356 -0.3733
  534MOL0     C71993   5.021   8.966   5.580 -0.2734  0.7981  0.0460
  534MOL0     C71994   4.932   8.971   5.707  1.3896  0.4954  0.9126
  534MOL0     C71995   4.964   9.098   5.792  0.0863  0.4352  0.2407
  534MOL0     C71996   4.866   9.128   5.907  0.0262  0.5074 -0.1216
  534MOL0     C71997   4.910   9.248   5.992 -0.7494 -0.1563 -0.1361
  534MOL0     C71998   4.821   9.277   6.116 -0.2052 -0.1515 -0.5616
  534MOL0     C71999   4.811   9.164   6.218 -0.4608 -0.0943  0.4133
  534MOL0    Cl72000   4.737   9.227   6.374 -0.2809 -0.4276 -0.1375
  534MOL0     C72001   5.377   8.697   5.536  0.5615 -0.2519 -0.0424
  534MOL0     C72002   5.393   8.565   5.535  0.6457  0.4581  0.6194
  534MOL0     O72003   5.085   8.307   5.563  0.2918  0.3042  0.1433
  534MOL0     C72004   5.354   8.064   5.509  0.4504  0.2440 -0.2946
  534MOL0     C72005   5.387   7.926   5.517 -0.1609  0.6685  0.3433
  534MOL0     N72006   5.624   7.462   5.146  0.3418  0.4516  0.5841
  534MOL0     N72007   5.710   7.368   5.132 -0.6246 -0.3877  0.3773
  534MOL0     C72008   6.631   7.198   5.100  0.4121 -0.1938 -0.1972
  534MOL0     C72009   6.698   7.249   4.987  0.5373 -0.2658  0.1264
  534MOL0     C72010   6.927   7.312   4.610 -0.1474 -0.0570 -0.0602
  534MOL0     C72011   7.058   7.361   4.592  0.5878  0.1392 -1.2908
  534MOL0     C72012   7.111   7.374   4.457  0.4855  0.7480  0.6344
  534MOL0     C72013   7.041   7.332   4.341 -0.5839 -0.5447 -0.0344
  534MOL0     O72014   7.100   7.340   4.209  0.6108  0.0550 -0.3053
  534MOL0     C72015   7.076   7.249   4.097  0.1562 -0.0751  0.1892
  534MOL0     C72016   7.175   7.128   4.120  0.1206 -0.3353  0.8117
  534MOL0     C72017   7.172   7.044   4.249 -0.4041  0.1876 -0.4168
  534MOL0     C72018   7.225   6.901   4.226 -0.7718 -0.4656  0.0803
  534MOL0     C72019   7.369   6.890   4.203  0.4687  0.9356 -0.0662
  534MOL0     C72020   7.485   6.882   4.192 -0.1177 -0.0691 -0.3188
  534MOL0     C72021   6.912   7.286   4.360  0.3444  0.2953 -0.7848
  534MOL0     C72022   6.854   7.270   4.491 -1.1356  0.1165  0.6347
  534MOL0     H72023   6.594   7.000   4.782 -0.1191 -0.0412  0.9875
  534MOL0     H72024   6.501   6.919   4.975 -0.7779  0.6796 -0.6875
  534MOL0     H72025   6.464   7.210   5.296  1.9898 -0.3485 -1.4196
  534MOL0     H72026   6.332   7.195   5.179  1.1528 -0.6668 -0.1209
  534MOL0     H72027   6.229   7.014   5.326 -0.4560  0.5464  1.8279
  534MOL0     H72028   6.359   7.011   5.426 -1.8825 -1.8103  1.1605
  534MOL0     H72029   6.206   7.136   5.550  1.0812 -2.2754 -0.9513
  534MOL0     H72030   6.296   7.270   5.466 -0.0933 -0.8439 -0.2424
  534MOL0     H72031   6.085   7.341   5.412 -1.3861 -0.2267  0.0886
  534MOL0     H72032   6.113   7.206   5.280  1.2889 -3.8957  1.1019
  534MOL0     H72033   6.010   7.049   5.417 -1.8222 -0.1595 -1.8598
  534MOL0     H72034   5.958   7.150   5.545 -1.2073  2.6306 -0.9700
  534MOL0     H72035   5.760   7.105   5.413  1.0239 -3.0157 -1.3179
  534MOL0     H72036   5.811   7.268   5.376  1.7409  0.7382  1.3475
  534MOL0     H72037   5.907   7.202   5.172  0.8501 -0.0807  1.2398
  534MOL0     H72038   5.906   7.028   5.216 -0.1008 -0.6294  2.2442
  534MOL0     H72039   5.657   7.036   5.217 -0.1533  1.5183  0.4507
  534MOL0     H72040   5.717   7.073   5.055  1.9997  0.1667  0.1534
  534MOL0     H72041   5.442   7.201   5.210 -1.5327  0.4608 -2.3557
  534MOL0     H72042   5.379   7.564   5.126  2.8833  1.8905  1.8222
  534MOL0     H72043   5.291   7.418   5.177  0.5053 -1.2464 -0.5690
  534MOL0     H72044   5.368   7.433   5.400  2.0373  1.5821  1.9400
  534MOL0     H72045   5.266   7.567   5.349 -0.6267  0.1958 -2.7451
  534MOL0     H72046   5.447   7.724   5.342  1.1957  1.0230  1.0342
  534MOL0     H72047   5.559   7.591   5.369 -0.5075 -2.9194  0.9916
  534MOL0     H72048   5.547   7.701   5.578 -0.5066  2.1758 -3.0711
  534MOL0     H72049   5.469   7.545   5.599  0.4930 -0.7544 -0.9026
  534MOL0     H72050   5.120   7.814   5.683 -1.5077  1.9312  0.3908
  534MOL0     H72051   5.037   8.151   5.752 -0.6798  0.7236 -0.2805
  534MOL0     H72052   4.942   8.093   5.627 -2.3958  0.4579  0.9749
  534MOL0     H72053   4.986   7.983   5.767  2.6018 -0.3711 -0.0396
  534MOL0     H72054   5.081   8.485   5.416  1.4741 -1.7142  0.6468
  534MOL0     H72055   5.069   8.718   5.389  0.3728  4.2041  2.3597
  534MOL0     H72056   5.178   8.892   5.703  1.7897  1.1003  0.7540
  534MOL0     H72057   5.212   9.057   5.648 -1.6558  0.0219  0.2134
  534MOL0     H72058   4.999   9.058   5.525  0.0448  2.2398  2.2297
  534MOL0     H72059   4.994   8.875   5.525  2.6484 -0.5788  0.7106
  534MOL0     H72060   4.927   8.881   5.769 -1.2465 -1.1271 -1.4074
  534MOL0     H72061   4.831   8.999   5.674  2.1223  2.0377 -0.1503
  534MOL0     H72062   5.062   9.078   5.837 -0.6846 -2.4534  0.8488
  534MOL0     H72063   4.968   9.179   5.719  2.4535  0.9292  0.8222
  534MOL0     H72064   4.854   9.043   5.975  0.5127  0.8506  0.4008
  534MOL0     H72065   4.763   9.143   5.875 -1.2536  1.6702  3.9238
  534MOL0     H72066   5.006   9.223   6.038 -1.6783 -1.7890  0.9986
  534MOL0     H72067   4.906   9.338   5.929  0.0780 -0.2164 -0.2724
  534MOL0     H72068   4.727   9.312   6.073  0.9647 -0.7646 -3.9255
  534MOL0     H72069   4.867   9.357   6.174 -1.8832 -0.1750  0.8605
  534MOL0     H72070   4.916   9.143   6.238 -0.1018  1.5263  0.3502
  534MOL0     H72071   4.762   9.077   6.173  1.4262 -1.7904  1.4885
  534MOL0     H72072   5.449   8.765   5.581 -0.2679  0.9583 -0.4987
  534MOL0     H72073   5.479   8.516   5.580  0.6685 -0.6638 -0.5595
  534MOL0     H72074   5.427   8.130   5.464  0.8165 -0.5037 -0.8193
  534MOL0     H72075   5.477   7.892   5.467  0.5323  1.5600  0.9591
  534MOL0     H72076   6.631   7.260   5.189 -1.0532 -0.9090  0.3352
  534MOL0     H72077   6.747   7.345   4.999 -1.8552  1.1049 -0.4606
  534MOL0     H72078   7.138   7.379   4.663  0.6880  0.4335 -1.4806
  534MOL0     H72079   7.214   7.407   4.458  0.9477 -0.6412  1.3255
  534MOL0     H72080   6.973   7.212   4.094 -0.2203  0.8774  0.8936
  534MOL0     H72081   7.099   7.280   3.995 -0.3711 -2.2168 -0.6292
  534MOL0     H72082   7.278   7.162   4.107 -0.4715  0.9285 -0.9751
  534MOL0     H72083   7.161   7.065   4.031 -2.0901  1.9545 -0.5742
  534MOL0     H72084   7.067   7.037   4.280  0.3435 -1.5800  2.0484
  534MOL0     H72085   7.207   7.103   4.335 -1.9564 -0.1538  0.4766
  534MOL0     H72086   7.180   6.861   4.135  0.3003  1.6794 -1.4881
  534MOL0     H72087   7.191   6.843   4.312 -1.0478 -0.4164  0.0073
  534MOL0     H72088   7.592   6.884   4.184  0.4596 -2.6014  3.9075
  534MOL0     H72089   6.859   7.248   4.273 -3.4361 -0.3215  1.5566
  534MOL0     H72090   6.752   7.235   4.503 -0.7400 -1.3648 -0.0869
  535MOL0     O72091   8.105  11.001   7.697 -0.3047  0.0851  1.0373
  535MOL0     C72092   8.105  11.121   7.735 -0.4769 -0.5857 -0.2539
  535MOL0     O72093   8.113  11.229   7.655  0.0182 -0.5138  0.1527
  535MOL0     C72094   8.109  11.217   7.522 -0.7758 -0.7322 -0.1501
  535MOL0     C72095   8.014  11.148   7.450  0.1236  0.8376 -0.3468
  535MOL0     C72096   8.022  11.136   7.308  0.1248 -0.7162 -0.1598
  535MOL0     C72097   8.125  11.200   7.239 -0.2922 -0.0563  0.4542
  535MOL0     O72098   8.141  11.206   7.106 -0.1846 -0.8058  0.2816
  535MOL0     C72099   8.115  11.082   7.043  0.6187 -0.7257 -0.3427
  535MOL0     C72100   8.214  11.062   6.921 -0.0913  0.1516  0.0395
  535MOL0     C72101   8.217  11.179   6.826 -0.3678  0.6972  0.1112
  535MOL0     C72102   8.324  11.280   6.859 -0.6799  0.4234 -0.5438
  535MOL0     C72103   8.300  11.411   6.790  1.3117 -0.6574 -0.9265
  535MOL0     C72104   8.428  11.497   6.802  0.3937  1.2363 -0.0713
  535MOL0     C72105   8.408  11.636   6.735 -1.0844  0.2867 -0.1478
  535MOL0     C72106   8.510  11.743   6.766  0.3712  0.1697  0.4572
  535MOL0     N72107   8.647  11.696   6.748 -0.5138 -0.3236  0.0939
  535MOL0     C72108   8.741  11.654   6.846  0.0684  0.3763 -0.3894
  535MOL0     C72109   8.846  11.612   6.780  0.9977 -0.6105  0.3815
  535MOL0     C72110   8.971  11.558   6.835 -0.4006 -0.6314 -0.7558
  535MOL0     C72111   8.992  11.406   6.829 -0.4489  0.1378 -1.2491
  535MOL0     C72112   9.143  11.368   6.852  0.4925 -0.1317 -0.2238
  535MOL0     C72113   9.169  11.222   6.876  0.1311  0.5176  0.4712
  535MOL0     O72114   9.305  11.198   6.845  0.5294  0.2069  0.2309
  535MOL0     C72115   9.343  11.070   6.812 -0.6926 -0.3011 -0.8932
  535MOL0     C72116   9.255  10.960   6.813 -1.0403  0.0428 -0.4319
  535MOL0     C72117   9.289  10.834   6.755 -0.9243  0.0928  0.1130
  535MOL0     C72118   9.184  10.723   6.777 -0.8772 -0.4729 -0.6048
  535MOL0     C72119   9.422  10.820   6.695  0.9346  0.7778  0.5318
  535MOL0     C72120   9.470  10.694   6.637  0.6978  0.1385  0.1703
  535MOL0     O72121   9.607  10.689   6.615  0.3219 -0.2669 -0.2592
  535MOL0     C72122   9.662  10.565   6.653  0.5338 -0.6184  0.2332
  535MOL0     C72123   9.748  10.503   6.560  0.0623  1.5361 -0.1644
  535MOL0     C72124   9.811  10.387   6.592  0.3506  0.5981 -0.5082
  535MOL0     C72125   9.788  10.320   6.716  0.6217 -0.2686 -1.3543
  535MOL0     O72126   9.842  10.198   6.761 -0.2160 -0.0843 -0.3368
  535MOL0     C72127   9.913  10.126   6.658  0.0465  0.5137  0.0836
  535MOL0     C72128   9.976   9.998   6.721  0.1740  0.4097  0.8070
  535MOL0     C72129   9.999   9.904   6.595  0.2005 -0.5395 -0.8343
  535MOL0     C72130  10.066   9.776   6.636  0.6756  0.1567  0.4299
  535MOL0     C72131  10.119   9.692   6.518  0.4076 -0.7959  0.8469
  535MOL0     C72132  10.005   9.623   6.435 -0.8772  0.5526  0.3014
  535MOL0     C72133  10.066   9.538   6.327 -0.0537 -0.0711  0.3101
  535MOL0     C72134   9.960   9.448   6.267 -0.5022 -0.2371 -0.4689
  535MOL0    Cl72135   9.886   9.344   6.404 -0.2362 -0.5113 -0.3280
  535MOL0     C72136   9.701  10.383   6.807 -0.0898  0.0146  0.5411
  535MOL0     C72137   9.638  10.509   6.779  0.0360  1.1332 -0.7060
  535MOL0     O72138   9.391  10.596   6.616  0.3803 -0.3218 -0.7474
  535MOL0     C72139   9.505  10.934   6.697  0.3722 -0.5484  0.1901
  535MOL0     C72140   9.467  11.056   6.754  0.8939 -0.1483  0.3917
  535MOL0     N72141   8.828  11.639   6.646 -0.9209  0.8041 -0.0256
  535MOL0     N72142   8.708  11.682   6.633  0.4287 -0.1261  0.5058
  535MOL0     C72143   8.212  11.279   7.306  0.5173 -1.2719 -1.1193
  535MOL0     C72144   8.204  11.283   7.448 -0.1763 -0.8717  0.1661
  535MOL0     C72145   8.094  11.137   7.889 -0.0394 -0.6890 -0.3084
  535MOL0     C72146   8.107  11.265   7.945 -0.6300 -0.0812 -0.9536
  535MOL0     C72147   8.112  11.279   8.085 -0.0932 -0.1054  0.8482
  535MOL0     C72148   8.098  11.163   8.170  0.1603  0.0177  0.9503
  535MOL0     O72149   8.114  11.184   8.300  0.4723  0.5266 -0.0964
  535MOL0     C72150   8.100  11.081   8.400  0.6328 -0.0145  0.0572
  535MOL0     C72151   8.125  11.130   8.544 -0.3938 -0.3787 -1.4532
  535MOL0     C72152   8.139  11.009   8.645 -1.6469  0.3582 -0.0409
  535MOL0     C72153   8.085  11.042   8.784  1.1080 -0.9059 -0.7535
  535MOL0     C72154   8.132  10.944   8.885 -0.2753 -0.7865  0.3567
  535MOL0     C72155   8.191  10.854   8.942  0.8768 -0.2960 -0.4383
  535MOL0     C72156   8.076  11.032   8.107 -0.4493 -0.6446  0.5569
  535MOL0     C72157   8.076  11.032   7.969  0.0269  0.6943 -0.1551
  535MOL0     H72158   7.938  11.092   7.503  2.1207 -1.6503  0.0815
  535MOL0     H72159   7.940  11.083   7.261 -1.8132  0.4196  1.7492
  535MOL0     H72160   8.113  10.999   7.114  1.0342  0.0083  0.5514
  535MOL0     H72161   8.013  11.084   7.003  1.4897 -0.2024 -2.6740
  535MOL0     H72162   8.315  11.041   6.958 -0.8134 -1.2407  1.2932
  535MOL0     H72163   8.189  10.973   6.862 -0.8944 -1.0320  2.0728
  535MOL0     H72164   8.236  11.142   6.724  0.0904  3.5965 -0.9694
  535MOL0     H72165   8.124  11.238   6.825  0.6445  2.4729 -2.6840
  535MOL0     H72166   8.334  11.293   6.967  0.9986 -0.5942 -0.5379
  535MOL0     H72167   8.423  11.250   6.824  0.4119  2.2468  0.7854
  535MOL0     H72168   8.274  11.393   6.685 -0.3287 -2.8490 -0.2355
  535MOL0     H72169   8.219  11.468   6.837 -0.6743 -0.0234 -4.7103
  535MOL0     H72170   8.446  11.510   6.910 -2.2849  2.2784  0.3143
  535MOL0     H72171   8.514  11.437   6.771  1.3362  1.6698  1.5716
  535MOL0     H72172   8.427  11.601   6.633  0.0215 -3.0887  1.0810
  535MOL0     H72173   8.307  11.677   6.747 -1.8142 -1.5341  0.3082
  535MOL0     H72174   8.492  11.779   6.868 -1.4488  2.7494 -0.6522
  535MOL0     H72175   8.499  11.831   6.702 -0.3840  1.4240  2.2175
  535MOL0     H72176   8.732  11.676   6.952 -0.7974 -2.1318  0.1277
  535MOL0     H72177   9.060  11.601   6.788  0.9653 -0.4675  1.7992
  535MOL0     H72178   8.988  11.588   6.939  3.1157  0.0142 -1.3948
  535MOL0     H72179   8.953  11.362   6.737 -1.1874 -1.8234 -0.0629
  535MOL0     H72180   8.938  11.349   6.905 -1.4104  0.1557 -1.9083
  535MOL0     H72181   9.177  11.414   6.946 -2.7592  0.5151  0.7577
  535MOL0     H72182   9.199  11.398   6.763 -0.7729 -0.2723 -1.0848
  535MOL0     H72183   9.115  11.173   6.795  1.2410  1.1890 -0.7109
  535MOL0     H72184   9.150  11.194   6.980  2.1746  0.9398  0.9985
  535MOL0     H72185   9.156  10.977   6.855 -1.8378  1.7266 -2.7361
  535MOL0     H72186   9.217  10.630   6.825  1.3901 -0.3605 -1.7815
  535MOL0     H72187   9.107  10.757   6.847  0.7941  0.8243  0.6795
  535MOL0     H72188   9.132  10.700   6.684 -0.9306  0.3366 -0.7826
  535MOL0     H72189   9.783  10.556   6.472  1.9549 -2.0078 -1.7452
  535MOL0     H72190   9.891  10.345   6.531 -0.4475  0.2226 -1.3083
  535MOL0     H72191   9.841  10.104   6.579 -1.0802  4.5362 -0.2046
  535MOL0     H72192   9.994  10.181   6.610  0.3038 -1.1823 -1.5141
  535MOL0     H72193  10.071  10.018   6.773  2.0688 -4.0156 -0.5047
  535MOL0     H72194   9.910   9.951   6.795  1.1066 -0.3413  1.1942
  535MOL0     H72195  10.068   9.941   6.519  0.9484 -2.4848 -1.1772
  535MOL0     H72196   9.905   9.886   6.542 -0.8715  0.1330  0.7717
  535MOL0     H72197  10.152   9.803   6.698  0.1727  3.0863  0.0194
  535MOL0     H72198   9.988   9.737   6.701  0.7856 -0.1435  0.3811
  535MOL0     H72199  10.188   9.615   6.553  1.4348  0.2067  1.0680
  535MOL0     H72200  10.178   9.761   6.456 -0.2909  3.1525  4.1634
  535MOL0     H72201   9.960   9.562   6.514 -0.7551 -1.1710 -0.9020
  535MOL0     H72202   9.933   9.694   6.395 -0.0613  0.8369 -0.7219
  535MOL0     H72203  10.144   9.485   6.381  2.9797  3.9240  0.2888
  535MOL0     H72204  10.118   9.601   6.254 -0.2909 -0.7101 -0.4284
  535MOL0     H72205  10.010   9.390   6.189 -1.7080  0.7192 -2.0229
  535MOL0     H72206   9.887   9.515   6.220  0.0569 -0.0824 -1.1261
  535MOL0     H72207   9.696  10.336   6.904  1.5596 -2.6517 -0.5407
  535MOL0     H72208   9.571  10.550   6.854 -1.3852  0.2002 -1.4145
  535MOL0     H72209   9.606  10.928   6.659  0.3868  1.4872 -0.1908
  535MOL0     H72210   9.534  11.141   6.757 -1.5066  1.9428 -0.8992
  535MOL0     H72211   8.295  11.324   7.251  0.7496 -1.0030 -0.5534
  535MOL0     H72212   8.280  11.344   7.497 -1.6160  1.7205 -0.6183
  535MOL0     H72213   8.140  11.347   7.882  2.3272 -0.2407  0.2163
  535MOL0     H72214   8.130  11.371   8.140 -0.5832  1.6183 -1.6540
  535MOL0     H72215   7.999  11.041   8.387 -0.2599  2.1056  0.0184
  535MOL0     H72216   8.169  10.999   8.380 -2.3265 -1.9260 -3.7356
  535MOL0     H72217   8.043  11.193   8.577  1.3961  0.1092  2.7118
  535MOL0     H72218   8.217  11.190   8.550 -0.0273 -0.8973 -1.7577
  535MOL0     H72219   8.247  10.992   8.649 -1.5216  1.1667  0.3637
  535MOL0     H72220   8.096  10.914   8.615  1.8452 -1.7491  1.0649
  535MOL0     H72221   7.975  11.040   8.780  1.1323 -0.6840 -2.3585
  535MOL0     H72222   8.133  11.130   8.827  2.2338 -1.8499 -0.0228
  535MOL0     H72223   8.240  10.766   8.978 -0.2878 -0.2711  1.2843
  535MOL0     H72224   8.066  10.944   8.170 -0.5201 -2.0613 -1.3431
  535MOL0     H72225   8.077  10.933   7.924  1.0039  0.9830 -0.8009
  536MOL0     O72226   4.489   6.503   9.645  0.2608 -0.7323  0.1922
  536MOL0     C72227   4.511   6.390   9.613 -0.0610  1.7042 -0.2260
  536MOL0     O72228   4.624   6.334   9.566 -0.2652  0.7768  0.5505
  536MOL0     C72229   4.744   6.388   9.583  0.9488  0.5431  0.3945
  536MOL0     C72230   4.806   6.421   9.704  0.5337 -0.4329  0.3634
  536MOL0     C72231   4.929   6.482   9.716 -0.6275 -0.0688  1.0631
  536MOL0     C72232   4.991   6.522   9.595 -0.0832  0.4288 -0.3186
  536MOL0     O72233   5.122   6.573   9.591  0.2096  0.5148  0.7115
  536MOL0     C72234   5.218   6.531   9.685  0.6160 -0.3699  0.7807
  536MOL0     C72235   5.369   6.571   9.656 -0.2835  1.4235  0.9160
  536MOL0     C72236   5.383   6.720   9.665  0.4410  0.5601  0.0482
  536MOL0     C72237   5.522   6.766   9.627 -0.2619 -0.1712 -0.2968
  536MOL0     C72238   5.561   6.885   9.715 -0.1436 -0.0912 -1.1611
  536MOL0     C72239   5.696   6.942   9.661 -0.1313  0.3221  0.1731
  536MOL0     C72240   5.756   7.049   9.751 -0.6345  0.7933  0.0676
  536MOL0     C72241   5.687   7.188   9.761  0.8580  0.2836 -0.4503
  536MOL0     N72242   5.703   7.273   9.645  0.8247 -0.2752 -0.2464
  536MOL0     C72243   5.809   7.350   9.603 -0.2446  1.1015 -0.5045
  536MOL0     C72244   5.767   7.408   9.486 -0.0335 -1.1157 -0.2755
  536MOL0     C72245   5.848   7.506   9.411  0.4451 -0.2564 -0.7957
  536MOL0     C72246   5.997   7.456   9.407 -0.3652  0.4250  0.2600
  536MOL0     C72247   6.099   7.531   9.312 -0.0465 -0.4876 -0.1588
  536MOL0     C72248   6.133   7.676   9.363 -0.1748 -0.8228 -0.9779
  536MOL0     O72249   6.258   7.711   9.300  1.0783 -0.0296  0.4761
  536MOL0     C72250   6.288   7.839   9.306  0.5952  0.3371 -0.3210
  536MOL0     C72251   6.271   7.931   9.410  0.4087  0.4348  0.9875
  536MOL0     C72252   6.324   8.061   9.400  0.4043 -0.2288 -0.1776
  536MOL0     C72253   6.312   8.145   9.522 -0.8507 -0.3616  0.4273
  536MOL0     C72254   6.370   8.109   9.270 -0.0750 -0.1496 -0.1606
  536MOL0     C72255   6.410   8.254   9.235  0.3271 -0.2685 -0.6447
  536MOL0     O72256   6.448   8.278   9.113 -0.0957  0.2051  0.7278
  536MOL0     C72257   6.506   8.404   9.079  0.7672  0.7761 -0.2470
  536MOL0     C72258   6.447   8.531   9.125 -0.2196  0.0034  0.0005
  536MOL0     C72259   6.514   8.644   9.093 -0.4295 -0.6222  0.2408
  536MOL0     C72260   6.623   8.642   9.011 -0.5858 -0.4740 -0.0260
  536MOL0     O72261   6.686   8.761   8.978 -0.3944 -0.0154  0.4256
  536MOL0     C72262   6.736   8.777   8.840  0.2934 -0.2402  0.6205
  536MOL0     C72263   6.614   8.779   8.741  0.4925 -0.7696  0.4930
  536MOL0     C72264   6.653   8.827   8.603  0.0130 -0.2461  0.5037
  536MOL0     C72265   6.672   8.976   8.597 -0.4425  0.1463 -0.8236
  536MOL0     C72266   6.538   9.047   8.591  0.0113 -0.7958 -0.0067
  536MOL0     C72267   6.558   9.193   8.640 -1.1503 -0.3822  0.6024
  536MOL0     C72268   6.554   9.216   8.792  0.5822 -0.0598 -0.3104
  536MOL0     C72269   6.614   9.348   8.824  0.2190  0.2924  0.0855
  536MOL0    Cl72270   6.543   9.471   8.719  0.4278  0.1291  0.5994
  536MOL0     C72271   6.675   8.514   8.976  0.7461 -0.5285  0.1748
  536MOL0     C72272   6.614   8.391   9.009 -1.0141  0.2026  0.5118
  536MOL0     O72273   6.418   8.339   9.328  0.0952 -0.2101  0.5306
  536MOL0     C72274   6.379   8.012   9.164 -0.4532  0.6561 -0.3895
  536MOL0     C72275   6.344   7.876   9.187 -0.4193 -0.7009  0.5044
  536MOL0     N72276   5.636   7.369   9.457 -0.5628  0.8987  0.0687
  536MOL0     N72277   5.604   7.288   9.556  0.0703 -0.3817  0.6843
  536MOL0     C72278   4.923   6.501   9.470 -0.2647 -0.7293 -0.6000
  536MOL0     C72279   4.807   6.422   9.469  0.2486 -0.4877  0.6063
  536MOL0     C72280   4.396   6.289   9.614 -0.4673 -0.9331 -0.0950
  536MOL0     C72281   4.275   6.328   9.669  1.3527 -0.5307 -0.0154
  536MOL0     C72282   4.166   6.227   9.681 -0.3137  0.0734 -0.8649
  536MOL0     C72283   4.191   6.093   9.660 -0.3510 -0.3544 -0.1729
  536MOL0     O72284   4.099   6.003   9.686  0.3321 -0.9051  0.5680
  536MOL0     C72285   4.137   5.859   9.703 -0.6305 -0.0023  0.1099
  536MOL0     C72286   4.010   5.766   9.743 -0.0672 -0.2811 -1.1446
  536MOL0     C72287   3.951   5.799   9.884  0.2915 -0.9140  0.5981
  536MOL0     C72288   4.044   5.769  10.003 -0.5418  0.0730 -0.0149
  536MOL0     C72289   3.974   5.782  10.135  0.4578 -0.5333  0.8107
  536MOL0     C72290   3.934   5.787  10.250  1.1192 -0.2159  0.8006
  536MOL0     C72291   4.314   6.067   9.590  0.3465 -1.3874 -0.2405
  536MOL0     C72292   4.414   6.166   9.577 -0.1579  0.9095 -0.9684
  536MOL0     H72293   4.749   6.391   9.791  1.2250 -4.1324 -0.3079
  536MOL0     H72294   4.996   6.489   9.801 -1.7778 -0.3496  2.0153
  536MOL0     H72295   5.192   6.569   9.785 -3.6976 -1.4692  0.2867
  536MOL0     H72296   5.213   6.423   9.695 -2.5034 -0.4357 -0.1572
  536MOL0     H72297   5.435   6.512   9.720  1.0001  1.6105 -0.1846
  536MOL0     H72298   5.394   6.546   9.552  0.6122 -1.0766  1.6853
  536MOL0     H72299   5.314   6.762   9.590 -0.5312 -2.7719 -1.0777
  536MOL0     H72300   5.356   6.748   9.767 -1.2058  0.7345 -0.4049
  536MOL0     H72301   5.596   6.687   9.644 -0.9501 -0.6352  0.5917
  536MOL0     H72302   5.528   6.798   9.522 -2.1785  3.0204  0.4169
  536MOL0     H72303   5.502   6.977   9.710 -2.5037 -1.3725  0.8629
  536MOL0     H72304   5.569   6.857   9.820 -1.1243  0.6250 -0.8767
  536MOL0     H72305   5.761   6.854   9.668 -1.6939 -0.7067  2.7891
  536MOL0     H72306   5.684   6.984   9.561 -2.1663 -0.2661  0.1297
  536MOL0     H72307   5.763   7.012   9.853  1.9297  3.2667  0.9227
  536MOL0     H72308   5.855   7.069   9.709 -0.2004 -0.6137  0.3775
  536MOL0     H72309   5.723   7.242   9.849  0.6158 -0.8489  0.3699
  536MOL0     H72310   5.579   7.174   9.758  0.9810 -0.5735 -1.8099
  536MOL0     H72311   5.903   7.372   9.652 -1.6852 -1.3481  3.9051
  536MOL0     H72312   5.802   7.515   9.312 -2.4594 -4.8818 -0.1402
  536MOL0     H72313   5.841   7.603   9.460 -0.1950  0.5655 -2.4300
  536MOL0     H72314   5.996   7.356   9.363 -0.2273  1.1100 -1.3576
  536MOL0     H72315   6.046   7.444   9.504  0.5147  2.0717  0.0612
  536MOL0     H72316   6.042   7.535   9.218  0.7826  2.0337 -0.6393
  536MOL0     H72317   6.191   7.472   9.303  0.6289 -0.2433  3.6476
  536MOL0     H72318   6.144   7.674   9.472 -0.6056  0.1655 -0.9022
  536MOL0     H72319   6.045   7.735   9.338  1.6849  0.7645 -4.7098
  536MOL0     H72320   6.227   7.899   9.504 -2.2253  1.3346  0.1463
  536MOL0     H72321   6.409   8.187   9.552 -1.2013  0.6583  0.1767
  536MOL0     H72322   6.240   8.223   9.499  0.1827 -0.1178 -2.3959
  536MOL0     H72323   6.284   8.080   9.605  0.4714  0.1574  1.3159
  536MOL0     H72324   6.356   8.536   9.183  2.1706 -0.0942  4.2189
  536MOL0     H72325   6.478   8.737   9.137 -0.1354 -1.4359  2.2736
  536MOL0     H72326   6.790   8.872   8.829  0.1543  0.3187  3.9274
  536MOL0     H72327   6.814   8.705   8.815  2.0819  1.2407  1.6972
  536MOL0     H72328   6.561   8.683   8.734 -0.6942 -0.0346 -3.1630
  536MOL0     H72329   6.547   8.850   8.791 -0.2621 -2.6122  2.2070
  536MOL0     H72330   6.570   8.800   8.538  0.9744  0.3982 -1.0668
  536MOL0     H72331   6.741   8.777   8.561 -2.6380 -4.0368 -1.0358
  536MOL0     H72332   6.725   9.015   8.685  1.2460 -0.5205 -1.5048
  536MOL0     H72333   6.739   9.008   8.517 -1.2514 -0.4085 -1.7521
  536MOL0     H72334   6.461   9.000   8.652  0.0574  1.0972  1.6315
  536MOL0     H72335   6.504   9.042   8.487 -1.2307 -0.0746  0.3367
  536MOL0     H72336   6.652   9.228   8.598 -2.1523  1.6574 -0.0825
  536MOL0     H72337   6.476   9.256   8.602  3.2293  3.6357 -3.4998
  536MOL0     H72338   6.595   9.136   8.854 -4.5589 -0.5592  3.1191
  536MOL0     H72339   6.450   9.224   8.826  0.1882  1.5253 -1.7329
  536MOL0     H72340   6.721   9.337   8.804 -0.1051  0.8016 -2.1603
  536MOL0     H72341   6.596   9.385   8.926  0.3790  0.7034 -0.0352
  536MOL0     H72342   6.774   8.510   8.932  0.8790  1.4412  0.1832
  536MOL0     H72343   6.669   8.301   8.984 -0.3737  0.8658 -0.5826
  536MOL0     H72344   6.416   8.030   9.064  4.9984  0.9087  1.3225
  536MOL0     H72345   6.344   7.799   9.111 -1.0081  1.2663 -1.6211
  536MOL0     H72346   4.968   6.545   9.382  0.6483  0.3024  0.3559
  536MOL0     H72347   4.760   6.403   9.373 -1.5807  0.8470  1.1702
  536MOL0     H72348   4.255   6.428   9.709  1.3869 -1.6186  2.9947
  536MOL0     H72349   4.063   6.256   9.701 -0.7533  0.0272 -2.8280
  536MOL0     H72350   4.176   5.823   9.607  0.6929  0.4279  0.4647
  536MOL0     H72351   4.221   5.856   9.773  1.1066  3.3772 -1.5846
  536MOL0     H72352   4.037   5.659   9.744  0.5614 -0.1358  0.8038
  536MOL0     H72353   3.932   5.788   9.670 -0.6104  1.6328 -0.0408
  536MOL0     H72354   3.852   5.753   9.893  0.6163 -2.1692 -1.7073
  536MOL0     H72355   3.923   5.905   9.886 -0.2517 -1.0294 -0.4471
  536MOL0     H72356   4.133   5.830   9.985 -0.5873  0.5583  1.3000
  536MOL0     H72357   4.077   5.665  10.008  0.0481  0.3286  3.2954
  536MOL0     H72358   3.904   5.778  10.352 -0.4477 -0.8615  0.3127
  536MOL0     H72359   4.337   5.967   9.554 -1.1878 -1.4680 -1.1005
  536MOL0     H72360   4.503   6.130   9.527 -1.0771 -1.9742 -0.7076
  537MOL0     O72361   6.227   5.348   6.268 -0.5572  0.0937  0.8008
  537MOL0     C72362   6.163   5.301   6.172 -0.2550  0.3798  0.4813
  537MOL0     O72363   6.046   5.225   6.174  0.8349 -0.3610  0.0010
  537MOL0     C72364   6.002   5.181   6.299  0.0705 -0.6165  0.1757
  537MOL0     C72365   5.871   5.214   6.355 -0.8347  0.2989 -0.4056
  537MOL0     C72366   5.838   5.164   6.476  0.2464  0.3595 -0.4983
  537MOL0     C72367   5.908   5.069   6.548 -0.9547  0.7269 -0.1488
  537MOL0     O72368   5.852   5.015   6.659  0.0334  0.6732  0.1700
  537MOL0     C72369   5.914   4.899   6.718  0.0632  0.5373 -1.1062
  537MOL0     C72370   5.825   4.866   6.845 -0.1177  0.2109  0.0864
  537MOL0     C72371   5.877   4.937   6.965  1.2336 -0.0372 -0.3291
  537MOL0     C72372   5.996   4.873   7.032 -0.3495  0.4111  0.8045
  537MOL0     C72373   6.028   4.942   7.170 -0.1448  0.2981  0.1676
  537MOL0     C72374   5.911   4.936   7.282  1.0158  0.0936 -0.0872
  537MOL0     C72375   5.877   4.800   7.341 -0.2561  0.3428 -0.2711
  537MOL0     C72376   5.758   4.797   7.429 -0.6678 -0.2907 -0.2557
  537MOL0     N72377   5.795   4.855   7.558  0.5368  0.4076 -0.3459
  537MOL0     C72378   5.817   4.788   7.674 -0.6295 -0.2353 -0.1938
  537MOL0     C72379   5.840   4.886   7.767 -0.2196  0.5286 -0.2554
  537MOL0     C72380   5.876   4.854   7.915 -0.0860 -0.3932 -0.0500
  537MOL0     C72381   5.786   4.745   7.973  0.2421  0.2624 -0.1544
  537MOL0     C72382   5.840   4.704   8.108  0.6139  0.0665 -0.3876
  537MOL0     C72383   5.756   4.590   8.167  0.6052  0.4223  0.5473
  537MOL0     O72384   5.630   4.646   8.218  0.1457  0.2504 -0.1690
  537MOL0     C72385   5.538   4.557   8.275 -0.0934 -0.1526 -0.5315
  537MOL0     C72386   5.556   4.420   8.290 -0.4368  0.5102  0.2952
  537MOL0     C72387   5.474   4.348   8.368  0.0030  0.2490  0.5605
  537MOL0     C72388   5.507   4.199   8.365 -0.6780  0.0923  0.4365
  537MOL0     C72389   5.353   4.406   8.429 -0.0353  0.4372 -0.0636
  537MOL0     C72390   5.260   4.325   8.513 -0.6599 -0.0593  0.8413
  537MOL0     O72391   5.281   4.196   8.520 -0.3347  0.4896  0.0475
  537MOL0     C72392   5.204   4.112   8.591 -0.0976  1.0574 -0.2355
  537MOL0     C72393   5.065   4.118   8.596  0.4500  0.9363 -0.6474
  537MOL0     C72394   4.990   4.020   8.673  0.5010 -0.5874  1.1217
  537MOL0     C72395   5.055   3.919   8.747 -0.0209  0.4201 -0.2900
  537MOL0     O72396   4.992   3.826   8.815  0.3632  0.3534 -0.0908
  537MOL0     C72397   4.872   3.865   8.887 -0.1161 -0.0806  0.6174
  537MOL0     C72398   4.868   3.805   9.033  0.5325 -0.0230  0.7501
  537MOL0     C72399   4.739   3.846   9.105  0.4924 -0.2072  0.3117
  537MOL0     C72400   4.766   3.871   9.251  0.3249  0.4125  0.2309
  537MOL0     C72401   4.646   3.864   9.336 -0.0568 -0.3954 -0.2247
  537MOL0     C72402   4.669   3.910   9.475 -0.3881 -0.3956  0.7714
  537MOL0     C72403   4.540   3.920   9.548 -0.1229  0.2332 -0.3814
  537MOL0     C72404   4.464   4.050   9.503 -0.1194  0.0284 -0.7671
  537MOL0    Cl72405   4.310   4.058   9.584  0.4719 -0.3853  0.0195
  537MOL0     C72406   5.196   3.914   8.742  0.1893 -0.1250 -0.4441
  537MOL0     C72407   5.268   4.006   8.665  0.0424 -0.4871 -0.4023
  537MOL0     O72408   5.170   4.391   8.577  0.1879  0.4917  0.7793
  537MOL0     C72409   5.327   4.546   8.401  0.3751 -0.8376 -0.1245
  537MOL0     C72410   5.421   4.617   8.328 -0.0715 -0.4647  0.5003
  537MOL0     N72411   5.842   5.013   7.706  1.3573  0.0323  0.7384
  537MOL0     N72412   5.823   4.982   7.579  0.8027 -0.8250  0.3686
  537MOL0     C72413   6.033   5.032   6.495  0.2806 -0.7560  0.5402
  537MOL0     C72414   6.078   5.084   6.370  0.1689 -0.3318  0.9536
  537MOL0     C72415   6.213   5.327   6.035  0.8374 -0.2633  0.6875
  537MOL0     C72416   6.305   5.431   6.009 -0.1666  0.3769 -0.3763
  537MOL0     C72417   6.360   5.436   5.878 -0.3804  0.4533 -0.1491
  537MOL0     C72418   6.322   5.353   5.768  0.0325  0.5394  0.4269
  537MOL0     O72419   6.347   5.392   5.642 -0.3237  0.3495  0.4597
  537MOL0     C72420   6.298   5.306   5.541  0.0001  0.0334 -1.4733
  537MOL0     C72421   6.365   5.324   5.405 -0.3605  0.7506 -0.0784
  537MOL0     C72422   6.521   5.344   5.402  1.2839  0.6839  0.1563
  537MOL0     C72423   6.595   5.214   5.456  0.3549  0.8885 -0.2296
  537MOL0     C72424   6.576   5.103   5.361 -0.7432  0.5272  0.4481
  537MOL0     C72425   6.562   5.009   5.287  0.0405  0.1832 -0.7755
  537MOL0     C72426   6.228   5.245   5.800  0.3364  0.8359  0.3881
  537MOL0     C72427   6.182   5.236   5.931  0.4036 -1.2290  0.7567
  537MOL0     H72428   5.799   5.282   6.313  0.8731  0.7213 -2.8368
  537MOL0     H72429   5.745   5.197   6.521  1.3801  2.6212  0.3867
  537MOL0     H72430   5.927   4.817   6.647  1.7861 -0.3376  0.1860
  537MOL0     H72431   6.012   4.928   6.754 -0.7751  3.4396 -0.8666
  537MOL0     H72432   5.728   4.914   6.831  0.1051  0.2708 -1.5303
  537MOL0     H72433   5.813   4.759   6.865 -0.9876  0.3421  0.2800
  537MOL0     H72434   5.890   5.044   6.947 -0.5785  0.3480  0.4050
  537MOL0     H72435   5.794   4.916   7.034  1.2965 -1.1796 -0.5950
  537MOL0     H72436   5.991   4.765   7.047  1.9649  0.3541  1.5994
  537MOL0     H72437   6.076   4.885   6.959  0.4916  0.5660  1.7283
  537MOL0     H72438   6.113   4.888   7.211 -1.0120  0.5000  2.4338
  537MOL0     H72439   6.056   5.045   7.147  0.5763  0.0543 -0.0693
  537MOL0     H72440   5.951   5.001   7.361  1.2913  2.7161 -2.2153
  537MOL0     H72441   5.819   4.972   7.236  0.6623 -1.2806 -0.4940
  537MOL0     H72442   5.847   4.733   7.260  2.9372 -2.5316  0.6527
  537MOL0     H72443   5.967   4.758   7.389 -0.6360  1.5339  1.6022
  537MOL0     H72444   5.727   4.694   7.451 -0.2489  0.1730  3.1299
  537MOL0     H72445   5.676   4.843   7.373 -1.3989 -0.1175  0.9141
  537MOL0     H72446   5.816   4.681   7.692 -1.9648  0.0620  1.7477
  537MOL0     H72447   5.981   4.822   7.922  0.0407 -0.1135 -0.6302
  537MOL0     H72448   5.861   4.941   7.980 -2.4709 -1.2627  0.6453
  537MOL0     H72449   5.782   4.650   7.920 -0.8034  0.0845  0.2066
  537MOL0     H72450   5.687   4.790   7.987 -0.4989 -0.8389 -1.6417
  537MOL0     H72451   5.851   4.782   8.184  5.9106  0.2228 -0.9181
  537MOL0     H72452   5.946   4.681   8.093  0.8767  0.7973  0.2401
  537MOL0     H72453   5.810   4.536   8.245 -0.9205 -1.4252  0.3980
  537MOL0     H72454   5.714   4.518   8.096  1.7086  0.3991 -0.0936
  537MOL0     H72455   5.650   4.381   8.250 -0.5342  0.6719 -0.0924
  537MOL0     H72456   5.594   4.177   8.303  2.2251  0.8187  3.9277
  537MOL0     H72457   5.535   4.166   8.465  1.2071 -1.6607 -0.5985
  537MOL0     H72458   5.424   4.133   8.337 -0.8539  0.4651  0.0619
  537MOL0     H72459   5.012   4.187   8.532 -1.6274 -0.4962 -0.5762
  537MOL0     H72460   4.884   4.045   8.668  0.8833  1.0093  0.0339
  537MOL0     H72461   4.858   3.973   8.902  3.5755  0.9255 -1.7949
  537MOL0     H72462   4.786   3.836   8.827 -0.7567  2.1164  0.3860
  537MOL0     H72463   4.866   3.696   9.021 -1.7384  0.1521 -1.1796
  537MOL0     H72464   4.960   3.828   9.087  0.3081 -0.0481  1.1537
  537MOL0     H72465   4.659   3.771   9.096  0.6869 -0.1937 -2.1604
  537MOL0     H72466   4.698   3.935   9.056 -0.1000  1.9804  4.3699
  537MOL0     H72467   4.838   3.798   9.290 -0.6239 -0.5772  0.1658
  537MOL0     H72468   4.806   3.970   9.278 -0.7612  0.7723  0.5909
  537MOL0     H72469   4.603   3.764   9.329  1.2834 -1.1429  1.5607
  537MOL0     H72470   4.580   3.940   9.292 -1.6919 -2.5388 -1.7101
  537MOL0     H72471   4.731   3.832   9.520 -0.1885  0.4951  2.0856
  537MOL0     H72472   4.719   4.007   9.479 -0.4103 -0.1589 -2.1709
  537MOL0     H72473   4.552   3.923   9.657 -2.6296 -1.4548  0.0216
  537MOL0     H72474   4.480   3.832   9.525  0.5170 -0.0211 -1.1301
  537MOL0     H72475   4.448   4.064   9.395  1.1572 -2.9139 -1.4563
  537MOL0     H72476   4.515   4.138   9.541 -1.3699  0.4718 -0.0846
  537MOL0     H72477   5.259   3.838   8.788  1.7552  1.4253  0.0882
  537MOL0     H72478   5.373   3.983   8.651  0.2859  0.5740 -0.3743
  537MOL0     H72479   5.241   4.591   8.448  0.2509 -1.6066  0.3893
  537MOL0     H72480   5.405   4.723   8.307  0.6555 -0.8449 -2.4982
  537MOL0     H72481   6.088   4.949   6.538 -1.2020 -1.3031  1.4976
  537MOL0     H72482   6.176   5.059   6.333 -0.8903  1.1141 -3.3965
  537MOL0     H72483   6.346   5.502   6.080 -1.5987 -0.3684  1.2416
  537MOL0     H72484   6.422   5.523   5.857  1.6665 -0.4586  1.7118
  537MOL0     H72485   6.339   5.211   5.576  0.2031  0.0354 -1.6947
  537MOL0     H72486   6.191   5.324   5.530 -0.2409  0.4442  0.9624
  537MOL0     H72487   6.320   5.405   5.348  3.6507  3.8260  0.6771
  537MOL0     H72488   6.348   5.229   5.354 -0.1008  1.1065 -0.8459
  537MOL0     H72489   6.553   5.430   5.462 -1.7789  1.5903  0.6466
  537MOL0     H72490   6.546   5.366   5.297  0.3395 -1.5676 -0.5965
  537MOL0     H72491   6.559   5.184   5.555  1.9360  0.8230  0.3600
  537MOL0     H72492   6.703   5.229   5.461  0.8903  0.6794 -5.6065
  537MOL0     H72493   6.552   4.912   5.244  1.3308 -0.2539 -0.1454
  537MOL0     H72494   6.190   5.186   5.718 -0.6898 -0.1653  1.5417
  537MOL0     H72495   6.115   5.152   5.948 -2.6487  1.6020  4.9840
  538MOL0     O72496  10.426   6.659   9.656  0.0111  0.8898  0.3799
  538MOL0     C72497  10.512   6.577   9.647 -0.6235  0.0435 -0.0435
  538MOL0     O72498  10.642   6.598   9.670  0.1196  0.6774 -0.1585
  538MOL0     C72499  10.682   6.731   9.677 -0.3703  0.8671  0.5055
  538MOL0     C72500  10.680   6.804   9.794 -0.5789  1.3993  1.3100
  538MOL0     C72501  10.722   6.936   9.771 -0.2028 -0.0893  0.1939
  538MOL0     C72502  10.771   6.990   9.653  0.7791 -0.3122 -0.1714
  538MOL0     O72503  10.813   7.120   9.659 -0.1318  0.6666 -0.7888
  538MOL0     C72504  10.878   7.181   9.546 -0.7407  0.1801  0.0238
  538MOL0     C72505  10.926   7.319   9.598 -0.5521  0.1316  0.9308
  538MOL0     C72506  11.058   7.307   9.688  0.0601 -0.4399  1.2973
  538MOL0     C72507  11.128   7.428   9.708  0.4840 -0.4276  0.0355
  538MOL0     C72508  11.272   7.416   9.790  0.4529 -0.3279  0.6265
  538MOL0     C72509  11.348   7.543   9.775 -0.3743 -0.3157 -0.6197
  538MOL0     C72510  11.482   7.529   9.858 -0.3151  0.0983 -0.8502
  538MOL0     C72511  11.569   7.664   9.862  0.2689 -0.3258 -0.0839
  538MOL0     N72512  11.680   7.668   9.951 -0.2240  0.2861  0.5242
  538MOL0     C72513  11.810   7.609   9.917 -0.4481  0.6302  0.1062
  538MOL0     C72514  11.887   7.623  10.025 -0.1326  0.4137  1.2330
  538MOL0     C72515  12.037   7.583  10.032 -0.1827 -0.0887  0.4966
  538MOL0     C72516  12.097   7.566  10.175 -0.9383  0.2939 -1.1595
  538MOL0     C72517  12.118   7.694  10.265 -0.0490  0.2422  0.9550
  538MOL0     C72518  12.173   7.667  10.396 -0.6270 -0.1071 -1.0876
  538MOL0     O72519  12.315   7.637  10.416  0.5690  0.5706  0.4153
  538MOL0     C72520  12.368   7.638  10.541  0.6150 -0.2235  0.7152
  538MOL0     C72521  12.462   7.731  10.563  0.1638  0.2474  0.2357
  538MOL0     C72522  12.520   7.745  10.682  0.1873  0.9304 -0.4015
  538MOL0     C72523  12.627   7.846  10.708  0.5650  0.3410  0.1995
  538MOL0     C72524  12.472   7.667  10.796 -0.2210 -0.5970 -0.6681
  538MOL0     C72525  12.511   7.686  10.939  0.1881  0.0870 -1.0283
  538MOL0     O72526  12.570   7.802  10.982 -0.5362 -0.0156  0.7236
  538MOL0     C72527  12.639   7.808  11.100  0.0622  0.1646  0.4480
  538MOL0     C72528  12.637   7.932  11.172  0.8587  0.2409  0.8339
  538MOL0     C72529  12.696   7.956  11.284  0.2216 -0.5933 -0.3455
  538MOL0     C72530  12.753   7.849  11.351  0.0767  0.4653 -0.4343
  538MOL0     O72531  12.831   7.859  11.468  0.1826 -0.4134  0.3957
  538MOL0     C72532  12.787   7.947  11.577 -0.3421 -0.3567  0.2451
  538MOL0     C72533  12.645   7.942  11.630  0.2093 -0.2757 -0.2876
  538MOL0     C72534  12.593   7.798  11.634 -0.5932 -0.9587  0.1959
  538MOL0     C72535  12.625   7.734  11.765  0.5870  1.2582 -0.3335
  538MOL0     C72536  12.561   7.593  11.781 -0.8243 -0.2600 -0.2140
  538MOL0     C72537  12.646   7.496  11.869  0.5047  0.9740 -0.0322
  538MOL0     C72538  12.673   7.552  12.013 -0.2451  0.1231  0.8841
  538MOL0     C72539  12.553   7.577  12.096  1.4959  0.2259  0.2953
  538MOL0    Cl72540  12.433   7.433  12.089 -0.3366  0.4495 -0.0178
  538MOL0     C72541  12.757   7.724  11.296 -0.4592 -0.0969  1.1217
  538MOL0     C72542  12.701   7.699  11.167 -0.1324 -0.0019 -0.1132
  538MOL0     O72543  12.494   7.585  11.010 -0.0135 -0.0303 -0.3190
  538MOL0     C72544  12.373   7.563  10.764 -1.1465 -0.4455 -0.2103
  538MOL0     C72545  12.324   7.549  10.634  0.1776  0.3988 -0.0195
  538MOL0     N72546  11.812   7.700  10.113  0.6343  0.7472 -0.1321
  538MOL0     N72547  11.692   7.726  10.074  0.0670  0.8039  0.3568
  538MOL0     C72548  10.773   6.912   9.540 -0.0916  0.3302  0.1780
  538MOL0     C72549  10.734   6.774   9.555 -0.3292 -0.7079  1.4382
  538MOL0     C72550  10.466   6.434   9.642  0.1552  0.9246  0.0874
  538MOL0     C72551  10.551   6.323   9.652  0.1364 -0.3864  1.3566
  538MOL0     C72552  10.507   6.189   9.642 -0.1789  0.1804  0.2812
  538MOL0     C72553  10.373   6.156   9.605 -0.0011 -0.1752 -1.0484
  538MOL0     O72554  10.321   6.034   9.586 -0.4053  0.4798  0.1690
  538MOL0     C72555  10.407   5.943   9.506 -0.9172  0.2585  0.0111
  538MOL0     C72556  10.402   5.976   9.354 -1.4136  0.2800  0.3069
  538MOL0     C72557  10.511   5.885   9.283  0.1617 -0.9448  0.5805
  538MOL0     C72558  10.560   5.945   9.146  0.5434  0.0736 -0.7355
  538MOL0     C72559  10.609   5.835   9.072  0.0758  0.2435  0.0407
  538MOL0     C72560  10.654   5.751   8.997 -0.0358 -0.3511 -0.7378
  538MOL0     C72561  10.291   6.265   9.582  0.3958  0.1977 -0.2488
  538MOL0     C72562  10.333   6.399   9.619  0.5643 -0.6509 -0.2385
  538MOL0     H72563  10.643   6.764   9.888 -1.6123 -0.0008  0.3374
  538MOL0     H72564  10.735   6.998   9.860  0.0231 -1.7539  1.3652
  538MOL0     H72565  10.955   7.121   9.497 -0.3013  1.5353 -1.0007
  538MOL0     H72566  10.801   7.198   9.470 -1.3312 -3.3317 -0.3249
  538MOL0     H72567  10.957   7.380   9.512 -1.4395 -1.2446 -0.4081
  538MOL0     H72568  10.841   7.368   9.644  0.7921  0.8684  2.7495
  538MOL0     H72569  11.028   7.268   9.786  1.7551  0.8169  2.3584
  538MOL0     H72570  11.129   7.234   9.648 -1.7241 -1.4424 -0.2548
  538MOL0     H72571  11.172   7.468   9.616  3.8009  1.7801  2.3506
  538MOL0     H72572  11.061   7.504   9.749 -1.1416 -0.3876 -2.4735
  538MOL0     H72573  11.241   7.410   9.895 -0.7052  2.3925  0.5100
  538MOL0     H72574  11.336   7.333   9.757  0.2062  0.3183 -1.6725
  538MOL0     H72575  11.370   7.562   9.669  1.9143 -0.2641 -0.1988
  538MOL0     H72576  11.289   7.627   9.812  2.1390  1.5067 -0.4652
  538MOL0     H72577  11.463   7.508   9.964  1.9804 -0.1183 -0.4427
  538MOL0     H72578  11.543   7.449   9.816 -0.3066  1.3234 -3.3650
  538MOL0     H72579  11.502   7.741   9.903 -0.5892 -1.0830 -0.0339
  538MOL0     H72580  11.595   7.689   9.759  3.3461 -1.7653  0.2356
  538MOL0     H72581  11.847   7.547   9.835  1.4599 -1.3750  2.3459
  538MOL0     H72582  12.062   7.487   9.986  1.4701 -1.4239  3.8732
  538MOL0     H72583  12.085   7.653   9.964  0.6011 -1.1746 -0.0946
  538MOL0     H72584  12.195   7.518  10.172 -0.5435  0.6692  1.9352
  538MOL0     H72585  12.026   7.502  10.230  1.3429  0.1809  1.9277
  538MOL0     H72586  12.017   7.731  10.283 -0.2735  0.9168 -1.3556
  538MOL0     H72587  12.187   7.765  10.218  2.7099 -1.5292  2.0707
  538MOL0     H72588  12.130   7.577  10.441  4.7607 -2.3144  0.4465
  538MOL0     H72589  12.153   7.758  10.453 -0.4727  0.9320 -2.6295
  538MOL0     H72590  12.491   7.802  10.485  2.3408  0.6866  1.3455
  538MOL0     H72591  12.698   7.845  10.625 -0.3954 -1.3385 -0.6501
  538MOL0     H72592  12.576   7.940  10.729 -2.9266 -1.6829  1.5669
  538MOL0     H72593  12.694   7.807  10.785  2.0234  2.9554  0.3707
  538MOL0     H72594  12.597   8.017  11.118  1.7307  1.1567  1.5786
  538MOL0     H72595  12.707   8.057  11.323  1.2509  0.5875 -3.3900
  538MOL0     H72596  12.840   7.926  11.670 -0.0633  1.1411  0.4457
  538MOL0     H72597  12.821   8.047  11.549  0.5139 -1.1087 -1.5541
  538MOL0     H72598  12.636   7.990  11.728 -2.0294 -1.2831  0.0609
  538MOL0     H72599  12.576   7.995  11.564 -1.7578 -2.0621  0.2395
  538MOL0     H72600  12.631   7.738  11.551 -1.0346 -1.2645  0.2131
  538MOL0     H72601  12.487   7.810  11.613  0.1902  1.1910 -3.5641
  538MOL0     H72602  12.733   7.717  11.772  0.4142  0.9199  3.2258
  538MOL0     H72603  12.580   7.782  11.852 -0.2468 -4.6054  2.9987
  538MOL0     H72604  12.553   7.543  11.684  1.4211 -0.5258 -0.3121
  538MOL0     H72605  12.460   7.602  11.821 -1.1693  2.9681 -1.5443
  538MOL0     H72606  12.595   7.400  11.876 -0.2945  1.4062  0.1102
  538MOL0     H72607  12.741   7.480  11.816  0.1438  0.4011 -0.5204
  538MOL0     H72608  12.724   7.648  12.003 -0.1304  0.3711  3.3394
  538MOL0     H72609  12.746   7.495  12.072  3.2528  3.3588  0.1304
  538MOL0     H72610  12.504   7.662  12.048  2.7163  0.8408  0.0966
  538MOL0     H72611  12.569   7.601  12.201  0.9854  1.0384  0.1921
  538MOL0     H72612  12.806   7.633  11.331 -0.8864 -0.3211  1.1457
  538MOL0     H72613  12.716   7.604  11.117 -0.8844 -0.0986 -0.1705
  538MOL0     H72614  12.351   7.489  10.841  1.0541 -1.5526 -0.5739
  538MOL0     H72615  12.256   7.467  10.613 -1.0566  2.0263 -2.9360
  538MOL0     H72616  10.794   6.956   9.443 -0.0081 -0.0775  0.0066
  538MOL0     H72617  10.736   6.708   9.469 -1.1863 -0.3501  1.1351
  538MOL0     H72618  10.658   6.338   9.661  0.4087 -0.2737 -1.4089
  538MOL0     H72619  10.581   6.113   9.668 -1.1610  0.1865  3.5651
  538MOL0     H72620  10.509   5.947   9.545  0.0270  0.0206 -2.3259
  538MOL0     H72621  10.372   5.839   9.512  0.9324 -0.3790  0.2085
  538MOL0     H72622  10.427   6.082   9.348 -0.3174  0.0088 -0.1894
  538MOL0     H72623  10.304   5.953   9.311  0.3252 -2.5841 -2.5973
  538MOL0     H72624  10.473   5.787   9.254  0.9262 -1.7258  2.0931
  538MOL0     H72625  10.593   5.859   9.350 -0.6331 -1.7302  1.2918
  538MOL0     H72626  10.640   6.015   9.172  0.2017  0.3402 -0.3894
  538MOL0     H72627  10.474   5.999   9.105 -1.8417 -1.9753  1.1968
  538MOL0     H72628  10.686   5.669   8.935 -3.1316 -1.6420 -0.8205
  538MOL0     H72629  10.188   6.249   9.552  1.4766 -0.9231 -3.9757
  538MOL0     H72630  10.257   6.474   9.603  0.7313 -0.7074 -1.3740
  539MOL0     O72631   5.558  11.319   4.314 -0.5126  0.1269 -0.5122
  539MOL0     C72632   5.648  11.266   4.385  0.6903 -0.1751 -0.1160
  539MOL0     O72633   5.689  11.301   4.515  0.1712 -0.3149  0.6639
  539MOL0     C72634   5.619  11.395   4.592  0.8092  0.2574 -0.2628
  539MOL0     C72635   5.626  11.376   4.728 -0.6592  0.8012  0.1361
  539MOL0     C72636   5.560  11.455   4.821  1.2480 -0.0148  0.5633
  539MOL0     C72637   5.490  11.574   4.776 -0.4693 -0.0437 -0.7088
  539MOL0     O72638   5.442  11.677   4.853  0.0743 -0.1323 -0.2696
  539MOL0     C72639   5.465  11.671   4.994  1.1468 -0.2903 -0.0278
  539MOL0     C72640   5.415  11.806   5.051 -0.1014  0.3877 -0.0446
  539MOL0     C72641   5.385  11.804   5.203  1.0465 -0.5531  0.4391
  539MOL0     C72642   5.330  11.945   5.251  0.2984 -0.2671 -0.2278
  539MOL0     C72643   5.331  11.944   5.401 -0.9908  0.8921  0.0943
  539MOL0     C72644   5.470  11.943   5.469  0.6190 -0.8560  0.5072
  539MOL0     C72645   5.449  11.995   5.618  0.1754 -1.0540 -0.0925
  539MOL0     C72646   5.585  12.019   5.701 -0.7001 -0.9740  0.5699
  539MOL0     N72647   5.641  11.889   5.740  1.4454 -0.4369 -0.0820
  539MOL0     C72648   5.601  11.821   5.848  0.3080 -0.0357 -0.1634
  539MOL0     C72649   5.678  11.713   5.852 -0.1534 -0.0699 -0.5480
  539MOL0     C72650   5.687  11.607   5.959 -0.1801  0.4136  0.1262
  539MOL0     C72651   5.642  11.475   5.912 -0.1643 -0.4679 -0.3708
  539MOL0     C72652   5.702  11.353   5.991  0.9548  0.1969  1.0059
  539MOL0     C72653   5.643  11.220   5.932 -0.3336 -0.7906  0.5541
  539MOL0     O72654   5.496  11.223   5.928 -0.6994 -0.4299 -0.3205
  539MOL0     C72655   5.431  11.147   6.007 -0.0928  0.8165 -0.6806
  539MOL0     C72656   5.310  11.186   6.066  0.1781 -0.2195 -0.6558
  539MOL0     C72657   5.235  11.099   6.144 -0.7699 -0.0615  0.6648
  539MOL0     C72658   5.112  11.151   6.213  0.0492 -0.8987 -0.4708
  539MOL0     C72659   5.275  10.966   6.154 -0.9190  1.0836  1.1473
  539MOL0     C72660   5.204  10.861   6.228 -0.7259  0.1236 -1.3365
  539MOL0     O72661   5.286  10.778   6.297 -0.6381  0.0785 -0.2008
  539MOL0     C72662   5.228  10.664   6.349  0.2088 -0.5277 -0.4100
  539MOL0     C72663   5.157  10.579   6.269 -0.4369  0.7534 -0.0544
  539MOL0     C72664   5.102  10.460   6.316 -0.4653 -0.1984 -0.6311
  539MOL0     C72665   5.099  10.434   6.455  0.1949  0.0140 -0.0853
  539MOL0     O72666   5.019  10.331   6.498 -0.1473  0.1355  0.2665
  539MOL0     C72667   5.052  10.260   6.616 -0.3174 -0.6458  0.1808
  539MOL0     C72668   4.943  10.149   6.621  0.2820 -0.1271  0.4660
  539MOL0     C72669   4.987  10.038   6.721  0.3005 -0.4282 -0.5498
  539MOL0     C72670   4.885   9.922   6.722  0.2722 -0.2607 -0.3906
  539MOL0     C72671   4.896   9.814   6.834  0.8337 -0.4437 -0.9665
  539MOL0     C72672   4.771   9.724   6.848 -0.6690  0.4253 -0.2616
  539MOL0     C72673   4.778   9.628   6.967 -1.0179  2.0048 -1.0848
  539MOL0     C72674   4.696   9.488   6.935 -0.6082 -0.2663  0.5043
  539MOL0    Cl72675   4.659   9.394   7.080 -0.3550  0.3204  0.2021
  539MOL0     C72676   5.169  10.515   6.538 -0.2543  0.2135 -1.3238
  539MOL0     C72677   5.230  10.632   6.484  0.7576 -0.2395 -0.3282
  539MOL0     O72678   5.080  10.846   6.216 -0.2311  0.0041 -0.0671
  539MOL0     C72679   5.386  10.924   6.087  0.0424  0.9497 -0.7467
  539MOL0     C72680   5.472  11.012   6.022  0.1026 -0.6912  0.1644
  539MOL0     N72681   5.767  11.730   5.745 -0.4922  0.2870 -0.4612
  539MOL0     N72682   5.739  11.826   5.678 -0.3887  0.1179  0.4873
  539MOL0     C72683   5.468  11.572   4.639 -0.2602  0.0051  1.0959
  539MOL0     C72684   5.535  11.488   4.546 -0.1828  0.2828  1.0598
  539MOL0     C72685   5.704  11.146   4.316  0.8787  0.1392  0.0542
  539MOL0     C72686   5.715  11.149   4.179 -0.3976  0.6593  0.0624
  539MOL0     C72687   5.782  11.045   4.106  0.7655 -0.6279 -0.3480
  539MOL0     C72688   5.821  10.927   4.172  0.6499  0.6486 -0.7834
  539MOL0     O72689   5.866  10.814   4.118  0.5080 -0.5035 -0.3212
  539MOL0     C72690   5.973  10.847   4.029 -0.0986 -0.1142 -0.6682
  539MOL0     C72691   6.067  10.725   4.020 -0.1206  0.0416 -0.6285
  539MOL0     C72692   6.114  10.687   4.164  0.5536  0.2673  0.3318
  539MOL0     C72693   6.243  10.616   4.163  0.0882 -0.0202  0.7105
  539MOL0     C72694   6.254  10.554   4.295  0.8081 -0.8252 -0.1202
  539MOL0     C72695   6.237  10.504   4.403 -0.4966 -0.0679  0.3078
  539MOL0     C72696   5.800  10.925   4.308 -0.6391 -0.0496 -0.0462
  539MOL0     C72697   5.755  11.037   4.380 -1.1193 -0.2531  0.0466
  539MOL0     H72698   5.702  11.305   4.758 -2.3294 -0.5666  1.3121
  539MOL0     H72699   5.588  11.427   4.922 -1.6917  0.4879  1.6035
  539MOL0     H72700   5.397  11.600   5.042 -1.4915  2.0941  0.0515
  539MOL0     H72701   5.570  11.657   5.019  1.6626  2.9178  0.0465
  539MOL0     H72702   5.507  11.862   5.035 -0.1954  0.7750  0.7282
  539MOL0     H72703   5.348  11.860   4.984  0.6485  0.8446 -0.4320
  539MOL0     H72704   5.304  11.733   5.223  0.2677  0.3353  0.5692
  539MOL0     H72705   5.474  11.775   5.258  2.3171  1.8544 -0.2198
  539MOL0     H72706   5.398  12.023   5.217 -2.8634  3.6056  1.4857
  539MOL0     H72707   5.231  11.969   5.210  0.2002 -0.4691 -0.1077
  539MOL0     H72708   5.275  12.034   5.427 -3.5571  1.1082 -5.0870
  539MOL0     H72709   5.270  11.858   5.430  0.8788 -0.1438  1.2042
  539MOL0     H72710   5.522  11.848   5.456  3.3853  0.6157  0.0907
  539MOL0     H72711   5.539  12.009   5.416  0.5609 -0.8308  0.4621
  539MOL0     H72712   5.407  12.096   5.619  1.5737 -0.4406 -0.4652
  539MOL0     H72713   5.376  11.928   5.665 -4.6968  4.1363  0.8219
  539MOL0     H72714   5.559  12.082   5.787  0.6200 -0.3703  0.5394
  539MOL0     H72715   5.654  12.067   5.631 -0.5198 -2.8071 -0.5641
  539MOL0     H72716   5.521  11.851   5.915 -0.9805  0.2331 -1.7700
  539MOL0     H72717   5.795  11.605   5.978  0.1537  3.2052 -0.9117
  539MOL0     H72718   5.631  11.648   6.043 -0.8548 -0.1922 -0.0251
  539MOL0     H72719   5.667  11.469   5.805  4.4552 -0.9113  0.5133
  539MOL0     H72720   5.535  11.481   5.932  0.0734 -0.8129  1.0873
  539MOL0     H72721   5.680  11.357   6.098  0.8086 -1.6024  1.0614
  539MOL0     H72722   5.810  11.345   5.982  1.0965  2.3937 -0.0145
  539MOL0     H72723   5.685  11.141   5.995 -0.8608 -0.9101  0.7606
  539MOL0     H72724   5.690  11.209   5.834 -0.9670  0.4451  0.0908
  539MOL0     H72725   5.274  11.289   6.064  0.9280  0.0472 -2.3381
  539MOL0     H72726   5.092  11.256   6.190  2.1593 -0.8684 -2.4499
  539MOL0     H72727   5.023  11.092   6.190  1.1953 -2.9551  0.1268
  539MOL0     H72728   5.124  11.139   6.321 -2.6524 -0.8363 -0.0831
  539MOL0     H72729   5.157  10.587   6.161  1.1025  1.8898 -0.0094
  539MOL0     H72730   5.046  10.387   6.258 -1.8775 -0.7441  1.3195
  539MOL0     H72731   5.151  10.214   6.616  0.3668  0.7523  1.5506
  539MOL0     H72732   5.041  10.321   6.706  1.0215 -0.3796  0.1924
  539MOL0     H72733   4.852  10.203   6.648  1.2960  3.1645 -1.9498
  539MOL0     H72734   4.920  10.113   6.521 -0.1502 -0.2841  0.6198
  539MOL0     H72735   5.000  10.088   6.817  0.3409 -0.1364 -0.7042
  539MOL0     H72736   5.082  10.001   6.681 -0.6806 -1.3303 -2.1295
  539MOL0     H72737   4.790   9.974   6.737  1.8586  2.0710  2.6072
  539MOL0     H72738   4.880   9.872   6.625 -1.2537 -1.0852  0.0673
  539MOL0     H72739   4.928   9.863   6.926  2.0704 -2.1589 -0.4339
  539MOL0     H72740   4.977   9.743   6.811  0.3752 -2.3800  2.7199
  539MOL0     H72741   4.684   9.790   6.858 -2.1987 -1.0984 -2.4325
  539MOL0     H72742   4.749   9.671   6.755 -1.8449  3.2424 -1.7067
  539MOL0     H72743   4.721   9.664   7.053 -1.9546 -2.3800  0.3896
  539MOL0     H72744   4.877   9.602   7.006 -1.5368  1.6156 -0.0040
  539MOL0     H72745   4.738   9.421   6.860 -0.7412 -0.6964  0.8098
  539MOL0     H72746   4.600   9.516   6.890  1.5282  2.2030 -3.1600
  539MOL0     H72747   5.159  10.490   6.643  1.5858 -0.6675 -1.3256
  539MOL0     H72748   5.270  10.703   6.556  0.0086  1.4219 -1.4689
  539MOL0     H72749   5.416  10.820   6.081  1.7519  1.4730 -1.8916
  539MOL0     H72750   5.565  10.983   5.975  0.3204  1.6578 -0.9921
  539MOL0     H72751   5.404  11.641   4.586  1.2991  0.5386 -0.1596
  539MOL0     H72752   5.512  11.495   4.440 -0.0421 -1.1706  0.9245
  539MOL0     H72753   5.692  11.248   4.140 -2.7312  0.9380  1.8906
  539MOL0     H72754   5.799  11.065   4.001  2.7609 -2.4327 -0.4524
  539MOL0     H72755   5.930  10.875   3.933 -0.2232 -0.7663 -0.8050
  539MOL0     H72756   6.042  10.922   4.069  0.6410 -2.1041  2.1256
  539MOL0     H72757   6.153  10.745   3.955 -1.5899 -0.4613 -2.8656
  539MOL0     H72758   6.017  10.638   3.977  0.8890 -1.9731  1.9971
  539MOL0     H72759   6.031  10.629   4.205  0.6110  0.0838  0.1932
  539MOL0     H72760   6.126  10.777   4.225 -1.9291 -0.3447  1.8375
  539MOL0     H72761   6.326  10.686   4.177 -0.8882  0.8473  2.5690
  539MOL0     H72762   6.262  10.554   4.075 -0.6105  2.9461 -1.7114
  539MOL0     H72763   6.230  10.461   4.501  2.2432 -0.4159  0.4121
  539MOL0     H72764   5.821  10.838   4.370  0.0731 -0.0797 -0.3279
  539MOL0     H72765   5.750  11.020   4.487 -1.2079 -2.8182 -0.2898
  540MOL0     O72766   7.616   8.242   5.881  0.4596  1.0746 -0.5443
  540MOL0     C72767   7.591   8.158   5.968 -0.7133  0.1000  0.4509
  540MOL0     O72768   7.476   8.088   5.987 -0.0120 -0.2426  0.8563
  540MOL0     C72769   7.376   8.112   5.905 -0.6681  0.8159  0.2311
  540MOL0     C72770   7.271   8.198   5.937  0.3684  0.7600 -0.0786
  540MOL0     C72771   7.161   8.220   5.847 -0.3022  0.8028  0.8722
  540MOL0     C72772   7.151   8.140   5.729  0.5383 -0.3018 -0.2864
  540MOL0     O72773   7.032   8.152   5.662  0.2579 -0.0292  0.0478
  540MOL0     C72774   7.056   8.150   5.519  0.8486 -0.2029  0.7658
  540MOL0     C72775   6.927   8.230   5.457 -0.5147  0.5014  0.3982
  540MOL0     C72776   6.793   8.157   5.485 -0.3301 -0.1225 -0.0703
  540MOL0     C72777   6.738   8.229   5.607  0.2962 -0.4415 -0.4699
  540MOL0     C72778   6.625   8.151   5.679  0.0374 -0.0325  0.1440
  540MOL0     C72779   6.481   8.226   5.696 -0.2357  0.1840 -0.4014
  540MOL0     C72780   6.399   8.152   5.808 -0.6305  1.0591  0.1975
  540MOL0     C72781   6.373   8.006   5.784  0.0699 -0.2189 -0.6145
  540MOL0     N72782   6.276   7.997   5.672  0.4197 -0.2041 -0.1898
  540MOL0     C72783   6.302   8.003   5.534  0.1402  0.3089 -0.0051
  540MOL0     C72784   6.182   8.032   5.477 -0.1792 -0.0262  0.1703
  540MOL0     C72785   6.134   8.028   5.342  0.4184  0.5639  0.0182
  540MOL0     C72786   6.131   8.163   5.263 -1.0341 -0.3341 -0.5906
  540MOL0     C72787   6.005   8.252   5.292  0.0876  0.6137  0.2534
  540MOL0     C72788   5.999   8.388   5.228 -0.2343 -0.6807  0.8194
  540MOL0     O72789   6.060   8.413   5.094 -0.1566  0.5842 -0.3542
  540MOL0     C72790   6.037   8.341   4.982  0.2620  0.3147  0.0138
  540MOL0     C72791   5.927   8.251   4.971 -0.2358  0.6540 -0.5142
  540MOL0     C72792   5.902   8.176   4.856  1.3683 -0.8158 -0.9272
  540MOL0     C72793   5.775   8.096   4.857  0.5789  0.2656 -0.4000
  540MOL0     C72794   5.996   8.177   4.753 -0.4014 -0.8630  0.1793
  540MOL0     C72795   5.998   8.073   4.651 -0.3649 -0.8070  0.3695
  540MOL0     O72796   6.117   8.061   4.584  0.7157 -0.8375  0.0841
  540MOL0     C72797   6.130   7.967   4.477 -0.8813 -0.3734 -0.7987
  540MOL0     C72798   6.080   7.990   4.353  0.0015 -0.1355 -0.1905
  540MOL0     C72799   6.078   7.888   4.257 -0.2718 -0.3483  0.4937
  540MOL0     C72800   6.145   7.763   4.276  0.1309 -0.0479  0.0053
  540MOL0     O72801   6.161   7.660   4.187  0.0720 -0.4476 -0.7328
  540MOL0     C72802   6.050   7.663   4.090  0.7733  0.3559 -0.0950
  540MOL0     C72803   6.038   7.532   4.020 -0.9715 -0.5309  0.5947
  540MOL0     C72804   6.127   7.529   3.899 -0.2830 -0.1597 -0.3991
  540MOL0     C72805   6.148   7.382   3.858 -0.2941  0.2107 -0.0454
  540MOL0     C72806   6.226   7.375   3.718  0.8911  0.2302 -0.3728
  540MOL0     C72807   6.214   7.246   3.634  0.0094  1.3164  0.5488
  540MOL0     C72808   6.314   7.234   3.514  0.0811 -0.8196 -0.2123
  540MOL0     C72809   6.283   7.108   3.434 -0.2658 -0.6239  0.5798
  540MOL0    Cl72810   6.409   7.082   3.312 -0.0271  0.5077  0.3098
  540MOL0     C72811   6.222   7.754   4.395  0.1093  0.2139 -0.7862
  540MOL0     C72812   6.211   7.854   4.493 -0.2882 -0.1785 -0.6887
  540MOL0     O72813   5.898   8.008   4.621 -0.9177 -0.1719 -0.5772
  540MOL0     C72814   6.097   8.282   4.752  0.5444 -0.1067  0.3324
  540MOL0     C72815   6.115   8.363   4.867  0.5625 -1.0082  0.6525
  540MOL0     N72816   6.089   8.058   5.572  0.1336 -0.2169 -0.2150
  540MOL0     N72817   6.141   8.022   5.688  0.1013  0.1489 -0.0384
  540MOL0     C72818   7.255   8.060   5.693  0.3624  0.0304 -0.5144
  540MOL0     C72819   7.365   8.042   5.784 -0.3149 -0.7018 -0.1050
  540MOL0     C72820   7.704   8.151   6.066  0.2468  0.1396 -0.9459
  540MOL0     C72821   7.820   8.243   6.071  0.0515 -0.2255  0.3594
  540MOL0     C72822   7.927   8.235   6.160  0.5730  0.0783 -0.1996
  540MOL0     C72823   7.928   8.129   6.253 -0.2932  0.6358 -0.2379
  540MOL0     O72824   8.026   8.104   6.348  0.3767 -0.4415  0.9344
  540MOL0     C72825   8.147   8.180   6.331  0.4387 -0.8603  0.2590
  540MOL0     C72826   8.234   8.138   6.209  0.5935  1.2805  0.7765
  540MOL0     C72827   8.371   8.198   6.222  0.1047 -1.4903  0.5886
  540MOL0     C72828   8.384   8.353   6.253 -0.4692 -0.1749  0.4284
  540MOL0     C72829   8.315   8.445   6.151 -0.2601  0.1395  0.4811
  540MOL0     C72830   8.299   8.523   6.065  0.0988 -0.2660  1.4643
  540MOL0     C72831   7.813   8.042   6.258 -0.4497 -0.2708  0.1507
  540MOL0     C72832   7.709   8.049   6.165  0.3908 -0.4972  0.3021
  540MOL0     H72833   7.251   8.243   6.033  1.3945 -1.4801  1.2508
  540MOL0     H72834   7.067   8.271   5.866 -0.7253  0.4427 -0.1929
  540MOL0     H72835   7.145   8.200   5.479  0.1908 -0.4777 -1.1581
  540MOL0     H72836   7.059   8.048   5.479  4.1746 -0.3678  1.1508
  540MOL0     H72837   6.920   8.335   5.489 -2.5567  0.9543 -1.3191
  540MOL0     H72838   6.934   8.239   5.348  0.3993  3.1043  0.5965
  540MOL0     H72839   6.727   8.156   5.398 -3.1753 -4.5403  1.8304
  540MOL0     H72840   6.809   8.052   5.509  2.5656  0.5885  1.6431
  540MOL0     H72841   6.817   8.267   5.672  1.6526 -2.9091 -0.5425
  540MOL0     H72842   6.688   8.316   5.565 -0.7329 -1.5643 -1.6830
  540MOL0     H72843   6.612   8.054   5.628  0.2285 -0.2933  0.5875
  540MOL0     H72844   6.656   8.116   5.778 -0.6909 -2.1420 -0.3064
  540MOL0     H72845   6.501   8.328   5.728  0.1780 -0.6643  2.2693
  540MOL0     H72846   6.429   8.225   5.600  1.0809 -1.3321 -1.1479
  540MOL0     H72847   6.465   8.162   5.894  1.0340 -0.2316 -0.8616
  540MOL0     H72848   6.302   8.200   5.826  0.5364  3.1163  1.2915
  540MOL0     H72849   6.333   7.957   5.874  3.5006  0.1845  1.3345
  540MOL0     H72850   6.461   7.947   5.755  2.1136  2.7719 -0.8632
  540MOL0     H72851   6.392   7.968   5.484 -0.3123 -1.6311  0.4348
  540MOL0     H72852   6.193   7.952   5.290  1.0963  0.1766  1.3118
  540MOL0     H72853   6.033   7.987   5.337  1.2427 -1.4745 -2.5745
  540MOL0     H72854   6.136   8.145   5.155  0.8457 -0.2134 -0.5627
  540MOL0     H72855   6.215   8.230   5.283 -1.0417  0.2581 -2.3381
  540MOL0     H72856   5.998   8.268   5.400 -2.7031  1.0420  0.1003
  540MOL0     H72857   5.915   8.200   5.257  1.7019 -2.6667  0.6307
  540MOL0     H72858   6.046   8.462   5.293  3.9232 -1.1612 -1.2987
  540MOL0     H72859   5.891   8.406   5.221  0.1612  1.6619 -0.5007
  540MOL0     H72860   5.865   8.231   5.058 -0.3800 -0.6074 -0.8968
  540MOL0     H72861   5.807   7.992   4.856 -0.4924 -0.1321  1.4273
  540MOL0     H72862   5.712   8.122   4.943  3.5436  0.8536  1.7582
  540MOL0     H72863   5.725   8.118   4.762  1.1460  2.1824 -0.2927
  540MOL0     H72864   6.038   8.089   4.337  2.4949  1.3343  1.6798
  540MOL0     H72865   6.029   7.907   4.162 -2.2649  0.6163  1.6395
  540MOL0     H72866   5.955   7.673   4.144  0.8821  0.2106  0.1290
  540MOL0     H72867   6.057   7.741   4.013  1.1853 -0.3540 -0.7881
  540MOL0     H72868   6.063   7.455   4.094 -2.2855  1.3968  3.2162
  540MOL0     H72869   5.934   7.510   3.995 -1.4492  0.6755  1.4038
  540MOL0     H72870   6.223   7.571   3.931 -0.7010 -1.2397  2.5699
  540MOL0     H72871   6.085   7.589   3.818  1.3070 -0.5253 -1.5484
  540MOL0     H72872   6.199   7.323   3.935 -0.1411 -1.2097 -1.1975
  540MOL0     H72873   6.049   7.335   3.849 -1.7673  3.4123 -3.3029
  540MOL0     H72874   6.325   7.401   3.756  0.0594  3.3523 -0.0291
  540MOL0     H72875   6.189   7.448   3.645 -0.3368 -0.1526 -0.1537
  540MOL0     H72876   6.232   7.155   3.692 -1.9554  0.0527 -0.7128
  540MOL0     H72877   6.110   7.237   3.601  1.1088 -0.0727 -3.1197
  540MOL0     H72878   6.413   7.220   3.558  0.3424 -1.5562 -0.9947
  540MOL0     H72879   6.310   7.322   3.450 -0.3784 -0.5246  0.2105
  540MOL0     H72880   6.190   7.118   3.378  1.3747  0.7225 -2.1334
  540MOL0     H72881   6.267   7.014   3.488 -2.4145 -0.3210  0.5332
  540MOL0     H72882   6.277   7.662   4.414 -2.3046 -1.3236 -0.7697
  540MOL0     H72883   6.267   7.847   4.586 -0.3363  0.8188 -0.5792
  540MOL0     H72884   6.167   8.288   4.670  1.4009  0.3514  1.0809
  540MOL0     H72885   6.192   8.438   4.853 -0.3799  0.3709  2.3863
  540MOL0     H72886   7.235   7.993   5.610 -0.4166 -0.1873 -0.1612
  540MOL0     H72887   7.456   7.990   5.757 -0.3361 -3.4998  4.1696
  540MOL0     H72888   7.806   8.319   5.994 -2.5977 -1.7439 -0.8244
  540MOL0     H72889   8.012   8.300   6.144  0.6224  0.3513  1.1130
  540MOL0     H72890   8.128   8.288   6.334 -2.6670 -1.2776 -0.5934
  540MOL0     H72891   8.214   8.153   6.413  0.7783 -0.7070  0.0346
  540MOL0     H72892   8.182   8.171   6.119  2.6307 -2.9622 -2.2942
  540MOL0     H72893   8.238   8.031   6.188  1.6564  1.4551 -0.0067
  540MOL0     H72894   8.425   8.184   6.128 -2.2152  1.5543 -1.3666
  540MOL0     H72895   8.439   8.138   6.283  1.7538  0.5999  0.9512
  540MOL0     H72896   8.492   8.367   6.250 -0.2251 -1.7852 -2.4093
  540MOL0     H72897   8.342   8.389   6.347 -2.3659 -0.2897 -0.3320
  540MOL0     H72898   8.289   8.584   5.977  2.8571 -1.0601  0.5106
  540MOL0     H72899   7.805   7.967   6.336 -0.2525 -0.3454  0.0996
  540MOL0     H72900   7.634   7.971   6.160  0.5840 -0.5953 -1.9352
  541MOL0     O72901   6.701   8.815   3.969  0.2494 -0.6772  0.3881
  541MOL0     C72902   6.622   8.839   4.055 -0.2681  0.7680 -0.4629
  541MOL0     O72903   6.501   8.777   4.062  0.3493  0.2873 -0.6755
  541MOL0     C72904   6.459   8.699   3.956 -0.2775  0.0903  0.0451
  541MOL0     C72905   6.418   8.567   3.989 -0.0216 -0.2323  0.0746
  541MOL0     C72906   6.373   8.480   3.886 -0.2849 -0.3388 -0.9138
  541MOL0     C72907   6.375   8.520   3.754  0.2614 -0.0452 -0.5995
  541MOL0     O72908   6.325   8.436   3.661 -0.3039 -0.2194 -0.2217
  541MOL0     C72909   6.393   8.320   3.615 -0.6696  0.0279 -0.8463
  541MOL0     C72910   6.324   8.268   3.488 -0.0953  0.0399  0.4906
  541MOL0     C72911   6.369   8.355   3.367 -0.2492 -0.6026  0.6794
  541MOL0     C72912   6.270   8.472   3.340  0.0086  0.9028  0.2550
  541MOL0     C72913   6.297   8.545   3.214  0.5316  0.4409  0.8098
  541MOL0     C72914   6.187   8.649   3.178  0.0862  0.7152 -0.4638
  541MOL0     C72915   6.050   8.578   3.180 -0.8249  0.4003 -0.0501
  541MOL0     C72916   5.942   8.678   3.153  0.4486 -0.1562  0.2708
  541MOL0     N72917   5.942   8.743   3.019  0.0774  0.5691  0.3837
  541MOL0     C72918   5.988   8.869   3.003 -0.4193 -0.5358 -0.0565
  541MOL0     C72919   5.917   8.914   2.892  0.9693 -0.3640 -0.8539
  541MOL0     C72920   5.915   9.051   2.823 -0.5847  0.4501  0.2112
  541MOL0     C72921   6.053   9.113   2.797  1.2649  0.3285 -0.2504
  541MOL0     C72922   6.053   9.242   2.723  0.6548  0.7310 -0.3240
  541MOL0     C72923   5.923   9.332   2.704  0.2286 -0.2950  0.3121
  541MOL0     O72924   5.824   9.280   2.614  0.0305 -0.1730  0.1572
  541MOL0     C72925   5.710   9.354   2.586 -0.5104 -0.5166 -0.8842
  541MOL0     C72926   5.669   9.465   2.655  0.6415 -0.1475 -1.1429
  541MOL0     C72927   5.561   9.543   2.613 -0.3181  0.0674 -0.4176
  541MOL0     C72928   5.524   9.659   2.702 -0.2452 -0.0990  0.1003
  541MOL0     C72929   5.480   9.500   2.497  0.1043 -0.1764 -1.0012
  541MOL0     C72930   5.339   9.551   2.465  0.3237 -0.6288 -0.1071
  541MOL0     O72931   5.286   9.474   2.370 -0.2425 -0.4509  0.1188
  541MOL0     C72932   5.158   9.496   2.313  0.3349  0.3036 -0.4685
  541MOL0     C72933   5.136   9.436   2.192  0.4050  0.3786 -0.5359
  541MOL0     C72934   5.004   9.449   2.135 -0.8895  0.2900  0.4236
  541MOL0     C72935   4.903   9.530   2.189 -0.0999  0.6631 -0.1349
  541MOL0     O72936   4.784   9.548   2.117 -0.7287  0.3891 -0.0270
  541MOL0     C72937   4.787   9.530   1.977  0.4150 -0.1786 -0.4561
  541MOL0     C72938   4.644   9.556   1.923 -0.6050  0.0362 -0.7731
  541MOL0     C72939   4.598   9.701   1.942 -0.9520  0.1040  0.3195
  541MOL0     C72940   4.465   9.728   1.881  0.1314  0.4542  0.8938
  541MOL0     C72941   4.402   9.865   1.924 -0.6578 -0.0011 -0.2199
  541MOL0     C72942   4.266   9.892   1.852  0.0606  0.0165 -0.0616
  541MOL0     C72943   4.164   9.959   1.947  0.7193 -0.2643 -0.9824
  541MOL0     C72944   4.199  10.102   1.982  0.1216  0.5295  0.4501
  541MOL0    Cl72945   4.183  10.198   1.838 -0.0643 -0.5684 -0.3696
  541MOL0     C72946   4.930   9.590   2.311  0.8004 -1.1798 -0.6680
  541MOL0     C72947   5.056   9.569   2.374  0.5511 -0.3381  0.9887
  541MOL0     O72948   5.298   9.660   2.499 -0.8899  0.1460  0.3446
  541MOL0     C72949   5.533   9.391   2.418 -0.7485 -0.3994  0.3944
  541MOL0     C72950   5.645   9.318   2.466 -0.1002  0.5819 -0.2418
  541MOL0     N72951   5.838   8.811   2.852  0.2309  0.7938 -0.2770
  541MOL0     N72952   5.850   8.702   2.923  0.0777  0.0858 -0.7201
  541MOL0     C72953   6.412   8.644   3.717 -0.2353 -1.1937 -0.1877
  541MOL0     C72954   6.458   8.726   3.822 -0.3470 -0.6610  0.2644
  541MOL0     C72955   6.672   8.918   4.173 -0.5230 -0.4152 -0.3219
  541MOL0     C72956   6.803   8.974   4.179  0.9300 -0.5596  0.2911
  541MOL0     C72957   6.835   9.063   4.283  0.4478 -0.1478  0.3045
  541MOL0     C72958   6.743   9.087   4.390 -0.6986  0.7368 -0.3287
  541MOL0     O72959   6.776   9.172   4.493 -0.5928  0.1863 -0.1589
  541MOL0     C72960   6.673   9.249   4.555  0.4443 -0.6620  0.4037
  541MOL0     C72961   6.728   9.333   4.670  0.3947 -0.5380 -0.0563
  541MOL0     C72962   6.825   9.448   4.615 -0.8872  0.2890  0.4459
  541MOL0     C72963   6.861   9.546   4.722 -0.1131 -0.6530  0.5063
  541MOL0     C72964   6.891   9.483   4.853 -0.1663 -0.5684  0.7340
  541MOL0     C72965   6.935   9.441   4.953  0.1662  0.1643 -0.5735
  541MOL0     C72966   6.615   9.024   4.385  0.3309  0.4228  0.0342
  541MOL0     C72967   6.586   8.933   4.282 -1.5627 -0.1508  0.5733
  541MOL0     H72968   6.426   8.551   4.096 -1.3063  1.1953  0.4180
  541MOL0     H72969   6.358   8.378   3.920 -2.9066 -0.1182 -1.2075
  541MOL0     H72970   6.494   8.361   3.616 -1.5301  2.3727 -1.6864
  541MOL0     H72971   6.382   8.248   3.697 -1.4549  0.3253 -0.6720
  541MOL0     H72972   6.351   8.163   3.470 -0.3061  0.2302 -1.1125
  541MOL0     H72973   6.215   8.270   3.494 -0.2379  4.3900 -0.2441
  541MOL0     H72974   6.458   8.408   3.402  1.3441 -3.0979  0.6839
  541MOL0     H72975   6.389   8.296   3.277  2.6932  0.6254  0.4181
  541MOL0     H72976   6.166   8.437   3.342 -0.9590  3.1533 -2.8532
  541MOL0     H72977   6.282   8.533   3.430 -1.5544  0.1495  1.0212
  541MOL0     H72978   6.394   8.594   3.218  0.1422  1.4384 -1.0707
  541MOL0     H72979   6.314   8.475   3.132 -1.0211  1.0881 -0.1079
  541MOL0     H72980   6.200   8.728   3.252 -0.2991 -0.8347  1.3201
  541MOL0     H72981   6.206   8.698   3.082  0.8844 -0.0218 -0.6948
  541MOL0     H72982   6.043   8.499   3.104 -3.0182 -1.3410  1.8019
  541MOL0     H72983   6.023   8.538   3.278  3.9472  0.8014  1.6723
  541MOL0     H72984   5.929   8.753   3.231 -0.2475  0.2438 -0.2148
  541MOL0     H72985   5.857   8.614   3.177  0.2606  0.1792  0.4990
  541MOL0     H72986   6.058   8.923   3.066 -1.5787  1.4301 -0.3659
  541MOL0     H72987   5.860   9.051   2.729  0.5983  0.5096 -0.4927
  541MOL0     H72988   5.870   9.127   2.888 -0.9091  0.3706  0.0841
  541MOL0     H72989   6.113   9.047   2.733  3.6331  2.8910 -0.8797
  541MOL0     H72990   6.109   9.117   2.890  1.5210 -0.0707 -0.3854
  541MOL0     H72991   6.080   9.210   2.622 -0.7239 -2.1884  0.1169
  541MOL0     H72992   6.136   9.298   2.768 -0.7274  0.9037  2.2345
  541MOL0     H72993   5.955   9.433   2.679  0.5229  0.2859  2.7560
  541MOL0     H72994   5.869   9.349   2.798  1.6559  1.1715  0.9272
  541MOL0     H72995   5.718   9.496   2.747  0.8134 -2.6540 -0.3161
  541MOL0     H72996   5.544   9.640   2.808 -1.3226  2.8926  0.9582
  541MOL0     H72997   5.569   9.750   2.662  1.6221 -0.9142  0.2669
  541MOL0     H72998   5.415   9.665   2.701 -0.4815 -2.4072 -2.7287
  541MOL0     H72999   5.212   9.380   2.138 -0.6435 -1.1304 -0.5190
  541MOL0     H73000   4.996   9.403   2.037 -2.7431  2.6994 -0.6571
  541MOL0     H73001   4.850   9.605   1.929 -0.6857  1.0016 -0.1000
  541MOL0     H73002   4.815   9.429   1.943  1.7719  1.6150 -5.4927
  541MOL0     H73003   4.644   9.529   1.817  2.0882 -3.0818 -0.1439
  541MOL0     H73004   4.574   9.490   1.977  1.3450 -1.4074  0.1201
  541MOL0     H73005   4.667   9.777   1.905 -0.2405 -0.3162  0.7602
  541MOL0     H73006   4.593   9.708   2.051  2.3074  0.5325  0.5325
  541MOL0     H73007   4.472   9.730   1.772 -2.9871 -2.8539  0.4577
  541MOL0     H73008   4.397   9.644   1.893  1.9974 -1.4823 -1.3501
  541MOL0     H73009   4.463   9.955   1.906 -1.5626  0.5438 -0.6086
  541MOL0     H73010   4.391   9.849   2.031  0.1114 -1.7830 -0.3725
  541MOL0     H73011   4.272   9.956   1.763 -0.8975 -0.6724 -0.6366
  541MOL0     H73012   4.232   9.790   1.832  0.3651 -0.9748  3.7766
  541MOL0     H73013   4.163   9.894   2.036 -1.9663  1.0526  0.0615
  541MOL0     H73014   4.064   9.954   1.903 -0.7769  0.5669  2.0437
  541MOL0     H73015   4.298  10.108   2.027 -1.1194  1.2017  3.3149
  541MOL0     H73016   4.125  10.139   2.053 -0.9925 -3.9694  1.9524
  541MOL0     H73017   4.864   9.654   2.368  0.6688 -0.2978 -1.7828
  541MOL0     H73018   5.069   9.615   2.471  0.8897 -0.6984  1.1193
  541MOL0     H73019   5.477   9.352   2.334 -1.1564 -0.1613  0.5515
  541MOL0     H73020   5.671   9.223   2.421 -1.2974 -0.4817  1.1899
  541MOL0     H73021   6.392   8.685   3.618 -2.6251 -0.3587  0.5797
  541MOL0     H73022   6.487   8.829   3.804 -2.0813 -0.1264  0.4013
  541MOL0     H73023   6.851   8.959   4.083 -0.1032  3.8068 -1.1111
  541MOL0     H73024   6.934   9.107   4.275 -0.3096  1.4013 -1.2377
  541MOL0     H73025   6.606   9.311   4.494 -1.2574 -1.5283  1.3109
  541MOL0     H73026   6.608   9.175   4.603  0.5292 -1.4030 -0.5886
  541MOL0     H73027   6.777   9.270   4.745  0.4483 -0.8353 -0.3436
  541MOL0     H73028   6.645   9.380   4.725 -0.1007  0.7051 -1.7911
  541MOL0     H73029   6.790   9.500   4.525  0.4329  2.5806  1.1691
  541MOL0     H73030   6.916   9.402   4.576 -1.4413 -0.1217 -0.4007
  541MOL0     H73031   6.774   9.611   4.737 -0.5757 -0.2428 -3.0024
  541MOL0     H73032   6.942   9.611   4.688 -1.6102  1.1803  0.2944
  541MOL0     H73033   6.983   9.423   5.047 -1.3339 -0.5730  0.0974
  541MOL0     H73034   6.538   9.023   4.461 -1.1881  0.0163 -1.4488
  541MOL0     H73035   6.482   8.905   4.292 -1.6614  0.8656  3.3341
  542MOL0     O73036  10.744  10.480   5.386  0.2895  0.1005  0.3056
  542MOL0     C73037  10.716  10.584   5.439 -0.4806 -0.5078  0.6605
  542MOL0     O73038  10.817  10.669   5.491  0.2845 -0.6821  0.1100
  542MOL0     C73039  10.950  10.668   5.461  0.6174  0.4169  0.5577
  542MOL0     C73040  11.014  10.789   5.425  0.3621  0.2121 -0.3784
  542MOL0     C73041  11.153  10.800   5.400 -0.0247  0.9168  0.8471
  542MOL0     C73042  11.240  10.686   5.402 -0.1443  0.0138  0.4947
  542MOL0     O73043  11.370  10.699   5.365 -0.1038  0.7012  0.1626
  542MOL0     C73044  11.413  10.592   5.273  0.2139  0.4767  0.1743
  542MOL0     C73045  11.567  10.632   5.241  0.2261 -0.3045  0.5257
  542MOL0     C73046  11.674  10.589   5.347  0.1080  0.1684  0.0456
  542MOL0     C73047  11.805  10.659   5.314 -0.2698 -0.7712 -0.3640
  542MOL0     C73048  11.923  10.596   5.383 -0.3179 -0.3101 -0.3075
  542MOL0     C73049  12.060  10.624   5.324 -0.1184 -0.4721  0.8834
  542MOL0     C73050  12.178  10.556   5.377  0.4190 -1.2021  0.0621
  542MOL0     C73051  12.168  10.402   5.396 -0.0477  0.3819  0.6016
  542MOL0     N73052  12.150  10.335   5.268 -0.6428 -0.0064  0.4553
  542MOL0     C73053  12.033  10.309   5.192 -0.2582  0.7616 -0.1329
  542MOL0     C73054  12.067  10.301   5.060 -0.0065 -1.3202  0.1973
  542MOL0     C73055  11.963  10.275   4.945 -1.2271  0.3961  0.6928
  542MOL0     C73056  12.024  10.220   4.811  1.0804  0.3046 -0.3279
  542MOL0     C73057  12.103  10.092   4.841  0.2360 -1.2768  0.1752
  542MOL0     C73058  12.137  10.014   4.714 -0.0479  0.0001  0.2706
  542MOL0     O73059  12.028   9.935   4.662 -0.6895 -0.1054  0.1557
  542MOL0     C73060  12.047   9.847   4.556 -0.5540 -0.9824 -0.8410
  542MOL0     C73061  12.160   9.852   4.467  0.0908  0.2928 -0.0770
  542MOL0     C73062  12.177   9.763   4.356  0.1398  0.3559  0.2793
  542MOL0     C73063  12.293   9.789   4.271 -0.9846 -1.1297  0.0097
  542MOL0     C73064  12.103   9.644   4.358  0.2840 -0.1330  0.3522
  542MOL0     C73065  12.134   9.518   4.270  0.2575 -0.5784  0.4654
  542MOL0     O73066  12.185   9.543   4.141  0.3461 -0.6373 -0.0620
  542MOL0     C73067  12.218   9.448   4.043  0.6893 -0.5580  0.4940
  542MOL0     C73068  12.281   9.493   3.929  0.1038 -0.2742 -1.5409
  542MOL0     C73069  12.308   9.420   3.816 -0.4062 -0.5753  0.9494
  542MOL0     C73070  12.265   9.292   3.806 -0.0923 -0.7715  0.1781
  542MOL0     O73071  12.262   9.222   3.686  0.7212  0.0901  0.5671
  542MOL0     C73072  12.184   9.099   3.682 -0.3148  0.8938  0.0399
  542MOL0     C73073  12.237   9.026   3.557  0.2011 -0.2063  0.3082
  542MOL0     C73074  12.221   9.114   3.431 -0.3361  1.1017 -0.1317
  542MOL0     C73075  12.212   9.026   3.306 -0.0281  0.5458  0.1613
  542MOL0     C73076  12.347   8.954   3.278  0.1322  0.9367  0.2792
  542MOL0     C73077  12.340   8.855   3.161  0.4457  0.2634  0.4182
  542MOL0     C73078  12.472   8.789   3.135 -0.2192  0.1592 -0.3230
  542MOL0     C73079  12.457   8.707   3.009 -0.2051  0.2164 -0.0608
  542MOL0    Cl73080  12.571   8.572   3.000 -0.6840  0.2385  0.2298
  542MOL0     C73081  12.205   9.243   3.926  1.2610 -0.0986 -0.5494
  542MOL0     C73082  12.167   9.323   4.037  0.3906  1.0258  0.1634
  542MOL0     O73083  12.113   9.409   4.317 -0.2471 -0.7348  0.3982
  542MOL0     C73084  11.994   9.636   4.448  0.6317  0.6231 -0.2564
  542MOL0     C73085  11.961   9.735   4.540 -0.7577 -0.4321  0.3087
  542MOL0     N73086  12.208  10.325   5.058 -0.2965  0.4178  0.0706
  542MOL0     N73087  12.252  10.344   5.180  0.2434  0.1654 -0.0715
  542MOL0     C73088  11.172  10.562   5.444  0.6582 -0.3658  0.8312
  542MOL0     C73089  11.032  10.550   5.468 -0.2471 -0.4429 -0.0634
  542MOL0     C73090  10.570  10.608   5.455  0.6150  0.4661  0.1790
  542MOL0     C73091  10.487  10.567   5.347 -0.9879  0.7261  0.4932
  542MOL0     C73092  10.348  10.574   5.356  0.9381  0.0677 -0.3701
  542MOL0     C73093  10.294  10.629   5.465 -0.2853 -0.7019 -0.6773
  542MOL0     O73094  10.156  10.645   5.467 -0.7457 -0.0296  0.5205
  542MOL0     C73095  10.101  10.765   5.399  0.0159  0.0743  1.2599
  542MOL0     C73096   9.959  10.795   5.438 -0.1216  0.8889  0.4945
  542MOL0     C73097   9.910  10.913   5.363  0.1295  0.6749 -0.1824
  542MOL0     C73098   9.758  10.925   5.385 -0.4688  0.5974  0.8227
  542MOL0     C73099   9.716  11.038   5.303 -0.1364 -0.2693 -0.6729
  542MOL0     C73100   9.673  11.132   5.239  0.0331  0.3850  0.9215
  542MOL0     C73101  10.369  10.679   5.574 -0.1773 -0.0555  0.2605
  542MOL0     C73102  10.506  10.662   5.572  0.1068 -0.4364  0.3973
  542MOL0     H73103  10.962  10.883   5.443  0.3205 -0.2901  2.7581
  542MOL0     H73104  11.198  10.897   5.383 -1.6538  1.1648 -3.2255
  542MOL0     H73105  11.407  10.492   5.319 -0.3277  0.2396 -0.3992
  542MOL0     H73106  11.352  10.594   5.182 -0.1265 -0.3432  0.3671
  542MOL0     H73107  11.601  10.596   5.143  0.9725  0.8170  0.3550
  542MOL0     H73108  11.569  10.739   5.218  1.7030 -0.8880 -2.5412
  542MOL0     H73109  11.644  10.625   5.446 -0.3392 -4.1939  1.6764
  542MOL0     H73110  11.685  10.482   5.362  0.2378  0.0031 -1.0922
  542MOL0     H73111  11.828  10.659   5.207  3.9984 -1.6998  0.3569
  542MOL0     H73112  11.791  10.767   5.327 -0.4882 -0.7469 -0.7787
  542MOL0     H73113  11.936  10.616   5.490 -0.0751  0.7926 -0.5347
  542MOL0     H73114  11.899  10.489   5.378  0.7959 -0.8111  2.7838
  542MOL0     H73115  12.051  10.601   5.217  0.6678  0.8083  0.5150
  542MOL0     H73116  12.079  10.732   5.326  1.0267 -0.6671  1.2287
  542MOL0     H73117  12.267  10.570   5.315 -0.0748 -1.4501 -0.7168
  542MOL0     H73118  12.198  10.582   5.482 -1.1971 -1.4644  0.4655
  542MOL0     H73119  12.090  10.373   5.467 -1.2884 -0.8204 -1.1811
  542MOL0     H73120  12.265  10.369   5.435  1.2549  0.9080 -1.9930
  542MOL0     H73121  11.934  10.301   5.235  0.2376 -1.7005  0.6795
  542MOL0     H73122  11.890  10.201   4.979 -1.4729 -1.6760 -3.6012
  542MOL0     H73123  11.918  10.370   4.915 -0.2705  0.8456  0.6435
  542MOL0     H73124  12.091  10.294   4.766  3.4330 -1.4956 -0.0338
  542MOL0     H73125  11.948  10.213   4.733  1.7485  2.8952 -1.3312
  542MOL0     H73126  12.034  10.032   4.900 -3.8649  2.1098 -0.6308
  542MOL0     H73127  12.194  10.126   4.893 -0.0838  1.0311 -0.6254
  542MOL0     H73128  12.218   9.942   4.730 -0.1590 -0.4516 -1.0957
  542MOL0     H73129  12.162  10.078   4.629 -0.0042 -1.5295 -0.8977
  542MOL0     H73130  12.235   9.929   4.479 -0.2691  0.3273  2.5706
  542MOL0     H73131  12.363   9.706   4.259  1.0028  0.3629  0.6865
  542MOL0     H73132  12.268   9.810   4.167  0.8272  1.4860 -0.0101
  542MOL0     H73133  12.359   9.866   4.313 -0.7525 -2.7196  2.8128
  542MOL0     H73134  12.304   9.599   3.932 -0.4715 -0.1509 -1.2737
  542MOL0     H73135  12.350   9.472   3.730 -2.1931 -1.3057 -0.4353
  542MOL0     H73136  12.199   9.032   3.767 -1.4269 -0.7152 -0.9777
  542MOL0     H73137  12.079   9.119   3.660  0.1977  2.4324 -1.2229
  542MOL0     H73138  12.341   9.003   3.579 -0.1770 -0.2944  2.1470
  542MOL0     H73139  12.187   8.930   3.542 -1.7621  1.0488 -2.0070
  542MOL0     H73140  12.298   9.191   3.423  0.5027  0.1997 -6.9162
  542MOL0     H73141  12.129   9.172   3.427 -2.9173 -2.6306 -1.0376
  542MOL0     H73142  12.134   8.949   3.312  3.4296 -3.2263  0.7741
  542MOL0     H73143  12.187   9.091   3.222  0.3739  4.4616  2.8160
  542MOL0     H73144  12.382   8.892   3.361  1.9762 -0.3498 -1.3838
  542MOL0     H73145  12.425   9.031   3.285 -1.1865  2.3831 -0.4490
  542MOL0     H73146  12.268   8.774   3.181  3.4091 -2.0641  2.4766
  542MOL0     H73147  12.315   8.904   3.067 -2.1974  0.3872  1.0930
  542MOL0     H73148  12.494   8.734   3.227 -0.3142  1.6271  0.6156
  542MOL0     H73149  12.557   8.856   3.122 -0.1712  0.3037  0.6583
  542MOL0     H73150  12.467   8.769   2.919 -2.0989 -1.6456 -1.6515
  542MOL0     H73151  12.352   8.678   3.005 -0.3847  0.9748 -1.9031
  542MOL0     H73152  12.172   9.140   3.919 -1.0210  0.4648  0.8332
  542MOL0     H73153  12.123   9.270   4.121  1.1776 -0.4168 -0.2990
  542MOL0     H73154  11.924   9.554   4.448  1.4677 -0.2112  2.4416
  542MOL0     H73155  11.870   9.723   4.597 -2.7905 -3.6558 -3.1746
  542MOL0     H73156  11.224  10.467   5.452 -1.0071 -1.1876  2.8391
  542MOL0     H73157  11.001  10.447   5.483  1.8515 -1.2026 -0.5109
  542MOL0     H73158  10.525  10.513   5.261 -3.5552 -1.1558  0.4402
  542MOL0     H73159  10.280  10.542   5.278  0.5700 -1.0553  0.3754
  542MOL0     H73160  10.163  10.853   5.417 -2.5614  1.7812  2.3749
  542MOL0     H73161  10.113  10.748   5.291 -1.7869  4.1363  0.2655
  542MOL0     H73162   9.947  10.803   5.547 -0.1635 -1.7607  0.7418
  542MOL0     H73163   9.905  10.701   5.423 -1.2850  1.6948 -0.6060
  542MOL0     H73164   9.939  10.894   5.259  3.4570 -2.1758  1.0485
  542MOL0     H73165   9.968  11.001   5.391 -0.1354  0.0105  2.6937
  542MOL0     H73166   9.731  10.951   5.488 -0.5806  1.0994  0.6681
  542MOL0     H73167   9.704  10.837   5.349 -0.5402  1.7229 -2.0122
  542MOL0     H73168   9.616  11.200   5.179 -0.7458 -1.4136 -0.4532
  542MOL0     H73169  10.319  10.722   5.660 -2.0061 -1.3044 -0.1095
  542MOL0     H73170  10.557  10.693   5.663  0.6304  1.5124 -0.5121
  543MOL0     O73171   3.699   4.658   7.458 -0.8161  0.3726 -0.4912
  543MOL0     C73172   3.720   4.553   7.398 -0.2333  0.0361  0.9618
  543MOL0     O73173   3.676   4.434   7.432 -0.5433  0.4602  0.0111
  543MOL0     C73174   3.611   4.397   7.546 -0.5683  0.6712 -0.7132
  543MOL0     C73175   3.604   4.479   7.668 -0.7822 -0.0142  0.3630
  543MOL0     C73176   3.553   4.433   7.789  0.1669  0.8172 -0.2568
  543MOL0     C73177   3.511   4.301   7.792 -0.9687 -0.3817  0.6095
  543MOL0     O73178   3.449   4.240   7.893  1.4622  0.5867 -0.5083
  543MOL0     C73179   3.477   4.298   8.026 -0.9650 -0.2846  0.7974
  543MOL0     C73180   3.440   4.201   8.138 -0.5577 -0.2883 -0.1740
  543MOL0     C73181   3.430   4.282   8.273 -0.2592  0.9823  0.4927
  543MOL0     C73182   3.560   4.275   8.351  0.2206 -0.3516 -0.5135
  543MOL0     C73183   3.579   4.131   8.412 -0.7879 -0.6030 -0.7064
  543MOL0     C73184   3.702   4.122   8.517  0.0366 -0.6760  0.0004
  543MOL0     C73185   3.735   3.983   8.569 -0.1055  0.8334  0.1784
  543MOL0     C73186   3.882   3.974   8.615  0.1655 -0.5078  0.7348
  543MOL0     N73187   3.903   4.038   8.744  0.1224 -0.1366  0.3626
  543MOL0     C73188   3.956   4.159   8.766  0.6607 -0.5459 -0.3961
  543MOL0     C73189   3.926   4.187   8.890 -0.9279  0.1844 -0.3508
  543MOL0     C73190   3.975   4.316   8.959 -0.2912 -0.4177 -0.0186
  543MOL0     C73191   4.130   4.318   8.986  0.2401 -0.1746 -0.2036
  543MOL0     C73192   4.191   4.207   9.061 -0.5982  0.3096 -0.4176
  543MOL0     C73193   4.182   4.206   9.216 -0.6461  0.2306 -0.3024
  543MOL0     O73194   4.263   4.304   9.266  0.3015 -0.6735 -0.4211
  543MOL0     C73195   4.220   4.417   9.321 -0.3443 -1.0611  0.8046
  543MOL0     C73196   4.093   4.463   9.341  0.4491 -0.0705  0.0175
  543MOL0     C73197   4.066   4.590   9.406  0.2723 -0.0482 -0.0766
  543MOL0     C73198   3.919   4.628   9.431  0.2552  0.3897  0.5697
  543MOL0     C73199   4.172   4.672   9.448 -1.0608 -0.8058 -0.5198
  543MOL0     C73200   4.171   4.810   9.500 -0.5052  0.4418 -0.4067
  543MOL0     O73201   4.289   4.883   9.470  0.3162  0.4589  1.1695
  543MOL0     C73202   4.323   5.013   9.503  0.6670  0.3764 -1.2796
  543MOL0     C73203   4.411   5.088   9.421  0.1861 -0.9574 -0.6429
  543MOL0     C73204   4.419   5.224   9.440 -0.2002 -0.2287  0.1797
  543MOL0     C73205   4.369   5.284   9.551 -0.4851  0.2614 -0.2478
  543MOL0     O73206   4.384   5.421   9.566  0.1645  0.0530  1.0689
  543MOL0     C73207   4.388   5.489   9.697  0.5134 -0.2170 -0.3062
  543MOL0     C73208   4.499   5.600   9.689 -0.2697 -0.2948  1.1681
  543MOL0     C73209   4.475   5.696   9.569 -0.2408  1.2930 -0.1015
  543MOL0     C73210   4.589   5.796   9.558 -0.1768 -0.0588 -0.7863
  543MOL0     C73211   4.600   5.877   9.427  0.0373 -0.1466 -0.9771
  543MOL0     C73212   4.713   5.984   9.420  0.3353 -0.3179  0.3108
  543MOL0     C73213   4.725   6.064   9.284 -0.5135  0.9507 -0.3915
  543MOL0     C73214   4.743   5.964   9.160  0.3953 -0.4198  0.0694
  543MOL0    Cl73215   4.794   6.091   9.036  0.2656 -0.5040 -0.1894
  543MOL0     C73216   4.287   5.213   9.635  0.3415 -0.5817  0.0752
  543MOL0     C73217   4.258   5.076   9.616 -0.6265  0.2581 -0.7682
  543MOL0     O73218   4.076   4.853   9.565 -0.0821  0.0649 -0.1249
  543MOL0     C73219   4.302   4.620   9.426  0.4793 -0.7857 -0.2116
  543MOL0     C73220   4.323   4.496   9.368 -0.5851 -1.1144  1.2163
  543MOL0     N73221   3.854   4.075   8.943 -1.2375 -0.0819 -0.8863
  543MOL0     N73222   3.836   3.989   8.851  0.1465  0.5422  0.4153
  543MOL0     C73223   3.511   4.222   7.673 -0.0252 -0.6150  0.0340
  543MOL0     C73224   3.561   4.269   7.553  0.0224 -0.0227 -0.2097
  543MOL0     C73225   3.820   4.557   7.284  0.0102 -0.4856 -0.0704
  543MOL0     C73226   3.881   4.446   7.233 -0.0346 -0.1609  0.4585
  543MOL0     C73227   3.965   4.451   7.132 -0.1350 -0.2624  0.5917
  543MOL0     C73228   4.009   4.580   7.092  0.4286 -0.0052 -0.2997
  543MOL0     O73229   4.098   4.579   6.989  0.8948 -0.2275  0.3575
  543MOL0     C73230   4.155   4.704   6.956 -0.6937  0.3473  0.3827
  543MOL0     C73231   4.252   4.689   6.837 -0.0066 -1.3694  0.2768
  543MOL0     C73232   4.376   4.588   6.844 -0.3299 -0.5080 -0.1925
  543MOL0     C73233   4.452   4.586   6.709  0.1685  0.1974 -0.1169
  543MOL0     C73234   4.572   4.507   6.733  0.7686 -0.6026  0.6568
  543MOL0     C73235   4.661   4.431   6.762 -0.0971  0.1684 -0.6155
  543MOL0     C73236   3.952   4.692   7.145 -0.3114 -0.1634 -1.0994
  543MOL0     C73237   3.848   4.683   7.231  0.9934  1.0410 -0.8337
  543MOL0     H73238   3.638   4.581   7.653  1.9998 -0.9203 -0.1145
  543MOL0     H73239   3.530   4.508   7.864 -0.8924  1.5156 -1.2378
  543MOL0     H73240   3.581   4.332   8.024 -1.5445  1.5483  0.1782
  543MOL0     H73241   3.412   4.386   8.029 -0.2195  0.3346 -0.3661
  543MOL0     H73242   3.340   4.163   8.114 -2.5672  4.5425 -0.4530
  543MOL0     H73243   3.511   4.119   8.151 -1.7261 -1.4043 -0.6031
  543MOL0     H73244   3.404   4.386   8.251 -1.0486  1.1276  1.9937
  543MOL0     H73245   3.351   4.245   8.338 -2.1606  0.0789 -2.1459
  543MOL0     H73246   3.639   4.300   8.280  1.4685 -0.7299  0.7131
  543MOL0     H73247   3.557   4.350   8.431 -0.8130 -0.3565 -0.5289
  543MOL0     H73248   3.487   4.097   8.458  0.2406 -2.5549 -0.0134
  543MOL0     H73249   3.608   4.056   8.338 -1.9329  0.0476 -1.8519
  543MOL0     H73250   3.779   4.175   8.460 -2.3788 -0.0536 -2.9616
  543MOL0     H73251   3.684   4.184   8.606 -1.5971  0.0787 -0.8070
  543MOL0     H73252   3.665   3.954   8.649 -0.2820 -1.6206 -0.7581
  543MOL0     H73253   3.714   3.918   8.483  2.4689  0.9764 -0.6472
  543MOL0     H73254   3.935   4.019   8.530 -2.3690  1.3104 -0.0046
  543MOL0     H73255   3.920   3.873   8.627  4.3578  0.9011  0.9044
  543MOL0     H73256   4.003   4.240   8.712 -1.1854 -0.5968 -2.1730
  543MOL0     H73257   3.952   4.391   8.883  2.7547 -1.4694 -2.1616
  543MOL0     H73258   3.912   4.330   9.048 -0.3348  0.4533 -0.1833
  543MOL0     H73259   4.153   4.414   9.033  1.7331 -0.7166  0.2355
  543MOL0     H73260   4.173   4.328   8.886  1.5250  0.1230  0.3562
  543MOL0     H73261   4.295   4.216   9.029 -0.6020  2.6543  0.0354
  543MOL0     H73262   4.155   4.107   9.036  0.7683  0.1272 -1.8398
  543MOL0     H73263   4.227   4.117   9.260 -0.8922 -0.8925 -2.1892
  543MOL0     H73264   4.078   4.205   9.250  0.4611  1.0104  3.5876
  543MOL0     H73265   4.007   4.400   9.318 -0.9897  2.0701 -0.7537
  543MOL0     H73266   3.906   4.730   9.394 -2.1770  1.0625  2.9940
  543MOL0     H73267   3.860   4.556   9.373  2.5619 -1.8704  0.8625
  543MOL0     H73268   3.906   4.620   9.539 -1.0560 -5.3722  0.3106
  543MOL0     H73269   4.450   5.040   9.332 -0.1387 -0.8117 -0.8656
  543MOL0     H73270   4.456   5.281   9.355  0.6700 -1.2034 -0.1186
  543MOL0     H73271   4.292   5.534   9.725  1.2175  1.2350 -0.0975
  543MOL0     H73272   4.414   5.418   9.777  0.4876 -1.5446 -1.4570
  543MOL0     H73273   4.497   5.660   9.780  0.6809  0.4874  0.6881
  543MOL0     H73274   4.594   5.548   9.674 -0.4154 -0.7744  1.8690
  543MOL0     H73275   4.373   5.734   9.580 -2.1406 -2.0056 -3.7610
  543MOL0     H73276   4.474   5.642   9.473 -0.4967  3.3554 -1.3102
  543MOL0     H73277   4.577   5.859   9.646  1.2136  1.5357 -1.6803
  543MOL0     H73278   4.684   5.742   9.564  1.5418  2.8731  1.1387
  543MOL0     H73279   4.504   5.925   9.404 -0.1727 -1.1462 -2.3375
  543MOL0     H73280   4.625   5.800   9.353 -0.4622 -1.3731  0.0939
  543MOL0     H73281   4.704   6.064   9.495  1.9318  0.7094 -0.5251
  543MOL0     H73282   4.812   5.940   9.435 -0.3680 -2.3146 -0.6053
  543MOL0     H73283   4.802   6.142   9.294 -0.4437  0.7904  0.3785
  543MOL0     H73284   4.632   6.119   9.269 -0.1602  1.6898  0.0010
  543MOL0     H73285   4.650   5.911   9.138  0.2147  0.4039 -1.2533
  543MOL0     H73286   4.825   5.893   9.171  1.0351 -0.3212 -3.1273
  543MOL0     H73287   4.237   5.270   9.713  1.0121  0.4287 -0.2164
  543MOL0     H73288   4.207   5.021   9.694  0.5792 -1.3496 -1.0606
  543MOL0     H73289   4.393   4.669   9.460  2.4223 -2.0297 -3.1642
  543MOL0     H73290   4.423   4.453   9.363  1.2113  2.7403 -2.9119
  543MOL0     H73291   3.486   4.117   7.676 -1.5349 -0.2987 -0.7840
  543MOL0     H73292   3.553   4.205   7.466 -1.0076  1.4299 -1.2289
  543MOL0     H73293   3.851   4.346   7.263  1.8140 -0.6333  0.8517
  543MOL0     H73294   4.009   4.369   7.076 -1.2679 -1.0503  0.8382
  543MOL0     H73295   4.080   4.779   6.932 -2.5658 -1.5707 -0.0353
  543MOL0     H73296   4.220   4.735   7.039  1.8941 -0.3443 -1.2482
  543MOL0     H73297   4.285   4.792   6.820 -1.8885 -0.1574  3.1730
  543MOL0     H73298   4.197   4.667   6.745  0.8287  3.2736 -1.6193
  543MOL0     H73299   4.333   4.491   6.872 -0.3444 -0.5409 -0.3291
  543MOL0     H73300   4.455   4.612   6.916  0.4544  0.1532 -1.2608
  543MOL0     H73301   4.472   4.689   6.680 -1.0497  0.1467 -1.2258
  543MOL0     H73302   4.396   4.554   6.621  0.8817  1.7055 -1.1525
  543MOL0     H73303   4.736   4.365   6.801  2.6313  2.5385 -1.4811
  543MOL0     H73304   3.971   4.794   7.113  2.2008  0.1091  0.9655
  543MOL0     H73305   3.798   4.775   7.261  0.7249  0.7278 -0.2955
  544MOL0     O73306   6.185   1.523   8.749  0.3799  0.5038  0.2301
  544MOL0     C73307   6.178   1.507   8.626  0.4452  0.2412  0.1561
  544MOL0     O73308   6.079   1.424   8.571 -0.6866 -0.1729  0.1243
  544MOL0     C73309   5.996   1.338   8.646 -1.0631 -0.2488 -0.2575
  544MOL0     C73310   5.930   1.243   8.568 -0.9355  0.8557 -0.1632
  544MOL0     C73311   5.818   1.172   8.618  0.6431 -0.0979  0.0795
  544MOL0     C73312   5.774   1.198   8.752  0.1433  0.3619  0.0574
  544MOL0     O73313   5.677   1.124   8.816 -0.2926  0.4118 -0.1022
  544MOL0     C73314   5.573   1.071   8.736 -0.0330  0.6294 -0.7157
  544MOL0     C73315   5.485   0.994   8.837  1.1489  0.7199 -0.7791
  544MOL0     C73316   5.362   0.925   8.775 -0.4416 -1.1226  0.0227
  544MOL0     C73317   5.332   0.791   8.828 -0.4520  0.1252  0.8484
  544MOL0     C73318   5.436   0.676   8.810  1.1615 -0.2059  0.8260
  544MOL0     C73319   5.408   0.576   8.917  0.4600 -0.3575  0.2879
  544MOL0     C73320   5.520   0.476   8.911 -0.3291 -0.3433  0.3273
  544MOL0     C73321   5.513   0.361   9.015 -0.1912 -0.7258 -0.1015
  544MOL0     N73322   5.378   0.309   9.015  0.9611  0.9138  0.0841
  544MOL0     C73323   5.315   0.239   8.917  0.1649  0.7668  0.1087
  544MOL0     C73324   5.188   0.232   8.961 -0.1943 -0.6141 -1.2272
  544MOL0     C73325   5.071   0.195   8.881  0.0458  0.1906 -0.9875
  544MOL0     C73326   5.046   0.303   8.768 -0.4633  0.1514  0.1139
  544MOL0     C73327   4.969   0.424   8.824  0.6854 -0.7700  1.2340
  544MOL0     C73328   4.933   0.511   8.709 -1.1137 -0.5141 -0.2446
  544MOL0     O73329   5.044   0.595   8.667 -0.0292 -0.8314 -1.1938
  544MOL0     C73330   5.029   0.673   8.555 -1.1788  0.0347  1.0939
  544MOL0     C73331   4.900   0.687   8.492 -0.2263  0.8965  0.0353
  544MOL0     C73332   4.878   0.774   8.380 -0.1392  0.4474 -0.7579
  544MOL0     C73333   4.735   0.776   8.336  0.7719 -0.1342 -0.1335
  544MOL0     C73334   4.990   0.838   8.323  0.0322  0.5862 -0.0259
  544MOL0     C73335   4.980   0.925   8.208  0.1218  0.1120  0.9211
  544MOL0     O73336   5.057   1.043   8.209 -0.2210  0.6794 -0.1669
  544MOL0     C73337   5.088   1.124   8.101  0.1063  0.2477  0.0073
  544MOL0     C73338   5.096   1.257   8.128 -0.2508  0.3908 -0.3449
  544MOL0     C73339   5.147   1.347   8.036 -0.1554  0.5190 -0.4623
  544MOL0     C73340   5.170   1.306   7.902 -0.3957 -0.3330 -0.6070
  544MOL0     O73341   5.204   1.403   7.814 -0.5343 -0.6367 -0.7423
  544MOL0     C73342   5.274   1.371   7.693  0.8610  0.2148 -0.3437
  544MOL0     C73343   5.404   1.285   7.714 -0.4035  0.7991 -0.7324
  544MOL0     C73344   5.521   1.371   7.748 -0.9964 -0.5768  0.0764
  544MOL0     C73345   5.661   1.315   7.747 -0.2174  0.2721  0.1252
  544MOL0     C73346   5.786   1.400   7.779 -0.3631 -0.4440  0.2114
  544MOL0     C73347   5.919   1.314   7.788 -0.3417 -0.6468 -0.7458
  544MOL0     C73348   6.029   1.410   7.824  0.5326 -0.4338  0.8456
  544MOL0     C73349   6.047   1.401   7.978 -0.2980 -0.1103  0.1295
  544MOL0    Cl73350   6.212   1.460   8.020  0.5533  0.2483 -0.1870
  544MOL0     C73351   5.159   1.167   7.877  1.0225 -0.1057 -0.0688
  544MOL0     C73352   5.122   1.075   7.973  0.7268  0.2257 -0.2363
  544MOL0     O73353   4.941   0.870   8.102 -0.1305  0.4995 -0.3284
  544MOL0     C73354   5.117   0.825   8.382  0.1447 -0.6248 -0.2568
  544MOL0     C73355   5.141   0.745   8.500 -0.7224  0.1884  0.5575
  544MOL0     N73356   5.178   0.272   9.095  0.1217  0.2926 -0.3961
  544MOL0     N73357   5.296   0.320   9.131  0.3987 -0.1878 -0.3536
  544MOL0     C73358   5.834   1.293   8.830  0.1532  0.2149 -0.1460
  544MOL0     C73359   5.940   1.373   8.774  0.4433  0.2202  0.2779
  544MOL0     C73360   6.273   1.573   8.544  0.3643  0.4800  0.8249
  544MOL0     C73361   6.279   1.556   8.407  0.3420 -0.2614 -0.2089
  544MOL0     C73362   6.377   1.606   8.320 -0.8606  0.2834  0.7325
  544MOL0     C73363   6.477   1.687   8.370 -0.4059  0.7375 -0.2315
  544MOL0     O73364   6.576   1.721   8.277  0.0243 -0.8869 -0.0457
  544MOL0     C73365   6.664   1.831   8.323  0.3445 -0.3832 -0.4120
  544MOL0     C73366   6.754   1.848   8.205  0.4263 -0.1430 -0.1059
  544MOL0     C73367   6.870   1.919   8.249 -0.3563  0.2067 -0.1815
  544MOL0     C73368   6.977   1.947   8.142  0.1920  0.3165 -0.4353
  544MOL0     C73369   7.069   2.050   8.181 -1.2425 -1.0535  0.2915
  544MOL0     C73370   7.161   2.129   8.202  0.3749  0.1196 -0.2082
  544MOL0     C73371   6.467   1.724   8.505 -0.7680 -0.1259 -0.0086
  544MOL0     C73372   6.367   1.661   8.588  0.8621 -0.0737 -0.1166
  544MOL0     H73373   5.961   1.223   8.466 -0.0251  0.5678  0.1584
  544MOL0     H73374   5.777   1.101   8.547  0.6253  1.9216 -2.0499
  544MOL0     H73375   5.510   1.148   8.690 -0.9973 -0.0822 -0.6137
  544MOL0     H73376   5.608   1.004   8.657  2.8415  3.6719 -2.3454
  544MOL0     H73377   5.543   0.914   8.885  2.8854  1.4305 -1.5931
  544MOL0     H73378   5.450   1.050   8.924 -0.6624  1.9563 -2.2211
  544MOL0     H73379   5.270   0.985   8.780  0.9986  1.9185 -4.1040
  544MOL0     H73380   5.384   0.918   8.668 -0.4844 -0.4759 -0.0321
  544MOL0     H73381   5.318   0.810   8.935 -0.4762  3.8476  0.3218
  544MOL0     H73382   5.236   0.756   8.789 -0.2107  0.2113  0.1617
  544MOL0     H73383   5.423   0.629   8.712 -1.9742  0.3609  0.8461
  544MOL0     H73384   5.535   0.722   8.810  2.0188 -1.9740  0.0701
  544MOL0     H73385   5.404   0.618   9.018 -3.3480 -0.2157  0.2160
  544MOL0     H73386   5.311   0.527   8.906  0.0777  0.6421 -1.0622
  544MOL0     H73387   5.525   0.437   8.808  1.0939  0.9129 -0.1200
  544MOL0     H73388   5.610   0.535   8.928 -1.5971  1.1928  1.9890
  544MOL0     H73389   5.536   0.415   9.107 -1.7391  0.9426 -0.6375
  544MOL0     H73390   5.587   0.284   8.990 -1.0149 -1.0659 -1.5907
  544MOL0     H73391   5.352   0.226   8.815  4.1895 -1.5931  1.6026
  544MOL0     H73392   5.103   0.101   8.836  1.5885  0.5284 -0.6618
  544MOL0     H73393   4.983   0.177   8.944  0.6325  4.5368  1.4226
  544MOL0     H73394   4.986   0.260   8.687 -0.4331 -0.1717  0.2602
  544MOL0     H73395   5.135   0.336   8.714 -1.8175  1.5172 -1.3904
  544MOL0     H73396   5.020   0.484   8.900 -2.6150  3.0292  0.7676
  544MOL0     H73397   4.871   0.403   8.868  0.0014  1.9652  1.1897
  544MOL0     H73398   4.854   0.579   8.738 -0.0466  0.8299 -0.3890
  544MOL0     H73399   4.901   0.456   8.620 -0.0931  0.8790 -1.5258
  544MOL0     H73400   4.814   0.634   8.532  2.9181 -4.6634  0.4114
  544MOL0     H73401   4.665   0.721   8.400  0.3205  1.8863  1.2020
  544MOL0     H73402   4.694   0.877   8.327 -3.0658 -1.3783  1.2631
  544MOL0     H73403   4.729   0.733   8.235 -1.4073  0.7546 -0.4483
  544MOL0     H73404   5.071   1.286   8.230 -0.3305  3.3530 -1.1323
  544MOL0     H73405   5.182   1.447   8.062  2.6699 -0.6808  0.7577
  544MOL0     H73406   5.196   1.323   7.633 -0.4948  1.5170  0.3078
  544MOL0     H73407   5.288   1.469   7.645 -1.0777  0.8304  0.2577
  544MOL0     H73408   5.391   1.204   7.787 -2.4815  0.3290 -1.5391
  544MOL0     H73409   5.426   1.232   7.621 -0.2451  2.4533 -1.6571
  544MOL0     H73410   5.494   1.407   7.848 -0.8324  1.8741 -0.6824
  544MOL0     H73411   5.519   1.465   7.692 -1.7721  1.0102  2.5985
  544MOL0     H73412   5.664   1.230   7.817 -0.5807 -0.2598 -0.4950
  544MOL0     H73413   5.685   1.273   7.649  1.0487  0.5189  0.3204
  544MOL0     H73414   5.764   1.445   7.875 -1.8103 -0.7438  0.0518
  544MOL0     H73415   5.794   1.483   7.708  2.2269  0.6178  1.6512
  544MOL0     H73416   5.902   1.231   7.856  0.0499  0.1696  0.3711
  544MOL0     H73417   5.952   1.282   7.688 -1.7152  0.0162 -1.4401
  544MOL0     H73418   6.019   1.516   7.797  1.3615 -0.8633 -1.3326
  544MOL0     H73419   6.123   1.377   7.779  1.4688  2.4598  0.4276
  544MOL0     H73420   6.041   1.298   8.016  2.1329  0.1059  1.2808
  544MOL0     H73421   5.981   1.467   8.034  1.1774 -0.9978  3.1247
  544MOL0     H73422   5.157   1.126   7.777 -0.0763  0.0409 -0.1181
  544MOL0     H73423   5.125   0.969   7.950 -3.6265 -0.1893  0.4115
  544MOL0     H73424   5.192   0.888   8.337 -0.3169 -0.7690 -1.2508
  544MOL0     H73425   5.241   0.737   8.542 -0.7611 -1.9814  0.3488
  544MOL0     H73426   5.802   1.288   8.934  3.4087 -2.8815  0.9023
  544MOL0     H73427   5.979   1.450   8.839 -2.0180  0.2316  1.8766
  544MOL0     H73428   6.192   1.510   8.363 -0.5915  0.1595  1.1488
  544MOL0     H73429   6.370   1.584   8.214 -0.7072  0.1382  0.7501
  544MOL0     H73430   6.611   1.925   8.342 -1.1030 -1.2487  0.0666
  544MOL0     H73431   6.726   1.799   8.408  0.2224  2.2697  0.7744
  544MOL0     H73432   6.697   1.905   8.130  1.3208 -2.8215 -3.0674
  544MOL0     H73433   6.774   1.755   8.150 -2.3698  1.2566 -3.9297
  544MOL0     H73434   6.914   1.858   8.328  1.7306 -0.9832 -2.1506
  544MOL0     H73435   6.835   2.010   8.300  0.7209 -0.1716  1.3075
  544MOL0     H73436   6.932   1.978   8.047  0.1182  1.0138 -0.1736
  544MOL0     H73437   7.032   1.855   8.118 -0.1514  0.3560 -1.4368
  544MOL0     H73438   7.239   2.200   8.220  1.9899 -1.0298 -2.1501
  544MOL0     H73439   6.535   1.797   8.550 -1.0330 -1.1792  2.2671
  544MOL0     H73440   6.363   1.690   8.693 -0.0621 -1.8762  0.3919
  545MOL0     O73441   7.623   8.779   9.665  1.0012 -0.3398  0.3842
  545MOL0     C73442   7.597   8.895   9.684 -0.0880  0.5974  0.9643
  545MOL0     O73443   7.525   8.945   9.793 -0.1433  0.2305  0.4481
  545MOL0     C73444   7.508   8.873   9.912 -1.0100 -0.8492 -0.3686
  545MOL0     C73445   7.403   8.919   9.993  0.5865 -0.4965 -0.0623
  545MOL0     C73446   7.383   8.859  10.116 -0.4525  0.2279  0.1155
  545MOL0     C73447   7.470   8.759  10.168 -0.4995  0.7369  0.3554
  545MOL0     O73448   7.438   8.700  10.286 -0.0150  0.3226 -0.8945
  545MOL0     C73449   7.443   8.551  10.290 -0.9387 -0.3530  1.1900
  545MOL0     C73450   7.393   8.498  10.431 -0.1486 -0.0285 -0.3480
  545MOL0     C73451   7.242   8.506  10.458  0.1613 -0.3672  0.2765
  545MOL0     C73452   7.148   8.406  10.385  0.0902  0.1216 -0.0190
  545MOL0     C73453   7.009   8.388  10.445  0.6000 -0.5163 -0.0095
  545MOL0     C73454   6.910   8.299  10.356  0.2296  0.4120  0.3431
  545MOL0     C73455   6.935   8.143  10.388  0.8175 -0.5913 -0.1892
  545MOL0     C73456   6.830   8.080  10.483 -0.4808  0.1215 -0.0407
  545MOL0     N73457   6.850   7.935  10.514  0.2892  0.2408 -0.1826
  545MOL0     C73458   6.932   7.879  10.609  0.3288 -0.3470  0.0861
  545MOL0     C73459   6.908   7.746  10.595  0.5332  0.3693  0.0402
  545MOL0     C73460   6.988   7.650  10.690 -0.0678 -1.2964  0.1591
  545MOL0     C73461   6.976   7.688  10.837 -0.9645  0.2118 -0.7758
  545MOL0     C73462   6.834   7.714  10.874 -1.1950 -0.4352  0.2358
  545MOL0     C73463   6.816   7.711  11.016  0.1233 -0.0922 -1.2121
  545MOL0     O73464   6.678   7.759  11.045 -0.2937  0.9177  0.3585
  545MOL0     C73465   6.580   7.674  11.010  0.5758 -0.5349  1.0629
  545MOL0     C73466   6.501   7.714  10.901 -0.9236  0.6181 -0.5135
  545MOL0     C73467   6.401   7.622  10.846 -0.8910  0.7066 -1.3071
  545MOL0     C73468   6.326   7.651  10.729 -0.4403 -1.0477  0.6969
  545MOL0     C73469   6.375   7.501  10.912 -0.6092 -0.1730  0.0543
  545MOL0     C73470   6.269   7.399  10.879 -0.0316  0.1389 -0.3613
  545MOL0     O73471   6.241   7.314  10.981 -0.0409 -0.2693  0.0858
  545MOL0     C73472   6.155   7.207  10.964  0.4499 -1.1410  0.8391
  545MOL0     C73473   6.202   7.083  10.917  1.0742 -0.4599 -0.1916
  545MOL0     C73474   6.112   6.978  10.899  0.8918 -0.9114  1.1618
  545MOL0     C73475   5.979   6.986  10.934 -0.3465 -0.6610 -0.0523
  545MOL0     O73476   5.875   6.902  10.905  0.1193  0.5282 -0.3035
  545MOL0     C73477   5.894   6.777  10.844 -0.3434 -0.1898  0.1358
  545MOL0     C73478   5.772   6.699  10.827 -0.0689  0.5030 -0.4587
  545MOL0     C73479   5.673   6.755  10.727  0.0570 -1.0764  0.7174
  545MOL0     C73480   5.608   6.640  10.647 -0.7324 -1.0764 -0.1685
  545MOL0     C73481   5.476   6.597  10.713  0.7439  0.4592 -0.5822
  545MOL0     C73482   5.415   6.475  10.653 -0.6642 -0.1295 -0.2224
  545MOL0     C73483   5.269   6.456  10.688 -0.6679  0.2828  0.2229
  545MOL0     C73484   5.165   6.543  10.613 -0.4908  0.6159 -0.5043
  545MOL0    Cl73485   5.002   6.528  10.683  0.1922 -0.2281 -0.2927
  545MOL0     C73486   5.936   7.097  10.997  0.2862  0.5116  0.5536
  545MOL0     C73487   6.023   7.209  11.009  0.5524  0.3215  0.3965
  545MOL0     O73488   6.204   7.403  10.774 -0.7913  0.2460  0.2211
  545MOL0     C73489   6.463   7.469  11.016  0.2090 -0.5983 -0.3173
  545MOL0     C73490   6.563   7.549  11.063 -0.8152  0.4481  1.0997
  545MOL0     N73491   6.806   7.724  10.497 -0.1899 -0.3803 -0.0656
  545MOL0     N73492   6.770   7.838  10.452 -0.4594 -0.4722  0.3310
  545MOL0     C73493   7.577   8.710  10.085 -0.4457 -0.2061  0.2013
  545MOL0     C73494   7.598   8.772   9.955  0.1702 -0.1956 -0.7040
  545MOL0     C73495   7.648   8.990   9.586  0.5211 -0.1620 -0.2332
  545MOL0     C73496   7.753   8.954   9.507  0.2156 -0.4448 -0.6235
  545MOL0     C73497   7.817   9.055   9.431 -0.2313  0.6101  0.0417
  545MOL0     C73498   7.766   9.181   9.427  0.5953 -0.0631 -1.1402
  545MOL0     O73499   7.833   9.259   9.346 -0.1213  0.6329 -0.2712
  545MOL0     C73500   7.782   9.376   9.301  0.4213 -0.6750  0.0464
  545MOL0     C73501   7.838   9.378   9.158  0.2222  0.5237  0.4624
  545MOL0     C73502   7.816   9.517   9.092 -0.4741  1.3177 -0.4845
  545MOL0     C73503   7.807   9.523   8.939 -0.1258 -0.6176  0.2663
  545MOL0     C73504   7.894   9.437   8.860  0.1309  0.1551  0.5399
  545MOL0     C73505   7.974   9.371   8.793 -1.0530  0.5668  0.8353
  545MOL0     C73506   7.647   9.209   9.505  0.7166 -0.6840  1.5867
  545MOL0     C73507   7.594   9.117   9.584  0.4298 -0.5655 -0.1073
  545MOL0     H73508   7.349   9.003   9.951  1.9150  1.1757  1.4246
  545MOL0     H73509   7.292   8.892  10.167 -1.0161 -0.9313 -0.1109
  545MOL0     H73510   7.376   8.503  10.218 -0.5176  1.8391 -0.7860
  545MOL0     H73511   7.542   8.511  10.266 -0.9357  1.1803 -1.7932
  545MOL0     H73512   7.430   8.396  10.443 -1.4509 -0.5391 -0.4807
  545MOL0     H73513   7.437   8.565  10.505  0.9056 -0.8536 -0.2047
  545MOL0     H73514   7.232   8.515  10.566  2.6051  1.7930  0.4180
  545MOL0     H73515   7.210   8.603  10.419 -1.7927 -0.7006  0.9348
  545MOL0     H73516   7.134   8.437  10.281 -0.6852 -3.0069 -0.9342
  545MOL0     H73517   7.194   8.307  10.384 -1.1251 -0.5690  2.5152
  545MOL0     H73518   7.025   8.357  10.549 -0.0916  2.6414  1.1471
  545MOL0     H73519   6.961   8.486  10.447  1.1200 -0.1937 -1.8608
  545MOL0     H73520   6.803   8.313  10.373 -0.5226 -3.8678  0.2139
  545MOL0     H73521   6.948   8.312  10.254  1.7843 -1.7658  0.5810
  545MOL0     H73522   6.933   8.093  10.291 -0.5152  0.9528 -1.0199
  545MOL0     H73523   7.035   8.115  10.424  0.2895 -2.9244 -0.3792
  545MOL0     H73524   6.731   8.088  10.438  0.0926 -3.0605 -2.1811
  545MOL0     H73525   6.836   8.142  10.573  1.0606  1.8567 -1.2551
  545MOL0     H73526   6.998   7.932  10.677 -0.7982  2.2249 -0.7172
  545MOL0     H73527   6.950   7.549  10.674  0.1074 -1.1305 -1.4522
  545MOL0     H73528   7.094   7.651  10.664 -0.1577  1.8422 -0.5215
  545MOL0     H73529   7.036   7.779  10.842  0.3669 -0.6548 -0.2971
  545MOL0     H73530   7.026   7.605  10.889  1.5252  0.2761 -2.8434
  545MOL0     H73531   6.771   7.634  10.835  0.6093 -2.5175  1.3395
  545MOL0     H73532   6.806   7.812  10.834 -1.4881 -0.8927 -0.7155
  545MOL0     H73533   6.885   7.779  11.066 -0.2145 -1.0549  0.6673
  545MOL0     H73534   6.837   7.610  11.052  1.5903  0.6298  0.0811
  545MOL0     H73535   6.532   7.809  10.859  2.0313 -1.1564 -2.7164
  545MOL0     H73536   6.385   7.733  10.687 -0.8257 -0.4908  1.2183
  545MOL0     H73537   6.326   7.571  10.654 -0.4446  0.7873 -1.3562
  545MOL0     H73538   6.222   7.683  10.745 -0.3082  1.4913 -2.4231
  545MOL0     H73539   6.308   7.069  10.897  1.4474  1.7750 -0.0145
  545MOL0     H73540   6.161   6.899  10.843  1.2007  0.0828 -0.0129
  545MOL0     H73541   5.957   6.774  10.755 -0.8418 -0.3912 -0.2191
  545MOL0     H73542   5.963   6.716  10.904  0.3052 -0.3646 -0.7770
  545MOL0     H73543   5.799   6.599  10.790 -2.7922  0.0199 -1.3828
  545MOL0     H73544   5.727   6.685  10.925 -1.2840  0.4901 -0.9948
  545MOL0     H73545   5.724   6.832  10.668 -0.3109  1.3472  3.3159
  545MOL0     H73546   5.601   6.817  10.782  0.9592  1.1269 -0.4410
  545MOL0     H73547   5.573   6.676  10.550  0.4814  1.6890  0.3458
  545MOL0     H73548   5.685   6.563  10.634  0.9659  0.9257 -3.5322
  545MOL0     H73549   5.401   6.675  10.694 -1.2977 -0.8354  1.5450
  545MOL0     H73550   5.495   6.597  10.821 -0.3821 -0.1028 -0.3608
  545MOL0     H73551   5.425   6.485  10.544  3.4623  1.0475  0.0827
  545MOL0     H73552   5.478   6.389  10.676  1.8355  1.5095 -0.5682
  545MOL0     H73553   5.257   6.469  10.795  0.1536  0.9361  0.2464
  545MOL0     H73554   5.250   6.351  10.661 -0.5194  1.1108 -3.6751
  545MOL0     H73555   5.147   6.518  10.508 -1.6862  1.5785 -0.5653
  545MOL0     H73556   5.207   6.643  10.624  0.5465  0.0188  1.3807
  545MOL0     H73557   5.832   7.096  11.030 -0.0779  1.5337 -0.5147
  545MOL0     H73558   5.985   7.296  11.061 -2.6961 -0.7132 -0.0392
  545MOL0     H73559   6.467   7.373  11.066  0.5883  0.0831  1.0173
  545MOL0     H73560   6.640   7.513  11.130  1.1713  1.6045 -0.4353
  545MOL0     H73561   7.638   8.624  10.112 -3.2727 -1.7376  2.1915
  545MOL0     H73562   7.688   8.748   9.899  0.1063  0.3117 -1.0299
  545MOL0     H73563   7.803   8.860   9.526 -1.6135 -1.0298  1.8380
  545MOL0     H73564   7.909   9.016   9.388 -1.0696 -1.8157  0.3015
  545MOL0     H73565   7.672   9.379   9.300  0.4305  1.2166  1.0035
  545MOL0     H73566   7.826   9.456   9.361  2.6185 -1.5447 -0.3257
  545MOL0     H73567   7.805   9.290   9.102  3.3205 -0.4352 -0.0407
  545MOL0     H73568   7.947   9.370   9.159  0.2053 -2.3990 -2.9360
  545MOL0     H73569   7.902   9.576   9.124 -1.8320  2.5375  1.0666
  545MOL0     H73570   7.737   9.566   9.150  1.3409  1.5759  1.8982
  545MOL0     H73571   7.813   9.630   8.918 -0.5670 -0.6012  0.2341
  545MOL0     H73572   7.704   9.493   8.920  0.1359 -1.1167 -0.3737
  545MOL0     H73573   8.043   9.322   8.727 -0.4313 -0.1877  1.9885
  545MOL0     H73574   7.601   9.307   9.503 -0.4779 -1.2125 -0.9907
  545MOL0     H73575   7.499   9.137   9.633 -0.1907 -1.0604 -1.0697
  546MOL0     O73576  10.588   2.204   0.016 -0.5250  0.2695  0.2203
  546MOL0     C73577  10.587   2.292   0.110  0.8463  0.2674  0.3982
  546MOL0     O73578  10.607   2.268   0.240 -0.7846 -0.4872  0.3171
  546MOL0     C73579  10.647   2.145   0.280  1.1434 -0.7265 -0.4591
  546MOL0     C73580  10.756   2.091   0.223 -0.9696  0.2716 -0.6194
  546MOL0     C73581  10.770   1.955   0.252 -0.5463  0.5751 -0.4078
  546MOL0     C73582  10.686   1.884   0.340 -0.6424 -0.2980  0.7105
  546MOL0     O73583  10.696   1.745   0.356  0.3409  0.0165 -0.7492
  546MOL0     C73584  10.824   1.677   0.333 -0.0310 -0.1808  0.6978
  546MOL0     C73585  10.796   1.526   0.334  0.6193 -0.6207 -0.5191
  546MOL0     C73586  10.791   1.474   0.477 -0.1483 -0.7087 -0.1285
  546MOL0     C73587  10.750   1.329   0.497  0.0770 -0.7112 -0.3600
  546MOL0     C73588  10.804   1.287   0.631 -0.2154 -0.6661 -0.7951
  546MOL0     C73589  10.766   1.142   0.654  0.3565  0.3771 -0.1024
  546MOL0     C73590  10.827   1.081   0.782 -0.2861  0.0654 -0.0975
  546MOL0     C73591  10.765   1.148   0.901 -1.6905 -1.2309  0.4301
  546MOL0     N73592  10.848   1.143   1.023  0.2903  0.5431  0.2939
  546MOL0     C73593  10.958   1.065   1.054 -0.4494  0.2709 -0.0291
  546MOL0     C73594  11.025   1.119   1.162  0.5388  1.2986  0.0077
  546MOL0     C73595  11.142   1.071   1.230 -0.0309  1.1362 -0.3453
  546MOL0     C73596  11.276   1.117   1.183 -0.1835 -1.7541  1.1561
  546MOL0     C73597  11.324   1.053   1.048 -0.5789  0.5689 -0.0036
  546MOL0     C73598  11.461   1.097   1.003  0.6374 -0.3258  0.2207
  546MOL0     O73599  11.569   1.020   1.064  0.1556 -0.3368  0.5389
  546MOL0     C73600  11.692   1.047   1.015 -0.5686  0.0312  0.3893
  546MOL0     C73601  11.782   0.954   1.060 -0.0292 -1.0141 -0.1158
  546MOL0     C73602  11.918   0.972   1.032 -0.6160 -0.4839  0.2170
  546MOL0     C73603  12.013   0.874   1.105 -0.1088  0.0072 -0.5762
  546MOL0     C73604  11.955   1.080   0.944 -0.6630  0.2174 -1.5078
  546MOL0     C73605  12.097   1.101   0.911 -0.8233 -0.0282 -0.3170
  546MOL0     O73606  12.115   1.220   0.850  0.3795 -0.8603 -0.1723
  546MOL0     C73607  12.236   1.287   0.822  0.0498  0.7898 -0.0209
  546MOL0     C73608  12.367   1.259   0.872 -0.6024 -0.8468 -0.4930
  546MOL0     C73609  12.479   1.341   0.857  0.0796  0.4160 -0.2613
  546MOL0     C73610  12.463   1.453   0.773 -0.0754 -0.7677  0.1640
  546MOL0     O73611  12.562   1.548   0.746 -0.8769 -1.0361 -0.0206
  546MOL0     C73612  12.689   1.505   0.797  0.1741 -0.1480 -0.1454
  546MOL0     C73613  12.795   1.610   0.767  0.4411  0.3372 -0.4610
  546MOL0     C73614  12.763   1.744   0.832  1.2591  0.5479 -0.1030
  546MOL0     C73615  12.898   1.797   0.877  0.5824  0.0727  0.1129
  546MOL0     C73616  12.900   1.920   0.952 -0.5171 -0.2970 -0.0915
  546MOL0     C73617  12.878   1.912   1.107 -0.6972  1.2175  0.9249
  546MOL0     C73618  12.889   2.048   1.179 -0.4400  0.6237  0.1464
  546MOL0     C73619  12.900   2.018   1.327 -1.1916  0.0798 -0.7094
  546MOL0    Cl73620  12.923   2.169   1.424 -0.0092  0.2473  0.1968
  546MOL0     C73621  12.334   1.491   0.739  0.2311  0.6110 -0.5424
  546MOL0     C73622  12.222   1.405   0.761  0.3879  0.2174 -1.2438
  546MOL0     O73623  12.186   1.020   0.923 -0.9440 -0.1037  0.2530
  546MOL0     C73624  11.859   1.165   0.892 -0.9862  0.4222 -0.5140
  546MOL0     C73625  11.725   1.154   0.931 -0.5509 -0.2479  0.5218
  546MOL0     N73626  10.960   1.244   1.176 -0.3743 -0.4675 -0.8450
  546MOL0     N73627  10.869   1.259   1.089  1.1143 -0.0566 -0.7284
  546MOL0     C73628  10.583   1.945   0.402  1.0499  0.1701  0.6151
  546MOL0     C73629  10.557   2.076   0.369 -0.7173 -0.0096 -0.8313
  546MOL0     C73630  10.550   2.432   0.075 -0.2132 -0.3753 -0.6882
  546MOL0     C73631  10.602   2.536   0.149  0.3413 -0.6393 -0.9808
  546MOL0     C73632  10.592   2.667   0.093 -0.4394 -0.0869 -0.1075
  546MOL0     C73633  10.520   2.686  -0.024  0.0539 -0.2132  0.7487
  546MOL0     O73634  10.517   2.815  -0.082 -0.2876  0.4123 -0.1034
  546MOL0     C73635  10.440   2.857  -0.198  0.5938 -0.2496 -0.4444
  546MOL0     C73636  10.532   2.847  -0.328 -0.1514 -1.1993 -0.2019
  546MOL0     C73637  10.461   2.871  -0.462 -0.1945 -0.3414 -1.1117
  546MOL0     C73638  10.530   2.821  -0.584 -0.1697 -0.8197  0.7811
  546MOL0     C73639  10.529   2.678  -0.620 -0.0815  0.4229  0.3076
  546MOL0     C73640  10.522   2.560  -0.641  0.2547  0.3964  0.2496
  546MOL0     C73641  10.444   2.576  -0.075 -0.2707  0.5435  0.0274
  546MOL0     C73642  10.459   2.454  -0.025  0.5055 -0.1078 -0.2298
  546MOL0     H73643  10.813   2.141   0.146  0.0889  0.4009  0.2337
  546MOL0     H73644  10.854   1.906   0.203  0.0784  0.4613  0.7154
  546MOL0     H73645  10.862   1.694   0.232  0.0022  2.8384  1.1204
  546MOL0     H73646  10.911   1.710   0.391  0.0558  0.8325  0.0224
  546MOL0     H73647  10.708   1.505   0.273  0.6678 -0.1881 -0.7457
  546MOL0     H73648  10.880   1.480   0.281  4.0372  4.0339  0.2250
  546MOL0     H73649  10.892   1.483   0.516  0.1094  3.8917 -1.2126
  546MOL0     H73650  10.738   1.540   0.546 -0.2300  0.2109 -1.0319
  546MOL0     H73651  10.640   1.326   0.503 -0.0549  2.4273  1.4679
  546MOL0     H73652  10.789   1.263   0.419 -0.1888 -1.5502  0.2119
  546MOL0     H73653  10.912   1.305   0.627 -0.3222 -0.0828 -4.2326
  546MOL0     H73654  10.750   1.352   0.701  0.4042 -1.0319  0.0437
  546MOL0     H73655  10.657   1.131   0.647 -0.0314  4.1552 -3.0746
  546MOL0     H73656  10.800   1.084   0.568 -1.7573 -1.4464  0.2119
  546MOL0     H73657  10.810   0.974   0.797  0.2689 -0.2187 -1.3304
  546MOL0     H73658  10.932   1.107   0.769 -0.2848  0.5558  0.8321
  546MOL0     H73659  10.668   1.099   0.914 -3.3732  2.0419  1.3204
  546MOL0     H73660  10.757   1.253   0.873 -0.9371 -1.9112 -2.7428
  546MOL0     H73661  10.985   0.969   1.010  1.6503 -0.6403  2.9630
  546MOL0     H73662  11.138   1.099   1.336  0.3410 -1.8608  0.5558
  546MOL0     H73663  11.153   0.963   1.239 -1.5721  1.0759  1.3098
  546MOL0     H73664  11.353   1.086   1.254  0.3399 -2.0005  0.4978
  546MOL0     H73665  11.270   1.225   1.167  4.0662 -1.3294  1.2165
  546MOL0     H73666  11.251   1.082   0.972 -2.3697 -0.8604  1.0938
  546MOL0     H73667  11.334   0.944   1.056  2.4456  0.5074 -2.4302
  546MOL0     H73668  11.472   1.197   1.047 -3.3076  0.0982  0.6116
  546MOL0     H73669  11.442   1.096   0.896  2.8891 -3.9135 -0.3157
  546MOL0     H73670  11.749   0.889   1.140 -1.9238  0.1460  0.1011
  546MOL0     H73671  12.084   0.913   1.177 -3.1858 -1.0326  3.4192
  546MOL0     H73672  11.956   0.813   1.176  0.8463  0.4371  0.5810
  546MOL0     H73673  12.063   0.804   1.037  3.4012 -0.0801  1.8658
  546MOL0     H73674  12.381   1.166   0.926 -0.4196 -1.0955 -0.9669
  546MOL0     H73675  12.565   1.306   0.914 -0.7247  0.3891  0.9750
  546MOL0     H73676  12.684   1.496   0.906  2.0647  0.9632  0.0689
  546MOL0     H73677  12.710   1.403   0.764 -2.2395 -2.1689  3.7255
  546MOL0     H73678  12.883   1.560   0.808 -0.2392 -0.5235 -0.0216
  546MOL0     H73679  12.812   1.627   0.660 -1.6755 -2.7523 -1.4289
  546MOL0     H73680  12.694   1.723   0.914  1.7697  0.2122  0.2494
  546MOL0     H73681  12.723   1.814   0.758 -2.0656 -1.0245  0.0355
  546MOL0     H73682  12.964   1.728   0.930  2.0105  2.0462  1.0148
  546MOL0     H73683  12.954   1.814   0.784  3.0044  0.3096  1.5342
  546MOL0     H73684  12.816   1.982   0.920  1.1822  3.0574  1.4888
  546MOL0     H73685  12.996   1.970   0.936  0.6474 -2.2803  0.3985
  546MOL0     H73686  12.784   1.859   1.127  0.1313 -0.2960  0.9683
  546MOL0     H73687  12.949   1.843   1.155 -1.4448 -3.0516 -3.3342
  546MOL0     H73688  12.807   2.112   1.146 -0.4967  0.9367  0.8673
  546MOL0     H73689  12.978   2.108   1.155  1.5464 -2.2911 -0.2927
  546MOL0     H73690  12.978   1.948   1.354  1.4632  2.5542 -1.4594
  546MOL0     H73691  12.804   1.978   1.361  0.3699 -1.0983  2.7744
  546MOL0     H73692  12.328   1.583   0.683 -1.8208  0.3862 -0.7720
  546MOL0     H73693  12.136   1.454   0.715  1.3298  2.7193 -0.5301
  546MOL0     H73694  11.892   1.252   0.836 -3.9622  1.0813 -1.4809
  546MOL0     H73695  11.660   1.225   0.881  1.8043 -0.0215 -2.5148
  546MOL0     H73696  10.520   1.883   0.465  2.6121 -0.3689  1.7249
  546MOL0     H73697  10.470   2.137   0.391 -0.7840 -0.5651  0.5205
  546MOL0     H73698  10.652   2.512   0.242 -1.7724  2.7955  1.2515
  546MOL0     H73699  10.630   2.758   0.138  1.1690 -0.9567  0.3823
  546MOL0     H73700  10.354   2.796  -0.226  2.4692 -2.7711 -1.0892
  546MOL0     H73701  10.410   2.962  -0.185 -1.7156 -0.3654 -3.7688
  546MOL0     H73702  10.578   2.747  -0.325  0.4396 -0.9130  0.8301
  546MOL0     H73703  10.598   2.934  -0.317 -3.3775  1.2762  1.2684
  546MOL0     H73704  10.436   2.977  -0.471 -0.9953 -0.5332 -1.2224
  546MOL0     H73705  10.358   2.836  -0.463 -0.4225  0.3177 -1.7582
  546MOL0     H73706  10.629   2.869  -0.584 -1.2981  1.6783 -0.0557
  546MOL0     H73707  10.471   2.878  -0.657  0.2379 -0.6797  0.5569
  546MOL0     H73708  10.523   2.458  -0.675 -1.0180  0.1847  0.7809
  546MOL0     H73709  10.378   2.581  -0.161 -0.8402 -2.9496  0.1114
  546MOL0     H73710  10.408   2.370  -0.072  0.7440 -0.8854  0.8652
  547MOL0     O73711   5.778   2.515   4.416 -0.3100  0.2270 -0.3025
  547MOL0     C73712   5.851   2.548   4.322  0.9544 -0.2953  0.0123
  547MOL0     O73713   5.808   2.625   4.215 -0.3681 -0.1046  0.6104
  547MOL0     C73714   5.675   2.630   4.190 -0.2978 -0.6777  0.4000
  547MOL0     C73715   5.603   2.546   4.105 -0.8583 -0.0429  0.3363
  547MOL0     C73716   5.462   2.546   4.105 -0.2865  0.4994  0.0506
  547MOL0     C73717   5.395   2.643   4.175  0.2517 -0.0822  0.0995
  547MOL0     O73718   5.264   2.651   4.152 -0.0527  0.1258  0.3869
  547MOL0     C73719   5.180   2.744   4.216  0.6031  0.2514  1.0525
  547MOL0     C73720   5.036   2.744   4.163  0.0933  0.8974  0.9977
  547MOL0     C73721   4.969   2.875   4.210 -0.5474 -0.0233  0.2477
  547MOL0     C73722   4.841   2.910   4.126 -0.5454 -0.5626 -1.3080
  547MOL0     C73723   4.822   3.054   4.130 -0.9179 -0.3764  0.6386
  547MOL0     C73724   4.684   3.103   4.097  0.4514  0.9043  0.3163
  547MOL0     C73725   4.646   3.054   3.952  0.7756  0.3478 -0.2666
  547MOL0     C73726   4.518   3.134   3.901 -0.8472 -0.3666  0.4899
  547MOL0     N73727   4.394   3.130   3.983  0.5814 -0.5255 -0.0274
  547MOL0     C73728   4.322   3.016   4.013  0.7743 -0.6694 -0.0610
  547MOL0     C73729   4.211   3.057   4.096  0.0156 -0.4086 -0.7505
  547MOL0     C73730   4.103   2.973   4.155 -0.7138 -0.0319 -1.2361
  547MOL0     C73731   4.160   2.938   4.295  0.1105  0.3567  0.4716
  547MOL0     C73732   4.251   2.818   4.301 -0.6865  0.1750 -0.6868
  547MOL0     C73733   4.394   2.834   4.333  0.2325  0.5887 -0.4797
  547MOL0     O73734   4.476   2.718   4.351  0.2025 -0.0127 -0.0201
  547MOL0     C73735   4.585   2.726   4.434 -0.4725 -0.1752 -0.1928
  547MOL0     C73736   4.650   2.843   4.484  0.1961 -0.6529 -0.8506
  547MOL0     C73737   4.756   2.847   4.588 -0.7654  0.4471  0.0382
  547MOL0     C73738   4.800   2.980   4.639 -0.5493  0.4827  0.1053
  547MOL0     C73739   4.796   2.722   4.637 -0.3719  0.2215  0.5828
  547MOL0     C73740   4.913   2.703   4.724 -0.0721  0.2116  0.5306
  547MOL0     O73741   5.005   2.802   4.736  0.3040 -0.0968  0.5455
  547MOL0     C73742   5.111   2.791   4.828  0.0706  0.4454  0.8243
  547MOL0     C73743   5.163   2.675   4.895  0.0871 -0.2095 -0.2215
  547MOL0     C73744   5.272   2.683   4.975 -0.6805  0.0518 -0.2424
  547MOL0     C73745   5.334   2.807   5.005  0.1256 -0.5355 -0.0322
  547MOL0     O73746   5.453   2.810   5.078 -0.0889 -0.0951  0.7795
  547MOL0     C73747   5.511   2.689   5.136 -0.2926 -0.9891  0.3062
  547MOL0     C73748   5.633   2.725   5.220 -0.0534 -0.5576 -1.1748
  547MOL0     C73749   5.597   2.809   5.344 -0.9533 -0.2396 -0.6471
  547MOL0     C73750   5.699   2.773   5.455 -0.2981 -0.1015  0.1671
  547MOL0     C73751   5.702   2.887   5.556 -0.9005  0.3881  0.0023
  547MOL0     C73752   5.805   2.884   5.669 -0.3617 -0.0719 -0.9184
  547MOL0     C73753   5.946   2.915   5.617  0.1735 -0.7545 -0.2589
  547MOL0     C73754   6.051   2.880   5.721 -1.1625 -0.2893 -0.2786
  547MOL0    Cl73755   6.029   2.718   5.780  0.0309  0.0570  0.2004
  547MOL0     C73756   5.279   2.919   4.947  0.5324 -0.4292  0.4455
  547MOL0     C73757   5.167   2.915   4.863 -0.3794 -0.1730  0.1962
  547MOL0     O73758   4.919   2.592   4.778 -0.6466 -0.4289 -0.2444
  547MOL0     C73759   4.731   2.598   4.595 -0.8757 -0.1701 -0.4017
  547MOL0     C73760   4.634   2.607   4.494  0.4151 -0.1490 -0.1013
  547MOL0     N73761   4.240   3.192   4.124  0.5292 -0.0954 -1.2096
  547MOL0     N73762   4.354   3.227   4.075 -0.1746  0.5434  0.5468
  547MOL0     C73763   5.468   2.741   4.250 -0.7245 -0.3222  0.2581
  547MOL0     C73764   5.606   2.722   4.264 -0.9244  0.3938 -0.5330
  547MOL0     C73765   5.986   2.503   4.317  0.1349  0.2177 -0.2683
  547MOL0     C73766   6.046   2.451   4.428  0.6380  0.0189 -0.1788
  547MOL0     C73767   6.170   2.390   4.428  0.4285 -0.1223  0.5303
  547MOL0     C73768   6.248   2.408   4.317  0.8109 -0.1477  0.6054
  547MOL0     O73769   6.375   2.363   4.313 -0.5243 -0.0468  1.0745
  547MOL0     C73770   6.453   2.355   4.435  1.3177 -0.0415  0.4916
  547MOL0     C73771   6.602   2.364   4.405 -0.6664  0.5410 -0.5071
  547MOL0     C73772   6.638   2.512   4.360  0.2343 -0.6145  0.4625
  547MOL0     C73773   6.772   2.531   4.306  0.0370 -1.1628 -1.0185
  547MOL0     C73774   6.863   2.563   4.416 -0.0547  0.7026 -0.9692
  547MOL0     C73775   6.952   2.570   4.503 -0.0648 -1.1848 -0.0446
  547MOL0     C73776   6.194   2.468   4.205  0.3550  0.1900 -0.1965
  547MOL0     C73777   6.059   2.511   4.199 -0.1583 -0.1538 -0.4195
  547MOL0     H73778   5.665   2.476   4.050  1.3915  1.5422  0.7286
  547MOL0     H73779   5.419   2.460   4.053  0.9714  0.5295 -1.0992
  547MOL0     H73780   5.175   2.723   4.323  1.7651  0.3782  1.1441
  547MOL0     H73781   5.211   2.848   4.202 -1.3720  0.6892 -0.4887
  547MOL0     H73782   5.049   2.748   4.055  0.7835  1.5108  1.0968
  547MOL0     H73783   4.982   2.652   4.190  0.6469  0.3001  0.1054
  547MOL0     H73784   4.950   2.873   4.317  2.6229  1.3102  0.9394
  547MOL0     H73785   5.044   2.952   4.190  1.1722 -1.8341 -0.6542
  547MOL0     H73786   4.850   2.873   4.024 -2.1919  0.5131 -1.8804
  547MOL0     H73787   4.762   2.857   4.180 -1.1022 -0.6551 -2.2054
  547MOL0     H73788   4.854   3.085   4.230 -0.9860 -3.6029  1.7779
  547MOL0     H73789   4.892   3.087   4.053 -5.0364 -0.2952 -3.5171
  547MOL0     H73790   4.607   3.073   4.169 -2.0953 -0.3470 -2.6664
  547MOL0     H73791   4.688   3.212   4.093  2.1772  0.8316 -1.5563
  547MOL0     H73792   4.730   3.068   3.884  1.8103  3.9315  1.4823
  547MOL0     H73793   4.615   2.949   3.960 -0.1260  0.0375 -4.9989
  547MOL0     H73794   4.502   3.097   3.800  1.2557 -2.3391  0.7826
  547MOL0     H73795   4.552   3.238   3.892  2.6910 -1.4165  0.2451
  547MOL0     H73796   4.349   2.920   3.969 -0.9835 -0.6731 -1.2453
  547MOL0     H73797   4.009   3.028   4.169 -0.8139 -0.7120  1.3268
  547MOL0     H73798   4.084   2.888   4.089  0.4594  1.1186 -3.1421
  547MOL0     H73799   4.077   2.912   4.362 -1.5652 -0.9746 -1.9480
  547MOL0     H73800   4.204   3.028   4.339 -3.8802  2.8720 -0.1354
  547MOL0     H73801   4.257   2.767   4.204  1.0882 -2.4244  0.6412
  547MOL0     H73802   4.213   2.747   4.376  2.6480 -0.3721  0.6431
  547MOL0     H73803   4.389   2.893   4.425 -2.9743  2.2276 -1.5350
  547MOL0     H73804   4.441   2.898   4.258 -0.3178  0.1847 -1.1879
  547MOL0     H73805   4.628   2.944   4.450  3.0833  0.0260 -0.9341
  547MOL0     H73806   4.840   2.964   4.739  0.3367  2.3384  0.0760
  547MOL0     H73807   4.877   3.023   4.574 -0.6012  2.3678  1.2330
  547MOL0     H73808   4.724   3.058   4.648  0.4903  1.5601 -0.2334
  547MOL0     H73809   5.131   2.574   4.872 -1.3004  0.7103 -2.8984
  547MOL0     H73810   5.326   2.600   5.020 -2.2346 -0.2986  1.1026
  547MOL0     H73811   5.440   2.637   5.202  0.1447  0.8825  2.3951
  547MOL0     H73812   5.539   2.624   5.053 -0.3616  1.8402 -2.1225
  547MOL0     H73813   5.667   2.627   5.256 -2.7072 -0.8080  1.0043
  547MOL0     H73814   5.719   2.766   5.167 -0.0536 -0.3467 -1.0150
  547MOL0     H73815   5.495   2.789   5.377 -1.1784  0.2330 -1.0425
  547MOL0     H73816   5.600   2.914   5.314  1.5149  0.2846  1.1378
  547MOL0     H73817   5.674   2.674   5.494 -0.3680  0.1334  0.7319
  547MOL0     H73818   5.796   2.768   5.406 -0.7122 -0.5683 -0.6390
  547MOL0     H73819   5.608   2.884   5.612  0.4499 -0.7971  2.3951
  547MOL0     H73820   5.710   2.979   5.497  2.6472  0.3413  0.2013
  547MOL0     H73821   5.782   2.966   5.738  1.8652  0.8978 -1.2360
  547MOL0     H73822   5.793   2.787   5.717 -0.0533 -0.6190 -1.9269
  547MOL0     H73823   5.955   3.021   5.595 -3.5460 -0.5733 -1.4651
  547MOL0     H73824   5.972   2.859   5.527 -2.4111 -0.9437 -0.9467
  547MOL0     H73825   6.052   2.946   5.809 -1.8963 -2.7061  1.6520
  547MOL0     H73826   6.145   2.886   5.665 -0.9431 -1.2678 -0.0340
  547MOL0     H73827   5.324   3.010   4.986  2.8411 -1.2678 -0.0842
  547MOL0     H73828   5.110   3.001   4.832  1.7870  1.6399  0.9405
  547MOL0     H73829   4.774   2.507   4.633  0.5336  1.0707  1.1279
  547MOL0     H73830   4.582   2.517   4.459  1.4808 -0.4376 -1.0221
  547MOL0     H73831   5.418   2.822   4.301 -0.3978 -0.0322  0.1163
  547MOL0     H73832   5.667   2.796   4.316 -0.0180 -1.7001  1.5829
  547MOL0     H73833   5.985   2.457   4.518 -0.0873  0.1941 -0.6747
  547MOL0     H73834   6.211   2.357   4.523 -0.0189  1.8988  1.4800
  547MOL0     H73835   6.422   2.433   4.505  0.8949  0.1228  0.1200
  547MOL0     H73836   6.425   2.258   4.476 -1.4989 -0.3463 -1.8160
  547MOL0     H73837   6.638   2.282   4.342  0.9785 -0.0624  1.1367
  547MOL0     H73838   6.642   2.338   4.503 -1.0392 -0.5446 -0.6304
  547MOL0     H73839   6.616   2.573   4.448  0.0077  0.5349 -0.3678
  547MOL0     H73840   6.569   2.535   4.279  1.1545  2.5810  0.4334
  547MOL0     H73841   6.777   2.614   4.235  0.3883 -0.6849 -0.4360
  547MOL0     H73842   6.798   2.440   4.249 -0.2233  0.7243 -4.4382
  547MOL0     H73843   7.025   2.572   4.581  0.6868  1.0148 -0.7090
  547MOL0     H73844   6.266   2.472   4.124  1.3098  0.5525  0.6489
  547MOL0     H73845   6.035   2.581   4.120  1.3136  1.0814  0.1617
  548MOL0     O73846   1.903   7.268   6.665 -0.1879 -0.0708 -0.7247
  548MOL0     C73847   2.013   7.290   6.717  0.9114  0.2609 -0.0071
  548MOL0     O73848   2.032   7.344   6.839  0.1002 -0.8993 -0.9990
  548MOL0     C73849   1.925   7.361   6.925  0.3533 -0.8235 -0.2939
  548MOL0     C73850   1.882   7.257   7.000  0.7870 -0.5526 -0.3937
  548MOL0     C73851   1.792   7.274   7.106 -0.1952 -0.5368 -0.1115
  548MOL0     C73852   1.777   7.401   7.155  0.0331 -0.2679  0.0663
  548MOL0     O73853   1.682   7.411   7.259  0.4420  0.2230 -0.4487
  548MOL0     C73854   1.693   7.533   7.330  0.7780  0.0692 -0.8055
  548MOL0     C73855   1.638   7.493   7.463 -0.8748  0.8404 -0.3158
  548MOL0     C73856   1.655   7.607   7.568 -0.5311 -0.3116 -0.1286
  548MOL0     C73857   1.793   7.666   7.607 -0.0220 -0.1004 -0.0823
  548MOL0     C73858   1.799   7.793   7.707 -0.5099  0.0391 -0.0838
  548MOL0     C73859   1.747   7.729   7.845 -0.1997  0.2233  0.4314
  548MOL0     C73860   1.740   7.834   7.959  0.0261 -0.7501  1.1061
  548MOL0     C73861   1.693   7.768   8.090 -0.7431 -0.8475  0.4764
  548MOL0     N73862   1.696   7.868   8.193  0.2764 -0.0615 -0.3884
  548MOL0     C73863   1.810   7.909   8.258  0.7732  0.4558  0.3158
  548MOL0     C73864   1.772   8.017   8.338 -0.2106 -0.2465 -0.2251
  548MOL0     C73865   1.855   8.124   8.412 -0.0470  0.0213  0.4047
  548MOL0     C73866   1.796   8.170   8.545 -0.0343 -0.5657 -0.1510
  548MOL0     C73867   1.844   8.313   8.599  0.0323  0.1723  0.6475
  548MOL0     C73868   1.745   8.367   8.707  0.0348 -0.3667  0.1863
  548MOL0     O73869   1.800   8.486   8.759 -0.3206  0.6236  0.4199
  548MOL0     C73870   1.793   8.481   8.887  0.5463  0.9517 -0.5059
  548MOL0     C73871   1.675   8.514   8.955  0.1493  0.9096  0.2118
  548MOL0     C73872   1.656   8.510   9.087  0.2782 -0.1717  0.6612
  548MOL0     C73873   1.547   8.601   9.154 -0.0463 -0.5211  0.5066
  548MOL0     C73874   1.751   8.433   9.172 -1.0088  0.6039  1.0512
  548MOL0     C73875   1.729   8.404   9.316 -0.9720 -0.7699 -0.6314
  548MOL0     O73876   1.815   8.317   9.375 -0.0680  0.1172 -0.3788
  548MOL0     C73877   1.811   8.279   9.508 -0.2458 -1.0729 -0.2312
  548MOL0     C73878   1.737   8.328   9.611 -0.6557  0.3036  0.2942
  548MOL0     C73879   1.755   8.289   9.742  0.8978 -0.5684  0.4662
  548MOL0     C73880   1.848   8.191   9.790 -0.1568 -0.0405  0.0748
  548MOL0     O73881   1.871   8.162   9.925  0.7478  0.3540 -0.4004
  548MOL0     C73882   2.003   8.140   9.958 -0.6045 -0.2720 -0.1688
  548MOL0     C73883   2.034   8.151  10.113  0.4192 -0.0137  0.4096
  548MOL0     C73884   1.948   8.055  10.192  0.9944 -0.3060 -0.1477
  548MOL0     C73885   1.939   8.096  10.341  0.2211  0.1809 -0.5943
  548MOL0     C73886   1.881   7.973  10.419  0.8751 -0.1982  1.0569
  548MOL0     C73887   1.856   8.010  10.569 -0.3977  0.8356  0.4947
  548MOL0     C73888   1.780   7.899  10.642 -1.4157 -0.0237  0.4278
  548MOL0     C73889   1.709   7.950  10.765  1.4047  0.1463  0.0344
  548MOL0    Cl73890   1.613   7.806  10.827  0.3339 -0.0528 -0.1339
  548MOL0     C73891   1.919   8.136   9.679  0.6584  0.5218  0.4861
  548MOL0     C73892   1.909   8.184   9.543 -0.4370  0.0088 -0.7725
  548MOL0     O73893   1.634   8.457   9.374  0.4425  0.0589 -0.1707
  548MOL0     C73894   1.862   8.387   9.101 -0.9339 -0.0823  0.4967
  548MOL0     C73895   1.882   8.406   8.964 -0.5756 -0.5899  0.2673
  548MOL0     N73896   1.640   8.029   8.327 -0.4533 -0.3597 -0.0466
  548MOL0     N73897   1.596   7.934   8.250  0.0959 -0.8933 -0.0133
  548MOL0     C73898   1.818   7.513   7.073 -1.2630  0.1903 -0.1617
  548MOL0     C73899   1.899   7.493   6.957  0.5172  0.2389 -0.6449
  548MOL0     C73900   2.133   7.259   6.638 -0.6233  0.0090  0.6254
  548MOL0     C73901   2.244   7.350   6.642 -0.9303 -0.4128 -0.7747
  548MOL0     C73902   2.353   7.342   6.558 -0.0669 -0.5777  0.4625
  548MOL0     C73903   2.354   7.241   6.463  0.1139  0.0173  0.5326
  548MOL0     O73904   2.468   7.223   6.391  0.5372 -0.5130  0.4415
  548MOL0     C73905   2.453   7.239   6.259 -1.4175  0.6547  0.6510
  548MOL0     C73906   2.497   7.127   6.176 -1.1778  0.3705  0.3007
  548MOL0     C73907   2.461   7.156   6.029  0.0931 -0.2588  0.2766
  548MOL0     C73908   2.436   7.030   5.947 -1.1469  0.1298  0.2275
  548MOL0     C73909   2.391   7.084   5.818  0.0985 -0.3891  0.5845
  548MOL0     C73910   2.343   7.114   5.708  0.0621  0.2369  0.4158
  548MOL0     C73911   2.251   7.138   6.460 -0.8176 -0.4157 -0.2103
  548MOL0     C73912   2.146   7.149   6.548  0.8237  0.5949 -0.2057
  548MOL0     H73913   1.906   7.155   6.972 -0.0258 -0.8823  0.0650
  548MOL0     H73914   1.765   7.181   7.156 -3.1680  1.2129  1.8815
  548MOL0     H73915   1.794   7.575   7.327 -0.3992  3.2260 -0.0099
  548MOL0     H73916   1.630   7.614   7.292 -2.4899 -1.2355  1.3892
  548MOL0     H73917   1.537   7.455   7.444 -0.7537  0.4667 -0.2154
  548MOL0     H73918   1.692   7.407   7.503 -2.3225  0.0382 -0.0432
  548MOL0     H73919   1.600   7.697   7.538  0.1076  0.2286  0.2967
  548MOL0     H73920   1.595   7.570   7.651 -2.1978  0.6532 -0.8655
  548MOL0     H73921   1.870   7.595   7.641  0.2423 -0.1296 -0.7218
  548MOL0     H73922   1.841   7.698   7.514 -0.2422  1.8864  0.4590
  548MOL0     H73923   1.901   7.829   7.722 -1.3207  1.7395  1.8405
  548MOL0     H73924   1.729   7.867   7.668 -2.9984 -1.2583  1.6036
  548MOL0     H73925   1.645   7.693   7.827 -0.1601  0.6476 -0.7634
  548MOL0     H73926   1.803   7.640   7.874 -1.6892 -1.1180 -0.6121
  548MOL0     H73927   1.836   7.886   7.971 -2.1584  3.8080  1.0152
  548MOL0     H73928   1.669   7.908   7.920  0.3581 -0.5188  0.9309
  548MOL0     H73929   1.775   7.697   8.109  1.3281  1.2799 -0.0072
  548MOL0     H73930   1.604   7.704   8.088  0.5960 -2.8078  0.8430
  548MOL0     H73931   1.909   7.866   8.244 -0.8631 -3.8955  0.7805
  548MOL0     H73932   1.948   8.074   8.440  1.5720  1.1919 -2.4814
  548MOL0     H73933   1.856   8.213   8.349  1.1816  1.4255  2.2965
  548MOL0     H73934   1.805   8.088   8.617 -0.6945 -0.0480  0.5461
  548MOL0     H73935   1.688   8.165   8.531 -0.0335  0.7335 -0.7463
  548MOL0     H73936   1.853   8.384   8.517 -1.9352 -0.6269 -0.3167
  548MOL0     H73937   1.942   8.297   8.645 -0.7702 -0.7276  2.1270
  548MOL0     H73938   1.714   8.295   8.783  1.7127 -1.7329 -0.3475
  548MOL0     H73939   1.651   8.387   8.654  0.5139 -0.4342 -0.7129
  548MOL0     H73940   1.616   8.571   8.884  2.7918  0.9270 -2.1389
  548MOL0     H73941   1.516   8.671   9.075 -0.7954 -0.2380  1.0459
  548MOL0     H73942   1.460   8.546   9.189 -0.9713  0.4606 -0.1758
  548MOL0     H73943   1.581   8.661   9.239 -0.9734 -2.0330  1.9747
  548MOL0     H73944   1.683   8.421   9.591  2.3357  2.0829 -0.1524
  548MOL0     H73945   1.693   8.338   9.816 -1.4912  0.6173 -2.1735
  548MOL0     H73946   2.036   8.040   9.928 -1.9987 -0.3260 -1.6119
  548MOL0     H73947   2.067   8.217   9.916  0.5560 -0.6694  0.8076
  548MOL0     H73948   2.139   8.126  10.133  0.2507 -2.4363 -1.2689
  548MOL0     H73949   2.009   8.253  10.142 -1.2651 -0.9044  2.3233
  548MOL0     H73950   1.985   7.953  10.174  0.3817 -0.7755  1.0920
  548MOL0     H73951   1.848   8.056  10.147  1.0796 -0.4984 -0.3423
  548MOL0     H73952   2.038   8.102  10.387 -0.9059  3.2175  1.7734
  548MOL0     H73953   1.875   8.182  10.360  0.9625  1.0854 -1.9614
  548MOL0     H73954   1.959   7.897  10.412  1.8531  0.8432  0.2517
  548MOL0     H73955   1.788   7.929  10.382  1.9074 -0.9998 -0.7485
  548MOL0     H73956   1.948   8.056  10.607 -0.7219  1.6168  0.3670
  548MOL0     H73957   1.794   8.100  10.578  0.8165  1.5275  2.7576
  548MOL0     H73958   1.849   7.823  10.680 -0.2577 -0.8683 -2.9199
  548MOL0     H73959   1.713   7.857  10.567 -0.9015  3.9612 -2.6602
  548MOL0     H73960   1.638   8.031  10.742 -1.1316 -2.0835 -0.5107
  548MOL0     H73961   1.789   7.988  10.830  0.6416  2.1722 -0.1199
  548MOL0     H73962   1.999   8.067   9.701  0.1494 -0.0034  0.7402
  548MOL0     H73963   1.969   8.143   9.462  0.2202 -0.8230  0.1104
  548MOL0     H73964   1.938   8.326   9.150  0.1154 -1.2036 -2.2736
  548MOL0     H73965   1.970   8.360   8.920  0.8146  0.3099  1.9556
  548MOL0     H73966   1.782   7.610   7.106 -0.0545  1.4302 -2.2386
  548MOL0     H73967   1.926   7.585   6.905  2.3666  1.1794  1.7658
  548MOL0     H73968   2.257   7.427   6.717  0.2470  0.7914 -2.1366
  548MOL0     H73969   2.442   7.402   6.576 -0.2604  0.1674 -0.8540
  548MOL0     H73970   2.348   7.261   6.238 -1.4559  0.3635  0.5434
  548MOL0     H73971   2.502   7.332   6.227 -2.6467  1.5799  1.3823
  548MOL0     H73972   2.450   7.032   6.204 -2.4607  1.5132  2.2241
  548MOL0     H73973   2.606   7.117   6.186 -1.3573 -0.1993  2.2601
  548MOL0     H73974   2.545   7.205   5.978  1.5192 -2.4167  0.4205
  548MOL0     H73975   2.371   7.219   6.034 -0.7369 -1.3548 -0.3806
  548MOL0     H73976   2.351   6.970   5.981 -1.3630  0.3237  0.0357
  548MOL0     H73977   2.525   6.969   5.932 -3.0694 -2.7241 -0.5065
  548MOL0     H73978   2.291   7.144   5.619 -1.7427  2.6531  2.1476
  548MOL0     H73979   2.253   7.051   6.395  0.5431 -1.3060  0.9645
  548MOL0     H73980   2.060   7.085   6.528  2.2715 -1.1310 -1.1162
  549MOL0     O73981   3.583   4.376   1.153  0.4198  0.8437  0.2634
  549MOL0     C73982   3.682   4.360   1.226  0.1157 -0.7051 -0.2313
  549MOL0     O73983   3.713   4.431   1.338  0.0591 -0.1203  1.1276
  549MOL0     C73984   3.633   4.531   1.370  0.4348  0.0896 -0.0777
  549MOL0     C73985   3.496   4.516   1.401 -0.5028 -0.0254 -0.6436
  549MOL0     C73986   3.415   4.609   1.448  0.4304 -0.3280 -1.0007
  549MOL0     C73987   3.470   4.735   1.474 -0.4103 -0.5090  0.1433
  549MOL0     O73988   3.405   4.835   1.536  0.0251  0.5214 -0.2513
  549MOL0     C73989   3.342   4.792   1.658  0.2357  0.0724  0.7562
  549MOL0     C73990   3.279   4.920   1.727 -0.4245 -0.4751  0.5664
  549MOL0     C73991   3.170   4.987   1.640 -0.0452  0.2789 -0.2163
  549MOL0     C73992   3.134   5.127   1.700 -0.0792  1.3219 -0.2114
  549MOL0     C73993   3.029   5.214   1.619  0.9039  0.3742 -0.8538
  549MOL0     C73994   2.907   5.146   1.564  0.6297 -0.2568 -0.4172
  549MOL0     C73995   2.835   5.237   1.460 -0.2695  0.5016 -0.6642
  549MOL0     C73996   2.910   5.277   1.333 -0.7886  0.1488 -0.2111
  549MOL0     N73997   2.945   5.161   1.249  0.1616 -0.6299  0.3423
  549MOL0     C73998   3.062   5.091   1.268 -0.7265 -0.0390 -1.0331
  549MOL0     C73999   3.078   5.020   1.154 -0.0483  0.1178  0.3072
  549MOL0     C74000   3.186   4.915   1.143 -0.1992  0.3908  0.5405
  549MOL0     C74001   3.298   4.976   1.046  0.4635  0.2189  0.6081
  549MOL0     C74002   3.426   4.901   1.037 -0.2867  0.3924  0.5066
  549MOL0     C74003   3.413   4.750   1.049 -0.4465  0.1512 -0.2807
  549MOL0     O74004   3.326   4.697   0.941 -0.3103 -0.0995 -0.0394
  549MOL0     C74005   3.340   4.566   0.898 -0.2596 -0.5145 -0.0754
  549MOL0     C74006   3.301   4.471   0.982  0.2294 -0.2294 -0.0900
  549MOL0     C74007   3.311   4.341   0.947  0.1553  0.2242 -0.0533
  549MOL0     C74008   3.286   4.247   1.063  0.5590  0.2134  0.3436
  549MOL0     C74009   3.365   4.296   0.820 -0.3104  0.2582  0.1894
  549MOL0     C74010   3.372   4.156   0.789  0.7879 -0.4132  0.1926
  549MOL0     O74011   3.422   4.065   0.872 -0.3203  0.1272 -0.5708
  549MOL0     C74012   3.427   3.931   0.841  0.6921  0.6859  0.8829
  549MOL0     C74013   3.402   3.845   0.946 -0.7537  0.3317  0.1091
  549MOL0     C74014   3.393   3.702   0.933 -0.0176 -1.0788  0.6900
  549MOL0     C74015   3.419   3.650   0.807  0.4777 -0.4055 -0.2971
  549MOL0     O74016   3.438   3.511   0.783  0.8549 -0.2430  0.0468
  549MOL0     C74017   3.401   3.418   0.893 -0.1237 -0.3937 -0.6649
  549MOL0     C74018   3.398   3.284   0.833  0.1446 -0.8239 -0.8672
  549MOL0     C74019   3.524   3.247   0.745 -0.7202 -0.0610 -0.4700
  549MOL0     C74020   3.644   3.230   0.827  0.2980  0.2516 -0.5875
  549MOL0     C74021   3.766   3.164   0.769  0.4039  0.8501 -1.0592
  549MOL0     C74022   3.887   3.165   0.866  0.0934 -0.2258 -0.8610
  549MOL0     C74023   4.014   3.113   0.799 -0.0744  0.1074  0.1408
  549MOL0     C74024   4.124   3.107   0.901  0.0951 -0.3454 -0.0176
  549MOL0    Cl74025   4.173   3.278   0.926 -0.3297  0.5165 -0.0747
  549MOL0     C74026   3.442   3.736   0.696 -0.7275  1.0339 -0.3347
  549MOL0     C74027   3.443   3.876   0.719  0.2931 -0.3191 -0.7870
  549MOL0     O74028   3.315   4.128   0.684  0.0943  0.1040 -0.5937
  549MOL0     C74029   3.388   4.399   0.728 -0.6032 -0.6829  0.2302
  549MOL0     C74030   3.388   4.535   0.770  0.0300 -0.1043  0.5148
  549MOL0     N74031   2.980   5.050   1.064  0.5639 -0.5812 -0.1563
  549MOL0     N74032   2.900   5.141   1.120 -0.8062  0.0559  0.8961
  549MOL0     C74033   3.608   4.757   1.452 -0.5254 -0.1178  0.1619
  549MOL0     C74034   3.693   4.663   1.393 -0.0898  0.5913  0.0168
  549MOL0     C74035   3.773   4.249   1.200  0.2905  0.0300 -0.6915
  549MOL0     C74036   3.749   4.165   1.084 -0.6441 -0.3069  0.0672
  549MOL0     C74037   3.837   4.058   1.048 -0.4591  0.8781 -0.3707
  549MOL0     C74038   3.950   4.029   1.130  0.0348  0.0468  0.6566
  549MOL0     O74039   4.047   3.936   1.105 -1.1814 -0.4629 -0.1597
  549MOL0     C74040   4.065   3.889   0.967  0.3234 -1.4672 -0.0334
  549MOL0     C74041   4.044   3.737   0.968  0.1694  0.7665 -0.7477
  549MOL0     C74042   3.910   3.695   1.037  0.1730 -0.2448 -0.2783
  549MOL0     C74043   3.902   3.538   1.042  0.2003 -0.6688 -0.2246
  549MOL0     C74044   3.791   3.487   1.118  0.6609  0.5550 -0.4277
  549MOL0     C74045   3.687   3.466   1.175 -0.0835  0.3823  0.4874
  549MOL0     C74046   3.977   4.110   1.244 -0.3580  0.2992  0.0192
  549MOL0     C74047   3.887   4.214   1.281  0.6644 -0.3821 -0.1855
  549MOL0     H74048   3.462   4.415   1.377 -2.2193  1.1287 -3.6931
  549MOL0     H74049   3.309   4.592   1.461  0.5657 -0.4476  0.0519
  549MOL0     H74050   3.269   4.711   1.647  0.3750  0.0069  0.3158
  549MOL0     H74051   3.418   4.756   1.727 -1.8177 -5.2739  0.7282
  549MOL0     H74052   3.242   4.891   1.826  0.0874 -1.1936  0.5621
  549MOL0     H74053   3.359   4.989   1.755 -3.0578  1.7333  3.2992
  549MOL0     H74054   3.209   4.999   1.538  1.0696 -1.1334  0.0195
  549MOL0     H74055   3.084   4.921   1.635 -0.6245  0.8448  1.4732
  549MOL0     H74056   3.092   5.119   1.801 -0.5312  2.3507 -0.3006
  549MOL0     H74057   3.223   5.184   1.728 -1.3822  3.1999  0.3044
  549MOL0     H74058   2.999   5.298   1.682  1.4438  0.7276 -1.0582
  549MOL0     H74059   3.087   5.264   1.541 -0.7123  0.8481 -1.7968
  549MOL0     H74060   2.931   5.048   1.521  0.0508 -0.9963  0.8936
  549MOL0     H74061   2.840   5.124   1.647  1.4888  0.0601  0.3744
  549MOL0     H74062   2.741   5.185   1.434 -0.9155  1.2258  0.1781
  549MOL0     H74063   2.804   5.328   1.512 -4.0096 -0.1948 -1.3242
  549MOL0     H74064   2.992   5.349   1.348  0.1310 -0.2644 -2.8554
  549MOL0     H74065   2.840   5.341   1.279  0.6150  2.5144  0.5892
  549MOL0     H74066   3.119   5.092   1.361 -5.0505  0.5665  1.9492
  549MOL0     H74067   3.238   4.883   1.234  0.1483  1.5642  0.7832
  549MOL0     H74068   3.142   4.825   1.099  2.3289 -1.5845  1.7804
  549MOL0     H74069   3.330   5.073   1.085  0.4447  0.4314  0.1063
  549MOL0     H74070   3.256   4.980   0.945  0.5383  2.7942  0.6208
  549MOL0     H74071   3.489   4.927   1.122  2.1321 -4.8088  0.7133
  549MOL0     H74072   3.467   4.923   0.938 -0.6044 -0.0493  0.2750
  549MOL0     H74073   3.378   4.714   1.146 -0.7077  1.9090  0.3069
  549MOL0     H74074   3.518   4.718   1.046 -0.8310 -1.3704  1.2897
  549MOL0     H74075   3.267   4.496   1.082 -0.5279 -3.1155  0.4638
  549MOL0     H74076   3.197   4.187   1.041 -0.1681  1.4448 -0.1884
  549MOL0     H74077   3.374   4.185   1.084 -0.1015 -1.7263 -2.1802
  549MOL0     H74078   3.262   4.295   1.159 -3.5060  0.3518 -0.5576
  549MOL0     H74079   3.395   3.886   1.047  0.6023  0.1557  0.3005
  549MOL0     H74080   3.365   3.639   1.016  0.8279 -0.6755  1.2891
  549MOL0     H74081   3.482   3.416   0.966  0.9424  2.7797 -1.5861
  549MOL0     H74082   3.305   3.444   0.940  1.0956 -0.7029  2.1491
  549MOL0     H74083   3.379   3.211   0.913 -2.9348  1.1207  0.3345
  549MOL0     H74084   3.315   3.279   0.763  0.3835 -0.6082 -1.1691
  549MOL0     H74085   3.547   3.320   0.667  1.6593  0.0258  0.2013
  549MOL0     H74086   3.501   3.157   0.687 -0.9537 -2.4126  2.9801
  549MOL0     H74087   3.677   3.324   0.871  1.4468  0.8673 -2.5952
  549MOL0     H74088   3.624   3.169   0.915  2.9992  0.8993  0.5718
  549MOL0     H74089   3.804   3.221   0.684  1.6252 -0.5391 -1.4991
  549MOL0     H74090   3.758   3.057   0.745 -1.2663  0.9706 -1.1472
  549MOL0     H74091   3.901   3.270   0.895  1.1424 -1.6584  5.0496
  549MOL0     H74092   3.870   3.114   0.961  2.0499  1.6397  0.6010
  549MOL0     H74093   4.036   3.169   0.708 -0.2535 -4.1458 -2.8656
  549MOL0     H74094   3.994   3.011   0.763 -0.3773  0.2964 -0.2353
  549MOL0     H74095   4.198   3.037   0.861 -0.4917 -0.3120 -1.2039
  549MOL0     H74096   4.099   3.077   1.004 -0.5946  4.0043  1.2995
  549MOL0     H74097   3.455   3.685   0.600  2.2798 -1.5654  1.2657
  549MOL0     H74098   3.461   3.941   0.633  1.4967  0.2265 -0.1489
  549MOL0     H74099   3.426   4.382   0.628 -2.0768 -0.8505 -0.3230
  549MOL0     H74100   3.416   4.613   0.700  0.3131 -2.1292 -1.7187
  549MOL0     H74101   3.656   4.852   1.474  1.3611 -0.6079 -1.5543
  549MOL0     H74102   3.794   4.699   1.377  0.6406 -1.5552 -0.4717
  549MOL0     H74103   3.656   4.177   1.029 -0.2130  0.8574 -0.4398
  549MOL0     H74104   3.814   3.996   0.962  2.5015 -0.1848 -0.5017
  549MOL0     H74105   4.000   3.947   0.901 -0.9998  0.6208  2.9039
  549MOL0     H74106   4.168   3.901   0.931  0.4366 -2.5999 -0.1490
  549MOL0     H74107   4.129   3.683   1.010  0.0390  2.2029  1.5424
  549MOL0     H74108   4.053   3.705   0.864  1.3971  1.1189 -0.7628
  549MOL0     H74109   3.836   3.736   0.968 -0.7599  2.3951  2.0944
  549MOL0     H74110   3.894   3.744   1.133 -0.8923  1.7791 -1.4255
  549MOL0     H74111   3.996   3.499   1.082 -0.3624 -2.2007 -0.3569
  549MOL0     H74112   3.889   3.517   0.935 -1.4014  2.2994 -0.7427
  549MOL0     H74113   3.602   3.450   1.238 -0.0780 -2.8516 -0.1465
  549MOL0     H74114   4.072   4.111   1.297  0.6960 -0.3748 -1.7785
  549MOL0     H74115   3.903   4.270   1.373 -2.8170  2.1473 -0.8975
  550MOL0     O74116   8.483   2.980   9.597  0.3509 -0.3392  0.3816
  550MOL0     C74117   8.570   2.907   9.552  0.2688  0.0874 -0.4638
  550MOL0     O74118   8.616   2.790   9.613 -0.4021  0.2794 -0.3951
  550MOL0     C74119   8.578   2.769   9.744  0.8845  0.9995 -0.2537
  550MOL0     C74120   8.576   2.871   9.841 -1.2073  0.0832  0.2073
  550MOL0     C74121   8.538   2.836   9.971 -1.3876 -0.1220 -0.2992
  550MOL0     C74122   8.484   2.709   9.995 -0.4665  0.3478 -0.7848
  550MOL0     O74123   8.427   2.667  10.116 -0.8329 -0.4605  0.3822
  550MOL0     C74124   8.374   2.764  10.207 -0.9915 -0.4492  0.1764
  550MOL0     C74125   8.288   2.712  10.324 -0.5185 -0.1465  0.2728
  550MOL0     C74126   8.145   2.668  10.281  0.0269 -1.0156  0.1223
  550MOL0     C74127   8.161   2.533  10.217  0.3296  0.8319  0.1283
  550MOL0     C74128   8.026   2.484  10.185  0.1627 -0.1554 -0.0193
  550MOL0     C74129   7.999   2.368  10.081 -0.0057 -0.4124 -1.5793
  550MOL0     C74130   8.074   2.388   9.952 -0.2356 -0.1797 -0.8034
  550MOL0     C74131   7.995   2.407   9.827 -0.3356 -0.7242 -0.9213
  550MOL0     N74132   8.073   2.392   9.701  0.5762 -0.9177 -0.2908
  550MOL0     C74133   8.028   2.333   9.587 -0.5145  0.5184 -0.4355
  550MOL0     C74134   8.123   2.367   9.499  0.6923 -0.5968 -0.0839
  550MOL0     C74135   8.121   2.323   9.355 -1.5258 -0.1408 -0.5970
  550MOL0     C74136   8.155   2.179   9.324 -0.4001 -0.1930 -0.9301
  550MOL0     C74137   8.140   2.164   9.173 -0.0848 -0.7623 -0.1981
  550MOL0     C74138   8.173   2.023   9.126 -0.2273  0.3618 -0.3800
  550MOL0     O74139   8.072   1.925   9.182 -0.2091  0.2830 -0.3600
  550MOL0     C74140   7.947   1.902   9.124 -0.1148 -1.3204 -0.7123
  550MOL0     C74141   7.852   1.819   9.179 -0.3788  0.2075 -0.3293
  550MOL0     C74142   7.728   1.789   9.123  0.9314 -0.3224 -0.0193
  550MOL0     C74143   7.638   1.690   9.195  0.2671  0.2746 -0.2445
  550MOL0     C74144   7.693   1.854   9.004  0.5147  1.0673  0.2087
  550MOL0     C74145   7.584   1.808   8.920  1.3334 -0.0208 -0.7758
  550MOL0     O74146   7.513   1.907   8.845  0.0214  0.2077  0.6576
  550MOL0     C74147   7.408   1.863   8.766 -0.5318 -0.1069  0.2712
  550MOL0     C74148   7.423   1.756   8.681 -0.5119  0.2716 -0.6897
  550MOL0     C74149   7.314   1.698   8.615 -0.4406 -0.2809 -0.6350
  550MOL0     C74150   7.190   1.752   8.616  0.8827 -1.3519  0.1375
  550MOL0     O74151   7.080   1.694   8.556 -0.6391  0.8810 -0.2389
  550MOL0     C74152   7.063   1.550   8.577 -0.2671  0.0014 -1.4160
  550MOL0     C74153   7.056   1.484   8.434  0.3427 -0.3414  0.4338
  550MOL0     C74154   6.921   1.514   8.363  0.2461 -0.2631  0.1771
  550MOL0     C74155   6.908   1.447   8.228 -0.0230  0.0410  0.2891
  550MOL0     C74156   6.767   1.441   8.178  0.4307 -0.1366  0.3967
  550MOL0     C74157   6.755   1.356   8.054 -0.2384 -0.3058  0.8449
  550MOL0     C74158   6.612   1.335   8.010  0.4666  0.2304 -0.2034
  550MOL0     C74159   6.538   1.226   8.092 -0.6287  0.0133  1.2193
  550MOL0    Cl74160   6.585   1.055   8.085  0.0673 -0.0796  0.7032
  550MOL0     C74161   7.185   1.874   8.691  0.5860  0.5468 -0.1399
  550MOL0     C74162   7.287   1.924   8.768 -1.1963  1.1217  0.2087
  550MOL0     O74163   7.577   1.687   8.910 -0.5202 -0.1460 -0.3331
  550MOL0     C74164   7.779   1.955   8.958  0.0901 -0.3581 -0.1737
  550MOL0     C74165   7.903   1.979   9.007 -0.0677  1.1959  0.2381
  550MOL0     N74166   8.226   2.437   9.563  0.7541  0.8000 -0.0338
  550MOL0     N74167   8.195   2.455   9.687  0.7619  0.0048  0.1182
  550MOL0     C74168   8.493   2.610   9.905  0.6558 -0.0903 -0.5287
  550MOL0     C74169   8.536   2.632   9.778  0.7234  0.6745 -0.2129
  550MOL0     C74170   8.625   2.962   9.423 -0.5496 -1.1030 -0.0626
  550MOL0     C74171   8.708   2.883   9.351 -1.4034  0.3672  0.9450
  550MOL0     C74172   8.756   2.919   9.225 -0.3609  0.9340  0.5767
  550MOL0     C74173   8.725   3.039   9.164  0.4879  0.6695 -0.4973
  550MOL0     O74174   8.752   3.078   9.031  0.4351  0.4682  0.3975
  550MOL0     C74175   8.863   3.014   8.955  0.2052 -0.6777 -0.2659
  550MOL0     C74176   8.848   3.028   8.801 -0.2250 -0.2292 -1.0565
  550MOL0     C74177   8.754   2.927   8.725  0.7829 -0.5228  0.4045
  550MOL0     C74178   8.610   2.962   8.705  1.3960  0.3522 -0.5869
  550MOL0     C74179   8.565   2.835   8.639 -0.8630  0.3586 -0.8353
  550MOL0     C74180   8.526   2.730   8.576  0.2947  0.3054  0.0990
  550MOL0     C74181   8.649   3.132   9.240  0.6212 -0.0244 -0.1620
  550MOL0     C74182   8.596   3.090   9.365 -0.2632 -0.1976  0.1132
  550MOL0     H74183   8.602   2.972   9.811 -0.9991 -0.7093 -2.5568
  550MOL0     H74184   8.541   2.918  10.042  0.4760  1.1891 -1.7709
  550MOL0     H74185   8.457   2.817  10.255  0.4401 -1.0117 -1.5423
  550MOL0     H74186   8.316   2.838  10.151  0.0150  0.1223 -0.1432
  550MOL0     H74187   8.345   2.637  10.380  0.5531 -0.2272 -0.8787
  550MOL0     H74188   8.280   2.800  10.389 -0.6897  1.3301 -1.6649
  550MOL0     H74189   8.090   2.648  10.373  1.4948  0.9177  1.5208
  550MOL0     H74190   8.108   2.747  10.214  0.3465 -0.2198  0.8653
  550MOL0     H74191   8.207   2.547  10.119 -5.4878  3.3035 -2.6577
  550MOL0     H74192   8.219   2.463  10.279 -0.0906  1.3824  1.1608
  550MOL0     H74193   7.981   2.460  10.281  0.8781  1.6046  0.7918
  550MOL0     H74194   7.961   2.565  10.148 -0.2909  0.9286  2.9295
  550MOL0     H74195   8.035   2.277  10.129 -1.6199 -0.5206 -0.5197
  550MOL0     H74196   7.893   2.347  10.064 -0.1725  0.1871 -1.3130
  550MOL0     H74197   8.128   2.484   9.953 -3.5878  1.8563  0.8750
  550MOL0     H74198   8.140   2.302   9.936  0.2506  0.3427 -1.7500
  550MOL0     H74199   7.954   2.507   9.848 -0.0411 -1.2321  2.7707
  550MOL0     H74200   7.900   2.354   9.821 -1.1935  0.7266 -0.6376
  550MOL0     H74201   7.929   2.292   9.573 -2.2884  4.6540 -1.7144
  550MOL0     H74202   8.029   2.364   9.313 -1.4131  0.8881  0.1097
  550MOL0     H74203   8.205   2.383   9.319 -1.0928 -0.5484 -0.2774
  550MOL0     H74204   8.076   2.114   9.364 -0.1466 -0.5215 -0.9628
  550MOL0     H74205   8.250   2.146   9.366 -2.1096 -2.0328  1.7308
  550MOL0     H74206   8.202   2.237   9.120 -1.3864 -0.7106 -1.7311
  550MOL0     H74207   8.036   2.189   9.150  0.0482  2.1644  1.8256
  550MOL0     H74208   8.269   2.001   9.173 -0.7503 -0.7836  0.2083
  550MOL0     H74209   8.184   2.006   9.019  1.9682  0.0435 -0.1390
  550MOL0     H74210   7.882   1.763   9.267 -1.5086  0.4946  0.2557
  550MOL0     H74211   7.537   1.729   9.205 -0.6069 -2.2370  2.0015
  550MOL0     H74212   7.637   1.586   9.160  0.1570 -1.7077  4.7823
  550MOL0     H74213   7.678   1.675   9.296  0.0698 -3.0879 -0.5640
  550MOL0     H74214   7.514   1.699   8.663 -0.8109  0.0672 -1.6524
  550MOL0     H74215   7.325   1.608   8.557  1.9140 -0.1877 -0.4262
  550MOL0     H74216   7.135   1.504   8.645 -1.2742 -3.5000 -2.4586
  550MOL0     H74217   6.966   1.539   8.627  0.0375  1.3578 -0.4727
  550MOL0     H74218   7.145   1.520   8.382 -0.8455  0.8247 -0.8804
  550MOL0     H74219   7.064   1.375   8.440 -0.1162 -1.1949 -6.3890
  550MOL0     H74220   6.923   1.623   8.358  0.5546 -0.1270  2.3019
  550MOL0     H74221   6.841   1.482   8.430  1.3678 -1.2468  1.1033
  550MOL0     H74222   6.958   1.514   8.157 -0.0583  0.2525  0.4644
  550MOL0     H74223   6.953   1.348   8.230  2.5804  1.1721  1.4334
  550MOL0     H74224   6.715   1.535   8.160 -2.8892 -1.3559  2.5419
  550MOL0     H74225   6.703   1.396   8.254 -0.3732 -2.3646 -1.4849
  550MOL0     H74226   6.817   1.388   7.970 -0.6491 -2.1445 -0.2074
  550MOL0     H74227   6.797   1.257   8.073  0.3031 -0.1451  0.5007
  550MOL0     H74228   6.616   1.307   7.905  4.4857 -0.8016  0.0955
  550MOL0     H74229   6.554   1.428   8.022  1.6674  0.9719 -0.0350
  550MOL0     H74230   6.430   1.231   8.074 -0.4921  0.4592  0.4818
  550MOL0     H74231   6.552   1.241   8.199 -0.2785 -0.5007  1.2515
  550MOL0     H74232   7.091   1.926   8.677 -0.1575 -1.1368 -1.9933
  550MOL0     H74233   7.267   2.002   8.841 -0.9490 -0.1366  1.6759
  550MOL0     H74234   7.757   2.003   8.863  0.4417 -1.6022 -0.9073
  550MOL0     H74235   7.965   2.048   8.951 -0.5526  2.7309  1.5005
  550MOL0     H74236   8.447   2.515   9.928 -2.3309  1.6964  1.7086
  550MOL0     H74237   8.535   2.544   9.715  0.2325  0.3120  0.2989
  550MOL0     H74238   8.731   2.778   9.371 -0.4984  0.4905  0.6056
  550MOL0     H74239   8.798   2.842   9.162  1.1893  2.0615  0.1751
  550MOL0     H74240   8.956   3.070   8.970  0.1455 -0.5409 -0.3989
  550MOL0     H74241   8.880   2.913   8.994  0.6328 -0.2626  0.6397
  550MOL0     H74242   8.944   3.007   8.754  0.1805  2.2829 -1.4976
  550MOL0     H74243   8.825   3.131   8.773 -0.1847 -0.1674 -0.8650
  550MOL0     H74244   8.747   2.833   8.780 -0.3730 -0.9705 -0.4534
  550MOL0     H74245   8.806   2.913   8.630  0.2108 -2.1180  0.2984
  550MOL0     H74246   8.596   3.048   8.638 -0.3140  0.1311 -0.5566
  550MOL0     H74247   8.544   2.990   8.787 -4.1735  0.9147 -4.6313
  550MOL0     H74248   8.495   2.637   8.532  1.1257 -1.8377  3.6525
  550MOL0     H74249   8.631   3.227   9.191 -1.7249 -0.8506 -1.0039
  550MOL0     H74250   8.531   3.160   9.417 -0.1479 -1.2581  1.7699
  551MOL0     O74251   5.636   4.450   0.257 -0.4463  0.0698 -0.0563
  551MOL0     C74252   5.544   4.522   0.226  0.7940 -0.3785  0.3676
  551MOL0     O74253   5.411   4.524   0.282  0.5778  0.0587  0.3925
  551MOL0     C74254   5.390   4.439   0.387  0.5750 -0.4451 -0.2278
  551MOL0     C74255   5.475   4.453   0.498 -0.6510 -0.1141  0.2328
  551MOL0     C74256   5.466   4.374   0.614 -0.3079  0.0522  1.3299
  551MOL0     C74257   5.381   4.272   0.623  0.4822 -0.1132  0.9064
  551MOL0     O74258   5.382   4.197   0.737 -0.0747  1.0714 -0.8008
  551MOL0     C74259   5.347   4.054   0.724  0.2677 -0.2662  0.0890
  551MOL0     C74260   5.416   3.969   0.841  0.2403  0.3107 -0.5024
  551MOL0     C74261   5.339   3.835   0.872  0.2885  0.2616 -0.6900
  551MOL0     C74262   5.403   3.745   0.978  0.0676 -0.5060  0.2826
  551MOL0     C74263   5.299   3.634   1.020 -1.1778 -0.0567  0.6593
  551MOL0     C74264   5.364   3.543   1.126  0.5642  0.6525 -0.2092
  551MOL0     C74265   5.334   3.389   1.105 -0.0996 -0.1218  0.5219
  551MOL0     C74266   5.398   3.293   1.222 -0.0472 -0.1427  0.4785
  551MOL0     N74267   5.318   3.169   1.216  0.3958  0.2192 -0.2973
  551MOL0     C74268   5.198   3.147   1.278  0.5970 -0.0122 -0.3421
  551MOL0     C74269   5.132   3.045   1.214  0.3392  0.4833  0.5504
  551MOL0     C74270   4.987   3.004   1.244 -0.1752 -0.2825 -0.0286
  551MOL0     C74271   4.973   2.958   1.382 -0.2571  0.3388 -0.6739
  551MOL0     C74272   4.820   2.957   1.431  0.9242 -0.1714  0.4129
  551MOL0     C74273   4.801   2.873   1.558  0.7153 -0.5039  0.2626
  551MOL0     O74274   4.894   2.918   1.659 -0.6739 -0.8686  0.4239
  551MOL0     C74275   4.914   2.841   1.772 -0.5753 -0.7554 -0.0696
  551MOL0     C74276   4.994   2.901   1.868 -0.3715  0.3033 -0.0257
  551MOL0     C74277   5.013   2.846   1.995  0.1054  0.9869  0.4408
  551MOL0     C74278   5.092   2.939   2.083 -0.4085 -0.1195 -0.6936
  551MOL0     C74279   4.948   2.719   2.027 -0.1757 -0.3620 -0.5167
  551MOL0     C74280   4.950   2.654   2.170 -0.6182 -0.2668  0.2583
  551MOL0     O74281   4.873   2.541   2.189  0.2792 -0.4081  0.3993
  551MOL0     C74282   4.869   2.491   2.318  0.3825  0.9287  0.0154
  551MOL0     C74283   4.955   2.390   2.365  1.3014  0.3362  0.6730
  551MOL0     C74284   4.953   2.343   2.498 -0.1711  1.1715  0.3886
  551MOL0     C74285   4.863   2.396   2.589  0.2075 -0.3600  0.4845
  551MOL0     O74286   4.857   2.359   2.717  0.1144 -0.0243 -1.1670
  551MOL0     C74287   4.926   2.236   2.766 -0.0728 -1.0952  0.2502
  551MOL0     C74288   4.905   2.217   2.918 -0.6820 -0.4133 -0.0551
  551MOL0     C74289   4.947   2.082   2.976  0.2812 -0.5123  0.4684
  551MOL0     C74290   4.846   1.972   2.921 -0.6419  0.4506  0.3704
  551MOL0     C74291   4.854   1.844   3.010  0.5322 -0.4426  0.1838
  551MOL0     C74292   4.728   1.764   2.981 -0.3472 -0.4725 -0.0996
  551MOL0     C74293   4.713   1.649   3.086 -0.9232 -0.1935  0.4883
  551MOL0     C74294   4.587   1.556   3.072 -0.7646 -0.0819  0.5028
  551MOL0    Cl74295   4.465   1.607   3.180  0.2996  0.4016  0.4290
  551MOL0     C74296   4.766   2.486   2.544 -0.4175 -0.1157  0.1796
  551MOL0     C74297   4.774   2.540   2.408 -0.3645  1.1189 -0.7739
  551MOL0     O74298   5.024   2.699   2.254  0.5851  0.5131  0.1035
  551MOL0     C74299   4.880   2.659   1.925  0.6490  0.5926  0.5344
  551MOL0     C74300   4.860   2.718   1.797  0.2732  0.1820 -0.8409
  551MOL0     N74301   5.223   2.998   1.123 -0.1502  0.3388  0.2381
  551MOL0     N74302   5.329   3.069   1.124 -0.6797 -0.3609  0.0768
  551MOL0     C74303   5.288   4.258   0.520 -0.0424  0.0276 -0.5846
  551MOL0     C74304   5.298   4.330   0.402  0.5926 -0.0627  0.1794
  551MOL0     C74305   5.565   4.618   0.113  0.4242  0.5383  0.5433
  551MOL0     C74306   5.465   4.709   0.064  0.9610  0.9580  0.5115
  551MOL0     C74307   5.499   4.803  -0.038 -0.0897 -0.2956 -0.6054
  551MOL0     C74308   5.615   4.788  -0.109 -0.1093  1.1013 -0.6275
  551MOL0     O74309   5.637   4.852  -0.233  0.8352  0.6288 -0.8780
  551MOL0     C74310   5.547   4.939  -0.292  0.7220 -0.1423 -0.8145
  551MOL0     C74311   5.640   5.007  -0.390  0.0163 -1.2285 -0.8882
  551MOL0     C74312   5.575   5.138  -0.458  0.5390 -0.0769  0.1389
  551MOL0     C74313   5.456   5.092  -0.556 -1.0345 -0.1868  0.4735
  551MOL0     C74314   5.342   5.044  -0.484 -0.9406  0.0906 -0.0925
  551MOL0     C74315   5.234   5.016  -0.439 -1.2638 -0.5416  0.3924
  551MOL0     C74316   5.709   4.683  -0.074  0.0432 -0.3650  0.3092
  551MOL0     C74317   5.685   4.598   0.036  0.1262 -0.8344  1.2426
  551MOL0     H74318   5.558   4.522   0.499  0.1151 -0.9440 -1.4222
  551MOL0     H74319   5.536   4.395   0.694  2.7985 -1.1172 -0.8525
  551MOL0     H74320   5.239   4.044   0.737  0.6603 -1.1909  3.8920
  551MOL0     H74321   5.381   4.011   0.630  1.0433  0.6028 -0.0374
  551MOL0     H74322   5.521   3.943   0.827  0.5255  0.9337  0.3883
  551MOL0     H74323   5.413   4.021   0.938 -0.8862  0.2487 -0.4883
  551MOL0     H74324   5.238   3.852   0.910  0.0171 -1.4426 -0.5815
  551MOL0     H74325   5.335   3.778   0.778 -2.0537 -0.9980  0.1120
  551MOL0     H74326   5.492   3.698   0.934  0.5668  3.3454 -3.4819
  551MOL0     H74327   5.435   3.792   1.072  0.7921  0.0071 -0.2125
  551MOL0     H74328   5.211   3.676   1.069 -1.0913 -2.4347  3.1228
  551MOL0     H74329   5.271   3.574   0.933 -3.5746  0.2426  1.1481
  551MOL0     H74330   5.473   3.557   1.134  0.8357 -1.3364  0.1149
  551MOL0     H74331   5.322   3.574   1.222  0.1834 -2.1134  0.5976
  551MOL0     H74332   5.225   3.389   1.115 -0.0968  1.0078  0.7197
  551MOL0     H74333   5.364   3.343   1.010 -0.8133 -2.1294  1.2263
  551MOL0     H74334   5.373   3.338   1.318 -1.7315 -0.8850  0.4336
  551MOL0     H74335   5.506   3.287   1.209 -0.0969  0.2733 -0.1957
  551MOL0     H74336   5.143   3.212   1.346 -0.2327  0.0056 -1.0105
  551MOL0     H74337   4.924   3.093   1.236 -3.1548 -2.2405  0.1126
  551MOL0     H74338   4.963   2.927   1.170 -1.9859 -1.3789  1.6056
  551MOL0     H74339   5.044   3.002   1.452  0.9462 -1.0731 -0.9643
  551MOL0     H74340   5.001   2.854   1.364  0.9444  0.8054 -1.5807
  551MOL0     H74341   4.743   2.911   1.368 -1.1917 -1.2090  3.5008
  551MOL0     H74342   4.772   3.049   1.464 -0.6596 -1.3547  1.5470
  551MOL0     H74343   4.819   2.768   1.535  0.5848 -0.2237 -1.2268
  551MOL0     H74344   4.701   2.889   1.599  1.2467 -1.2507  1.9616
  551MOL0     H74345   5.045   2.995   1.854  0.2133 -0.0559 -0.3371
  551MOL0     H74346   5.196   2.903   2.084  0.4088  1.9072 -2.4570
  551MOL0     H74347   5.096   3.042   2.046 -2.1001 -0.0088 -0.6266
  551MOL0     H74348   5.048   2.939   2.183 -1.0916 -4.5793 -0.8126
  551MOL0     H74349   5.026   2.347   2.295 -0.8664  0.3879 -1.7429
  551MOL0     H74350   5.022   2.267   2.534 -2.3940 -1.0996  0.0849
  551MOL0     H74351   4.907   2.142   2.713  1.7002 -1.4552  0.1793
  551MOL0     H74352   5.035   2.240   2.756 -0.1935  0.8969 -0.6688
  551MOL0     H74353   4.961   2.297   2.968 -0.5535  0.4343 -1.4941
  551MOL0     H74354   4.798   2.224   2.937 -0.6015 -2.6042  1.7088
  551MOL0     H74355   4.937   2.091   3.084  0.4570  2.6965  0.3145
  551MOL0     H74356   5.052   2.060   2.954  0.7805  0.6368  1.6063
  551MOL0     H74357   4.743   2.008   2.932 -1.5106 -2.6410  4.8365
  551MOL0     H74358   4.878   1.945   2.820 -1.8767  2.4878 -0.6565
  551MOL0     H74359   4.865   1.863   3.117  1.9922 -0.7126  0.1001
  551MOL0     H74360   4.942   1.786   2.980  2.0394  0.3816  2.7528
  551MOL0     H74361   4.641   1.827   3.001 -0.7576 -1.1358  0.2558
  551MOL0     H74362   4.728   1.720   2.880  1.9235  1.1222 -0.8856
  551MOL0     H74363   4.705   1.690   3.187  0.4592 -1.5596  1.2057
  551MOL0     H74364   4.805   1.589   3.087 -0.6748  0.0827 -1.7025
  551MOL0     H74365   4.613   1.453   3.101 -0.7480 -0.0472  0.6116
  551MOL0     H74366   4.545   1.551   2.971  0.4380  1.4401 -0.1102
  551MOL0     H74367   4.694   2.522   2.616  0.2072 -1.5451  1.5704
  551MOL0     H74368   4.695   2.609   2.379 -0.9826  0.8862  0.3119
  551MOL0     H74369   4.834   2.563   1.945 -2.0677  1.4447 -1.0309
  551MOL0     H74370   4.800   2.664   1.724  0.3592 -3.0944  1.3321
  551MOL0     H74371   5.206   4.187   0.519  1.2048 -1.4467 -1.4998
  551MOL0     H74372   5.228   4.307   0.323 -1.0046 -0.9760  1.7819
  551MOL0     H74373   5.364   4.711   0.103 -0.2455  0.1059 -2.2499
  551MOL0     H74374   5.422   4.878  -0.053 -2.1737 -1.8652  1.4409
  551MOL0     H74375   5.462   4.881  -0.328  0.7819 -1.4879  1.0495
  551MOL0     H74376   5.516   5.013  -0.218  3.6862 -0.6453  1.1254
  551MOL0     H74377   5.664   4.933  -0.467 -0.9385  1.1585 -3.6575
  551MOL0     H74378   5.729   5.038  -0.335  0.9743 -2.3729 -1.7339
  551MOL0     H74379   5.648   5.194  -0.516 -1.0143 -1.1378 -3.1381
  551MOL0     H74380   5.525   5.199  -0.383 -2.4904  0.2876 -1.9655
  551MOL0     H74381   5.484   5.008  -0.620 -0.3552 -0.3618  0.9927
  551MOL0     H74382   5.432   5.169  -0.630 -1.4789  0.0750  0.8826
  551MOL0     H74383   5.133   4.996  -0.411 -1.0161 -1.0125  0.9673
  551MOL0     H74384   5.805   4.679  -0.124 -0.1360 -1.3173  0.0163
  551MOL0     H74385   5.767   4.531   0.061  1.9862  1.2190  0.9940
  552MOL0     O74386   9.242   6.699   2.976  0.1533  0.1168  0.6138
  552MOL0     C74387   9.168   6.748   2.890 -0.0269 -0.8315  0.0443
  552MOL0     O74388   9.168   6.723   2.750  0.4219 -0.5004 -0.3199
  552MOL0     C74389   9.246   6.615   2.714  0.3285  0.7314  0.6215
  552MOL0     C74390   9.210   6.488   2.747  0.4422  1.0779  0.2791
  552MOL0     C74391   9.297   6.378   2.708  0.9252 -0.4190 -0.1666
  552MOL0     C74392   9.413   6.392   2.638  0.0405 -0.4987  0.5145
  552MOL0     O74393   9.482   6.291   2.590  0.2931 -0.4688 -0.6626
  552MOL0     C74394   9.607   6.268   2.656  0.1161  0.4234  0.6454
  552MOL0     C74395   9.706   6.195   2.565  0.2384  0.4007  0.1227
  552MOL0     C74396   9.670   6.061   2.512  1.4449  0.1730  0.4609
  552MOL0     C74397   9.607   6.068   2.367 -0.1800 -0.5125 -0.0911
  552MOL0     C74398   9.594   5.926   2.317 -0.4304 -0.5272 -0.5227
  552MOL0     C74399   9.535   5.930   2.179 -0.8575 -0.2523  0.1728
  552MOL0     C74400   9.545   5.798   2.109  0.9962  1.2232 -0.9604
  552MOL0     C74401   9.433   5.786   2.002 -0.4170  1.0132  0.1416
  552MOL0     N74402   9.415   5.640   1.973 -0.0961  0.5362 -0.1935
  552MOL0     C74403   9.289   5.575   1.957 -0.9664  0.6747 -0.5054
  552MOL0     C74404   9.325   5.460   1.901 -1.1424  0.7179 -0.2688
  552MOL0     C74405   9.238   5.340   1.874 -0.7940  0.1242  0.1935
  552MOL0     C74406   9.100   5.383   1.829 -0.7218 -0.6932 -0.1633
  552MOL0     C74407   9.005   5.275   1.799 -0.1372  0.7115 -0.1348
  552MOL0     C74408   8.982   5.178   1.923 -0.0450 -0.6676 -0.6423
  552MOL0     O74409   8.935   5.263   2.031  0.2389 -0.2971 -0.6275
  552MOL0     C74410   8.955   5.237   2.166  0.2035  0.4214  0.0847
  552MOL0     C74411   8.976   5.097   2.214  0.1745  0.2541 -0.0923
  552MOL0     C74412   8.985   5.069   2.356  0.0703 -0.7855  0.3942
  552MOL0     C74413   9.020   4.925   2.386  0.7006 -0.3233  0.0680
  552MOL0     C74414   8.990   5.185   2.446  1.3883 -0.6481  0.6783
  552MOL0     C74415   9.028   5.164   2.588  0.3575  0.0513  0.1791
  552MOL0     O74416   9.095   5.270   2.654  0.6909  0.2638  0.4413
  552MOL0     C74417   9.165   5.255   2.770  0.0453  0.1302 -0.1358
  552MOL0     C74418   9.209   5.141   2.834  0.4994  0.0696  0.6188
  552MOL0     C74419   9.296   5.141   2.951  0.5286 -0.4616  0.9265
  552MOL0     C74420   9.338   5.259   3.002 -0.2509  1.0641  0.5247
  552MOL0     O74421   9.421   5.282   3.108  0.7782 -0.0661  0.3247
  552MOL0     C74422   9.507   5.176   3.142 -0.1499 -0.9628 -0.5072
  552MOL0     C74423   9.583   5.233   3.259 -0.1613 -0.3361  0.3719
  552MOL0     C74424   9.653   5.117   3.329 -0.0537 -0.3874  0.0290
  552MOL0     C74425   9.735   5.161   3.449 -0.5837 -0.4112  0.8983
  552MOL0     C74426   9.812   5.051   3.530  0.0464 -0.6745 -0.0773
  552MOL0     C74427   9.731   4.941   3.595  0.2810  0.1863 -1.0051
  552MOL0     C74428   9.798   4.889   3.730 -0.4966 -0.4873 -0.2475
  552MOL0     C74429   9.714   4.799   3.819 -0.2764  0.1422  0.6343
  552MOL0    Cl74430   9.795   4.749   3.958 -0.2799 -0.2453  0.0109
  552MOL0     C74431   9.278   5.377   2.946  0.0011 -0.1237  0.8675
  552MOL0     C74432   9.206   5.374   2.831  1.2247 -0.0395  0.0985
  552MOL0     O74433   8.993   5.062   2.637 -0.4100  0.4525  0.6732
  552MOL0     C74434   8.971   5.310   2.395 -0.5202 -0.0357  0.1191
  552MOL0     C74435   8.940   5.334   2.261 -0.2694  0.1354 -0.7985
  552MOL0     N74436   9.463   5.451   1.892 -1.3047  0.1936  0.5725
  552MOL0     N74437   9.513   5.551   1.946 -0.2321  0.7298 -0.0863
  552MOL0     C74438   9.452   6.520   2.613 -0.0425 -1.6019  0.5654
  552MOL0     C74439   9.374   6.632   2.644 -0.2198  0.0578 -0.7405
  552MOL0     C74440   9.073   6.853   2.942 -0.0707  0.0212 -0.3591
  552MOL0     C74441   8.976   6.913   2.851 -0.4766 -0.0610  0.4462
  552MOL0     C74442   8.899   7.017   2.905  0.0792 -0.2728 -0.6025
  552MOL0     C74443   8.893   7.060   3.042 -0.6857 -0.9908  0.5271
  552MOL0     O74444   8.790   7.142   3.090 -0.3082 -0.5865  1.0495
  552MOL0     C74445   8.737   7.233   2.999 -0.0882 -0.1814  1.5701
  552MOL0     C74446   8.599   7.207   2.945 -1.1966 -0.1977  0.1308
  552MOL0     C74447   8.489   7.270   3.034 -0.3179  0.7262 -0.3855
  552MOL0     C74448   8.347   7.257   2.975 -0.3446  0.2554  0.4489
  552MOL0     C74449   8.280   7.132   3.013  0.1192 -0.7787  0.5392
  552MOL0     C74450   8.221   7.031   3.048  0.2822  0.2511  0.1754
  552MOL0     C74451   8.991   7.001   3.120 -0.1283  0.6368  0.0763
  552MOL0     C74452   9.081   6.904   3.068  0.8544  0.4511 -0.2180
  552MOL0     H74453   9.123   6.459   2.805  1.6584  0.6683  1.9581
  552MOL0     H74454   9.268   6.277   2.734  1.2375 -1.0595 -2.1278
  552MOL0     H74455   9.650   6.367   2.674 -1.8017  1.8388 -2.0161
  552MOL0     H74456   9.607   6.214   2.751  0.6025 -1.6516 -0.4753
  552MOL0     H74457   9.720   6.253   2.473 -1.4907 -0.8226 -0.9558
  552MOL0     H74458   9.805   6.186   2.612 -0.3497  1.9494  1.7915
  552MOL0     H74459   9.749   5.985   2.524  1.4391 -0.0437 -0.7008
  552MOL0     H74460   9.590   6.027   2.578  2.5359 -1.2882  1.1131
  552MOL0     H74461   9.509   6.115   2.365  1.1935  2.6363 -0.2789
  552MOL0     H74462   9.674   6.120   2.297 -0.9054  1.9394  0.9298
  552MOL0     H74463   9.697   5.890   2.321  1.0371  2.7641 -2.9865
  552MOL0     H74464   9.530   5.868   2.383 -0.9456  1.8876  1.2444
  552MOL0     H74465   9.429   5.947   2.201 -0.9282  1.2099 -1.1618
  552MOL0     H74466   9.573   6.013   2.119 -0.6652  0.4483  1.2353
  552MOL0     H74467   9.640   5.781   2.057  1.9418  0.6950  0.8746
  552MOL0     H74468   9.539   5.712   2.176  1.3436  0.8810 -1.3559
  552MOL0     H74469   9.459   5.851   1.918  3.0209 -1.2160 -0.7085
  552MOL0     H74470   9.336   5.818   2.042  0.1243  2.0985  0.6378
  552MOL0     H74471   9.186   5.607   1.972 -1.6742  0.4600 -3.9600
  552MOL0     H74472   9.294   5.271   1.810  2.3824  2.2839  0.4026
  552MOL0     H74473   9.237   5.291   1.972 -1.6350  3.2549  1.8783
  552MOL0     H74474   9.108   5.446   1.740 -0.5956 -2.2980 -1.3094
  552MOL0     H74475   9.049   5.449   1.901 -0.7950 -1.0421  0.1050
  552MOL0     H74476   9.043   5.209   1.720  3.0350  1.0669  0.9880
  552MOL0     H74477   8.907   5.317   1.771 -0.1740  1.8327  1.5508
  552MOL0     H74478   9.079   5.129   1.936 -0.1244 -1.5344 -2.8453
  552MOL0     H74479   8.906   5.103   1.899 -0.0515 -1.5862  1.9217
  552MOL0     H74480   8.990   5.013   2.147 -1.5065  1.0784 -1.5630
  552MOL0     H74481   9.023   4.869   2.292 -2.2645 -1.5355  0.5857
  552MOL0     H74482   9.115   4.920   2.440  2.2703  1.6655 -2.2790
  552MOL0     H74483   8.942   4.871   2.441 -0.3813  3.2217  2.3719
  552MOL0     H74484   9.170   5.044   2.804  0.2872  0.7811 -1.6004
  552MOL0     H74485   9.331   5.042   2.979  1.5499 -0.3401  0.1391
  552MOL0     H74486   9.448   5.089   3.174 -1.1435  0.0380  0.4749
  552MOL0     H74487   9.581   5.141   3.070 -0.3304 -0.4666 -0.9337
  552MOL0     H74488   9.666   5.298   3.228 -0.1009 -0.0353  1.1375
  552MOL0     H74489   9.534   5.304   3.326 -1.5500  1.6149 -2.5292
  552MOL0     H74490   9.720   5.064   3.261  2.0046  0.8624  0.9928
  552MOL0     H74491   9.576   5.050   3.369 -3.6444  2.7902 -0.9928
  552MOL0     H74492   9.799   5.247   3.432 -0.9696  0.1143  2.0157
  552MOL0     H74493   9.660   5.200   3.518  0.8898  2.1950  1.1268
  552MOL0     H74494   9.876   5.100   3.604  3.4896 -2.1184 -1.8704
  552MOL0     H74495   9.877   5.009   3.453 -1.1077  1.5068 -2.3931
  552MOL0     H74496   9.628   4.971   3.615  0.0426 -0.5042 -1.1545
  552MOL0     H74497   9.730   4.848   3.537 -2.4439 -0.4827 -0.0617
  552MOL0     H74498   9.821   4.975   3.794 -0.9079 -0.1089 -0.5964
  552MOL0     H74499   9.888   4.831   3.708 -1.8748 -3.7495  1.9791
  552MOL0     H74500   9.685   4.712   3.759 -2.4840 -0.4979  2.4735
  552MOL0     H74501   9.619   4.842   3.852 -1.9186 -3.5353  1.2243
  552MOL0     H74502   9.303   5.470   2.997  1.8487 -0.9431  1.5538
  552MOL0     H74503   9.186   5.466   2.775 -2.1942 -1.7837 -1.8891
  552MOL0     H74504   8.954   5.396   2.458  1.9957  1.2857 -0.8677
  552MOL0     H74505   8.908   5.432   2.229 -2.7307  0.2729  1.6192
  552MOL0     H74506   9.538   6.535   2.549 -2.4934  0.2101 -2.5976
  552MOL0     H74507   9.397   6.733   2.612 -1.1769  0.6242  0.2876
  552MOL0     H74508   8.962   6.876   2.751  1.0882 -1.2545  0.6299
  552MOL0     H74509   8.829   7.057   2.832 -0.3499  0.8830  0.4149
  552MOL0     H74510   8.728   7.326   3.055 -2.6594 -0.3467  1.5625
  552MOL0     H74511   8.803   7.259   2.915 -0.9336 -3.2366 -0.2269
  552MOL0     H74512   8.588   7.099   2.936  2.2309 -1.0593  3.6737
  552MOL0     H74513   8.595   7.256   2.847  1.1065 -1.4890 -0.6874
  552MOL0     H74514   8.518   7.374   3.047  1.5904  0.1128  0.6289
  552MOL0     H74515   8.488   7.228   3.135 -0.5313 -2.9760 -1.7754
  552MOL0     H74516   8.327   7.295   2.874 -4.8229 -0.1838  0.9609
  552MOL0     H74517   8.288   7.327   3.034  1.1673  3.2384 -1.3204
  552MOL0     H74518   8.158   6.953   3.088  2.9608 -2.3775 -0.3982
  552MOL0     H74519   8.996   7.031   3.224  1.1923  0.4269  0.0828
  552MOL0     H74520   9.163   6.863   3.125  0.0346  0.3893  0.9602
  553MOL0     O74521   2.421   5.007   6.340 -0.1110 -0.3042 -0.1388
  553MOL0     C74522   2.458   4.907   6.393 -0.5942 -0.4413  0.3602
  553MOL0     O74523   2.424   4.869   6.530 -0.3397 -0.0647  0.5649
  553MOL0     C74524   2.344   4.946   6.612  0.0327  0.5388  0.2899
  553MOL0     C74525   2.367   5.086   6.625  0.0283  0.0400 -0.3915
  553MOL0     C74526   2.271   5.159   6.696  0.7752 -0.4867 -0.4420
  553MOL0     C74527   2.159   5.094   6.759 -0.5273 -0.2994 -0.0332
  553MOL0     O74528   2.069   5.164   6.839 -0.2865 -0.2370 -0.1180
  553MOL0     C74529   2.083   5.303   6.859  0.6405 -0.4305  0.3236
  553MOL0     C74530   2.011   5.377   6.744 -0.4132  0.5996 -1.1411
  553MOL0     C74531   1.963   5.508   6.807 -0.0772 -0.2728  0.8633
  553MOL0     C74532   1.936   5.605   6.694 -0.0625 -0.4880 -0.4504
  553MOL0     C74533   2.044   5.718   6.696 -0.1438 -0.2370 -0.3180
  553MOL0     C74534   2.042   5.801   6.570 -0.6294 -0.1099  0.2829
  553MOL0     C74535   2.138   5.913   6.588  0.2281  0.2208 -1.3222
  553MOL0     C74536   2.151   6.014   6.470 -0.8599 -0.6407 -0.8003
  553MOL0     N74537   2.023   6.063   6.423  0.3215 -0.9910 -0.1082
  553MOL0     C74538   1.984   6.197   6.431  0.8456 -1.2539 -0.0013
  553MOL0     C74539   1.873   6.211   6.352  0.3310  0.6330  0.5217
  553MOL0     C74540   1.789   6.335   6.342 -0.2600  0.0497 -0.2035
  553MOL0     C74541   1.850   6.464   6.277 -0.2818  0.6753  0.2447
  553MOL0     C74542   1.917   6.430   6.143  0.3144 -0.6348 -0.0920
  553MOL0     C74543   1.990   6.554   6.088 -1.1284 -0.4666 -0.0061
  553MOL0     O74544   2.051   6.526   5.964 -0.0748 -0.0863  0.2577
  553MOL0     C74545   2.156   6.444   5.944  0.3775 -0.1739 -0.4728
  553MOL0     C74546   2.221   6.376   6.048 -0.0949  0.0832 -0.6002
  553MOL0     C74547   2.337   6.296   6.024  1.0615  0.0943 -1.0179
  553MOL0     C74548   2.403   6.247   6.154 -0.8314  0.0675 -0.0879
  553MOL0     C74549   2.359   6.258   5.891  0.2221  0.0474 -0.6966
  553MOL0     C74550   2.476   6.175   5.845  0.1441  0.1501  0.1737
  553MOL0     O74551   2.511   6.083   5.928 -0.5336  0.2309 -0.6174
  553MOL0     C74552   2.524   5.951   5.885 -0.4017 -0.2034 -0.1598
  553MOL0     C74553   2.579   5.859   5.977  0.9525  0.4432 -1.1030
  553MOL0     C74554   2.592   5.725   5.948 -0.8494 -0.0220  0.6098
  553MOL0     C74555   2.561   5.660   5.825 -0.4838 -0.2725  0.2636
  553MOL0     O74556   2.588   5.534   5.781 -0.4375 -0.3572  0.3325
  553MOL0     C74557   2.555   5.421   5.861 -0.0844 -1.4335  0.8889
  553MOL0     C74558   2.611   5.298   5.792  0.6932  0.0964 -0.3677
  553MOL0     C74559   2.641   5.180   5.880  0.6740 -0.4001 -0.1015
  553MOL0     C74560   2.773   5.111   5.825  0.0571 -0.4140 -1.0450
  553MOL0     C74561   2.807   4.986   5.913 -0.0295  0.6112  0.5152
  553MOL0     C74562   2.939   4.924   5.867 -0.0428 -0.6066 -0.7012
  553MOL0     C74563   2.979   4.782   5.930  0.1762 -0.9091 -0.0592
  553MOL0     C74564   2.931   4.656   5.861  0.4040  0.5100  0.1679
  553MOL0    Cl74565   3.084   4.562   5.816  0.1356 -0.4857 -0.0792
  553MOL0     C74566   2.498   5.745   5.733 -0.7734  0.9362  0.2290
  553MOL0     C74567   2.478   5.886   5.766 -1.6761 -0.2765 -0.1070
  553MOL0     O74568   2.521   6.196   5.729  0.0464  0.1315 -0.6809
  553MOL0     C74569   2.287   6.319   5.788 -0.0488  0.8803 -0.2964
  553MOL0     C74570   2.191   6.411   5.813 -0.7761 -0.5734 -0.5760
  553MOL0     N74571   1.848   6.089   6.292  0.1485 -0.6536  0.6948
  553MOL0     N74572   1.939   6.002   6.335 -0.6214 -0.9891 -0.0500
  553MOL0     C74573   2.149   4.957   6.756  0.3726  0.7450 -0.6016
  553MOL0     C74574   2.236   4.884   6.677  0.2528  0.3318 -0.4487
  553MOL0     C74575   2.549   4.820   6.324 -0.2189 -0.3590  0.8731
  553MOL0     C74576   2.597   4.721   6.408  0.9213 -0.4357 -0.3515
  553MOL0     C74577   2.678   4.622   6.358 -0.3971  0.4988  0.7812
  553MOL0     C74578   2.710   4.612   6.222 -0.1177  0.0571  0.4860
  553MOL0     O74579   2.797   4.525   6.156  0.3294 -0.0403 -0.6486
  553MOL0     C74580   2.899   4.454   6.224  0.5725 -0.2954 -0.4173
  553MOL0     C74581   2.841   4.315   6.248 -0.2835 -0.1447  0.1431
  553MOL0     C74582   2.949   4.209   6.284  0.2950 -0.4408 -0.5278
  553MOL0     C74583   3.007   4.212   6.425  0.7427  0.8135 -0.3293
  553MOL0     C74584   2.931   4.287   6.519 -0.5612 -0.2508 -0.4918
  553MOL0     C74585   2.867   4.339   6.610 -0.3366 -0.2140  0.4690
  553MOL0     C74586   2.651   4.711   6.131  0.3352 -0.4382 -0.1125
  553MOL0     C74587   2.570   4.814   6.188 -0.0966 -0.4932  0.0806
  553MOL0     H74588   2.448   5.128   6.566  2.5019 -1.1552  1.9272
  553MOL0     H74589   2.288   5.266   6.694 -4.6009  0.7298  1.7200
  553MOL0     H74590   2.020   5.324   6.947 -1.0575 -1.1421 -0.6693
  553MOL0     H74591   2.188   5.328   6.874  0.9136 -2.2953  1.9727
  553MOL0     H74592   2.068   5.394   6.651  1.1458 -2.1410 -0.7925
  553MOL0     H74593   1.923   5.318   6.717  2.0000 -4.1302  0.2500
  553MOL0     H74594   1.868   5.482   6.853  0.8421 -3.4412  1.1690
  553MOL0     H74595   2.038   5.543   6.880 -0.7394 -1.9254  2.3927
  553MOL0     H74596   1.927   5.554   6.598  0.1815  0.2524 -0.8695
  553MOL0     H74597   1.843   5.651   6.730 -0.7790 -1.5082 -0.9413
  553MOL0     H74598   2.017   5.776   6.785 -3.6062 -2.1656  0.0409
  553MOL0     H74599   2.145   5.675   6.703 -0.4710 -0.7356  2.3434
  553MOL0     H74600   2.074   5.746   6.481  1.0087 -1.0375  1.4008
  553MOL0     H74601   1.947   5.853   6.549 -0.0471  1.3577  1.1525
  553MOL0     H74602   2.109   5.971   6.677  2.4630  1.0869 -1.1103
  553MOL0     H74603   2.231   5.861   6.611 -0.8755 -2.0050 -1.5688
  553MOL0     H74604   2.203   5.968   6.386 -1.6381 -0.8945 -1.1486
  553MOL0     H74605   2.204   6.104   6.502 -0.5717 -0.2799 -2.2257
  553MOL0     H74606   2.034   6.267   6.497  0.7462 -1.0859 -0.1026
  553MOL0     H74607   1.694   6.320   6.290 -1.0174  0.9821  0.8441
  553MOL0     H74608   1.767   6.364   6.446  0.3042 -0.5501  0.0936
  553MOL0     H74609   1.922   6.510   6.345 -1.5320 -2.0837  3.7300
  553MOL0     H74610   1.769   6.536   6.258  0.1103  1.2776  0.8059
  553MOL0     H74611   1.831   6.411   6.078  1.2038 -1.5355 -1.0477
  553MOL0     H74612   1.986   6.346   6.141  1.3409  0.1749  0.5903
  553MOL0     H74613   2.072   6.580   6.155 -1.0997 -5.0876  2.1293
  553MOL0     H74614   1.912   6.629   6.073  0.5984  1.5598  0.6681
  553MOL0     H74615   2.203   6.404   6.151 -3.0551 -1.3008 -0.6108
  553MOL0     H74616   2.453   6.152   6.136 -0.4767  0.0659  0.8594
  553MOL0     H74617   2.475   6.328   6.170 -1.7802  1.1632 -1.1569
  553MOL0     H74618   2.333   6.238   6.238 -1.1898 -4.4016 -0.6476
  553MOL0     H74619   2.611   5.910   6.067 -2.1594  2.3469 -0.8961
  553MOL0     H74620   2.651   5.670   6.021  0.0729 -0.7194 -0.6359
  553MOL0     H74621   2.605   5.428   5.958 -1.8204 -1.0126  1.7805
  553MOL0     H74622   2.447   5.408   5.865 -0.2514 -0.6805 -0.4096
  553MOL0     H74623   2.537   5.266   5.719  1.1875  0.0267 -0.8503
  553MOL0     H74624   2.706   5.325   5.745  0.8809 -2.5336 -1.6640
  553MOL0     H74625   2.560   5.109   5.860 -0.7952  0.5786  2.0307
  553MOL0     H74626   2.652   5.214   5.983 -1.1492  1.8863 -0.5679
  553MOL0     H74627   2.758   5.082   5.721 -1.1035 -1.9895 -0.4833
  553MOL0     H74628   2.860   5.174   5.843  0.9623 -1.9614  0.2044
  553MOL0     H74629   2.730   4.911   5.893 -0.9085  2.0515 -1.9698
  553MOL0     H74630   2.820   5.019   6.017  1.7644  2.1967 -0.1644
  553MOL0     H74631   2.947   4.921   5.758 -0.2660  1.1360 -0.7931
  553MOL0     H74632   3.019   4.992   5.898  1.4754 -2.2481 -0.8203
  553MOL0     H74633   2.934   4.776   6.030 -1.3417 -0.4522 -0.6930
  553MOL0     H74634   3.087   4.785   5.949  0.0219 -2.5235  1.4041
  553MOL0     H74635   2.868   4.682   5.776 -0.5857  0.9194  1.0073
  553MOL0     H74636   2.872   4.587   5.922  0.3225 -0.8340 -1.3652
  553MOL0     H74637   2.457   5.699   5.644 -2.5631  2.4732  0.1899
  553MOL0     H74638   2.413   5.935   5.695  0.5449 -0.0121 -2.0986
  553MOL0     H74639   2.309   6.287   5.687  0.9078 -0.0309  0.1837
  553MOL0     H74640   2.151   6.471   5.732  1.5259 -2.8190 -3.6049
  553MOL0     H74641   2.077   4.916   6.827  0.5063  2.8692  0.8323
  553MOL0     H74642   2.229   4.778   6.656  0.9655 -0.4302  2.6949
  553MOL0     H74643   2.581   4.719   6.515 -3.8624 -0.2506 -0.8536
  553MOL0     H74644   2.725   4.560   6.435  1.9159 -0.1558 -1.0509
  553MOL0     H74645   2.989   4.450   6.162  0.3328 -2.3292 -0.7086
  553MOL0     H74646   2.912   4.504   6.321 -0.1311 -0.5888 -0.1691
  553MOL0     H74647   2.803   4.287   6.149  1.0416 -3.2673  0.4031
  553MOL0     H74648   2.756   4.311   6.317 -0.3898 -3.3955 -0.0353
  553MOL0     H74649   3.019   4.201   6.201  0.2832  1.7692 -0.8114
  553MOL0     H74650   2.905   4.110   6.274  0.9696 -0.5055 -4.4388
  553MOL0     H74651   3.105   4.261   6.418  1.2786  0.4238  2.8694
  553MOL0     H74652   3.022   4.111   6.463 -2.4069  0.5453  0.4611
  553MOL0     H74653   2.812   4.385   6.690 -2.2057  0.0995 -0.9228
  553MOL0     H74654   2.671   4.707   6.025  0.9985 -2.6222  0.0504
  553MOL0     H74655   2.505   4.876   6.127 -1.7667  1.6444  3.6809
  554MOL0     O74656   9.542   8.539   6.193 -0.1805 -0.7014 -0.1781
  554MOL0     C74657   9.444   8.587   6.144  1.0719 -0.4420  0.2551
  554MOL0     O74658   9.332   8.509   6.126  0.8017 -0.5246 -0.2112
  554MOL0     C74659   9.350   8.379   6.164 -0.3978  0.4744 -0.7613
  554MOL0     C74660   9.322   8.350   6.296  0.1966  0.0582 -0.9376
  554MOL0     C74661   9.328   8.218   6.330  0.3964  0.6429 -0.1619
  554MOL0     C74662   9.360   8.112   6.239  0.2835  0.2964  0.8221
  554MOL0     O74663   9.367   7.980   6.273 -0.9854 -0.4144 -0.1993
  554MOL0     C74664   9.387   7.881   6.176 -0.5070  0.0021  0.6399
  554MOL0     C74665   9.368   7.739   6.229  1.5892  0.8313  0.2450
  554MOL0     C74666   9.485   7.685   6.324 -0.6977 -0.2381 -0.7929
  554MOL0     C74667   9.464   7.542   6.361  0.6206 -0.1001 -0.7655
  554MOL0     C74668   9.570   7.493   6.450 -0.1072  0.5876 -0.0970
  554MOL0     C74669   9.578   7.342   6.451 -0.9244 -0.5035  0.8996
  554MOL0     C74670   9.668   7.283   6.561 -0.4547  0.4380 -0.4657
  554MOL0     C74671   9.652   7.130   6.570 -0.2864  0.1170  0.2962
  554MOL0     N74672   9.751   7.069   6.665  0.1024  0.9099  0.4225
  554MOL0     C74673   9.878   7.013   6.639 -0.0724 -0.4330  0.0268
  554MOL0     C74674   9.899   6.941   6.744  0.1762  0.5938 -0.3446
  554MOL0     C74675  10.031   6.850   6.756 -0.1351 -0.4886  1.1476
  554MOL0     C74676  10.012   6.707   6.706 -0.7853 -0.2342  0.4832
  554MOL0     C74677   9.896   6.634   6.788  0.2676 -0.4550  0.2740
  554MOL0     C74678   9.898   6.487   6.755  0.3772 -0.1614 -0.1980
  554MOL0     O74679   9.765   6.440   6.795 -0.2985 -0.5998  0.1326
  554MOL0     C74680   9.762   6.307   6.839  0.7535 -0.6788 -0.1815
  554MOL0     C74681   9.791   6.280   6.966 -0.0448  0.1029  0.0639
  554MOL0     C74682   9.781   6.150   7.021 -0.0252  0.5887 -0.5284
  554MOL0     C74683   9.815   6.134   7.163 -0.1388 -1.0008 -0.4721
  554MOL0     C74684   9.721   6.050   6.941 -0.4774  0.8497 -0.3079
  554MOL0     C74685   9.677   5.918   6.997 -0.0262 -0.2391 -0.1915
  554MOL0     O74686   9.677   5.814   6.903 -0.6095 -1.0987 -0.1535
  554MOL0     C74687   9.653   5.687   6.939  0.6177  0.6658 -0.4738
  554MOL0     C74688   9.771   5.620   6.972  0.8588 -1.1287  0.4190
  554MOL0     C74689   9.768   5.488   6.979  1.2684  1.2531  1.7439
  554MOL0     C74690   9.654   5.412   6.958 -0.6646  0.3234  0.2876
  554MOL0     O74691   9.660   5.273   6.971  0.5287 -0.1131 -0.3747
  554MOL0     C74692   9.541   5.192   6.974  0.5946 -0.2370  0.0654
  554MOL0     C74693   9.475   5.211   7.113 -1.1298 -0.0883  0.3752
  554MOL0     C74694   9.566   5.202   7.232  0.0139 -0.2774  0.7298
  554MOL0     C74695   9.570   5.331   7.309  0.3836 -0.4465 -0.0202
  554MOL0     C74696   9.677   5.323   7.407 -0.5147  1.3074  0.2629
  554MOL0     C74697   9.683   5.442   7.507 -0.5420 -0.7701  0.7550
  554MOL0     C74698   9.678   5.585   7.447 -0.0520 -0.7571 -0.1204
  554MOL0     C74699   9.797   5.627   7.365  0.6322  0.3192 -0.1017
  554MOL0    Cl74700   9.947   5.622   7.469  0.6209 -0.8183 -0.1945
  554MOL0     C74701   9.542   5.477   6.920 -0.1084 -0.0098 -0.8221
  554MOL0     C74702   9.534   5.617   6.913  0.2979 -0.1887  1.1186
  554MOL0     O74703   9.671   5.898   7.119  0.2256 -0.6429 -0.0293
  554MOL0     C74704   9.695   6.076   6.806  0.4812  0.3651 -0.1061
  554MOL0     C74705   9.710   6.205   6.758 -0.3710 -0.5603  0.7122
  554MOL0     N74706   9.800   6.955   6.835  0.0200  0.5842 -0.0288
  554MOL0     N74707   9.706   7.031   6.787  0.3123 -0.0171 -0.4683
  554MOL0     C74708   9.376   8.147   6.099 -0.4159  0.1835 -0.2468
  554MOL0     C74709   9.382   8.282   6.066 -0.0021 -0.9908  0.4447
  554MOL0     C74710   9.448   8.730   6.104  0.9517 -0.0024  0.7785
  554MOL0     C74711   9.566   8.807   6.112  0.8806  0.5059 -0.5847
  554MOL0     C74712   9.572   8.934   6.054  0.2164 -0.8957  0.5401
  554MOL0     C74713   9.457   8.991   5.998  0.2597  0.3659 -1.1428
  554MOL0     O74714   9.457   9.111   5.935  0.5034 -0.1948 -0.8846
  554MOL0     C74715   9.380   9.215   5.995  1.1706 -0.4016  0.2157
  554MOL0     C74716   9.420   9.356   5.956 -0.4119 -0.2096 -0.8230
  554MOL0     C74717   9.418   9.385   5.805  0.4214 -0.3451 -0.2015
  554MOL0     C74718   9.285   9.370   5.738  0.5748  0.5528 -1.5662
  554MOL0     C74719   9.279   9.440   5.615 -0.7721 -1.0280  0.6593
  554MOL0     C74720   9.268   9.507   5.504  0.8519  0.6438 -1.1643
  554MOL0     C74721   9.340   8.919   5.999  0.2591 -0.7714  0.0724
  554MOL0     C74722   9.339   8.784   6.051  0.1825 -0.3478 -0.0029
  554MOL0     H74723   9.298   8.425   6.371  2.5887  0.1664 -0.2152
  554MOL0     H74724   9.304   8.180   6.429 -0.7647 -0.7676 -0.9477
  554MOL0     H74725   9.327   7.891   6.086 -0.5442 -1.1531  0.5151
  554MOL0     H74726   9.489   7.887   6.137 -0.7219 -1.4944 -0.2201
  554MOL0     H74727   9.271   7.725   6.277  2.1028  0.5705  1.2474
  554MOL0     H74728   9.359   7.665   6.150 -2.4745  0.9417  0.3974
  554MOL0     H74729   9.580   7.705   6.273 -0.7444  1.2804 -0.3364
  554MOL0     H74730   9.497   7.737   6.420  3.5301 -0.8127 -0.8176
  554MOL0     H74731   9.373   7.529   6.419 -0.7380  2.4228 -2.1248
  554MOL0     H74732   9.454   7.483   6.269 -1.0441  0.1871 -0.7976
  554MOL0     H74733   9.670   7.520   6.415  0.4349  1.6727  2.1375
  554MOL0     H74734   9.557   7.515   6.556 -0.6945  0.0019 -0.0416
  554MOL0     H74735   9.480   7.296   6.464 -0.3042 -2.1556 -0.0154
  554MOL0     H74736   9.606   7.311   6.350 -0.5396  0.7305  0.6091
  554MOL0     H74737   9.769   7.317   6.537 -1.3373  2.4142 -1.5741
  554MOL0     H74738   9.631   7.330   6.652 -1.2226 -0.0205 -0.5399
  554MOL0     H74739   9.668   7.097   6.467  0.1093 -3.1450  1.2936
  554MOL0     H74740   9.547   7.120   6.600 -1.2324  3.6244 -1.3152
  554MOL0     H74741   9.929   7.014   6.544 -3.0752 -3.1572 -1.8532
  554MOL0     H74742  10.107   6.897   6.694  0.5972  0.3704  2.6486
  554MOL0     H74743  10.080   6.868   6.852 -1.0332  1.5684  1.2817
  554MOL0     H74744  10.103   6.648   6.725 -1.1443 -0.7873  0.5186
  554MOL0     H74745   9.989   6.713   6.600 -1.0645  0.6467  0.5888
  554MOL0     H74746   9.800   6.675   6.754 -0.8543 -3.5307 -0.6358
  554MOL0     H74747   9.899   6.635   6.897  1.8372 -0.2138  0.2556
  554MOL0     H74748   9.976   6.446   6.821 -2.7990 -3.3768  1.9647
  554MOL0     H74749   9.913   6.467   6.649  0.3369 -0.3506 -0.1688
  554MOL0     H74750   9.832   6.359   7.027 -0.2556  2.2045 -2.3357
  554MOL0     H74751   9.860   6.224   7.205  0.1588 -0.7910 -1.2328
  554MOL0     H74752   9.727   6.128   7.228 -0.7768  1.7085 -0.9657
  554MOL0     H74753   9.886   6.051   7.178  1.0821  0.1763  0.4993
  554MOL0     H74754   9.867   5.668   6.990  1.0910 -1.0725 -0.9066
  554MOL0     H74755   9.851   5.435   7.025  2.2829 -0.0199 -1.2921
  554MOL0     H74756   9.479   5.206   6.884  0.7998  1.8624  0.2042
  554MOL0     H74757   9.573   5.088   6.964 -0.2085 -0.2882 -3.0979
  554MOL0     H74758   9.423   5.307   7.119  1.1845  1.5293 -2.6087
  554MOL0     H74759   9.402   5.130   7.117 -2.0324  0.5169 -2.0531
  554MOL0     H74760   9.666   5.177   7.196 -0.3204  0.3560 -0.6724
  554MOL0     H74761   9.544   5.119   7.300  0.1203 -0.4870  0.5090
  554MOL0     H74762   9.572   5.419   7.244  0.2767 -2.1697 -2.5109
  554MOL0     H74763   9.477   5.354   7.360 -0.1868  0.3132 -1.3452
  554MOL0     H74764   9.776   5.301   7.367 -0.2537 -0.3352  1.6465
  554MOL0     H74765   9.649   5.236   7.469  0.0134 -0.5324 -1.9576
  554MOL0     H74766   9.598   5.447   7.575 -1.4405 -3.0878 -0.1077
  554MOL0     H74767   9.770   5.428   7.573  0.3496 -0.9113 -0.4203
  554MOL0     H74768   9.689   5.649   7.536  3.9325  1.6757 -2.0727
  554MOL0     H74769   9.577   5.602   7.410 -0.9222 -0.1657  2.2887
  554MOL0     H74770   9.790   5.729   7.327  2.2676 -0.0020 -1.3763
  554MOL0     H74771   9.818   5.553   7.287  3.7156  0.3581  0.5636
  554MOL0     H74772   9.457   5.414   6.894  0.0640 -0.6952  0.2349
  554MOL0     H74773   9.444   5.669   6.883 -2.0210 -3.9873  0.8441
  554MOL0     H74774   9.652   6.003   6.738 -0.0754  3.0796 -2.8656
  554MOL0     H74775   9.673   6.198   6.656  3.6082 -3.4250 -0.7613
  554MOL0     H74776   9.404   8.080   6.018 -1.7540  1.7511 -2.0890
  554MOL0     H74777   9.403   8.309   5.963  0.7871 -0.1325  0.8201
  554MOL0     H74778   9.652   8.762   6.160  0.2069  1.5569  1.8063
  554MOL0     H74779   9.660   8.997   6.058 -0.6240  0.6659 -2.6381
  554MOL0     H74780   9.274   9.202   5.970  1.7025  0.8244 -3.0490
  554MOL0     H74781   9.387   9.220   6.104 -2.5135  0.4730  0.5496
  554MOL0     H74782   9.523   9.377   5.985 -0.6494  2.1525 -1.5299
  554MOL0     H74783   9.363   9.439   5.996  0.3722 -0.1912  0.3011
  554MOL0     H74784   9.498   9.331   5.752  1.9692  1.9356 -0.3514
  554MOL0     H74785   9.447   9.490   5.794 -0.0013 -0.3218 -1.2318
  554MOL0     H74786   9.202   9.411   5.797  4.2541  2.4937  2.8898
  554MOL0     H74787   9.259   9.264   5.728 -1.9641  0.7749  1.2121
  554MOL0     H74788   9.263   9.556   5.409  0.6102  1.5430 -0.7079
  554MOL0     H74789   9.254   8.967   5.954  1.8131  2.4377  0.2176
  554MOL0     H74790   9.241   8.737   6.050 -1.0796  2.0967  0.2438
  555MOL0     O74791   0.029   7.963   9.778 -0.1627  0.0148  0.2592
  555MOL0     C74792  -0.003   8.080   9.767 -0.0208  0.4508 -0.2910
  555MOL0     O74793  -0.018   8.171   9.871  0.0745 -0.9564  0.0814
  555MOL0     C74794   0.003   8.149  10.005 -0.2448 -0.0059 -0.8644
  555MOL0     C74795  -0.047   8.246  10.106  0.7419  0.0027  0.2549
  555MOL0     C74796  -0.047   8.213  10.243 -1.0124  0.3625  0.1609
  555MOL0     C74797   0.023   8.100  10.287 -0.3756 -0.4375 -0.3772
  555MOL0     O74798   0.032   8.073  10.421 -0.4517  0.3776 -0.4902
  555MOL0     C74799   0.040   7.940  10.471  0.1752  0.3992  0.2756
  555MOL0     C74800   0.024   7.945  10.618 -0.0551  0.1858 -0.5169
  555MOL0     C74801   0.026   7.802  10.691  0.7215 -0.4528  0.1514
  555MOL0     C74802   0.115   7.808  10.811  0.0890  1.0310  0.4288
  555MOL0     C74803   0.135   7.678  10.881 -1.1091 -0.4804  0.2330
  555MOL0     C74804   0.008   7.621  10.950  0.8209  0.4568 -0.4322
  555MOL0     C74805  -0.067   7.716  11.049 -0.8110 -0.6498  0.6020
  555MOL0     C74806  -0.174   7.656  11.135 -0.1340  0.1716 -0.0652
  555MOL0     N74807  -0.245   7.770  11.196 -0.2930  0.2960 -0.8501
  555MOL0     C74808  -0.377   7.806  11.176  0.6776  0.4725  2.0994
  555MOL0     C74809  -0.408   7.893  11.270 -0.5730  0.0984 -0.3811
  555MOL0     C74810  -0.550   7.952  11.304 -0.7190  0.4101  0.3191
  555MOL0     C74811  -0.628   7.865  11.398  0.4520  0.6942 -1.0775
  555MOL0     C74812  -0.546   7.829  11.518  1.0107  0.2617 -0.1802
  555MOL0     C74813  -0.643   7.779  11.623 -1.3242  0.1894 -1.1797
  555MOL0     O74814  -0.701   7.658  11.581 -0.4204  0.6321 -0.0481
  555MOL0     C74815  -0.739   7.565  11.675  0.6566  0.4669 -0.0765
  555MOL0     C74816  -0.870   7.510  11.679 -1.5845 -0.6778  0.8456
  555MOL0     C74817  -0.897   7.398  11.748  0.2908  0.0930 -0.2548
  555MOL0     C74818  -1.036   7.341  11.757 -0.0585  0.4622  0.1836
  555MOL0     C74819  -0.791   7.337  11.827  0.7750  0.1429 -0.6089
  555MOL0     C74820  -0.808   7.210  11.888 -0.6151 -0.2009 -0.2125
  555MOL0     O74821  -0.751   7.195  12.017 -0.7015  0.2438  0.5394
  555MOL0     C74822  -0.788   7.093  12.105 -0.6576  0.6705 -0.1807
  555MOL0     C74823  -0.718   7.097  12.227 -0.2934  0.0948  0.0207
  555MOL0     C74824  -0.765   7.015  12.330 -0.8288  0.2724 -1.0530
  555MOL0     C74825  -0.874   6.933  12.308  0.0837 -0.2260  0.1338
  555MOL0     O74826  -0.926   6.859  12.401  0.9348 -0.0803 -0.6917
  555MOL0     C74827  -0.840   6.754  12.462  0.3038 -0.3055  0.1331
  555MOL0     C74828  -0.882   6.624  12.394 -0.0616  0.0537 -0.0937
  555MOL0     C74829  -0.824   6.492  12.461 -0.8144 -0.6332  0.2985
  555MOL0     C74830  -0.897   6.363  12.423 -0.6390 -0.9226  0.1447
  555MOL0     C74831  -0.831   6.249  12.502  0.2164  0.2414  0.2422
  555MOL0     C74832  -0.909   6.235  12.630  0.6963  0.1092 -0.4822
  555MOL0     C74833  -0.828   6.179  12.743 -0.8949  0.2467 -0.8862
  555MOL0     C74834  -0.907   6.171  12.856  0.6679 -0.1691 -1.0904
  555MOL0    Cl74835  -0.960   6.314  12.941  0.0891  0.1796 -0.1779
  555MOL0     C74836  -0.938   6.933  12.188  0.2599  0.3868  0.2531
  555MOL0     C74837  -0.886   7.001  12.081 -0.4383  0.4574  0.3518
  555MOL0     O74838  -0.849   7.118  11.818  0.3113  0.3532 -0.3880
  555MOL0     C74839  -0.667   7.393  11.821  0.3959 -1.4746  0.3141
  555MOL0     C74840  -0.635   7.500  11.737 -0.2750 -0.6444 -0.4280
  555MOL0     N74841  -0.299   7.918  11.354 -0.1557  0.7101 -0.6239
  555MOL0     N74842  -0.200   7.837  11.304 -0.0071  0.2182  0.3993
  555MOL0     C74843   0.076   8.011  10.191  0.1815 -0.0131  0.7028
  555MOL0     C74844   0.072   8.042  10.057 -1.0752  0.5052  0.1592
  555MOL0     C74845  -0.006   8.127   9.631  0.0993  0.1675 -0.4239
  555MOL0     C74846  -0.017   8.043   9.522  0.0725 -1.1420  0.6465
  555MOL0     C74847  -0.012   8.098   9.391 -0.4798  0.7780  0.1344
  555MOL0     C74848  -0.010   8.229   9.369  0.6244  0.8382 -0.3190
  555MOL0     O74849  -0.012   8.264   9.231 -0.2366  0.2636  0.0913
  555MOL0     C74850   0.025   8.401   9.206 -0.0156 -0.8641 -0.7483
  555MOL0     C74851   0.036   8.418   9.054 -0.0867 -0.2824  0.6286
  555MOL0     C74852   0.083   8.556   9.012  0.9336 -0.6619  0.1386
  555MOL0     C74853   0.129   8.579   8.874  0.5404 -0.0053  0.2574
  555MOL0     C74854   0.273   8.566   8.858 -0.5276  0.4902  0.4312
  555MOL0     C74855   0.397   8.550   8.847  0.6740 -0.7308 -0.5328
  555MOL0     C74856  -0.018   8.313   9.483 -0.0656 -0.1385  0.7891
  555MOL0     C74857  -0.020   8.265   9.612 -0.3043 -0.5722 -0.1193
  555MOL0     H74858  -0.098   8.338  10.079 -0.0710 -0.1021  1.3980
  555MOL0     H74859  -0.103   8.267  10.319 -0.8280  2.2094 -0.9487
  555MOL0     H74860  -0.035   7.873  10.428  0.3341  0.3786  0.0282
  555MOL0     H74861   0.136   7.896  10.441  0.1299  0.9124 -0.6424
  555MOL0     H74862   0.094   8.018  10.659 -1.8486  0.5155  2.2201
  555MOL0     H74863  -0.074   7.992  10.629  0.4188  0.7681  1.4395
  555MOL0     H74864  -0.076   7.769  10.710  0.1015  1.1543 -0.1818
  555MOL0     H74865   0.069   7.736  10.614 -4.5427 -2.2161 -1.7376
  555MOL0     H74866   0.220   7.823  10.784  0.4183 -0.3135  0.8525
  555MOL0     H74867   0.079   7.883  10.882  0.8391  0.2141  1.7304
  555MOL0     H74868   0.180   7.597  10.822  4.3536 -0.0891  3.2013
  555MOL0     H74869   0.205   7.683  10.965  1.2198 -0.9186 -1.5805
  555MOL0     H74870  -0.060   7.605  10.865  1.3176  0.1049 -0.7691
  555MOL0     H74871   0.042   7.524  10.988  1.9174  1.0682  0.1684
  555MOL0     H74872   0.010   7.759  11.114  1.5871 -1.6532 -1.3975
  555MOL0     H74873  -0.108   7.799  10.991  0.7161 -0.5969 -0.4851
  555MOL0     H74874  -0.123   7.604  11.216 -0.6596  1.2816  1.0177
  555MOL0     H74875  -0.240   7.586  11.083  1.8105 -1.1360 -0.8919
  555MOL0     H74876  -0.446   7.777  11.097  1.3784  0.5605  1.4376
  555MOL0     H74877  -0.536   8.051  11.348 -0.4972 -1.0364  3.8230
  555MOL0     H74878  -0.610   7.959  11.213 -2.4280  1.7021  1.4771
  555MOL0     H74879  -0.658   7.778  11.339  0.1568 -1.6382  2.1977
  555MOL0     H74880  -0.717   7.918  11.435  0.3071 -0.6255  0.5589
  555MOL0     H74881  -0.497   7.920  11.551  1.6322  0.3299 -1.2491
  555MOL0     H74882  -0.470   7.756  11.490 -1.5999 -4.2726  3.0898
  555MOL0     H74883  -0.727   7.848  11.629 -1.3355  0.1582 -0.9416
  555MOL0     H74884  -0.594   7.761  11.720  3.0500 -3.7276 -3.6841
  555MOL0     H74885  -0.940   7.553  11.608  0.3112  2.7882  0.8399
  555MOL0     H74886  -1.057   7.308  11.859 -0.5732 -0.7328 -0.2820
  555MOL0     H74887  -1.117   7.410  11.732 -2.1793 -2.5521 -2.1066
  555MOL0     H74888  -1.054   7.255  11.691  0.1836 -2.8496  4.0185
  555MOL0     H74889  -0.656   7.184  12.245  0.5458 -0.6663  0.9303
  555MOL0     H74890  -0.729   7.027  12.432  0.8196  3.3951 -1.8638
  555MOL0     H74891  -0.739   6.774  12.425  0.3691 -1.7626 -0.5420
  555MOL0     H74892  -0.846   6.758  12.571 -2.7323 -0.8531  0.0695
  555MOL0     H74893  -0.988   6.609  12.375 -0.2693 -1.1053  1.7650
  555MOL0     H74894  -0.834   6.627  12.296  0.3753 -1.7057  0.0295
  555MOL0     H74895  -0.845   6.513  12.566 -1.5505  1.7014 -0.2406
  555MOL0     H74896  -0.723   6.474  12.425 -1.5463 -0.9593 -1.7644
  555MOL0     H74897  -1.005   6.365  12.439 -0.8543 -2.9128 -0.8295
  555MOL0     H74898  -0.870   6.342  12.319  0.2370 -0.7966  0.3343
  555MOL0     H74899  -0.723   6.258  12.521  0.7947 -1.1181 -2.0395
  555MOL0     H74900  -0.841   6.155  12.446 -0.6336  0.2755  0.3291
  555MOL0     H74901  -0.949   6.333  12.657  0.2258 -0.2350  0.0996
  555MOL0     H74902  -0.986   6.161  12.607 -0.0602  1.3138 -1.9893
  555MOL0     H74903  -0.750   6.251  12.769 -1.5310  2.1485 -3.8356
  555MOL0     H74904  -0.777   6.085  12.720  0.1087  0.7965 -0.9665
  555MOL0     H74905  -0.847   6.116  12.930  0.6389  0.4624 -0.5886
  555MOL0     H74906  -0.992   6.103  12.842  0.3074  0.0311  0.0149
  555MOL0     H74907  -1.029   6.876  12.173  1.0998 -0.9622  0.0988
  555MOL0     H74908  -0.943   6.986  11.989 -1.8557  0.1965  1.2365
  555MOL0     H74909  -0.594   7.342  11.884 -1.4824 -1.5603  2.5161
  555MOL0     H74910  -0.535   7.527  11.707 -0.5105  0.9519  0.1404
  555MOL0     H74911   0.141   7.926  10.211 -1.7012 -1.4624  0.9013
  555MOL0     H74912   0.128   7.971   9.997  1.8738  0.6224  2.5548
  555MOL0     H74913  -0.027   7.936   9.536  1.1120 -1.2028  0.9564
  555MOL0     H74914  -0.002   8.039   9.300 -0.5557  2.1893 -0.8110
  555MOL0     H74915  -0.050   8.476   9.231  0.1894 -0.6774 -0.6935
  555MOL0     H74916   0.118   8.422   9.259 -1.3888  1.2079  0.9919
  555MOL0     H74917  -0.068   8.398   9.026  0.3590 -1.6686 -0.1543
  555MOL0     H74918   0.103   8.345   9.007  1.6514  1.4478  0.2460
  555MOL0     H74919   0.154   8.589   9.087  0.6543 -0.2758  0.2357
  555MOL0     H74920   0.006   8.630   9.037  2.3620  0.5782  1.0597
  555MOL0     H74921   0.099   8.682   8.853 -4.4865 -0.9892  1.1815
  555MOL0     H74922   0.092   8.503   8.805  5.0123  0.0963 -2.6652
  555MOL0     H74923   0.499   8.546   8.816  1.1668  2.3285  0.3248
  555MOL0     H74924  -0.033   8.420   9.473  0.5902 -0.1317 -0.2155
  555MOL0     H74925  -0.024   8.322   9.705  0.0673  0.8360 -0.9351
  556MOL0     O74926   8.898   6.742   5.408 -0.2806  0.0374  0.0028
  556MOL0     C74927   8.935   6.683   5.308  0.0538 -0.2024  0.1631
  556MOL0     O74928   8.969   6.555   5.294 -0.3887  0.3953  0.7173
  556MOL0     C74929   8.932   6.471   5.396  1.5014 -0.5247  0.0500
  556MOL0     C74930   8.800   6.451   5.446 -0.3802 -0.6002  0.3958
  556MOL0     C74931   8.769   6.371   5.554  0.7749 -0.1296 -0.0373
  556MOL0     C74932   8.879   6.305   5.618  0.0950  0.2254 -0.2703
  556MOL0     O74933   8.852   6.250   5.741 -0.1805  0.4995 -0.1586
  556MOL0     C74934   8.920   6.131   5.783  0.3974  0.0630  0.0034
  556MOL0     C74935   8.991   6.134   5.924  0.6298  0.4575  1.0380
  556MOL0     C74936   9.097   6.018   5.950  0.2762 -0.6164  0.8812
  556MOL0     C74937   9.135   6.001   6.097  0.1063 -1.1928 -0.7771
  556MOL0     C74938   9.022   5.945   6.185 -0.1187 -0.9528 -0.2060
  556MOL0     C74939   9.057   5.922   6.333 -0.2547 -0.0342 -0.0416
  556MOL0     C74940   8.952   5.831   6.399  0.9592 -0.7956 -0.2251
  556MOL0     C74941   9.013   5.688   6.399 -1.3599 -0.1076  0.4571
  556MOL0     N74942   8.921   5.592   6.453 -0.0238 -0.7089  0.7401
  556MOL0     C74943   8.930   5.538   6.577 -0.2661 -0.1158 -0.6231
  556MOL0     C74944   8.807   5.485   6.611 -0.0519  0.7016  1.0967
  556MOL0     C74945   8.771   5.389   6.721  0.4871 -0.2505  0.2552
  556MOL0     C74946   8.805   5.245   6.672 -1.3428 -0.2577  0.1110
  556MOL0     C74947   8.943   5.234   6.604 -0.6131  0.8879  0.4970
  556MOL0     C74948   8.986   5.083   6.578  0.4212 -1.0993  1.3581
  556MOL0     O74949   8.940   5.044   6.446  0.3418 -0.8699  0.1650
  556MOL0     C74950   8.882   4.925   6.419 -0.1854  0.1909 -0.1954
  556MOL0     C74951   8.911   4.815   6.494 -0.7657  0.0826 -0.3461
  556MOL0     C74952   8.832   4.698   6.469 -0.3527 -0.3230  0.3989
  556MOL0     C74953   8.860   4.580   6.558 -0.2989  1.1484  0.5275
  556MOL0     C74954   8.740   4.690   6.362  0.5776  0.1645 -0.0160
  556MOL0     C74955   8.656   4.575   6.321 -0.3245 -0.1200  0.4267
  556MOL0     O74956   8.560   4.598   6.226 -0.8686 -0.9165  0.0430
  556MOL0     C74957   8.439   4.531   6.233  0.1662  0.1350 -0.6157
  556MOL0     C74958   8.442   4.395   6.191 -0.0389 -0.6923  0.1903
  556MOL0     C74959   8.328   4.326   6.169 -1.3913 -0.7191  1.5769
  556MOL0     C74960   8.206   4.373   6.211  0.2848 -0.1541 -0.2312
  556MOL0     O74961   8.107   4.280   6.186 -0.1146 -0.1516 -0.1079
  556MOL0     C74962   7.978   4.298   6.247  0.3700  0.2470  0.1759
  556MOL0     C74963   7.880   4.188   6.212 -0.2779  0.9656  0.6539
  556MOL0     C74964   7.875   4.147   6.062  0.9375  0.2655  1.8330
  556MOL0     C74965   7.761   4.044   6.051 -0.5176 -1.0437  0.1028
  556MOL0     C74966   7.632   4.089   6.116  0.3256 -0.2769  0.4148
  556MOL0     C74967   7.518   4.041   6.029 -0.0209 -0.5256  0.6252
  556MOL0     C74968   7.481   3.896   6.039 -0.0239 -0.7722  0.1092
  556MOL0     C74969   7.467   3.853   6.181  0.9261  0.5700 -0.3084
  556MOL0    Cl74970   7.369   3.974   6.278 -0.0690  0.5515  0.2509
  556MOL0     C74971   8.197   4.499   6.265  0.0120 -0.7030  1.0058
  556MOL0     C74972   8.313   4.586   6.264  0.0190 -0.3962  1.1139
  556MOL0     O74973   8.664   4.477   6.387 -0.8507 -0.3895 -0.4240
  556MOL0     C74974   8.719   4.807   6.279  0.7526 -0.0625 -0.9579
  556MOL0     C74975   8.793   4.920   6.310 -0.8106  0.6803 -0.3085
  556MOL0     N74976   8.731   5.498   6.495  0.0255  0.7141  0.3908
  556MOL0     N74977   8.801   5.568   6.410  1.1980 -0.7541 -0.5619
  556MOL0     C74978   9.006   6.318   5.558 -1.3488 -0.4062 -0.2981
  556MOL0     C74979   9.037   6.402   5.457 -0.0976 -0.2066  0.0964
  556MOL0     C74980   8.953   6.776   5.188 -0.0796 -0.0408  0.0177
  556MOL0     C74981   9.050   6.751   5.081 -0.2334  0.0817 -0.9970
  556MOL0     C74982   9.084   6.837   4.988  0.5912 -0.4520  0.7140
  556MOL0     C74983   9.013   6.964   4.991 -0.3758  0.3697  0.3875
  556MOL0     O74984   9.044   7.071   4.914  0.2938 -0.1364 -0.2131
  556MOL0     C74985   9.174   7.073   4.845  0.1591 -0.4873 -0.1333
  556MOL0     C74986   9.196   7.206   4.767 -0.0373 -0.2469  0.1216
  556MOL0     C74987   9.217   7.333   4.854  0.4281  0.4882 -0.1833
  556MOL0     C74988   9.253   7.440   4.758  0.0851  1.0041  0.5967
  556MOL0     C74989   9.301   7.562   4.818 -0.7050 -0.0571 -1.0694
  556MOL0     C74990   9.321   7.675   4.871 -0.1011  1.0136 -0.0739
  556MOL0     C74991   8.912   6.988   5.080 -0.7156 -0.6154 -0.6106
  556MOL0     C74992   8.884   6.897   5.178 -0.1394  0.4408 -0.1197
  556MOL0     H74993   8.721   6.486   5.380  0.5578  1.9641  0.5271
  556MOL0     H74994   8.664   6.360   5.578  1.1512  1.8428  3.0234
  556MOL0     H74995   8.851   6.047   5.769  1.6807 -0.4741 -5.0342
  556MOL0     H74996   8.997   6.112   5.708  0.9207  2.0257  0.0116
  556MOL0     H74997   9.049   6.226   5.933  2.2563 -0.6211  2.1949
  556MOL0     H74998   8.915   6.137   6.003  1.1911 -0.7108  1.6464
  556MOL0     H74999   9.062   5.920   5.917 -3.8990  0.4527  1.5536
  556MOL0     H75000   9.187   6.040   5.892 -0.2515  1.9640  0.9163
  556MOL0     H75001   9.221   5.934   6.107  0.5942 -0.1978  3.8572
  556MOL0     H75002   9.167   6.102   6.125 -2.4461 -0.1274 -1.4232
  556MOL0     H75003   8.941   6.019   6.187  2.2046  1.7552 -0.4087
  556MOL0     H75004   8.992   5.847   6.147 -1.8075 -0.1922 -0.9548
  556MOL0     H75005   9.154   5.876   6.356 -0.4687 -0.4548  0.0292
  556MOL0     H75006   9.056   6.020   6.382  0.4321  0.4014 -0.8642
  556MOL0     H75007   8.935   5.854   6.504 -2.7484 -0.7329 -0.7220
  556MOL0     H75008   8.854   5.838   6.352  0.7678 -0.1727  0.2548
  556MOL0     H75009   9.105   5.683   6.458 -1.6615  0.9788  1.0434
  556MOL0     H75010   9.028   5.657   6.295  1.4009 -0.7944  0.9770
  556MOL0     H75011   9.019   5.538   6.638  1.0595  2.6485 -2.3713
  556MOL0     H75012   8.830   5.408   6.811  1.6892 -1.9828 -0.1190
  556MOL0     H75013   8.668   5.414   6.748 -0.8244 -1.4223 -3.1338
  556MOL0     H75014   8.728   5.216   6.599  0.8012  0.5058 -2.6150
  556MOL0     H75015   8.811   5.186   6.764  3.3640  1.2512  1.0055
  556MOL0     H75016   9.025   5.270   6.667  0.9761 -1.5888 -0.0049
  556MOL0     H75017   8.945   5.286   6.508  1.1565 -0.1761 -0.0916
  556MOL0     H75018   8.942   5.021   6.657 -0.6355 -1.6271  0.3970
  556MOL0     H75019   9.093   5.083   6.600  0.2471  1.3066  2.4423
  556MOL0     H75020   8.976   4.802   6.580 -0.8547 -3.0949 -0.6525
  556MOL0     H75021   8.913   4.606   6.650  0.9961 -0.6438  0.3379
  556MOL0     H75022   8.759   4.551   6.591 -0.7447 -0.4504 -1.9918
  556MOL0     H75023   8.906   4.492   6.513 -3.4602 -0.1029 -0.5766
  556MOL0     H75024   8.541   4.352   6.175  1.0455  0.5602  2.8894
  556MOL0     H75025   8.348   4.227   6.129  3.1409  1.8063 -3.7474
  556MOL0     H75026   8.002   4.307   6.354 -1.1752 -0.4619  0.6085
  556MOL0     H75027   7.936   4.391   6.208  0.7123 -0.1741 -1.2540
  556MOL0     H75028   7.898   4.101   6.275 -1.0301  0.4618  0.1852
  556MOL0     H75029   7.783   4.220   6.251 -1.0946 -0.7831  0.1469
  556MOL0     H75030   7.967   4.093   6.036  0.7871  1.0211 -0.4273
  556MOL0     H75031   7.867   4.234   5.997  0.2701 -0.2935  1.1473
  556MOL0     H75032   7.747   4.032   5.943 -2.2097  2.3908 -0.2052
  556MOL0     H75033   7.792   3.948   6.093  1.5309 -0.3404  0.2879
  556MOL0     H75034   7.640   4.199   6.118 -0.0285 -0.2159  3.9771
  556MOL0     H75035   7.628   4.054   6.219  0.1776  0.6950  0.7565
  556MOL0     H75036   7.429   4.101   6.050 -0.8307 -0.6971 -1.8800
  556MOL0     H75037   7.527   4.080   5.927 -3.2228  3.3699  1.5794
  556MOL0     H75038   7.565   3.842   5.994  2.3427  2.2655  0.5900
  556MOL0     H75039   7.388   3.879   5.983 -3.0027 -0.0727  4.3272
  556MOL0     H75040   7.568   3.839   6.221  2.1631 -0.1666 -3.3956
  556MOL0     H75041   7.405   3.764   6.197 -0.3030  1.5002  0.1703
  556MOL0     H75042   8.102   4.544   6.291  0.5086  1.7690 -1.0322
  556MOL0     H75043   8.303   4.684   6.308  0.9608 -0.9703  2.6974
  556MOL0     H75044   8.660   4.814   6.188 -3.0586 -2.8363  1.0575
  556MOL0     H75045   8.787   5.005   6.242 -1.3967  0.2623 -0.7855
  556MOL0     H75046   9.099   6.276   5.594 -0.2753  1.3030 -0.9222
  556MOL0     H75047   9.141   6.420   5.434  0.0281 -0.4371  0.4617
  556MOL0     H75048   9.088   6.649   5.081 -1.4082 -0.3789 -2.1130
  556MOL0     H75049   9.172   6.836   4.924  1.9818  5.0892  2.0256
  556MOL0     H75050   9.268   7.055   4.898  0.5630  2.5616  0.3854
  556MOL0     H75051   9.165   6.998   4.767 -1.5692 -0.8402  0.3525
  556MOL0     H75052   9.124   7.223   4.686 -1.1673 -2.2307  0.6452
  556MOL0     H75053   9.291   7.185   4.718  0.0134 -4.9895  1.7694
  556MOL0     H75054   9.311   7.314   4.908  0.7539 -1.6253 -1.3705
  556MOL0     H75055   9.136   7.366   4.918  1.9350  1.1870  1.4496
  556MOL0     H75056   9.167   7.471   4.697  0.6216  0.6204 -0.3724
  556MOL0     H75057   9.328   7.400   4.690  2.0561  0.1885  3.0987
  556MOL0     H75058   9.341   7.766   4.924 -1.7770  0.9175  0.8024
  556MOL0     H75059   8.860   7.084   5.083  1.1446  0.4415 -0.6907
  556MOL0     H75060   8.810   6.923   5.253  1.5313  1.6488  1.1884
  557MOL0     O75061   7.626   6.881   7.414  0.8391  0.1957  1.0059
  557MOL0     C75062   7.747   6.869   7.441  0.2756  0.9150 -0.3310
  557MOL0     O75063   7.843   6.973   7.448  0.3900  0.2163 -0.1454
  557MOL0     C75064   7.810   7.108   7.426 -0.4580 -0.1795  0.7081
  557MOL0     C75065   7.731   7.150   7.319  0.6871  0.4874  0.5463
  557MOL0     C75066   7.680   7.280   7.304  0.3921 -0.4255 -0.5693
  557MOL0     C75067   7.711   7.377   7.401 -0.1723 -0.0501 -0.8780
  557MOL0     O75068   7.653   7.499   7.385  0.9360 -0.8531 -0.0951
  557MOL0     C75069   7.733   7.617   7.409 -0.0077  1.3766 -0.3461
  557MOL0     C75070   7.636   7.730   7.394 -0.1878 -0.4840 -0.1246
  557MOL0     C75071   7.544   7.735   7.516  0.0730 -0.7516  0.4610
  557MOL0     C75072   7.404   7.683   7.478 -0.5222 -0.9739  0.3455
  557MOL0     C75073   7.301   7.684   7.593 -0.8993  0.2397 -0.2754
  557MOL0     C75074   7.254   7.822   7.626  0.6352 -0.6102  0.2739
  557MOL0     C75075   7.180   7.899   7.511  0.7004 -1.0072 -0.5815
  557MOL0     C75076   7.099   8.021   7.559  0.0042  0.4395  0.5797
  557MOL0     N75077   6.996   7.989   7.659  0.0543 -0.5792  0.7404
  557MOL0     C75078   7.002   8.016   7.798  0.5222  0.6329  0.0240
  557MOL0     C75079   6.880   7.973   7.845 -0.0381 -0.3302  0.5399
  557MOL0     C75080   6.824   7.996   7.974  0.4847  0.1920 -0.5766
  557MOL0     C75081   6.790   8.138   7.998 -0.0913 -0.6998  0.5023
  557MOL0     C75082   6.736   8.173   8.134  0.1226 -0.0595 -0.0637
  557MOL0     C75083   6.700   8.331   8.139  0.8259 -0.0692  0.1535
  557MOL0     O75084   6.824   8.400   8.140  0.0494  1.0349  0.1687
  557MOL0     C75085   6.817   8.532   8.134 -0.5944 -0.6985  0.1280
  557MOL0     C75086   6.886   8.605   8.227 -0.2089  0.6907 -0.7312
  557MOL0     C75087   6.914   8.742   8.204  0.4841 -0.3039  0.0839
  557MOL0     C75088   7.020   8.802   8.301  0.6598 -0.2631 -0.3698
  557MOL0     C75089   6.869   8.806   8.088 -0.3527 -0.0867 -0.0371
  557MOL0     C75090   6.887   8.956   8.064  0.0901 -0.2410 -0.3592
  557MOL0     O75091   6.885   8.995   7.937 -0.5230 -0.5834  0.1106
  557MOL0     C75092   6.835   9.118   7.905  0.2148 -0.0346 -0.6275
  557MOL0     C75093   6.708   9.149   7.939  0.1078 -0.1875  0.6732
  557MOL0     C75094   6.643   9.261   7.900 -0.1359  1.2284  1.1583
  557MOL0     C75095   6.704   9.352   7.808 -0.1112  0.1377 -0.3442
  557MOL0     O75096   6.634   9.456   7.756  0.3579  0.3931  0.5146
  557MOL0     C75097   6.564   9.433   7.635 -0.1212  0.0707 -0.1385
  557MOL0     C75098   6.582   9.562   7.552 -0.9436  0.0308 -0.0840
  557MOL0     C75099   6.486   9.560   7.425 -1.2600  0.1540 -0.1180
  557MOL0     C75100   6.491   9.699   7.358  0.2371  0.1884 -0.8232
  557MOL0     C75101   6.485   9.685   7.213  0.7137  0.1827 -0.3788
  557MOL0     C75102   6.606   9.636   7.135 -0.5704 -0.7360 -0.4525
  557MOL0     C75103   6.581   9.616   6.985 -0.1857  0.3505  0.5523
  557MOL0     C75104   6.705   9.578   6.916 -1.1002 -0.0211 -0.8416
  557MOL0    Cl75105   6.718   9.548   6.736 -0.1510 -0.2140 -0.4284
  557MOL0     C75106   6.836   9.327   7.769  0.3919  0.5396 -0.4517
  557MOL0     C75107   6.900   9.203   7.815  0.3137  0.0170  0.5698
  557MOL0     O75108   6.909   9.037   8.157  0.2173 -0.0850 -1.2487
  557MOL0     C75109   6.792   8.725   8.004 -0.3499 -0.3882  1.0752
  557MOL0     C75110   6.774   8.592   8.019  0.2007  0.4485  1.1208
  557MOL0     N75111   6.808   7.919   7.741  0.5549  0.9453  0.4023
  557MOL0     N75112   6.875   7.942   7.627  0.2796  0.6850  0.1086
  557MOL0     C75113   7.809   7.345   7.501  0.3553 -0.3643 -0.5120
  557MOL0     C75114   7.850   7.213   7.523  0.2675 -0.0860  0.0196
  557MOL0     C75115   7.800   6.730   7.466  1.1666  0.2923 -0.2885
  557MOL0     C75116   7.715   6.614   7.441  0.7631 -0.1983  0.4410
  557MOL0     C75117   7.757   6.485   7.482  0.6331  0.2910 -0.8035
  557MOL0     C75118   7.891   6.465   7.531  0.3777 -0.1194 -0.0536
  557MOL0     O75119   7.938   6.336   7.553  0.6291  0.2125 -0.0906
  557MOL0     C75120   7.908   6.227   7.466 -0.0761 -0.7248  0.4149
  557MOL0     C75121   8.000   6.115   7.512  1.1065  1.4341 -0.0905
  557MOL0     C75122   7.954   6.057   7.651 -0.0095  0.2367 -0.0047
  557MOL0     C75123   8.012   5.908   7.694 -0.5163  0.1508 -0.1670
  557MOL0     C75124   7.964   5.805   7.595 -0.6304  0.1196  0.0840
  557MOL0     C75125   7.944   5.701   7.536 -0.2548  1.5784 -1.0654
  557MOL0     C75126   7.965   6.582   7.566 -0.7688  0.0410  0.7029
  557MOL0     C75127   7.919   6.714   7.533  0.3063 -1.2295  0.4334
  557MOL0     H75128   7.691   7.065   7.264  2.2645 -1.7170  2.5888
  557MOL0     H75129   7.615   7.296   7.219  0.8790 -3.3299 -1.5955
  557MOL0     H75130   7.779   7.627   7.508 -1.1718  6.1765 -0.0176
  557MOL0     H75131   7.818   7.622   7.340  1.1915  0.6880  1.0111
  557MOL0     H75132   7.688   7.826   7.395 -1.1181  0.0214  1.7027
  557MOL0     H75133   7.574   7.729   7.304 -2.8681 -1.2523  1.6300
  557MOL0     H75134   7.566   7.672   7.603  1.6854 -0.0804  0.5779
  557MOL0     H75135   7.537   7.842   7.539  1.5486  0.0346 -2.3488
  557MOL0     H75136   7.368   7.728   7.385 -0.1792 -1.0035  0.1951
  557MOL0     H75137   7.415   7.577   7.454 -4.1180 -1.1494 -1.2733
  557MOL0     H75138   7.212   7.624   7.568  0.6795 -2.3334 -0.0640
  557MOL0     H75139   7.357   7.635   7.673 -1.9576  2.1829  1.7473
  557MOL0     H75140   7.193   7.810   7.717 -0.6470 -1.8652 -0.6958
  557MOL0     H75141   7.336   7.885   7.660 -0.9854  1.5127  0.4521
  557MOL0     H75142   7.254   7.942   7.442  1.1067 -2.3970 -1.0588
  557MOL0     H75143   7.113   7.833   7.456 -1.1924 -0.8825  1.4465
  557MOL0     H75144   7.060   8.066   7.468  3.7292 -3.2012 -3.2237
  557MOL0     H75145   7.164   8.098   7.603 -0.3599  1.2441 -0.2533
  557MOL0     H75146   7.083   8.064   7.851  1.3926  1.3621 -1.8822
  557MOL0     H75147   6.731   7.941   7.993  0.2140  0.9478  0.3632
  557MOL0     H75148   6.893   7.965   8.053 -0.4113 -0.6475 -0.1036
  557MOL0     H75149   6.707   8.158   7.930  1.1014  3.2142 -0.0595
  557MOL0     H75150   6.869   8.206   7.965 -0.5838 -0.4465 -0.1968
  557MOL0     H75151   6.812   8.153   8.210  0.2100 -3.0461 -0.8164
  557MOL0     H75152   6.645   8.114   8.148 -0.8829  1.6211  0.8497
  557MOL0     H75153   6.649   8.357   8.232 -0.8480 -0.4845 -0.5973
  557MOL0     H75154   6.629   8.352   8.059  0.5640  1.7783  0.8228
  557MOL0     H75155   6.918   8.554   8.317 -3.6335 -2.2028 -0.9794
  557MOL0     H75156   7.089   8.721   8.327  1.2582 -0.1166 -1.4487
  557MOL0     H75157   7.083   8.882   8.262 -0.0688  0.7674  0.4859
  557MOL0     H75158   6.960   8.847   8.381 -0.7493  0.0429 -1.5652
  557MOL0     H75159   6.663   9.072   8.001  2.7748 -1.9321  0.6130
  557MOL0     H75160   6.539   9.279   7.924 -0.7749 -1.1899  0.5249
  557MOL0     H75161   6.603   9.347   7.579 -0.5936 -0.6556  0.6272
  557MOL0     H75162   6.460   9.400   7.643  0.4606 -2.4540 -1.6074
  557MOL0     H75163   6.570   9.651   7.615 -1.0436  1.1788 -1.6635
  557MOL0     H75164   6.685   9.575   7.519 -0.6268 -0.3428  0.7358
  557MOL0     H75165   6.384   9.542   7.460 -0.4522  2.1627  3.8579
  557MOL0     H75166   6.522   9.480   7.360  0.9222  1.7762 -1.0334
  557MOL0     H75167   6.413   9.764   7.399 -1.0058 -0.8450 -1.4903
  557MOL0     H75168   6.593   9.735   7.375  1.0325 -1.2720 -2.2341
  557MOL0     H75169   6.461   9.784   7.173 -1.8202 -0.3594 -0.3891
  557MOL0     H75170   6.407   9.613   7.187 -0.6179  1.7303 -0.8538
  557MOL0     H75171   6.672   9.722   7.144  0.9742 -1.9697  0.6483
  557MOL0     H75172   6.652   9.545   7.175  0.3618  0.4352  1.2501
  557MOL0     H75173   6.549   9.712   6.944 -0.7904 -0.2701 -0.4924
  557MOL0     H75174   6.495   9.554   6.957  0.5142  0.1482 -1.2755
  557MOL0     H75175   6.753   9.493   6.964 -0.5286  0.5102 -0.4571
  557MOL0     H75176   6.771   9.663   6.936  0.2169 -1.6131  2.2780
  557MOL0     H75177   6.896   9.400   7.717 -0.6721  1.3684 -0.5486
  557MOL0     H75178   7.001   9.182   7.781  0.5607  3.3663 -1.1744
  557MOL0     H75179   6.752   8.771   7.914 -0.2449 -0.6908  0.8732
  557MOL0     H75180   6.730   8.534   7.938  0.4061  2.3750 -0.4587
  557MOL0     H75181   7.851   7.427   7.558 -0.8561  0.2032 -0.3876
  557MOL0     H75182   7.912   7.183   7.607 -0.8918  0.6959  1.2010
  557MOL0     H75183   7.612   6.618   7.408  0.5057  0.2673  1.2660
  557MOL0     H75184   7.693   6.399   7.467  2.1065 -0.7990 -1.1240
  557MOL0     H75185   7.802   6.203   7.460 -0.2079 -0.5668  1.8234
  557MOL0     H75186   7.945   6.259   7.368  2.7099  1.8773  2.1474
  557MOL0     H75187   8.104   6.148   7.509  1.8645 -0.8045 -1.1521
  557MOL0     H75188   7.995   6.030   7.443  1.4357 -0.9521  2.6343
  557MOL0     H75189   7.845   6.061   7.655 -0.0899  0.8713 -1.6813
  557MOL0     H75190   7.979   6.130   7.728 -3.6726  4.1302 -2.1373
  557MOL0     H75191   7.976   5.876   7.792 -1.3445 -2.9919 -1.3710
  557MOL0     H75192   8.121   5.907   7.700 -0.4387 -2.6433 -0.7604
  557MOL0     H75193   7.921   5.621   7.468 -1.1287  1.4486 -0.6387
  557MOL0     H75194   8.067   6.574   7.602 -0.8661 -2.1818  0.6536
  557MOL0     H75195   7.990   6.796   7.544  0.8341 -1.7705  1.1252
  558MOL0     O75196   0.347   9.193   5.420  0.0875 -0.0147 -0.4629
  558MOL0     C75197   0.230   9.159   5.437  0.0199  0.3252 -0.0165
  558MOL0     O75198   0.187   9.081   5.542  0.6931 -0.6990 -1.0289
  558MOL0     C75199   0.215   9.147   5.666 -0.0157  0.0620  0.4940
  558MOL0     C75200   0.120   9.234   5.717 -0.3569  0.5272 -0.1542
  558MOL0     C75201   0.121   9.277   5.848 -1.0535  0.3454  0.4737
  558MOL0     C75202   0.234   9.247   5.926 -0.1915  0.1855 -0.3367
  558MOL0     O75203   0.249   9.292   6.060  0.2927  0.2311  0.0460
  558MOL0     C75204   0.144   9.361   6.125  0.2691  0.5753 -0.0919
  558MOL0     C75205   0.182   9.371   6.268 -0.2466  0.3264 -0.4948
  558MOL0     C75206   0.152   9.238   6.344 -0.6212  0.0584  0.8319
  558MOL0     C75207   0.212   9.110   6.284  0.6814 -0.1478  0.1143
  558MOL0     C75208   0.186   9.000   6.381  0.7051  0.0976  0.2521
  558MOL0     C75209   0.256   8.873   6.332  0.0204 -0.0950  0.8268
  558MOL0     C75210   0.211   8.752   6.418  0.0826  0.5921  0.5029
  558MOL0     C75211   0.237   8.762   6.565 -0.6863  0.1599  0.3155
  558MOL0     N75212   0.218   8.634   6.637 -0.6614 -0.3342 -0.0890
  558MOL0     C75213   0.290   8.514   6.610 -0.5032 -0.7947  0.1682
  558MOL0     C75214   0.243   8.431   6.700  0.2548  0.5047 -1.3428
  558MOL0     C75215   0.295   8.296   6.724  0.0098 -0.5426  0.1400
  558MOL0     C75216   0.403   8.249   6.633  0.1729  0.7363  0.1769
  558MOL0     C75217   0.451   8.112   6.669 -0.5890  0.3331 -0.2819
  558MOL0     C75218   0.400   7.988   6.592 -0.6385 -0.1891 -0.2016
  558MOL0     O75219   0.450   7.966   6.455 -1.0287 -0.0287  0.6551
  558MOL0     C75220   0.385   7.867   6.379  0.4805 -0.3264  0.3375
  558MOL0     C75221   0.417   7.865   6.246 -0.1846 -0.5265  0.1841
  558MOL0     C75222   0.377   7.759   6.167  0.0684 -0.6477  0.7065
  558MOL0     C75223   0.428   7.773   6.022 -0.0314  0.1122 -0.1112
  558MOL0     C75224   0.306   7.652   6.221  0.5706 -0.2737  0.6691
  558MOL0     C75225   0.253   7.541   6.143  0.1312  0.4085 -0.5239
  558MOL0     O75226   0.215   7.427   6.202  0.4038  0.4239  0.0852
  558MOL0     C75227   0.215   7.311   6.119  0.8678 -1.2775 -0.4488
  558MOL0     C75228   0.325   7.267   6.047  0.2652 -0.2581  0.1718
  558MOL0     C75229   0.306   7.147   5.975  0.4093 -0.4977  0.1059
  558MOL0     C75230   0.184   7.069   5.984 -0.5234  0.2344  0.0947
  558MOL0     O75231   0.166   6.951   5.917 -0.1080 -0.2707 -0.1772
  558MOL0     C75232   0.152   6.836   6.006  0.0826 -0.2973  0.1477
  558MOL0     C75233   0.270   6.732   5.989 -0.1816  1.2476 -0.3684
  558MOL0     C75234   0.301   6.683   5.849 -0.1141  0.4652  0.3627
  558MOL0     C75235   0.386   6.563   5.848  0.4632  0.3158  0.4611
  558MOL0     C75236   0.510   6.576   5.932  1.2487 -0.5892 -0.1576
  558MOL0     C75237   0.610   6.453   5.934 -0.4554 -0.3746 -0.3682
  558MOL0     C75238   0.550   6.333   6.005 -0.4204  0.1390 -0.0415
  558MOL0     C75239   0.657   6.227   6.058 -0.9076  0.5201 -0.0701
  558MOL0    Cl75240   0.740   6.301   6.193  0.1985  0.1294  0.4885
  558MOL0     C75241   0.089   7.115   6.068  0.5515  0.4855 -0.6537
  558MOL0     C75242   0.099   7.234   6.134  0.0979  0.7795 -0.4084
  558MOL0     O75243   0.259   7.555   6.018  0.3580  0.0337 -0.3480
  558MOL0     C75244   0.275   7.657   6.359 -0.0452 -0.0108  0.8362
  558MOL0     C75245   0.310   7.764   6.436 -0.6593 -0.7203 -0.6364
  558MOL0     N75246   0.140   8.494   6.777 -0.2217  0.8304 -0.0199
  558MOL0     N75247   0.123   8.611   6.731  0.1234  0.2822  0.7177
  558MOL0     C75248   0.330   9.151   5.874 -0.5094  0.0475 -1.1843
  558MOL0     C75249   0.322   9.102   5.747  0.4710 -0.6521 -0.2943
  558MOL0     C75250   0.128   9.191   5.333  0.4107  0.7465  0.0406
  558MOL0     C75251   0.010   9.112   5.316  0.3284  0.2351 -0.1009
  558MOL0     C75252  -0.079   9.128   5.210  0.0079 -1.2691  0.6725
  558MOL0     C75253  -0.055   9.235   5.116  0.2136  0.6444 -0.5602
  558MOL0     O75254  -0.126   9.268   5.009  0.6761  0.0618  0.1208
  558MOL0     C75255  -0.226   9.178   4.970 -0.2911  0.4228 -0.3993
  558MOL0     C75256  -0.270   9.213   4.825 -0.8990  0.3957 -0.7221
  558MOL0     C75257  -0.153   9.186   4.727 -0.0416 -0.2617 -0.3394
  558MOL0     C75258  -0.169   9.062   4.645 -0.0571 -0.0269 -0.1447
  558MOL0     C75259  -0.177   8.948   4.739 -0.5221 -1.1738 -0.8214
  558MOL0     C75260  -0.191   8.850   4.813 -0.5827 -0.7131 -0.2168
  558MOL0     C75261   0.053   9.321   5.128 -0.0051  0.0907 -0.8759
  558MOL0     C75262   0.147   9.293   5.232  0.6187 -0.7871 -0.0648
  558MOL0     H75263   0.029   9.257   5.664 -0.9681 -2.5555 -0.6110
  558MOL0     H75264   0.040   9.341   5.882 -0.7437  1.1060 -0.2054
  558MOL0     H75265   0.137   9.460   6.078 -0.0699  0.7431  0.3020
  558MOL0     H75266   0.048   9.313   6.108  0.7787 -0.6460  0.3732
  558MOL0     H75267   0.289   9.382   6.288 -0.1215 -1.1016 -0.3002
  558MOL0     H75268   0.133   9.456   6.317  0.0473 -1.8672  4.1562
  558MOL0     H75269   0.186   9.237   6.448  1.2208 -2.1796  0.2883
  558MOL0     H75270   0.044   9.222   6.348 -1.2000  3.4274  1.5179
  558MOL0     H75271   0.159   9.080   6.193  0.0527  1.0984  0.0490
  558MOL0     H75272   0.313   9.129   6.248 -0.1046 -0.1260 -2.2639
  558MOL0     H75273   0.226   9.030   6.478 -2.1557  0.1040  1.5314
  558MOL0     H75274   0.080   8.976   6.395  1.4937 -3.4195  1.3651
  558MOL0     H75275   0.221   8.840   6.233  3.0105 -0.1798 -0.3093
  558MOL0     H75276   0.363   8.888   6.318 -0.5427  2.8490 -1.1840
  558MOL0     H75277   0.107   8.718   6.413  0.0957  0.3043  1.7834
  558MOL0     H75278   0.272   8.670   6.379  1.0350  1.8315 -0.7259
  558MOL0     H75279   0.171   8.828   6.622  1.2467 -0.4504  3.4916
  558MOL0     H75280   0.339   8.800   6.573 -0.2511 -1.2210  1.7859
  558MOL0     H75281   0.375   8.490   6.546 -1.0524 -0.7378 -0.6086
  558MOL0     H75282   0.339   8.301   6.824  0.9854 -0.7412 -0.2609
  558MOL0     H75283   0.216   8.223   6.738  0.5999 -0.9563  1.4900
  558MOL0     H75284   0.481   8.326   6.643 -0.7035  2.1512 -2.6402
  558MOL0     H75285   0.379   8.260   6.527  0.5274 -0.2341 -0.0115
  558MOL0     H75286   0.426   8.093   6.774  1.5951  0.6441  0.3536
  558MOL0     H75287   0.560   8.117   6.665 -0.6544  1.7820 -0.6049
  558MOL0     H75288   0.293   8.011   6.582 -0.7909 -0.0933  1.3583
  558MOL0     H75289   0.422   7.903   6.657  2.6830  0.7652  0.0997
  558MOL0     H75290   0.462   7.956   6.208  1.2354 -1.6156 -0.8605
  558MOL0     H75291   0.519   7.833   6.011  0.6475 -0.9191 -0.2535
  558MOL0     H75292   0.456   7.676   5.981 -1.3745  1.4816 -4.7845
  558MOL0     H75293   0.352   7.826   5.965 -0.0810 -0.2486 -0.3839
  558MOL0     H75294   0.419   7.320   6.032 -0.7676  1.6088  0.0014
  558MOL0     H75295   0.396   7.120   5.920  1.0121 -1.7934  1.6422
  558MOL0     H75296   0.140   6.871   6.109 -0.0513  0.0108  0.0297
  558MOL0     H75297   0.052   6.798   5.984 -1.0302  2.3621  0.2183
  558MOL0     H75298   0.353   6.788   6.031  0.0254  1.5898 -1.2134
  558MOL0     H75299   0.232   6.648   6.049  0.7071  0.5129 -0.8121
  558MOL0     H75300   0.345   6.758   5.782  1.4451 -2.5293 -2.2477
  558MOL0     H75301   0.206   6.662   5.798  0.7861  2.2426 -2.3138
  558MOL0     H75302   0.328   6.479   5.888  1.4616 -1.1785 -1.1049
  558MOL0     H75303   0.416   6.555   5.743 -1.7102 -0.0708 -0.1790
  558MOL0     H75304   0.484   6.600   6.035 -0.9510 -3.6611  0.1595
  558MOL0     H75305   0.560   6.658   5.880  2.6498 -1.6379 -0.5478
  558MOL0     H75306   0.648   6.422   5.836 -1.5338 -0.9670 -0.6125
  558MOL0     H75307   0.700   6.478   5.991 -0.0857  0.7973 -1.4284
  558MOL0     H75308   0.494   6.273   5.932  0.2058  0.6744 -0.9901
  558MOL0     H75309   0.482   6.374   6.081  1.4435  1.6525  0.8828
  558MOL0     H75310   0.723   6.186   5.982 -2.0855 -0.1403 -0.7595
  558MOL0     H75311   0.609   6.137   6.098 -1.3366  0.1725 -1.3231
  558MOL0     H75312   0.001   7.054   6.079  1.9320 -1.8779 -1.9354
  558MOL0     H75313   0.028   7.282   6.201  1.5376 -0.4343  2.1376
  558MOL0     H75314   0.226   7.570   6.402 -0.5049 -1.0807 -1.6875
  558MOL0     H75315   0.275   7.771   6.539  0.2417  2.6566 -0.4481
  558MOL0     H75316   0.411   9.124   5.941 -0.9200  0.3743 -0.5435
  558MOL0     H75317   0.400   9.035   5.712  1.9547 -1.3391  3.8417
  558MOL0     H75318  -0.012   9.040   5.394  0.2575  2.6560  2.2844
  558MOL0     H75319  -0.175   9.079   5.199 -1.3072  0.9552  1.5365
  558MOL0     H75320  -0.200   9.072   4.976 -0.2578  0.5160  2.2374
  558MOL0     H75321  -0.310   9.192   5.038  0.1389  0.1021  0.2078
  558MOL0     H75322  -0.285   9.320   4.812 -0.3643  0.4003 -1.3619
  558MOL0     H75323  -0.361   9.157   4.805 -2.6427  2.5231  0.8244
  558MOL0     H75324  -0.060   9.182   4.785 -0.2831  2.5048  0.3701
  558MOL0     H75325  -0.144   9.275   4.663 -2.4889  0.8911  0.7863
  558MOL0     H75326  -0.095   9.059   4.565  1.2458  1.6448  0.9255
  558MOL0     H75327  -0.267   9.061   4.597 -1.4087  0.1486  2.4119
  558MOL0     H75328  -0.204   8.760   4.871 -0.6920  0.1398  1.1249
  558MOL0     H75329   0.062   9.403   5.057  1.2691 -0.5345 -1.4689
  558MOL0     H75330   0.236   9.353   5.246  2.1302 -2.5500 -1.5124
  559MOL0     O75331   7.562   5.714   4.543 -0.1957  0.0464  0.5659
  559MOL0     C75332   7.525   5.673   4.655 -0.4040  0.5264  0.5885
  559MOL0     O75333   7.512   5.758   4.769 -0.0105  0.2796 -0.1321
  559MOL0     C75334   7.518   5.897   4.756 -0.6828  0.1775  0.4357
  559MOL0     C75335   7.593   5.979   4.846 -1.1656  0.9261  0.2653
  559MOL0     C75336   7.596   6.117   4.839  0.0549  0.3163 -0.2839
  559MOL0     C75337   7.541   6.176   4.727  0.4651 -0.1841 -0.6543
  559MOL0     O75338   7.552   6.306   4.692 -0.3157  0.0774 -0.0549
  559MOL0     C75339   7.672   6.385   4.723  0.4234 -0.0669  0.2293
  559MOL0     C75340   7.642   6.528   4.691 -0.2379  0.6992  0.3699
  559MOL0     C75341   7.517   6.577   4.759  0.5577  0.0339  0.0982
  559MOL0     C75342   7.448   6.700   4.702  0.1612  0.0894 -0.3148
  559MOL0     C75343   7.307   6.687   4.662  0.4283  0.1320 -0.8092
  559MOL0     C75344   7.287   6.592   4.547  0.5746  0.0905  0.2818
  559MOL0     C75345   7.136   6.584   4.526  0.4082  0.0690  0.0862
  559MOL0     C75346   7.071   6.458   4.465  0.2532  0.4952  0.2763
  559MOL0     N75347   7.144   6.412   4.352 -0.0843  0.2251  0.6191
  559MOL0     C75348   7.121   6.435   4.217 -0.2523  0.8066 -0.3785
  559MOL0     C75349   7.184   6.345   4.141 -0.2748 -0.1867  0.3223
  559MOL0     C75350   7.194   6.339   3.991 -0.4246  0.1974  0.7182
  559MOL0     C75351   7.216   6.473   3.921  0.1224  0.1116  0.2490
  559MOL0     C75352   7.348   6.543   3.948 -0.4379  0.5103 -1.1879
  559MOL0     C75353   7.405   6.609   3.819  0.9092 -0.4041  0.0445
  559MOL0     O75354   7.541   6.574   3.821 -0.2468  0.7238 -0.1078
  559MOL0     C75355   7.614   6.580   3.704  1.1996  0.3044  0.6904
  559MOL0     C75356   7.661   6.461   3.658  0.2255  0.0076  0.9877
  559MOL0     C75357   7.729   6.450   3.529 -0.3240 -0.1183 -0.3036
  559MOL0     C75358   7.799   6.312   3.500  0.7894 -0.1130  0.6808
  559MOL0     C75359   7.756   6.572   3.456 -0.0255 -0.7968 -0.0188
  559MOL0     C75360   7.814   6.585   3.323  0.5511  1.2895 -0.4664
  559MOL0     O75361   7.817   6.709   3.260 -0.5942  0.1251  0.2141
  559MOL0     C75362   7.873   6.713   3.128  0.4068 -0.9395 -0.0919
  559MOL0     C75363   7.791   6.730   3.021 -0.2086 -0.3161  0.0259
  559MOL0     C75364   7.853   6.749   2.895 -1.1716  0.6408 -0.2921
  559MOL0     C75365   7.993   6.742   2.876 -0.5421  0.5738  1.0400
  559MOL0     O75366   8.060   6.760   2.760  0.1683  0.3556  1.2840
  559MOL0     C75367   8.024   6.684   2.646  0.5709 -0.5684  0.6897
  559MOL0     C75368   8.148   6.672   2.559  0.7112  0.5406  0.5644
  559MOL0     C75369   8.238   6.798   2.542  0.1840 -0.3054 -0.3465
  559MOL0     C75370   8.365   6.769   2.466 -0.6324  0.0265 -0.1790
  559MOL0     C75371   8.473   6.870   2.488 -1.1268  0.1462  0.6000
  559MOL0     C75372   8.607   6.831   2.409 -0.1821 -0.3879  0.1062
  559MOL0     C75373   8.704   6.952   2.396  0.3792 -0.0764 -0.6992
  559MOL0     C75374   8.847   6.920   2.351  0.6588  0.9298  0.3503
  559MOL0    Cl75375   8.943   6.791   2.443 -0.2024  0.3655 -0.5220
  559MOL0     C75376   8.067   6.733   2.995 -0.3796  0.1723  0.4738
  559MOL0     C75377   8.014   6.718   3.124  0.7230  0.8341  0.8350
  559MOL0     O75378   7.871   6.487   3.278 -0.0311  0.2422  0.3323
  559MOL0     C75379   7.714   6.696   3.522 -0.5727  0.0110 -0.4196
  559MOL0     C75380   7.646   6.695   3.642  0.7977 -0.5558  0.5966
  559MOL0     N75381   7.258   6.267   4.232 -0.3879  0.5833  0.0272
  559MOL0     N75382   7.241   6.317   4.347 -0.4330  0.3499 -0.2549
  559MOL0     C75383   7.470   6.098   4.631 -0.2061  0.6569 -0.0076
  559MOL0     C75384   7.453   5.961   4.653  0.1564 -0.6249  0.2168
  559MOL0     C75385   7.511   5.521   4.669  0.2088 -0.7115 -0.3127
  559MOL0     C75386   7.519   5.438   4.555 -1.3480  0.5373 -1.0451
  559MOL0     C75387   7.492   5.299   4.560 -0.1876 -0.6748 -0.3703
  559MOL0     C75388   7.454   5.237   4.686 -0.4978  0.4730  0.1188
  559MOL0     O75389   7.425   5.102   4.685 -0.3490 -0.4355  0.2146
  559MOL0     C75390   7.377   5.053   4.559 -0.2562 -0.7438 -0.9523
  559MOL0     C75391   7.313   4.924   4.597  0.2596 -0.0612 -0.0607
  559MOL0     C75392   7.249   4.851   4.475 -1.0200 -0.4065 -0.4393
  559MOL0     C75393   7.171   4.730   4.523  0.0700 -0.0160  0.3008
  559MOL0     C75394   7.257   4.625   4.574  0.0248 -0.5319 -0.1569
  559MOL0     C75395   7.316   4.528   4.623 -0.0250 -0.6454  0.1576
  559MOL0     C75396   7.453   5.321   4.797  0.4817  0.3523 -0.1571
  559MOL0     C75397   7.477   5.463   4.794 -0.4454  0.6561  0.8712
  559MOL0     H75398   7.650   5.926   4.921  1.5782 -1.8529 -3.3865
  559MOL0     H75399   7.650   6.179   4.909  1.7012 -0.9257 -0.3844
  559MOL0     H75400   7.699   6.375   4.829 -2.9172  0.2870  1.2420
  559MOL0     H75401   7.753   6.347   4.659 -1.8720 -2.9644 -1.2061
  559MOL0     H75402   7.721   6.599   4.717  0.5209 -0.4380  1.2836
  559MOL0     H75403   7.633   6.515   4.583  1.4513 -0.7127  0.3498
  559MOL0     H75404   7.442   6.498   4.772 -0.1268  0.3970 -1.4903
  559MOL0     H75405   7.556   6.607   4.857  0.6283 -0.8282  0.3430
  559MOL0     H75406   7.448   6.776   4.780 -3.4781 -2.1814  2.2658
  559MOL0     H75407   7.497   6.740   4.613 -0.8097  2.4188  0.1256
  559MOL0     H75408   7.242   6.659   4.746 -0.8224  1.5645 -1.2551
  559MOL0     H75409   7.274   6.783   4.622  0.5519 -0.6893 -3.0063
  559MOL0     H75410   7.323   6.624   4.449 -4.3845  3.9555 -0.6571
  559MOL0     H75411   7.319   6.490   4.573 -2.6154 -0.4514  2.8404
  559MOL0     H75412   7.081   6.592   4.620 -0.8755 -1.4579 -0.4939
  559MOL0     H75413   7.107   6.661   4.455  2.8956  3.3421  2.2866
  559MOL0     H75414   6.971   6.492   4.437 -0.2734  2.4614  3.9798
  559MOL0     H75415   7.066   6.375   4.537 -3.3144  0.1904 -0.1698
  559MOL0     H75416   7.054   6.509   4.174  0.5095  1.4018 -0.5613
  559MOL0     H75417   7.277   6.274   3.961  0.8146  2.2414 -0.5056
  559MOL0     H75418   7.101   6.288   3.962  0.0090 -0.2591  0.1079
  559MOL0     H75419   7.133   6.538   3.949 -0.1052  0.4843 -1.2440
  559MOL0     H75420   7.212   6.456   3.813 -1.6461 -0.9530  0.4502
  559MOL0     H75421   7.426   6.480   3.992 -1.3139 -0.5265 -1.0913
  559MOL0     H75422   7.340   6.624   4.022  2.3742  0.5772 -0.8254
  559MOL0     H75423   7.398   6.716   3.839 -0.6378 -0.9114  2.6746
  559MOL0     H75424   7.356   6.573   3.727  2.3610 -0.1357 -0.8698
  559MOL0     H75425   7.644   6.369   3.714  0.2001  0.0290  1.0152
  559MOL0     H75426   7.808   6.285   3.394  0.6893 -1.1777  0.9257
  559MOL0     H75427   7.890   6.295   3.558  0.7928 -0.9487  0.4432
  559MOL0     H75428   7.739   6.226   3.532 -0.2585  0.2345 -0.3114
  559MOL0     H75429   7.684   6.746   3.033 -0.1770 -1.4150  2.4097
  559MOL0     H75430   7.787   6.781   2.815 -2.0191 -0.5927 -0.1310
  559MOL0     H75431   7.992   6.585   2.680 -1.0849 -0.5395 -0.6610
  559MOL0     H75432   7.948   6.736   2.588 -0.8340 -3.0328  0.1678
  559MOL0     H75433   8.209   6.593   2.605  0.5971 -1.4278 -2.4341
  559MOL0     H75434   8.115   6.642   2.459  0.3752  1.4351  0.4011
  559MOL0     H75435   8.258   6.832   2.644 -6.8636  0.9026  1.1332
  559MOL0     H75436   8.191   6.885   2.497 -0.6561  0.3506  1.6879
  559MOL0     H75437   8.396   6.672   2.504 -1.7641 -0.8753 -1.4454
  559MOL0     H75438   8.333   6.754   2.362 -2.2334 -0.1970  0.3263
  559MOL0     H75439   8.487   6.872   2.597  0.5873  1.4113  0.4022
  559MOL0     H75440   8.447   6.969   2.448  4.2914  1.1308 -1.3911
  559MOL0     H75441   8.649   6.747   2.464 -1.2441  0.3318  2.1448
  559MOL0     H75442   8.586   6.804   2.305 -0.7337  0.9176 -0.1435
  559MOL0     H75443   8.715   7.004   2.492 -3.5298 -0.4723  0.1305
  559MOL0     H75444   8.653   7.027   2.334 -1.6115  0.8482  1.8328
  559MOL0     H75445   8.903   7.013   2.363  1.0119  0.7007  0.4882
  559MOL0     H75446   8.853   6.902   2.244  3.4010  1.3125  0.3754
  559MOL0     H75447   8.174   6.743   2.979 -0.5349  2.3795  0.5967
  559MOL0     H75448   8.070   6.720   3.216  0.0773 -0.7544  1.2945
  559MOL0     H75449   7.741   6.794   3.486 -1.6225 -0.5341 -2.9597
  559MOL0     H75450   7.598   6.779   3.691 -2.2521 -2.7160  1.5765
  559MOL0     H75451   7.434   6.140   4.537  0.3120  0.0609 -0.4788
  559MOL0     H75452   7.391   5.908   4.581  1.2628 -1.3714 -0.2016
  559MOL0     H75453   7.546   5.476   4.457 -1.0618 -1.3369 -1.7291
  559MOL0     H75454   7.500   5.244   4.467 -0.8207 -2.0712  0.3669
  559MOL0     H75455   7.306   5.123   4.516 -0.6572 -2.8152 -4.0077
  559MOL0     H75456   7.461   5.044   4.490  2.0378 -0.5962  1.6445
  559MOL0     H75457   7.239   4.936   4.677 -2.4293 -3.1270 -1.8217
  559MOL0     H75458   7.391   4.860   4.639  3.1045  1.1386 -3.0697
  559MOL0     H75459   7.315   4.835   4.390 -1.7715  2.3550 -1.6388
  559MOL0     H75460   7.180   4.922   4.428  1.2272  0.8559 -2.0268
  559MOL0     H75461   7.125   4.681   4.436  0.0697 -1.5717  1.1392
  559MOL0     H75462   7.090   4.761   4.589 -1.3973  0.5724 -1.6708
  559MOL0     H75463   7.363   4.439   4.657  0.0971 -0.7206 -0.2050
  559MOL0     H75464   7.416   5.268   4.884  3.1668 -2.3213 -0.4519
  559MOL0     H75465   7.469   5.514   4.889  0.2656 -2.9121  3.0288
  560MOL0     O75466   4.423   7.351  10.454 -0.5174 -0.5557 -0.6564
  560MOL0     C75467   4.373   7.328  10.349  0.0751  0.3295  0.7299
  560MOL0     O75468   4.419   7.363  10.224  0.4607 -0.4061 -0.2231
  560MOL0     C75469   4.543   7.418  10.214  0.5651 -0.2472 -0.7221
  560MOL0     C75470   4.659   7.361  10.273 -0.7790  0.1369 -0.0427
  560MOL0     C75471   4.779   7.427  10.245  0.8017  0.4378  0.1863
  560MOL0     C75472   4.790   7.530  10.155 -0.6870 -0.8450  0.5233
  560MOL0     O75473   4.919   7.573  10.122  0.7619  0.2310 -0.2865
  560MOL0     C75474   4.988   7.476  10.042  0.0224  0.1283 -0.3539
  560MOL0     C75475   4.934   7.476   9.903 -0.3682 -0.1707 -0.2005
  560MOL0     C75476   5.028   7.386   9.819 -0.5622 -0.5176  0.2832
  560MOL0     C75477   5.149   7.469   9.781 -0.2761  1.1574 -0.1848
  560MOL0     C75478   5.238   7.368   9.698  0.9778 -0.9029 -0.8960
  560MOL0     C75479   5.259   7.418   9.552 -0.9212  1.5475  0.2648
  560MOL0     C75480   5.357   7.541   9.538  0.6908  0.0268 -0.7682
  560MOL0     C75481   5.395   7.584   9.398  0.1679  1.0813  0.3164
  560MOL0     N75482   5.453   7.716   9.391  0.3916 -0.0826  0.2192
  560MOL0     C75483   5.555   7.760   9.471  0.2542  0.4250 -0.6011
  560MOL0     C75484   5.562   7.891   9.471  0.2400 -0.4701  0.3620
  560MOL0     C75485   5.653   7.966   9.552  0.0668 -0.8127  0.1263
  560MOL0     C75486   5.590   8.095   9.615 -0.1940 -0.2774  0.4177
  560MOL0     C75487   5.515   8.061   9.740 -1.1979  0.1900  0.0658
  560MOL0     C75488   5.483   8.194   9.802 -0.3133 -0.0672  0.3323
  560MOL0     O75489   5.389   8.155   9.903  0.2688 -0.1655 -0.1096
  560MOL0     C75490   5.266   8.217   9.889  0.5067 -0.5300 -0.6195
  560MOL0     C75491   5.180   8.206   9.775 -0.0852  0.1922 -0.1164
  560MOL0     C75492   5.055   8.268   9.761  0.4863 -0.0435 -0.4867
  560MOL0     C75493   4.990   8.268   9.625 -0.1607  0.8246 -0.1720
  560MOL0     C75494   5.018   8.343   9.875 -0.1911 -0.0473 -0.0303
  560MOL0     C75495   4.888   8.419   9.881  0.0948  0.2465 -0.1755
  560MOL0     O75496   4.879   8.509   9.980 -0.2882 -0.1330  0.8906
  560MOL0     C75497   4.776   8.594   9.982  0.3229 -2.0665  0.3493
  560MOL0     C75498   4.776   8.716   9.919 -0.3953 -0.5343 -0.1445
  560MOL0     C75499   4.656   8.789   9.903 -0.3627 -0.2551  0.6009
  560MOL0     C75500   4.542   8.753   9.975  0.4300 -0.1124 -0.4470
  560MOL0     O75501   4.429   8.826   9.987 -0.3213  0.0767  0.3841
  560MOL0     C75502   4.428   8.968  10.007 -0.3538 -0.1196  0.1937
  560MOL0     C75503   4.289   8.992  10.057 -0.3167 -0.0763  0.6667
  560MOL0     C75504   4.266   9.138  10.102 -0.5514 -0.8228  0.3933
  560MOL0     C75505   4.259   9.236   9.986  0.2125  0.4925  0.1531
  560MOL0     C75506   4.280   9.378  10.026 -0.9648  0.6018  0.1702
  560MOL0     C75507   4.200   9.432  10.141 -0.0385 -0.0138  0.3712
  560MOL0     C75508   4.240   9.573  10.173 -0.0236  0.4415 -0.8410
  560MOL0     C75509   4.132   9.631  10.274 -0.0549  0.1366 -0.5798
  560MOL0    Cl75510   4.190   9.777  10.361 -0.0232  0.1087 -0.3178
  560MOL0     C75511   4.543   8.633  10.044  0.6242  0.2902 -0.7086
  560MOL0     C75512   4.655   8.548  10.039 -0.4103  0.7983 -1.0138
  560MOL0     O75513   4.805   8.395   9.796 -0.3603 -0.5699 -0.2866
  560MOL0     C75514   5.100   8.342   9.986 -0.6683 -0.1584 -1.4454
  560MOL0     C75515   5.226   8.286  10.000  0.7042  0.0645 -0.1226
  560MOL0     N75516   5.467   7.939   9.383  0.0963  0.4211  1.5544
  560MOL0     N75517   5.400   7.830   9.340 -0.4886 -0.1103 -0.2129
  560MOL0     C75518   4.677   7.590  10.099 -0.2160  1.1542  0.5682
  560MOL0     C75519   4.551   7.529  10.125  0.0146  0.6092 -0.6053
  560MOL0     C75520   4.255   7.240  10.345  0.1754 -0.0255  0.3551
  560MOL0     C75521   4.187   7.206  10.223  0.6272 -0.9666 -0.1277
  560MOL0     C75522   4.082   7.114  10.236 -0.5057 -0.3000 -0.6367
  560MOL0     C75523   4.025   7.068  10.366 -0.7960 -0.6706  0.1115
  560MOL0     O75524   3.908   7.005  10.362 -0.2216  0.8142 -0.5006
  560MOL0     C75525   3.799   7.054  10.441 -0.1606 -0.4973  0.6268
  560MOL0     C75526   3.703   6.933  10.476  0.1521 -0.5013  0.4842
  560MOL0     C75527   3.602   6.925  10.361 -0.4248  0.4657 -1.3271
  560MOL0     C75528   3.516   6.800  10.362  0.1928  0.0374  0.0066
  560MOL0     C75529   3.451   6.775  10.492 -0.5051  0.8897  0.9000
  560MOL0     C75530   3.407   6.763  10.602 -0.7025 -0.1004 -0.2774
  560MOL0     C75531   4.091   7.112  10.478 -0.2745 -0.3551  0.0085
  560MOL0     C75532   4.211   7.191  10.466  0.3998 -0.8334  0.7709
  560MOL0     H75533   4.659   7.275  10.340  2.4097 -2.3286 -2.8700
  560MOL0     H75534   4.863   7.370  10.286 -0.6968 -1.1623  1.2148
  560MOL0     H75535   5.091   7.512  10.033 -0.2131  0.7588 -0.5904
  560MOL0     H75536   4.986   7.379  10.091 -3.1534  0.2920  0.0527
  560MOL0     H75537   4.833   7.434   9.908  0.1199 -1.5058 -1.1381
  560MOL0     H75538   4.931   7.574   9.854  0.9865 -1.8930 -4.0678
  560MOL0     H75539   5.063   7.303   9.880 -0.2249  0.5036  1.5350
  560MOL0     H75540   4.971   7.343   9.736  1.3964 -2.5803 -0.0739
  560MOL0     H75541   5.128   7.547   9.707 -0.0835 -0.3694 -1.9298
  560MOL0     H75542   5.217   7.491   9.863 -0.0849  0.7715 -0.2398
  560MOL0     H75543   5.327   7.350   9.759 -0.2092 -0.2394  1.1113
  560MOL0     H75544   5.182   7.276   9.674 -0.7917 -0.2779  0.6270
  560MOL0     H75545   5.307   7.332   9.504 -2.6364  1.1076 -0.7273
  560MOL0     H75546   5.159   7.442   9.516 -1.8501  0.9615  2.3254
  560MOL0     H75547   5.308   7.626   9.587 -0.3274 -2.0814  2.2187
  560MOL0     H75548   5.454   7.516   9.580 -1.3677 -0.3086  4.5331
  560MOL0     H75549   5.310   7.583   9.330 -0.3325 -2.4044  0.8258
  560MOL0     H75550   5.449   7.500   9.354 -1.6290  0.0913 -0.1104
  560MOL0     H75551   5.621   7.692   9.523  1.6334 -0.3830 -3.1969
  560MOL0     H75552   5.680   7.902   9.636 -1.8009 -0.4878  1.0213
  560MOL0     H75553   5.741   7.996   9.493 -0.6836  6.2288  1.6203
  560MOL0     H75554   5.518   8.140   9.546  1.2207 -1.9006 -2.2771
  560MOL0     H75555   5.678   8.156   9.636  1.4304 -1.0323 -3.4764
  560MOL0     H75556   5.582   8.005   9.807  0.7799  1.5903 -0.6459
  560MOL0     H75557   5.438   7.990   9.708  0.6734 -2.6653  1.4572
  560MOL0     H75558   5.432   8.264   9.735  1.0793  0.4854 -0.1651
  560MOL0     H75559   5.576   8.242   9.830  0.4670 -0.7834 -0.9289
  560MOL0     H75560   5.213   8.148   9.690 -0.9587 -0.0892 -0.2749
  560MOL0     H75561   4.893   8.217   9.625 -0.0128  0.5465 -0.1899
  560MOL0     H75562   4.977   8.367   9.580 -0.9892  2.1189  2.6820
  560MOL0     H75563   5.055   8.207   9.563  0.4298  0.4424  0.8100
  560MOL0     H75564   4.867   8.732   9.862 -0.1029 -1.3644  0.0721
  560MOL0     H75565   4.652   8.879   9.844 -1.1207 -0.8149 -0.2259
  560MOL0     H75566   4.493   8.995  10.091 -0.5836 -0.4098  0.4648
  560MOL0     H75567   4.454   9.031   9.921  1.2645 -1.6568 -0.5076
  560MOL0     H75568   4.223   8.964   9.975  0.1528 -2.7739  1.1181
  560MOL0     H75569   4.253   8.931  10.140 -2.3489  0.7984  0.4695
  560MOL0     H75570   4.350   9.169  10.165  1.5612 -5.4999  0.3300
  560MOL0     H75571   4.174   9.159  10.158 -1.5569 -2.1388 -0.7069
  560MOL0     H75572   4.332   9.214   9.908 -0.9343 -0.7934 -0.5964
  560MOL0     H75573   4.159   9.236   9.942  0.0589  2.2204  0.4083
  560MOL0     H75574   4.264   9.424   9.929  0.7100 -3.0710 -2.0535
  560MOL0     H75575   4.387   9.403  10.031 -1.1554  2.1589 -2.3009
  560MOL0     H75576   4.100   9.432  10.097  0.5200 -0.9359 -0.9711
  560MOL0     H75577   4.209   9.366  10.228  2.0975  3.0362  2.6808
  560MOL0     H75578   4.242   9.635  10.083  6.0702  1.2584 -0.5311
  560MOL0     H75579   4.341   9.584  10.214 -0.2424  4.3819 -1.0553
  560MOL0     H75580   4.104   9.548  10.339  0.3610 -2.2218 -3.2361
  560MOL0     H75581   4.047   9.659  10.212  0.4622  0.4859 -1.1354
  560MOL0     H75582   4.453   8.608  10.100  0.4587  0.8377 -0.7258
  560MOL0     H75583   4.654   8.446  10.076  1.0172  1.0975 -0.0786
  560MOL0     H75584   5.061   8.388  10.077  0.4553 -0.0765 -0.9894
  560MOL0     H75585   5.270   8.270  10.098 -1.8357  1.7280  1.4236
  560MOL0     H75586   4.684   7.676  10.033 -3.3028 -0.2770 -1.8892
  560MOL0     H75587   4.459   7.561  10.077  0.6724  0.3513 -2.0953
  560MOL0     H75588   4.213   7.241  10.124  0.1964 -2.7713 -0.9263
  560MOL0     H75589   4.045   7.093  10.136  2.4329  0.2605 -1.9354
  560MOL0     H75590   3.838   7.088  10.537 -3.3144 -0.2045  1.9368
  560MOL0     H75591   3.757   7.137  10.383  0.6124 -0.8931 -0.5465
  560MOL0     H75592   3.646   6.945  10.569 -1.4581 -3.2809 -0.0463
  560MOL0     H75593   3.760   6.840  10.480 -0.5978 -1.0188 -0.4674
  560MOL0     H75594   3.652   6.930  10.263  0.4554  2.9921 -0.8112
  560MOL0     H75595   3.534   7.010  10.362 -2.2289 -0.9181 -0.4904
  560MOL0     H75596   3.582   6.719  10.329 -0.7256 -1.7369  2.2755
  560MOL0     H75597   3.433   6.804  10.291 -0.8619 -0.6535  1.1784
  560MOL0     H75598   3.377   6.750  10.705 -1.3247 -1.4630 -0.6091
  560MOL0     H75599   4.047   7.084  10.573 -1.7384  0.3004 -0.4393
  560MOL0     H75600   4.258   7.214  10.561  0.6673 -0.0545  0.4600
  561MOL0     O75601   0.927   8.169   2.614  0.1819  1.0742 -0.5233
  561MOL0     C75602   0.847   8.236   2.547  0.4039  0.3851 -0.1072
  561MOL0     O75603   0.751   8.175   2.479 -1.2473  0.3840 -0.2756
  561MOL0     C75604   0.754   8.042   2.459  0.0130 -0.0537 -0.4286
  561MOL0     C75605   0.652   7.968   2.527  1.3249  0.0154  0.5084
  561MOL0     C75606   0.667   7.828   2.538 -0.6593  0.3455  0.6231
  561MOL0     C75607   0.788   7.765   2.502  0.4541 -0.2196  0.3973
  561MOL0     O75608   0.810   7.633   2.540 -0.1159  0.1336  0.7693
  561MOL0     C75609   0.915   7.623   2.636  0.3028 -1.0510  0.0834
  561MOL0     C75610   0.954   7.484   2.659  0.0703 -0.2105  0.8150
  561MOL0     C75611   0.863   7.391   2.737  0.7032  0.8223 -0.2490
  561MOL0     C75612   0.925   7.256   2.755  0.1181  1.1650  0.3252
  561MOL0     C75613   0.820   7.174   2.850  0.7724 -0.8205  0.8584
  561MOL0     C75614   0.866   7.028   2.855  0.2340  1.1183 -0.8752
  561MOL0     C75615   0.784   6.931   2.944 -0.8742  0.3730 -0.4828
  561MOL0     C75616   0.638   6.907   2.901  0.3030  0.0834  0.5003
  561MOL0     N75617   0.571   6.824   2.993 -0.0630  0.3452 -0.2010
  561MOL0     C75618   0.579   6.688   2.987  0.2504  0.1514 -0.0692
  561MOL0     C75619   0.476   6.659   3.072 -0.1610  1.2521 -0.5051
  561MOL0     C75620   0.422   6.520   3.115  0.3193 -0.4586  0.0318
  561MOL0     C75621   0.340   6.466   2.995 -0.1561 -0.7243  0.5972
  561MOL0     C75622   0.415   6.392   2.882 -0.1553 -0.6571 -0.7059
  561MOL0     C75623   0.329   6.325   2.780  0.3221  0.1896  0.4931
  561MOL0     O75624   0.381   6.311   2.650 -0.3849 -0.5067  0.6187
  561MOL0     C75625   0.442   6.191   2.645  0.2570 -0.2882 -0.2288
  561MOL0     C75626   0.370   6.069   2.613 -0.0411  0.0653  1.0633
  561MOL0     C75627   0.443   5.952   2.625 -0.0978 -0.7999  0.2013
  561MOL0     C75628   0.365   5.825   2.601  0.6550 -0.5467 -0.1988
  561MOL0     C75629   0.578   5.950   2.645 -0.6065  0.2013 -0.2651
  561MOL0     C75630   0.654   5.824   2.662 -0.3235 -0.8629 -0.8915
  561MOL0     O75631   0.723   5.765   2.562  0.6103  0.1527  0.0348
  561MOL0     C75632   0.759   5.843   2.452  0.1735 -0.0902  0.2813
  561MOL0     C75633   0.680   5.859   2.335  0.2337  0.3181 -0.6836
  561MOL0     C75634   0.718   5.943   2.228  0.0465 -0.1730  0.9070
  561MOL0     C75635   0.841   6.013   2.224 -0.4129  0.5918  1.0797
  561MOL0     O75636   0.890   6.084   2.112 -0.0268 -0.6915  0.3474
  561MOL0     C75637   0.789   6.172   2.049 -0.9355 -0.1095  0.4575
  561MOL0     C75638   0.772   6.303   2.113  0.5958 -0.2807 -0.0454
  561MOL0     C75639   0.682   6.389   2.038  0.2774 -0.4193 -1.0763
  561MOL0     C75640   0.693   6.544   2.081 -0.3495 -0.0487 -0.4318
  561MOL0     C75641   0.774   6.620   1.976 -0.4029 -0.6387 -0.7330
  561MOL0     C75642   0.754   6.761   1.987  1.0486 -0.6194  1.0219
  561MOL0     C75643   0.838   6.838   1.890 -0.0148 -0.3988  0.0223
  561MOL0     C75644   0.818   6.993   1.888  0.2995  0.3480 -0.5137
  561MOL0    Cl75645   0.950   7.073   1.814  0.4525  0.1467 -0.4369
  561MOL0     C75646   0.914   6.001   2.342  0.3989  0.2094 -1.0266
  561MOL0     C75647   0.873   5.918   2.449 -0.1055 -0.3326  0.2859
  561MOL0     O75648   0.645   5.786   2.781 -1.0857  0.0776 -0.6454
  561MOL0     C75649   0.645   6.065   2.651  0.3820  0.0374  0.5580
  561MOL0     C75650   0.578   6.182   2.667 -0.4577 -0.0313  0.0806
  561MOL0     N75651   0.437   6.767   3.151 -0.4866  0.3614  0.9063
  561MOL0     N75652   0.500   6.866   3.101 -0.4602 -0.2147 -0.0280
  561MOL0     C75653   0.873   7.836   2.421 -0.2030 -0.0857 -1.1291
  561MOL0     C75654   0.862   7.974   2.393  1.0168  0.2622 -0.0510
  561MOL0     C75655   0.847   8.380   2.563  0.6883 -0.3544 -0.4567
  561MOL0     C75656   0.946   8.455   2.638  0.0330  0.6039 -0.5347
  561MOL0     C75657   0.948   8.593   2.647  0.3138 -0.7209  0.6257
  561MOL0     C75658   0.840   8.666   2.589  0.5217 -0.5718  0.2407
  561MOL0     O75659   0.842   8.801   2.607  0.4001  0.5142  0.5025
  561MOL0     C75660   0.719   8.869   2.593 -0.9386  0.3934 -0.2215
  561MOL0     C75661   0.734   9.017   2.613  0.4400  1.9144  0.3850
  561MOL0     C75662   0.850   9.076   2.527 -0.3474 -0.1177 -0.8662
  561MOL0     C75663   0.832   9.055   2.378 -0.2938  0.5236 -0.2583
  561MOL0     C75664   0.942   9.119   2.307 -0.1719 -0.1010 -0.9663
  561MOL0     C75665   1.022   9.166   2.228 -0.1303  0.4519 -0.9051
  561MOL0     C75666   0.742   8.595   2.515 -0.0702  0.5332  0.2664
  561MOL0     C75667   0.740   8.455   2.506 -0.3622 -0.1545 -0.1512
  561MOL0     H75668   0.566   8.024   2.563 -0.0641  0.9717 -3.6704
  561MOL0     H75669   0.593   7.770   2.592  1.6235 -1.1866  2.2927
  561MOL0     H75670   1.009   7.663   2.596 -0.8580  0.6577 -1.1134
  561MOL0     H75671   0.892   7.664   2.735  1.5210 -1.0102  0.3741
  561MOL0     H75672   0.959   7.443   2.557  4.1576  0.5487  0.5311
  561MOL0     H75673   1.050   7.490   2.711 -0.3809  2.2220  1.4864
  561MOL0     H75674   0.825   7.428   2.833  1.3870 -0.0759  0.3850
  561MOL0     H75675   0.773   7.382   2.675 -0.2413 -0.8226  1.2655
  561MOL0     H75676   0.943   7.204   2.661 -2.2267  0.3877  0.2222
  561MOL0     H75677   1.011   7.275   2.819  0.0853  1.9546  0.1482
  561MOL0     H75678   0.809   7.217   2.950  3.9806  1.8829  0.1908
  561MOL0     H75679   0.720   7.172   2.805  0.0758  2.5076  1.9979
  561MOL0     H75680   0.848   6.975   2.761  0.9945 -1.7822  0.4909
  561MOL0     H75681   0.974   7.023   2.873  0.1743 -2.5332 -0.7196
  561MOL0     H75682   0.827   6.831   2.933 -0.1193  0.7959 -1.4905
  561MOL0     H75683   0.790   6.968   3.047  1.6024  0.0842 -0.4557
  561MOL0     H75684   0.624   6.859   2.804 -0.4079 -0.9207  1.0821
  561MOL0     H75685   0.575   6.995   2.889  0.5068 -0.0870 -2.3645
  561MOL0     H75686   0.623   6.614   2.920  1.4036 -1.2798  2.1559
  561MOL0     H75687   0.503   6.451   3.141  2.7509  2.8877  2.1097
  561MOL0     H75688   0.366   6.529   3.209  0.4814 -0.1565  0.1017
  561MOL0     H75689   0.277   6.538   2.943 -1.1808 -2.5926 -0.8525
  561MOL0     H75690   0.267   6.400   3.041 -0.7229 -1.0891 -0.7720
  561MOL0     H75691   0.493   6.322   2.915  1.1724 -0.1414 -2.5867
  561MOL0     H75692   0.475   6.469   2.834  1.8990 -1.0175  1.1204
  561MOL0     H75693   0.235   6.378   2.765 -0.5122 -1.4400 -0.2383
  561MOL0     H75694   0.294   6.230   2.820 -0.0882 -0.4795 -1.3402
  561MOL0     H75695   0.266   6.074   2.584 -0.5260  1.9558  2.8783
  561MOL0     H75696   0.359   5.809   2.493  0.1312  2.0380 -0.6229
  561MOL0     H75697   0.401   5.732   2.645 -0.0545  0.1212  1.9152
  561MOL0     H75698   0.271   5.841   2.653  0.0599  4.0351 -2.1585
  561MOL0     H75699   0.592   5.796   2.344 -0.2277  0.8647 -1.2496
  561MOL0     H75700   0.656   5.939   2.139  1.0660 -0.9934  0.2110
  561MOL0     H75701   0.827   6.185   1.947 -0.8622 -2.3578  0.1420
  561MOL0     H75702   0.692   6.124   2.036  1.3860 -4.7397 -2.9447
  561MOL0     H75703   0.738   6.285   2.216  0.8005 -2.1117 -0.2720
  561MOL0     H75704   0.866   6.359   2.111 -1.4426  3.5497  0.0364
  561MOL0     H75705   0.584   6.340   2.039  1.2647 -2.6952  2.6916
  561MOL0     H75706   0.706   6.386   1.931 -3.7497 -0.5457 -2.1208
  561MOL0     H75707   0.592   6.585   2.076 -0.9297 -1.3297  0.3630
  561MOL0     H75708   0.738   6.560   2.180 -2.2541  1.5382  0.2270
  561MOL0     H75709   0.739   6.592   1.876  0.9229 -0.3309 -1.2994
  561MOL0     H75710   0.880   6.592   1.975 -0.1361  0.2525  0.5344
  561MOL0     H75711   0.649   6.788   1.971  1.2766  1.7137  2.8742
  561MOL0     H75712   0.786   6.789   2.088  1.8506 -0.5385  0.7486
  561MOL0     H75713   0.833   6.793   1.790  2.4546 -0.0633 -0.3272
  561MOL0     H75714   0.944   6.827   1.915 -0.0781  1.4187  1.2323
  561MOL0     H75715   0.812   7.018   1.995 -0.8441 -4.3765  0.7509
  561MOL0     H75716   0.724   7.009   1.836 -0.3131 -4.2794 -1.2520
  561MOL0     H75717   1.005   6.060   2.329  0.4981 -0.2406 -2.5359
  561MOL0     H75718   0.949   5.904   2.525 -0.1991 -2.4597  0.0607
  561MOL0     H75719   0.753   6.052   2.653  0.3201 -0.7732 -0.2990
  561MOL0     H75720   0.636   6.273   2.682  1.2763 -1.1644  0.5214
  561MOL0     H75721   0.964   7.789   2.384  0.9181 -0.0500  1.3639
  561MOL0     H75722   0.939   8.028   2.338 -0.2448 -1.7441 -4.1386
  561MOL0     H75723   1.029   8.404   2.685 -1.1989  0.8092  2.0460
  561MOL0     H75724   1.035   8.628   2.702 -0.8950 -0.9136  2.7593
  561MOL0     H75725   0.682   8.848   2.492  0.3642 -0.7259 -0.4969
  561MOL0     H75726   0.646   8.823   2.660 -3.2860  2.3015 -1.3233
  561MOL0     H75727   0.764   9.036   2.717  2.0966  2.0562 -0.0870
  561MOL0     H75728   0.639   9.064   2.584 -0.9537 -0.9811 -0.1221
  561MOL0     H75729   0.941   9.030   2.565  2.3039  2.9765 -2.9042
  561MOL0     H75730   0.853   9.183   2.550 -0.4579 -0.3947  0.4790
  561MOL0     H75731   0.743   9.113   2.348 -0.0544 -0.6256 -3.5747
  561MOL0     H75732   0.813   8.950   2.357 -3.1736  0.8977 -0.0490
  561MOL0     H75733   1.085   9.221   2.161 -1.3082  1.2937 -1.3573
  561MOL0     H75734   0.653   8.640   2.472 -0.5818 -0.5141  0.2033
  561MOL0     H75735   0.661   8.409   2.447  2.2897 -0.1086 -4.0752
  562MOL0     O75736   9.705   1.918   5.200 -0.6387  0.7522 -0.2165
  562MOL0     C75737   9.740   1.999   5.288  0.3015  0.7503  1.4775
  562MOL0     O75738   9.837   2.099   5.270 -0.0149  0.0926 -0.4533
  562MOL0     C75739   9.853   2.174   5.159  0.0962  0.9091  0.5673
  562MOL0     C75740   9.954   2.269   5.158  0.4854  0.1805  0.0826
  562MOL0     C75741   9.977   2.356   5.056  0.2973 -0.6274 -1.1454
  562MOL0     C75742   9.896   2.360   4.948 -1.0491 -0.1281 -0.2193
  562MOL0     O75743   9.940   2.456   4.855  0.6825 -0.2677  0.1337
  562MOL0     C75744   9.904   2.437   4.722  0.0018  0.0860 -0.1582
  562MOL0     C75745   9.927   2.571   4.645 -0.0972 -0.8599 -0.0779
  562MOL0     C75746   9.893   2.573   4.496  0.4974 -0.5423  0.0404
  562MOL0     C75747   9.738   2.563   4.472  0.0247 -1.0334  0.1033
  562MOL0     C75748   9.718   2.551   4.321  0.3603 -0.7383  0.3011
  562MOL0     C75749   9.575   2.533   4.269  0.1616  0.0509  1.3902
  562MOL0     C75750   9.502   2.661   4.268 -0.0134  0.1619  0.1428
  562MOL0     C75751   9.360   2.650   4.220  0.5252 -0.4124  0.0133
  562MOL0     N75752   9.348   2.603   4.086  0.1131  0.6566  0.0891
  562MOL0     C75753   9.357   2.672   3.969  1.0826  0.8364 -0.8281
  562MOL0     C75754   9.349   2.573   3.872 -0.5611 -1.0756 -0.2819
  562MOL0     C75755   9.358   2.591   3.723  0.0086  0.6666 -0.4659
  562MOL0     C75756   9.480   2.522   3.661 -0.3233  0.1044  1.1896
  562MOL0     C75757   9.487   2.543   3.507  0.6573 -0.5448  0.4306
  562MOL0     C75758   9.606   2.489   3.428  1.1368 -0.0508 -0.2510
  562MOL0     O75759   9.610   2.537   3.294  0.6795  0.8216 -0.9231
  562MOL0     C75760   9.719   2.497   3.216  0.6263 -0.8501  0.7920
  562MOL0     C75761   9.818   2.411   3.255  0.3560 -0.1467 -0.2722
  562MOL0     C75762   9.933   2.380   3.173  0.7702 -0.1556  1.2039
  562MOL0     C75763  10.028   2.274   3.218 -0.1503  0.5106 -0.3595
  562MOL0     C75764   9.948   2.456   3.052 -0.1683  0.1720 -0.7641
  562MOL0     C75765  10.052   2.437   2.949 -0.3463  1.1574 -0.0940
  562MOL0     O75766  10.084   2.545   2.870 -0.2858  0.0363  0.0976
  562MOL0     C75767  10.172   2.530   2.760  0.1048 -0.4694 -0.5772
  562MOL0     C75768  10.136   2.458   2.647  0.6394 -0.3084 -0.1970
  562MOL0     C75769  10.216   2.462   2.538 -0.6130 -0.6610  0.2869
  562MOL0     C75770  10.330   2.550   2.527 -0.1824 -0.4964 -0.5034
  562MOL0     O75771  10.413   2.567   2.419  0.2071 -0.0705 -0.3979
  562MOL0     C75772  10.419   2.464   2.319  0.3417 -0.3789 -0.2804
  562MOL0     C75773  10.555   2.473   2.240 -0.8368  0.2044  0.2175
  562MOL0     C75774  10.589   2.611   2.176  0.6326 -0.1820 -0.7253
  562MOL0     C75775  10.505   2.632   2.056 -0.4690 -0.9414 -0.0986
  562MOL0     C75776  10.510   2.784   2.012 -0.9766  1.2290 -0.2026
  562MOL0     C75777  10.423   2.805   1.891  0.3185 -0.5708 -0.3456
  562MOL0     C75778  10.277   2.824   1.941 -0.0137 -0.2045 -0.5067
  562MOL0     C75779  10.186   2.838   1.813  0.2708  0.4556  0.8295
  562MOL0    Cl75780  10.239   2.984   1.726 -0.4549  0.7170  0.1592
  562MOL0     C75781  10.362   2.628   2.645  0.3330  0.3425 -0.2483
  562MOL0     C75782  10.281   2.621   2.758  0.2687  0.0591 -0.9620
  562MOL0     O75783  10.098   2.326   2.928 -0.3320 -0.5499 -0.4276
  562MOL0     C75784   9.857   2.558   3.026  0.1984 -0.2479  0.1720
  562MOL0     C75785   9.736   2.568   3.101 -0.5057 -0.6971  0.7131
  562MOL0     N75786   9.318   2.450   3.923  0.0945 -1.4471 -0.6546
  562MOL0     N75787   9.326   2.479   4.047 -0.4527  0.3786  0.0726
  562MOL0     C75788   9.788   2.268   4.938  0.8882 -1.1038  0.5551
  562MOL0     C75789   9.769   2.180   5.042 -0.3719  0.5637 -0.1195
  562MOL0     C75790   9.679   1.977   5.427 -0.9144 -0.2868  0.2835
  562MOL0     C75791   9.565   1.904   5.433  0.2681 -0.1495  0.1632
  562MOL0     C75792   9.504   1.893   5.555 -0.1446 -0.0362 -0.3421
  562MOL0     C75793   9.571   1.936   5.676  0.6526  0.9156 -1.1059
  562MOL0     O75794   9.503   1.907   5.789 -0.7698 -0.3802  0.4871
  562MOL0     C75795   9.575   1.910   5.908  0.4826  0.2939 -0.3228
  562MOL0     C75796   9.683   1.804   5.917 -1.2086  0.4372  0.2113
  562MOL0     C75797   9.757   1.780   6.052 -0.2864 -0.8297  0.5062
  562MOL0     C75798   9.891   1.860   6.067  0.3303 -0.0589  0.1583
  562MOL0     C75799   9.873   2.009   6.052 -0.1445 -0.0753  0.8098
  562MOL0     C75800   9.853   2.120   6.005  1.0328  0.7495  0.6897
  562MOL0     C75801   9.692   2.011   5.663 -0.6440 -0.3397  0.1616
  562MOL0     C75802   9.740   2.032   5.535 -0.1809 -0.8286 -0.5064
  562MOL0     H75803  10.022   2.276   5.243  0.0494  3.0302  0.2929
  562MOL0     H75804  10.056   2.429   5.066  0.2889 -0.7451 -0.1722
  562MOL0     H75805   9.972   2.359   4.685  2.6575  1.7206  0.9202
  562MOL0     H75806   9.802   2.404   4.703 -0.0593  1.9180 -3.9175
  562MOL0     H75807   9.874   2.652   4.697  1.1770  1.4975 -2.2238
  562MOL0     H75808  10.031   2.604   4.653 -1.3034  3.0411  3.3874
  562MOL0     H75809   9.930   2.659   4.440  0.0428 -1.5131 -1.8411
  562MOL0     H75810   9.940   2.488   4.446 -1.5311 -1.6014 -0.1562
  562MOL0     H75811   9.694   2.482   4.533 -2.0762 -1.0383 -1.3165
  562MOL0     H75812   9.678   2.647   4.508  1.1980  0.3143 -0.9950
  562MOL0     H75813   9.752   2.645   4.276 -0.8162 -0.6967 -0.5428
  562MOL0     H75814   9.781   2.467   4.290 -0.5170 -0.5924 -2.0884
  562MOL0     H75815   9.571   2.507   4.163 -3.6722 -0.7617  1.5817
  562MOL0     H75816   9.513   2.461   4.323 -1.9041 -0.1113 -1.0332
  562MOL0     H75817   9.513   2.708   4.367  2.2890  0.4050 -0.1603
  562MOL0     H75818   9.546   2.723   4.189 -3.0325  0.1452 -1.6892
  562MOL0     H75819   9.305   2.744   4.215  0.2466 -0.4709  1.5555
  562MOL0     H75820   9.305   2.582   4.287 -4.4862  1.7115 -1.4920
  562MOL0     H75821   9.382   2.778   3.962 -0.9372  1.5969  1.8040
  562MOL0     H75822   9.266   2.549   3.681 -0.6251 -0.8287  2.2191
  562MOL0     H75823   9.349   2.698   3.698  0.6659  1.4887  2.4899
  562MOL0     H75824   9.497   2.416   3.682  0.0814 -0.7345 -2.6571
  562MOL0     H75825   9.568   2.573   3.701 -0.2021  1.1793 -0.3674
  562MOL0     H75826   9.480   2.648   3.476  1.8810 -0.8107 -0.8422
  562MOL0     H75827   9.396   2.497   3.467  0.0473  0.8111  0.2064
  562MOL0     H75828   9.601   2.380   3.430 -0.9938  0.0011  1.4177
  562MOL0     H75829   9.690   2.528   3.486 -0.1009  1.3635  0.6484
  562MOL0     H75830   9.815   2.367   3.354 -0.1361 -1.6467 -0.9242
  562MOL0     H75831  10.105   2.309   3.287  1.7573 -2.8140 -0.5615
  562MOL0     H75832   9.973   2.199   3.275 -3.0437  0.5981 -2.8095
  562MOL0     H75833  10.073   2.213   3.138  0.3553  1.2973 -0.6886
  562MOL0     H75834  10.048   2.394   2.642  0.8270 -0.4514 -2.5855
  562MOL0     H75835  10.186   2.394   2.459  1.9549 -0.8401 -0.6447
  562MOL0     H75836  10.402   2.361   2.354 -0.2413 -2.1291 -4.9221
  562MOL0     H75837  10.336   2.480   2.250 -2.0947  4.5426  3.2407
  562MOL0     H75838  10.632   2.444   2.312  0.0278 -0.3058 -0.8984
  562MOL0     H75839  10.554   2.402   2.157  0.3420 -2.0345  2.0078
  562MOL0     H75840  10.697   2.611   2.158  0.7293 -1.5751 -0.2610
  562MOL0     H75841  10.560   2.682   2.253  1.1167  0.8205 -1.4390
  562MOL0     H75842  10.539   2.563   1.978 -1.4533 -1.5027 -0.0428
  562MOL0     H75843  10.401   2.615   2.084  0.0786 -3.0670  0.8597
  562MOL0     H75844  10.614   2.808   1.989 -0.9048  1.7130  0.5780
  562MOL0     H75845  10.470   2.845   2.094 -2.7837 -0.6540  0.3911
  562MOL0     H75846  10.456   2.901   1.849 -1.0640 -0.0219 -0.2301
  562MOL0     H75847  10.434   2.725   1.817 -0.3206 -1.9751  1.0358
  562MOL0     H75848  10.257   2.910   2.007 -0.0993 -0.7910  0.2420
  562MOL0     H75849  10.246   2.734   1.994  0.7288  1.1562  2.4571
  562MOL0     H75850  10.082   2.854   1.843 -0.1675 -0.7107 -0.0080
  562MOL0     H75851  10.193   2.751   1.746  0.1603 -0.2969  1.7700
  562MOL0     H75852  10.439   2.704   2.647 -0.8064  1.5343  1.1516
  562MOL0     H75853  10.315   2.679   2.843  0.5777  0.7919 -1.5743
  562MOL0     H75854   9.868   2.636   2.952 -1.7059  0.0713  0.1709
  562MOL0     H75855   9.666   2.649   3.083 -0.0219 -0.0762  1.5528
  562MOL0     H75856   9.726   2.272   4.849  0.4992  1.6755  0.8496
  562MOL0     H75857   9.687   2.109   5.035 -0.6530  1.0094 -2.1651
  562MOL0     H75858   9.506   1.858   5.355 -2.4204 -3.6174  3.8274
  562MOL0     H75859   9.413   1.838   5.575 -1.0447  1.4103 -0.3276
  562MOL0     H75860   9.621   2.009   5.917 -0.9440  1.1418 -1.8712
  562MOL0     H75861   9.504   1.906   5.990 -0.8633 -0.2568 -1.4697
  562MOL0     H75862   9.761   1.816   5.841 -0.0876  3.0266  1.6306
  562MOL0     H75863   9.638   1.706   5.901 -0.4409 -0.2023  1.7741
  562MOL0     H75864   9.790   1.676   6.064 -1.9559 -1.5415 -0.7183
  562MOL0     H75865   9.687   1.805   6.133 -0.4697 -2.1179  0.7676
  562MOL0     H75866   9.958   1.828   5.987  1.5905 -2.6448  2.1033
  562MOL0     H75867   9.959   1.843   6.151  4.2468  0.7327 -2.5272
  562MOL0     H75868   9.841   2.216   5.959  0.5692  0.0463 -0.7012
  562MOL0     H75869   9.747   2.046   5.749  1.7761  0.9278 -1.7969
  562MOL0     H75870   9.829   2.092   5.521 -1.2429  0.8197 -0.5544
  563MOL0     O75871   5.659   7.704  11.255  0.0366  0.2009  0.6070
  563MOL0     C75872   5.605   7.775  11.172  0.0009  0.0171 -0.3331
  563MOL0     O75873   5.658   7.888  11.118  0.2441  0.7511 -0.8802
  563MOL0     C75874   5.765   7.955  11.173  0.0263  0.7122  0.2577
  563MOL0     C75875   5.858   8.016  11.082 -0.1860  0.3348 -0.7845
  563MOL0     C75876   5.969   8.079  11.127  0.3115  1.3892  0.0260
  563MOL0     C75877   5.976   8.124  11.259  0.3627  1.1149 -0.4273
  563MOL0     O75878   6.073   8.204  11.297 -0.0766  0.0799 -0.0588
  563MOL0     C75879   6.181   8.138  11.371  0.3711  0.3441 -0.0733
  563MOL0     C75880   6.299   8.224  11.341 -0.5495  1.3701  0.6596
  563MOL0     C75881   6.325   8.234  11.184 -0.1473  0.7507 -0.0545
  563MOL0     C75882   6.429   8.342  11.138 -0.1822  0.3014 -0.1489
  563MOL0     C75883   6.581   8.311  11.160  0.2243 -0.9829 -0.8116
  563MOL0     C75884   6.644   8.358  11.292  0.5692 -0.0556 -0.2680
  563MOL0     C75885   6.805   8.358  11.285  0.8086  0.4720  0.3662
  563MOL0     C75886   6.858   8.223  11.240 -0.2246 -0.3369  0.4462
  563MOL0     N75887   6.822   8.109  11.312  0.1920  0.1083 -0.1087
  563MOL0     C75888   6.764   7.995  11.267  0.8394  0.1410 -0.4271
  563MOL0     C75889   6.749   7.917  11.383  0.2368 -0.3792 -0.3690
  563MOL0     C75890   6.682   7.783  11.398  0.8101  0.5537 -0.4287
  563MOL0     C75891   6.761   7.687  11.501 -0.4951 -0.2376 -0.0516
  563MOL0     C75892   6.892   7.628  11.442 -0.8834 -0.0397  0.1398
  563MOL0     C75893   7.009   7.723  11.476 -0.2598 -0.0647  0.7245
  563MOL0     O75894   7.041   7.826  11.376  0.0916 -0.4342 -0.3196
  563MOL0     C75895   7.102   7.804  11.259 -0.6870 -0.3006  0.1053
  563MOL0     C75896   7.195   7.702  11.237  0.5879  0.3663  0.8577
  563MOL0     C75897   7.265   7.690  11.117  0.0018  0.5171 -0.0150
  563MOL0     C75898   7.361   7.579  11.111  0.8026 -0.0945  0.0122
  563MOL0     C75899   7.254   7.783  11.015 -0.8680  0.5066  0.0678
  563MOL0     C75900   7.338   7.791  10.891 -0.3193  0.4289 -0.4592
  563MOL0     O75901   7.371   7.918  10.851 -1.1695 -0.4300 -0.4143
  563MOL0     C75902   7.461   7.936  10.748  0.2511 -1.3710  0.2439
  563MOL0     C75903   7.595   7.915  10.776  0.6541  0.4980  0.1487
  563MOL0     C75904   7.682   7.904  10.670  0.3610  0.3395 -0.0823
  563MOL0     C75905   7.645   7.935  10.537  0.4103 -0.1912 -0.0234
  563MOL0     O75906   7.747   7.952  10.444 -0.5375 -0.1257 -0.4918
  563MOL0     C75907   7.726   7.953  10.308 -0.2892 -0.3958 -0.6112
  563MOL0     C75908   7.837   8.036  10.241 -0.6230  0.8253  0.3053
  563MOL0     C75909   7.822   8.181  10.282 -0.3397  0.4766  0.4021
  563MOL0     C75910   7.907   8.268  10.203 -0.0739 -0.0133 -0.3902
  563MOL0     C75911   7.907   8.421  10.227 -0.4639  0.5438  0.7758
  563MOL0     C75912   7.904   8.466  10.372 -0.3568  0.4327  0.1547
  563MOL0     C75913   7.994   8.600  10.366  0.1186  0.4199 -0.0467
  563MOL0     C75914   8.030   8.662  10.503  0.2063  0.0952  0.3399
  563MOL0    Cl75915   7.902   8.633  10.625  0.3060  0.4664 -0.2083
  563MOL0     C75916   7.506   7.963  10.514 -0.4586  0.5753 -0.1680
  563MOL0     C75917   7.407   7.960  10.623  0.0511  0.6991  0.5893
  563MOL0     O75918   7.363   7.688  10.831  0.5080 -0.2980 -0.2686
  563MOL0     C75919   7.165   7.887  11.035  0.3730 -0.0962  0.6248
  563MOL0     C75920   7.098   7.905  11.158  0.7946  0.3063  0.2234
  563MOL0     N75921   6.784   7.994  11.489 -0.4223 -0.1624 -0.2345
  563MOL0     N75922   6.825   8.105  11.453 -0.0687 -0.2606  0.4498
  563MOL0     C75923   5.874   8.067  11.349 -0.4387  0.5867 -0.2418
  563MOL0     C75924   5.785   7.965  11.308 -0.2767 -0.6340 -0.9279
  563MOL0     C75925   5.472   7.737  11.132  0.2618  0.1595  0.7482
  563MOL0     C75926   5.385   7.829  11.067 -0.0638  1.1570  0.2445
  563MOL0     C75927   5.260   7.774  11.034  0.4949 -0.8521 -0.8940
  563MOL0     C75928   5.216   7.647  11.050 -0.0773 -0.5426  1.1127
  563MOL0     O75929   5.084   7.605  11.013  0.1063  0.0568  1.0917
  563MOL0     C75930   5.039   7.476  11.050 -0.5313 -0.8458 -0.6345
  563MOL0     C75931   5.075   7.356  10.955 -0.5013  0.3381  0.6660
  563MOL0     C75932   4.999   7.356  10.828 -0.4641 -0.2395  0.6153
  563MOL0     C75933   4.846   7.324  10.849  0.6379 -0.4932  0.2078
  563MOL0     C75934   4.787   7.265  10.721 -0.3919 -0.4201 -0.5010
  563MOL0     C75935   4.784   7.224  10.610 -0.7445 -0.5906 -0.6132
  563MOL0     C75936   5.306   7.557  11.103 -0.4859 -0.5285 -0.1605
  563MOL0     C75937   5.429   7.599  11.144 -0.8584  0.5926 -0.5729
  563MOL0     H75938   5.845   8.002  10.975  0.9596 -1.3636 -0.7446
  563MOL0     H75939   6.058   8.101  11.069  1.5249 -0.7510  0.9399
  563MOL0     H75940   6.158   8.127  11.477 -0.3897 -1.3976 -0.3827
  563MOL0     H75941   6.203   8.039  11.330  4.4495 -0.6787  3.8204
  563MOL0     H75942   6.287   8.326  11.380  1.4392  1.1804  1.9295
  563MOL0     H75943   6.397   8.192  11.378 -1.2041 -1.2548  0.2998
  563MOL0     H75944   6.365   8.138  11.149 -0.7036  0.8028 -0.8629
  563MOL0     H75945   6.229   8.258  11.138  0.0235 -1.5116 -1.7569
  563MOL0     H75946   6.412   8.363  11.032 -0.9282  0.8064  0.0639
  563MOL0     H75947   6.409   8.434  11.194  2.9426  0.7084  0.4727
  563MOL0     H75948   6.611   8.210  11.131 -2.8707 -2.0719 -0.5267
  563MOL0     H75949   6.643   8.371  11.092  1.0349  0.3003  0.9914
  563MOL0     H75950   6.596   8.456  11.300 -1.6244 -0.7845 -3.0469
  563MOL0     H75951   6.607   8.299  11.376  0.5383 -0.9356 -0.8947
  563MOL0     H75952   6.828   8.440  11.216 -0.2300 -0.3893 -1.0798
  563MOL0     H75953   6.846   8.377  11.384  1.8020 -0.6915  0.2053
  563MOL0     H75954   6.966   8.226  11.257 -0.3189  0.1496  0.9903
  563MOL0     H75955   6.842   8.210  11.132  1.6792 -2.9585  0.3979
  563MOL0     H75956   6.758   7.969  11.162  3.3290  2.6035 -1.3233
  563MOL0     H75957   6.583   7.805  11.441  1.1557 -1.6815  1.7387
  563MOL0     H75958   6.674   7.742  11.298  0.8046  1.2066 -0.7032
  563MOL0     H75959   6.684   7.611  11.518 -0.2608 -0.0953  1.9049
  563MOL0     H75960   6.776   7.740  11.596  1.1034  1.3714 -1.1515
  563MOL0     H75961   6.877   7.626  11.334  1.3620 -0.0159 -0.2214
  563MOL0     H75962   6.914   7.526  11.476  0.5749 -0.0885 -0.8592
  563MOL0     H75963   7.095   7.662  11.506 -1.5047 -3.0914 -1.3749
  563MOL0     H75964   6.969   7.770  11.566  1.5029 -1.9698  2.6060
  563MOL0     H75965   7.214   7.631  11.317  2.6210  1.3828  1.3377
  563MOL0     H75966   7.383   7.554  11.215 -0.8787  0.5727  0.5743
  563MOL0     H75967   7.327   7.499  11.044  1.6037  0.5997 -1.2605
  563MOL0     H75968   7.453   7.623  11.070  0.1324  2.2224  0.8240
  563MOL0     H75969   7.636   7.903  10.876 -0.3806 -0.9088  0.4347
  563MOL0     H75970   7.785   7.885  10.700 -0.4059  1.0821  3.3958
  563MOL0     H75971   7.724   7.852  10.266 -0.9466 -1.7417  2.4151
  563MOL0     H75972   7.626   7.994  10.291  0.5013  1.3557 -1.3123
  563MOL0     H75973   7.938   8.002  10.266 -0.2538 -0.8782 -2.9933
  563MOL0     H75974   7.825   8.022  10.133 -0.8973  0.3608  0.3950
  563MOL0     H75975   7.853   8.205  10.385 -2.4537  6.1975  0.0577
  563MOL0     H75976   7.718   8.211  10.272 -0.1426  0.3734 -2.8481
  563MOL0     H75977   8.009   8.232  10.217  0.9151  2.7039 -0.0001
  563MOL0     H75978   7.877   8.259  10.098 -0.6419 -0.9300 -0.1586
  563MOL0     H75979   7.814   8.455  10.181 -0.1715  0.1136 -0.1711
  563MOL0     H75980   7.994   8.462  10.175  0.6586  1.2060  3.0483
  563MOL0     H75981   7.802   8.473  10.410 -0.5493  0.8982 -0.4228
  563MOL0     H75982   7.956   8.393  10.434 -1.1876  2.5524  3.6352
  563MOL0     H75983   7.938   8.668  10.301 -3.0933 -3.2131 -1.4360
  563MOL0     H75984   8.088   8.566  10.322  0.8069 -1.4097  2.6210
  563MOL0     H75985   8.039   8.768  10.478 -0.7105  0.1434  0.1694
  563MOL0     H75986   8.124   8.620  10.539  0.2024  0.7484  1.1482
  563MOL0     H75987   7.483   8.009  10.419  1.5700  1.6227 -0.2057
  563MOL0     H75988   7.302   7.980  10.604  0.2292  0.7012 -0.4528
  563MOL0     H75989   7.143   7.959  10.957 -0.9974  3.0052  3.5945
  563MOL0     H75990   7.033   7.991  11.164 -1.1077 -0.7376 -3.0324
  563MOL0     H75991   5.852   8.094  11.452  0.9381 -0.7506  0.4311
  563MOL0     H75992   5.705   7.926  11.369 -0.8924 -0.6456 -1.7176
  563MOL0     H75993   5.416   7.930  11.044 -1.5703  1.6005  0.0136
  563MOL0     H75994   5.188   7.828  10.973 -0.9324 -0.0661  1.3792
  563MOL0     H75995   5.051   7.460  11.157 -1.5908  0.5485 -0.2960
  563MOL0     H75996   4.931   7.490  11.055 -0.3375  0.1849  1.6235
  563MOL0     H75997   5.075   7.256  11.001 -1.2428  0.1519  0.2961
  563MOL0     H75998   5.179   7.375  10.926 -1.3199  2.8737 -0.9422
  563MOL0     H75999   5.041   7.284  10.757  3.7535  0.4895  2.1074
  563MOL0     H76000   5.013   7.455  10.783  0.2047 -1.2029 -1.4253
  563MOL0     H76001   4.801   7.417  10.887  0.6373 -0.3779 -0.0706
  563MOL0     H76002   4.837   7.244  10.923 -1.0818  1.1681  1.9354
  563MOL0     H76003   4.812   7.199  10.510 -1.4390  1.4287 -1.3767
  563MOL0     H76004   5.272   7.455  11.113  2.0612 -1.2205  3.4670
  563MOL0     H76005   5.506   7.533  11.183 -0.4453  1.6337  0.4435
  564MOL0     O76006   5.849   4.320   3.505 -0.6019 -0.6311 -0.3527
  564MOL0     C76007   5.729   4.329   3.524 -0.2102  0.8820  0.4811
  564MOL0     O76008   5.654   4.423   3.459 -0.0587 -0.6531  0.4062
  564MOL0     C76009   5.722   4.501   3.367  0.4195  0.3253 -0.0722
  564MOL0     C76010   5.724   4.633   3.394  0.2214 -0.0389  0.5739
  564MOL0     C76011   5.766   4.723   3.295  0.3087 -0.0126 -0.0561
  564MOL0     C76012   5.815   4.670   3.169 -0.0729  0.4816 -0.9369
  564MOL0     O76013   5.853   4.762   3.077  0.2823 -0.5042 -0.6143
  564MOL0     C76014   5.982   4.768   3.016  0.3417  0.0077 -0.3860
  564MOL0     C76015   6.096   4.790   3.110  0.7080  0.4788 -0.5374
  564MOL0     C76016   6.087   4.930   3.171 -0.4220 -0.5350 -0.2572
  564MOL0     C76017   6.216   4.967   3.243 -0.6662 -0.0390 -0.3688
  564MOL0     C76018   6.237   5.116   3.268  0.6172  0.5945  0.4347
  564MOL0     C76019   6.371   5.147   3.350 -0.3445 -0.0403 -0.2436
  564MOL0     C76020   6.385   5.302   3.370  0.0310  0.7695  0.0521
  564MOL0     C76021   6.381   5.402   3.257 -0.3408 -0.0402  0.2051
  564MOL0     N76022   6.482   5.364   3.154  0.9869 -0.5847 -0.2544
  564MOL0     C76023   6.595   5.439   3.122 -0.1848 -0.8301  0.3285
  564MOL0     C76024   6.656   5.379   3.011 -0.3945  1.0899  0.7660
  564MOL0     C76025   6.766   5.442   2.939 -0.1827 -0.5953  0.6058
  564MOL0     C76026   6.711   5.559   2.848 -0.1483  0.8846  0.1268
  564MOL0     C76027   6.826   5.597   2.750  0.7868 -0.3106 -0.9581
  564MOL0     C76028   6.861   5.485   2.649  0.0056 -0.5522  0.7072
  564MOL0     O76029   6.743   5.452   2.573 -0.2608 -0.2591  0.4986
  564MOL0     C76030   6.749   5.357   2.466 -0.1598 -0.3156  1.0387
  564MOL0     C76031   6.868   5.310   2.416 -0.2393 -0.3732  0.6669
  564MOL0     C76032   6.882   5.240   2.290  0.3103  0.1142 -0.3692
  564MOL0     C76033   7.023   5.216   2.247  0.1119  0.1750  0.1437
  564MOL0     C76034   6.760   5.208   2.225 -0.0650  0.8143  0.0342
  564MOL0     C76035   6.752   5.140   2.094  0.4828  0.6079  0.3333
  564MOL0     O76036   6.631   5.095   2.055 -0.9133  0.3568  0.6009
  564MOL0     C76037   6.631   5.019   1.935 -0.1152 -0.0753 -1.1067
  564MOL0     C76038   6.593   5.067   1.808 -0.5996  0.4633 -1.1479
  564MOL0     C76039   6.605   4.987   1.698 -0.5461  0.2693 -0.0460
  564MOL0     C76040   6.635   4.846   1.718  0.7857 -0.6856 -0.2066
  564MOL0     O76041   6.634   4.751   1.621 -0.2436 -0.2525 -0.3363
  564MOL0     C76042   6.617   4.788   1.489  0.6657 -0.7219  1.3249
  564MOL0     C76043   6.477   4.793   1.454  1.2482 -0.5681  0.2236
  564MOL0     C76044   6.435   4.813   1.311  0.3352 -0.6720 -0.6263
  564MOL0     C76045   6.484   4.706   1.212  0.0257  0.4216 -0.0394
  564MOL0     C76046   6.487   4.758   1.071 -0.3481  0.2751  0.2786
  564MOL0     C76047   6.525   4.647   0.967  0.6055  1.2473  1.0978
  564MOL0     C76048   6.391   4.575   0.911  0.8369  0.2298  1.0492
  564MOL0     C76049   6.314   4.664   0.816 -0.3544 -0.5958  0.9731
  564MOL0    Cl76050   6.404   4.713   0.676  0.5767  0.2636  0.1989
  564MOL0     C76051   6.676   4.806   1.844  0.6215 -0.1110  0.0283
  564MOL0     C76052   6.672   4.887   1.952 -0.8939 -0.2989  0.0522
  564MOL0     O76053   6.858   5.112   2.037 -0.3647  0.5136 -0.7512
  564MOL0     C76054   6.635   5.247   2.288  0.6181  0.5014  0.2647
  564MOL0     C76055   6.632   5.318   2.402  0.3680  0.1714  0.5566
  564MOL0     N76056   6.571   5.270   2.981 -0.7966  0.4168 -0.3297
  564MOL0     N76057   6.473   5.264   3.061  0.7362  0.8011  0.0867
  564MOL0     C76058   5.826   4.529   3.149  0.2642  0.6400  0.3824
  564MOL0     C76059   5.774   4.442   3.248  0.0784  0.7307  0.1798
  564MOL0     C76060   5.670   4.242   3.634 -0.9428 -0.9122 -0.1304
  564MOL0     C76061   5.530   4.234   3.635 -0.3316  0.6896  0.8427
  564MOL0     C76062   5.475   4.147   3.722  0.3461 -0.0327 -0.2064
  564MOL0     C76063   5.550   4.087   3.819  0.2485 -0.6991 -0.5771
  564MOL0     O76064   5.489   4.006   3.911  0.1003  0.4506 -0.4665
  564MOL0     C76065   5.508   3.871   3.906  0.5547  0.1255 -0.0466
  564MOL0     C76066   5.374   3.807   3.896  0.3202  0.5887 -0.0766
  564MOL0     C76067   5.281   3.847   4.015 -0.1214 -0.0952  0.0724
  564MOL0     C76068   5.149   3.760   4.024  0.0076  0.9672 -0.6587
  564MOL0     C76069   5.037   3.804   4.102 -0.3015 -0.0504  0.7828
  564MOL0     C76070   4.935   3.845   4.148  0.3540 -0.5967  0.1974
  564MOL0     C76071   5.691   4.096   3.832 -0.2550  0.8269 -0.6783
  564MOL0     C76072   5.746   4.174   3.727 -1.2241  0.0443 -0.1256
  564MOL0     H76073   5.696   4.674   3.491  0.2346  1.0294  0.1378
  564MOL0     H76074   5.749   4.830   3.299 -0.0429 -0.0127 -1.1964
  564MOL0     H76075   5.991   4.680   2.952  1.4162  0.3408 -0.7104
  564MOL0     H76076   5.986   4.855   2.950  1.1874  1.5777  1.6129
  564MOL0     H76077   6.088   4.729   3.201  3.8828  1.1083  0.2833
  564MOL0     H76078   6.189   4.767   3.058  0.3407 -1.9281 -0.2718
  564MOL0     H76079   6.076   5.005   3.092  2.7725  1.7316  1.2203
  564MOL0     H76080   6.006   4.940   3.244 -0.7532 -0.5287 -0.6225
  564MOL0     H76081   6.222   4.924   3.344  0.3719  0.9743  0.0191
  564MOL0     H76082   6.302   4.943   3.180 -1.0260 -1.5250 -0.3300
  564MOL0     H76083   6.235   5.161   3.168 -0.2600  0.9931  0.6142
  564MOL0     H76084   6.159   5.166   3.326  1.0958 -0.1310  1.7406
  564MOL0     H76085   6.357   5.094   3.445 -1.0190 -0.5679 -0.6266
  564MOL0     H76086   6.460   5.115   3.295 -0.4274  0.1242 -0.4735
  564MOL0     H76087   6.309   5.335   3.443 -1.0998  0.7141 -1.0657
  564MOL0     H76088   6.484   5.317   3.413 -0.3895 -0.3870  1.5187
  564MOL0     H76089   6.412   5.499   3.298  1.4005 -0.3848 -0.1882
  564MOL0     H76090   6.286   5.405   3.203  0.5559 -0.2036 -1.4524
  564MOL0     H76091   6.630   5.528   3.175  1.8186 -1.5502  0.2732
  564MOL0     H76092   6.833   5.489   3.011 -0.5455 -0.7937  1.0776
  564MOL0     H76093   6.819   5.372   2.875  0.5416 -1.0138  1.6363
  564MOL0     H76094   6.696   5.648   2.910 -0.3866 -0.1967  1.6857
  564MOL0     H76095   6.619   5.531   2.795 -0.3389 -0.7679  1.2601
  564MOL0     H76096   6.915   5.601   2.813 -2.3488  0.4849  3.9047
  564MOL0     H76097   6.811   5.692   2.697  0.7393  0.8291  1.0132
  564MOL0     H76098   6.901   5.395   2.695  0.0476 -0.0293  1.7136
  564MOL0     H76099   6.939   5.528   2.586 -0.5986  2.9599  2.1256
  564MOL0     H76100   6.958   5.332   2.472 -0.1358  4.7467 -0.9942
  564MOL0     H76101   7.034   5.225   2.138  2.0349  1.0785  0.3649
  564MOL0     H76102   7.095   5.288   2.287 -1.1342  2.1567 -1.0061
  564MOL0     H76103   7.056   5.117   2.281 -0.3305  0.0446  0.1919
  564MOL0     H76104   6.551   5.167   1.804  1.1875  1.2512 -1.4099
  564MOL0     H76105   6.576   5.033   1.604  1.8700  0.2376 -0.8833
  564MOL0     H76106   6.661   4.888   1.477 -0.4680 -0.3937 -0.3760
  564MOL0     H76107   6.672   4.728   1.416  0.5601 -0.8705  1.3672
  564MOL0     H76108   6.442   4.695   1.488 -2.1233  0.3909 -0.0512
  564MOL0     H76109   6.426   4.865   1.519 -2.4275 -3.0093  0.3624
  564MOL0     H76110   6.469   4.914   1.285 -0.1750 -0.1830  0.5399
  564MOL0     H76111   6.327   4.830   1.320  0.8632  4.4507 -0.9100
  564MOL0     H76112   6.582   4.664   1.232  1.3893  1.6994 -3.2811
  564MOL0     H76113   6.414   4.622   1.200  1.8537 -1.1408 -0.2137
  564MOL0     H76114   6.556   4.843   1.062  1.9003 -1.4478  0.3587
  564MOL0     H76115   6.398   4.812   1.037  0.9605  1.9052 -0.7550
  564MOL0     H76116   6.591   4.692   0.893  1.8613 -1.7684  0.2424
  564MOL0     H76117   6.589   4.570   1.011 -1.9060 -1.7502 -0.1292
  564MOL0     H76118   6.329   4.540   0.994 -0.3222 -3.3501 -1.0902
  564MOL0     H76119   6.427   4.487   0.857 -0.5028  1.6626 -2.5148
  564MOL0     H76120   6.285   4.759   0.862 -2.5429  1.1245 -3.4534
  564MOL0     H76121   6.214   4.624   0.797 -0.1818 -1.4889  1.8355
  564MOL0     H76122   6.708   4.704   1.865 -1.8410 -1.1523 -0.9146
  564MOL0     H76123   6.710   4.846   2.045 -0.2677 -1.1226 -0.5451
  564MOL0     H76124   6.549   5.218   2.229  1.6633  0.0100 -1.0519
  564MOL0     H76125   6.537   5.345   2.447 -0.5348 -3.0867  0.8038
  564MOL0     H76126   5.863   4.487   3.056 -0.4381  0.6282  0.0977
  564MOL0     H76127   5.774   4.334   3.235  0.1066  0.7262  0.2109
  564MOL0     H76128   5.469   4.293   3.568  1.6565  1.2457 -0.5833
  564MOL0     H76129   5.367   4.136   3.731  0.4263 -0.5550  0.1409
  564MOL0     H76130   5.571   3.845   3.820  0.2529  1.6014 -0.7467
  564MOL0     H76131   5.562   3.836   3.995  1.8079  1.1005 -0.3860
  564MOL0     H76132   5.393   3.699   3.906 -3.1791 -0.0832  0.8882
  564MOL0     H76133   5.322   3.833   3.803 -0.6428 -0.2519  0.1991
  564MOL0     H76134   5.245   3.949   4.003 -1.3626 -0.6444 -1.3301
  564MOL0     H76135   5.349   3.844   4.100 -0.1684  0.5665  0.1393
  564MOL0     H76136   5.176   3.658   4.053  1.0377  0.4599 -3.1046
  564MOL0     H76137   5.119   3.751   3.919  0.6012  0.1180 -0.7710
  564MOL0     H76138   4.837   3.866   4.186 -0.3708 -0.7104 -1.5475
  564MOL0     H76139   5.747   4.046   3.910 -0.4855  0.2140 -0.9007
  564MOL0     H76140   5.854   4.184   3.715 -1.4581 -0.8327 -4.8510
  565MOL0     O76141  10.710   6.128   5.727  0.5797 -0.7976  1.0927
  565MOL0     C76142  10.715   6.037   5.644  0.3651  0.6925 -0.3068
  565MOL0     O76143  10.828   5.999   5.576 -0.2728 -0.2037 -0.8941
  565MOL0     C76144  10.928   6.096   5.576 -0.0310  0.7738 -0.3562
  565MOL0     C76145  11.014   6.139   5.678  0.0752  1.1002 -0.0798
  565MOL0     C76146  11.126   6.206   5.661 -0.8582 -0.0087  0.1095
  565MOL0     C76147  11.151   6.272   5.543  0.0384 -0.1210  0.6686
  565MOL0     O76148  11.264   6.345   5.530  0.0831 -0.5812  0.6451
  565MOL0     C76149  11.335   6.332   5.405 -0.7755  0.2043  0.5970
  565MOL0     C76150  11.383   6.184   5.375  0.5798  0.2130 -0.2691
  565MOL0     C76151  11.473   6.137   5.493  0.4097 -0.4609 -0.0552
  565MOL0     C76152  11.478   5.980   5.493 -0.8372  0.6642 -0.4838
  565MOL0     C76153  11.612   5.929   5.554 -0.5528 -0.1856 -0.3665
  565MOL0     C76154  11.632   5.787   5.518  0.3660 -0.5378  0.4408
  565MOL0     C76155  11.749   5.721   5.600  0.2952 -0.3443 -0.5905
  565MOL0     C76156  11.889   5.773   5.569  0.3892 -0.8427 -0.4018
  565MOL0     N76157  11.932   5.709   5.446  0.1220 -0.5079  0.0119
  565MOL0     C76158  12.058   5.665   5.450  0.1316  0.4789  0.6339
  565MOL0     C76159  12.095   5.654   5.320 -0.3315 -0.1370 -0.2459
  565MOL0     C76160  12.225   5.601   5.274 -0.4100 -0.7768  0.0437
  565MOL0     C76161  12.353   5.674   5.326 -0.3979  0.0037 -0.2253
  565MOL0     C76162  12.484   5.603   5.294 -0.1292 -0.2570  0.6714
  565MOL0     C76163  12.514   5.589   5.143  0.1024 -0.8741  0.3633
  565MOL0     O76164  12.620   5.499   5.119 -0.3558 -1.4904 -0.3981
  565MOL0     C76165  12.744   5.558   5.115 -0.6218  0.1433 -0.0809
  565MOL0     C76166  12.849   5.486   5.060  0.1971 -0.4044  0.4471
  565MOL0     C76167  12.983   5.526   5.052  0.2373 -0.9022 -0.4693
  565MOL0     C76168  13.090   5.426   4.999  0.4973 -0.4399 -0.0343
  565MOL0     C76169  13.020   5.652   5.098 -0.4858  0.1839  0.9608
  565MOL0     C76170  13.155   5.720   5.075  0.2796 -0.3832 -0.3518
  565MOL0     O76171  13.172   5.841   5.142  0.4395  0.3296  0.4023
  565MOL0     C76172  13.277   5.914   5.116 -0.1806 -1.0356 -1.0995
  565MOL0     C76173  13.404   5.875   5.104 -0.0794  0.2677  0.3247
  565MOL0     C76174  13.505   5.973   5.085 -0.0821 -0.2872 -0.5033
  565MOL0     C76175  13.478   6.103   5.070  0.1814 -0.1716  0.6713
  565MOL0     O76176  13.580   6.192   5.041  0.3904 -0.3461  0.0768
  565MOL0     C76177  13.711   6.175   5.096 -0.4850  0.9254 -0.4255
  565MOL0     C76178  13.803   6.301   5.082 -0.5081 -0.5779  0.4555
  565MOL0     C76179  13.944   6.286   5.092 -0.2535 -0.1320  0.8669
  565MOL0     C76180  14.001   6.225   5.221  1.1887  0.3126  0.5725
  565MOL0     C76181  14.149   6.248   5.242 -0.4426  0.5747  0.3412
  565MOL0     C76182  14.245   6.152   5.160  0.1451  1.6002 -0.5713
  565MOL0     C76183  14.391   6.165   5.199  0.0521  0.0540  0.8599
  565MOL0     C76184  14.446   6.298   5.135 -0.4522 -0.0583  0.5000
  565MOL0    Cl76185  14.617   6.329   5.164 -0.2317 -0.3943 -0.4165
  565MOL0     C76186  13.347   6.150   5.081  0.7526  0.3408  0.3573
  565MOL0     C76187  13.249   6.049   5.102 -0.2734  0.0847 -0.7614
  565MOL0     O76188  13.236   5.670   4.999  0.1472  0.6509  0.0202
  565MOL0     C76189  12.919   5.730   5.142 -0.3845 -0.9006 -0.9873
  565MOL0     C76190  12.783   5.688   5.160  0.3621  0.5554  0.4286
  565MOL0     N76191  11.994   5.701   5.239 -0.3621 -0.1934 -0.7507
  565MOL0     N76192  11.895   5.741   5.314  0.2109  0.0419  0.6791
  565MOL0     C76193  11.065   6.235   5.432  0.5412 -0.8762 -0.2340
  565MOL0     C76194  10.959   6.146   5.450  0.9972 -0.0541 -1.2805
  565MOL0     C76195  10.606   5.941   5.637  0.7999  0.9009 -0.5193
  565MOL0     C76196  10.615   5.822   5.554 -0.3703  0.0863 -0.5489
  565MOL0     C76197  10.515   5.724   5.538 -0.5437  0.4906 -0.9816
  565MOL0     C76198  10.393   5.744   5.617 -0.1507  1.0870 -0.0868
  565MOL0     O76199  10.283   5.663   5.620  0.6129  0.4493 -0.0487
  565MOL0     C76200  10.303   5.528   5.591  0.8386  0.1929 -0.3209
  565MOL0     C76201  10.174   5.468   5.534 -0.4313  0.2347 -0.2428
  565MOL0     C76202  10.066   5.460   5.639 -0.1108  0.6499  0.2450
  565MOL0     C76203   9.947   5.369   5.597  0.1889  0.8114 -0.1500
  565MOL0     C76204   9.886   5.413   5.472  0.1582  0.6937 -0.2640
  565MOL0     C76205   9.830   5.447   5.376 -0.1994  0.2086 -0.9673
  565MOL0     C76206  10.381   5.846   5.708  0.2286 -0.3181  0.2807
  565MOL0     C76207  10.487   5.938   5.720  0.3534  0.9522 -0.6759
  565MOL0     H76208  11.012   6.085   5.772 -1.8713  0.2938 -0.5410
  565MOL0     H76209  11.203   6.209   5.738 -0.2880  0.4363 -0.4754
  565MOL0     H76210  11.277   6.378   5.325  0.8823  1.7473  0.2403
  565MOL0     H76211  11.424   6.395   5.412 -0.4680  0.0971 -1.5894
  565MOL0     H76212  11.297   6.119   5.355  3.0562 -3.0462 -1.3819
  565MOL0     H76213  11.436   6.180   5.279  0.0483 -1.7096 -0.5236
  565MOL0     H76214  11.575   6.171   5.471  0.7826 -1.0158  0.7761
  565MOL0     H76215  11.441   6.187   5.585 -1.1471  2.6272 -2.1072
  565MOL0     H76216  11.392   5.933   5.543  0.0070 -2.7706 -1.9658
  565MOL0     H76217  11.472   5.944   5.390 -0.8748 -0.1817 -0.1954
  565MOL0     H76218  11.695   5.997   5.530 -3.0164  3.5215  0.6862
  565MOL0     H76219  11.608   5.950   5.661  2.4584  0.6805 -0.3256
  565MOL0     H76220  11.542   5.729   5.537  0.1625 -0.1391  0.7088
  565MOL0     H76221  11.657   5.762   5.414  1.5620 -3.1811  1.2781
  565MOL0     H76222  11.738   5.749   5.706  1.2367  0.2644 -0.6387
  565MOL0     H76223  11.740   5.613   5.588 -1.8906 -0.3502  0.5869
  565MOL0     H76224  11.954   5.750   5.654 -1.2417  2.1708  1.8729
  565MOL0     H76225  11.893   5.882   5.565  1.5971 -0.9088 -2.2860
  565MOL0     H76226  12.127   5.645   5.531  4.7814 -0.4806 -3.1288
  565MOL0     H76227  12.228   5.494   5.294  1.5531 -0.8788 -0.6265
  565MOL0     H76228  12.222   5.618   5.166 -0.0923 -1.6568 -0.1139
  565MOL0     H76229  12.336   5.689   5.433 -2.0926 -2.4229 -0.0740
  565MOL0     H76230  12.361   5.774   5.282 -3.4725 -0.5236 -2.2833
  565MOL0     H76231  12.488   5.507   5.347  1.5733  0.9175  2.8653
  565MOL0     H76232  12.556   5.665   5.348 -2.7814  2.6780  1.1124
  565MOL0     H76233  12.525   5.675   5.077 -1.5500 -1.6911 -1.0602
  565MOL0     H76234  12.428   5.535   5.103 -0.5136  0.5509 -0.3363
  565MOL0     H76235  12.812   5.389   5.029 -0.5681 -0.6748  2.0930
  565MOL0     H76236  13.097   5.456   4.894 -2.3322 -1.1155 -0.4731
  565MOL0     H76237  13.186   5.428   5.051  0.1032 -0.2427  0.6902
  565MOL0     H76238  13.053   5.323   4.993  0.4105 -0.3442 -1.5651
  565MOL0     H76239  13.428   5.770   5.103  0.4203  0.2915  3.0266
  565MOL0     H76240  13.606   5.932   5.084 -0.0528 -0.2714  0.7795
  565MOL0     H76241  13.696   6.139   5.198 -3.3093 -3.6614 -2.1379
  565MOL0     H76242  13.765   6.095   5.045  0.1810 -0.3734  2.1336
  565MOL0     H76243  13.784   6.334   4.979 -1.1080 -0.0026  0.7433
  565MOL0     H76244  13.784   6.380   5.155  1.3549 -1.0705  1.5332
  565MOL0     H76245  13.983   6.388   5.088  0.0257 -0.2567  0.2111
  565MOL0     H76246  13.982   6.246   4.998 -1.6032  1.3204 -0.3490
  565MOL0     H76247  13.955   6.274   5.307 -2.1779 -1.2673 -0.1754
  565MOL0     H76248  13.986   6.117   5.212  0.8563  0.5344 -2.5833
  565MOL0     H76249  14.176   6.222   5.345 -0.4594 -0.9703 -0.0326
  565MOL0     H76250  14.170   6.355   5.228 -0.7433  0.7319  1.0522
  565MOL0     H76251  14.226   6.051   5.200  1.2050  1.3776 -0.5987
  565MOL0     H76252  14.236   6.161   5.052  0.4184 -1.9186 -1.0161
  565MOL0     H76253  14.446   6.080   5.158 -0.3772  0.0027  0.3796
  565MOL0     H76254  14.404   6.170   5.307 -1.3755 -0.6264  1.0888
  565MOL0     H76255  14.399   6.387   5.178 -0.6298 -1.0679  2.5184
  565MOL0     H76256  14.438   6.290   5.026  0.6560 -1.0052  0.4675
  565MOL0     H76257  13.317   6.254   5.086 -2.9307 -0.6264  1.3530
  565MOL0     H76258  13.146   6.081   5.113 -0.0058 -0.0126  3.1969
  565MOL0     H76259  12.930   5.837   5.134  2.9710 -1.0324  0.3247
  565MOL0     H76260  12.718   5.767   5.194  0.2523  1.5790 -1.9764
  565MOL0     H76261  11.086   6.275   5.334 -0.1222 -2.0447 -0.8762
  565MOL0     H76262  10.899   6.115   5.365  1.2614  1.1868 -1.9509
  565MOL0     H76263  10.695   5.807   5.482 -1.7666 -2.0813 -1.7706
  565MOL0     H76264  10.536   5.640   5.473  1.0631 -0.5800  0.8240
  565MOL0     H76265  10.386   5.510   5.521  1.6675  0.7598  0.4888
  565MOL0     H76266  10.316   5.471   5.684 -2.8152 -2.1105 -1.0039
  565MOL0     H76267  10.198   5.369   5.494 -2.2593  0.7150 -2.8431
  565MOL0     H76268  10.137   5.529   5.450 -1.5660  1.3950  1.0529
  565MOL0     H76269  10.022   5.554   5.673  1.2939  1.3449  0.1866
  565MOL0     H76270  10.099   5.420   5.735 -3.6662 -0.8045  1.0400
  565MOL0     H76271   9.879   5.357   5.682  0.1504 -0.0989 -0.3015
  565MOL0     H76272   9.987   5.269   5.582  1.5458  1.1618  0.8469
  565MOL0     H76273   9.788   5.493   5.289 -1.1131  1.6359  0.1808
  565MOL0     H76274  10.294   5.866   5.769 -0.5664  2.5789 -1.5809
  565MOL0     H76275  10.476   6.011   5.800 -3.3731  0.0401 -0.1646
  566MOL0     O76276   0.774   8.134  11.439  0.1750  0.9942  0.7407
  566MOL0     C76277   0.695   8.033  11.436 -0.4017 -0.5321 -0.4051
  566MOL0     O76278   0.559   8.044  11.463 -0.2331  0.4672  0.1262
  566MOL0     C76279   0.512   8.166  11.500 -0.3911  0.5009  0.8220
  566MOL0     C76280   0.437   8.173  11.611 -0.6793 -0.0887  0.6515
  566MOL0     C76281   0.373   8.296  11.653  0.1371  0.0369  0.2870
  566MOL0     C76282   0.369   8.406  11.560 -0.2085 -0.3062 -0.9334
  566MOL0     O76283   0.283   8.508  11.568  0.4911 -0.5587 -0.0314
  566MOL0     C76284   0.222   8.561  11.687 -0.3171 -1.1941  1.1303
  566MOL0     C76285   0.209   8.716  11.663 -0.4441 -0.7061 -0.1828
  566MOL0     C76286   0.172   8.785  11.798 -1.0045 -0.3795  0.4695
  566MOL0     C76287   0.170   8.933  11.789  0.4807  0.0887 -0.6803
  566MOL0     C76288   0.108   8.982  11.923  1.0451  0.6446 -0.1044
  566MOL0     C76289   0.030   9.116  11.906 -0.2317 -0.3310 -0.7195
  566MOL0     C76290  -0.059   9.161  12.021  0.0603  0.2060 -0.2371
  566MOL0     C76291   0.023   9.189  12.152 -0.0782  0.0225  0.2155
  566MOL0     N76292   0.138   9.284  12.130  0.5169  0.5299  0.5789
  566MOL0     C76293   0.126   9.411  12.083 -0.6316  0.0633 -0.1618
  566MOL0     C76294   0.255   9.458  12.089 -0.0341 -0.0190 -0.6304
  566MOL0     C76295   0.294   9.596  12.054  0.0611 -0.0094  0.3646
  566MOL0     C76296   0.242   9.698  12.158 -0.4954 -0.0944  0.3906
  566MOL0     C76297   0.265   9.665  12.306 -0.6532 -0.8474  0.3613
  566MOL0     C76298   0.417   9.685  12.337 -0.2568 -0.6415 -1.2892
  566MOL0     O76299   0.461   9.827  12.314  0.5325 -0.5915  0.1152
  566MOL0     C76300   0.429   9.929  12.407 -0.3998  0.4288  0.3156
  566MOL0     C76301   0.314   9.997  12.380 -0.4069 -0.5124  0.4672
  566MOL0     C76302   0.278  10.113  12.458 -0.7362 -0.5452  0.5671
  566MOL0     C76303   0.146  10.185  12.414 -0.3007  0.0834  0.2606
  566MOL0     C76304   0.354  10.145  12.574 -0.0499 -0.0064 -0.0969
  566MOL0     C76305   0.309  10.247  12.665 -0.0259 -0.0466 -0.0688
  566MOL0     O76306   0.232  10.339  12.623 -0.1907  0.4030 -0.5791
  566MOL0     C76307   0.145  10.397  12.716  0.0334 -1.0175 -0.4016
  566MOL0     C76308   0.066  10.320  12.797 -0.1706 -0.4370 -0.3529
  566MOL0     C76309  -0.023  10.381  12.892  0.9456  0.2813  0.3456
  566MOL0     C76310  -0.019  10.513  12.922 -0.9245  0.1360  0.1650
  566MOL0     O76311  -0.084  10.588  13.009  0.4877  0.1298  0.3200
  566MOL0     C76312  -0.178  10.529  13.099  0.4310  0.7420 -0.5401
  566MOL0     C76313  -0.248  10.637  13.182 -0.6634 -0.8874 -0.0776
  566MOL0     C76314  -0.328  10.733  13.100  0.9434  0.8189  0.4794
  566MOL0     C76315  -0.452  10.775  13.187  0.9056  0.4328 -0.7277
  566MOL0     C76316  -0.526  10.897  13.121  1.0517  0.2284  0.7205
  566MOL0     C76317  -0.592  10.882  12.972 -0.4630  0.3650 -0.4996
  566MOL0     C76318  -0.690  10.781  12.976  0.4624  0.0782 -0.8162
  566MOL0     C76319  -0.768  10.795  12.843 -0.5159 -0.6476  0.6758
  566MOL0    Cl76320  -0.900  10.904  12.857  0.1572  0.4217 -0.4046
  566MOL0     C76321   0.085  10.588  12.857  0.1226  0.6563 -0.6527
  566MOL0     C76322   0.161  10.528  12.748 -0.0270  0.2368 -0.6831
  566MOL0     O76323   0.362  10.238  12.773 -0.0350  0.2584 -0.4378
  566MOL0     C76324   0.473  10.067  12.599  0.1841  0.7169  0.3884
  566MOL0     C76325   0.512   9.966  12.514 -0.7979  0.0183  0.5934
  566MOL0     N76326   0.341   9.362  12.151 -0.5052  0.4057 -0.3487
  566MOL0     N76327   0.267   9.253  12.169 -0.1653  0.4033 -0.4320
  566MOL0     C76328   0.454   8.401  11.445  0.7046  0.5069  0.1838
  566MOL0     C76329   0.517   8.276  11.415  0.5658  0.3824  0.2305
  566MOL0     C76330   0.756   7.897  11.396  0.9207 -0.4063  0.1519
  566MOL0     C76331   0.887   7.885  11.359  0.2696 -0.8859 -0.4402
  566MOL0     C76332   0.944   7.762  11.320  0.2798  0.3033 -0.2596
  566MOL0     C76333   0.856   7.649  11.311  0.3444 -0.0794 -0.2862
  566MOL0     O76334   0.901   7.520  11.295 -0.0909  0.3693  0.6294
  566MOL0     C76335   1.006   7.477  11.381  0.6426 -0.1095 -1.0518
  566MOL0     C76336   1.012   7.329  11.381  0.1319  0.3287 -0.3388
  566MOL0     C76337   0.895   7.263  11.439  0.6179 -0.3478 -0.0870
  566MOL0     C76338   0.875   7.285  11.588 -0.2094  1.1335  0.6581
  566MOL0     C76339   0.992   7.236  11.669 -0.2558  0.3159  0.5504
  566MOL0     C76340   1.088   7.183  11.721 -0.3299  0.4470  0.5163
  566MOL0     C76341   0.722   7.659  11.343 -1.5828 -0.7892  0.0718
  566MOL0     C76342   0.677   7.782  11.398  0.1131 -0.3698  0.5989
  566MOL0     H76343   0.420   8.082  11.668  3.3714 -1.0198  0.7007
  566MOL0     H76344   0.314   8.313  11.743 -0.0019  1.5000 -0.0493
  566MOL0     H76345   0.118   8.533  11.707 -1.1019  1.4071  1.1686
  566MOL0     H76346   0.280   8.543  11.778  0.7015 -0.0883  0.7277
  566MOL0     H76347   0.300   8.755  11.615  0.4443 -1.5318  0.7801
  566MOL0     H76348   0.125   8.727  11.594  0.9769 -0.1377 -1.9339
  566MOL0     H76349   0.075   8.754  11.837 -0.2759 -3.1946  0.2406
  566MOL0     H76350   0.252   8.756  11.867 -0.9249  1.4996  1.2339
  566MOL0     H76351   0.264   8.990  11.783  0.1953  0.8348  1.1182
  566MOL0     H76352   0.108   8.966  11.706  0.9014  1.5145 -0.4579
  566MOL0     H76353   0.034   8.911  11.960 -1.5399  1.6956 -2.9131
  566MOL0     H76354   0.189   8.984  11.998  1.8332  0.9920 -0.9413
  566MOL0     H76355   0.102   9.193  11.877 -0.4330  0.5326  0.9777
  566MOL0     H76356  -0.026   9.102  11.813  1.2528 -0.1018 -1.6872
  566MOL0     H76357  -0.108   9.254  11.989 -1.2968 -0.0018  1.1179
  566MOL0     H76358  -0.137   9.089  12.046 -0.9222  1.5511  0.7779
  566MOL0     H76359   0.061   9.100  12.203  1.2090  0.1934 -0.4055
  566MOL0     H76360  -0.048   9.228  12.225  0.2787 -2.7621  2.1971
  566MOL0     H76361   0.039   9.468  12.054 -0.3343  2.4778  3.1173
  566MOL0     H76362   0.404   9.590  12.052 -0.0292 -2.8555 -0.3325
  566MOL0     H76363   0.262   9.627  11.955  2.8118  0.8797 -0.3563
  566MOL0     H76364   0.135   9.704  12.139 -0.6843 -3.9106 -0.5687
  566MOL0     H76365   0.280   9.796  12.127  0.2336 -0.5908 -0.3392
  566MOL0     H76366   0.235   9.563  12.332  0.8458 -1.8387 -1.4883
  566MOL0     H76367   0.208   9.738  12.365 -0.0155 -0.7297  0.8384
  566MOL0     H76368   0.484   9.622  12.277  3.1049 -0.6183  2.0707
  566MOL0     H76369   0.436   9.660  12.442  0.3616  0.4905 -1.1185
  566MOL0     H76370   0.251   9.969  12.296 -0.5572 -1.4062  0.8643
  566MOL0     H76371   0.063  10.187  12.485 -0.6764  3.7901 -0.0588
  566MOL0     H76372   0.172  10.291  12.408 -1.3455  0.3009 -1.4207
  566MOL0     H76373   0.126  10.161  12.309 -0.3129 -1.7834  0.6563
  566MOL0     H76374   0.056  10.216  12.768 -1.2869 -0.4348 -0.0334
  566MOL0     H76375  -0.106  10.323  12.930  0.3403 -0.2313 -1.6528
  566MOL0     H76376  -0.248  10.470  13.040  1.6479  1.2109 -2.5457
  566MOL0     H76377  -0.138  10.463  13.177 -4.5500  1.3784  3.0116
  566MOL0     H76378  -0.296  10.590  13.268 -1.2258 -1.1926 -0.5434
  566MOL0     H76379  -0.167  10.693  13.228 -1.1503 -0.4817  0.3042
  566MOL0     H76380  -0.368  10.695  13.006  0.3210  0.6229  0.8186
  566MOL0     H76381  -0.266  10.822  13.086  0.7823  0.7604 -0.6872
  566MOL0     H76382  -0.515  10.685  13.191 -0.2497  1.2054  3.4911
  566MOL0     H76383  -0.412  10.795  13.287 -3.5181 -2.2684  1.9361
  566MOL0     H76384  -0.445  10.971  13.118 -0.0890  1.6681  3.0288
  566MOL0     H76385  -0.601  10.946  13.184  1.6225 -1.6677  3.0123
  566MOL0     H76386  -0.639  10.972  12.930  0.0646  0.4501 -0.9215
  566MOL0     H76387  -0.520  10.841  12.900  2.2237 -0.5484  2.4900
  566MOL0     H76388  -0.753  10.797  13.065  1.7061 -0.3371  0.1611
  566MOL0     H76389  -0.638  10.686  12.986 -0.4968 -0.1860  3.4754
  566MOL0     H76390  -0.810  10.696  12.824  0.1202 -0.7210 -0.4379
  566MOL0     H76391  -0.703  10.819  12.758  1.1315  0.3794  2.1676
  566MOL0     H76392   0.094  10.693  12.883 -4.1990  1.5435 -1.9072
  566MOL0     H76393   0.234  10.591  12.697 -0.9485  1.1756 -0.8706
  566MOL0     H76394   0.531  10.077  12.690 -1.3209 -1.3014  1.6435
  566MOL0     H76395   0.603   9.912  12.539 -2.0848 -1.5042  2.2097
  566MOL0     H76396   0.466   8.486  11.379 -2.2476 -1.1133 -2.7413
  566MOL0     H76397   0.575   8.273  11.324 -0.9918  0.5697 -0.8014
  566MOL0     H76398   0.956   7.968  11.367 -0.0865 -0.0198 -4.3250
  566MOL0     H76399   1.052   7.754  11.315  0.3236  1.4296 -1.7595
  566MOL0     H76400   1.099   7.525  11.350  0.3115  1.0715 -0.2952
  566MOL0     H76401   0.990   7.514  11.483 -0.5299 -1.7419 -0.5925
  566MOL0     H76402   1.093   7.292  11.444 -1.5125 -1.5608  0.8079
  566MOL0     H76403   1.023   7.302  11.276  0.9694  2.3586 -0.8174
  566MOL0     H76404   0.906   7.155  11.427  0.9210 -0.5359  1.6126
  566MOL0     H76405   0.809   7.300  11.381  0.7986  1.7025  0.8564
  566MOL0     H76406   0.796   7.217  11.622 -0.6376  1.3623  0.1423
  566MOL0     H76407   0.840   7.388  11.598  2.0680  2.2231 -1.5203
  566MOL0     H76408   1.171   7.141  11.775 -0.0725  0.8844  0.4670
  566MOL0     H76409   0.671   7.564  11.352  2.5081 -3.3150 -0.7993
  566MOL0     H76410   0.576   7.783  11.438  0.8257  0.5954  2.5352
  567MOL0     O76411   6.436   7.005   2.518  0.0467 -0.4381 -0.1425
  567MOL0     C76412   6.406   6.976   2.405  0.1163  0.0157  0.6573
  567MOL0     O76413   6.282   7.000   2.348  0.3289  0.4968 -0.2094
  567MOL0     C76414   6.188   7.029   2.442 -0.1810 -1.3452  0.9357
  567MOL0     C76415   6.151   6.940   2.544 -0.1129 -0.6683 -0.2143
  567MOL0     C76416   6.039   6.974   2.627  0.1274  0.1339 -0.7224
  567MOL0     C76417   5.969   7.097   2.612 -0.7317  0.1381  1.0908
  567MOL0     O76418   5.871   7.121   2.702  0.1764  0.3950  0.1809
  567MOL0     C76419   5.743   7.141   2.642  0.3042  0.1479  0.4121
  567MOL0     C76420   5.639   7.153   2.750  0.0906  0.7208 -0.1574
  567MOL0     C76421   5.638   7.292   2.814  0.3028  0.2153  0.0234
  567MOL0     C76422   5.543   7.305   2.930  0.4994  1.4640  0.2943
  567MOL0     C76423   5.531   7.441   2.995  0.2463 -0.2225  0.6560
  567MOL0     C76424   5.396   7.511   2.941  0.4466  0.0465  0.3599
  567MOL0     C76425   5.376   7.646   3.007 -0.1215  0.6036  0.9537
  567MOL0     C76426   5.295   7.638   3.137  0.3151 -0.8142  0.0209
  567MOL0     N76427   5.363   7.569   3.246  0.6425  0.8014  0.6078
  567MOL0     C76428   5.479   7.619   3.306  1.0675 -0.4101  1.4364
  567MOL0     C76429   5.523   7.526   3.397 -0.6367  0.9439  0.1327
  567MOL0     C76430   5.629   7.544   3.497  0.2071  1.5673  0.2992
  567MOL0     C76431   5.763   7.518   3.444  0.3740 -0.2658 -0.1980
  567MOL0     C76432   5.786   7.371   3.418  0.8236 -0.4358 -0.8233
  567MOL0     C76433   5.927   7.346   3.370  0.5982 -0.2017  0.1280
  567MOL0     O76434   5.950   7.433   3.252 -0.2161  0.8393  0.4998
  567MOL0     C76435   6.072   7.416   3.184  0.5502 -0.3145 -0.6557
  567MOL0     C76436   6.066   7.377   3.049 -0.2424 -0.9548 -0.0414
  567MOL0     C76437   6.178   7.371   2.967  0.0226  0.4672  0.3394
  567MOL0     C76438   6.154   7.330   2.824  0.6551 -0.7818  0.2982
  567MOL0     C76439   6.308   7.394   3.024 -0.8706  0.4611  1.3278
  567MOL0     C76440   6.439   7.384   2.945  0.4928 -0.0542 -0.3676
  567MOL0     O76441   6.442   7.420   2.818 -0.2715 -0.6152  0.2082
  567MOL0     C76442   6.561   7.405   2.756 -0.6809 -1.4003  0.3239
  567MOL0     C76443   6.599   7.296   2.691  0.6472  0.4022 -0.2815
  567MOL0     C76444   6.722   7.293   2.619  0.0920  0.0162 -0.1171
  567MOL0     C76445   6.806   7.396   2.623  1.1481 -0.4415 -0.5806
  567MOL0     O76446   6.925   7.370   2.558 -0.3555 -0.6723 -0.0163
  567MOL0     C76447   7.026   7.466   2.536  0.3407  0.7439  0.0668
  567MOL0     C76448   7.122   7.453   2.654  0.5203  0.2753  0.3037
  567MOL0     C76449   7.190   7.318   2.682 -0.3667  0.2112 -0.1798
  567MOL0     C76450   7.241   7.237   2.567  0.9684 -0.4706 -0.1050
  567MOL0     C76451   7.326   7.109   2.597  0.8175  0.2000  0.9940
  567MOL0     C76452   7.393   7.045   2.471  0.5530 -0.3522 -0.2357
  567MOL0     C76453   7.461   6.918   2.507  0.4977  0.7159  0.1473
  567MOL0     C76454   7.508   6.844   2.383  0.0390  0.3271 -0.3227
  567MOL0    Cl76455   7.588   6.679   2.406  0.3590 -0.4124 -0.0841
  567MOL0     C76456   6.770   7.514   2.697  0.2334  0.3345  0.5755
  567MOL0     C76457   6.648   7.518   2.767  0.9562 -0.3680 -0.0801
  567MOL0     O76458   6.533   7.336   3.013  0.1084  0.5989 -0.0342
  567MOL0     C76459   6.319   7.432   3.162 -0.1403 -0.9357  0.9835
  567MOL0     C76460   6.199   7.445   3.237  0.1703  0.0231 -0.7102
  567MOL0     N76461   5.437   7.411   3.382 -0.6797 -0.2416 -0.4241
  567MOL0     N76462   5.341   7.439   3.292 -0.0162  0.5772 -0.7002
  567MOL0     C76463   6.013   7.181   2.510 -0.4895  0.1940 -0.1903
  567MOL0     C76464   6.115   7.147   2.425  0.5665 -0.2687 -0.4203
  567MOL0     C76465   6.516   6.920   2.325  1.1798 -0.8684  0.2490
  567MOL0     C76466   6.492   6.876   2.201  0.7081 -0.1715  0.3187
  567MOL0     C76467   6.580   6.812   2.118  0.0816 -0.1288 -0.6371
  567MOL0     C76468   6.706   6.782   2.163 -0.3307 -0.7908 -0.3908
  567MOL0     O76469   6.791   6.707   2.079 -0.2762 -0.6863 -0.7050
  567MOL0     C76470   6.915   6.663   2.142 -0.6314 -0.8960  0.0061
  567MOL0     C76471   6.932   6.527   2.065  0.1579 -0.3440  0.1353
  567MOL0     C76472   6.930   6.561   1.917 -0.7380  0.0797  0.6091
  567MOL0     C76473   7.022   6.470   1.829  0.1775 -0.7948 -0.6659
  567MOL0     C76474   7.162   6.515   1.847  0.0498 -0.2607 -0.3148
  567MOL0     C76475   7.283   6.527   1.880 -0.2570 -0.1464 -0.1208
  567MOL0     C76476   6.745   6.837   2.291 -0.8416  1.2201 -0.3648
  567MOL0     C76477   6.651   6.915   2.366  0.2058 -0.2156  0.2309
  567MOL0     H76478   6.208   6.850   2.562 -1.2627 -1.0079  2.0218
  567MOL0     H76479   6.007   6.911   2.709 -0.2270  0.8981 -0.2632
  567MOL0     H76480   5.744   7.231   2.579  0.0953  0.2618  0.5730
  567MOL0     H76481   5.722   7.062   2.569 -1.4821 -1.2231  2.3028
  567MOL0     H76482   5.543   7.113   2.717 -0.5578  1.5770  0.6294
  567MOL0     H76483   5.665   7.085   2.832  0.0460 -0.5856 -1.1793
  567MOL0     H76484   5.738   7.329   2.838  1.2355 -1.0922 -1.6169
  567MOL0     H76485   5.605   7.354   2.730 -0.3700  2.7847  2.0585
  567MOL0     H76486   5.443   7.270   2.906  0.3404  2.6549 -0.9210
  567MOL0     H76487   5.568   7.221   2.995 -4.4109 -1.2340 -0.8424
  567MOL0     H76488   5.515   7.423   3.101 -0.0699 -4.7228  0.0526
  567MOL0     H76489   5.617   7.501   2.964 -0.1908  0.8994  1.5394
  567MOL0     H76490   5.408   7.523   2.833  2.3899 -0.0383  0.5468
  567MOL0     H76491   5.313   7.443   2.963  1.2458 -0.4392  1.9917
  567MOL0     H76492   5.480   7.670   3.030  1.2610 -4.2875  0.9514
  567MOL0     H76493   5.329   7.715   2.936  0.6118 -1.1296 -1.3612
  567MOL0     H76494   5.198   7.590   3.118 -0.2609 -0.5729  2.0660
  567MOL0     H76495   5.263   7.737   3.172 -1.1055 -0.7841 -1.2382
  567MOL0     H76496   5.511   7.719   3.279  1.6573 -1.5466 -2.6363
  567MOL0     H76497   5.629   7.652   3.515 -4.5710  2.0822 -1.4254
  567MOL0     H76498   5.609   7.480   3.583  1.7981 -0.8260 -1.0087
  567MOL0     H76499   5.838   7.553   3.516  1.3372 -3.2588  0.3964
  567MOL0     H76500   5.775   7.577   3.353  1.2476  1.6060  1.0557
  567MOL0     H76501   5.716   7.340   3.339 -0.9170  0.2408  0.3885
  567MOL0     H76502   5.770   7.318   3.512  0.4123 -2.0231 -1.7462
  567MOL0     H76503   5.950   7.240   3.360  1.3725 -0.0111 -0.1103
  567MOL0     H76504   5.999   7.372   3.448  1.5030  0.8232 -1.0145
  567MOL0     H76505   5.974   7.338   3.006 -0.0190 -3.6833  1.6771
  567MOL0     H76506   6.049   7.300   2.811  0.6188 -0.1815 -0.9051
  567MOL0     H76507   6.170   7.422   2.767  1.8765 -1.6899 -0.8851
  567MOL0     H76508   6.227   7.260   2.783  0.6350  0.2904 -1.6978
  567MOL0     H76509   6.532   7.211   2.687 -1.1919  1.8330 -2.3646
  567MOL0     H76510   6.754   7.208   2.560  3.0256  1.6089 -0.9942
  567MOL0     H76511   7.068   7.437   2.439 -2.5429 -1.6429 -0.5889
  567MOL0     H76512   6.999   7.572   2.524  1.2629  0.9612 -0.1927
  567MOL0     H76513   7.207   7.520   2.641  0.1974  0.2873 -2.3983
  567MOL0     H76514   7.074   7.478   2.749 -0.2127  1.3253 -0.3181
  567MOL0     H76515   7.119   7.258   2.740  1.8367 -0.8426  1.5831
  567MOL0     H76516   7.276   7.342   2.745 -0.5753  1.7576 -0.4415
  567MOL0     H76517   7.148   7.212   2.514  0.6514 -0.2311  0.3315
  567MOL0     H76518   7.299   7.310   2.509 -1.8029  2.3163  0.3600
  567MOL0     H76519   7.258   7.044   2.654 -0.5526  0.5923 -0.1315
  567MOL0     H76520   7.404   7.144   2.665  1.5614  2.2616 -0.7934
  567MOL0     H76521   7.318   7.023   2.395  0.5149 -2.5904  0.3790
  567MOL0     H76522   7.460   7.119   2.426  1.0197  0.0089  1.0169
  567MOL0     H76523   7.390   6.858   2.564 -1.8136  1.7490 -1.4667
  567MOL0     H76524   7.543   6.954   2.570  0.1043 -1.7406  2.2346
  567MOL0     H76525   7.579   6.897   2.318 -0.0256 -0.6702 -1.2382
  567MOL0     H76526   7.420   6.813   2.325  1.1951 -3.8158 -0.2053
  567MOL0     H76527   6.839   7.596   2.715  0.3777  0.9528 -2.2755
  567MOL0     H76528   6.615   7.610   2.815  2.2240  0.9546 -1.6040
  567MOL0     H76529   6.420   7.459   3.192  1.0820 -2.3644 -1.5413
  567MOL0     H76530   6.208   7.479   3.340 -0.3237  2.4426 -1.3977
  567MOL0     H76531   5.957   7.270   2.486  1.7094  1.2231 -1.9015
  567MOL0     H76532   6.146   7.214   2.346  1.1819 -0.5473 -0.4171
  567MOL0     H76533   6.392   6.892   2.161  0.4893 -1.6265  0.1933
  567MOL0     H76534   6.530   6.788   2.025 -1.2275  2.4085 -0.6677
  567MOL0     H76535   6.994   6.737   2.121  0.7449 -1.3082  3.1814
  567MOL0     H76536   6.917   6.644   2.249 -1.9288 -1.3239 -0.0365
  567MOL0     H76537   6.865   6.452   2.109  0.9748 -1.7633 -0.9315
  567MOL0     H76538   7.033   6.489   2.087  1.5495  2.2557 -1.2595
  567MOL0     H76539   6.966   6.663   1.904 -2.2150  0.2991 -3.3147
  567MOL0     H76540   6.826   6.562   1.882 -0.8724 -1.1157  0.9274
  567MOL0     H76541   6.996   6.489   1.724 -0.8970 -2.1852 -0.6808
  567MOL0     H76542   7.003   6.365   1.853  0.6313 -0.4980  1.1261
  567MOL0     H76543   7.389   6.533   1.898 -0.5531  0.3966  1.6513
  567MOL0     H76544   6.850   6.842   2.320 -0.4186  0.1981 -1.6279
  567MOL0     H76545   6.688   6.965   2.454  2.0989 -2.4190  0.7879
  568MOL0     O76546   7.112   4.893   4.920  0.0955 -0.5738 -0.3596
  568MOL0     C76547   7.062   4.836   5.019 -0.3916  0.4035 -0.2091
  568MOL0     O76548   7.044   4.897   5.137  0.0922 -0.4463  0.0099
  568MOL0     C76549   7.084   5.026   5.148 -0.7714 -0.1636  0.0109
  568MOL0     C76550   7.216   5.073   5.157  0.4465 -0.1493 -0.0796
  568MOL0     C76551   7.243   5.213   5.172  0.3678 -0.0839 -0.2845
  568MOL0     C76552   7.155   5.309   5.147  0.8545 -0.5425 -0.0241
  568MOL0     O76553   7.195   5.439   5.155 -1.2488 -0.6225 -0.0711
  568MOL0     C76554   7.100   5.548   5.133 -0.9213 -0.1511  0.6782
  568MOL0     C76555   7.165   5.682   5.170 -0.1616  0.4465 -0.0797
  568MOL0     C76556   7.261   5.731   5.072 -0.5052 -0.4763  0.1529
  568MOL0     C76557   7.335   5.864   5.103  0.0062 -0.1023  0.1487
  568MOL0     C76558   7.430   5.851   5.219  0.7763 -0.7796  1.1865
  568MOL0     C76559   7.545   5.747   5.197  1.1186 -0.6303  0.1577
  568MOL0     C76560   7.668   5.776   5.286 -0.0052  0.0874 -0.4132
  568MOL0     C76561   7.773   5.681   5.252 -0.8270 -0.1583 -0.7873
  568MOL0     N76562   7.847   5.702   5.133 -0.0777  0.2254 -0.0797
  568MOL0     C76563   7.837   5.623   5.020 -0.4129  0.3811 -0.4927
  568MOL0     C76564   7.918   5.688   4.932  0.8153  0.1246  0.2839
  568MOL0     C76565   7.947   5.648   4.791 -0.2413 -0.1677  0.4006
  568MOL0     C76566   7.883   5.735   4.693 -0.7513  0.0954  0.0553
  568MOL0     C76567   7.982   5.847   4.637  0.2915  0.5778 -0.3066
  568MOL0     C76568   7.908   5.943   4.546  0.1863  0.1196 -0.2386
  568MOL0     O76569   8.008   6.032   4.499 -0.1676 -0.2598 -0.0045
  568MOL0     C76570   7.962   6.152   4.440 -0.1642 -0.0364  0.5809
  568MOL0     C76571   7.832   6.180   4.401  0.0529  0.1610 -1.1509
  568MOL0     C76572   7.777   6.309   4.365  0.0783 -1.7611 -0.0771
  568MOL0     C76573   7.626   6.308   4.341  0.1543  0.3639 -0.6002
  568MOL0     C76574   7.865   6.421   4.387 -0.2112  0.0928  0.0721
  568MOL0     C76575   7.823   6.564   4.368  0.3782 -0.1854  0.5906
  568MOL0     O76576   7.912   6.657   4.423  0.2813  0.3001  0.3633
  568MOL0     C76577   7.862   6.781   4.434 -0.3814 -0.0277 -0.1420
  568MOL0     C76578   7.744   6.815   4.509 -0.3534  0.1260 -0.5180
  568MOL0     C76579   7.695   6.945   4.509  0.4121 -0.9974 -0.5143
  568MOL0     C76580   7.765   7.055   4.456 -0.1087  0.0784  0.6244
  568MOL0     O76581   7.715   7.183   4.452 -0.5924  0.2656 -0.0890
  568MOL0     C76582   7.715   7.241   4.317 -0.5298 -0.0934  0.4929
  568MOL0     C76583   7.588   7.327   4.296  1.0101  0.1242 -0.7264
  568MOL0     C76584   7.585   7.462   4.359 -0.5039 -0.0481  0.1793
  568MOL0     C76585   7.505   7.564   4.286  0.8756  0.0627 -0.3702
  568MOL0     C76586   7.534   7.705   4.323  0.2835 -1.0855  0.1613
  568MOL0     C76587   7.473   7.736   4.463 -0.2529  0.0132  0.3778
  568MOL0     C76588   7.526   7.882   4.481 -0.3405  0.9137 -0.7002
  568MOL0     C76589   7.472   7.942   4.611 -0.3722  0.5754 -0.5871
  568MOL0    Cl76590   7.513   7.834   4.751 -0.2850  0.3331 -0.1571
  568MOL0     C76591   7.885   7.022   4.394  0.0422 -0.2754 -0.3049
  568MOL0     C76592   7.934   6.897   4.393  0.6302  0.3604  0.4697
  568MOL0     O76593   7.707   6.588   4.324  0.3933 -0.5360 -0.4659
  568MOL0     C76594   7.992   6.392   4.434 -0.3697  0.1371 -0.1730
  568MOL0     C76595   8.036   6.266   4.464 -0.1088 -0.1006  0.2758
  568MOL0     N76596   7.959   5.809   4.990  0.6374  0.3331 -0.3192
  568MOL0     N76597   7.923   5.810   5.108 -0.3486  0.1774 -1.0535
  568MOL0     C76598   7.022   5.268   5.110  0.1823  0.1988 -0.0611
  568MOL0     C76599   6.989   5.133   5.125  0.3883 -0.9313  0.4114
  568MOL0     C76600   7.022   4.697   5.013  0.1999  1.1940 -0.9464
  568MOL0     C76601   7.078   4.610   4.916  0.3127 -0.2077 -0.1156
  568MOL0     C76602   7.057   4.474   4.918 -0.3222  0.4977  0.6427
  568MOL0     C76603   6.956   4.423   5.010 -0.9606  0.9254  0.1990
  568MOL0     O76604   6.941   4.289   4.988 -0.1746  0.2175 -0.1773
  568MOL0     C76605   6.892   4.211   5.102 -0.2084 -0.2577  0.9589
  568MOL0     C76606   6.746   4.164   5.106 -0.1617  0.3983  0.5189
  568MOL0     C76607   6.729   4.032   5.023  0.4494 -0.8981  0.2875
  568MOL0     C76608   6.588   4.027   4.962 -0.2965  0.0010  0.5954
  568MOL0     C76609   6.539   4.136   4.878 -0.2356  0.1561 -0.1334
  568MOL0     C76610   6.500   4.236   4.820 -0.1899  0.0640 -0.5480
  568MOL0     C76611   6.906   4.504   5.103 -0.2574 -0.3287 -0.6123
  568MOL0     C76612   6.941   4.641   5.110  0.3778 -0.6854 -0.3856
  568MOL0     H76613   7.295   4.999   5.164 -1.0094 -1.8158 -0.4421
  568MOL0     H76614   7.348   5.239   5.178  0.1256  1.1668 -1.1035
  568MOL0     H76615   7.065   5.541   5.029 -1.8092  3.5559  0.5656
  568MOL0     H76616   7.013   5.546   5.199 -0.9736  0.6253  0.6495
  568MOL0     H76617   7.087   5.756   5.186  0.2153  0.5652  1.2922
  568MOL0     H76618   7.215   5.649   5.261 -2.1739 -4.1439 -0.3676
  568MOL0     H76619   7.332   5.648   5.061 -0.7877 -0.5115 -1.7032
  568MOL0     H76620   7.212   5.750   4.976  1.7073  0.3822 -0.8703
  568MOL0     H76621   7.400   5.883   5.016 -1.1919 -1.6663 -1.1587
  568MOL0     H76622   7.280   5.952   5.135 -0.6130 -0.2409 -0.5145
  568MOL0     H76623   7.464   5.954   5.227 -2.6283  0.6687 -0.7620
  568MOL0     H76624   7.368   5.839   5.309  0.3287  2.8937  1.4979
  568MOL0     H76625   7.511   5.644   5.211 -2.3907  0.6020  2.1115
  568MOL0     H76626   7.575   5.746   5.092 -1.6468  1.5004 -0.7922
  568MOL0     H76627   7.691   5.883   5.280 -0.4359  0.3406  1.5555
  568MOL0     H76628   7.645   5.755   5.391  0.0745 -1.1401 -0.6316
  568MOL0     H76629   7.718   5.587   5.255 -3.9946  1.5214 -1.6037
  568MOL0     H76630   7.844   5.686   5.336 -0.3616 -0.7616 -1.1363
  568MOL0     H76631   7.793   5.524   5.018 -0.0429  0.1225  1.5988
  568MOL0     H76632   8.056   5.644   4.781  0.5289  2.2942  4.9127
  568MOL0     H76633   7.916   5.543   4.784 -1.5243 -0.0970  3.4017
  568MOL0     H76634   7.786   5.769   4.730  0.1457  0.3931  2.2502
  568MOL0     H76635   7.847   5.663   4.619  0.8326  1.4272 -2.1566
  568MOL0     H76636   8.072   5.800   4.596  1.9880  2.0458  1.5350
  568MOL0     H76637   8.007   5.911   4.722  0.9156 -1.1365  0.8372
  568MOL0     H76638   7.822   5.991   4.593 -1.6315 -0.1664 -3.0617
  568MOL0     H76639   7.864   5.895   4.459 -0.8221 -0.4863  0.5909
  568MOL0     H76640   7.766   6.094   4.397  0.0961 -0.0108  0.7332
  568MOL0     H76641   7.586   6.374   4.418  1.5631  0.1765  0.3306
  568MOL0     H76642   7.588   6.331   4.241 -1.7428 -2.7811 -0.7643
  568MOL0     H76643   7.582   6.211   4.367 -0.1170  0.9980  1.4574
  568MOL0     H76644   7.683   6.731   4.540 -0.8602  1.7170  3.3200
  568MOL0     H76645   7.596   6.969   4.545 -1.3818 -0.7390 -5.0657
  568MOL0     H76646   7.802   7.304   4.299 -0.4316  0.1902  1.8633
  568MOL0     H76647   7.712   7.161   4.242 -0.9467  1.3366 -1.0778
  568MOL0     H76648   7.581   7.342   4.188 -3.8300 -1.4539 -0.8747
  568MOL0     H76649   7.508   7.266   4.339  2.8483 -0.7170  1.7643
  568MOL0     H76650   7.690   7.491   4.369 -0.9110  1.8753 -0.6648
  568MOL0     H76651   7.560   7.454   4.465  0.8946 -1.0929  0.4490
  568MOL0     H76652   7.501   7.555   4.177 -3.3738 -1.5283 -0.2646
  568MOL0     H76653   7.399   7.551   4.310  0.9278 -0.7509 -0.5489
  568MOL0     H76654   7.493   7.774   4.247  1.0847 -0.4882  0.2561
  568MOL0     H76655   7.643   7.710   4.319  0.5010  4.3511  3.0311
  568MOL0     H76656   7.364   7.742   4.451 -0.4355 -2.4496  0.2670
  568MOL0     H76657   7.503   7.658   4.534  0.1805 -0.5134 -0.3702
  568MOL0     H76658   7.497   7.950   4.401 -2.5739  0.9141  0.0455
  568MOL0     H76659   7.636   7.883   4.479 -0.2827 -1.4906 -0.9850
  568MOL0     H76660   7.364   7.934   4.595 -0.6644  0.7233  1.1354
  568MOL0     H76661   7.502   8.045   4.631 -0.2708  0.2615  0.9333
  568MOL0     H76662   7.940   7.097   4.338  4.0827 -1.7153  1.3235
  568MOL0     H76663   8.031   6.885   4.346 -0.3630  1.1365 -1.8974
  568MOL0     H76664   8.070   6.467   4.445 -2.5206  2.4483  0.2785
  568MOL0     H76665   8.131   6.263   4.516 -1.1860 -1.6583  2.2944
  568MOL0     H76666   6.950   5.343   5.079  1.5797  1.3848 -0.5456
  568MOL0     H76667   6.885   5.117   5.098  0.3187  2.0493 -1.4103
  568MOL0     H76668   7.134   4.645   4.829  1.2497 -1.8242 -0.2140
  568MOL0     H76669   7.093   4.409   4.839  2.7997  0.3340  2.0250
  568MOL0     H76670   6.964   4.129   5.111 -0.0951 -0.2985 -0.1874
  568MOL0     H76671   6.905   4.264   5.197  3.7433  0.8422 -0.0181
  568MOL0     H76672   6.685   4.249   5.075 -1.1208  0.2636  1.9670
  568MOL0     H76673   6.714   4.134   5.206  1.2107 -2.3475  0.2409
  568MOL0     H76674   6.745   3.958   5.102  0.3026 -0.3435  0.8550
  568MOL0     H76675   6.807   4.030   4.947  0.0827 -0.4436 -0.1072
  568MOL0     H76676   6.512   4.011   5.039 -0.7831 -1.5095 -0.1533
  568MOL0     H76677   6.581   3.933   4.906 -0.2086  0.4615 -0.2009
  568MOL0     H76678   6.479   4.327   4.768 -0.1646 -0.0238 -0.7135
  568MOL0     H76679   6.822   4.464   5.159 -1.0788  1.5235 -0.4453
  568MOL0     H76680   6.889   4.691   5.191 -1.4518 -2.2472 -0.5067
  569MOL0     O76681   9.220   1.436   8.848  0.7288  0.1199  0.3521
  569MOL0     C76682   9.227   1.560   8.872 -0.3963  0.9174  0.0557
  569MOL0     O76683   9.283   1.649   8.795 -0.3728 -0.3820  0.3177
  569MOL0     C76684   9.361   1.601   8.694 -0.0383 -0.5466  0.2948
  569MOL0     C76685   9.289   1.578   8.573  1.0050 -0.3356 -0.6593
  569MOL0     C76686   9.353   1.527   8.462  0.3103 -0.1507 -0.7078
  569MOL0     C76687   9.490   1.503   8.460 -0.5213 -0.3875  1.1651
  569MOL0     O76688   9.554   1.445   8.348 -0.3241  0.1900 -0.3814
  569MOL0     C76689   9.547   1.299   8.349  0.7782 -1.8355  0.3144
  569MOL0     C76690   9.602   1.235   8.225  0.0958 -0.6740  0.0743
  569MOL0     C76691   9.587   1.078   8.220  0.5813  1.0068 -0.9595
  569MOL0     C76692   9.648   1.014   8.354  0.7047 -0.5064  0.1125
  569MOL0     C76693   9.654   0.873   8.327  0.2481  0.5242  0.1053
  569MOL0     C76694   9.704   0.797   8.443 -0.4594 -1.4072 -1.0473
  569MOL0     C76695   9.690   0.642   8.435 -0.7820  0.1869  0.4186
  569MOL0     C76696   9.825   0.577   8.397  0.7050  0.5752  0.6885
  569MOL0     N76697   9.829   0.436   8.432  0.4237  1.3288 -0.2100
  569MOL0     C76698   9.800   0.335   8.339  0.3973 -0.0231  0.9495
  569MOL0     C76699   9.854   0.219   8.384  0.3744  0.0217 -0.0204
  569MOL0     C76700   9.870   0.082   8.334  0.3917  0.1571 -0.1331
  569MOL0     C76701   9.739  -0.005   8.347  0.5672 -0.3366  0.7799
  569MOL0     C76702   9.736  -0.136   8.256 -0.0956 -0.2717 -0.8299
  569MOL0     C76703   9.594  -0.190   8.233 -1.0778 -0.2256 -0.5922
  569MOL0     O76704   9.564  -0.292   8.334  0.0361 -0.7687  0.5223
  569MOL0     C76705   9.449  -0.367   8.318  0.6054 -0.4746 -0.3140
  569MOL0     C76706   9.424  -0.460   8.419  0.5672 -0.3113  0.3971
  569MOL0     C76707   9.303  -0.530   8.442 -0.0563  0.1840  0.1022
  569MOL0     C76708   9.289  -0.622   8.554 -0.0708  0.6259  0.1879
  569MOL0     C76709   9.201  -0.519   8.339 -1.3290  0.1825 -0.2559
  569MOL0     C76710   9.073  -0.599   8.340  0.2529  0.7560  0.4208
  569MOL0     O76711   9.013  -0.617   8.211  0.5833  0.1921  0.0167
  569MOL0     C76712   8.901  -0.698   8.220  0.6973 -0.0419  0.3554
  569MOL0     C76713   8.928  -0.830   8.197 -0.2416 -0.6696 -1.4847
  569MOL0     C76714   8.816  -0.917   8.193 -0.1738 -0.2123  1.2829
  569MOL0     C76715   8.688  -0.870   8.213 -0.4869  0.1379  0.0545
  569MOL0     O76716   8.587  -0.962   8.211 -0.1447 -0.4981 -0.5951
  569MOL0     C76717   8.450  -0.931   8.208 -1.4814  0.0876  0.1987
  569MOL0     C76718   8.344  -1.049   8.206 -0.3067 -0.2921 -1.0115
  569MOL0     C76719   8.205  -1.000   8.250  0.0953 -0.6343  0.0981
  569MOL0     C76720   8.145  -0.892   8.159 -0.5183  0.2660 -0.0499
  569MOL0     C76721   8.003  -0.856   8.209  0.3857  0.5879  0.4240
  569MOL0     C76722   8.005  -0.777   8.337 -1.2067  0.4887  0.4364
  569MOL0     C76723   7.865  -0.725   8.369  0.1031  0.4361  0.7596
  569MOL0     C76724   7.819  -0.786   8.498  0.9852  0.0539 -0.2838
  569MOL0    Cl76725   7.790  -0.959   8.470  0.0729  0.2962 -0.1588
  569MOL0     C76726   8.673  -0.733   8.219 -0.2752 -0.3690 -0.3681
  569MOL0     C76727   8.777  -0.643   8.224 -0.2765  0.4099  0.7211
  569MOL0     O76728   9.015  -0.613   8.447 -0.7928  0.2793 -0.3283
  569MOL0     C76729   9.232  -0.426   8.234 -0.3408  0.3195 -0.4686
  569MOL0     C76730   9.345  -0.346   8.223 -0.0822  0.5395 -0.4995
  569MOL0     N76731   9.914   0.263   8.503  0.4151  0.5386 -0.1802
  569MOL0     N76732   9.905   0.389   8.532  0.2664 -0.6175 -0.3384
  569MOL0     C76733   9.560   1.523   8.582 -0.3971 -0.4691 -0.0083
  569MOL0     C76734   9.496   1.578   8.700 -0.7544  0.2956  0.0558
  569MOL0     C76735   9.171   1.599   8.998  0.0738  0.8364  0.5545
  569MOL0     C76736   9.233   1.705   9.069  0.2102  0.2183 -0.2917
  569MOL0     C76737   9.187   1.732   9.195 -0.5281  0.8116 -1.1327
  569MOL0     C76738   9.101   1.651   9.263  1.5648  0.0039  0.2621
  569MOL0     O76739   9.077   1.662   9.392 -0.0477 -0.0689  0.0324
  569MOL0     C76740   9.134   1.772   9.465  0.1343 -0.0702 -0.0378
  569MOL0     C76741   9.102   1.747   9.610 -0.0420 -0.6080  0.8782
  569MOL0     C76742   9.006   1.842   9.676  0.2842 -0.3596  0.1104
  569MOL0     C76743   9.064   1.982   9.676  0.4536 -0.7263 -0.2282
  569MOL0     C76744   9.191   2.003   9.742 -0.0354 -0.4087  0.0922
  569MOL0     C76745   9.296   2.014   9.798 -0.0816  0.3980 -0.0589
  569MOL0     C76746   9.053   1.547   9.194  0.1096 -0.7333 -0.3265
  569MOL0     C76747   9.074   1.518   9.065  0.2468 -1.0310 -0.3010
  569MOL0     H76748   9.184   1.605   8.575  1.1819  0.3578  1.7972
  569MOL0     H76749   9.297   1.525   8.369 -0.7302 -2.4401 -0.0997
  569MOL0     H76750   9.600   1.272   8.441 -0.6376  0.4835  1.9091
  569MOL0     H76751   9.442   1.273   8.357 -0.3767  1.6679 -1.4462
  569MOL0     H76752   9.554   1.282   8.139  1.9179 -1.7164 -1.5727
  569MOL0     H76753   9.708   1.262   8.215  0.4302 -1.4361  1.2877
  569MOL0     H76754   9.481   1.055   8.207 -0.1512  0.6023  3.8288
  569MOL0     H76755   9.638   1.046   8.128 -0.4563 -3.1070 -0.2693
  569MOL0     H76756   9.751   1.051   8.361  0.6360  0.4646 -2.6599
  569MOL0     H76757   9.588   1.038   8.442  0.8388 -0.3731  0.1689
  569MOL0     H76758   9.557   0.826   8.312  1.0304 -2.1284  2.3960
  569MOL0     H76759   9.720   0.848   8.243  1.1206  2.3376  0.1847
  569MOL0     H76760   9.809   0.817   8.466 -1.2778  0.9624  1.0542
  569MOL0     H76761   9.656   0.824   8.537 -3.1946 -2.5136 -2.0179
  569MOL0     H76762   9.662   0.604   8.533  2.5165  1.7293  2.1443
  569MOL0     H76763   9.612   0.609   8.365 -0.7681  0.0334  0.4781
  569MOL0     H76764   9.913   0.626   8.438 -0.2797  1.9062  1.3025
  569MOL0     H76765   9.833   0.587   8.288  2.3282 -2.5137  0.4252
  569MOL0     H76766   9.752   0.333   8.242  1.2045  1.6390  0.4896
  569MOL0     H76767   9.898   0.080   8.228 -1.6816 -0.8148 -0.7153
  569MOL0     H76768   9.946   0.034   8.396 -0.3692 -0.6386  0.1959
  569MOL0     H76769   9.653   0.056   8.315 -1.2776 -1.5627  3.0797
  569MOL0     H76770   9.721  -0.035   8.450  3.2313 -0.3346  1.2956
  569MOL0     H76771   9.788  -0.220   8.302 -1.5299 -0.7478 -0.0152
  569MOL0     H76772   9.780  -0.113   8.158  2.9711  1.5817  0.8203
  569MOL0     H76773   9.592  -0.234   8.133 -0.1239 -0.8510 -0.3529
  569MOL0     H76774   9.521  -0.110   8.250 -0.0449  0.5591  0.2997
  569MOL0     H76775   9.501  -0.485   8.491 -0.6836  0.0972  1.9189
  569MOL0     H76776   9.257  -0.722   8.525  0.4174  0.6592 -0.4985
  569MOL0     H76777   9.394  -0.638   8.580  0.3610 -1.8851 -2.5836
  569MOL0     H76778   9.237  -0.575   8.638  1.0361 -0.5357  1.5694
  569MOL0     H76779   9.030  -0.860   8.173 -0.6847 -0.6510 -3.6210
  569MOL0     H76780   8.839  -1.020   8.165  2.2320  1.0770 -2.1031
  569MOL0     H76781   8.434  -0.876   8.301 -4.4860 -0.4198  0.0815
  569MOL0     H76782   8.425  -0.875   8.117  1.2751  0.4050 -0.4487
  569MOL0     H76783   8.355  -1.098   8.108 -0.6306 -0.2509 -1.0699
  569MOL0     H76784   8.371  -1.112   8.291  1.5627  1.1900 -0.4329
  569MOL0     H76785   8.208  -0.958   8.351 -0.8771 -0.8429  0.2273
  569MOL0     H76786   8.137  -1.086   8.248  0.5431 -0.9882  0.0010
  569MOL0     H76787   8.207  -0.803   8.145 -0.8170  0.5693  0.5420
  569MOL0     H76788   8.143  -0.941   8.061 -0.2202 -1.5126  0.7827
  569MOL0     H76789   7.953  -0.953   8.218 -0.2892  0.6516 -2.0702
  569MOL0     H76790   7.947  -0.804   8.131  0.0721 -1.5971 -0.8907
  569MOL0     H76791   8.050  -0.834   8.419  0.7210 -0.6895 -1.3424
  569MOL0     H76792   8.071  -0.691   8.326  0.5732 -0.7168  1.3333
  569MOL0     H76793   7.796  -0.742   8.286  0.1972 -2.4238  1.1745
  569MOL0     H76794   7.880  -0.617   8.382 -0.1669  0.2584  2.8939
  569MOL0     H76795   7.729  -0.741   8.539  1.0073 -2.1299  2.4843
  569MOL0     H76796   7.897  -0.771   8.573 -0.8207 -0.3213  1.7705
  569MOL0     H76797   8.574  -0.694   8.240  0.3369  0.4279  1.2885
  569MOL0     H76798   8.765  -0.535   8.236  1.1989  0.7149 -0.2645
  569MOL0     H76799   9.148  -0.407   8.168 -1.8575 -5.2518 -0.6577
  569MOL0     H76800   9.334  -0.263   8.155  0.9508 -0.8368 -2.4578
  569MOL0     H76801   9.667   1.503   8.591 -0.6982 -1.4447  2.1766
  569MOL0     H76802   9.560   1.592   8.786  2.2597 -0.2040 -1.9764
  569MOL0     H76803   9.299   1.774   9.018 -2.1176  1.9231 -1.1352
  569MOL0     H76804   9.230   1.813   9.254 -0.5983 -0.6762  1.0762
  569MOL0     H76805   9.241   1.791   9.468  0.1360 -0.0852  0.0091
  569MOL0     H76806   9.088   1.865   9.429  0.7673 -0.6664 -2.6283
  569MOL0     H76807   9.201   1.746   9.658  0.1285  1.4573  0.6687
  569MOL0     H76808   9.058   1.648   9.619 -2.7441  0.5671  1.4705
  569MOL0     H76809   8.989   1.813   9.780 -1.6326  2.3438  0.6539
  569MOL0     H76810   8.916   1.831   9.615  0.6951  1.0661 -0.8156
  569MOL0     H76811   8.989   2.041   9.729  1.3768 -0.1838  0.4873
  569MOL0     H76812   9.062   2.026   9.576 -3.0058 -1.8159 -0.7802
  569MOL0     H76813   9.385   2.020   9.857 -0.3368  1.0093  0.2715
  569MOL0     H76814   8.987   1.472   9.238 -0.8226 -1.1230 -2.2777
  569MOL0     H76815   9.022   1.436   9.017  1.6538 -1.5784 -0.9370
  570MOL0     O76816   7.785   7.339   3.969 -0.0052  0.4500  0.2652
  570MOL0     C76817   7.736   7.244   3.911  0.0690  0.0727 -0.0660
  570MOL0     O76818   7.623   7.241   3.835 -0.2569 -0.0936  0.5380
  570MOL0     C76819   7.557   7.359   3.831  0.8226 -0.2548 -0.9901
  570MOL0     C76820   7.445   7.367   3.908 -0.1270 -0.4371  0.6843
  570MOL0     C76821   7.364   7.484   3.892 -0.3593  0.2249 -0.3366
  570MOL0     C76822   7.402   7.600   3.825 -0.3334 -0.3786  0.3544
  570MOL0     O76823   7.319   7.706   3.831 -0.7601 -1.4255 -0.4965
  570MOL0     C76824   7.367   7.838   3.788  0.2972  0.7798  1.0734
  570MOL0     C76825   7.321   7.879   3.647 -0.1036 -0.3446 -0.2159
  570MOL0     C76826   7.169   7.888   3.633 -0.7367 -1.2875 -0.0636
  570MOL0     C76827   7.143   8.005   3.540 -0.8609 -0.2424  0.5079
  570MOL0     C76828   7.180   7.988   3.386  0.7773 -0.1684 -0.0483
  570MOL0     C76829   7.115   7.866   3.318 -0.0218 -0.0455 -0.2717
  570MOL0     C76830   7.153   7.845   3.170  0.5195  0.0464  0.3865
  570MOL0     C76831   7.040   7.914   3.098 -0.5924 -0.0060  0.6406
  570MOL0     N76832   7.059   7.890   2.959  0.3083  0.1177  0.0780
  570MOL0     C76833   7.112   7.957   2.851 -0.5758  0.4358  0.6595
  570MOL0     C76834   7.085   7.888   2.732  0.3765 -0.6508  0.4489
  570MOL0     C76835   7.119   7.923   2.589  0.2300 -0.7519  0.0815
  570MOL0     C76836   6.992   7.977   2.529  0.7232 -0.1715 -0.2144
  570MOL0     C76837   6.973   8.121   2.579 -0.5572  0.5847  0.2333
  570MOL0     C76838   6.843   8.185   2.537  0.4964 -0.2241 -0.1297
  570MOL0     O76839   6.839   8.203   2.393 -0.3713  0.3399 -0.5111
  570MOL0     C76840   6.715   8.208   2.334 -0.8876 -0.3559 -0.3307
  570MOL0     C76841   6.598   8.225   2.406 -0.6126  0.4858 -1.0811
  570MOL0     C76842   6.470   8.233   2.335 -0.0954 -0.0836 -1.1361
  570MOL0     C76843   6.354   8.259   2.424  0.4466  0.1603 -0.8086
  570MOL0     C76844   6.466   8.225   2.193 -0.5510  0.2723 -0.9379
  570MOL0     C76845   6.340   8.235   2.103 -0.5285  0.9640 -0.8782
  570MOL0     O76846   6.240   8.297   2.164 -0.0017 -0.2167  0.7296
  570MOL0     C76847   6.129   8.347   2.096  0.5433  0.2210 -0.3645
  570MOL0     C76848   6.049   8.416   2.187 -0.2356 -0.2184 -0.5006
  570MOL0     C76849   5.937   8.485   2.134 -0.3247 -0.3724 -0.1383
  570MOL0     C76850   5.904   8.480   1.996 -1.1638 -0.6586 -0.0550
  570MOL0     O76851   5.795   8.547   1.933 -0.4490 -0.5611 -0.1891
  570MOL0     C76852   5.754   8.676   1.992 -0.3417  0.8542 -0.5409
  570MOL0     C76853   5.688   8.764   1.884 -0.2946 -1.3913 -0.5747
  570MOL0     C76854   5.543   8.714   1.865 -0.3689 -0.2201 -0.2882
  570MOL0     C76855   5.480   8.775   1.743  0.8739 -0.6162  0.5293
  570MOL0     C76856   5.365   8.674   1.706  1.3226 -1.3652  0.9829
  570MOL0     C76857   5.310   8.725   1.570  0.1267  0.9016 -0.3987
  570MOL0     C76858   5.198   8.635   1.513 -0.0251  0.8546  0.2941
  570MOL0     C76859   5.224   8.593   1.366 -0.3872 -0.2778 -0.5772
  570MOL0    Cl76860   5.076   8.510   1.321  0.1730  0.0188  0.1033
  570MOL0     C76861   5.974   8.399   1.915  0.3265 -0.3251 -0.4357
  570MOL0     C76862   6.080   8.328   1.962 -0.4780 -1.1300 -0.3109
  570MOL0     O76863   6.349   8.193   1.986  0.7010 -0.1912  0.3140
  570MOL0     C76864   6.585   8.190   2.128 -0.2087 -0.7233 -0.3583
  570MOL0     C76865   6.705   8.178   2.195 -0.2918  0.1910 -0.3898
  570MOL0     N76866   7.024   7.773   2.775  0.1372 -1.0857  0.0794
  570MOL0     N76867   7.001   7.779   2.899  0.0098 -0.9635 -0.4918
  570MOL0     C76868   7.522   7.588   3.741  0.3810 -0.3546  0.1427
  570MOL0     C76869   7.593   7.467   3.748 -0.4863  0.3706  0.2856
  570MOL0     C76870   7.816   7.115   3.928  0.3310 -0.3201 -0.5074
  570MOL0     C76871   7.928   7.106   4.022  0.1018  0.5857  0.3902
  570MOL0     C76872   7.990   6.983   4.049  0.1329 -0.0846  0.1044
  570MOL0     C76873   7.941   6.865   3.999 -0.3945  0.7314 -1.0868
  570MOL0     O76874   7.987   6.743   4.044 -0.9502  0.3971 -0.4147
  570MOL0     C76875   7.914   6.624   4.011 -1.1474  0.6465 -0.5169
  570MOL0     C76876   7.996   6.507   4.056 -0.7100 -0.4730 -0.3514
  570MOL0     C76877   7.930   6.372   4.019  0.6888  0.1244  0.1972
  570MOL0     C76878   8.024   6.256   4.065 -0.8938  0.5369 -0.2280
  570MOL0     C76879   7.982   6.135   3.984  0.9285 -0.0608 -0.4096
  570MOL0     C76880   7.933   6.048   3.910 -0.3827 -0.4115 -0.4285
  570MOL0     C76881   7.834   6.881   3.903  0.7363  0.1676 -0.2721
  570MOL0     C76882   7.774   7.001   3.864 -0.2342  0.4347  0.2255
  570MOL0     H76883   7.414   7.290   3.977 -3.2034 -0.8937 -0.9820
  570MOL0     H76884   7.289   7.497   3.970 -1.1216 -1.2131 -0.7931
  570MOL0     H76885   7.326   7.921   3.845  1.2547  2.3592 -0.4330
  570MOL0     H76886   7.476   7.837   3.798  0.5818  2.8611 -1.0553
  570MOL0     H76887   7.380   7.970   3.629  0.3063 -0.1028  1.9791
  570MOL0     H76888   7.370   7.814   3.574  2.4360  2.0354 -0.7917
  570MOL0     H76889   7.140   7.803   3.570  0.7347 -0.9759 -1.2095
  570MOL0     H76890   7.108   7.883   3.724 -1.2967 -2.9238 -0.4781
  570MOL0     H76891   7.034   8.014   3.538 -1.2532 -3.2603 -2.3135
  570MOL0     H76892   7.188   8.100   3.570  0.6288 -0.8520  0.2735
  570MOL0     H76893   7.135   8.068   3.327  0.7895  0.2630  0.5231
  570MOL0     H76894   7.288   8.004   3.375  0.4905  1.7335 -0.4596
  570MOL0     H76895   7.131   7.770   3.369  0.5633  1.1921  1.9814
  570MOL0     H76896   7.006   7.870   3.326 -0.1601  0.4916 -1.9318
  570MOL0     H76897   7.251   7.885   3.144  0.3776  0.5575  0.6422
  570MOL0     H76898   7.146   7.739   3.143  1.9978  0.0079  0.0616
  570MOL0     H76899   7.024   8.019   3.127  2.0002  0.5125  0.4197
  570MOL0     H76900   6.947   7.862   3.121 -1.3252  1.0478  0.1563
  570MOL0     H76901   7.166   8.052   2.855  3.1824 -1.5036  0.6228
  570MOL0     H76902   7.199   7.998   2.587 -0.1683 -0.2474  1.7415
  570MOL0     H76903   7.165   7.837   2.540  0.8050  0.5000 -1.7047
  570MOL0     H76904   6.904   7.918   2.556  0.9986 -1.0350 -1.1635
  570MOL0     H76905   6.989   7.971   2.420 -0.9600  2.3127 -0.3923
  570MOL0     H76906   7.052   8.177   2.528  1.1658 -1.1311  0.9031
  570MOL0     H76907   6.978   8.127   2.688  1.7832 -2.8846  0.4534
  570MOL0     H76908   6.846   8.283   2.585 -1.1672  1.0758 -2.4743
  570MOL0     H76909   6.762   8.124   2.578  2.2674 -1.1949  2.1361
  570MOL0     H76910   6.586   8.234   2.513  1.5883  0.3781 -0.7701
  570MOL0     H76911   6.376   8.285   2.528 -2.8120  0.0112  0.0215
  570MOL0     H76912   6.291   8.339   2.386 -1.3464 -0.3274  0.9691
  570MOL0     H76913   6.297   8.169   2.446  2.3399 -0.6354  1.3393
  570MOL0     H76914   6.080   8.421   2.291  0.1045  0.7583 -0.6366
  570MOL0     H76915   5.889   8.560   2.196 -0.4231 -0.8246  0.3372
  570MOL0     H76916   5.678   8.649   2.066 -0.7318  1.1056 -0.8460
  570MOL0     H76917   5.838   8.737   2.027 -1.1263  2.0581 -0.7129
  570MOL0     H76918   5.693   8.868   1.920  2.4352 -0.9290 -1.9482
  570MOL0     H76919   5.745   8.771   1.791  3.0105 -2.3311  1.2278
  570MOL0     H76920   5.479   8.735   1.952  1.0599 -0.6597  0.9090
  570MOL0     H76921   5.536   8.605   1.855  0.4437 -0.1910 -1.3319
  570MOL0     H76922   5.464   8.881   1.764  2.3941 -0.2532 -0.0096
  570MOL0     H76923   5.546   8.764   1.657  0.2483 -0.1566 -0.0179
  570MOL0     H76924   5.295   8.667   1.790  1.1084 -2.4430  0.7314
  570MOL0     H76925   5.401   8.571   1.700  0.5586 -1.5349 -2.1564
  570MOL0     H76926   5.277   8.829   1.576 -0.2125  0.7538  0.3135
  570MOL0     H76927   5.387   8.710   1.494  0.1719 -1.0973 -0.0045
  570MOL0     H76928   5.110   8.700   1.511 -1.1890 -0.5875  1.5992
  570MOL0     H76929   5.181   8.544   1.571 -1.2260  0.6525 -0.3330
  570MOL0     H76930   5.312   8.529   1.359 -0.3539 -0.0741 -2.8711
  570MOL0     H76931   5.238   8.682   1.304 -6.4398  2.1179  0.7441
  570MOL0     H76932   5.951   8.390   1.809  0.4834 -0.5209 -0.4520
  570MOL0     H76933   6.126   8.254   1.898 -2.0587 -0.5808 -2.1662
  570MOL0     H76934   6.585   8.182   2.020  2.7200 -2.4788 -0.3609
  570MOL0     H76935   6.802   8.151   2.153  0.1249  1.6617 -0.4031
  570MOL0     H76936   7.547   7.673   3.678 -1.3038 -0.2933 -0.4999
  570MOL0     H76937   7.685   7.448   3.694  0.3718  0.4857  1.6613
  570MOL0     H76938   7.958   7.200   4.066  0.1934  0.8752 -0.2735
  570MOL0     H76939   8.078   6.999   4.112  0.5407  2.2951 -0.9644
  570MOL0     H76940   7.819   6.622   4.065  0.4144 -1.1364  2.4094
  570MOL0     H76941   7.897   6.603   3.905 -1.3806  1.5444 -0.6688
  570MOL0     H76942   8.013   6.504   4.164  1.9996  1.3249 -0.6354
  570MOL0     H76943   8.093   6.515   4.006 -0.9043  2.1130 -0.4460
  570MOL0     H76944   7.927   6.380   3.910 -4.3559 -0.2424  0.0578
  570MOL0     H76945   7.827   6.365   4.055 -0.2097  0.4614 -2.1371
  570MOL0     H76946   8.009   6.236   4.171  3.2631  2.8785  1.0108
  570MOL0     H76947   8.130   6.264   4.041 -0.7910 -0.8901 -0.2873
  570MOL0     H76948   7.901   5.968   3.845 -3.0472  0.5434 -0.3981
  570MOL0     H76949   7.799   6.791   3.854 -0.7386 -0.4879  1.8496
  570MOL0     H76950   7.694   7.006   3.789 -0.1059  3.7386  0.1526
  571MOL0     O76951   5.027   1.750   9.604 -0.1418 -0.2466  0.3190
  571MOL0     C76952   4.944   1.750   9.520  0.2183  0.0816 -0.6396
  571MOL0     O76953   4.817   1.808   9.526 -0.2755  0.6074  0.1668
  571MOL0     C76954   4.801   1.896   9.629 -0.1395 -0.6264 -1.9125
  571MOL0     C76955   4.876   2.013   9.636 -0.6406  0.5989 -0.1618
  571MOL0     C76956   4.841   2.106   9.725  0.9203 -0.5862 -0.1993
  571MOL0     C76957   4.741   2.087   9.829 -0.0618 -0.3835 -0.5602
  571MOL0     O76958   4.695   2.181   9.911 -0.3070 -0.4076 -0.5525
  571MOL0     C76959   4.749   2.311   9.900 -0.6579  0.6497 -0.0956
  571MOL0     C76960   4.667   2.417   9.973 -0.1193 -0.4589  0.1200
  571MOL0     C76961   4.733   2.553   9.953  0.6959 -0.2298 -0.6778
  571MOL0     C76962   4.634   2.668   9.966 -0.4818 -0.0196 -0.7386
  571MOL0     C76963   4.699   2.808   9.956 -0.0373  0.9341  0.3154
  571MOL0     C76964   4.612   2.936   9.986  0.9110  0.4394 -0.0852
  571MOL0     C76965   4.500   2.938   9.885 -0.0483 -0.2548 -0.4945
  571MOL0     C76966   4.529   2.944   9.733  0.5925  0.5047  0.0118
  571MOL0     N76967   4.611   3.061   9.692 -0.5581 -1.0373 -0.8082
  571MOL0     C76968   4.602   3.126   9.567  0.2506 -0.2804 -0.0882
  571MOL0     C76969   4.689   3.222   9.577 -0.4077 -0.0418  0.5663
  571MOL0     C76970   4.692   3.321   9.467 -0.2352  0.0739  0.2528
  571MOL0     C76971   4.581   3.428   9.484 -0.5459 -0.5622 -0.2319
  571MOL0     C76972   4.455   3.429   9.388  0.3680  0.5408  0.6844
  571MOL0     C76973   4.494   3.447   9.250  1.3365 -0.8061 -0.0227
  571MOL0     O76974   4.377   3.494   9.188  0.4173 -0.2079 -0.0781
  571MOL0     C76975   4.373   3.496   9.053 -0.0949 -0.4438 -0.0848
  571MOL0     C76976   4.242   3.497   8.989 -0.3176  0.3268  0.3041
  571MOL0     C76977   4.231   3.522   8.852  0.2736  0.5925 -0.0057
  571MOL0     C76978   4.088   3.539   8.790 -0.0078 -0.1101 -1.6214
  571MOL0     C76979   4.345   3.525   8.772  0.4001  0.3273 -0.6300
  571MOL0     C76980   4.331   3.544   8.626  0.3022 -0.0951  0.0863
  571MOL0     O76981   4.438   3.598   8.573  0.2372 -0.2532  0.8631
  571MOL0     C76982   4.450   3.585   8.439 -0.0469 -0.2631 -0.7989
  571MOL0     C76983   4.458   3.700   8.365 -0.2156 -0.2876  0.4096
  571MOL0     C76984   4.491   3.698   8.227 -0.2688  0.6968  0.2112
  571MOL0     C76985   4.505   3.576   8.160 -0.6801  0.4872 -0.3474
  571MOL0     O76986   4.555   3.580   8.033 -0.6189 -0.2084  0.6768
  571MOL0     C76987   4.491   3.658   7.925  0.0527  1.2818 -0.5588
  571MOL0     C76988   4.341   3.634   7.917 -0.9749  0.5489 -0.2892
  571MOL0     C76989   4.279   3.719   7.798  0.5529 -0.4360  0.0101
  571MOL0     C76990   4.125   3.708   7.802 -0.3125  0.2015 -0.4406
  571MOL0     C76991   4.052   3.791   7.705  0.5496 -0.1548 -0.5625
  571MOL0     C76992   3.899   3.786   7.739 -0.1372 -0.6575  0.3112
  571MOL0     C76993   3.821   3.876   7.645  1.0830  0.1766 -0.8948
  571MOL0     C76994   3.669   3.862   7.678 -0.7072 -0.4407  0.5043
  571MOL0    Cl76995   3.643   3.952   7.829  0.2016  0.3440  0.1562
  571MOL0     C76996   4.502   3.457   8.240  0.2306  0.0879  0.2651
  571MOL0     C76997   4.480   3.465   8.381 -0.0037 -0.7887 -0.4990
  571MOL0     O76998   4.233   3.502   8.561 -0.1670  0.0422 -0.2282
  571MOL0     C76999   4.469   3.501   8.833 -0.1497  0.6320  0.4997
  571MOL0     C77000   4.487   3.497   8.971 -0.8191  0.0525 -0.6342
  571MOL0     N77001   4.758   3.219   9.698  0.7241  0.3155  0.2156
  571MOL0     N77002   4.701   3.130   9.769  0.7118  0.9334 -0.0211
  571MOL0     C77003   4.673   1.968   9.824 -0.8238 -0.2394 -0.0257
  571MOL0     C77004   4.703   1.872   9.724  0.4124 -0.1271  0.6254
  571MOL0     C77005   4.975   1.671   9.402  0.7205 -0.4449  0.3024
  571MOL0     C77006   5.106   1.663   9.352  0.0078  0.8406 -0.9738
  571MOL0     C77007   5.124   1.616   9.224 -0.2947 -0.1483  0.6269
  571MOL0     C77008   5.026   1.548   9.154  0.2244  0.1555  0.1357
  571MOL0     O77009   5.062   1.492   9.038  0.4600  0.2964 -0.0296
  571MOL0     C77010   4.961   1.479   8.933 -0.2667  0.2880  0.2571
  571MOL0     C77011   5.027   1.442   8.795 -0.8215 -0.5534  0.7686
  571MOL0     C77012   5.109   1.310   8.797 -0.3147  0.4206  0.6019
  571MOL0     C77013   5.189   1.287   8.670 -0.0337  0.8528 -0.4114
  571MOL0     C77014   5.110   1.198   8.590  0.5981  0.4034  0.4104
  571MOL0     C77015   5.032   1.115   8.530  0.5548  0.2127  0.1867
  571MOL0     C77016   4.900   1.547   9.209  0.2957 -0.1228 -0.4593
  571MOL0     C77017   4.870   1.615   9.330  0.6587 -0.1503  1.5102
  571MOL0     H77018   4.945   2.037   9.556 -2.7840  1.5380 -1.8360
  571MOL0     H77019   4.901   2.195   9.712 -0.2255 -0.0328 -2.3327
  571MOL0     H77020   4.849   2.305   9.943 -0.1231  1.8952 -1.0884
  571MOL0     H77021   4.750   2.342   9.795 -0.4046 -3.2307 -1.4021
  571MOL0     H77022   4.563   2.408   9.940 -0.1609 -4.4080  0.7971
  571MOL0     H77023   4.669   2.392  10.079 -0.7479 -0.0145  0.2450
  571MOL0     H77024   4.811   2.574  10.026 -1.2827  0.3994  1.3697
  571MOL0     H77025   4.767   2.568   9.850  0.3375 -1.9324 -1.0712
  571MOL0     H77026   4.554   2.664   9.892  0.7685  2.9020 -2.4230
  571MOL0     H77027   4.580   2.657  10.061 -0.8145  1.3687 -0.7458
  571MOL0     H77028   4.786   2.804  10.022  0.9781 -1.9745 -1.0443
  571MOL0     H77029   4.747   2.826   9.859  0.9991  2.0909  1.0145
  571MOL0     H77030   4.587   2.928  10.092 -1.9575 -1.1335 -0.7982
  571MOL0     H77031   4.659   3.035   9.992  0.6594  0.4640  2.7695
  571MOL0     H77032   4.440   2.850   9.910  0.3989  0.3052  3.1797
  571MOL0     H77033   4.432   3.020   9.912 -2.8015 -2.9233  1.2376
  571MOL0     H77034   4.438   2.945   9.672  0.6111  1.0541 -0.0180
  571MOL0     H77035   4.581   2.851   9.712 -0.8606 -0.3090 -0.1373
  571MOL0     H77036   4.527   3.102   9.492 -2.1819  1.3202  1.6947
  571MOL0     H77037   4.787   3.375   9.462  0.7992 -1.8026 -2.9122
  571MOL0     H77038   4.697   3.279   9.366 -1.9985  3.3132 -1.3327
  571MOL0     H77039   4.617   3.531   9.488 -2.2031  0.0657 -0.6888
  571MOL0     H77040   4.531   3.415   9.580 -1.0395  1.4048 -0.1917
  571MOL0     H77041   4.393   3.511   9.426  1.5223  1.5234  0.5239
  571MOL0     H77042   4.400   3.335   9.387 -1.1306  1.3188 -2.4127
  571MOL0     H77043   4.511   3.349   9.204 -1.7965 -0.3638 -2.5088
  571MOL0     H77044   4.579   3.516   9.245  1.1267  0.0556  4.4081
  571MOL0     H77045   4.152   3.492   9.049 -1.0024  0.4249 -0.7094
  571MOL0     H77046   4.021   3.554   8.875  0.6361  0.4270 -1.1922
  571MOL0     H77047   4.079   3.624   8.721 -1.2856  1.5841  0.4939
  571MOL0     H77048   4.053   3.442   8.752 -0.3769 -0.3170 -0.7606
  571MOL0     H77049   4.453   3.797   8.413  1.7429  0.8014 -1.3754
  571MOL0     H77050   4.518   3.793   8.181  1.7831  0.0110 -0.0962
  571MOL0     H77051   4.511   3.765   7.940  3.5885  1.0778 -2.5840
  571MOL0     H77052   4.546   3.624   7.837 -1.7849 -3.0718 -0.2601
  571MOL0     H77053   4.312   3.529   7.909  0.2364  0.1232  0.6765
  571MOL0     H77054   4.296   3.668   8.011 -0.3512  2.5666 -0.6672
  571MOL0     H77055   4.302   3.676   7.699 -1.0811 -1.5819  0.0910
  571MOL0     H77056   4.313   3.823   7.801  0.3578 -0.2912 -1.6244
  571MOL0     H77057   4.107   3.602   7.781  1.5320 -0.1984 -0.1427
  571MOL0     H77058   4.087   3.724   7.903  1.4500 -2.0120  0.6758
  571MOL0     H77059   4.067   3.751   7.605 -2.6482 -3.0149 -0.0810
  571MOL0     H77060   4.087   3.894   7.710 -0.0105  0.0767 -1.3114
  571MOL0     H77061   3.863   3.685   7.715  1.3808 -1.2495  0.3800
  571MOL0     H77062   3.888   3.820   7.842  5.9015  3.1663  0.2188
  571MOL0     H77063   3.847   3.845   7.544  0.7104  0.0858 -0.9670
  571MOL0     H77064   3.865   3.975   7.659  0.6510  0.3838 -0.9906
  571MOL0     H77065   3.644   3.756   7.689  2.4325 -1.5610 -1.7614
  571MOL0     H77066   3.602   3.905   7.602  0.9393  1.4374  0.0311
  571MOL0     H77067   4.524   3.361   8.194  1.1718  0.5365 -0.2520
  571MOL0     H77068   4.476   3.375   8.441 -3.7335  0.3316  1.2509
  571MOL0     H77069   4.556   3.500   8.768 -1.1583  2.4377 -0.9793
  571MOL0     H77070   4.591   3.493   9.003 -0.3225 -0.6990 -2.2143
  571MOL0     H77071   4.595   1.936   9.893 -2.2293 -2.6942 -2.5543
  571MOL0     H77072   4.639   1.785   9.716 -0.8445  0.6027  2.2437
  571MOL0     H77073   5.184   1.728   9.391 -1.2827  1.7108  0.2307
  571MOL0     H77074   5.222   1.620   9.176 -0.4117  1.5703  0.4864
  571MOL0     H77075   4.893   1.393   8.939  3.1945 -2.8213 -1.0496
  571MOL0     H77076   4.903   1.571   8.922 -1.6126 -0.6537 -0.8113
  571MOL0     H77077   5.106   1.511   8.765 -0.4840 -0.7393  1.2048
  571MOL0     H77078   4.951   1.456   8.718 -1.5004  1.5094  1.7216
  571MOL0     H77079   5.035   1.234   8.826 -1.4660  0.7646 -1.2331
  571MOL0     H77080   5.189   1.315   8.871  2.0686 -1.6128 -1.6448
  571MOL0     H77081   5.286   1.246   8.699 -0.6916 -0.5450 -0.1182
  571MOL0     H77082   5.213   1.371   8.605 -2.7395  0.4244 -2.1288
  571MOL0     H77083   4.970   1.035   8.495 -0.0356  1.8528 -2.8895
  571MOL0     H77084   4.820   1.491   9.162 -2.0488  3.0938 -0.6020
  571MOL0     H77085   4.770   1.616   9.372 -0.0762  1.2751 -0.1685
  572MOL0     O77086   2.642   4.487   5.154 -0.3591 -0.3256 -0.2061
  572MOL0     C77087   2.605   4.426   5.057  0.6787  0.0743  0.1979
  572MOL0     O77088   2.599   4.486   4.928  0.1100  0.5926  1.1341
  572MOL0     C77089   2.644   4.616   4.921  0.1352 -0.4416 -0.8583
  572MOL0     C77090   2.573   4.701   4.832 -0.4934  0.6795  0.8731
  572MOL0     C77091   2.625   4.821   4.804  0.0699 -0.3322  0.6678
  572MOL0     C77092   2.750   4.869   4.853  0.3511  1.0321 -0.7275
  572MOL0     O77093   2.809   4.980   4.807  0.0320 -0.0933  0.4183
  572MOL0     C77094   2.736   5.077   4.728  0.2835 -0.2873 -0.4397
  572MOL0     C77095   2.847   5.169   4.668  0.6806  0.3413  0.2052
  572MOL0     C77096   2.776   5.297   4.612 -0.8439  0.2709 -0.5665
  572MOL0     C77097   2.888   5.388   4.584 -0.1439 -0.0144  0.6915
  572MOL0     C77098   2.843   5.515   4.520 -0.3235  0.6209  0.0266
  572MOL0     C77099   2.960   5.604   4.496  0.4831  0.8415  0.4775
  572MOL0     C77100   2.925   5.698   4.384 -0.3068 -0.3258  0.3327
  572MOL0     C77101   3.041   5.800   4.382 -0.7105  0.1077 -0.6750
  572MOL0     N77102   3.065   5.876   4.254  0.0522 -0.8780  0.8416
  572MOL0     C77103   3.015   6.000   4.218  0.9387 -0.6363 -0.3208
  572MOL0     C77104   3.071   6.044   4.104 -0.0145  0.3737 -0.3675
  572MOL0     C77105   3.071   6.180   4.034  0.7091 -0.3817 -0.4327
  572MOL0     C77106   2.975   6.192   3.919  0.7127 -1.2999  0.1506
  572MOL0     C77107   2.832   6.215   3.968 -0.5859 -0.4850 -1.2202
  572MOL0     C77108   2.724   6.187   3.866 -0.6069 -0.9896  0.1154
  572MOL0     O77109   2.686   6.050   3.851 -0.4383 -0.5126 -0.4793
  572MOL0     C77110   2.570   6.019   3.773 -0.7711  0.2181 -0.0610
  572MOL0     C77111   2.546   5.879   3.752 -0.0033  0.7388 -0.2692
  572MOL0     C77112   2.457   5.830   3.663 -0.2698  0.2916 -0.3348
  572MOL0     C77113   2.458   5.675   3.628 -0.0163 -0.1725 -0.0820
  572MOL0     C77114   2.393   5.928   3.579  0.2777  0.7520 -0.2210
  572MOL0     C77115   2.304   5.880   3.461  0.9546 -1.0976  0.1443
  572MOL0     O77116   2.312   5.965   3.353  0.6558  0.9180  0.2139
  572MOL0     C77117   2.238   5.937   3.240 -0.0528  1.0232 -0.0097
  572MOL0     C77118   2.267   5.818   3.165  0.1252  0.0598  0.0092
  572MOL0     C77119   2.175   5.786   3.061 -0.2025 -0.0111 -0.0783
  572MOL0     C77120   2.063   5.870   3.030 -1.3260 -0.1633  0.4875
  572MOL0     O77121   1.998   5.848   2.919  0.6029  0.1431 -0.2283
  572MOL0     C77122   1.878   5.917   2.886 -0.3826 -0.4041 -0.0535
  572MOL0     C77123   1.751   5.875   2.960  1.4693  0.2480  0.1066
  572MOL0     C77124   1.728   5.730   2.941 -0.2265 -0.2042  0.0396
  572MOL0     C77125   1.602   5.700   3.021 -0.1908  0.0574  0.3216
  572MOL0     C77126   1.592   5.545   3.037 -0.2690  0.0027  0.3326
  572MOL0     C77127   1.467   5.501   3.125  0.0771  0.0648 -0.4453
  572MOL0     C77128   1.421   5.357   3.104  0.5187  0.7545  0.7200
  572MOL0     C77129   1.512   5.239   3.152  0.3202  0.9689  0.6946
  572MOL0    Cl77130   1.463   5.111   3.038 -0.0232 -0.3889 -0.3152
  572MOL0     C77131   2.052   5.993   3.105  0.2116  0.2596  0.4355
  572MOL0     C77132   2.142   6.022   3.204  0.5721 -0.0382 -0.4793
  572MOL0     O77133   2.239   5.780   3.464  0.5528 -0.6526 -0.5589
  572MOL0     C77134   2.430   6.066   3.584 -0.1001  0.7306 -0.1999
  572MOL0     C77135   2.512   6.112   3.684 -0.2011  0.9811 -0.5691
  572MOL0     N77136   3.170   5.949   4.081  0.6919 -0.1513 -0.5753
  572MOL0     N77137   3.161   5.851   4.164  0.7822  0.7647 -0.1660
  572MOL0     C77138   2.823   4.792   4.943  0.7642  0.0560 -0.7132
  572MOL0     C77139   2.760   4.670   4.979 -0.3187  0.1726  0.0807
  572MOL0     C77140   2.553   4.294   5.081 -0.8689  0.4193  1.2537
  572MOL0     C77141   2.490   4.242   4.971  1.0460  1.1881  0.2377
  572MOL0     C77142   2.448   4.110   4.981 -0.2408 -0.4353 -0.3398
  572MOL0     C77143   2.465   4.031   5.092  0.8129  1.5313 -0.5364
  572MOL0     O77144   2.421   3.896   5.088  0.1114 -0.1615 -0.7037
  572MOL0     C77145   2.511   3.782   5.051  0.2342 -0.6541 -0.2202
  572MOL0     C77146   2.611   3.807   4.943 -0.5952 -0.0178  0.0428
  572MOL0     C77147   2.554   3.804   4.799 -0.4978 -0.4851 -0.2470
  572MOL0     C77148   2.546   3.663   4.741  1.2351 -0.2733 -0.2651
  572MOL0     C77149   2.450   3.660   4.636 -0.6703  0.0056 -0.4243
  572MOL0     C77150   2.374   3.638   4.548  0.3823 -0.2294  0.8735
  572MOL0     C77151   2.520   4.088   5.201  0.2077  0.7209 -0.1298
  572MOL0     C77152   2.565   4.220   5.198  0.7091 -0.8623 -0.0515
  572MOL0     H77153   2.495   4.649   4.778  3.3538 -4.7670 -0.3593
  572MOL0     H77154   2.565   4.881   4.737 -0.6914  0.6730  2.1981
  572MOL0     H77155   2.674   5.031   4.650  1.8895  0.0182 -1.9544
  572MOL0     H77156   2.680   5.151   4.786  0.5480  1.0375 -1.8315
  572MOL0     H77157   2.922   5.191   4.744  0.5097  1.4543  0.0733
  572MOL0     H77158   2.895   5.108   4.591  0.3025 -0.2985  0.4721
  572MOL0     H77159   2.721   5.265   4.522 -3.1746 -0.7585  1.1089
  572MOL0     H77160   2.702   5.344   4.678  0.0085  0.7850  0.0352
  572MOL0     H77161   2.944   5.403   4.677 -1.5449 -1.8501  1.9091
  572MOL0     H77162   2.959   5.339   4.517 -0.9131 -0.9477  0.5215
  572MOL0     H77163   2.794   5.493   4.425 -0.5046 -3.0712  0.8553
  572MOL0     H77164   2.770   5.569   4.582 -1.9447 -3.5731  2.2059
  572MOL0     H77165   2.979   5.664   4.585  0.9864 -0.1378  1.0367
  572MOL0     H77166   3.047   5.543   4.469 -0.1836  0.7630 -1.6852
  572MOL0     H77167   2.919   5.640   4.291 -0.4063 -0.9166  0.7025
  572MOL0     H77168   2.826   5.737   4.409 -0.9542 -1.4856 -0.2925
  572MOL0     H77169   3.137   5.761   4.416 -1.0072  1.6554  2.2788
  572MOL0     H77170   3.032   5.873   4.463 -0.5352 -0.5884 -0.0184
  572MOL0     H77171   2.940   6.049   4.279  0.9810 -0.1451 -0.6518
  572MOL0     H77172   3.046   6.258   4.107  2.2601 -0.5443  0.3059
  572MOL0     H77173   3.175   6.194   4.003  0.3568  1.2389 -1.0177
  572MOL0     H77174   2.983   6.107   3.850  0.9693 -0.3574 -1.0173
  572MOL0     H77175   3.015   6.273   3.857  3.1148 -1.4371  1.4313
  572MOL0     H77176   2.814   6.312   4.014  0.5189 -0.7684 -0.1609
  572MOL0     H77177   2.807   6.151   4.053  0.6285  0.2354 -0.2806
  572MOL0     H77178   2.767   6.216   3.770  0.9344 -1.5761  0.5827
  572MOL0     H77179   2.636   6.248   3.889 -0.7170 -0.7424 -0.9160
  572MOL0     H77180   2.603   5.806   3.809  1.0405  2.8250  1.4953
  572MOL0     H77181   2.543   5.623   3.673  0.5225  1.4595  0.8647
  572MOL0     H77182   2.363   5.625   3.648 -0.5618  0.3310 -1.2948
  572MOL0     H77183   2.470   5.665   3.520  0.2121  1.3233 -0.2208
  572MOL0     H77184   2.351   5.756   3.194  2.4868  3.1695  0.3407
  572MOL0     H77185   2.197   5.706   2.991 -2.6666  1.4018 -2.6687
  572MOL0     H77186   1.892   6.026   2.882 -0.6168 -0.2140  2.4322
  572MOL0     H77187   1.850   5.893   2.783 -1.5482 -1.6088  0.5187
  572MOL0     H77188   1.765   5.878   3.069 -2.5274 -0.5657  0.7790
  572MOL0     H77189   1.670   5.941   2.929 -1.2470 -2.1276  1.6184
  572MOL0     H77190   1.802   5.662   2.983  0.1170 -1.5697 -2.5836
  572MOL0     H77191   1.709   5.713   2.835  0.0421  0.7118 -0.1603
  572MOL0     H77192   1.597   5.752   3.117  1.8543 -1.2382  1.1998
  572MOL0     H77193   1.509   5.732   2.973  1.3070  3.4671 -0.6022
  572MOL0     H77194   1.687   5.496   3.063  0.1787  0.9283  0.5028
  572MOL0     H77195   1.575   5.505   2.936 -0.4518 -0.7957  0.6698
  572MOL0     H77196   1.499   5.508   3.229  2.1266 -2.3214 -0.8328
  572MOL0     H77197   1.390   5.577   3.107  1.3633  1.5661  0.1898
  572MOL0     H77198   1.384   5.343   3.002 -2.9148  2.9879  1.4918
  572MOL0     H77199   1.326   5.360   3.158  0.5400  2.4407  0.7039
  572MOL0     H77200   1.474   5.219   3.252  0.2709  1.6511  0.8203
  572MOL0     H77201   1.617   5.272   3.151  1.3552 -1.7245 -3.2981
  572MOL0     H77202   1.971   6.063   3.085 -1.4300 -1.7075 -0.1291
  572MOL0     H77203   2.132   6.118   3.254  2.2021  0.0545 -0.2768
  572MOL0     H77204   2.379   6.136   3.518 -0.9645  0.3416  0.0429
  572MOL0     H77205   2.534   6.216   3.703  1.2187  0.5486  0.3052
  572MOL0     H77206   2.915   4.834   4.982  0.5547  1.0276 -1.2112
  572MOL0     H77207   2.808   4.608   5.054 -0.3608  0.6096  0.4714
  572MOL0     H77208   2.459   4.295   4.881 -2.7883 -3.1488 -1.3932
  572MOL0     H77209   2.399   4.080   4.889  1.7658 -0.9437 -1.3021
  572MOL0     H77210   2.554   3.738   5.141 -2.2842  0.1484  1.4875
  572MOL0     H77211   2.448   3.704   5.008 -0.9820  1.5626 -2.7986
  572MOL0     H77212   2.686   3.729   4.958  0.8501  1.3182  0.0386
  572MOL0     H77213   2.654   3.904   4.967 -2.7150  0.6715  1.2688
  572MOL0     H77214   2.606   3.865   4.725 -3.2876 -1.0706 -2.9033
  572MOL0     H77215   2.459   3.857   4.807  1.5136  3.3144  0.5691
  572MOL0     H77216   2.523   3.587   4.816 -1.4340  0.7771  0.1143
  572MOL0     H77217   2.642   3.640   4.695  1.2087  0.1147 -0.5180
  572MOL0     H77218   2.296   3.620   4.477  2.0001 -1.9361 -0.6061
  572MOL0     H77219   2.545   4.032   5.290 -0.1937 -0.4690 -0.7339
  572MOL0     H77220   2.616   4.260   5.285  0.2504 -0.1485 -0.1040
  573MOL0     O77221   6.962   0.699   6.058 -0.2495  0.0346 -0.2365
  573MOL0     C77222   6.961   0.597   6.129 -0.0612 -0.1851 -0.4221
  573MOL0     O77223   7.068   0.524   6.170 -0.2685 -0.2247 -0.1888
  573MOL0     C77224   7.186   0.565   6.112  0.0273  0.2974 -0.8301
  573MOL0     C77225   7.193   0.582   5.970 -0.4292  0.6739  0.2731
  573MOL0     C77226   7.318   0.617   5.907  0.6454 -0.2162 -0.0285
  573MOL0     C77227   7.423   0.663   5.977  0.1311 -0.6416 -0.4304
  573MOL0     O77228   7.522   0.731   5.908  0.3476 -0.4575  0.1044
  573MOL0     C77229   7.579   0.844   5.965 -0.3259  0.6043 -0.5112
  573MOL0     C77230   7.677   0.918   5.867 -0.4882  0.3573 -0.1616
  573MOL0     C77231   7.818   0.872   5.871  0.3482  0.4395  0.3052
  573MOL0     C77232   7.900   0.947   5.764 -0.2567 -0.2413  0.2817
  573MOL0     C77233   8.045   0.956   5.792  0.0854 -0.1733  0.2443
  573MOL0     C77234   8.127   0.837   5.730 -0.0136  0.9777  0.8753
  573MOL0     C77235   8.276   0.846   5.705 -0.8041  0.4675  1.4917
  573MOL0     C77236   8.320   0.962   5.609 -0.0819 -0.4860 -0.3844
  573MOL0     N77237   8.463   0.971   5.573  0.6908  0.3646  0.5715
  573MOL0     C77238   8.558   0.895   5.630 -0.3579  0.3270 -0.3016
  573MOL0     C77239   8.674   0.938   5.575 -0.3945  0.5804 -0.5796
  573MOL0     C77240   8.816   0.880   5.608 -0.8089  0.0875 -0.1431
  573MOL0     C77241   8.863   0.776   5.501 -0.5498  0.7398  0.7913
  573MOL0     C77242   9.007   0.713   5.536 -0.5990 -1.2284  0.5023
  573MOL0     C77243   9.083   0.693   5.408  0.4492 -0.1265  0.0559
  573MOL0     O77244   9.134   0.824   5.369 -0.2561 -0.3789 -0.4410
  573MOL0     C77245   9.130   0.860   5.237  0.4509 -0.6622 -0.0924
  573MOL0     C77246   9.177   0.796   5.132  0.6211  0.3529 -0.8806
  573MOL0     C77247   9.171   0.850   5.000  0.4923  0.1694  0.0925
  573MOL0     C77248   9.224   0.759   4.888  0.0097 -0.5470  0.0744
  573MOL0     C77249   9.122   0.979   4.981 -0.2421 -0.1533 -1.1873
  573MOL0     C77250   9.107   1.043   4.844 -0.9674  0.5014 -0.7191
  573MOL0     O77251   9.091   1.175   4.848  0.0259  0.5884 -0.4442
  573MOL0     C77252   9.191   1.244   4.791 -0.1252  0.7741 -0.1112
  573MOL0     C77253   9.305   1.285   4.861  0.4873  0.1913 -0.1729
  573MOL0     C77254   9.409   1.347   4.799 -0.2543  1.2968  0.0907
  573MOL0     C77255   9.416   1.372   4.660  0.6828 -0.7026  1.0420
  573MOL0     O77256   9.508   1.440   4.596  0.0891 -0.5041 -0.5580
  573MOL0     C77257   9.517   1.427   4.458 -1.3983  0.1471  0.5156
  573MOL0     C77258   9.656   1.467   4.404  0.2078 -0.1691  0.3104
  573MOL0     C77259   9.686   1.610   4.439  0.0461 -0.9276 -0.2786
  573MOL0     C77260   9.583   1.724   4.385 -0.5311  1.2785  0.7523
  573MOL0     C77261   9.671   1.843   4.406  0.0149  0.1131  0.0029
  573MOL0     C77262   9.595   1.969   4.419  0.5568  0.4865 -0.9322
  573MOL0     C77263   9.675   2.094   4.359  0.4198  0.1725  0.0224
  573MOL0     C77264   9.806   2.123   4.421  0.1320  0.0016 -0.6750
  573MOL0    Cl77265   9.791   2.115   4.607 -0.2437 -0.1222  0.1787
  573MOL0     C77266   9.290   1.344   4.595 -0.3372 -0.5967  0.3800
  573MOL0     C77267   9.185   1.275   4.652 -0.0856 -0.8028 -0.7801
  573MOL0     O77268   9.133   0.983   4.742 -0.4052  0.3443  0.2327
  573MOL0     C77269   9.081   1.051   5.097 -0.3796  0.1540  0.0238
  573MOL0     C77270   9.082   0.989   5.222 -0.3523 -0.3923  0.2229
  573MOL0     N77271   8.642   1.044   5.480 -0.7163 -0.3441 -0.3159
  573MOL0     N77272   8.513   1.058   5.480  0.8880 -0.0773 -0.0111
  573MOL0     C77273   7.417   0.650   6.118  1.0920 -0.1298 -1.1869
  573MOL0     C77274   7.302   0.589   6.184 -0.7522 -0.8705  0.7692
  573MOL0     C77275   6.829   0.583   6.189  0.4785 -1.0487 -0.2082
  573MOL0     C77276   6.708   0.651   6.150 -0.5996 -0.6364 -0.6248
  573MOL0     C77277   6.586   0.634   6.224  0.1862 -0.5691 -0.1085
  573MOL0     C77278   6.582   0.551   6.339 -0.0542 -0.7886  0.0654
  573MOL0     O77279   6.454   0.535   6.405 -0.8736 -0.4594 -0.1382
  573MOL0     C77280   6.426   0.397   6.442  0.1094 -0.8903 -0.0819
  573MOL0     C77281   6.403   0.292   6.327 -0.3920 -0.7328 -0.9199
  573MOL0     C77282   6.300   0.334   6.221  0.0133 -0.1847  0.0983
  573MOL0     C77283   6.283   0.237   6.098 -0.2213  0.6223 -0.3225
  573MOL0     C77284   6.205   0.115   6.135  0.2800 -0.5225  0.1016
  573MOL0     C77285   6.168   0.012   6.190 -0.0619  0.2475 -0.8342
  573MOL0     C77286   6.694   0.478   6.364  0.1001  0.3869 -0.0690
  573MOL0     C77287   6.815   0.505   6.303  0.3681  0.1954  0.2763
  573MOL0     H77288   7.109   0.569   5.903 -1.2603 -0.1603  1.4349
  573MOL0     H77289   7.309   0.645   5.803  1.3368  2.1109  0.4850
  573MOL0     H77290   7.503   0.917   5.994  0.0415  0.7851  0.0133
  573MOL0     H77291   7.621   0.818   6.062 -1.8221 -0.5855 -0.1332
  573MOL0     H77292   7.641   0.899   5.766 -1.5472  0.5921  0.1507
  573MOL0     H77293   7.662   1.024   5.890 -0.4288  0.5244 -0.8856
  573MOL0     H77294   7.866   0.896   5.966 -0.1152 -1.2292  0.9833
  573MOL0     H77295   7.819   0.764   5.853 -0.9373  0.1841  1.5984
  573MOL0     H77296   7.881   0.900   5.668  2.1265 -1.0028  0.1225
  573MOL0     H77297   7.864   1.049   5.751 -1.5688 -0.7691 -0.4021
  573MOL0     H77298   8.083   1.052   5.757 -0.0240 -0.1674  0.1406
  573MOL0     H77299   8.072   0.959   5.898  3.3583 -0.0548 -0.4940
  573MOL0     H77300   8.110   0.749   5.793  1.4593  0.1020  0.1036
  573MOL0     H77301   8.089   0.807   5.631  3.6765 -3.1161  0.3920
  573MOL0     H77302   8.324   0.872   5.800  0.2108 -1.5191  1.5644
  573MOL0     H77303   8.310   0.750   5.667  1.1376  0.4325  3.1383
  573MOL0     H77304   8.303   1.056   5.663 -0.8540  1.0677 -3.1893
  573MOL0     H77305   8.254   0.975   5.524  1.9057 -0.3698 -1.9844
  573MOL0     H77306   8.554   0.823   5.712  1.2117  0.7002  0.1293
  573MOL0     H77307   8.881   0.968   5.612 -0.0834 -0.4512  0.3581
  573MOL0     H77308   8.810   0.832   5.706  0.7853  0.3980  0.1383
  573MOL0     H77309   8.854   0.816   5.400  0.3662 -0.3512  0.2598
  573MOL0     H77310   8.789   0.698   5.518  0.8777 -0.1952  3.3043
  573MOL0     H77311   9.003   0.618   5.591  1.3149 -1.9281 -0.4672
  573MOL0     H77312   9.058   0.792   5.592 -0.1581  0.0388 -1.5691
  573MOL0     H77313   9.015   0.662   5.329 -1.3006  3.3521  0.0069
  573MOL0     H77314   9.165   0.624   5.433 -0.5338 -0.5922  2.2237
  573MOL0     H77315   9.200   0.691   5.148  0.9054  0.6805  1.0404
  573MOL0     H77316   9.314   0.789   4.834  0.5874  0.9119  1.7502
  573MOL0     H77317   9.244   0.656   4.920 -0.2004 -1.0476 -1.3339
  573MOL0     H77318   9.152   0.740   4.808 -1.3697  1.7722  0.6754
  573MOL0     H77319   9.290   1.283   4.969 -2.5144  2.2881 -0.4137
  573MOL0     H77320   9.491   1.384   4.860  0.3110 -0.0311  0.1683
  573MOL0     H77321   9.502   1.322   4.431  0.4329 -0.6790  2.3761
  573MOL0     H77322   9.445   1.492   4.409 -0.3307 -0.8187 -2.5415
  573MOL0     H77323   9.737   1.400   4.434  0.5321 -0.7553 -1.7365
  573MOL0     H77324   9.651   1.462   4.295 -2.3790 -1.7138  0.4119
  573MOL0     H77325   9.789   1.631   4.408  0.8961  2.1047  3.8247
  573MOL0     H77326   9.690   1.625   4.548 -2.3462 -4.2893  0.4374
  573MOL0     H77327   9.546   1.707   4.283 -3.0720  0.5907  1.7134
  573MOL0     H77328   9.492   1.729   4.445 -1.4516 -0.1760 -0.4342
  573MOL0     H77329   9.732   1.848   4.315  0.8431  1.6599  0.6060
  573MOL0     H77330   9.735   1.833   4.494  0.3661  2.0237  0.0015
  573MOL0     H77331   9.509   1.971   4.352 -0.5820 -0.5387  0.4255
  573MOL0     H77332   9.560   1.998   4.519  0.5160  0.0829 -0.8246
  573MOL0     H77333   9.614   2.184   4.370 -0.0702  0.1533 -2.0595
  573MOL0     H77334   9.692   2.082   4.252  3.2932  0.7324  0.3417
  573MOL0     H77335   9.830   2.225   4.387 -0.9832  1.5579  2.7734
  573MOL0     H77336   9.871   2.046   4.380 -0.9749 -0.5095 -1.5131
  573MOL0     H77337   9.278   1.359   4.489  0.2361  1.6009  0.5823
  573MOL0     H77338   9.104   1.248   4.585 -0.9229  3.3515 -1.7478
  573MOL0     H77339   9.059   1.158   5.096  3.3397  1.2451  4.1268
  573MOL0     H77340   9.035   1.040   5.305 -0.2982 -2.5387  1.6629
  573MOL0     H77341   7.507   0.680   6.172  0.0816  1.0138 -0.0570
  573MOL0     H77342   7.290   0.574   6.291 -0.9382 -3.0187  0.4881
  573MOL0     H77343   6.701   0.714   6.062 -2.4614  1.9096  1.1729
  573MOL0     H77344   6.495   0.684   6.190 -0.4332 -0.2859  1.8004
  573MOL0     H77345   6.504   0.357   6.508 -0.2021  0.8168  1.4041
  573MOL0     H77346   6.341   0.413   6.509  0.4003  2.3357 -0.3202
  573MOL0     H77347   6.363   0.203   6.378  0.7046  0.2660  1.8187
  573MOL0     H77348   6.498   0.267   6.278 -0.5395 -0.8823 -1.1328
  573MOL0     H77349   6.328   0.429   6.175  0.8065 -0.4607 -0.0067
  573MOL0     H77350   6.202   0.360   6.263 -1.2088  1.1128 -3.2139
  573MOL0     H77351   6.379   0.204   6.057  0.7003  4.3397 -1.5485
  573MOL0     H77352   6.228   0.279   6.013 -0.6852  0.2858 -0.1942
  573MOL0     H77353   6.136  -0.077   6.239 -2.6645  1.0575 -0.9145
  573MOL0     H77354   6.690   0.406   6.445  1.3015 -0.4853 -0.7493
  573MOL0     H77355   6.899   0.447   6.340 -0.5354 -2.2107 -1.1958
  574MOL0     O77356   6.026   4.344   7.208  1.0104  0.1132  0.1771
  574MOL0     C77357   6.001   4.243   7.137 -0.1302  0.4231  0.0513
  574MOL0     O77358   6.014   4.235   6.997  0.5981 -0.1289 -0.2689
  574MOL0     C77359   6.029   4.346   6.924 -0.0306  0.4478  0.3513
  574MOL0     C77360   5.939   4.367   6.818 -0.3175  0.2480 -0.1068
  574MOL0     C77361   5.970   4.463   6.710  0.0508  0.0216 -0.0920
  574MOL0     C77362   6.081   4.544   6.719  0.7050 -1.2386 -0.5905
  574MOL0     O77363   6.119   4.632   6.616 -0.2433 -0.0800  0.8972
  574MOL0     C77364   6.251   4.687   6.594 -0.0276  0.1473  0.4395
  574MOL0     C77365   6.250   4.710   6.446  0.0054  0.6873  0.1978
  574MOL0     C77366   6.349   4.616   6.386 -0.4267  1.7717  0.9593
  574MOL0     C77367   6.500   4.664   6.383 -0.3609  0.1014  0.0212
  574MOL0     C77368   6.588   4.583   6.289 -0.7497  0.3036  0.2941
  574MOL0     C77369   6.738   4.602   6.321 -0.6079  0.3459  0.5988
  574MOL0     C77370   6.806   4.737   6.321 -0.1730 -0.6537 -0.2698
  574MOL0     C77371   6.959   4.726   6.349  0.2034 -0.0565  0.1195
  574MOL0     N77372   7.036   4.795   6.238  0.4984  0.1023 -0.8094
  574MOL0     C77373   7.118   4.902   6.260 -1.0672  0.5582  1.2512
  574MOL0     C77374   7.169   4.940   6.139  0.2126 -0.2935 -0.5517
  574MOL0     C77375   7.243   5.070   6.108 -0.1693  0.7681  0.9186
  574MOL0     C77376   7.396   5.064   6.127 -0.4335  0.1879  0.2634
  574MOL0     C77377   7.473   4.994   6.003 -0.5611  0.6308 -0.8956
  574MOL0     C77378   7.478   5.067   5.866  0.1954 -0.1338 -0.2919
  574MOL0     O77379   7.594   5.029   5.794 -1.2187  0.2907 -0.0221
  574MOL0     C77380   7.623   5.083   5.672  0.0260 -0.6841 -0.0248
  574MOL0     C77381   7.593   5.217   5.638 -0.0661  0.5717  0.2325
  574MOL0     C77382   7.626   5.268   5.507  0.2502 -1.0488 -0.0095
  574MOL0     C77383   7.589   5.405   5.479  0.1296 -0.5227 -0.2147
  574MOL0     C77384   7.700   5.194   5.422  0.1329  1.0628  0.2708
  574MOL0     C77385   7.731   5.232   5.284  0.7501  0.3667 -0.3691
  574MOL0     O77386   7.828   5.158   5.224 -0.1970  0.1286 -0.2172
  574MOL0     C77387   7.868   5.187   5.097 -0.8796  0.3573  0.0012
  574MOL0     C77388   7.778   5.194   4.993 -0.6235  0.4667  0.3416
  574MOL0     C77389   7.825   5.218   4.863  0.5364 -0.5564  0.4989
  574MOL0     C77390   7.967   5.223   4.837 -0.2759 -0.0234  0.5953
  574MOL0     O77391   8.011   5.234   4.707 -0.9592  1.0251 -0.2397
  574MOL0     C77392   8.115   5.334   4.697 -0.3006 -0.7447 -0.7047
  574MOL0     C77393   8.161   5.347   4.546 -0.8567  0.3127 -0.9609
  574MOL0     C77394   8.227   5.475   4.513 -0.4472 -1.0396 -0.8269
  574MOL0     C77395   8.215   5.514   4.362  0.3161  0.3842 -0.7228
  574MOL0     C77396   8.229   5.662   4.344 -0.0170 -0.0977 -0.2021
  574MOL0     C77397   8.209   5.697   4.199 -0.7626  0.2880 -0.5390
  574MOL0     C77398   8.167   5.851   4.195 -0.8020  0.5236 -0.9583
  574MOL0     C77399   8.267   5.956   4.251  0.2379  0.4416  0.3767
  574MOL0    Cl77400   8.409   5.969   4.152 -0.1150 -0.7856 -0.1693
  574MOL0     C77401   8.052   5.207   4.945 -0.7935 -0.7435  0.2637
  574MOL0     C77402   8.008   5.189   5.069  0.8151 -0.4423 -0.8782
  574MOL0     O77403   7.648   5.312   5.227 -0.0688 -0.2141 -1.2650
  574MOL0     C77404   7.759   5.065   5.470  0.4988  1.0687  1.0042
  574MOL0     C77405   7.714   5.014   5.589 -0.2620 -0.4297 -1.0569
  574MOL0     N77406   7.135   4.832   6.052  0.0003 -0.8859 -0.1088
  574MOL0     N77407   7.064   4.742   6.120 -0.5674  0.2700  0.4717
  574MOL0     C77408   6.149   4.537   6.839 -0.6125 -0.2595 -0.4163
  574MOL0     C77409   6.132   4.439   6.935  0.2491 -0.4275 -1.0820
  574MOL0     C77410   5.967   4.111   7.195  0.2119 -0.0022  1.1858
  574MOL0     C77411   5.899   4.014   7.114 -0.3123  1.0456 -0.0976
  574MOL0     C77412   5.882   3.878   7.160 -0.4735  0.5094  0.3507
  574MOL0     C77413   5.907   3.849   7.297 -0.3741  0.1154 -0.1570
  574MOL0     O77414   5.880   3.733   7.352  0.5389  0.6731  0.9488
  574MOL0     C77415   5.959   3.621   7.311 -0.5900  0.3498  0.8393
  574MOL0     C77416   5.944   3.505   7.400  0.0098  1.4232  0.4463
  574MOL0     C77417   5.805   3.437   7.394 -0.0309  0.6095  0.2168
  574MOL0     C77418   5.823   3.285   7.418 -0.8504 -0.3010 -0.0916
  574MOL0     C77419   5.841   3.216   7.284 -0.0415 -0.2050 -0.1402
  574MOL0     C77420   5.864   3.161   7.173 -0.3316 -0.1275 -0.3673
  574MOL0     C77421   5.949   3.957   7.376  0.3149 -0.4414 -0.1077
  574MOL0     C77422   5.990   4.087   7.324 -0.7266  0.1358 -0.3432
  574MOL0     H77423   5.863   4.299   6.782 -2.3878  1.4445  1.7870
  574MOL0     H77424   5.914   4.451   6.618 -1.7905 -1.1960  1.1116
  574MOL0     H77425   6.273   4.781   6.645  2.1370  0.2886 -0.6225
  574MOL0     H77426   6.322   4.611   6.628 -2.2742 -1.5699  1.5414
  574MOL0     H77427   6.160   4.689   6.387 -0.7690  2.0454  0.8409
  574MOL0     H77428   6.276   4.815   6.430  3.0891 -0.2578 -1.8208
  574MOL0     H77429   6.344   4.518   6.434  0.0001  0.7640 -0.9563
  574MOL0     H77430   6.324   4.608   6.280 -1.8949  2.5649  1.2168
  574MOL0     H77431   6.509   4.772   6.365 -0.4895  0.3114  1.1169
  574MOL0     H77432   6.542   4.650   6.483 -0.6122 -1.9347 -0.1128
  574MOL0     H77433   6.565   4.476   6.295 -0.5294  0.0928 -1.7271
  574MOL0     H77434   6.563   4.597   6.183 -1.5347 -0.3524  0.3779
  574MOL0     H77435   6.755   4.560   6.420  2.4475 -1.2379 -0.4836
  574MOL0     H77436   6.800   4.554   6.245 -0.0757  1.3978  0.3499
  574MOL0     H77437   6.781   4.770   6.220  0.2279  0.4685 -0.0121
  574MOL0     H77438   6.773   4.812   6.393 -1.5070 -2.2907  0.9225
  574MOL0     H77439   6.980   4.619   6.343  1.6563  0.1163  1.4302
  574MOL0     H77440   6.998   4.758   6.446  0.1728 -1.5325  0.6530
  574MOL0     H77441   7.144   4.959   6.348  0.2696 -0.9935  1.9129
  574MOL0     H77442   7.216   5.101   6.007  1.7039 -1.8137 -0.4877
  574MOL0     H77443   7.207   5.150   6.174 -2.2521 -1.0591  2.1329
  574MOL0     H77444   7.411   5.000   6.215  1.6023  0.2975  0.0435
  574MOL0     H77445   7.436   5.160   6.161  0.6182 -1.0621  2.8806
  574MOL0     H77446   7.415   4.903   5.984  1.4350 -1.4332  2.1041
  574MOL0     H77447   7.572   4.975   6.046 -2.1067 -1.0999  2.2634
  574MOL0     H77448   7.495   5.173   5.887  0.2799  0.0465 -1.2344
  574MOL0     H77449   7.384   5.055   5.812  0.0915  0.8867 -0.3698
  574MOL0     H77450   7.529   5.273   5.706 -2.0487 -2.3406  0.9301
  574MOL0     H77451   7.556   5.449   5.574  2.7176  2.8675 -0.7173
  574MOL0     H77452   7.667   5.473   5.444  0.8766 -0.4314  1.5427
  574MOL0     H77453   7.508   5.407   5.405  0.0133 -1.1932 -0.1113
  574MOL0     H77454   7.674   5.168   5.008  0.2458 -3.3280  0.8868
  574MOL0     H77455   7.751   5.229   4.785  3.6101 -1.1446 -2.7932
  574MOL0     H77456   8.095   5.423   4.757  1.7661 -1.0909  0.5912
  574MOL0     H77457   8.204   5.280   4.731 -0.3475  0.1875  1.0072
  574MOL0     H77458   8.222   5.264   4.509  1.7777  3.6045 -4.9277
  574MOL0     H77459   8.071   5.339   4.484 -2.4629  1.6671  1.0552
  574MOL0     H77460   8.333   5.478   4.540 -0.4348  2.9118 -0.8193
  574MOL0     H77461   8.180   5.553   4.573 -0.6283 -0.3199 -1.8652
  574MOL0     H77462   8.303   5.467   4.318  1.4749  1.1507  0.6610
  574MOL0     H77463   8.130   5.469   4.312  0.8760 -1.4224 -0.1498
  574MOL0     H77464   8.330   5.689   4.375  0.5008 -1.9746 -0.1105
  574MOL0     H77465   8.157   5.720   4.402  2.9772  3.8470 -0.0292
  574MOL0     H77466   8.299   5.672   4.140 -1.0672 -1.5922 -0.2588
  574MOL0     H77467   8.127   5.637   4.160 -2.0852  0.7110  1.4579
  574MOL0     H77468   8.074   5.862   4.250 -0.2588 -1.4764  0.4708
  574MOL0     H77469   8.152   5.884   4.092  0.1681 -2.2715 -2.0911
  574MOL0     H77470   8.308   5.921   4.347  1.8268  3.0521  0.7583
  574MOL0     H77471   8.227   6.057   4.266  0.8002  0.6417  0.5848
  574MOL0     H77472   8.160   5.205   4.934 -0.6288  0.7267  1.3436
  574MOL0     H77473   8.072   5.173   5.155  4.9309  0.2674 -3.5280
  574MOL0     H77474   7.836   5.011   5.415  0.7668  1.7454  0.7087
  574MOL0     H77475   7.747   4.916   5.623 -0.1120  0.6106  2.1975
  574MOL0     H77476   6.240   4.597   6.846  0.4730 -1.6927 -1.5360
  574MOL0     H77477   6.192   4.440   7.026 -1.5455 -0.3216  0.1521
  574MOL0     H77478   5.860   4.037   7.015 -2.2740  4.4318  1.2985
  574MOL0     H77479   5.825   3.810   7.097 -1.3556  1.9970 -0.5258
  574MOL0     H77480   5.940   3.588   7.208 -1.1214 -0.5648  1.2174
  574MOL0     H77481   6.063   3.654   7.313 -0.5406  0.8054 -2.5778
  574MOL0     H77482   5.976   3.535   7.500  0.0969  1.7245  0.3283
  574MOL0     H77483   6.010   3.425   7.367 -0.9161  1.0150 -0.4986
  574MOL0     H77484   5.753   3.462   7.301 -0.0959  0.2273  0.1476
  574MOL0     H77485   5.746   3.461   7.483  0.0431 -1.1720  0.7831
  574MOL0     H77486   5.725   3.253   7.456 -0.3070  0.7301  2.3358
  574MOL0     H77487   5.903   3.264   7.489 -2.6459  0.1779  2.2115
  574MOL0     H77488   5.880   3.104   7.084 -0.3486  0.7401 -0.9301
  574MOL0     H77489   5.967   3.946   7.482  1.3736  1.4843 -0.0323
  574MOL0     H77490   6.029   4.167   7.387 -2.0203  2.1830 -1.9856
  575MOL0     O77491   6.355   5.345   4.156  0.0279  0.1154  0.0868
  575MOL0     C77492   6.328   5.325   4.273 -0.3604  0.2150 -1.2171
  575MOL0     O77493   6.331   5.204   4.333  0.0325  0.0681 -0.1790
  575MOL0     C77494   6.360   5.094   4.255  0.2010 -0.8801  0.1898
  575MOL0     C77495   6.263   5.000   4.220  0.6987  0.4823  0.6516
  575MOL0     C77496   6.285   4.909   4.113  0.4582  0.1257 -0.5056
  575MOL0     C77497   6.409   4.907   4.059 -0.5424  0.1750 -0.2969
  575MOL0     O77498   6.442   4.803   3.976  0.5661 -0.5026 -0.2399
  575MOL0     C77499   6.538   4.703   4.020 -0.0526 -0.0682  1.4362
  575MOL0     C77500   6.548   4.584   3.919 -0.2086 -0.5318  0.0140
  575MOL0     C77501   6.615   4.461   3.986 -0.3920 -0.6616  0.6330
  575MOL0     C77502   6.649   4.376   3.870 -0.1112  0.0808  0.4015
  575MOL0     C77503   6.700   4.241   3.928  0.4898  0.0487 -0.0976
  575MOL0     C77504   6.816   4.237   4.025  0.1727  0.0185 -1.1380
  575MOL0     C77505   6.841   4.085   4.065  0.3400 -0.7571  0.5696
  575MOL0     C77506   6.744   4.041   4.172 -0.3578 -0.7317  0.0896
  575MOL0     N77507   6.772   3.901   4.204 -0.2436 -0.2764 -0.1101
  575MOL0     C77508   6.848   3.860   4.314 -0.2810  0.0771 -0.3100
  575MOL0     C77509   6.842   3.724   4.292 -0.5594  0.1582  0.1837
  575MOL0     C77510   6.912   3.616   4.362  0.5228  0.1319 -0.5665
  575MOL0     C77511   6.810   3.534   4.451 -0.0659  0.5666  0.2073
  575MOL0     C77512   6.855   3.542   4.597 -0.9994 -0.5905  0.7402
  575MOL0     C77513   6.753   3.483   4.687  0.2662  0.3065 -0.7870
  575MOL0     O77514   6.726   3.347   4.662 -0.1276  0.1942 -0.2887
  575MOL0     C77515   6.787   3.245   4.726  0.1292  0.8559 -0.1914
  575MOL0     C77516   6.742   3.116   4.692 -0.4454  0.3344 -0.6471
  575MOL0     C77517   6.803   2.995   4.736  0.3135 -0.8833 -0.0221
  575MOL0     C77518   6.753   2.860   4.695  0.2435  0.1718  0.4902
  575MOL0     C77519   6.909   3.009   4.831 -0.5027  0.5673  0.1438
  575MOL0     C77520   7.005   2.893   4.871  0.1898 -0.2282 -0.6125
  575MOL0     O77521   7.110   2.922   4.945 -0.1744 -0.0168 -0.5252
  575MOL0     C77522   7.236   2.868   4.909 -1.0940  0.1092  0.6263
  575MOL0     C77523   7.280   2.841   4.776  0.1946 -0.7138 -0.5007
  575MOL0     C77524   7.395   2.762   4.755 -0.1820 -0.0711 -0.3470
  575MOL0     C77525   7.468   2.710   4.865 -0.0692  0.2108  0.0788
  575MOL0     O77526   7.588   2.633   4.859 -0.4417  0.3336 -0.4038
  575MOL0     C77527   7.587   2.557   4.744  0.1289 -0.3509  0.4175
  575MOL0     C77528   7.710   2.468   4.716 -0.3962 -0.0659  0.0799
  575MOL0     C77529   7.689   2.326   4.752  0.7332  1.1257 -0.0171
  575MOL0     C77530   7.676   2.314   4.896 -0.0572  0.4291 -1.0678
  575MOL0     C77531   7.665   2.164   4.934  0.3640 -0.7060 -0.6146
  575MOL0     C77532   7.680   2.147   5.089  0.4233  0.0012  0.1990
  575MOL0     C77533   7.829   2.160   5.129  0.1781 -0.3190 -0.6576
  575MOL0     C77534   7.853   2.164   5.295 -0.2438  1.3362  0.9043
  575MOL0    Cl77535   7.740   2.034   5.375  0.1816  0.1369  0.2284
  575MOL0     C77536   7.434   2.750   4.993  0.5695  0.3145  0.2229
  575MOL0     C77537   7.319   2.825   5.015  0.9684 -0.1878  0.5887
  575MOL0     O77538   6.995   2.785   4.812 -0.5181  0.2718  0.2387
  575MOL0     C77539   6.952   3.136   4.871  0.5174 -0.7443  0.1839
  575MOL0     C77540   6.891   3.252   4.820 -1.2518 -0.0271 -0.3757
  575MOL0     N77541   6.748   3.688   4.196 -0.0131  0.2521 -0.5606
  575MOL0     N77542   6.709   3.793   4.133  0.9418  0.3289 -0.1022
  575MOL0     C77543   6.513   4.989   4.106 -0.5061  0.5110 -0.0746
  575MOL0     C77544   6.488   5.092   4.201  0.3288  1.0442 -0.5568
  575MOL0     C77545   6.303   5.443   4.360  0.2475  1.1032  0.1218
  575MOL0     C77546   6.299   5.574   4.311  0.7324  0.9141 -0.3007
  575MOL0     C77547   6.250   5.681   4.393  0.2173 -0.4009 -0.2267
  575MOL0     C77548   6.234   5.656   4.530 -0.1619  0.5384 -0.2979
  575MOL0     O77549   6.192   5.754   4.623  0.3294  0.1315  0.3080
  575MOL0     C77550   6.186   5.884   4.572 -0.0737  0.4609  0.6664
  575MOL0     C77551   6.165   5.982   4.690 -0.2563 -0.7066  0.3672
  575MOL0     C77552   6.278   6.056   4.754  0.4595 -0.1989  0.2191
  575MOL0     C77553   6.378   5.959   4.808  0.5462 -0.3020 -0.0032
  575MOL0     C77554   6.477   6.044   4.872 -0.0019 -0.8423  0.2597
  575MOL0     C77555   6.550   6.103   4.945 -0.1204  0.6627  0.0731
  575MOL0     C77556   6.224   5.520   4.566  0.0466  0.3681  0.7171
  575MOL0     C77557   6.266   5.417   4.489  0.4144  0.2874  0.6781
  575MOL0     H77558   6.163   5.014   4.260  0.3015  0.5345 -0.3429
  575MOL0     H77559   6.219   4.826   4.094  3.0816 -1.7668 -1.9824
  575MOL0     H77560   6.642   4.735   4.034  0.5678 -2.8721  4.2950
  575MOL0     H77561   6.515   4.662   4.119  1.3696  2.5839  3.0031
  575MOL0     H77562   6.448   4.557   3.882 -0.7925  0.9703  0.4041
  575MOL0     H77563   6.610   4.617   3.836  0.4752 -0.3212  0.6055
  575MOL0     H77564   6.710   4.494   4.032 -0.8199  1.7181 -0.0407
  575MOL0     H77565   6.548   4.407   4.053  0.6973 -2.3003  0.4495
  575MOL0     H77566   6.563   4.365   3.803 -0.2652  1.0260  0.4247
  575MOL0     H77567   6.731   4.420   3.811  0.4324 -0.1603  0.9592
  575MOL0     H77568   6.609   4.206   3.978 -1.4303  3.3227 -0.9840
  575MOL0     H77569   6.715   4.171   3.845  0.6207  2.1680 -1.9647
  575MOL0     H77570   6.908   4.269   3.974  1.3419 -0.8395  0.3155
  575MOL0     H77571   6.802   4.304   4.111 -0.5602 -1.2610 -0.2121
  575MOL0     H77572   6.835   4.022   3.976 -3.3485 -0.2361  0.2928
  575MOL0     H77573   6.946   4.073   4.096  1.0457 -2.7501 -2.2354
  575MOL0     H77574   6.650   4.047   4.117  1.0844 -1.0835 -2.5790
  575MOL0     H77575   6.751   4.095   4.267  3.3599 -1.0039  0.1413
  575MOL0     H77576   6.904   3.917   4.387 -0.9751 -0.4171  0.6332
  575MOL0     H77577   6.955   3.539   4.296 -1.4082 -0.5981 -1.0367
  575MOL0     H77578   6.982   3.671   4.425 -1.8788  1.8955  0.7106
  575MOL0     H77579   6.810   3.431   4.413  2.0095  0.5217  0.2280
  575MOL0     H77580   6.714   3.583   4.433  0.2520  0.7262 -1.2007
  575MOL0     H77581   6.861   3.645   4.634 -0.2711  0.0562 -1.0832
  575MOL0     H77582   6.952   3.493   4.605 -2.1079 -2.8682  0.8216
  575MOL0     H77583   6.657   3.533   4.668 -0.2700  0.5911  2.1776
  575MOL0     H77584   6.760   3.496   4.796 -1.2387  0.5017 -0.6846
  575MOL0     H77585   6.667   3.114   4.614 -1.2934 -1.0281  0.1553
  575MOL0     H77586   6.824   2.801   4.636  0.4231 -0.9417  1.7732
  575MOL0     H77587   6.736   2.797   4.782 -1.6413 -0.6409 -0.4014
  575MOL0     H77588   6.664   2.870   4.632 -0.8703 -1.9655  1.6269
  575MOL0     H77589   7.215   2.876   4.697 -1.1958  0.6415  1.1704
  575MOL0     H77590   7.420   2.743   4.650 -1.9211  0.6471 -0.9197
  575MOL0     H77591   7.492   2.505   4.732  0.2031 -0.6857  1.2608
  575MOL0     H77592   7.583   2.623   4.656  0.5742 -2.6565 -1.4489
  575MOL0     H77593   7.734   2.465   4.610  1.0565  1.0149  0.3464
  575MOL0     H77594   7.801   2.505   4.764 -0.0841 -0.1543 -0.4378
  575MOL0     H77595   7.776   2.268   4.721  0.9980  0.2193  2.2229
  575MOL0     H77596   7.603   2.294   4.693  2.5401  1.0303 -2.7695
  575MOL0     H77597   7.763   2.361   4.943  1.5044 -2.0243 -1.3124
  575MOL0     H77598   7.589   2.367   4.936 -0.5733  0.5721 -2.3174
  575MOL0     H77599   7.733   2.100   4.877  0.7466  0.0076 -0.9722
  575MOL0     H77600   7.568   2.128   4.900 -0.1696  1.0635 -1.0509
  575MOL0     H77601   7.618   2.220   5.141  0.4475 -0.0012  0.2312
  575MOL0     H77602   7.635   2.050   5.114 -1.8816  0.6884 -1.0179
  575MOL0     H77603   7.882   2.246   5.085 -4.8236  3.6320  0.1535
  575MOL0     H77604   7.885   2.071   5.098  0.4478 -0.8328  1.1514
  575MOL0     H77605   7.824   2.261   5.335  0.8238  1.1952  2.1020
  575MOL0     H77606   7.958   2.147   5.321  0.2942 -0.1101 -1.8290
  575MOL0     H77607   7.503   2.736   5.075  0.6848 -0.8888 -0.0583
  575MOL0     H77608   7.295   2.855   5.117 -0.5388  0.4527  0.0846
  575MOL0     H77609   7.022   3.160   4.950  0.7377  1.1089 -0.5392
  575MOL0     H77610   6.906   3.353   4.859 -0.8522 -0.2305  0.0129
  575MOL0     H77611   6.613   4.975   4.067  0.3541  1.6340  1.6098
  575MOL0     H77612   6.560   5.167   4.232  1.0989  0.1549 -0.1598
  575MOL0     H77613   6.305   5.588   4.204 -1.0033 -3.2669 -1.1472
  575MOL0     H77614   6.244   5.772   4.334  0.8484 -1.0322 -1.2972
  575MOL0     H77615   6.277   5.906   4.517 -1.0623 -0.0357 -1.2693
  575MOL0     H77616   6.103   5.907   4.504  0.5818 -0.1680 -0.3589
  575MOL0     H77617   6.096   5.945   4.766 -2.6869 -2.1127 -2.3251
  575MOL0     H77618   6.113   6.061   4.634  0.3081 -1.7029 -1.6525
  575MOL0     H77619   6.233   6.108   4.839 -0.0384  1.9617 -1.2773
  575MOL0     H77620   6.325   6.125   4.684 -3.1140 -0.4349 -2.7232
  575MOL0     H77621   6.431   5.897   4.735  1.3514 -0.9687  1.1154
  575MOL0     H77622   6.327   5.890   4.875 -2.6128  1.7478 -0.0909
  575MOL0     H77623   6.613   6.153   5.016 -1.9474 -0.2508  2.4675
  575MOL0     H77624   6.179   5.492   4.661  0.1448  1.7829  1.2041
  575MOL0     H77625   6.271   5.316   4.528 -1.2102 -0.3422 -0.6186
  576MOL0     O77626   5.316   8.336   7.432  0.4232 -0.1189 -0.0465
  576MOL0     C77627   5.341   8.453   7.453 -0.2844  0.2005  0.3016
  576MOL0     O77628   5.280   8.541   7.547  0.5326  0.1549 -0.1007
  576MOL0     C77629   5.192   8.481   7.636  0.3773  0.2199  0.8361
  576MOL0     C77630   5.207   8.504   7.768  0.1209 -0.8895 -0.0027
  576MOL0     C77631   5.118   8.449   7.859 -0.8155 -0.5773  0.1534
  576MOL0     C77632   5.016   8.360   7.827  0.1492 -0.4837 -0.1426
  576MOL0     O77633   4.950   8.307   7.931  0.4280 -0.8528  0.5574
  576MOL0     C77634   4.912   8.167   7.932  0.6434 -0.1801  0.2725
  576MOL0     C77635   4.876   8.118   8.079 -0.2085 -1.2215  0.6395
  576MOL0     C77636   4.985   8.146   8.178 -0.3527  0.2939  0.3088
  576MOL0     C77637   5.120   8.081   8.120 -0.3268 -0.2136  0.1732
  576MOL0     C77638   5.236   8.062   8.215 -0.0155  0.0887 -0.4575
  576MOL0     C77639   5.292   8.204   8.244  0.1219 -0.2971  0.8474
  576MOL0     C77640   5.398   8.180   8.350  0.2758  0.0623  0.8647
  576MOL0     C77641   5.506   8.287   8.372  0.0675  1.5098 -0.0382
  576MOL0     N77642   5.596   8.233   8.479 -1.0509  0.1682 -0.1413
  576MOL0     C77643   5.562   8.220   8.618  0.5554 -0.2535 -0.4660
  576MOL0     C77644   5.663   8.161   8.672  0.2965 -0.2695  0.1849
  576MOL0     C77645   5.681   8.114   8.812  0.4637  0.5558 -0.3705
  576MOL0     C77646   5.550   8.052   8.873  0.2701 -0.5696  0.2009
  576MOL0     C77647   5.481   7.948   8.786 -0.6346 -0.2590  0.7492
  576MOL0     C77648   5.355   7.882   8.847 -0.1255 -0.1104  0.0301
  576MOL0     O77649   5.302   7.945   8.961  0.0634 -0.4782 -0.4223
  576MOL0     C77650   5.199   7.873   9.016  0.5365 -0.8249  0.2647
  576MOL0     C77651   5.078   7.935   9.020 -0.7551  0.2347 -1.0322
  576MOL0     C77652   4.957   7.880   9.071  0.3674  1.0023 -0.7158
  576MOL0     C77653   4.830   7.956   9.059 -0.1093  0.5237  0.3495
  576MOL0     C77654   4.965   7.748   9.125 -1.0887  0.4570  0.8522
  576MOL0     C77655   4.861   7.671   9.188  0.5266  0.0375 -0.3007
  576MOL0     O77656   4.895   7.580   9.285  0.4395  0.8576  0.6521
  576MOL0     C77657   4.849   7.449   9.279  0.2813  0.1219  0.0796
  576MOL0     C77658   4.789   7.384   9.170 -1.0874 -0.0935 -0.9359
  576MOL0     C77659   4.762   7.249   9.177  0.1757 -0.3535 -0.0223
  576MOL0     C77660   4.778   7.185   9.300 -0.9119  0.6061  0.2273
  576MOL0     O77661   4.758   7.045   9.305  0.1861 -0.4721  0.1843
  576MOL0     C77662   4.866   6.965   9.256  0.4353 -0.0222  0.6596
  576MOL0     C77663   4.980   6.956   9.355  0.1187 -0.3547  0.0784
  576MOL0     C77664   5.106   6.892   9.292  0.3220 -0.4211  0.2328
  576MOL0     C77665   5.217   6.900   9.387 -0.5859 -0.2963 -1.3410
  576MOL0     C77666   5.299   7.028   9.379 -0.4332  0.4662 -0.0254
  576MOL0     C77667   5.402   7.032   9.264  0.0999  0.5141  0.2087
  576MOL0     C77668   5.432   7.181   9.212  0.4066  0.2648 -1.0471
  576MOL0     C77669   5.330   7.206   9.105  1.0824  0.5816 -0.6205
  576MOL0    Cl77670   5.349   7.376   9.044  0.2040 -0.4189  0.0005
  576MOL0     C77671   4.828   7.249   9.407 -0.5720 -0.3801  0.2538
  576MOL0     C77672   4.860   7.384   9.400  0.4073  0.8382 -0.0419
  576MOL0     O77673   4.751   7.684   9.134 -0.6984  0.1844 -0.3805
  576MOL0     C77674   5.099   7.690   9.132  0.0603  0.3368  0.1990
  576MOL0     C77675   5.211   7.745   9.077 -0.2686  0.4316 -0.7796
  576MOL0     N77676   5.752   8.130   8.577  0.7702  0.1978 -0.5439
  576MOL0     N77677   5.719   8.179   8.462 -0.8829  0.1155  0.8126
  576MOL0     C77678   5.000   8.328   7.694 -0.2124 -0.4204  0.0901
  576MOL0     C77679   5.081   8.396   7.597 -0.2251 -0.2267  0.1334
  576MOL0     C77680   5.446   8.508   7.370 -1.7169 -0.6276 -0.0365
  576MOL0     C77681   5.499   8.639   7.382 -0.3163 -0.1023  0.5750
  576MOL0     C77682   5.611   8.680   7.311 -0.6061 -0.5035  0.1054
  576MOL0     C77683   5.672   8.606   7.215 -0.6663  0.1782 -0.1216
  576MOL0     O77684   5.789   8.638   7.138  0.6302  0.3999 -0.0866
  576MOL0     C77685   5.861   8.756   7.173  0.6818  0.5131 -1.2964
  576MOL0     C77686   5.892   8.833   7.040  0.1747  0.1089  0.5271
  576MOL0     C77687   5.973   8.953   7.094 -0.0333 -0.2870  0.4343
  576MOL0     C77688   6.042   9.034   6.975  0.6582 -0.4888  0.1819
  576MOL0     C77689   5.953   9.094   6.872  0.1184  0.5665 -0.3102
  576MOL0     C77690   5.890   9.132   6.778 -0.4929 -0.5284  0.1157
  576MOL0     C77691   5.606   8.491   7.183  0.9617 -0.4816  0.1389
  576MOL0     C77692   5.505   8.431   7.262  0.4750 -1.2255  0.3137
  576MOL0     H77693   5.280   8.576   7.803  0.5622  0.0508 -2.6155
  576MOL0     H77694   5.129   8.477   7.963 -2.4979 -0.8401  0.4267
  576MOL0     H77695   4.821   8.147   7.873  0.8910 -0.7305  0.0701
  576MOL0     H77696   4.988   8.095   7.902 -0.3752 -0.7391 -1.1296
  576MOL0     H77697   4.784   8.171   8.108  0.0226 -0.7205  0.4677
  576MOL0     H77698   4.859   8.010   8.079 -0.0943 -1.2419  0.0356
  576MOL0     H77699   5.001   8.252   8.202 -2.8051  1.2197 -1.6625
  576MOL0     H77700   4.954   8.091   8.268  0.9183 -1.6541 -0.4003
  576MOL0     H77701   5.102   7.986   8.068  1.0982  1.0339 -2.8204
  576MOL0     H77702   5.146   8.154   8.043  0.1450 -1.4794 -0.9025
  576MOL0     H77703   5.200   8.013   8.306 -0.9073 -2.9540 -2.2983
  576MOL0     H77704   5.317   8.006   8.169  3.6807  1.7941  3.3219
  576MOL0     H77705   5.337   8.229   8.148  1.9445 -4.4321  0.3884
  576MOL0     H77706   5.215   8.272   8.281 -0.4710  0.3926 -1.4917
  576MOL0     H77707   5.337   8.161   8.439 -2.2149 -4.3712 -1.4512
  576MOL0     H77708   5.451   8.085   8.338 -0.0127  0.1614 -1.8659
  576MOL0     H77709   5.457   8.379   8.405 -4.3245 -0.6628  0.1609
  576MOL0     H77710   5.556   8.305   8.276  0.5902 -1.4302 -0.4188
  576MOL0     H77711   5.473   8.265   8.662  0.9615  2.7787 -2.4100
  576MOL0     H77712   5.748   8.028   8.806 -1.3111 -1.3065  3.3846
  576MOL0     H77713   5.718   8.200   8.869  0.9840 -0.2178  0.4837
  576MOL0     H77714   5.473   8.129   8.880 -0.7017 -1.5061  0.0547
  576MOL0     H77715   5.553   8.007   8.973 -1.3187  0.9454  0.9936
  576MOL0     H77716   5.562   7.875   8.774 -1.2498 -0.4923 -3.0800
  576MOL0     H77717   5.461   7.990   8.687  0.6747 -0.7424  0.2464
  576MOL0     H77718   5.381   7.784   8.888 -1.1813 -0.9187 -1.1635
  576MOL0     H77719   5.286   7.850   8.768  0.4456  2.6235 -1.7466
  576MOL0     H77720   5.082   8.038   8.985  2.9106  0.8064  0.6485
  576MOL0     H77721   4.778   7.945   9.155 -2.6288 -0.5138 -1.0220
  576MOL0     H77722   4.852   8.060   9.035  0.7687  0.0979 -0.7632
  576MOL0     H77723   4.759   7.912   8.989 -0.4478 -1.1067  1.6371
  576MOL0     H77724   4.781   7.440   9.077 -2.3269  3.1778  0.9609
  576MOL0     H77725   4.719   7.206   9.088 -1.8969 -0.9505  1.1976
  576MOL0     H77726   4.826   6.866   9.230 -3.4773  1.5992 -0.1824
  576MOL0     H77727   4.909   7.001   9.162 -3.8844 -1.9963 -2.4521
  576MOL0     H77728   5.004   7.053   9.400  2.5909 -1.5842  1.6434
  576MOL0     H77729   4.941   6.886   9.429 -3.0300 -0.5027 -1.5634
  576MOL0     H77730   5.125   6.925   9.189 -4.1614  2.2267 -0.0159
  576MOL0     H77731   5.071   6.790   9.273 -2.0623  0.2534  0.6082
  576MOL0     H77732   5.191   6.887   9.493  1.5130 -2.9515 -1.0454
  576MOL0     H77733   5.276   6.814   9.355 -1.1147 -1.0383 -0.3594
  576MOL0     H77734   5.367   7.035   9.464  0.7367 -1.4144 -0.7297
  576MOL0     H77735   5.238   7.118   9.381  1.5986  1.9411 -0.7188
  576MOL0     H77736   5.493   6.982   9.299  0.3601  1.6041  1.1487
  576MOL0     H77737   5.359   6.965   9.189  3.7799 -0.2911 -1.4148
  576MOL0     H77738   5.532   7.178   9.168  1.7304 -1.8711  1.7570
  576MOL0     H77739   5.427   7.253   9.295 -2.3379 -0.2004 -0.7127
  576MOL0     H77740   5.231   7.212   9.153  1.5899  0.6241  0.4481
  576MOL0     H77741   5.340   7.149   9.013  0.5117  3.8309 -2.8940
  576MOL0     H77742   4.836   7.194   9.500  1.6222 -1.1638 -0.3336
  576MOL0     H77743   4.901   7.432   9.488 -1.1085 -0.6228  1.5588
  576MOL0     H77744   5.111   7.599   9.189 -2.2358  0.8174  1.5614
  576MOL0     H77745   5.310   7.703   9.091 -0.1987  1.1300  1.1076
  576MOL0     H77746   4.926   8.255   7.664  0.2659  1.3933 -8.0144
  576MOL0     H77747   5.065   8.371   7.492 -1.3194  2.1293 -0.3085
  576MOL0     H77748   5.458   8.704   7.458  0.5628  2.5863 -1.1167
  576MOL0     H77749   5.648   8.777   7.340 -0.1827  0.0076 -1.9353
  576MOL0     H77750   5.805   8.829   7.231 -0.8610  2.9853 -5.4441
  576MOL0     H77751   5.950   8.722   7.228  0.2631 -0.9183 -1.4438
  576MOL0     H77752   5.803   8.875   6.993  2.4962  3.2123 -1.4646
  576MOL0     H77753   5.954   8.770   6.975  0.8069  3.4382 -2.3829
  576MOL0     H77754   6.047   8.919   7.167 -1.1819  2.7745  3.2288
  576MOL0     H77755   5.920   9.030   7.149  0.7475  1.0273 -0.5905
  576MOL0     H77756   6.129   8.987   6.927  0.0411  2.0427 -3.9780
  576MOL0     H77757   6.086   9.123   7.021 -0.9798 -0.1833  1.2409
  576MOL0     H77758   5.846   9.174   6.690  0.0426 -2.7208 -1.2677
  576MOL0     H77759   5.636   8.442   7.091 -5.1023 -1.1194 -1.9664
  576MOL0     H77760   5.465   8.339   7.221 -1.6715 -0.1334 -0.1441
  577MOL0     O77761   8.588   2.372   6.794  0.7802  0.6200 -0.4177
  577MOL0     C77762   8.524   2.399   6.900 -0.7258 -0.8543  0.1343
  577MOL0     O77763   8.527   2.322   7.006 -0.3098 -0.8978 -0.1172
  577MOL0     C77764   8.607   2.215   7.006 -0.3571 -0.3283  0.2472
  577MOL0     C77765   8.731   2.225   7.080 -0.4462 -0.0020  0.9429
  577MOL0     C77766   8.817   2.115   7.081 -0.0009  0.1242  0.3486
  577MOL0     C77767   8.789   1.993   7.021  0.9827  0.3239 -0.9619
  577MOL0     O77768   8.869   1.880   7.040  0.4962 -0.0324 -0.0814
  577MOL0     C77769   8.887   1.790   6.932  0.6826  0.5076 -0.2811
  577MOL0     C77770   8.955   1.851   6.809 -0.5672  0.8110  0.9423
  577MOL0     C77771   8.945   1.755   6.694  0.0943 -1.0491  0.8531
  577MOL0     C77772   8.814   1.745   6.615  0.3210 -0.2407 -0.3038
  577MOL0     C77773   8.756   1.886   6.590 -0.2015  0.7367 -0.1394
  577MOL0     C77774   8.625   1.868   6.508 -0.7536  0.8295  0.6560
  577MOL0     C77775   8.582   2.000   6.442 -0.4234 -0.6379 -0.6346
  577MOL0     C77776   8.493   2.080   6.545  0.2370  0.1805 -0.3654
  577MOL0     N77777   8.423   2.191   6.493  0.0941  0.0421 -0.1313
  577MOL0     C77778   8.453   2.324   6.491  0.7870 -0.4275  0.3606
  577MOL0     C77779   8.355   2.384   6.402 -0.9389 -0.1028  0.4101
  577MOL0     C77780   8.343   2.533   6.352 -0.3074  0.4082 -0.2305
  577MOL0     C77781   8.266   2.618   6.447 -0.3176 -0.0108 -1.0163
  577MOL0     C77782   8.259   2.763   6.427  0.6164  0.0436  0.2215
  577MOL0     C77783   8.190   2.828   6.552 -0.4744  0.1509  0.1099
  577MOL0     O77784   8.214   2.965   6.563  0.8108 -0.5203 -0.6574
  577MOL0     C77785   8.143   3.025   6.464 -0.0762 -0.5899  0.2221
  577MOL0     C77786   8.224   3.084   6.359  0.1065 -0.3617 -0.3169
  577MOL0     C77787   8.173   3.119   6.240  0.2259 -0.5070  0.8202
  577MOL0     C77788   8.266   3.190   6.142  0.9030  0.6064 -0.6825
  577MOL0     C77789   8.038   3.110   6.216  0.1625 -0.3809  0.2426
  577MOL0     C77790   7.972   3.141   6.078  0.5505 -0.3752 -0.3817
  577MOL0     O77791   7.827   3.131   6.076 -0.4250  0.1012  0.0921
  577MOL0     C77792   7.759   3.170   5.959 -0.1965  0.3446  0.0914
  577MOL0     C77793   7.759   3.302   5.916  0.0614  0.2436  0.2131
  577MOL0     C77794   7.706   3.332   5.793  0.1118  0.2305  0.4578
  577MOL0     C77795   7.647   3.232   5.711 -0.1590 -0.0264  0.9523
  577MOL0     O77796   7.587   3.262   5.588  0.2699  0.0633  0.0548
  577MOL0     C77797   7.488   3.364   5.603 -0.4413 -0.0738  1.1528
  577MOL0     C77798   7.465   3.421   5.465  0.6737 -0.1788 -0.7770
  577MOL0     C77799   7.344   3.529   5.471 -0.4822  0.1992 -0.3384
  577MOL0     C77800   7.208   3.469   5.514 -0.3889  0.1483 -0.2567
  577MOL0     C77801   7.096   3.571   5.471 -0.8761  0.0976 -0.6286
  577MOL0     C77802   6.960   3.530   5.504  0.6765  0.4225  0.8071
  577MOL0     C77803   6.859   3.632   5.443  0.1189  0.4396 -0.7551
  577MOL0     C77804   6.755   3.570   5.364  0.1363  0.6982  0.4620
  577MOL0    Cl77805   6.662   3.706   5.282  0.1542  0.5360 -0.0959
  577MOL0     C77806   7.647   3.099   5.758  0.2261  0.3252 -0.0404
  577MOL0     C77807   7.705   3.070   5.879  0.2869  0.1106 -0.4024
  577MOL0     O77808   8.034   3.168   5.980  0.0078  0.0882 -1.0515
  577MOL0     C77809   7.954   3.060   6.318 -0.4502 -0.1464 -0.2490
  577MOL0     C77810   8.004   3.015   6.441 -0.1701 -1.3491 -0.6817
  577MOL0     N77811   8.266   2.285   6.363  0.7422  0.3999 -0.1515
  577MOL0     N77812   8.312   2.176   6.417 -0.3258  0.3466  0.9459
  577MOL0     C77813   8.672   1.989   6.941  0.0748  0.6473 -0.1903
  577MOL0     C77814   8.586   2.099   6.928 -0.0035  0.0934  1.0991
  577MOL0     C77815   8.464   2.531   6.913  0.9026  0.7071  0.1269
  577MOL0     C77816   8.481   2.634   6.819 -0.2558  0.3974  0.0495
  577MOL0     C77817   8.415   2.756   6.844  0.4530 -0.4836  0.3034
  577MOL0     C77818   8.331   2.776   6.958  0.3636 -0.4838 -0.4906
  577MOL0     O77819   8.291   2.903   7.004 -0.4557  0.3709  0.2008
  577MOL0     C77820   8.351   3.020   6.949 -0.8928  0.4238 -0.6026
  577MOL0     C77821   8.318   3.150   7.038 -1.1783  0.2381 -0.5295
  577MOL0     C77822   8.444   3.250   7.028  0.5017 -0.4220  0.7291
  577MOL0     C77823   8.431   3.363   7.126 -0.1375 -1.0467 -0.6371
  577MOL0     C77824   8.309   3.442   7.102  1.2440  0.1701  0.2955
  577MOL0     C77825   8.215   3.515   7.082 -0.1632 -0.5478 -0.0048
  577MOL0     C77826   8.319   2.672   7.051 -0.5818  0.1153 -0.3614
  577MOL0     C77827   8.385   2.554   7.032  0.0655 -0.2933 -0.4553
  577MOL0     H77828   8.766   2.311   7.136  1.2634  0.9440 -1.4257
  577MOL0     H77829   8.912   2.132   7.131  0.6102  0.4465 -0.8926
  577MOL0     H77830   8.956   1.717   6.974  3.4675  2.3600 -1.2730
  577MOL0     H77831   8.791   1.744   6.909  0.4188 -0.5932  2.6287
  577MOL0     H77832   8.912   1.950   6.793  3.2640  2.3782 -0.8927
  577MOL0     H77833   9.063   1.872   6.812 -0.2104 -0.0753 -2.3719
  577MOL0     H77834   9.032   1.794   6.640  1.1114  0.7727  3.6084
  577MOL0     H77835   8.974   1.655   6.729  1.6360 -1.0496 -0.3283
  577MOL0     H77836   8.842   1.703   6.519  1.8396 -0.4313  0.1950
  577MOL0     H77837   8.743   1.694   6.682 -1.7417  2.8773  0.1327
  577MOL0     H77838   8.734   1.941   6.682 -2.6471 -0.9236  0.3634
  577MOL0     H77839   8.828   1.949   6.537  0.1663 -0.4080 -1.0350
  577MOL0     H77840   8.643   1.795   6.429 -3.7631 -0.5207  1.0874
  577MOL0     H77841   8.541   1.833   6.569  0.1467  3.1832  3.4953
  577MOL0     H77842   8.674   2.052   6.411  0.8565 -2.9245 -0.9127
  577MOL0     H77843   8.526   1.983   6.349  0.6144  1.6494 -1.7621
  577MOL0     H77844   8.552   2.119   6.629 -1.2189  4.0573 -0.9345
  577MOL0     H77845   8.419   2.005   6.574  0.0243 -0.4240 -2.3108
  577MOL0     H77846   8.530   2.375   6.549 -0.8852  2.5675  0.1749
  577MOL0     H77847   8.442   2.577   6.338 -0.3971  0.0451 -2.3735
  577MOL0     H77848   8.295   2.550   6.256  1.5516 -0.7297 -1.4343
  577MOL0     H77849   8.319   2.601   6.541 -1.4972 -0.3462 -0.3962
  577MOL0     H77850   8.161   2.589   6.449 -0.4604  0.5092 -0.2916
  577MOL0     H77851   8.204   2.785   6.335 -0.6562 -3.4614 -0.0059
  577MOL0     H77852   8.360   2.803   6.423 -0.7233  3.7478 -0.7550
  577MOL0     H77853   8.225   2.777   6.642  1.6045  0.1973 -0.6275
  577MOL0     H77854   8.082   2.812   6.549 -0.2639 -1.5392  0.6027
  577MOL0     H77855   8.332   3.092   6.365  0.0473 -0.4392  3.4557
  577MOL0     H77856   8.371   3.199   6.172  1.9610 -1.3315 -3.3498
  577MOL0     H77857   8.254   3.122   6.057 -5.1868 -1.1183  1.0381
  577MOL0     H77858   8.238   3.292   6.112  0.5265  0.7195  0.0297
  577MOL0     H77859   7.795   3.380   5.983  1.4422 -1.1859  1.1974
  577MOL0     H77860   7.708   3.434   5.755 -0.1113  0.4560  1.0370
  577MOL0     H77861   7.404   3.315   5.653 -0.1891 -0.0899  1.5682
  577MOL0     H77862   7.512   3.447   5.670 -1.2079 -0.1507  1.5336
  577MOL0     H77863   7.561   3.457   5.426  0.1157  0.0167 -2.0275
  577MOL0     H77864   7.432   3.340   5.400  1.6152 -0.7661 -0.5395
  577MOL0     H77865   7.338   3.569   5.369  0.0978  0.6779 -0.1916
  577MOL0     H77866   7.376   3.605   5.543 -2.4126 -0.1717  0.9837
  577MOL0     H77867   7.192   3.375   5.460  1.3595  0.4057 -1.2970
  577MOL0     H77868   7.202   3.447   5.621 -1.9301 -0.9099 -0.5181
  577MOL0     H77869   7.117   3.600   5.368  3.1628  1.7950  0.4770
  577MOL0     H77870   7.121   3.663   5.525  1.3521 -1.8745  1.9960
  577MOL0     H77871   6.935   3.437   5.452 -1.0962  1.1125  0.3663
  577MOL0     H77872   6.938   3.518   5.610  0.5750  1.9342  0.9694
  577MOL0     H77873   6.911   3.712   5.390 -1.2627  0.5724 -2.0012
  577MOL0     H77874   6.816   3.684   5.530  0.9007 -1.4046  0.7861
  577MOL0     H77875   6.694   3.502   5.423 -1.3390 -0.2379 -1.9715
  577MOL0     H77876   6.803   3.515   5.283  1.4502  1.9776  0.3160
  577MOL0     H77877   7.600   3.020   5.700 -0.0977  0.1894  0.4073
  577MOL0     H77878   7.711   2.964   5.903  2.0151  0.4742  1.0159
  577MOL0     H77879   7.846   3.059   6.304 -0.2050 -0.6096 -2.4084
  577MOL0     H77880   7.934   2.960   6.503 -1.2562 -0.1074 -0.7608
  577MOL0     H77881   8.647   1.897   6.889  1.5918  0.5706 -0.8263
  577MOL0     H77882   8.494   2.076   6.875 -1.2511  4.0957  1.1686
  577MOL0     H77883   8.553   2.626   6.739 -0.0124  1.2598  0.1673
  577MOL0     H77884   8.430   2.839   6.775  0.8337 -0.1817  0.7428
  577MOL0     H77885   8.458   2.998   6.946 -0.7747  0.8669 -0.0363
  577MOL0     H77886   8.325   3.043   6.846  0.9099  0.5097 -1.0725
  577MOL0     H77887   8.297   3.123   7.142 -1.2412 -1.2892 -0.9157
  577MOL0     H77888   8.229   3.188   6.988 -1.8616 -1.8195 -1.0000
  577MOL0     H77889   8.443   3.299   6.930  2.7232  1.2377  1.4562
  577MOL0     H77890   8.539   3.199   7.048  0.4787 -0.2815  1.2145
  577MOL0     H77891   8.514   3.434   7.118 -1.8475  1.6014  2.6028
  577MOL0     H77892   8.430   3.316   7.225 -2.4924 -1.1611 -0.6456
  577MOL0     H77893   8.135   3.586   7.081 -0.8039 -1.2303  0.8816
  577MOL0     H77894   8.245   2.679   7.130  0.5614  1.0037  0.6559
  577MOL0     H77895   8.354   2.476   7.100 -0.7995  0.6514  0.2466
  578MOL0     O77896  10.513   2.900   3.574  0.6293  0.2602  0.1475
  578MOL0     C77897  10.394   2.885   3.536 -0.6726  0.0599  0.4038
  578MOL0     O77898  10.288   2.965   3.572 -1.0551 -0.1391 -1.0913
  578MOL0     C77899  10.312   3.065   3.677 -0.4250  0.1153  0.6711
  578MOL0     C77900  10.387   3.030   3.793  0.2790 -0.2550  0.7440
  578MOL0     C77901  10.399   3.138   3.890  0.1537  0.7462 -0.0724
  578MOL0     C77902  10.338   3.264   3.878  0.4598 -0.2141 -1.4197
  578MOL0     O77903  10.346   3.372   3.965  0.8432 -0.8732  1.0528
  578MOL0     C77904  10.422   3.367   4.081  0.3362  0.0458 -0.6605
  578MOL0     C77905  10.480   3.505   4.118 -0.1208  0.1226 -0.1288
  578MOL0     C77906  10.543   3.498   4.253 -1.0292 -1.0318 -0.9295
  578MOL0     C77907  10.652   3.394   4.283 -0.3476 -1.1820 -0.6550
  578MOL0     C77908  10.708   3.429   4.428  0.2781  0.2734 -0.2938
  578MOL0     C77909  10.828   3.516   4.409 -0.7130 -0.7011 -0.0209
  578MOL0     C77910  10.928   3.503   4.519 -0.1634 -0.0608 -1.2771
  578MOL0     C77911  11.072   3.572   4.509  0.3916  0.0595  0.4673
  578MOL0     N77912  11.047   3.717   4.499  0.3684  0.1084  0.3359
  578MOL0     C77913  11.014   3.813   4.593  0.3715  0.8196  0.6632
  578MOL0     C77914  11.044   3.933   4.543  0.0741 -0.2904  0.4583
  578MOL0     C77915  11.033   4.070   4.610  0.0406 -0.2571 -0.5864
  578MOL0     C77916  11.143   4.114   4.697  0.0153  0.2280  0.3061
  578MOL0     C77917  11.195   4.008   4.797  0.5112  0.3636 -0.0092
  578MOL0     C77918  11.313   4.070   4.877 -0.0861 -0.1307  0.2071
  578MOL0     O77919  11.419   4.063   4.785 -0.6519 -0.4607  0.1553
  578MOL0     C77920  11.545   4.066   4.827  0.3379 -0.1252 -0.2119
  578MOL0     C77921  11.633   4.059   4.716 -0.7612  1.1224  0.7739
  578MOL0     C77922  11.769   4.071   4.743  0.0919  0.0778  0.7495
  578MOL0     C77923  11.865   4.079   4.622  0.0681 -0.6884 -0.4377
  578MOL0     C77924  11.824   4.078   4.880 -0.5872  0.2879  0.4351
  578MOL0     C77925  11.964   4.091   4.913 -0.3934  1.3335 -0.8136
  578MOL0     O77926  11.996   4.127   5.046  0.5477 -0.1966  0.5533
  578MOL0     C77927  12.112   4.105   5.108  0.7907 -0.6555  0.6217
  578MOL0     C77928  12.111   4.044   5.225 -0.2290  1.0098  0.4278
  578MOL0     C77929  12.228   4.025   5.291  0.1712  0.0687  0.1034
  578MOL0     C77930  12.349   4.075   5.233  0.2812 -0.5988 -0.3527
  578MOL0     O77931  12.471   4.078   5.305  0.4394  0.0344  0.7998
  578MOL0     C77932  12.503   3.949   5.372 -0.9899  0.5422  0.7144
  578MOL0     C77933  12.638   3.913   5.338  0.6176 -0.5841 -0.6802
  578MOL0     C77934  12.660   3.911   5.191  0.0167  0.1330 -0.7271
  578MOL0     C77935  12.811   3.884   5.160 -1.0511  0.2089  0.2262
  578MOL0     C77936  12.818   3.807   5.030  0.2710  0.4965  0.8331
  578MOL0     C77937  12.969   3.780   5.003 -0.5886  0.0751 -1.7735
  578MOL0     C77938  13.005   3.700   4.880  0.3648  0.0163  0.1909
  578MOL0     C77939  13.151   3.672   4.852 -1.3035  1.2481  0.2135
  578MOL0    Cl77940  13.145   3.568   4.698 -0.1893 -0.1797 -0.0712
  578MOL0     C77941  12.345   4.153   5.115 -0.3540  0.1193 -1.0774
  578MOL0     C77942  12.224   4.166   5.051 -0.7214  0.1953 -1.1163
  578MOL0     O77943  12.045   4.073   4.836  0.0820 -0.0488  0.1852
  578MOL0     C77944  11.726   4.085   4.975 -0.0956  0.3069 -0.2758
  578MOL0     C77945  11.592   4.091   4.954  0.2304  0.5301 -0.1620
  578MOL0     N77946  11.089   3.915   4.416  0.1632  0.0895 -0.0192
  578MOL0     N77947  11.094   3.789   4.390 -0.5245  0.4889  0.3957
  578MOL0     C77948  10.241   3.275   3.775 -0.5765 -0.1260  0.3418
  578MOL0     C77949  10.233   3.175   3.671 -0.7730  0.2994 -0.1148
  578MOL0     C77950  10.379   2.774   3.441  1.0457  0.2023  0.4638
  578MOL0     C77951  10.484   2.713   3.372  0.5621 -0.4617  0.2921
  578MOL0     C77952  10.469   2.601   3.290  0.1504 -0.4132 -0.0506
  578MOL0     C77953  10.336   2.554   3.267  0.5419  0.5038 -0.0758
  578MOL0     O77954  10.309   2.430   3.216 -0.6484 -0.3198  0.5836
  578MOL0     C77955  10.420   2.343   3.174  0.3061 -0.7146 -0.3913
  578MOL0     C77956  10.393   2.191   3.153 -0.1070  0.3156  0.0095
  578MOL0     C77957  10.353   2.102   3.278 -0.1768 -0.3305  0.0057
  578MOL0     C77958  10.332   1.954   3.254  0.7504 -0.0610  0.0313
  578MOL0     C77959  10.223   1.929   3.154 -0.2105  0.4525  0.0878
  578MOL0     C77960  10.124   1.918   3.087 -0.1159  0.3246  0.4846
  578MOL0     C77961  10.233   2.622   3.321 -0.4673  0.5827 -1.2396
  578MOL0     C77962  10.245   2.727   3.406 -1.2130  0.0010  0.4473
  578MOL0     H77963  10.433   2.934   3.812 -0.8747 -0.7744  1.0030
  578MOL0     H77964  10.451   3.109   3.981  0.3200 -1.0572 -0.7061
  578MOL0     H77965  10.351   3.325   4.153  1.6913 -1.0711  0.0481
  578MOL0     H77966  10.505   3.299   4.060  0.5336 -0.0922  0.5042
  578MOL0     H77967  10.566   3.524   4.054 -0.1147  0.9177  0.0967
  578MOL0     H77968  10.412   3.591   4.126  0.9142  0.8490  1.4561
  578MOL0     H77969  10.593   3.592   4.279 -3.0926 -0.0990 -0.1246
  578MOL0     H77970  10.460   3.481   4.322  0.5814 -1.2487  1.0688
  578MOL0     H77971  10.586   3.308   4.275  0.3948 -1.7345 -0.9858
  578MOL0     H77972  10.728   3.392   4.204 -1.1441  2.0577 -1.6590
  578MOL0     H77973  10.627   3.471   4.488  1.2305  0.9150  0.5627
  578MOL0     H77974  10.743   3.337   4.475  0.9212  0.4055 -0.5116
  578MOL0     H77975  10.878   3.502   4.313  0.3695  1.0916  0.2451
  578MOL0     H77976  10.799   3.621   4.405  0.4673 -0.3521  0.2244
  578MOL0     H77977  10.878   3.545   4.607 -1.7989 -1.0297 -1.7059
  578MOL0     H77978  10.948   3.397   4.534  0.8545  0.2462 -0.3761
  578MOL0     H77979  11.137   3.531   4.432 -0.2449 -0.1881  0.0502
  578MOL0     H77980  11.123   3.551   4.603  1.8620  0.6001 -0.1912
  578MOL0     H77981  10.979   3.795   4.695 -1.3575  1.1669  0.1681
  578MOL0     H77982  11.029   4.144   4.530 -1.3793 -1.3359 -1.5861
  578MOL0     H77983  10.949   4.077   4.679  1.4664 -1.0625  1.3111
  578MOL0     H77984  11.106   4.198   4.756  3.4794  0.7820  1.9313
  578MOL0     H77985  11.225   4.152   4.635 -0.5840  2.0261  0.5572
  578MOL0     H77986  11.226   3.916   4.746 -2.5892 -0.6013 -0.3433
  578MOL0     H77987  11.118   3.975   4.867  2.4347 -1.5560  1.3567
  578MOL0     H77988  11.338   4.016   4.969  0.6804  1.8420  1.2125
  578MOL0     H77989  11.288   4.167   4.920 -3.1112 -1.3847  1.6023
  578MOL0     H77990  11.606   4.046   4.612  1.6442  1.8335 -0.0073
  578MOL0     H77991  11.923   3.990   4.593 -0.1649 -1.8399  2.3028
  578MOL0     H77992  11.802   4.110   4.539  0.4149 -0.5989 -0.6723
  578MOL0     H77993  11.934   4.157   4.657  0.2702 -1.4860  1.0425
  578MOL0     H77994  12.013   4.010   5.259  0.5798 -2.3431 -0.2548
  578MOL0     H77995  12.228   3.970   5.385  2.5609 -1.8039 -0.8751
  578MOL0     H77996  12.488   3.957   5.480 -0.5014 -0.3427  0.8600
  578MOL0     H77997  12.445   3.865   5.335  2.8550 -2.0907  0.0611
  578MOL0     H77998  12.715   3.984   5.372  0.3270 -1.2434  1.5485
  578MOL0     H77999  12.654   3.816   5.386 -1.2111  0.3546  2.0485
  578MOL0     H78000  12.632   4.004   5.140 -4.1044 -1.7058 -2.3400
  578MOL0     H78001  12.583   3.842   5.154 -0.2214 -0.8640  1.4763
  578MOL0     H78002  12.866   3.979   5.160 -0.2703 -0.1991 -1.6558
  578MOL0     H78003  12.854   3.813   5.231 -0.7686 -1.4901 -1.5787
  578MOL0     H78004  12.781   3.862   4.943  1.1957  0.3320  0.3271
  578MOL0     H78005  12.764   3.712   5.034 -3.1258  2.0809 -1.9487
  578MOL0     H78006  13.023   3.875   5.008  2.3188 -1.5327  1.1732
  578MOL0     H78007  13.020   3.727   5.084 -1.2680 -0.9927 -2.0182
  578MOL0     H78008  12.966   3.751   4.791  0.5190  0.3056  0.2892
  578MOL0     H78009  12.959   3.601   4.874  0.5796 -0.0687 -0.0583
  578MOL0     H78010  13.213   3.616   4.923 -0.3048 -1.1964 -2.3848
  578MOL0     H78011  13.197   3.770   4.835 -0.9930  1.4457  2.0014
  578MOL0     H78012  12.442   4.195   5.086 -0.0044 -1.0391 -1.6544
  578MOL0     H78013  12.222   4.229   4.963  1.3996  1.8607 -0.0850
  578MOL0     H78014  11.773   4.096   5.072  1.3242 -1.6251 -0.6814
  578MOL0     H78015  11.524   4.105   5.037  0.8579 -3.7413  1.3566
  578MOL0     H78016  10.189   3.367   3.751 -0.3761 -0.6217 -2.2428
  578MOL0     H78017  10.162   3.186   3.590 -0.5928  2.3613 -0.0513
  578MOL0     H78018  10.586   2.738   3.402  0.9235 -0.9386 -0.5012
  578MOL0     H78019  10.554   2.541   3.258  0.5015 -0.3308  0.7031
  578MOL0     H78020  10.457   2.389   3.082 -1.3977  1.7645  0.0615
  578MOL0     H78021  10.493   2.341   3.255  1.6563 -1.3206 -1.5880
  578MOL0     H78022  10.492   2.163   3.117 -0.5505  0.2156 -1.1893
  578MOL0     H78023  10.314   2.180   3.078 -1.2224 -3.0266  1.4764
  578MOL0     H78024  10.254   2.141   3.306  0.6221  2.1234 -0.3258
  578MOL0     H78025  10.421   2.113   3.363 -3.2769  0.1815  2.6246
  578MOL0     H78026  10.303   1.918   3.353  0.2902  0.4834  0.1021
  578MOL0     H78027  10.422   1.895   3.233  0.7041  0.4693 -1.8366
  578MOL0     H78028  10.039   1.912   3.022 -0.9515 -1.3432  1.6334
  578MOL0     H78029  10.136   2.578   3.299 -0.6900  0.2447  0.3088
  578MOL0     H78030  10.161   2.772   3.458  1.2807 -0.1676  5.1112
  579MOL0     O78031   7.964   2.536   5.862 -0.4311 -0.8242 -1.0417
  579MOL0     C78032   7.994   2.430   5.915  1.3050 -0.8108 -0.3040
  579MOL0     O78033   7.894   2.333   5.936 -0.1373 -0.6321  0.2670
  579MOL0     C78034   7.788   2.347   5.855 -0.2200 -0.6545 -0.7698
  579MOL0     C78035   7.683   2.439   5.888  0.2593  0.0653  0.0500
  579MOL0     C78036   7.573   2.432   5.803  0.3319  0.4802  0.5943
  579MOL0     C78037   7.560   2.346   5.697 -0.8870 -0.3440  0.2996
  579MOL0     O78038   7.448   2.356   5.614 -0.4533  0.1536 -0.1537
  579MOL0     C78039   7.482   2.411   5.486 -0.3379  0.2803  0.8064
  579MOL0     C78040   7.412   2.550   5.479 -0.6915  0.5970 -0.5022
  579MOL0     C78041   7.261   2.538   5.455  0.0716  0.0846  0.4664
  579MOL0     C78042   7.204   2.633   5.345  1.0807  0.9328  0.7619
  579MOL0     C78043   7.045   2.617   5.345 -0.4085  0.2021  0.1917
  579MOL0     C78044   6.994   2.712   5.248  0.2298 -0.8766 -0.7703
  579MOL0     C78045   6.846   2.708   5.243 -0.9798  1.2942  0.1719
  579MOL0     C78046   6.783   2.821   5.159  1.0496  0.0187  0.0787
  579MOL0     N78047   6.634   2.825   5.189 -0.1673 -0.3495  0.0208
  579MOL0     C78048   6.530   2.780   5.116  0.7761  0.1428 -0.1936
  579MOL0     C78049   6.419   2.842   5.169 -0.4191 -0.5074  1.4800
  579MOL0     C78050   6.282   2.835   5.106  0.0171 -0.0169 -0.3748
  579MOL0     C78051   6.173   2.807   5.205 -0.7616 -0.1305  0.1135
  579MOL0     C78052   6.192   2.671   5.269  0.1276 -0.0358 -0.2161
  579MOL0     C78053   6.164   2.555   5.173  1.1230  0.5310  1.0342
  579MOL0     O78054   6.159   2.443   5.252 -0.8623 -0.2190 -0.2107
  579MOL0     C78055   6.273   2.377   5.279  0.3213  0.4253 -0.4717
  579MOL0     C78056   6.408   2.416   5.263  0.9619  1.1874  0.4037
  579MOL0     C78057   6.517   2.325   5.300  0.0143  0.2458  0.8047
  579MOL0     C78058   6.662   2.367   5.284  0.1850  0.5247 -0.2427
  579MOL0     C78059   6.478   2.200   5.352  0.3197 -0.3558 -1.2580
  579MOL0     C78060   6.580   2.091   5.364  0.1654  0.8071  0.2483
  579MOL0     O78061   6.676   2.061   5.265 -0.1026 -0.0445  0.0546
  579MOL0     C78062   6.777   1.976   5.290 -0.2798 -0.0776  0.1469
  579MOL0     C78063   6.837   1.925   5.181  0.1353  0.8066  0.3463
  579MOL0     C78064   6.943   1.832   5.184 -0.3215  0.5896 -0.3452
  579MOL0     C78065   6.988   1.779   5.305  0.0132 -0.7098 -0.7581
  579MOL0     O78066   7.080   1.679   5.311  1.1775 -0.0055 -0.3520
  579MOL0     C78067   7.136   1.611   5.198 -0.6573  0.0127 -0.4579
  579MOL0     C78068   7.257   1.535   5.242  0.1977  0.0856 -0.0137
  579MOL0     C78069   7.373   1.615   5.285 -0.2397  0.3652 -0.2547
  579MOL0     C78070   7.482   1.534   5.339  0.4450 -0.0715  0.2934
  579MOL0     C78071   7.601   1.624   5.349 -0.9244 -0.3259  0.8624
  579MOL0     C78072   7.728   1.562   5.408  0.1966 -0.2271  0.8230
  579MOL0     C78073   7.847   1.663   5.425  0.3279 -0.0447  0.3033
  579MOL0     C78074   7.848   1.740   5.555 -0.8509  0.1633 -0.3384
  579MOL0    Cl78075   7.990   1.851   5.552 -0.6104 -0.1637  0.3127
  579MOL0     C78076   6.923   1.832   5.424 -0.1649 -0.1804 -0.3371
  579MOL0     C78077   6.829   1.936   5.417  0.6981 -0.7358 -0.5979
  579MOL0     O78078   6.561   2.027   5.466 -0.3723 -0.4912 -0.4242
  579MOL0     C78079   6.346   2.167   5.381 -0.4175 -0.2910 -0.0865
  579MOL0     C78080   6.250   2.254   5.337 -0.0030  0.3013  0.2520
  579MOL0     N78081   6.463   2.927   5.270 -0.0833 -0.4748 -0.1828
  579MOL0     N78082   6.586   2.914   5.280 -0.2573  0.8475  0.6968
  579MOL0     C78083   7.667   2.257   5.665 -0.3785  0.8847 -0.9713
  579MOL0     C78084   7.787   2.261   5.744  0.0414 -0.8098  0.1001
  579MOL0     C78085   8.130   2.395   5.948  0.0287 -0.4417 -0.3091
  579MOL0     C78086   8.162   2.293   6.041  0.0379  0.2234  0.4740
  579MOL0     C78087   8.290   2.259   6.072  0.0892  0.4566  0.6116
  579MOL0     C78088   8.398   2.318   6.015 -0.2488  0.8471  0.8783
  579MOL0     O78089   8.529   2.291   6.030 -0.0623  0.5091 -0.2805
  579MOL0     C78090   8.575   2.210   6.149  0.1948 -0.7216 -0.2664
  579MOL0     C78091   8.718   2.187   6.130 -0.1490 -0.4838  0.2405
  579MOL0     C78092   8.814   2.303   6.119  0.5027  0.6106  0.7426
  579MOL0     C78093   8.795   2.412   6.226  0.7475  0.2080 -0.0036
  579MOL0     C78094   8.833   2.354   6.356  0.1463  0.3362 -0.5348
  579MOL0     C78095   8.844   2.311   6.476 -0.0126  0.3157  1.3149
  579MOL0     C78096   8.370   2.420   5.930 -0.1984  0.5066 -1.0046
  579MOL0     C78097   8.241   2.461   5.897  0.0784 -0.2775  0.4954
  579MOL0     H78098   7.687   2.506   5.972  2.5435  0.8986 -0.6650
  579MOL0     H78099   7.490   2.499   5.822 -1.0674 -0.6604 -1.1164
  579MOL0     H78100   7.590   2.409   5.472  0.0830  0.4504  3.5683
  579MOL0     H78101   7.441   2.363   5.397 -2.4878  1.8378  0.8653
  579MOL0     H78102   7.427   2.590   5.580 -1.1796  2.6427 -1.1980
  579MOL0     H78103   7.454   2.623   5.409 -1.4962  0.9093 -0.6584
  579MOL0     H78104   7.228   2.435   5.441  1.1139 -0.1771 -0.1640
  579MOL0     H78105   7.209   2.568   5.546 -1.5354  2.1098 -1.0199
  579MOL0     H78106   7.225   2.740   5.356 -1.1300  1.3106  1.8740
  579MOL0     H78107   7.229   2.601   5.244 -3.5473 -0.1394 -0.2704
  579MOL0     H78108   7.009   2.519   5.313 -0.5174 -0.2925  1.7568
  579MOL0     H78109   7.004   2.641   5.443  2.5841  0.4074  1.5047
  579MOL0     H78110   7.009   2.812   5.289  0.1004 -1.6388  1.2633
  579MOL0     H78111   7.033   2.713   5.146 -0.1781  1.4136 -0.9520
  579MOL0     H78112   6.814   2.614   5.196  0.2253  0.5202  0.8481
  579MOL0     H78113   6.794   2.716   5.339 -2.5704 -2.0247 -0.2758
  579MOL0     H78114   6.796   2.809   5.051  2.9912  2.5017 -0.0513
  579MOL0     H78115   6.822   2.913   5.204  1.9124 -0.8502  1.1559
  579MOL0     H78116   6.529   2.711   5.032  1.9268  0.4251 -0.4555
  579MOL0     H78117   6.270   2.932   5.056 -0.5435  0.0195 -0.1808
  579MOL0     H78118   6.279   2.766   5.021  0.2382  2.2099 -2.3192
  579MOL0     H78119   6.072   2.812   5.163 -0.8103 -0.3912  0.1961
  579MOL0     H78120   6.185   2.884   5.281  0.2146 -0.9766  0.8570
  579MOL0     H78121   6.128   2.664   5.357  1.0678  2.0538  0.6924
  579MOL0     H78122   6.296   2.674   5.303 -0.2779  0.6479  1.0180
  579MOL0     H78123   6.234   2.544   5.089  1.0260  0.9942  0.8887
  579MOL0     H78124   6.070   2.573   5.120  1.7793 -1.5032 -1.0350
  579MOL0     H78125   6.421   2.516   5.223 -0.4351  1.5681  0.8482
  579MOL0     H78126   6.672   2.474   5.300  1.6117  0.0718  2.5420
  579MOL0     H78127   6.726   2.314   5.355 -0.9122 -1.4139 -0.6105
  579MOL0     H78128   6.687   2.337   5.182 -2.7956 -0.6914 -0.7130
  579MOL0     H78129   6.799   1.959   5.085 -0.4425 -0.9976 -0.1069
  579MOL0     H78130   6.987   1.791   5.093  0.8650 -1.3715  1.0467
  579MOL0     H78131   7.060   1.544   5.155 -1.1860 -0.0394  0.5202
  579MOL0     H78132   7.178   1.684   5.129 -1.5346  0.9071 -0.0700
  579MOL0     H78133   7.233   1.446   5.300 -0.3976 -0.5687 -1.2330
  579MOL0     H78134   7.297   1.501   5.146 -0.2284 -2.0602  0.5192
  579MOL0     H78135   7.333   1.681   5.363  1.8367 -0.0078  1.1721
  579MOL0     H78136   7.411   1.675   5.201  1.0225 -1.7276 -1.2520
  579MOL0     H78137   7.444   1.499   5.436 -3.3712  2.1939 -0.1959
  579MOL0     H78138   7.496   1.454   5.267 -1.9390  1.7892 -2.4583
  579MOL0     H78139   7.576   1.716   5.402 -0.4578  0.9126 -0.9814
  579MOL0     H78140   7.624   1.661   5.249  1.5449  0.0389  1.5015
  579MOL0     H78141   7.713   1.513   5.505 -0.1521 -2.5340 -0.3442
  579MOL0     H78142   7.754   1.473   5.350  0.7146  0.3644  0.1244
  579MOL0     H78143   7.848   1.730   5.338 -4.1328  0.0139  0.0543
  579MOL0     H78144   7.943   1.611   5.422  0.6738  0.4285  1.9724
  579MOL0     H78145   7.851   1.667   5.636 -3.0506  1.4747  1.0007
  579MOL0     H78146   7.752   1.790   5.566  0.3059  2.3382  0.3319
  579MOL0     H78147   6.957   1.777   5.511 -0.6500 -2.9266 -1.7648
  579MOL0     H78148   6.784   1.980   5.506 -0.7797  0.0307 -1.6782
  579MOL0     H78149   6.327   2.066   5.419  1.1270  0.2719  2.4307
  579MOL0     H78150   6.154   2.203   5.328 -0.5956  1.6903 -2.2666
  579MOL0     H78151   7.662   2.187   5.582 -1.1607 -0.2611  0.0099
  579MOL0     H78152   7.870   2.191   5.736 -0.7814 -1.8807  0.7027
  579MOL0     H78153   8.084   2.243   6.097 -0.3647  1.9535  1.5500
  579MOL0     H78154   8.315   2.175   6.136  1.9565  0.3022 -0.2447
  579MOL0     H78155   8.559   2.269   6.239  1.4240  0.9079 -1.0546
  579MOL0     H78156   8.522   2.115   6.161 -0.3899 -0.2684  0.8949
  579MOL0     H78157   8.726   2.135   6.034  3.3017  0.5476 -0.1784
  579MOL0     H78158   8.748   2.114   6.206 -3.8696 -4.6480 -1.8583
  579MOL0     H78159   8.788   2.345   6.021 -1.8162 -1.9968  0.1284
  579MOL0     H78160   8.918   2.269   6.107  1.0466  2.0219  1.1978
  579MOL0     H78161   8.692   2.447   6.239 -0.0214 -2.8190  3.4057
  579MOL0     H78162   8.863   2.496   6.212  0.3490  0.1771 -2.6043
  579MOL0     H78163   8.856   2.283   6.579 -0.3326 -1.1743  0.9674
  579MOL0     H78164   8.451   2.477   5.884  0.9792 -0.7760 -0.5880
  579MOL0     H78165   8.228   2.546   5.831  0.3378  0.0442  0.8553
  580MOL0     O78166   7.865   1.865   0.994  0.5725  0.4485 -0.8496
  580MOL0     C78167   7.961   1.810   1.049  0.7652  0.7082 -0.4273
  580MOL0     O78168   8.022   1.697   1.004 -0.9399 -0.6099 -0.6026
  580MOL0     C78169   7.996   1.642   0.884  0.3353 -1.1545  0.1197
  580MOL0     C78170   7.909   1.535   0.883  0.4714  0.4860  0.3199
  580MOL0     C78171   7.891   1.453   0.769  0.3195 -0.5394 -0.4358
  580MOL0     C78172   7.968   1.475   0.647 -0.0390 -0.8898 -1.2482
  580MOL0     O78173   7.970   1.404   0.528  0.2283  0.6587  0.0334
  580MOL0     C78174   7.927   1.270   0.518  0.0135 -0.0515 -0.2406
  580MOL0     C78175   8.018   1.180   0.604 -0.1447  0.2184  0.5442
  580MOL0     C78176   8.035   1.042   0.535  0.6083  0.6150 -0.1833
  580MOL0     C78177   8.128   0.945   0.607 -0.4646 -0.4283 -0.5449
  580MOL0     C78178   8.094   0.794   0.562  0.1600 -0.2193  0.0561
  580MOL0     C78179   8.211   0.702   0.604  0.3455  0.1309  0.3161
  580MOL0     C78180   8.177   0.560   0.554  0.2806 -0.4344  0.2372
  580MOL0     C78181   8.294   0.468   0.551  0.0207 -0.0170  0.1315
  580MOL0     N78182   8.265   0.372   0.449 -0.3307  0.7730  0.0942
  580MOL0     C78183   8.362   0.333   0.361 -0.0705  0.9929 -0.2404
  580MOL0     C78184   8.317   0.228   0.297  0.2107  0.8407  0.0268
  580MOL0     C78185   8.383   0.147   0.178  0.4620  0.3767 -0.4527
  580MOL0     C78186   8.447   0.028   0.249  0.4897  0.8421 -0.4793
  580MOL0     C78187   8.539  -0.040   0.152 -0.7630  0.4318  0.4184
  580MOL0     C78188   8.464  -0.080   0.024  0.1621  0.2407 -0.4661
  580MOL0     O78189   8.552  -0.140  -0.066  0.1799  0.2627 -0.1323
  580MOL0     C78190   8.524  -0.269  -0.076  0.2487 -0.3648  0.3425
  580MOL0     C78191   8.416  -0.318  -0.154 -0.9316  0.0588  0.2121
  580MOL0     C78192   8.381  -0.453  -0.156  0.0916  0.2798 -0.6263
  580MOL0     C78193   8.267  -0.485  -0.249 -0.1576  0.4802 -0.0088
  580MOL0     C78194   8.444  -0.545  -0.068 -0.7081  0.5809 -0.2597
  580MOL0     C78195   8.406  -0.693  -0.047  0.3378 -0.3160 -0.0584
  580MOL0     O78196   8.413  -0.746   0.083  0.3844  0.4378  0.2361
  580MOL0     C78197   8.367  -0.867   0.109 -0.8846  0.4167  0.8062
  580MOL0     C78198   8.242  -0.905   0.073 -1.4527 -0.0484 -0.2038
  580MOL0     C78199   8.190  -1.029   0.116 -0.0337  0.3238  0.4139
  580MOL0     C78200   8.267  -1.115   0.187  0.2360  0.6925 -1.5728
  580MOL0     O78201   8.223  -1.245   0.230 -0.8887 -0.7900 -0.4744
  580MOL0     C78202   8.127  -1.321   0.156 -0.3063  0.2968  0.0214
  580MOL0     C78203   8.125  -1.476   0.174  0.1991  0.8310 -0.5646
  580MOL0     C78204   8.072  -1.522   0.313  0.5432 -0.2857  0.5640
  580MOL0     C78205   8.024  -1.667   0.305  0.4388  0.9543 -0.1915
  580MOL0     C78206   8.040  -1.737   0.432  0.8141 -0.1017  0.5325
  580MOL0     C78207   7.953  -1.679   0.550 -0.2538  0.1905  0.4664
  580MOL0     C78208   7.800  -1.723   0.535  0.1757 -0.4198  0.0430
  580MOL0     C78209   7.711  -1.671   0.645  0.3426 -0.7262  0.6404
  580MOL0    Cl78210   7.739  -1.490   0.666 -0.0966  0.0267 -0.0982
  580MOL0     C78211   8.390  -1.075   0.220 -0.5608  0.4718 -0.6480
  580MOL0     C78212   8.447  -0.954   0.187  1.1240 -0.3256  0.2108
  580MOL0     O78213   8.385  -0.755  -0.148 -0.0576  0.1857  0.2130
  580MOL0     C78214   8.548  -0.491   0.011 -0.3161  0.3233 -0.6817
  580MOL0     C78215   8.590  -0.361   0.003 -0.4319  0.1988 -0.3813
  580MOL0     N78216   8.190   0.194   0.342 -0.0065 -0.0743  0.1240
  580MOL0     N78217   8.157   0.285   0.434 -0.3447  0.3694  0.0552
  580MOL0     C78218   8.048   1.591   0.651  0.2321 -0.3079 -0.1045
  580MOL0     C78219   8.062   1.675   0.769 -0.7307 -0.3864  0.0798
  580MOL0     C78220   8.018   1.867   1.175  0.9993 -0.1966  1.2541
  580MOL0     C78221   8.087   1.780   1.264  0.7205  0.3135 -0.1059
  580MOL0     C78222   8.131   1.824   1.383 -0.6936 -0.4531 -0.4549
  580MOL0     C78223   8.104   1.958   1.430 -1.2346 -0.3347 -0.7022
  580MOL0     O78224   8.144   2.008   1.549 -0.9798 -0.3452 -0.6372
  580MOL0     C78225   8.237   2.121   1.547  0.6014 -1.2275  0.8771
  580MOL0     C78226   8.166   2.249   1.609 -0.6900  0.1980 -0.4331
  580MOL0     C78227   8.241   2.387   1.612  0.3479  0.6291 -0.1596
  580MOL0     C78228   8.325   2.401   1.744  0.0137 -0.1095  0.3560
  580MOL0     C78229   8.456   2.341   1.725  0.7766  0.8301  0.2283
  580MOL0     C78230   8.562   2.284   1.712  0.1295  0.6377 -0.8954
  580MOL0     C78231   8.034   2.042   1.341  0.0181 -0.1591  0.5216
  580MOL0     C78232   7.978   1.997   1.212 -0.8733 -0.2781  0.0440
  580MOL0     H78233   7.849   1.528   0.974 -1.8957  3.5247 -0.8160
  580MOL0     H78234   7.814   1.378   0.778 -2.5048  2.3964  3.4426
  580MOL0     H78235   7.820   1.258   0.538  0.5344 -2.7923  1.4625
  580MOL0     H78236   7.949   1.249   0.412 -0.3441  0.0958 -0.3444
  580MOL0     H78237   8.116   1.227   0.622  2.1568 -4.0284  0.3754
  580MOL0     H78238   7.965   1.169   0.698  0.1770  0.5034  0.7649
  580MOL0     H78239   7.936   0.995   0.524  2.2288 -3.3748  0.5149
  580MOL0     H78240   8.078   1.053   0.436 -1.0295  0.8269 -0.8980
  580MOL0     H78241   8.231   0.969   0.579 -0.3621  2.0065  1.5321
  580MOL0     H78242   8.103   0.957   0.713  0.6741 -3.1408  0.1079
  580MOL0     H78243   7.992   0.774   0.597  0.6062  0.8094  2.1325
  580MOL0     H78244   8.085   0.796   0.453 -0.9209 -2.8529  0.0370
  580MOL0     H78245   8.299   0.737   0.549 -1.3697  0.3525 -2.4450
  580MOL0     H78246   8.223   0.703   0.713 -3.6461 -1.8611  0.9626
  580MOL0     H78247   8.095   0.514   0.610  1.5408 -0.4605  2.1245
  580MOL0     H78248   8.136   0.570   0.453 -2.7054  1.9060  1.5140
  580MOL0     H78249   8.303   0.419   0.649 -1.1990  2.1239  1.3978
  580MOL0     H78250   8.389   0.520   0.539  0.4958  0.0458  3.2237
  580MOL0     H78251   8.460   0.376   0.346  1.2931 -0.8640  2.5495
  580MOL0     H78252   8.301   0.118   0.111  0.9780  2.7774 -2.2418
  580MOL0     H78253   8.452   0.201   0.113 -1.6164  3.6899 -0.1195
  580MOL0     H78254   8.356  -0.028   0.273 -0.5599  2.2900 -0.9322
  580MOL0     H78255   8.500   0.046   0.343 -2.4177  0.9068  1.2926
  580MOL0     H78256   8.576  -0.130   0.202  1.3841  2.4856  2.7861
  580MOL0     H78257   8.626   0.018   0.121 -0.0954 -0.8491 -0.2040
  580MOL0     H78258   8.424   0.006  -0.030 -0.4152 -0.2447 -0.8127
  580MOL0     H78259   8.380  -0.144   0.053  1.1207  0.6871  4.0173
  580MOL0     H78260   8.361  -0.239  -0.204  0.2736  1.7639  1.4620
  580MOL0     H78261   8.310  -0.565  -0.311  2.6225  1.2886  0.7521
  580MOL0     H78262   8.174  -0.521  -0.203  0.1761 -1.2670 -0.6226
  580MOL0     H78263   8.233  -0.401  -0.311  1.3473  0.8108 -0.4154
  580MOL0     H78264   8.177  -0.835   0.021  1.2445  0.9087 -2.5662
  580MOL0     H78265   8.086  -1.053   0.096 -0.3294  1.3924  0.5644
  580MOL0     H78266   8.028  -1.275   0.153 -0.2030  0.7561 -5.1481
  580MOL0     H78267   8.162  -1.315   0.053 -0.4822 -0.9326 -0.1285
  580MOL0     H78268   8.048  -1.516   0.108 -0.4031 -0.1720  0.6923
  580MOL0     H78269   8.227  -1.514   0.167  1.4143  3.8966 -1.2326
  580MOL0     H78270   7.990  -1.455   0.337  0.3030 -0.3190 -0.1399
  580MOL0     H78271   8.158  -1.528   0.381  0.5261  0.2807  0.6433
  580MOL0     H78272   7.921  -1.664   0.267 -0.1015  0.7682  1.2176
  580MOL0     H78273   8.079  -1.722   0.228 -2.3887  1.3103 -2.6800
  580MOL0     H78274   8.146  -1.732   0.458  1.0459  0.5849 -0.4613
  580MOL0     H78275   7.996  -1.838   0.429 -0.8855  0.6075 -1.4418
  580MOL0     H78276   7.983  -1.708   0.651 -1.6134  1.5769  1.3213
  580MOL0     H78277   7.957  -1.570   0.543 -1.8324  0.1848 -1.6141
  580MOL0     H78278   7.797  -1.832   0.536  1.9620 -0.5142 -0.3922
  580MOL0     H78279   7.765  -1.690   0.437 -0.2866  0.8777  0.6135
  580MOL0     H78280   7.741  -1.713   0.742  3.1015 -1.2667 -0.3520
  580MOL0     H78281   7.604  -1.690   0.632 -0.3511  2.7703  0.3065
  580MOL0     H78282   8.451  -1.142   0.280 -0.5721  4.1061  4.0287
  580MOL0     H78283   8.547  -0.928   0.219  0.9336  0.4162  0.2411
  580MOL0     H78284   8.607  -0.550   0.081 -0.2442 -2.0180 -2.5750
  580MOL0     H78285   8.672  -0.323   0.063 -0.8454  0.6048 -0.0780
  580MOL0     H78286   8.108   1.609   0.562 -1.8020 -2.5528 -2.0579
  580MOL0     H78287   8.131   1.758   0.765 -1.2564  0.0734  0.3512
  580MOL0     H78288   8.103   1.678   1.231 -1.2960  0.7980 -2.9356
  580MOL0     H78289   8.185   1.760   1.452 -0.3768  0.8650  0.5757
  580MOL0     H78290   8.331   2.105   1.601  1.7496 -0.8213 -0.9115
  580MOL0     H78291   8.272   2.146   1.446  2.6094 -3.8188  0.8307
  580MOL0     H78292   8.145   2.222   1.713 -0.1842  0.8589 -0.1565
  580MOL0     H78293   8.067   2.270   1.566 -0.8526  0.7706  0.2083
  580MOL0     H78294   8.153   2.452   1.619 -0.1000  0.0268 -0.0610
  580MOL0     H78295   8.304   2.396   1.524  1.6200 -1.0498  0.5091
  580MOL0     H78296   8.275   2.357   1.830 -1.4344  0.4131 -0.1948
  580MOL0     H78297   8.328   2.509   1.757 -3.3210  0.3472 -1.6631
  580MOL0     H78298   8.656   2.234   1.710  0.1818  0.3887  2.3488
  580MOL0     H78299   8.003   2.142   1.371  0.9973 -0.1411  1.5513
  580MOL0     H78300   7.931   2.070   1.147 -2.6120  0.0744  1.6025
  581MOL0     O78301   5.966   3.258   5.894 -0.2953  0.2961  0.4577
  581MOL0     C78302   5.981   3.360   5.825 -0.8055 -0.8659 -0.0295
  581MOL0     O78303   6.096   3.446   5.840  0.3677 -0.4761  0.2755
  581MOL0     C78304   6.176   3.433   5.948 -0.1522 -0.5541  0.8170
  581MOL0     C78305   6.137   3.473   6.069  0.0339  0.1091  1.5078
  581MOL0     C78306   6.212   3.466   6.183 -1.3253 -0.2084  0.0023
  581MOL0     C78307   6.343   3.413   6.173 -0.3803 -0.8348 -0.3002
  581MOL0     O78308   6.421   3.402   6.288 -0.4131 -0.6142 -0.1746
  581MOL0     C78309   6.467   3.529   6.340 -0.2268  0.5391  0.1171
  581MOL0     C78310   6.449   3.524   6.488  1.2950 -0.3980  1.0039
  581MOL0     C78311   6.451   3.668   6.535  0.3090 -0.1620  0.5162
  581MOL0     C78312   6.337   3.717   6.609  0.0284  0.8317 -0.0821
  581MOL0     C78313   6.354   3.874   6.635 -0.8184  1.2236  0.7826
  581MOL0     C78314   6.248   3.921   6.716 -0.2356  0.1822 -0.8402
  581MOL0     C78315   6.123   3.982   6.645  0.0095  0.8638 -0.3089
  581MOL0     C78316   6.139   4.128   6.588  0.4950  0.0559 -0.1662
  581MOL0     N78317   6.033   4.179   6.486  0.6054 -0.2785 -0.6737
  581MOL0     C78318   6.027   4.306   6.437 -0.3649 -0.2066 -0.1992
  581MOL0     C78319   5.918   4.309   6.355 -0.0391  0.1521  0.5530
  581MOL0     C78320   5.890   4.423   6.260  0.3662 -0.4772 -0.2376
  581MOL0     C78321   5.735   4.444   6.262 -0.4774 -0.0978 -0.6830
  581MOL0     C78322   5.699   4.585   6.210 -0.0680  0.7232  0.2800
  581MOL0     C78323   5.548   4.606   6.202  0.0927  0.3792 -1.0757
  581MOL0     O78324   5.493   4.503   6.115 -0.6980 -0.0853  0.2610
  581MOL0     C78325   5.368   4.443   6.137 -0.2536  0.5516  0.1146
  581MOL0     C78326   5.338   4.319   6.062 -0.5157 -0.5161 -0.7087
  581MOL0     C78327   5.211   4.265   6.070  0.4813 -0.1341  0.3273
  581MOL0     C78328   5.178   4.149   5.974 -0.4986  0.3951 -0.5625
  581MOL0     C78329   5.108   4.317   6.155  0.2541 -0.7879  0.1773
  581MOL0     C78330   4.967   4.253   6.180 -0.7644 -0.5367  0.1814
  581MOL0     O78331   4.880   4.327   6.257 -0.3002 -0.6891 -0.6874
  581MOL0     C78332   4.762   4.274   6.311 -0.0384 -0.5174  0.7838
  581MOL0     C78333   4.668   4.369   6.356  0.3485  0.5525 -0.0506
  581MOL0     C78334   4.556   4.337   6.437 -0.3613 -0.3170  0.9554
  581MOL0     C78335   4.533   4.208   6.473  0.1024  1.1922 -0.2733
  581MOL0     O78336   4.419   4.179   6.545  0.2918 -0.8064 -0.2595
  581MOL0     C78337   4.382   4.045   6.578  0.8423 -0.7479  0.4473
  581MOL0     C78338   4.295   4.049   6.697  0.3145  0.8065  0.6226
  581MOL0     C78339   4.367   4.099   6.818  0.3214 -0.7891 -0.9514
  581MOL0     C78340   4.278   4.165   6.917 -0.5332 -1.0314 -0.0607
  581MOL0     C78341   4.373   4.234   7.026  0.8447 -0.7256  0.6130
  581MOL0     C78342   4.299   4.310   7.131  0.1075  1.0900 -0.4038
  581MOL0     C78343   4.390   4.380   7.218 -0.0968  0.1110 -0.2406
  581MOL0     C78344   4.325   4.496   7.287 -0.7945 -1.1497  0.6668
  581MOL0    Cl78345   4.464   4.611   7.318  0.4206  0.0449  0.5575
  581MOL0     C78346   4.610   4.103   6.417 -0.0310 -0.0804 -0.1874
  581MOL0     C78347   4.721   4.138   6.332 -1.0889  0.2839 -0.9577
  581MOL0     O78348   4.935   4.147   6.130  0.3768 -0.7517  0.0013
  581MOL0     C78349   5.135   4.436   6.231 -0.9043  0.6007  1.4335
  581MOL0     C78350   5.265   4.499   6.219 -0.6816 -1.1266 -0.1275
  581MOL0     N78351   5.848   4.188   6.371 -0.4024 -0.3100  0.6047
  581MOL0     N78352   5.917   4.106   6.446  0.0141 -0.2335  0.0306
  581MOL0     C78353   6.392   3.385   6.047 -0.1880 -0.5985  0.2784
  581MOL0     C78354   6.312   3.397   5.935 -0.0976  0.3218 -0.9203
  581MOL0     C78355   5.898   3.366   5.705  0.7131  0.1153  0.0659
  581MOL0     C78356   5.913   3.474   5.620  1.1831 -0.0670  0.3619
  581MOL0     C78357   5.814   3.498   5.518 -0.0362 -0.4895  0.6407
  581MOL0     C78358   5.709   3.405   5.497 -0.3425 -0.0601 -0.2651
  581MOL0     O78359   5.621   3.437   5.400  0.7442 -0.4118 -0.8227
  581MOL0     C78360   5.499   3.359   5.380  0.3380 -0.3518  0.0208
  581MOL0     C78361   5.519   3.239   5.301  0.4707  0.1901 -0.0933
  581MOL0     C78362   5.386   3.174   5.247 -1.0371  0.0541 -1.0811
  581MOL0     C78363   5.270   3.155   5.343 -0.1887  0.8649 -0.2713
  581MOL0     C78364   5.312   3.085   5.468  0.7731 -0.2331 -0.5211
  581MOL0     C78365   5.349   3.051   5.578 -0.4492 -0.0029  0.1898
  581MOL0     C78366   5.705   3.285   5.590 -0.3009 -0.2290 -0.4192
  581MOL0     C78367   5.797   3.275   5.691 -0.3391  0.5830 -0.0902
  581MOL0     H78368   6.039   3.520   6.071 -0.8409 -1.3773 -1.0152
  581MOL0     H78369   6.159   3.498   6.272  0.4954  3.2636  0.0228
  581MOL0     H78370   6.571   3.548   6.312  0.3559  0.8530  2.3667
  581MOL0     H78371   6.396   3.607   6.309 -1.1632 -0.3622 -0.0457
  581MOL0     H78372   6.347   3.490   6.511 -0.5118  2.1583 -2.2749
  581MOL0     H78373   6.522   3.458   6.534 -0.3105 -2.6879  0.4649
  581MOL0     H78374   6.541   3.682   6.597 -0.2451 -0.3600  1.3833
  581MOL0     H78375   6.468   3.730   6.447 -0.0436 -2.3766 -1.2119
  581MOL0     H78376   6.250   3.693   6.547  1.2153 -2.4628 -0.6798
  581MOL0     H78377   6.333   3.664   6.704  2.0963  1.5342  0.4544
  581MOL0     H78378   6.447   3.889   6.691  0.2658  1.7179 -1.0842
  581MOL0     H78379   6.358   3.934   6.544  0.4572 -0.8950 -0.6256
  581MOL0     H78380   6.216   3.843   6.785 -1.6669  0.6021 -0.9931
  581MOL0     H78381   6.285   4.005   6.776 -2.1220 -0.0623  0.7827
  581MOL0     H78382   6.116   3.908   6.564  1.5666  1.1839 -0.7631
  581MOL0     H78383   6.032   3.972   6.706 -1.2794 -1.6093 -2.4163
  581MOL0     H78384   6.235   4.145   6.538  0.6185  2.2109  0.6946
  581MOL0     H78385   6.143   4.194   6.675  1.7788  1.7363 -1.4318
  581MOL0     H78386   6.096   4.388   6.456 -0.6323 -0.4131  1.9019
  581MOL0     H78387   5.942   4.515   6.288 -0.9472 -0.2306  1.5735
  581MOL0     H78388   5.931   4.391   6.164 -1.6292 -1.5103 -0.7908
  581MOL0     H78389   5.686   4.440   6.360  1.6378  3.7479  0.7184
  581MOL0     H78390   5.694   4.368   6.195  2.6130 -3.3803  0.8064
  581MOL0     H78391   5.735   4.593   6.107  0.4459 -1.5479  0.2187
  581MOL0     H78392   5.746   4.663   6.270 -0.5094 -0.5981  2.4782
  581MOL0     H78393   5.524   4.701   6.152  2.3822  0.5466 -1.9500
  581MOL0     H78394   5.512   4.602   6.305  0.9012  1.4914 -0.7306
  581MOL0     H78395   5.415   4.278   5.998  0.8101  1.2979 -0.3436
  581MOL0     H78396   5.078   4.158   5.931  0.3386 -0.8490 -2.9701
  581MOL0     H78397   5.262   4.145   5.904  0.8848 -2.0692  1.0505
  581MOL0     H78398   5.189   4.053   6.027  0.4500  0.8132  0.0399
  581MOL0     H78399   4.687   4.475   6.343 -0.6182  0.8016  0.4952
  581MOL0     H78400   4.496   4.421   6.474  1.2275  0.3980  2.0163
  581MOL0     H78401   4.318   4.011   6.496 -2.9687  0.2365  2.7753
  581MOL0     H78402   4.459   3.969   6.593 -0.7389 -2.7972 -1.1576
  581MOL0     H78403   4.196   4.093   6.684 -0.5091 -1.6056 -2.5512
  581MOL0     H78404   4.273   3.946   6.730 -0.1843  1.4633  2.4754
  581MOL0     H78405   4.444   4.173   6.794 -0.9873 -0.1902 -3.6886
  581MOL0     H78406   4.410   4.011   6.867  1.7238  0.7066  0.6121
  581MOL0     H78407   4.213   4.245   6.881 -0.8472 -0.7507  1.0669
  581MOL0     H78408   4.218   4.092   6.973  0.6176 -1.1789  1.0296
  581MOL0     H78409   4.438   4.308   6.979 -0.3593  1.7543  2.5847
  581MOL0     H78410   4.431   4.159   7.080  0.1339 -1.0370  0.9640
  581MOL0     H78411   4.233   4.382   7.081 -1.5553 -0.0413  0.0903
  581MOL0     H78412   4.241   4.231   7.179 -1.4421  1.1477 -2.0556
  581MOL0     H78413   4.476   4.425   7.167  0.4990 -0.4526  0.2386
  581MOL0     H78414   4.432   4.326   7.303 -0.5875  3.7641  2.5759
  581MOL0     H78415   4.271   4.451   7.370 -0.3818 -1.2726  0.8691
  581MOL0     H78416   4.249   4.547   7.227 -1.9894 -3.6484 -0.1026
  581MOL0     H78417   4.596   3.999   6.444 -0.9865  0.7512  2.9344
  581MOL0     H78418   4.796   4.065   6.305 -1.8299 -1.3327  1.1217
  581MOL0     H78419   5.050   4.477   6.285 -2.3482  0.3954 -0.5931
  581MOL0     H78420   5.280   4.593   6.272 -0.0173 -1.3302  0.0549
  581MOL0     H78421   6.494   3.348   6.048 -0.3077 -0.9659  1.7716
  581MOL0     H78422   6.351   3.377   5.836  2.5125 -1.5019  0.3540
  581MOL0     H78423   5.985   3.553   5.637 -0.4137  1.8644 -1.2982
  581MOL0     H78424   5.836   3.576   5.447  2.1027 -0.7303  0.9640
  581MOL0     H78425   5.440   3.345   5.471 -0.5856 -2.5854 -0.8528
  581MOL0     H78426   5.441   3.424   5.314  1.0938  0.4088  0.0894
  581MOL0     H78427   5.569   3.152   5.345  2.1199 -0.4234 -2.9572
  581MOL0     H78428   5.568   3.276   5.211 -0.9923 -0.6383 -1.2752
  581MOL0     H78429   5.407   3.070   5.220  0.4451 -0.8438  2.8046
  581MOL0     H78430   5.365   3.221   5.150  2.2839 -1.5156 -2.7096
  581MOL0     H78431   5.195   3.092   5.295 -0.3482  0.5886  0.3324
  581MOL0     H78432   5.220   3.245   5.380  1.5298  1.3291  1.0850
  581MOL0     H78433   5.387   3.020   5.674 -0.2192  0.7060  0.3347
  581MOL0     H78434   5.627   3.211   5.579  1.9762 -3.1826  1.7517
  581MOL0     H78435   5.784   3.181   5.745  1.1285  1.0130  1.0974
  582MOL0     O78436   5.619   3.864   8.450 -0.1518 -0.3088 -0.2946
  582MOL0     C78437   5.647   3.746   8.468  1.1415  0.6472  0.0764
  582MOL0     O78438   5.571   3.643   8.409  0.6105 -0.7412 -0.0659
  582MOL0     C78439   5.444   3.666   8.366 -0.1540  0.2246  0.6974
  582MOL0     C78440   5.397   3.573   8.269  0.7758 -1.3580  0.7129
  582MOL0     C78441   5.272   3.593   8.216 -0.0246 -0.0278 -0.5575
  582MOL0     C78442   5.181   3.683   8.264 -0.0206 -0.9030  0.0701
  582MOL0     O78443   5.049   3.676   8.206 -0.0424 -0.5069  0.6103
  582MOL0     C78444   4.970   3.798   8.182  0.7324 -0.5291  0.0093
  582MOL0     C78445   4.857   3.769   8.095  0.3707 -0.8441 -0.0927
  582MOL0     C78446   4.889   3.687   7.964  0.4297  1.0014 -0.1555
  582MOL0     C78447   5.024   3.733   7.884 -0.9641  0.5005 -0.1355
  582MOL0     C78448   5.030   3.705   7.735 -0.6280 -0.1046 -0.3891
  582MOL0     C78449   5.017   3.557   7.701 -0.8449  0.9310  0.6332
  582MOL0     C78450   5.079   3.504   7.567  0.6285  0.0844 -0.4316
  582MOL0     C78451   5.029   3.364   7.541  0.6606 -0.3854  1.4906
  582MOL0     N78452   4.932   3.370   7.432 -0.4006 -0.2311 -0.1514
  582MOL0     C78453   4.800   3.357   7.449  0.0931  0.2895 -0.3638
  582MOL0     C78454   4.749   3.400   7.327  0.0056 -0.6725 -0.3699
  582MOL0     C78455   4.601   3.394   7.296  0.0829 -0.0838  0.5505
  582MOL0     C78456   4.578   3.253   7.236  0.0005 -0.1616  0.3361
  582MOL0     C78457   4.553   3.142   7.339  0.7343 -0.4039  0.1758
  582MOL0     C78458   4.458   3.038   7.277 -0.9135 -0.0213  0.0509
  582MOL0     O78459   4.327   3.094   7.270  0.8069  0.8121 -0.2114
  582MOL0     C78460   4.225   3.032   7.196 -0.5726 -0.4888  0.5018
  582MOL0     C78461   4.114   3.111   7.179  0.6474  0.5051  0.3336
  582MOL0     C78462   4.007   3.067   7.107 -0.3571  0.0418  0.1358
  582MOL0     C78463   3.885   3.153   7.111 -0.1307 -0.3328  0.5700
  582MOL0     C78464   4.017   2.943   7.038  0.8197  0.2763 -0.2933
  582MOL0     C78465   3.912   2.919   6.937 -0.2853 -0.0121 -0.3992
  582MOL0     O78466   3.853   2.803   6.950  0.5414 -0.3275  0.4527
  582MOL0     C78467   3.793   2.751   6.835  0.4720  0.1813  0.1264
  582MOL0     C78468   3.661   2.764   6.800  1.1254  0.3074 -0.0230
  582MOL0     C78469   3.608   2.713   6.684 -0.0643  0.2479 -0.7092
  582MOL0     C78470   3.695   2.662   6.588  1.6364 -0.3998  0.4840
  582MOL0     O78471   3.652   2.594   6.479  0.4703  0.0919  0.6449
  582MOL0     C78472   3.515   2.582   6.457  0.1221  0.8464  0.1690
  582MOL0     C78473   3.502   2.481   6.344 -0.0605  0.2951  0.1561
  582MOL0     C78474   3.397   2.531   6.239 -1.2214  0.4533 -0.0874
  582MOL0     C78475   3.255   2.543   6.298 -0.3181 -0.3619  0.8697
  582MOL0     C78476   3.152   2.549   6.174  1.7318  1.5409 -0.2586
  582MOL0     C78477   3.012   2.541   6.230  0.7184 -0.4208 -0.0580
  582MOL0     C78478   2.893   2.539   6.127 -0.4481 -0.4171 -0.2840
  582MOL0     C78479   2.753   2.541   6.185  0.1891  0.7770  0.0578
  582MOL0    Cl78480   2.630   2.512   6.061  0.5091  0.3368  0.2897
  582MOL0     C78481   3.826   2.652   6.613  0.4847 -0.6404 -0.3457
  582MOL0     C78482   3.874   2.694   6.736 -0.1174  0.0334 -0.7708
  582MOL0     O78483   3.883   3.000   6.850  0.1481 -0.2218  0.4152
  582MOL0     C78484   4.120   2.852   7.057 -0.6377  0.4127  0.0180
  582MOL0     C78485   4.230   2.903   7.142  0.9186 -0.0113  1.0484
  582MOL0     N78486   4.848   3.433   7.241 -0.5417  0.2307  1.2075
  582MOL0     N78487   4.956   3.418   7.308 -0.7581  0.1182 -0.5041
  582MOL0     C78488   5.219   3.766   8.370  1.2080 -0.9323  0.7565
  582MOL0     C78489   5.351   3.761   8.409 -0.1439  0.5027 -0.6593
  582MOL0     C78490   5.765   3.690   8.533 -0.5834 -0.5346 -0.8030
  582MOL0     C78491   5.891   3.723   8.494  0.0467  0.4074  1.6186
  582MOL0     C78492   6.008   3.656   8.538 -0.5314  0.2268  0.4671
  582MOL0     C78493   5.997   3.568   8.640  0.1148 -0.6260 -0.1998
  582MOL0     O78494   6.112   3.514   8.688 -0.5498 -1.1743 -0.4924
  582MOL0     C78495   6.122   3.454   8.822  0.4659 -0.5841  0.1774
  582MOL0     C78496   6.268   3.451   8.889  0.6762 -1.2103  0.2054
  582MOL0     C78497   6.278   3.339   8.996 -1.0744 -0.2782 -0.3871
  582MOL0     C78498   6.407   3.349   9.080  0.5758  0.6451  0.9031
  582MOL0     C78499   6.411   3.473   9.154 -0.3498  0.3612 -0.4318
  582MOL0     C78500   6.422   3.571   9.223  0.0532 -0.2911  0.5450
  582MOL0     C78501   5.871   3.532   8.688  0.0498  0.3251  1.1066
  582MOL0     C78502   5.756   3.588   8.632 -0.4825 -0.6794  0.6391
  582MOL0     H78503   5.460   3.491   8.236  1.7037 -0.0736 -0.8769
  582MOL0     H78504   5.243   3.533   8.130 -1.4677  1.8924 -1.4810
  582MOL0     H78505   4.933   3.846   8.273 -3.2114 -0.2172 -1.5615
  582MOL0     H78506   5.029   3.867   8.121 -0.1830  0.9590  0.7452
  582MOL0     H78507   4.789   3.709   8.156  0.7121  0.2766  1.4615
  582MOL0     H78508   4.802   3.859   8.069 -0.3820 -1.1711  0.3382
  582MOL0     H78509   4.891   3.582   7.994 -0.5914  1.7785  2.9081
  582MOL0     H78510   4.804   3.709   7.899  0.9490  1.5054 -0.6812
  582MOL0     H78511   5.040   3.840   7.900  1.4342  0.5324 -2.1614
  582MOL0     H78512   5.114   3.697   7.933 -0.6600 -0.0712 -1.0800
  582MOL0     H78513   4.938   3.734   7.683 -0.4066 -0.2776 -0.8765
  582MOL0     H78514   5.116   3.759   7.695  0.3581 -1.4925 -0.1949
  582MOL0     H78515   5.068   3.498   7.778  0.8274  1.7736  0.2237
  582MOL0     H78516   4.909   3.542   7.708 -1.3269  3.0887 -1.0215
  582MOL0     H78517   5.056   3.574   7.486 -0.0543  2.8229  1.9387
  582MOL0     H78518   5.188   3.498   7.570  0.7412  1.5517 -0.8143
  582MOL0     H78519   4.981   3.309   7.622 -0.8573 -0.7806  0.3638
  582MOL0     H78520   5.119   3.312   7.505  0.3656 -1.3828  2.1590
  582MOL0     H78521   4.750   3.312   7.534  0.1999 -0.2475 -0.5822
  582MOL0     H78522   4.536   3.403   7.383 -0.8865 -1.0571 -0.0488
  582MOL0     H78523   4.578   3.471   7.222  3.6085  1.0610  0.4550
  582MOL0     H78524   4.654   3.220   7.164 -1.2591 -0.7054 -0.7637
  582MOL0     H78525   4.493   3.266   7.170 -0.1952  2.4109  0.9900
  582MOL0     H78526   4.505   3.175   7.432 -1.9345  0.1507 -1.2996
  582MOL0     H78527   4.649   3.094   7.360  0.3462 -2.4007 -2.1290
  582MOL0     H78528   4.459   2.940   7.325  0.5894  0.9659  2.1605
  582MOL0     H78529   4.488   3.016   7.174 -2.0172 -0.1409 -0.2575
  582MOL0     H78530   4.114   3.210   7.223 -1.0242  2.0321 -2.7667
  582MOL0     H78531   3.882   3.208   7.205  1.3577 -3.0348  2.3513
  582MOL0     H78532   3.874   3.230   7.034 -1.7641  0.6255  1.6876
  582MOL0     H78533   3.797   3.087   7.107 -0.7275  0.5069 -0.8600
  582MOL0     H78534   3.584   2.807   6.863  1.6211  0.1061  0.7379
  582MOL0     H78535   3.502   2.716   6.660 -0.0328  0.1813 -0.8578
  582MOL0     H78536   3.450   2.540   6.534 -1.4960  1.5022 -0.7925
  582MOL0     H78537   3.469   2.674   6.419  0.4437  0.2144 -1.8591
  582MOL0     H78538   3.601   2.471   6.298  1.2505  0.6498  2.7002
  582MOL0     H78539   3.468   2.383   6.377  0.9428 -0.3559 -0.6868
  582MOL0     H78540   3.398   2.452   6.163  2.6183 -0.9959  1.2231
  582MOL0     H78541   3.433   2.621   6.188  1.2610 -1.2477 -1.5967
  582MOL0     H78542   3.237   2.456   6.363 -2.3855 -0.3301  0.4271
  582MOL0     H78543   3.239   2.636   6.352  1.9814  0.6790 -0.1371
  582MOL0     H78544   3.170   2.466   6.105  3.0861  1.0681  0.6200
  582MOL0     H78545   3.166   2.645   6.125 -2.5892  2.3156 -0.3650
  582MOL0     H78546   3.000   2.456   6.299 -0.2349 -0.7831 -0.6492
  582MOL0     H78547   2.984   2.621   6.299 -4.1170 -1.2235 -0.7325
  582MOL0     H78548   2.915   2.451   6.067 -1.4554 -0.7011 -0.2582
  582MOL0     H78549   2.908   2.624   6.059 -0.4457  1.6643  2.1491
  582MOL0     H78550   2.747   2.643   6.222  2.2872  0.0610  2.6560
  582MOL0     H78551   2.743   2.466   6.264  0.6721 -0.6746 -1.1868
  582MOL0     H78552   3.892   2.591   6.552  0.2664  0.3026 -1.5676
  582MOL0     H78553   3.979   2.676   6.758 -0.2252  0.8073  0.4958
  582MOL0     H78554   4.133   2.761   7.000  4.0672  1.0685 -0.3775
  582MOL0     H78555   4.309   2.833   7.169  1.5384  0.3189  0.1115
  582MOL0     H78556   5.140   3.830   8.410 -3.1051 -4.1799 -1.7470
  582MOL0     H78557   5.371   3.847   8.472 -3.3807  0.3979  0.6921
  582MOL0     H78558   5.902   3.812   8.432  0.3913 -0.4255  0.4639
  582MOL0     H78559   6.110   3.680   8.507 -0.9116 -1.2195 -2.2196
  582MOL0     H78560   6.064   3.514   8.893  0.5660  0.4328 -0.5677
  582MOL0     H78561   6.085   3.351   8.819  2.7609 -1.4662 -0.5443
  582MOL0     H78562   6.283   3.552   8.929 -5.7474  0.0863  0.4402
  582MOL0     H78563   6.336   3.423   8.808  0.2024  1.2371 -1.1408
  582MOL0     H78564   6.284   3.247   8.937 -0.1991  1.7823 -3.8068
  582MOL0     H78565   6.200   3.342   9.073 -0.5246  2.7556  0.2032
  582MOL0     H78566   6.492   3.349   9.010 -2.0575 -1.9915 -2.6359
  582MOL0     H78567   6.424   3.256   9.134  0.5351 -1.3208 -2.2167
  582MOL0     H78568   6.432   3.659   9.283 -2.0630 -0.6140  1.4775
  582MOL0     H78569   5.845   3.464   8.769  1.1865 -0.6840  0.6473
  582MOL0     H78570   5.662   3.551   8.673 -0.4870  1.4617  2.8383
  583MOL0     O78571   7.809   9.562  10.580  0.4922 -0.2511  0.3764
  583MOL0     C78572   7.848   9.648  10.503 -0.3511 -0.1371 -0.0285
  583MOL0     O78573   7.954   9.627  10.423 -0.5720 -0.4314  0.7740
  583MOL0     C78574   8.026   9.514  10.435  0.6840  0.8206  0.5024
  583MOL0     C78575   8.152   9.524  10.494  0.7402 -0.3819  0.4782
  583MOL0     C78576   8.234   9.403  10.506  1.1380  0.5645  0.0838
  583MOL0     C78577   8.191   9.281  10.454 -0.0160 -0.1600  0.5912
  583MOL0     O78578   8.273   9.167  10.449 -0.2496  0.6265  0.1222
  583MOL0     C78579   8.241   9.059  10.365  0.6085 -0.5288  0.3134
  583MOL0     C78580   8.355   8.956  10.359 -0.8124 -0.0824  0.6734
  583MOL0     C78581   8.500   9.017  10.330 -0.2388  0.1360  0.0219
  583MOL0     C78582   8.619   8.916  10.314  0.2537  0.3092  0.1773
  583MOL0     C78583   8.617   8.841  10.178 -0.4966 -0.0998 -0.4712
  583MOL0     C78584   8.761   8.818  10.116  0.4640  0.1708  0.2152
  583MOL0     C78585   8.778   8.758   9.980 -0.0541 -0.1387 -0.0586
  583MOL0     C78586   8.754   8.855   9.865 -0.5463 -0.4871  0.7741
  583MOL0     N78587   8.776   8.788   9.733 -0.0744  0.5469  0.2462
  583MOL0     C78588   8.686   8.722   9.663  0.4212  0.8937 -0.2373
  583MOL0     C78589   8.717   8.698   9.535 -0.4494 -0.2573  0.0639
  583MOL0     C78590   8.639   8.639   9.424 -0.5946 -0.7304  0.1682
  583MOL0     C78591   8.653   8.480   9.425  0.5147  0.0542  0.5533
  583MOL0     C78592   8.779   8.428   9.357 -0.4991 -0.5899  1.4054
  583MOL0     C78593   8.809   8.284   9.387  0.6183  0.2297 -0.2296
  583MOL0     O78594   8.919   8.229   9.321  0.2705  0.4661  0.0918
  583MOL0     C78595   8.936   8.090   9.320  0.2361 -0.2676 -0.4613
  583MOL0     C78596   8.853   7.988   9.376  1.0371 -0.8107  0.2695
  583MOL0     C78597   8.876   7.857   9.346 -0.9021 -0.0791 -0.9217
  583MOL0     C78598   8.780   7.760   9.404  0.0188 -0.1428  0.2341
  583MOL0     C78599   8.987   7.819   9.256  0.0956 -0.3389 -0.8552
  583MOL0     C78600   9.009   7.679   9.223  0.0092  0.0173  0.4185
  583MOL0     O78601   8.907   7.618   9.164 -0.1641  0.3573 -0.2619
  583MOL0     C78602   8.897   7.485   9.138 -0.4591  0.1938 -0.2096
  583MOL0     C78603   8.931   7.437   9.012  0.7910  0.0149  0.5284
  583MOL0     C78604   8.918   7.295   8.987 -0.5195  0.2662  0.4748
  583MOL0     C78605   8.883   7.206   9.082  0.2409  0.8890 -0.2060
  583MOL0     O78606   8.854   7.067   9.067 -0.0307 -0.4914 -0.1329
  583MOL0     C78607   8.839   7.011   8.930 -0.1920  0.5460 -0.7372
  583MOL0     C78608   8.838   6.864   8.955 -0.2112  0.8534  0.0299
  583MOL0     C78609   8.752   6.802   8.849 -0.3563 -0.1051 -0.4138
  583MOL0     C78610   8.737   6.650   8.866  0.4519  0.3655  0.3717
  583MOL0     C78611   8.638   6.606   8.766  1.0341 -0.3273 -0.3094
  583MOL0     C78612   8.592   6.461   8.784 -0.0569 -0.0369  0.3058
  583MOL0     C78613   8.706   6.363   8.745 -0.7552  0.5847  0.9466
  583MOL0     C78614   8.678   6.269   8.632  0.1004  0.5504 -0.2214
  583MOL0    Cl78615   8.557   6.155   8.685  0.1012  0.0158 -1.1295
  583MOL0     C78616   8.851   7.263   9.208  0.5212 -0.0373  0.3376
  583MOL0     C78617   8.857   7.398   9.230  0.1591 -0.1317 -0.9218
  583MOL0     O78618   9.122   7.623   9.247  0.2437  0.1198 -0.5037
  583MOL0     C78619   9.083   7.914   9.214  0.0650 -0.1321  0.2495
  583MOL0     C78620   9.050   8.054   9.246  0.3346  0.2254  0.2156
  583MOL0     N78621   8.850   8.744   9.530  0.4867 -0.2065 -0.3682
  583MOL0     N78622   8.879   8.797   9.643  0.7855  0.4290 -0.7442
  583MOL0     C78623   8.054   9.266  10.413 -0.5589 -0.0738 -0.3784
  583MOL0     C78624   7.976   9.385  10.401 -0.3457 -0.1993  0.5859
  583MOL0     C78625   7.783   9.778  10.501 -0.4118  0.5011  0.3546
  583MOL0     C78626   7.672   9.797  10.582 -0.1642  0.2989  0.6451
  583MOL0     C78627   7.608   9.918  10.599  0.3303  0.8236  0.3246
  583MOL0     C78628   7.648  10.026  10.526 -0.8969  0.1406  0.0196
  583MOL0     O78629   7.586  10.151  10.557 -0.1986  0.0476  0.3684
  583MOL0     C78630   7.653  10.273  10.511  0.5620  0.5722  0.2282
  583MOL0     C78631   7.594  10.387  10.598 -0.4413  1.0056  0.1270
  583MOL0     C78632   7.679  10.508  10.578 -0.5011 -0.2941  0.4468
  583MOL0     C78633   7.609  10.630  10.628 -0.2080  1.1256 -0.2923
  583MOL0     C78634   7.694  10.746  10.587  0.9367  0.4552 -0.7246
  583MOL0     C78635   7.741  10.852  10.563  0.6775 -0.8740  0.6015
  583MOL0     C78636   7.754  10.008  10.434  0.4831 -0.1348 -0.1383
  583MOL0     C78637   7.810   9.882  10.418 -0.1844  0.2887  0.0131
  583MOL0     H78638   8.195   9.621  10.516  0.0308  0.8414 -2.8661
  583MOL0     H78639   8.340   9.406  10.533  1.3839  2.0422 -0.9054
  583MOL0     H78640   8.164   9.002  10.418  0.2785  0.3005  0.7447
  583MOL0     H78641   8.192   9.080  10.269  1.4477 -1.9987 -0.4788
  583MOL0     H78642   8.364   8.910  10.457 -0.0821  2.9253  2.1494
  583MOL0     H78643   8.341   8.879  10.282  2.3014 -2.3556  2.1658
  583MOL0     H78644   8.496   9.091  10.250  1.0079  2.3108  1.8274
  583MOL0     H78645   8.528   9.076  10.418  0.1013 -0.1501  0.1088
  583MOL0     H78646   8.713   8.972  10.311 -0.4627  1.5045 -2.1548
  583MOL0     H78647   8.625   8.841  10.394 -0.4888 -2.3512 -2.1003
  583MOL0     H78648   8.556   8.752  10.164 -0.5868  0.0698 -1.1636
  583MOL0     H78649   8.565   8.910  10.111 -2.0069  1.0035  1.7162
  583MOL0     H78650   8.811   8.915  10.111 -1.6190  1.4073  1.8658
  583MOL0     H78651   8.814   8.752  10.185 -1.7955 -2.9353 -0.7788
  583MOL0     H78652   8.882   8.730   9.960 -0.4619 -0.7184 -1.4709
  583MOL0     H78653   8.713   8.671   9.968  1.1709 -0.9399 -1.0515
  583MOL0     H78654   8.820   8.942   9.872  0.3569 -1.1806  1.0199
  583MOL0     H78655   8.656   8.903   9.863  0.9409  2.8613 -1.5721
  583MOL0     H78656   8.593   8.692   9.712 -0.6352  2.9639 -0.8789
  583MOL0     H78657   8.533   8.660   9.433 -0.2002  1.4193  0.2152
  583MOL0     H78658   8.674   8.678   9.328  0.2831  0.3779  0.9230
  583MOL0     H78659   8.562   8.430   9.392  0.8155 -1.1944  1.5386
  583MOL0     H78660   8.668   8.455   9.531  1.2127  0.9935  0.6980
  583MOL0     H78661   8.873   8.475   9.387 -0.4952  2.1992 -2.2389
  583MOL0     H78662   8.761   8.442   9.250 -0.6460  1.1563  1.6301
  583MOL0     H78663   8.723   8.223   9.360  0.4265  1.8658 -3.9090
  583MOL0     H78664   8.823   8.277   9.496  1.0380  0.8727 -0.2335
  583MOL0     H78665   8.766   8.018   9.433 -0.1651 -3.0511 -0.2767
  583MOL0     H78666   8.812   7.740   9.507 -0.4696  1.5923  0.7520
  583MOL0     H78667   8.675   7.792   9.403 -0.2950 -1.1174 -1.4722
  583MOL0     H78668   8.779   7.663   9.353 -0.6048  0.3007 -0.6179
  583MOL0     H78669   8.973   7.509   8.942 -0.5046  1.1621  0.8879
  583MOL0     H78670   8.949   7.254   8.891 -0.3214 -0.6413  0.9175
  583MOL0     H78671   8.738   7.035   8.897 -0.1941 -0.2791 -1.3766
  583MOL0     H78672   8.918   7.045   8.862  0.3905 -2.9219 -2.0307
  583MOL0     H78673   8.941   6.826   8.954 -0.0222  1.2885  1.0415
  583MOL0     H78674   8.779   6.840   9.043 -1.0843 -3.7684 -1.5801
  583MOL0     H78675   8.780   6.817   8.745  0.8851 -1.6601 -0.3304
  583MOL0     H78676   8.652   6.845   8.861 -1.3854 -1.2287 -3.8338
  583MOL0     H78677   8.836   6.605   8.854  0.7404  1.4481 -1.7596
  583MOL0     H78678   8.694   6.626   8.964  0.7699 -3.1479 -0.2351
  583MOL0     H78679   8.661   6.620   8.660 -1.1316 -0.3938 -0.8279
  583MOL0     H78680   8.552   6.673   8.779  1.2893 -0.3755  2.1649
  583MOL0     H78681   8.562   6.432   8.885  1.9737 -0.1895  0.9079
  583MOL0     H78682   8.505   6.440   8.721 -0.8003  0.4266  1.1549
  583MOL0     H78683   8.727   6.296   8.829  0.9382 -0.7400 -0.4479
  583MOL0     H78684   8.798   6.415   8.718  0.1990 -1.6824 -0.5236
  583MOL0     H78685   8.760   6.203   8.602 -1.3121 -2.4276  2.0576
  583MOL0     H78686   8.639   6.321   8.544 -5.7062 -1.7930  0.5332
  583MOL0     H78687   8.819   7.183   9.275 -2.3612 -0.5527 -1.4542
  583MOL0     H78688   8.816   7.438   9.323 -0.9582 -0.9205 -1.0528
  583MOL0     H78689   9.168   7.881   9.155  1.4168  1.7558  1.0520
  583MOL0     H78690   9.119   8.128   9.207  0.5740  1.1664  2.3475
  583MOL0     H78691   8.010   9.168  10.399  1.6247 -1.1691 -0.0272
  583MOL0     H78692   7.887   9.367  10.342  1.2700 -1.1991 -1.6957
  583MOL0     H78693   7.630   9.715  10.640  1.0302  0.3587  1.6309
  583MOL0     H78694   7.515   9.919  10.655 -0.7213 -0.6467 -1.2975
  583MOL0     H78695   7.759  10.265  10.537  0.6646 -1.0778 -0.5811
  583MOL0     H78696   7.643  10.296  10.405  1.6425 -1.1832 -0.3043
  583MOL0     H78697   7.582  10.367  10.705 -2.5077  0.9015 -0.0748
  583MOL0     H78698   7.492  10.405  10.560 -0.6202  2.4701  1.1978
  583MOL0     H78699   7.707  10.518  10.472  2.5815  1.7373  1.3032
  583MOL0     H78700   7.779  10.496  10.622  1.3748  4.4223 -1.8530
  583MOL0     H78701   7.597  10.630  10.737 -2.3620  1.9921 -0.4849
  583MOL0     H78702   7.511  10.646  10.584 -0.7181  1.9917  1.0797
  583MOL0     H78703   7.787  10.946  10.540 -1.5204 -0.0926 -0.9513
  583MOL0     H78704   7.792  10.096  10.383 -0.2351  0.4992  0.3896
  583MOL0     H78705   7.894   9.882  10.349 -0.5102  2.2166 -0.4356
  584MOL0     O78706   9.500   3.141   2.231 -0.5403  0.2057 -0.6074
  584MOL0     C78707   9.543   3.144   2.350  0.9449 -0.0185  0.8763
  584MOL0     O78708   9.625   3.247   2.394 -0.3087 -0.2048 -0.2649
  584MOL0     C78709   9.670   3.334   2.299 -0.1064  0.4641  0.2017
  584MOL0     C78710   9.614   3.459   2.276  0.7549 -1.1375 -1.2334
  584MOL0     C78711   9.663   3.538   2.172  0.0784  0.5849  0.4064
  584MOL0     C78712   9.763   3.499   2.082  0.1722 -0.8284 -0.3668
  584MOL0     O78713   9.809   3.595   1.991 -0.5668  0.0931  0.6220
  584MOL0     C78714   9.854   3.537   1.869 -0.3610 -0.4482  0.7646
  584MOL0     C78715   9.896   3.653   1.778 -0.2778  0.1612  0.7363
  584MOL0     C78716   9.988   3.612   1.670  0.0376 -0.5714  0.4985
  584MOL0     C78717  10.044   3.728   1.581 -0.7751  0.1522  0.7325
  584MOL0     C78718  10.162   3.678   1.491 -0.1925  1.2034 -0.7367
  584MOL0     C78719  10.127   3.635   1.345  0.4980 -0.2800 -0.0887
  584MOL0     C78720  10.234   3.676   1.253  0.7727 -0.0485  0.2735
  584MOL0     C78721  10.211   3.822   1.199 -1.1932  0.1816 -1.0137
  584MOL0     N78722  10.130   3.833   1.070  0.6953  0.8367 -0.6473
  584MOL0     C78723   9.991   3.853   1.069 -0.8318 -0.5454  0.6151
  584MOL0     C78724   9.956   3.854   0.933  0.8146  0.4079 -0.2440
  584MOL0     C78725   9.814   3.864   0.882 -0.2493 -0.1548 -0.5847
  584MOL0     C78726   9.722   3.747   0.927 -0.1200  0.2169 -0.1002
  584MOL0     C78727   9.747   3.621   0.876  0.3813 -0.3255  0.3024
  584MOL0     C78728   9.698   3.594   0.727 -0.3424  0.3138  0.7693
  584MOL0     O78729   9.692   3.454   0.718 -0.3600  0.8998  0.1288
  584MOL0     C78730   9.672   3.381   0.597 -0.8674  0.1282 -0.1584
  584MOL0     C78731   9.688   3.243   0.600  0.1158 -1.0193  0.5025
  584MOL0     C78732   9.683   3.158   0.483 -0.5433 -0.0074  0.5814
  584MOL0     C78733   9.710   3.009   0.501 -0.6084  0.5108  0.4749
  584MOL0     C78734   9.665   3.219   0.355 -0.2543 -0.4192 -0.0810
  584MOL0     C78735   9.647   3.145   0.231 -0.2838  0.3690 -0.3313
  584MOL0     O78736   9.602   3.015   0.238 -0.1624 -0.5214  0.2678
  584MOL0     C78737   9.525   2.969   0.132  0.2576 -0.5173 -0.9084
  584MOL0     C78738   9.414   3.033   0.083  0.4940  0.0053  0.3361
  584MOL0     C78739   9.348   2.982  -0.027  0.1268  0.7795  0.3148
  584MOL0     C78740   9.386   2.862  -0.092  0.5685 -0.0881  0.1211
  584MOL0     O78741   9.313   2.826  -0.205  0.3976 -0.3784 -0.2209
  584MOL0     C78742   9.373   2.744  -0.303 -0.2494 -0.4150  0.3262
  584MOL0     C78743   9.506   2.808  -0.368 -0.3707  1.0900  0.0629
  584MOL0     C78744   9.478   2.952  -0.415 -0.4050  0.4123 -1.0523
  584MOL0     C78745   9.607   3.045  -0.401  0.7884 -0.2927  0.2226
  584MOL0     C78746   9.593   3.188  -0.453 -0.1496 -0.2920 -0.3358
  584MOL0     C78747   9.497   3.273  -0.377 -0.0523  0.3908  0.4641
  584MOL0     C78748   9.544   3.277  -0.233  0.8434 -0.3693 -0.1636
  584MOL0     C78749   9.447   3.383  -0.168 -0.0791 -0.3216  0.6017
  584MOL0    Cl78750   9.274   3.328  -0.170 -0.0929  0.0539 -0.0072
  584MOL0     C78751   9.495   2.796  -0.031  0.8667  0.0311 -0.8896
  584MOL0     C78752   9.558   2.844   0.084  0.1443  0.5949 -0.5637
  584MOL0     O78753   9.674   3.199   0.127  0.1705  0.4903  0.0803
  584MOL0     C78754   9.641   3.353   0.353  0.3122 -0.0780  0.2023
  584MOL0     C78755   9.646   3.433   0.472 -0.6837 -0.1159  1.0121
  584MOL0     N78756  10.071   3.825   0.862 -0.4028 -0.3333  1.1389
  584MOL0     N78757  10.173   3.820   0.938  0.0344  0.3889  0.7815
  584MOL0     C78758   9.821   3.376   2.113 -0.4304  0.2428  0.6396
  584MOL0     C78759   9.775   3.292   2.214 -0.2235  0.2109 -0.5847
  584MOL0     C78760   9.502   3.028   2.441 -0.0580  0.6418 -0.4506
  584MOL0     C78761   9.506   3.036   2.581  0.1283  0.1409  1.0670
  584MOL0     C78762   9.480   2.923   2.661  0.7665 -0.5458  0.4652
  584MOL0     C78763   9.459   2.802   2.604  0.0058 -0.0339  0.1421
  584MOL0     O78764   9.438   2.686   2.669  0.6534 -0.8279 -0.9322
  584MOL0     C78765   9.549   2.590   2.658  0.7118  0.1197 -0.8182
  584MOL0     C78766   9.692   2.639   2.692  0.1067  0.0464 -0.4148
  584MOL0     C78767   9.796   2.536   2.652  0.3374  0.9151  0.5701
  584MOL0     C78768   9.765   2.403   2.729  0.1897  0.8692 -0.2248
  584MOL0     C78769   9.693   2.305   2.646 -0.0885 -0.0621 -0.9047
  584MOL0     C78770   9.636   2.237   2.558 -0.4145 -0.6351  0.3411
  584MOL0     C78771   9.448   2.792   2.466  0.4882 -0.4332  0.0200
  584MOL0     C78772   9.475   2.899   2.384 -0.3656  0.1954  0.2037
  584MOL0     H78773   9.538   3.495   2.344  0.6691 -4.3864  0.5499
  584MOL0     H78774   9.610   3.631   2.150 -1.3396 -0.1082  0.7864
  584MOL0     H78775   9.938   3.468   1.883 -2.2468 -3.2435 -0.6259
  584MOL0     H78776   9.773   3.489   1.812 -2.8325  1.6567  2.2823
  584MOL0     H78777   9.808   3.695   1.727 -1.3903 -0.2705  2.2550
  584MOL0     H78778   9.946   3.731   1.837 -1.2601  1.3886 -0.0059
  584MOL0     H78779  10.076   3.562   1.711  1.7222  1.3876 -0.5359
  584MOL0     H78780   9.930   3.543   1.608 -1.0537 -1.2402  2.1947
  584MOL0     H78781   9.963   3.760   1.514 -0.5437 -1.9995 -0.6739
  584MOL0     H78782  10.086   3.808   1.643 -1.4915  0.6181  0.6412
  584MOL0     H78783  10.228   3.765   1.483 -0.2226  1.2466 -0.5053
  584MOL0     H78784  10.226   3.601   1.536 -1.7863 -0.9862 -2.0528
  584MOL0     H78785  10.102   3.529   1.335  2.2363 -0.7634  0.2351
  584MOL0     H78786  10.037   3.691   1.320 -1.0547 -1.7059  2.0029
  584MOL0     H78787  10.335   3.659   1.293  1.0627  1.8507  0.4707
  584MOL0     H78788  10.237   3.620   1.159  2.1090  0.8170 -0.2448
  584MOL0     H78789  10.312   3.859   1.184  0.3978 -1.8662  3.0596
  584MOL0     H78790  10.164   3.894   1.267  2.7562 -1.4968  4.0523
  584MOL0     H78791   9.936   3.871   1.160  1.7987 -1.7482  2.5730
  584MOL0     H78792   9.776   3.962   0.913  2.2523  0.5345  0.5908
  584MOL0     H78793   9.816   3.857   0.773  0.9623 -1.3543 -0.5058
  584MOL0     H78794   9.624   3.781   0.894 -0.8765 -1.4668  0.3268
  584MOL0     H78795   9.726   3.737   1.036  0.1671  1.7353  0.0487
  584MOL0     H78796   9.687   3.553   0.937 -2.1562 -0.2600 -1.9424
  584MOL0     H78797   9.852   3.594   0.894  0.4148  1.0216  2.3572
  584MOL0     H78798   9.763   3.629   0.646 -1.5624 -0.6076 -0.6383
  584MOL0     H78799   9.602   3.645   0.716  0.9753  3.2265  1.7432
  584MOL0     H78800   9.706   3.203   0.699 -0.9457  1.0226  1.5867
  584MOL0     H78801   9.790   2.979   0.433 -1.1954 -1.3563  0.5642
  584MOL0     H78802   9.759   2.990   0.597  1.3925  0.1715 -0.5669
  584MOL0     H78803   9.626   2.941   0.482 -0.4301  0.3757  0.1662
  584MOL0     H78804   9.376   3.131   0.110 -0.3204 -0.4994  1.1145
  584MOL0     H78805   9.258   3.035  -0.056  1.6134  3.5586  0.4799
  584MOL0     H78806   9.398   2.651  -0.251 -0.6515  0.3813  1.9768
  584MOL0     H78807   9.284   2.730  -0.364 -1.9116  0.6363  2.3965
  584MOL0     H78808   9.586   2.805  -0.293 -0.1388 -1.5220 -0.2017
  584MOL0     H78809   9.533   2.747  -0.454 -0.0114  0.2029  0.7854
  584MOL0     H78810   9.402   2.995  -0.349  1.4339 -0.9133  2.1588
  584MOL0     H78811   9.436   2.942  -0.516 -1.5240 -2.5500 -0.3869
  584MOL0     H78812   9.651   3.035  -0.301 -2.6081  1.1342  2.0162
  584MOL0     H78813   9.675   2.997  -0.471  2.5747  0.1345  1.5790
  584MOL0     H78814   9.562   3.192  -0.557  0.0767  2.5157 -0.3887
  584MOL0     H78815   9.690   3.239  -0.445 -0.5835  0.3366  1.6008
  584MOL0     H78816   9.493   3.376  -0.413 -0.1156  0.1611 -0.1872
  584MOL0     H78817   9.395   3.235  -0.389  0.5375 -0.9724 -0.4926
  584MOL0     H78818   9.644   3.318  -0.218  0.4637 -0.2666  2.4674
  584MOL0     H78819   9.533   3.186  -0.174 -3.2797  1.1925  1.8856
  584MOL0     H78820   9.454   3.475  -0.226  1.7709 -2.5798 -3.1399
  584MOL0     H78821   9.472   3.401  -0.063 -1.2992  2.2316  0.5430
  584MOL0     H78822   9.536   2.711  -0.083  3.3479 -0.1467  1.1941
  584MOL0     H78823   9.642   2.800   0.135  1.0288  1.7549 -0.9742
  584MOL0     H78824   9.607   3.396   0.260 -0.0391 -4.3624 -1.8907
  584MOL0     H78825   9.629   3.540   0.460  1.8537  0.3057  0.5333
  584MOL0     H78826   9.900   3.334   2.051 -2.1812  2.3069 -3.3125
  584MOL0     H78827   9.816   3.194   2.237 -1.8441 -0.0270  1.5526
  584MOL0     H78828   9.525   3.130   2.633 -5.3052 -0.1085  4.2199
  584MOL0     H78829   9.477   2.946   2.767  4.8701  2.4776  0.1708
  584MOL0     H78830   9.520   2.513   2.730 -1.9912  0.2495 -1.6655
  584MOL0     H78831   9.556   2.537   2.563 -1.9698 -0.3160 -0.8690
  584MOL0     H78832   9.695   2.666   2.798  3.7710 -1.9410  0.1673
  584MOL0     H78833   9.714   2.732   2.639 -1.3662  1.3825  1.2092
  584MOL0     H78834   9.896   2.561   2.688  0.9352 -2.8598  2.0591
  584MOL0     H78835   9.796   2.532   2.542  1.9563  1.0145  0.5402
  584MOL0     H78836   9.722   2.416   2.829 -0.5232 -2.3786  0.0093
  584MOL0     H78837   9.866   2.360   2.737  0.9904  2.6215 -0.6112
  584MOL0     H78838   9.601   2.191   2.468  3.3231 -0.7798 -1.2262
  584MOL0     H78839   9.460   2.706   2.401  2.3579 -0.5683  0.4823
  584MOL0     H78840   9.492   2.898   2.276 -0.9511 -1.7372  0.0806
  585MOL0     O78841   0.588   6.393   8.141  0.2239  0.3744 -0.3211
  585MOL0     C78842   0.698   6.413   8.085  0.3260 -0.0352  0.0226
  585MOL0     O78843   0.757   6.338   7.982  0.9730 -0.3415 -0.1805
  585MOL0     C78844   0.685   6.229   7.932  0.3488  0.2231 -0.1818
  585MOL0     C78845   0.587   6.238   7.838  0.6545  1.1579  0.3833
  585MOL0     C78846   0.531   6.112   7.786  0.1050  0.0941  0.3772
  585MOL0     C78847   0.560   5.993   7.852 -0.5227  0.0570  0.7107
  585MOL0     O78848   0.502   5.871   7.837 -0.3773  0.0163  0.3400
  585MOL0     C78849   0.380   5.854   7.776 -0.3136  0.6020 -0.6026
  585MOL0     C78850   0.360   5.711   7.710 -0.5520 -1.0255 -0.8832
  585MOL0     C78851   0.372   5.604   7.811  0.2933  0.1611 -0.8076
  585MOL0     C78852   0.291   5.478   7.770 -0.4048  0.8231  0.5337
  585MOL0     C78853   0.292   5.380   7.893  0.1088 -0.1548 -0.1634
  585MOL0     C78854   0.206   5.244   7.879 -0.1984 -0.4007  0.4426
  585MOL0     C78855   0.265   5.152   7.770  0.1067 -0.0361 -0.2154
  585MOL0     C78856   0.202   5.017   7.748  0.6476  0.7574 -0.1857
  585MOL0     N78857   0.270   4.947   7.641  0.4092 -0.2062 -0.7029
  585MOL0     C78858   0.246   4.962   7.504  0.4191 -0.3483 -0.1733
  585MOL0     C78859   0.337   4.881   7.447 -0.1052  0.6852  1.3171
  585MOL0     C78860   0.340   4.876   7.302 -0.7291  0.0001  0.0358
  585MOL0     C78861   0.486   4.901   7.251 -0.6834  0.6610 -0.1253
  585MOL0     C78862   0.500   5.005   7.145 -0.2279 -0.3975  0.1117
  585MOL0     C78863   0.476   5.153   7.189 -0.6544 -0.0060 -0.9373
  585MOL0     O78864   0.345   5.187   7.232  0.6341 -0.2484  0.9945
  585MOL0     C78865   0.242   5.215   7.141 -0.7204 -0.5988  0.1445
  585MOL0     C78866   0.258   5.226   6.998 -1.2576  0.5277 -0.0315
  585MOL0     C78867   0.152   5.272   6.922  0.4636 -0.0912  0.1515
  585MOL0     C78868   0.180   5.291   6.770 -0.0394  0.4001  0.9471
  585MOL0     C78869   0.031   5.304   6.983 -0.4396 -0.2933 -0.2283
  585MOL0     C78870  -0.080   5.371   6.914 -0.1365  0.0256  0.1648
  585MOL0     O78871  -0.209   5.351   6.966 -0.6372  0.2331  0.5299
  585MOL0     C78872  -0.328   5.379   6.895 -0.5524  0.9148 -0.7889
  585MOL0     C78873  -0.340   5.398   6.751 -0.7310 -0.2072 -0.1736
  585MOL0     C78874  -0.460   5.450   6.710 -0.0074  0.1319  0.0543
  585MOL0     C78875  -0.566   5.481   6.797  0.2417  0.2453 -0.1416
  585MOL0     O78876  -0.679   5.563   6.773  0.0383  0.1828  0.6748
  585MOL0     C78877  -0.749   5.520   6.652  0.8874  0.1009  0.0367
  585MOL0     C78878  -0.789   5.644   6.581 -0.7567  1.0561  0.2427
  585MOL0     C78879  -0.887   5.722   6.676  0.5832  0.4582  1.0914
  585MOL0     C78880  -0.870   5.872   6.643  0.3991 -0.1105  0.1665
  585MOL0     C78881  -0.993   5.957   6.686  0.6930 -0.0479  0.0236
  585MOL0     C78882  -0.968   6.106   6.665 -0.3740  0.4479  1.2904
  585MOL0     C78883  -1.075   6.195   6.737  0.0162  0.4251 -0.1129
  585MOL0     C78884  -1.067   6.336   6.691 -0.0747  0.5623 -0.0614
  585MOL0    Cl78885  -0.890   6.388   6.691 -0.2701 -0.3187  0.0134
  585MOL0     C78886  -0.550   5.450   6.929  0.0828 -0.2855 -0.2125
  585MOL0     C78887  -0.440   5.393   6.979 -0.0256  0.7326 -0.6959
  585MOL0     O78888  -0.056   5.445   6.822 -0.0867  0.5502  0.1386
  585MOL0     C78889   0.011   5.280   7.123 -1.0454 -0.2331 -0.2918
  585MOL0     C78890   0.120   5.243   7.198  0.9283 -0.1168 -0.2209
  585MOL0     N78891   0.408   4.806   7.547  0.4070  0.0808  1.3358
  585MOL0     N78892   0.361   4.850   7.654 -0.6055  0.1468 -0.3061
  585MOL0     C78893   0.673   5.989   7.942  0.1571 -0.1613  0.6365
  585MOL0     C78894   0.732   6.105   7.980 -0.1724  0.6884 -0.1442
  585MOL0     C78895   0.780   6.514   8.167 -0.5108 -0.1149 -0.5175
  585MOL0     C78896   0.913   6.542   8.130  0.1497  0.5770 -0.4385
  585MOL0     C78897   0.992   6.630   8.198  0.6081 -0.1035 -0.9942
  585MOL0     C78898   0.937   6.715   8.297 -0.6007  0.1903  0.4812
  585MOL0     O78899   1.007   6.806   8.375 -0.0701  0.3102 -0.8086
  585MOL0     C78900   1.139   6.831   8.331  0.2743 -0.8913 -0.0162
  585MOL0     C78901   1.132   6.924   8.217  1.0916 -0.6319 -0.1702
  585MOL0     C78902   1.114   7.071   8.271 -0.7930 -0.1554 -0.2851
  585MOL0     C78903   1.236   7.159   8.283 -0.1651  0.5142  0.0785
  585MOL0     C78904   1.324   7.088   8.377 -0.4046 -0.1102 -0.4348
  585MOL0     C78905   1.400   7.029   8.447 -0.1289  0.4794 -0.6127
  585MOL0     C78906   0.804   6.690   8.326  0.2611  0.0710  0.4723
  585MOL0     C78907   0.733   6.583   8.273  0.5068 -0.4798 -0.2339
  585MOL0     H78908   0.558   6.336   7.804 -1.2683  0.6429  0.4118
  585MOL0     H78909   0.469   6.118   7.697  1.5463 -2.0416 -0.8437
  585MOL0     H78910   0.301   5.871   7.849  0.7697 -1.9785  1.3282
  585MOL0     H78911   0.366   5.931   7.700 -2.5256  1.5697  0.6958
  585MOL0     H78912   0.256   5.715   7.675 -0.4311  1.9734 -1.1810
  585MOL0     H78913   0.432   5.692   7.631  2.8808  2.7492  0.9601
  585MOL0     H78914   0.476   5.576   7.831  0.6037  0.5354 -1.8278
  585MOL0     H78915   0.326   5.628   7.907 -0.0354 -2.6559 -0.1851
  585MOL0     H78916   0.186   5.500   7.746 -0.1041  0.3327 -1.4389
  585MOL0     H78917   0.332   5.448   7.673  1.7822 -0.1853  1.7008
  585MOL0     H78918   0.393   5.344   7.914 -0.1989 -0.1092  1.5716
  585MOL0     H78919   0.267   5.441   7.981  2.6573  0.6228  0.0939
  585MOL0     H78920   0.192   5.195   7.976  1.1824 -2.0129 -0.1221
  585MOL0     H78921   0.106   5.276   7.850 -1.1319 -2.0419  1.7140
  585MOL0     H78922   0.277   5.210   7.677  2.5135 -1.2406 -0.7259
  585MOL0     H78923   0.372   5.144   7.791 -0.2019 -1.9125  0.8160
  585MOL0     H78924   0.098   5.037   7.718  1.3786  2.9722 -1.4564
  585MOL0     H78925   0.208   4.967   7.845 -0.0451  1.7590  0.3955
  585MOL0     H78926   0.177   5.022   7.445  2.6218 -0.3559 -2.9795
  585MOL0     H78927   0.303   4.777   7.272 -1.2317 -0.3115  1.5954
  585MOL0     H78928   0.267   4.942   7.254 -0.6689  0.6784  0.8580
  585MOL0     H78929   0.526   4.810   7.206 -0.0611  1.0055 -0.2783
  585MOL0     H78930   0.553   4.928   7.332  1.1966  1.1002 -1.7486
  585MOL0     H78931   0.438   4.977   7.059  1.1490 -1.5407 -0.5377
  585MOL0     H78932   0.596   4.999   7.094 -0.9828  2.6818 -1.9542
  585MOL0     H78933   0.506   5.214   7.103  0.6846  1.5138  0.5532
  585MOL0     H78934   0.542   5.175   7.273 -0.3939  1.1272 -1.4193
  585MOL0     H78935   0.354   5.224   6.947 -0.9371  2.9680  0.3771
  585MOL0     H78936   0.180   5.397   6.743  2.2556  1.2468  3.6653
  585MOL0     H78937   0.272   5.250   6.726 -0.4745  0.0643  0.3362
  585MOL0     H78938   0.103   5.238   6.714 -0.7157  3.8190 -1.6886
  585MOL0     H78939  -0.260   5.394   6.677  0.6005  0.6869  1.1473
  585MOL0     H78940  -0.462   5.479   6.605  2.0261 -0.4733 -0.2014
  585MOL0     H78941  -0.707   5.430   6.606 -0.6352 -1.2640  1.2134
  585MOL0     H78942  -0.847   5.486   6.686  1.2801 -0.5706  0.5304
  585MOL0     H78943  -0.703   5.703   6.548 -0.3411 -0.6919 -2.0491
  585MOL0     H78944  -0.832   5.632   6.481  2.5129  1.3179 -1.3540
  585MOL0     H78945  -0.887   5.686   6.779 -2.2456  0.3557  1.1357
  585MOL0     H78946  -0.987   5.688   6.646  1.1026 -0.5103  0.4414
  585MOL0     H78947  -0.782   5.919   6.687 -0.4329  2.9136 -1.1763
  585MOL0     H78948  -0.847   5.872   6.536  2.4789  0.7866  0.5665
  585MOL0     H78949  -1.008   5.943   6.793  0.8421  0.7809  0.1576
  585MOL0     H78950  -1.077   5.918   6.628  0.5199  0.2359  0.0842
  585MOL0     H78951  -0.872   6.133   6.711  1.1387 -0.3100 -1.2267
  585MOL0     H78952  -0.972   6.131   6.559 -0.7408  0.2889  1.2649
  585MOL0     H78953  -1.052   6.198   6.844 -2.6965 -0.6499  0.6015
  585MOL0     H78954  -1.171   6.147   6.717 -0.8850  0.4583  3.4007
  585MOL0     H78955  -1.118   6.400   6.764 -0.2303 -0.3886  0.6707
  585MOL0     H78956  -1.094   6.354   6.586  1.4459  3.9364 -0.0049
  585MOL0     H78957  -0.631   5.474   6.998  1.2538 -0.9826  1.4628
  585MOL0     H78958  -0.442   5.372   7.085  0.9506 -1.3929 -1.0359
  585MOL0     H78959  -0.080   5.304   7.178 -1.7385 -0.0711 -1.4754
  585MOL0     H78960   0.108   5.246   7.305 -1.3112  1.0938 -0.4493
  585MOL0     H78961   0.697   5.897   7.996 -2.5883 -0.9637  0.6538
  585MOL0     H78962   0.810   6.116   8.056  0.2915  0.0532 -0.5182
  585MOL0     H78963   0.955   6.485   8.048 -2.2669 -3.0694  0.6198
  585MOL0     H78964   1.096   6.636   8.168  1.1169  1.8352  0.9263
  585MOL0     H78965   1.192   6.881   8.413 -0.9047 -0.5804  0.5770
  585MOL0     H78966   1.193   6.739   8.307 -0.8995 -1.2232 -1.5550
  585MOL0     H78967   1.047   6.906   8.150 -0.8621  2.7572  1.1580
  585MOL0     H78968   1.226   6.914   8.161  1.3690  2.2040 -0.3473
  585MOL0     H78969   1.060   7.071   8.366  0.1081 -0.4755  0.2439
  585MOL0     H78970   1.059   7.125   8.195 -0.6923 -1.1696 -1.1091
  585MOL0     H78971   1.210   7.258   8.323  3.2618  2.3552 -1.8365
  585MOL0     H78972   1.281   7.172   8.184  2.5557 -0.8471  1.0193
  585MOL0     H78973   1.464   6.969   8.510 -1.8025 -0.7805 -0.0462
  585MOL0     H78974   0.767   6.754   8.406  4.5309  3.6186 -0.0132
  585MOL0     H78975   0.629   6.565   8.300  0.6085  1.6275  1.8802
  586MOL0     O78976   1.203  10.119   4.309 -0.2664  0.8441  0.8234
  586MOL0     C78977   1.171  10.050   4.401  0.0838  0.7990 -0.1428
  586MOL0     O78978   1.098  10.089   4.516 -0.5690  0.1255  0.4156
  586MOL0     C78979   1.058  10.213   4.542  0.3670 -0.0509 -0.1106
  586MOL0     C78980   1.071  10.331   4.467  0.2363 -0.4642 -0.5548
  586MOL0     C78981   1.008  10.459   4.501 -1.1512 -0.6451  0.0350
  586MOL0     C78982   0.938  10.459   4.618 -0.1662  0.6213 -0.0864
  586MOL0     O78983   0.876  10.578   4.648 -0.1761  0.4321 -0.0728
  586MOL0     C78984   0.778  10.592   4.748 -0.9040 -0.8245 -0.3447
  586MOL0     C78985   0.850  10.631   4.876  0.4661  0.3260 -0.1038
  586MOL0     C78986   0.871  10.779   4.886 -0.7838  0.9183  0.5184
  586MOL0     C78987   0.941  10.808   5.019  0.4736 -0.5793 -0.2777
  586MOL0     C78988   0.939  10.963   5.051  0.3084  0.1259 -0.1841
  586MOL0     C78989   1.015  11.042   4.943 -0.2646  0.8739  0.2628
  586MOL0     C78990   1.051  11.188   4.980  0.2296  0.3310  1.4785
  586MOL0     C78991   0.922  11.271   5.004  0.2051 -0.9427 -0.7168
  586MOL0     N78992   0.944  11.412   5.026  0.7044 -0.8100  0.1172
  586MOL0     C78993   0.902  11.519   4.946  0.7946 -0.0236 -0.2522
  586MOL0     C78994   0.941  11.628   5.011 -0.0830  0.6976 -0.9804
  586MOL0     C78995   0.910  11.762   4.957 -0.4380 -0.1618 -0.3533
  586MOL0     C78996   0.961  11.875   5.053 -0.8936 -0.3100 -0.3058
  586MOL0     C78997   0.927  12.013   5.005 -0.3184  0.0045 -0.4196
  586MOL0     C78998   1.021  12.051   4.888  0.4840 -0.0703 -0.4150
  586MOL0     O78999   0.948  12.078   4.764  0.7830 -0.2181 -0.4303
  586MOL0     C79000   1.013  12.109   4.649  0.4296 -0.2524  0.4322
  586MOL0     C79001   1.153  12.134   4.641  0.1966  0.1864  0.6368
  586MOL0     C79002   1.212  12.167   4.520 -0.7125  0.9605  1.0447
  586MOL0     C79003   1.364  12.189   4.522 -0.6601 -0.7415 -0.5315
  586MOL0     C79004   1.129  12.182   4.405  0.0299  0.3141 -0.2546
  586MOL0     C79005   1.185  12.225   4.276  0.9318  0.4920 -0.0889
  586MOL0     O79006   1.254  12.339   4.280 -1.4112 -0.1999  0.5792
  586MOL0     C79007   1.308  12.383   4.160 -0.3834  0.6144 -0.4932
  586MOL0     C79008   1.446  12.415   4.152  0.1478 -0.7499  0.9158
  586MOL0     C79009   1.501  12.440   4.031 -0.2482 -0.0381 -0.0545
  586MOL0     C79010   1.424  12.457   3.918 -0.2885 -0.4230  0.2512
  586MOL0     O79011   1.474  12.483   3.798 -0.1761 -0.7907 -0.0079
  586MOL0     C79012   1.580  12.400   3.756 -0.0418  0.8432  0.5629
  586MOL0     C79013   1.619  12.442   3.616  0.7980  0.2232  0.0355
  586MOL0     C79014   1.756  12.403   3.575 -0.1150  0.4397  0.3410
  586MOL0     C79015   1.814  12.474   3.451 -0.2749  0.3694  0.6180
  586MOL0     C79016   1.825  12.391   3.324  1.0076 -0.5696 -0.8380
  586MOL0     C79017   1.686  12.338   3.270  0.8851  1.4544 -0.5231
  586MOL0     C79018   1.699  12.201   3.206  0.8761 -0.5749 -0.0588
  586MOL0     C79019   1.580  12.171   3.102 -0.1503  0.5009 -0.5947
  586MOL0    Cl79020   1.441  12.134   3.207 -0.0371  0.0173 -0.3932
  586MOL0     C79021   1.285  12.434   3.920  0.4712 -0.1023  0.2832
  586MOL0     C79022   1.229  12.400   4.046  0.5698 -1.1834 -0.3533
  586MOL0     O79023   1.153  12.162   4.175 -0.1332 -0.3947  0.0181
  586MOL0     C79024   0.996  12.163   4.421 -0.1637 -0.4940  0.5632
  586MOL0     C79025   0.936  12.131   4.539 -0.0075  0.3595 -0.6191
  586MOL0     N79026   0.991  11.590   5.138  0.1672 -0.2072 -1.2911
  586MOL0     N79027   0.992  11.462   5.143 -0.4698 -0.3727  1.5355
  586MOL0     C79028   0.939  10.349   4.698 -0.5830 -0.8175 -0.2728
  586MOL0     C79029   0.998  10.229   4.665 -0.3232 -0.4837  0.4126
  586MOL0     C79030   1.191   9.907   4.385 -0.1075 -0.2306 -0.1180
  586MOL0     C79031   1.248   9.857   4.270 -0.9605 -0.3562  0.2970
  586MOL0     C79032   1.271   9.723   4.243  0.1749 -0.5188 -0.5854
  586MOL0     C79033   1.228   9.634   4.343  0.2489 -0.4553  0.0941
  586MOL0     O79034   1.250   9.499   4.343 -0.4074 -0.0304  0.4398
  586MOL0     C79035   1.140   9.447   4.268  0.3207 -0.1192 -0.8611
  586MOL0     C79036   1.183   9.297   4.233 -0.3307 -0.1436  0.6640
  586MOL0     C79037   1.051   9.224   4.194 -0.0359 -0.1206 -0.9512
  586MOL0     C79038   1.080   9.084   4.154 -0.0609  0.4053  0.6857
  586MOL0     C79039   1.105   9.095   4.007  0.4404 -0.0036 -0.2056
  586MOL0     C79040   1.106   9.106   3.886 -0.5367  0.3571  0.2670
  586MOL0     C79041   1.149   9.679   4.455  1.1283 -0.4570 -0.3705
  586MOL0     C79042   1.130   9.814   4.474  0.2129  0.2247 -0.3328
  586MOL0     H79043   1.138  10.330   4.382  2.1374  2.8940  0.6806
  586MOL0     H79044   1.032  10.546   4.441 -1.8133  1.1160  2.1979
  586MOL0     H79045   0.709  10.672   4.718  1.2210  2.4944  2.7102
  586MOL0     H79046   0.721  10.506   4.783  0.1790 -0.8248  1.5596
  586MOL0     H79047   0.779  10.620   4.959 -0.2249 -0.6616 -0.8042
  586MOL0     H79048   0.942  10.576   4.900  1.3976  1.7184 -0.4109
  586MOL0     H79049   0.931  10.817   4.802  1.8048  0.0876  1.8583
  586MOL0     H79050   0.784  10.840   4.859  0.4065  2.0744 -0.9717
  586MOL0     H79051   0.900  10.747   5.099 -1.1329 -0.2383 -0.8008
  586MOL0     H79052   1.046  10.782   5.004  0.1121 -1.4249 -1.4367
  586MOL0     H79053   0.838  11.005   5.047  0.5623  0.7286 -0.3426
  586MOL0     H79054   0.984  10.983   5.149 -0.8380 -0.6269  0.5199
  586MOL0     H79055   1.104  10.984   4.915 -1.0090  0.3259 -1.0417
  586MOL0     H79056   0.954  11.055   4.853  0.8961  2.2660 -0.3527
  586MOL0     H79057   1.122  11.192   5.063 -0.5836 -0.8256  2.2520
  586MOL0     H79058   1.094  11.221   4.885 -1.4548  0.2108  0.6299
  586MOL0     H79059   0.869  11.236   5.092  0.0413  1.1612  0.0860
  586MOL0     H79060   0.852  11.263   4.921  1.4475 -2.5071 -1.6656
  586MOL0     H79061   0.841  11.507   4.857  2.4709  2.4705 -1.8882
  586MOL0     H79062   0.939  11.785   4.854  0.9957 -1.7510 -0.3555
  586MOL0     H79063   0.801  11.771   4.960 -0.6469 -2.1737 -0.0980
  586MOL0     H79064   1.068  11.877   5.074 -1.1061  0.4026  0.7647
  586MOL0     H79065   0.916  11.853   5.150  0.2699  1.2979  0.6438
  586MOL0     H79066   0.944  12.089   5.081  3.1722  2.2671 -3.1668
  586MOL0     H79067   0.823  12.034   4.978 -0.5566 -1.0508 -0.3864
  586MOL0     H79068   1.098  11.973   4.881  0.6829  0.0375  0.4277
  586MOL0     H79069   1.062  12.150   4.911 -2.1991  1.0482 -0.1330
  586MOL0     H79070   1.204  12.117   4.735  0.1826 -2.3722  0.2528
  586MOL0     H79071   1.397  12.292   4.506 -1.6858  0.2606  3.0371
  586MOL0     H79072   1.392  12.169   4.626  0.1034 -0.6088 -0.7020
  586MOL0     H79073   1.393  12.108   4.454 -1.8722 -1.8394  0.2333
  586MOL0     H79074   1.508  12.409   4.241  0.0464  1.2430  1.1744
  586MOL0     H79075   1.608  12.454   4.033 -0.1731 -0.5172 -0.4774
  586MOL0     H79076   1.673  12.394   3.813 -0.2999 -1.6667  0.8599
  586MOL0     H79077   1.545  12.297   3.745  0.0532  0.9213 -0.6579
  586MOL0     H79078   1.532  12.405   3.560  0.5856 -1.8247  1.5964
  586MOL0     H79079   1.610  12.551   3.619  1.8118  0.4292 -2.4547
  586MOL0     H79080   1.761  12.296   3.555  2.1138  0.8755 -1.9199
  586MOL0     H79081   1.827  12.419   3.657 -0.8598 -2.4389  1.6731
  586MOL0     H79082   1.760  12.568   3.439 -0.5812  0.1376  0.1784
  586MOL0     H79083   1.918  12.502   3.468 -0.2058 -0.0095  0.8467
  586MOL0     H79084   1.901  12.317   3.351  0.3835 -0.9990 -0.2371
  586MOL0     H79085   1.873  12.454   3.248 -0.0026  0.1650 -0.8849
  586MOL0     H79086   1.616  12.319   3.351 -0.9634  5.3126 -0.9979
  586MOL0     H79087   1.638  12.419   3.214 -0.1960  1.4269  0.3288
  586MOL0     H79088   1.696  12.123   3.283 -1.1169  0.1626  0.6690
  586MOL0     H79089   1.794  12.202   3.151  0.3949 -0.4197 -0.9067
  586MOL0     H79090   1.618  12.093   3.035 -0.8550  0.3694 -0.8477
  586MOL0     H79091   1.561  12.261   3.043  1.3464  0.6749 -0.8471
  586MOL0     H79092   1.213  12.455   3.841 -0.5848 -0.3161  1.1603
  586MOL0     H79093   1.121  12.386   4.044  0.7312 -2.6708 -0.1531
  586MOL0     H79094   0.926  12.190   4.343  1.0745  2.9641  0.4880
  586MOL0     H79095   0.828  12.127   4.546 -0.0966  1.3666 -1.1971
  586MOL0     H79096   0.884  10.355   4.792 -2.7240 -1.6395 -1.3861
  586MOL0     H79097   0.995  10.145   4.735 -1.1449  0.5836  1.7278
  586MOL0     H79098   1.287   9.919   4.189 -0.7712 -1.3160 -0.3601
  586MOL0     H79099   1.324   9.688   4.155  0.0233 -0.5604 -0.6608
  586MOL0     H79100   1.063   9.436   4.345  1.1867 -0.0822  0.0328
  586MOL0     H79101   1.103   9.506   4.184 -0.3834  2.3139  1.0686
  586MOL0     H79102   1.239   9.244   4.309  0.1389 -1.0920 -0.3182
  586MOL0     H79103   1.242   9.300   4.140 -2.4504  0.5393 -0.7436
  586MOL0     H79104   1.001   9.274   4.111 -1.1593 -0.8399 -0.7290
  586MOL0     H79105   0.986   9.222   4.282  0.3784  0.4879 -0.6285
  586MOL0     H79106   0.991   9.025   4.177 -0.3445  0.3207 -0.5355
  586MOL0     H79107   1.161   9.038   4.211 -0.5293 -0.1073  0.9446
  586MOL0     H79108   1.096   9.107   3.779 -2.2179  0.0525  0.3892
  586MOL0     H79109   1.118   9.612   4.534 -0.5962 -0.9998 -1.4680
  586MOL0     H79110   1.081   9.849   4.564 -0.5580 -1.6424  0.0161
  587MOL0     O79111   4.801   0.613   2.440 -0.3660 -0.5477 -0.4035
  587MOL0     C79112   4.783   0.711   2.510  0.2311  0.0625 -0.1106
  587MOL0     O79113   4.680   0.724   2.597  0.2651 -0.6033  0.0861
  587MOL0     C79114   4.586   0.630   2.615 -0.2087 -0.1499 -0.2112
  587MOL0     C79115   4.527   0.557   2.514 -0.9787  0.4150  0.5269
  587MOL0     C79116   4.413   0.477   2.543 -0.5183  0.9457  0.4333
  587MOL0     C79117   4.361   0.454   2.675  0.2533  0.1892 -0.3473
  587MOL0     O79118   4.249   0.373   2.697 -0.2530  0.4427  0.2463
  587MOL0     C79119   4.178   0.389   2.822 -0.1865 -0.7761 -0.2702
  587MOL0     C79120   4.044   0.321   2.811  0.4979  0.7210 -0.4081
  587MOL0     C79121   3.938   0.318   2.931  0.1368  0.5409 -1.6641
  587MOL0     C79122   3.935   0.451   3.004  0.4186 -0.2062 -0.1935
  587MOL0     C79123   3.819   0.445   3.104 -0.1851 -0.1169 -0.1527
  587MOL0     C79124   3.765   0.578   3.133 -0.1474  0.5130  0.6522
  587MOL0     C79125   3.642   0.575   3.233  0.7580  0.2363  0.2134
  587MOL0     C79126   3.694   0.564   3.384 -0.0289 -0.1993 -0.3707
  587MOL0     N79127   3.780   0.679   3.418  0.0135 -0.2488 -0.9865
  587MOL0     C79128   3.732   0.811   3.438 -1.2935 -1.0608  0.3513
  587MOL0     C79129   3.846   0.894   3.443 -0.2765  0.1987 -0.3171
  587MOL0     C79130   3.859   1.047   3.443 -0.7873  0.4482  0.4742
  587MOL0     C79131   3.921   1.096   3.313 -1.1260 -0.4423  0.9938
  587MOL0     C79132   4.071   1.094   3.305  0.6347  0.4425  0.6453
  587MOL0     C79133   4.108   1.171   3.175  0.7731  0.7798 -0.3621
  587MOL0     O79134   4.247   1.156   3.146  0.5148  1.0012  0.3734
  587MOL0     C79135   4.299   1.175   3.028 -0.1207  0.1517  0.1592
  587MOL0     C79136   4.368   1.069   2.980 -0.0130 -0.2776 -1.1224
  587MOL0     C79137   4.416   1.060   2.848 -0.0328 -0.5261  0.1750
  587MOL0     C79138   4.491   0.933   2.806 -0.0049  1.3904  0.4503
  587MOL0     C79139   4.376   1.166   2.759  0.0235  0.8816  1.0116
  587MOL0     C79140   4.400   1.149   2.610 -0.4725 -0.1559 -0.8832
  587MOL0     O79141   4.371   1.033   2.550  0.0401 -0.0937 -1.1386
  587MOL0     C79142   4.432   1.010   2.427  0.7985  0.4922  0.5725
  587MOL0     C79143   4.566   1.019   2.401  0.8395 -0.2120 -0.6151
  587MOL0     C79144   4.613   1.012   2.278 -0.2079  0.4850  1.1017
  587MOL0     C79145   4.528   0.977   2.164 -0.2016 -0.8861 -0.1174
  587MOL0     O79146   4.591   0.959   2.041  0.2841 -0.0037  0.7327
  587MOL0     C79147   4.570   0.830   1.979 -0.3718 -0.3153 -0.0631
  587MOL0     C79148   4.655   0.722   2.047 -0.7631 -1.2450 -0.5174
  587MOL0     C79149   4.810   0.749   2.064  0.7300 -0.5068  0.7168
  587MOL0     C79150   4.871   0.782   1.929 -0.0356  0.0823  0.2798
  587MOL0     C79151   5.027   0.755   1.929  0.2748  0.4808  0.6757
  587MOL0     C79152   5.098   0.759   1.796  0.0717 -0.1385 -0.1609
  587MOL0     C79153   5.078   0.628   1.713  0.2333  0.4239  0.0380
  587MOL0     C79154   5.168   0.601   1.589 -0.1279  0.0591 -0.4475
  587MOL0    Cl79155   5.309   0.482   1.637 -0.2040  0.3955 -0.2267
  587MOL0     C79156   4.396   0.962   2.194  0.4041 -0.5140 -0.3852
  587MOL0     C79157   4.347   0.970   2.323 -0.4855 -0.6773 -0.8237
  587MOL0     O79158   4.449   1.250   2.547  0.2427 -0.2454 -0.1424
  587MOL0     C79159   4.316   1.276   2.818  0.0779 -0.0557  0.6788
  587MOL0     C79160   4.283   1.287   2.953 -0.2424 -0.8819 -0.2821
  587MOL0     N79161   3.949   0.807   3.451  0.0563 -0.3185  0.2838
  587MOL0     N79162   3.916   0.678   3.445  0.6508 -0.9234  0.5810
  587MOL0     C79163   4.438   0.518   2.777 -0.4151 -0.3253  0.8617
  587MOL0     C79164   4.540   0.610   2.746 -0.8785  0.1156  0.1460
  587MOL0     C79165   4.866   0.831   2.471  0.0241 -0.0227 -0.3103
  587MOL0     C79166   4.851   0.947   2.554  0.6120  0.4208  0.8100
  587MOL0     C79167   4.927   1.059   2.532  0.1232 -0.8542 -0.6845
  587MOL0     C79168   5.028   1.061   2.431  0.8794  0.9174  0.8519
  587MOL0     O79169   5.097   1.167   2.387 -0.2250  0.1295  0.4154
  587MOL0     C79170   5.098   1.280   2.466 -0.5694 -0.7837 -0.0178
  587MOL0     C79171   5.218   1.348   2.418 -0.7441  0.3986 -0.1947
  587MOL0     C79172   5.224   1.391   2.269 -0.0983  0.8186  0.2836
  587MOL0     C79173   5.118   1.502   2.251  0.1557 -0.2984  0.2100
  587MOL0     C79174   5.159   1.601   2.149 -0.3313 -0.3322  0.1796
  587MOL0     C79175   5.195   1.675   2.060  0.0456  0.1006  0.2692
  587MOL0     C79176   5.039   0.949   2.350 -0.2231  0.1934  0.4731
  587MOL0     C79177   4.961   0.830   2.361  0.3745 -0.1513  0.1304
  587MOL0     H79178   4.562   0.549   2.411  0.8386  0.3408  1.1312
  587MOL0     H79179   4.352   0.455   2.456  0.2001  1.9078 -0.3254
  587MOL0     H79180   4.230   0.350   2.910  1.6300  2.2651  0.1712
  587MOL0     H79181   4.154   0.495   2.837 -1.9846 -0.3518 -4.5353
  587MOL0     H79182   3.988   0.351   2.722 -0.0345 -1.4088 -0.8403
  587MOL0     H79183   4.059   0.216   2.786  2.2038  0.8635 -0.1270
  587MOL0     H79184   3.839   0.296   2.890 -1.0101 -3.9550  2.6488
  587MOL0     H79185   3.971   0.238   2.997 -2.5044 -0.6361 -1.6466
  587MOL0     H79186   4.025   0.478   3.059  1.4297  2.2767 -2.7912
  587MOL0     H79187   3.919   0.530   2.929  1.0574 -0.3499 -0.4875
  587MOL0     H79188   3.725   0.411   3.060  0.5042 -0.4249 -1.4320
  587MOL0     H79189   3.847   0.378   3.186 -2.0268 -2.0289 -1.0088
  587MOL0     H79190   3.852   0.633   3.172 -0.3036  1.2554 -0.0467
  587MOL0     H79191   3.724   0.624   3.043 -1.5357 -1.8598 -0.0217
  587MOL0     H79192   3.575   0.661   3.231 -1.6926 -1.5027  1.5565
  587MOL0     H79193   3.582   0.486   3.212 -2.3918  2.4874 -1.1111
  587MOL0     H79194   3.749   0.471   3.400  0.3127  0.0095 -0.3050
  587MOL0     H79195   3.602   0.558   3.443 -2.2151 -1.1768 -3.6117
  587MOL0     H79196   3.639   0.855   3.402 -0.2239  0.0963 -1.1627
  587MOL0     H79197   3.759   1.092   3.450 -0.6164  0.7169  1.3355
  587MOL0     H79198   3.909   1.081   3.535 -2.1850 -1.1762  1.8982
  587MOL0     H79199   3.894   1.200   3.292  1.6260 -0.2818 -2.6428
  587MOL0     H79200   3.896   1.027   3.232 -0.0477  1.5980 -1.2018
  587MOL0     H79201   4.098   0.989   3.301 -0.2300  0.1856  1.2197
  587MOL0     H79202   4.116   1.121   3.401  0.2196 -1.1045  1.3014
  587MOL0     H79203   4.100   1.280   3.185 -2.1472  0.7675 -1.8456
  587MOL0     H79204   4.049   1.137   3.090  2.0114  0.8322 -1.2713
  587MOL0     H79205   4.376   0.985   3.048  0.0054  1.8324  1.6858
  587MOL0     H79206   4.594   0.960   2.779  0.2966  0.9848  1.1524
  587MOL0     H79207   4.489   0.861   2.889  0.3491  0.2208 -0.5185
  587MOL0     H79208   4.446   0.882   2.720  0.6932 -0.8445  1.3354
  587MOL0     H79209   4.636   1.040   2.481  0.3968 -2.5384  0.4492
  587MOL0     H79210   4.719   1.033   2.268 -0.2449 -0.3626 -2.0836
  587MOL0     H79211   4.467   0.795   1.973 -0.0668 -1.0647 -1.1963
  587MOL0     H79212   4.605   0.842   1.876 -0.2194 -0.3710 -0.0188
  587MOL0     H79213   4.614   0.714   2.148 -0.6509 -0.5874 -0.4158
  587MOL0     H79214   4.640   0.632   1.987 -0.5291 -0.2225 -2.1831
  587MOL0     H79215   4.859   0.663   2.109  2.2141 -0.8879 -1.4972
  587MOL0     H79216   4.821   0.839   2.125 -2.0036  0.6258 -0.2964
  587MOL0     H79217   4.821   0.711   1.863  1.2104 -0.0035 -0.5967
  587MOL0     H79218   4.847   0.882   1.891  2.1917  0.2033 -0.9537
  587MOL0     H79219   5.054   0.661   1.979  2.3363  1.0614  0.7401
  587MOL0     H79220   5.080   0.827   1.991  1.6679 -0.4411  0.5930
  587MOL0     H79221   5.067   0.843   1.734 -0.1802 -0.5028 -0.5411
  587MOL0     H79222   5.206   0.760   1.816 -0.5007 -1.2313  3.8255
  587MOL0     H79223   4.979   0.645   1.668 -1.0221 -2.0016  1.6959
  587MOL0     H79224   5.066   0.537   1.773  2.7022 -0.0836 -0.1432
  587MOL0     H79225   5.211   0.693   1.548  2.0864 -1.3424 -1.4372
  587MOL0     H79226   5.111   0.551   1.511 -4.1972  1.1477  1.5258
  587MOL0     H79227   4.325   0.933   2.118 -0.2672  0.1429 -0.0276
  587MOL0     H79228   4.240   0.962   2.340 -0.7071  1.8403 -0.5474
  587MOL0     H79229   4.283   1.358   2.754  1.1900  1.3041  1.7931
  587MOL0     H79230   4.239   1.381   2.984 -1.1783 -0.7443 -1.9432
  587MOL0     H79231   4.418   0.502   2.883  0.7013 -3.3957  0.6833
  587MOL0     H79232   4.578   0.671   2.828 -0.6722  1.1562 -0.7020
  587MOL0     H79233   4.784   0.946   2.639 -0.9539  2.7234 -0.2855
  587MOL0     H79234   4.902   1.145   2.594  1.6473 -0.1365 -1.0247
  587MOL0     H79235   5.009   1.342   2.451 -0.8174  0.2593  4.3505
  587MOL0     H79236   5.117   1.255   2.571  2.3861  4.3911  1.0367
  587MOL0     H79237   5.294   1.276   2.449 -0.6013  1.4521  2.1330
  587MOL0     H79238   5.238   1.435   2.481 -0.5197 -0.9552  1.6789
  587MOL0     H79239   5.214   1.315   2.191 -2.0724  2.7194 -1.4186
  587MOL0     H79240   5.323   1.435   2.257 -1.4236  3.8044 -0.4181
  587MOL0     H79241   5.113   1.556   2.346  0.4309  1.9265 -0.9688
  587MOL0     H79242   5.022   1.462   2.218 -0.0599  2.0580 -2.3454
  587MOL0     H79243   5.227   1.738   1.980 -0.1464  0.9045  0.8067
  587MOL0     H79244   5.129   0.959   2.290 -1.0273  3.2614 -0.3605
  587MOL0     H79245   4.979   0.746   2.293 -0.7948 -0.1613 -0.1877
  588MOL0     O79246   8.210   2.341   8.872  0.4831  0.4011 -0.1685
  588MOL0     C79247   8.168   2.443   8.810  0.4102  0.1793 -1.5555
  588MOL0     O79248   8.086   2.541   8.863 -0.4604 -0.6933  0.3983
  588MOL0     C79249   7.996   2.517   8.963  0.3777  0.8558  0.3987
  588MOL0     C79250   7.972   2.622   9.046  0.7242 -0.3830 -0.4473
  588MOL0     C79251   7.876   2.604   9.159 -0.2469  0.1429 -0.1722
  588MOL0     C79252   7.793   2.487   9.177 -0.2017 -1.0979  0.3759
  588MOL0     O79253   7.706   2.478   9.286 -0.2137  0.4565 -0.0809
  588MOL0     C79254   7.575   2.420   9.257 -0.4637  0.6675  0.0366
  588MOL0     C79255   7.549   2.311   9.362  0.1791  0.3224 -0.1090
  588MOL0     C79256   7.647   2.195   9.354 -0.3240  0.6866  0.0922
  588MOL0     C79257   7.630   2.099   9.476 -0.0904 -0.1232  0.3168
  588MOL0     C79258   7.720   1.981   9.493 -0.7152 -0.7361  0.1091
  588MOL0     C79259   7.677   1.901   9.620 -0.9967 -0.0877 -0.2070
  588MOL0     C79260   7.791   1.808   9.675  0.1717  0.0834  0.5651
  588MOL0     C79261   7.781   1.741   9.815  0.8220 -0.6907 -0.3250
  588MOL0     N79262   7.719   1.608   9.830  0.7566  0.4307 -0.2102
  588MOL0     C79263   7.769   1.514   9.915  0.7770  0.8249 -0.4871
  588MOL0     C79264   7.684   1.408   9.890  0.5429 -0.7866 -0.8148
  588MOL0     C79265   7.696   1.281   9.969  0.3436  0.1334  0.9018
  588MOL0     C79266   7.737   1.162   9.884 -0.2276  0.5007  0.2686
  588MOL0     C79267   7.711   1.040   9.975 -0.0135  0.3112 -0.0553
  588MOL0     C79268   7.778   0.912   9.928 -0.1080 -0.0316  0.6250
  588MOL0     O79269   7.737   0.821  10.038  0.0074 -0.0425  0.3885
  588MOL0     C79270   7.610   0.781  10.044  0.3430  0.2515 -0.2923
  588MOL0     C79271   7.522   0.771   9.938  0.3257  0.0092 -0.1486
  588MOL0     C79272   7.387   0.729   9.957 -0.6618 -0.2480 -0.3923
  588MOL0     C79273   7.298   0.748   9.848 -0.6208  0.0537  0.3462
  588MOL0     C79274   7.352   0.659  10.077  0.4988  0.3836  0.6849
  588MOL0     C79275   7.214   0.605  10.108 -0.2308 -0.7110  0.2235
  588MOL0     O79276   7.108   0.654  10.027  0.1198  0.0415  1.0577
  588MOL0     C79277   6.989   0.591  10.053 -0.2396 -0.2032 -0.2777
  588MOL0     C79278   6.924   0.603  10.181 -0.1515 -0.7087  0.2032
  588MOL0     C79279   6.795   0.555  10.199  0.0573 -0.0222  0.3942
  588MOL0     C79280   6.727   0.482  10.091 -0.3081  0.6108 -0.5460
  588MOL0     O79281   6.599   0.438  10.118 -0.6213  0.9147 -0.2466
  588MOL0     C79282   6.542   0.342  10.026 -0.1150 -0.4530 -0.2202
  588MOL0     C79283   6.419   0.300  10.094 -1.1509  0.0437  0.3459
  588MOL0     C79284   6.349   0.192  10.018 -0.0846  0.3645 -0.2084
  588MOL0     C79285   6.247   0.237   9.912  0.1822  0.7047 -0.9345
  588MOL0     C79286   6.112   0.231   9.973  0.6231  0.2549  0.4083
  588MOL0     C79287   6.084   0.340  10.069 -0.2986 -0.2342  0.5937
  588MOL0     C79288   5.941   0.335  10.125  0.2196  1.1673  0.0262
  588MOL0     C79289   5.882   0.478  10.136 -0.6202  0.4383 -0.0532
  588MOL0    Cl79290   5.981   0.593  10.218 -0.0025  0.1208 -0.0644
  588MOL0     C79291   6.803   0.461   9.973  0.7119 -0.2694  0.9180
  588MOL0     C79292   6.934   0.512   9.954  0.4228  0.3972  0.1788
  588MOL0     O79293   7.201   0.535  10.211 -0.6473 -0.3524 -0.3164
  588MOL0     C79294   7.447   0.668  10.178  0.1707 -0.1622 -0.2660
  588MOL0     C79295   7.570   0.726  10.167  0.1109 -0.9629  0.2712
  588MOL0     N79296   7.599   1.443   9.789  0.0851  0.8581 -0.5403
  588MOL0     N79297   7.620   1.562   9.750 -1.1873  0.6514 -0.3752
  588MOL0     C79298   7.829   2.377   9.091  0.3317 -0.3449 -0.0013
  588MOL0     C79299   7.926   2.395   8.992  0.0787 -0.4096  0.1056
  588MOL0     C79300   8.214   2.463   8.670  0.1835 -0.6586  0.1506
  588MOL0     C79301   8.292   2.369   8.600 -0.0823  0.3348 -0.7260
  588MOL0     C79302   8.337   2.390   8.469 -0.9815 -0.7169 -0.0260
  588MOL0     C79303   8.291   2.500   8.403  0.5225  0.1486 -0.8643
  588MOL0     O79304   8.328   2.507   8.270  0.3091 -1.2671  0.5624
  588MOL0     C79305   8.287   2.632   8.192 -0.1282  0.6331  0.3622
  588MOL0     C79306   8.367   2.761   8.221 -0.0615  0.1989 -0.5508
  588MOL0     C79307   8.329   2.891   8.152 -0.0061  0.1846 -0.4782
  588MOL0     C79308   8.395   3.014   8.219  0.1607 -0.4484  0.5831
  588MOL0     C79309   8.530   3.046   8.157  0.2872 -0.5060 -0.0629
  588MOL0     C79310   8.633   3.090   8.109  0.1129 -0.8725 -0.6536
  588MOL0     C79311   8.207   2.596   8.472  0.1246 -0.1789  0.0476
  588MOL0     C79312   8.177   2.579   8.606 -0.8448  0.7623 -0.2203
  588MOL0     H79313   8.027   2.712   9.024  2.7083 -1.4963 -0.2692
  588MOL0     H79314   7.850   2.691   9.217  1.9646  1.8288 -1.5495
  588MOL0     H79315   7.504   2.502   9.265 -0.8745  0.2598  0.7330
  588MOL0     H79316   7.582   2.370   9.160  0.5809  1.8057 -0.4906
  588MOL0     H79317   7.548   2.345   9.466 -0.0316  3.0815 -0.9249
  588MOL0     H79318   7.449   2.275   9.336  1.2585 -1.7717 -1.5948
  588MOL0     H79319   7.645   2.140   9.260  1.1589  1.2831 -0.3105
  588MOL0     H79320   7.745   2.244   9.359 -0.7999  2.0663 -2.4789
  588MOL0     H79321   7.647   2.165   9.562  2.3692  2.2750 -1.8102
  588MOL0     H79322   7.525   2.067   9.485  0.4416 -2.2477 -0.5088
  588MOL0     H79323   7.724   1.912   9.408 -1.4061  1.3788 -1.7160
  588MOL0     H79324   7.825   2.011   9.495 -0.6083 -0.6866 -2.4690
  588MOL0     H79325   7.656   1.968   9.704  0.2556  1.2103 -0.8833
  588MOL0     H79326   7.584   1.851   9.592 -0.9780 -1.3262  1.7411
  588MOL0     H79327   7.814   1.726   9.606  1.9251  0.1350  1.0623
  588MOL0     H79328   7.872   1.880   9.668  1.2139 -1.2101 -1.7907
  588MOL0     H79329   7.727   1.811   9.880  2.6027 -1.2118  1.8332
  588MOL0     H79330   7.885   1.726   9.844  1.0880 -1.0717 -1.4342
  588MOL0     H79331   7.844   1.513   9.993 -0.8638 -1.8628  1.2372
  588MOL0     H79332   7.770   1.304  10.047  0.5044  0.7880  0.5696
  588MOL0     H79333   7.599   1.269  10.018  0.1575  0.4921  0.6256
  588MOL0     H79334   7.838   1.163   9.841 -0.8131  2.1962 -1.1735
  588MOL0     H79335   7.661   1.150   9.806  1.0750 -1.9443 -0.7550
  588MOL0     H79336   7.603   1.021   9.979 -0.1076  0.8936  0.2451
  588MOL0     H79337   7.757   1.050  10.074 -0.7135 -1.5976  0.5088
  588MOL0     H79338   7.886   0.925   9.939 -0.1373 -0.8488  2.1533
  588MOL0     H79339   7.751   0.886   9.825 -0.0722 -1.5953  0.9987
  588MOL0     H79340   7.561   0.807   9.844  4.1715 -1.8812  0.5471
  588MOL0     H79341   7.223   0.670   9.833 -2.2242  1.1406  2.1542
  588MOL0     H79342   7.248   0.843   9.867  3.2102  2.2744  0.4675
  588MOL0     H79343   7.360   0.748   9.758 -0.8674 -3.1796  0.0594
  588MOL0     H79344   6.973   0.649  10.267 -1.5407 -0.7882  1.0694
  588MOL0     H79345   6.733   0.569  10.287 -1.5646  0.7247 -0.8208
  588MOL0     H79346   6.507   0.381   9.930  0.9660  1.9626  0.3157
  588MOL0     H79347   6.606   0.254  10.012  1.6405  1.2265 -4.1247
  588MOL0     H79348   6.452   0.270  10.193 -0.6491  0.5514  0.3374
  588MOL0     H79349   6.358   0.389  10.111 -3.1436 -1.3941  1.0902
  588MOL0     H79350   6.309   0.126  10.096  2.4193 -0.2117  0.6890
  588MOL0     H79351   6.426   0.131   9.969  0.3120  0.6403  0.0551
  588MOL0     H79352   6.285   0.330   9.869  0.9432  0.2798 -1.2115
  588MOL0     H79353   6.253   0.178   9.820  0.4385  1.7402 -1.5991
  588MOL0     H79354   6.097   0.128  10.006  4.0882 -0.4097  0.2227
  588MOL0     H79355   6.046   0.255   9.889  0.1448  0.2618  0.7795
  588MOL0     H79356   6.152   0.359  10.153  2.3319  2.5284 -1.9269
  588MOL0     H79357   6.091   0.428  10.005  1.5507 -1.0965 -0.4511
  588MOL0     H79358   5.946   0.292  10.226 -1.1227 -2.9637 -1.4537
  588MOL0     H79359   5.882   0.261  10.069  1.6022 -0.1917  0.2909
  588MOL0     H79360   5.801   0.470  10.209  1.9906  0.7058  3.0781
  588MOL0     H79361   5.851   0.516  10.038 -0.2009 -2.1727 -1.2593
  588MOL0     H79362   6.765   0.397   9.893 -2.2095 -0.5721  2.3908
  588MOL0     H79363   6.989   0.493   9.863  0.9228  0.0001  0.5586
  588MOL0     H79364   7.433   0.632  10.279 -0.5636 -0.2670 -0.4035
  588MOL0     H79365   7.647   0.720  10.243 -1.9192  0.3193  2.5797
  588MOL0     H79366   7.770   2.286   9.096  2.0006 -1.5188 -0.7291
  588MOL0     H79367   7.941   2.314   8.921 -0.2373 -0.5963  0.2504
  588MOL0     H79368   8.321   2.278   8.650  0.8123  0.6265 -0.6957
  588MOL0     H79369   8.410   2.327   8.419 -0.5712  0.5384 -1.0715
  588MOL0     H79370   8.286   2.602   8.086 -0.0969 -0.4111  0.6537
  588MOL0     H79371   8.186   2.665   8.215 -1.0867 -0.9543 -1.3085
  588MOL0     H79372   8.470   2.730   8.201  0.7151  1.1945  1.5961
  588MOL0     H79373   8.360   2.772   8.330  1.0955  0.4715 -0.4841
  588MOL0     H79374   8.222   2.900   8.169 -0.2087 -1.0599 -1.0076
  588MOL0     H79375   8.348   2.888   8.044 -0.5187  0.8715 -0.5898
  588MOL0     H79376   8.402   2.999   8.327  0.4685  0.5528  0.7134
  588MOL0     H79377   8.328   3.097   8.197  1.6244  0.3379 -1.2642
  588MOL0     H79378   8.723   3.141   8.078 -0.2097 -0.2983 -0.6680
  588MOL0     H79379   8.170   2.689   8.430  2.0309  0.9718  0.8161
  588MOL0     H79380   8.143   2.665   8.662  2.1981  1.6374  0.4664
  589MOL0     O79381   9.062  10.924  10.565 -0.1728  1.0516  0.6061
  589MOL0     C79382   9.172  10.899  10.611  0.5777 -0.5879 -0.3303
  589MOL0     O79383   9.292  10.929  10.555  0.0716 -0.5199  0.2588
  589MOL0     C79384   9.287  11.034  10.465 -0.6992  0.7912 -0.3661
  589MOL0     C79385   9.305  11.015  10.326 -0.1627 -0.3056  0.8429
  589MOL0     C79386   9.316  11.125  10.241 -0.0628 -0.4478  0.0396
  589MOL0     C79387   9.295  11.262  10.288 -0.9167 -0.2617  0.0010
  589MOL0     O79388   9.280  11.360  10.204 -0.1660  0.4105  0.6564
  589MOL0     C79389   9.401  11.370  10.115  0.3076 -0.3524 -0.3103
  589MOL0     C79390   9.375  11.478  10.005  0.5066 -0.5547 -0.0449
  589MOL0     C79391   9.384  11.627  10.064 -0.4231 -0.1453 -0.3634
  589MOL0     C79392   9.386  11.732   9.954 -0.2809  0.2101  0.1226
  589MOL0     C79393   9.392  11.870  10.013  0.0702 -0.6453  1.3143
  589MOL0     C79394   9.391  11.967   9.900 -0.0192  0.2678  0.3882
  589MOL0     C79395   9.418  12.114   9.943 -0.3631  0.1867  0.7398
  589MOL0     C79396   9.306  12.195  10.014 -0.3695 -1.0682 -0.5307
  589MOL0     N79397   9.175  12.198   9.948  0.1862 -0.2289 -0.2845
  589MOL0     C79398   9.066  12.128   9.986 -0.6264 -0.2577  1.1013
  589MOL0     C79399   8.979  12.144   9.877  0.7293  0.0274 -0.5692
  589MOL0     C79400   8.845  12.096   9.854 -0.4557 -0.5771 -0.1128
  589MOL0     C79401   8.850  11.946   9.835  0.1902  0.0185  0.8079
  589MOL0     C79402   8.847  11.854   9.957 -0.7462 -0.2397  0.5878
  589MOL0     C79403   8.810  11.711   9.928 -0.3389  0.0606 -0.0931
  589MOL0     O79404   8.834  11.642  10.046  0.1341  0.2830 -0.2294
  589MOL0     C79405   8.860  11.505  10.038 -0.2027  0.8371 -0.4147
  589MOL0     C79406   8.760  11.414   9.995  0.4581 -0.0567  0.9044
  589MOL0     C79407   8.785  11.288   9.951 -0.0663 -0.5597 -0.0662
  589MOL0     C79408   8.666  11.209   9.917  0.4019 -0.1247 -0.8630
  589MOL0     C79409   8.915  11.236   9.960  0.8120  0.0231  0.7674
  589MOL0     C79410   8.943  11.090   9.937 -1.0794 -0.2113  0.3119
  589MOL0     O79411   9.075  11.057   9.912  0.4453 -0.7199  0.2708
  589MOL0     C79412   9.102  10.926   9.924 -0.0460  0.0994 -0.0433
  589MOL0     C79413   9.145  10.845   9.813 -0.4994  0.4326 -0.1160
  589MOL0     C79414   9.179  10.715   9.831  0.8688 -0.2027 -0.4674
  589MOL0     C79415   9.185  10.651   9.962  0.5123  0.3282  0.4987
  589MOL0     O79416   9.219  10.518   9.979 -0.1660  0.2581 -0.2378
  589MOL0     C79417   9.288  10.451   9.872  0.6801 -0.8067 -0.8034
  589MOL0     C79418   9.305  10.304   9.919 -0.4453 -0.5717 -0.0053
  589MOL0     C79419   9.172  10.223   9.940 -0.3275  0.0535  0.1265
  589MOL0     C79420   9.206  10.080   9.968 -0.2834  0.3102  0.3943
  589MOL0     C79421   9.245   9.992   9.851  0.2819 -1.0738  0.5367
  589MOL0     C79422   9.258   9.851   9.890 -0.0760  0.5775 -0.0205
  589MOL0     C79423   9.272   9.759   9.768 -0.5478 -0.4799  0.2595
  589MOL0     C79424   9.404   9.761   9.699  0.5424 -0.6867 -0.2505
  589MOL0    Cl79425   9.409   9.904   9.590 -0.5458  0.1071 -0.2228
  589MOL0     C79426   9.145  10.728  10.072  0.0313  0.1528 -0.8429
  589MOL0     C79427   9.108  10.860  10.053  0.2254  0.4161  0.1046
  589MOL0     O79428   8.853  11.012   9.932 -0.0044  0.2222 -0.2323
  589MOL0     C79429   9.013  11.321  10.006 -0.0803  1.9821 -0.0191
  589MOL0     C79430   8.995  11.455  10.041 -0.0579  0.8303 -1.1524
  589MOL0     N79431   9.036  12.227   9.790 -0.1806  0.1010  0.3454
  589MOL0     N79432   9.152  12.264   9.837  0.1305  0.4253  0.5541
  589MOL0     C79433   9.279  11.277  10.426 -0.9440  0.1538 -0.2718
  589MOL0     C79434   9.270  11.166  10.514 -0.2409  0.5560  0.5992
  589MOL0     C79435   9.172  10.831  10.737  0.6832 -0.1544 -1.0520
  589MOL0     C79436   9.086  10.867  10.834  0.0701  0.4007  0.2280
  589MOL0     C79437   9.074  10.795  10.952  0.6123 -0.6349  0.2021
  589MOL0     C79438   9.159  10.704  10.979 -0.7612  0.7396  0.3012
  589MOL0     O79439   9.118  10.636  11.092 -0.7262 -0.1202 -0.1934
  589MOL0     C79440   9.191  10.522  11.127  0.1248 -0.2254  0.8457
  589MOL0     C79441   9.116  10.429  11.224  0.3441 -0.3799 -0.5389
  589MOL0     C79442   8.969  10.391  11.186  0.0145  0.2535 -0.1138
  589MOL0     C79443   8.892  10.319  11.297 -0.8086  0.6067 -0.9380
  589MOL0     C79444   8.763  10.371  11.304  0.0751 -1.4780  0.5671
  589MOL0     C79445   8.663  10.441  11.321 -0.8792  0.3037 -0.5515
  589MOL0     C79446   9.263  10.664  10.887 -0.8911 -0.1292  0.4949
  589MOL0     C79447   9.265  10.722  10.763 -0.0444 -0.0977  0.4551
  589MOL0     H79448   9.303  10.913  10.287 -2.4238 -1.2598  3.1568
  589MOL0     H79449   9.331  11.103  10.135 -2.4308  0.4578 -0.5341
  589MOL0     H79450   9.493  11.387  10.171  0.6982 -1.6999 -0.4988
  589MOL0     H79451   9.413  11.278  10.058  0.9940  0.0779 -0.8819
  589MOL0     H79452   9.452  11.469   9.928  1.9428  2.3177  0.8896
  589MOL0     H79453   9.276  11.462   9.962 -1.5662  2.4878  3.1287
  589MOL0     H79454   9.304  11.643  10.136  0.0998  4.8433 -0.5755
  589MOL0     H79455   9.479  11.618  10.117 -0.3481  1.5225 -0.1729
  589MOL0     H79456   9.473  11.713   9.890  2.2067  3.1074  2.3106
  589MOL0     H79457   9.294  11.717   9.897 -0.3812 -0.5542  0.4639
  589MOL0     H79458   9.305  11.878  10.078 -2.4371 -0.4470 -1.8386
  589MOL0     H79459   9.484  11.895  10.068  1.2205  1.9605 -1.5003
  589MOL0     H79460   9.470  11.929   9.833 -1.8091 -2.6094 -0.2667
  589MOL0     H79461   9.302  11.985   9.840 -1.0121  1.9696  2.2652
  589MOL0     H79462   9.508  12.119  10.005 -0.7837 -2.7716  1.7599
  589MOL0     H79463   9.435  12.164   9.847 -2.4707 -1.5953 -0.6631
  589MOL0     H79464   9.326  12.303  10.004 -3.1220 -0.6434 -2.9785
  589MOL0     H79465   9.292  12.159  10.116 -0.7461 -0.9032 -0.5226
  589MOL0     H79466   9.063  12.059  10.070 -2.2090  0.9060  2.0486
  589MOL0     H79467   8.780  12.138   9.930  1.3976 -0.0531  1.2669
  589MOL0     H79468   8.810  12.132   9.757  1.3382 -1.4720 -1.1575
  589MOL0     H79469   8.942  11.924   9.781 -0.3505  0.2909 -0.2346
  589MOL0     H79470   8.760  11.929   9.776 -0.1403 -0.8500  1.5473
  589MOL0     H79471   8.776  11.887  10.033  0.1286 -1.0014  1.7702
  589MOL0     H79472   8.949  11.869   9.994 -0.8681  2.6256 -0.0023
  589MOL0     H79473   8.872  11.674   9.846 -1.0746  0.7263 -0.9774
  589MOL0     H79474   8.704  11.705   9.900  0.6262 -3.1995 -4.0855
  589MOL0     H79475   8.662  11.458   9.984  0.9909  0.9976  0.2502
  589MOL0     H79476   8.674  11.170   9.815 -2.3311  0.1519 -1.2708
  589MOL0     H79477   8.655  11.127   9.989  0.7698 -1.5795 -2.4070
  589MOL0     H79478   8.585  11.283   9.923  3.1231  2.9321  3.2112
  589MOL0     H79479   9.144  10.887   9.713 -0.7519  2.9328  0.8588
  589MOL0     H79480   9.196  10.649   9.746  2.4303 -1.2584  0.5980
  589MOL0     H79481   9.226  10.448   9.782 -0.1564 -0.9878 -0.2354
  589MOL0     H79482   9.382  10.502   9.852 -0.7663  2.0814 -0.7891
  589MOL0     H79483   9.359  10.255   9.838  3.8670 -0.3105  2.3923
  589MOL0     H79484   9.369  10.295  10.007  0.6226 -1.0459 -0.8208
  589MOL0     H79485   9.129  10.204   9.842  3.0044  0.9895 -1.6683
  589MOL0     H79486   9.101  10.266  10.012  0.4482 -1.4456  1.8837
  589MOL0     H79487   9.295  10.085  10.032  1.4910  1.6470 -2.0460
  589MOL0     H79488   9.130  10.026  10.026 -3.6598  2.5122 -1.6550
  589MOL0     H79489   9.338  10.042   9.822 -0.3545  0.7034  1.4302
  589MOL0     H79490   9.170   9.997   9.771 -2.5375 -1.6424  2.9950
  589MOL0     H79491   9.347   9.839   9.953 -0.4917  2.1978  0.9132
  589MOL0     H79492   9.173   9.820   9.951  1.3260  0.4421  1.9814
  589MOL0     H79493   9.186   9.769   9.701 -1.0309 -0.2268  0.9117
  589MOL0     H79494   9.262   9.656   9.806  0.2030  0.3022  2.7951
  589MOL0     H79495   9.420   9.680   9.627 -0.0568 -1.4454  0.4494
  589MOL0     H79496   9.480   9.768   9.777 -0.4217 -0.7307  0.7040
  589MOL0     H79497   9.139  10.685  10.171  1.1234 -0.3345 -0.9737
  589MOL0     H79498   9.084  10.920  10.140  0.6145  1.7500 -0.6815
  589MOL0     H79499   9.117  11.289  10.005 -0.9585 -1.1293  0.2177
  589MOL0     H79500   9.073  11.524  10.072  0.3476 -0.5867  1.2433
  589MOL0     H79501   9.277  11.381  10.458  2.5577  0.4093 -0.4309
  589MOL0     H79502   9.245  11.199  10.614  0.7591  1.0543  0.7039
  589MOL0     H79503   9.016  10.942  10.798  0.6758 -0.3605 -2.8373
  589MOL0     H79504   8.984  10.810  11.010 -1.5464  2.0338 -3.3969
  589MOL0     H79505   9.213  10.463  11.038  0.1948  0.9764  0.0311
  589MOL0     H79506   9.285  10.544  11.179  1.0283 -1.4811 -0.1988
  589MOL0     H79507   9.102  10.495  11.310  1.3745  0.0336 -0.6802
  589MOL0     H79508   9.164  10.333  11.246  0.7973  0.4064  2.2959
  589MOL0     H79509   8.961  10.326  11.099 -0.4370 -1.2569  1.0219
  589MOL0     H79510   8.921  10.489  11.171  0.9825  0.5188 -1.7701
  589MOL0     H79511   8.946  10.332  11.392  1.1963  0.5662 -2.0292
  589MOL0     H79512   8.885  10.211  11.287 -1.1529  0.5771 -0.4261
  589MOL0     H79513   8.590  10.513  11.351 -0.3241  1.2673 -1.4371
  589MOL0     H79514   9.350  10.605  10.912  1.2609  2.0768 -1.3419
  589MOL0     H79515   9.349  10.706  10.696  1.0044 -2.6464  2.2311
  590MOL0     O79516   8.129  11.386   8.787  0.3475  1.0035 -0.2591
  590MOL0     C79517   8.145  11.468   8.873  0.0947 -0.4085  0.2981
  590MOL0     O79518   8.177  11.450   9.002  0.3701 -0.4221 -0.8829
  590MOL0     C79519   8.109  11.344   9.072  0.6238  0.2872 -0.5846
  590MOL0     C79520   8.160  11.301   9.200 -0.1691 -0.4732  0.1706
  590MOL0     C79521   8.093  11.207   9.282  0.0410 -0.3584  0.7318
  590MOL0     C79522   7.978  11.145   9.231  0.1346  0.5648 -0.9144
  590MOL0     O79523   7.934  11.035   9.305  0.2138 -0.7148 -0.1507
  590MOL0     C79524   7.790  11.009   9.297 -1.0542 -0.0825 -0.2918
  590MOL0     C79525   7.744  10.900   9.397  0.2369 -0.5620 -0.2906
  590MOL0     C79526   7.801  10.757   9.370  0.0771 -0.4713  0.1827
  590MOL0     C79527   7.708  10.685   9.272 -0.3640  0.2849 -1.0324
  590MOL0     C79528   7.791  10.586   9.191  0.3943  0.8277  0.7885
  590MOL0     C79529   7.684  10.518   9.096 -0.1827  0.7621 -0.0711
  590MOL0     C79530   7.746  10.431   8.992  0.3777 -0.9901 -0.2358
  590MOL0     C79531   7.686  10.441   8.847  0.6092 -0.1890  0.4280
  590MOL0     N79532   7.710  10.321   8.780  0.1825  0.0680  0.4762
  590MOL0     C79533   7.843  10.280   8.739  0.9209 -1.3685  0.5046
  590MOL0     C79534   7.825  10.162   8.663 -1.1617 -0.3881 -0.1772
  590MOL0     C79535   7.917  10.068   8.598  1.2610 -0.0245  1.3330
  590MOL0     C79536   7.970  10.129   8.469 -0.0848  0.0794  0.8928
  590MOL0     C79537   8.028  10.013   8.382 -0.0870 -0.9019  0.3613
  590MOL0     C79538   8.126   9.920   8.455 -0.0543 -0.5354  0.2329
  590MOL0     O79539   8.166   9.799   8.381  0.9270  0.0062  0.1862
  590MOL0     C79540   8.227   9.696   8.431  0.6239  0.7280 -0.1653
  590MOL0     C79541   8.251   9.677   8.561  0.0141  0.0746 -0.5114
  590MOL0     C79542   8.304   9.557   8.614  0.5687 -0.4454 -0.5087
  590MOL0     C79543   8.323   9.560   8.766  0.2366 -0.1572 -0.0723
  590MOL0     C79544   8.335   9.446   8.528  0.2681 -0.2317 -0.2717
  590MOL0     C79545   8.398   9.326   8.595 -0.2771 -0.7514  0.2131
  590MOL0     O79546   8.451   9.321   8.728  0.4096  0.3658 -0.2943
  590MOL0     C79547   8.512   9.200   8.747 -1.1932 -0.3804  0.1271
  590MOL0     C79548   8.445   9.094   8.814  0.1108  0.2777 -0.9026
  590MOL0     C79549   8.501   8.965   8.838 -0.4528 -0.7205 -0.3490
  590MOL0     C79550   8.635   8.957   8.810  0.3489  0.4333  1.0363
  590MOL0     O79551   8.702   8.833   8.835 -0.1426  0.2943 -0.2083
  590MOL0     C79552   8.665   8.728   8.737 -0.8489  0.5534  0.6355
  590MOL0     C79553   8.776   8.622   8.715 -0.3859  0.0264  0.0649
  590MOL0     C79554   8.911   8.678   8.665  0.1047 -0.4814 -0.3618
  590MOL0     C79555   8.983   8.733   8.787  0.2760 -0.5490 -0.1678
  590MOL0     C79556   9.099   8.818   8.738  0.1498  0.0708  0.5320
  590MOL0     C79557   9.176   8.881   8.860 -0.4335 -0.2782 -0.3771
  590MOL0     C79558   9.316   8.935   8.823 -0.0792 -0.6582 -0.4682
  590MOL0     C79559   9.403   8.927   8.945 -0.7116 -0.6410  0.7695
  590MOL0    Cl79560   9.353   9.055   9.060  0.4279 -0.0181  0.3267
  590MOL0     C79561   8.706   9.056   8.737 -0.0029  0.4829  0.7579
  590MOL0     C79562   8.647   9.181   8.712  0.3302  0.0026 -0.0009
  590MOL0     O79563   8.401   9.236   8.519  0.8080  0.6389  0.0544
  590MOL0     C79564   8.310   9.467   8.393 -0.2258  0.3062 -0.3364
  590MOL0     C79565   8.265   9.590   8.345 -0.0566  0.4016 -0.6331
  590MOL0     N79566   7.685  10.138   8.654  0.0069  0.2896  0.2687
  590MOL0     N79567   7.623  10.228   8.729  0.0675 -0.0140 -0.5139
  590MOL0     C79568   7.923  11.187   9.107  0.2950  0.5376  0.6043
  590MOL0     C79569   7.988  11.279   9.028 -0.1024 -0.1480  0.6549
  590MOL0     C79570   8.167  11.610   8.842 -0.0548 -0.2107  0.7342
  590MOL0     C79571   8.112  11.715   8.921 -0.9945 -0.9929 -0.4053
  590MOL0     C79572   8.135  11.847   8.895  0.0141 -0.2208 -0.1425
  590MOL0     C79573   8.209  11.885   8.785 -0.0339  0.0071 -0.4428
  590MOL0     O79574   8.229  12.019   8.766  0.5305  0.0443 -0.4763
  590MOL0     C79575   8.359  12.055   8.711 -0.5831 -0.3492  0.4984
  590MOL0     C79576   8.373  12.204   8.692  0.8884 -0.1577  0.1584
  590MOL0     C79577   8.366  12.274   8.825 -0.3008  0.6703 -0.2146
  590MOL0     C79578   8.395  12.417   8.830 -0.0253 -0.5831  0.8441
  590MOL0     C79579   8.306  12.478   8.730  0.0034  0.0186  0.5435
  590MOL0     C79580   8.232  12.521   8.640 -0.3980 -0.5465  0.0771
  590MOL0     C79581   8.259  11.786   8.702 -0.1192 -0.2717 -0.9369
  590MOL0     C79582   8.244  11.653   8.728 -0.1965  0.2826 -1.5705
  590MOL0     H79583   8.254  11.343   9.234  0.8085 -1.7168 -0.8862
  590MOL0     H79584   8.113  11.177   9.384 -1.1754  2.3819  1.8506
  590MOL0     H79585   7.739  11.105   9.311 -0.2606  0.6168 -1.8671
  590MOL0     H79586   7.763  10.985   9.194  0.4713  2.7176 -1.4970
  590MOL0     H79587   7.762  10.943   9.496 -1.8231 -0.3635  0.0271
  590MOL0     H79588   7.636  10.886   9.388  0.4135 -0.7709 -7.5376
  590MOL0     H79589   7.903  10.769   9.332  0.2233 -1.3307  0.2755
  590MOL0     H79590   7.797  10.721   9.473 -0.6192  1.4491  0.8584
  590MOL0     H79591   7.630  10.634   9.329 -0.5013  1.4117 -0.1612
  590MOL0     H79592   7.662  10.763   9.210 -0.6955  1.0034  0.0841
  590MOL0     H79593   7.866  10.646   9.138  0.6354 -1.0422 -1.1210
  590MOL0     H79594   7.847  10.511   9.248  0.9349  0.1367 -0.6079
  590MOL0     H79595   7.606  10.467   9.153 -1.3769  1.6594 -0.8615
  590MOL0     H79596   7.636  10.603   9.047 -0.0320  0.7016 -0.3269
  590MOL0     H79597   7.853  10.452   8.986  0.9404 -3.4989 -0.1933
  590MOL0     H79598   7.731  10.331   9.032  0.6456  0.3929  3.7137
  590MOL0     H79599   7.735  10.521   8.791  1.9416 -1.5662 -0.4296
  590MOL0     H79600   7.578  10.454   8.848  0.4061 -1.5934 -1.0517
  590MOL0     H79601   7.935  10.335   8.759  0.3332 -0.3173  0.4094
  590MOL0     H79602   7.999  10.046   8.667  2.6626  1.2902  0.1607
  590MOL0     H79603   7.861   9.976   8.582  1.9931 -0.4510  1.1708
  590MOL0     H79604   8.031  10.218   8.490  0.0240  0.5531 -1.2319
  590MOL0     H79605   7.890  10.188   8.423  0.1549  1.5072  2.2036
  590MOL0     H79606   8.089  10.056   8.302  0.1682 -1.4267  0.2705
  590MOL0     H79607   7.952   9.966   8.319  1.6043  0.3242 -2.7890
  590MOL0     H79608   8.070   9.872   8.536  1.7221 -3.1946  0.0390
  590MOL0     H79609   8.202   9.994   8.482 -1.2358 -0.4534  3.9448
  590MOL0     H79610   8.229   9.767   8.619  1.1268  0.4098 -0.5755
  590MOL0     H79611   8.273   9.489   8.832 -0.2901 -0.3054 -0.6235
  590MOL0     H79612   8.432   9.555   8.778  0.5484  0.5254 -2.1766
  590MOL0     H79613   8.295   9.663   8.791  3.3689  0.9107 -0.5558
  590MOL0     H79614   8.340   9.112   8.837 -0.8091 -0.5220 -3.9552
  590MOL0     H79615   8.442   8.899   8.901 -2.3190 -0.4454 -1.7185
  590MOL0     H79616   8.580   8.674   8.778 -0.5477 -2.4163 -2.2927
  590MOL0     H79617   8.635   8.766   8.639 -0.4742 -1.3013 -0.2378
  590MOL0     H79618   8.783   8.569   8.811 -0.1493 -1.8437 -0.9420
  590MOL0     H79619   8.732   8.550   8.646 -3.7667 -0.1879  2.2202
  590MOL0     H79620   8.893   8.761   8.596  0.6635  1.0888  1.2625
  590MOL0     H79621   8.969   8.603   8.611  2.4883 -0.1035  1.4632
  590MOL0     H79622   8.919   8.792   8.854  1.7558 -1.5272  2.2452
  590MOL0     H79623   9.028   8.652   8.845  0.4872 -0.3341 -0.0266
  590MOL0     H79624   9.086   8.896   8.662 -0.3626  0.0792  0.6215
  590MOL0     H79625   9.169   8.750   8.689  3.1978  0.4375  4.0149
  590MOL0     H79626   9.115   8.963   8.898  0.1258 -0.7899  1.8239
  590MOL0     H79627   9.180   8.807   8.940  0.2450  1.6294  1.4662
  590MOL0     H79628   9.310   9.032   8.772  0.2466 -2.1470 -3.6153
  590MOL0     H79629   9.371   8.872   8.752 -0.2279 -1.4919  0.1497
  590MOL0     H79630   9.509   8.939   8.923 -1.1232  3.0536  0.1322
  590MOL0     H79631   9.395   8.834   9.003  0.1260 -0.0736  1.8479
  590MOL0     H79632   8.811   9.035   8.719 -0.5860  0.3034 -3.2558
  590MOL0     H79633   8.686   9.264   8.655  1.1589 -0.4367 -0.0882
  590MOL0     H79634   8.340   9.390   8.322  0.6162  1.2567 -1.0378
  590MOL0     H79635   8.247   9.605   8.239  1.8050  2.2100 -0.7489
  590MOL0     H79636   7.845  11.126   9.062  2.7406 -3.3922  1.1999
  590MOL0     H79637   7.954  11.277   8.925  1.7418  1.4212 -0.0451
  590MOL0     H79638   8.051  11.679   9.004 -1.7408  1.1876  0.0719
  590MOL0     H79639   8.100  11.931   8.955  0.6740 -0.3029  0.3675
  590MOL0     H79640   8.433  12.021   8.785 -0.4232  1.8058  1.3982
  590MOL0     H79641   8.373  12.003   8.616  4.2473 -2.6605  2.1342
  590MOL0     H79642   8.299  12.242   8.622  1.8865 -0.0182 -0.8533
  590MOL0     H79643   8.476  12.212   8.654  0.6170  0.0843 -0.5409
  590MOL0     H79644   8.436  12.217   8.887 -0.8056 -0.9541 -1.0648
  590MOL0     H79645   8.267  12.261   8.869 -0.3437  1.8104  0.0423
  590MOL0     H79646   8.498  12.425   8.794 -0.6490 -0.5776 -1.0402
  590MOL0     H79647   8.372  12.469   8.923 -4.4145  1.5845 -1.1630
  590MOL0     H79648   8.168  12.580   8.577 -1.4323 -0.5322  1.1134
  590MOL0     H79649   8.310  11.816   8.611 -2.7643 -1.4196 -2.9305
  590MOL0     H79650   8.288  11.572   8.671 -1.6268 -3.7037  2.4419
  591MOL0     O79651   9.851   2.079   3.465  0.8174 -0.3893  0.2535
  591MOL0     C79652   9.901   1.980   3.401  1.3407 -0.5581 -0.6084
  591MOL0     O79653   9.877   1.947   3.270  0.1197 -0.1957  0.3827
  591MOL0     C79654   9.757   1.990   3.217  0.0162 -1.1134  0.3059
  591MOL0     C79655   9.760   2.057   3.092  0.2374  0.2650 -0.5502
  591MOL0     C79656   9.645   2.079   3.024  0.4498 -0.4871  0.1647
  591MOL0     C79657   9.518   2.052   3.081 -0.1683 -0.8605  0.1236
  591MOL0     O79658   9.387   2.062   3.031  0.1078  0.6585  0.4374
  591MOL0     C79659   9.374   2.142   2.911 -0.1465 -0.0236  0.3794
  591MOL0     C79660   9.377   2.295   2.930 -0.6338  0.3714 -1.0061
  591MOL0     C79661   9.259   2.352   3.004  0.7324  0.8855 -0.3884
  591MOL0     C79662   9.278   2.348   3.153 -0.3801 -0.2095 -0.2519
  591MOL0     C79663   9.196   2.450   3.237 -0.2862  0.2861  0.0320
  591MOL0     C79664   9.048   2.442   3.230 -0.1435 -0.4269  0.2999
  591MOL0     C79665   8.981   2.558   3.307 -0.8870 -0.2750  0.3026
  591MOL0     C79666   8.842   2.585   3.263  0.4785  0.2662  0.0662
  591MOL0     N79667   8.749   2.473   3.299  0.4779  0.3454  0.5523
  591MOL0     C79668   8.725   2.428   3.422 -0.4423 -0.7509 -0.0300
  591MOL0     C79669   8.654   2.317   3.405  0.7185  0.1906 -0.7669
  591MOL0     C79670   8.597   2.242   3.524  1.1309 -0.4904  0.2050
  591MOL0     C79671   8.466   2.308   3.578  0.8570 -0.6329 -0.2077
  591MOL0     C79672   8.415   2.257   3.715 -0.3370 -0.0127  0.0426
  591MOL0     C79673   8.494   2.312   3.840 -0.0328  0.2513  0.1650
  591MOL0     O79674   8.419   2.279   3.958  0.4166 -0.2534 -0.6883
  591MOL0     C79675   8.326   2.371   4.003 -0.5912 -0.0358  0.2929
  591MOL0     C79676   8.293   2.338   4.136  0.7987  0.1307 -0.4884
  591MOL0     C79677   8.190   2.408   4.201  0.4957 -0.3844  0.1736
  591MOL0     C79678   8.152   2.347   4.335 -0.0337  0.3852  0.0694
  591MOL0     C79679   8.139   2.529   4.135  0.2672  0.3040 -0.3312
  591MOL0     C79680   8.047   2.617   4.205  0.0083 -0.2779 -0.0707
  591MOL0     O79681   8.006   2.592   4.331  0.3559 -0.5949 -0.2673
  591MOL0     C79682   7.924   2.676   4.394 -0.4681 -0.1524 -1.1748
  591MOL0     C79683   7.963   2.715   4.527  0.8807 -0.4566 -0.3246
  591MOL0     C79684   7.882   2.791   4.607  0.8254  0.1615 -0.6514
  591MOL0     C79685   7.762   2.838   4.555 -0.1965 -0.3607  0.2873
  591MOL0     O79686   7.680   2.922   4.630 -0.6374 -0.4638  0.2626
  591MOL0     C79687   7.709   2.960   4.769  1.2893  0.2638  0.2580
  591MOL0     C79688   7.607   3.058   4.835  0.4658  0.2940  0.2547
  591MOL0     C79689   7.533   3.152   4.738  0.2810  0.0947  0.3544
  591MOL0     C79690   7.631   3.223   4.629 -0.0124 -0.5364  0.2730
  591MOL0     C79691   7.557   3.345   4.562  0.2227 -0.4967  0.7500
  591MOL0     C79692   7.599   3.368   4.413 -0.8578 -0.2646 -0.1383
  591MOL0     C79693   7.556   3.250   4.322  0.0027  0.0216 -0.6878
  591MOL0     C79694   7.575   3.297   4.177  0.3408  1.2164  0.9036
  591MOL0    Cl79695   7.549   3.162   4.063  0.2642 -0.0396  0.4271
  591MOL0     C79696   7.710   2.792   4.436  0.3475 -0.3917  0.4462
  591MOL0     C79697   7.791   2.711   4.357  0.4426  0.1459 -0.4630
  591MOL0     O79698   8.011   2.711   4.132  0.2809  0.2275  0.7218
  591MOL0     C79699   8.182   2.562   4.003  0.0828 -0.4041 -1.0396
  591MOL0     C79700   8.273   2.487   3.935 -0.3933  0.4103 -0.4922
  591MOL0     N79701   8.629   2.298   3.269 -0.4682 -0.2216  0.9861
  591MOL0     N79702   8.691   2.390   3.203 -0.4024  0.1196 -0.2333
  591MOL0     C79703   9.513   2.000   3.213 -0.2808 -0.4793 -0.3400
  591MOL0     C79704   9.631   1.951   3.263 -0.2610  0.3587 -1.5377
  591MOL0     C79705  10.004   1.895   3.463  0.0506  0.1901 -0.3663
  591MOL0     C79706  10.049   1.772   3.411  0.3145  0.8435  0.9182
  591MOL0     C79707  10.137   1.690   3.475  0.4242 -0.5785 -0.3811
  591MOL0     C79708  10.180   1.725   3.605  0.2838 -0.5144  0.2421
  591MOL0     O79709  10.278   1.653   3.665 -0.3041 -0.9114  0.4049
  591MOL0     C79710  10.282   1.645   3.806 -0.8220 -0.6515 -0.6951
  591MOL0     C79711  10.146   1.601   3.866  0.0042 -0.2219  0.2711
  591MOL0     C79712  10.078   1.469   3.807 -0.4615 -0.4665 -0.4559
  591MOL0     C79713  10.157   1.331   3.806  1.1522  0.1718 -0.8771
  591MOL0     C79714  10.241   1.323   3.919  0.0906  0.6985 -0.6018
  591MOL0     C79715  10.316   1.326   4.014 -0.0763 -0.5325 -0.3004
  591MOL0     C79716  10.140   1.857   3.651 -0.2255 -0.1815 -0.9070
  591MOL0     C79717  10.050   1.937   3.592 -0.0229 -0.0128  0.3341
  591MOL0     H79718   9.855   2.094   3.055 -0.6830  0.8816 -2.4196
  591MOL0     H79719   9.659   2.126   2.928  0.1166 -0.2889  0.2104
  591MOL0     H79720   9.451   2.108   2.841 -3.0382  0.6238 -3.4917
  591MOL0     H79721   9.274   2.118   2.873 -1.5985  0.1080  3.8074
  591MOL0     H79722   9.460   2.312   2.999 -3.0455 -2.2682  2.9321
  591MOL0     H79723   9.393   2.352   2.838  0.5188  3.7577  1.1026
  591MOL0     H79724   9.248   2.459   2.985 -3.7380  0.6931  0.0585
  591MOL0     H79725   9.164   2.316   2.964  0.6184  2.0985 -1.2750
  591MOL0     H79726   9.255   2.251   3.197 -1.9671 -0.9291 -2.4692
  591MOL0     H79727   9.381   2.384   3.164 -0.1890 -0.5728 -0.7749
  591MOL0     H79728   9.223   2.432   3.341 -0.1479  0.4815  0.0318
  591MOL0     H79729   9.223   2.553   3.210  0.3066  1.0805  3.1879
  591MOL0     H79730   9.014   2.453   3.127  2.3863  2.5213 -0.3541
  591MOL0     H79731   9.017   2.347   3.276 -1.7426 -0.0017  0.1532
  591MOL0     H79732   8.985   2.533   3.413 -1.2945 -1.5094  0.0390
  591MOL0     H79733   9.042   2.649   3.302 -1.5740  0.2049  0.5423
  591MOL0     H79734   8.848   2.600   3.155 -1.9389 -2.2954 -0.5297
  591MOL0     H79735   8.806   2.677   3.310  1.7010  0.6041  0.3586
  591MOL0     H79736   8.758   2.478   3.513  2.2264 -2.4157 -0.0035
  591MOL0     H79737   8.585   2.135   3.501  0.9023 -0.4496  0.1375
  591MOL0     H79738   8.669   2.232   3.606 -0.8843  0.0114  2.1303
  591MOL0     H79739   8.382   2.283   3.512 -0.5867 -1.1080  1.6971
  591MOL0     H79740   8.478   2.417   3.583 -1.2626 -0.3854  1.2372
  591MOL0     H79741   8.401   2.148   3.709 -0.0211  0.0174 -1.4851
  591MOL0     H79742   8.319   2.308   3.720 -0.3998 -0.2167  1.8057
  591MOL0     H79743   8.506   2.416   3.810 -0.9900 -0.4408 -3.1458
  591MOL0     H79744   8.591   2.260   3.844  0.5675  0.6817 -4.0062
  591MOL0     H79745   8.349   2.264   4.192 -0.7736  0.6453  1.8890
  591MOL0     H79746   8.196   2.248   4.338  2.4719  1.4560  1.4290
  591MOL0     H79747   8.177   2.407   4.423 -1.2500  2.0630 -0.6649
  591MOL0     H79748   8.042   2.346   4.330 -0.2563  3.6743  1.3121
  591MOL0     H79749   8.050   2.674   4.576  1.1439  3.2290  2.7426
  591MOL0     H79750   7.910   2.818   4.708 -0.5737  0.5467 -0.3424
  591MOL0     H79751   7.725   2.871   4.831  0.9183  0.6889  0.9832
  591MOL0     H79752   7.805   3.011   4.764  1.8941 -0.9636 -3.2829
  591MOL0     H79753   7.539   3.005   4.902  0.6984 -1.5550 -0.8883
  591MOL0     H79754   7.663   3.125   4.901 -0.6276  0.9685  0.5125
  591MOL0     H79755   7.485   3.235   4.790  1.6675  0.7511  0.6191
  591MOL0     H79756   7.458   3.087   4.691 -3.4883  1.9269  3.2651
  591MOL0     H79757   7.716   3.263   4.686 -0.1182 -0.5415  0.4351
  591MOL0     H79758   7.661   3.158   4.547 -2.9466  0.1299 -1.4752
  591MOL0     H79759   7.573   3.438   4.617  1.7083 -0.0884 -0.3258
  591MOL0     H79760   7.448   3.336   4.570  0.0148 -2.1509 -2.3029
  591MOL0     H79761   7.551   3.463   4.386 -0.1233 -0.1123 -0.9745
  591MOL0     H79762   7.708   3.377   4.404 -0.6660 -1.5885  0.5723
  591MOL0     H79763   7.452   3.222   4.343  0.7079 -2.6751 -0.4651
  591MOL0     H79764   7.628   3.168   4.331  0.5008  0.4608 -0.6591
  591MOL0     H79765   7.674   3.342   4.161 -0.8046  2.7478 -2.8646
  591MOL0     H79766   7.505   3.375   4.146 -0.1467 -0.1723 -1.7790
  591MOL0     H79767   7.611   2.827   4.411  0.2857  0.8624  2.2119
  591MOL0     H79768   7.748   2.674   4.264  1.9502  2.3604 -2.1517
  591MOL0     H79769   8.136   2.637   3.939  3.2454  0.0763 -2.9679
  591MOL0     H79770   8.306   2.501   3.832  1.8369 -0.0360  0.1041
  591MOL0     H79771   9.419   1.968   3.256  0.3569 -1.1669  0.5700
  591MOL0     H79772   9.634   1.891   3.354  4.1529  2.5890  0.0587
  591MOL0     H79773  10.034   1.750   3.306  0.0698  1.9624  0.7123
  591MOL0     H79774  10.184   1.609   3.421  0.5733  0.5609 -2.0316
  591MOL0     H79775  10.362   1.584   3.849 -0.5767  0.2767  0.2134
  591MOL0     H79776  10.302   1.746   3.842 -2.2589  0.1880 -2.0887
  591MOL0     H79777  10.068   1.677   3.855 -4.4110 -3.9574  2.2712
  591MOL0     H79778  10.155   1.594   3.974 -0.0894 -0.4087  0.2667
  591MOL0     H79779  10.048   1.497   3.706 -2.3932 -0.0689  0.1861
  591MOL0     H79780   9.989   1.453   3.867 -1.7612  2.4739 -1.4250
  591MOL0     H79781  10.212   1.319   3.712  0.2202 -0.3799 -1.3633
  591MOL0     H79782  10.083   1.250   3.803  2.4191 -1.0029 -3.9424
  591MOL0     H79783  10.386   1.345   4.093 -0.6742  2.0930 -0.3075
  591MOL0     H79784  10.178   1.887   3.749  1.8330 -2.0889 -1.0709
  591MOL0     H79785  10.004   2.030   3.625  0.4105  0.9154 -1.5895
  592MOL0     O79786   2.075   6.898   1.586  0.2391 -0.7364 -0.7496
  592MOL0     C79787   1.996   6.973   1.633  0.0931 -0.5826 -0.2136
  592MOL0     O79788   1.892   6.946   1.716  0.0560  0.5367 -0.1657
  592MOL0     C79789   1.884   6.822   1.782  0.3398 -0.7493 -0.2350
  592MOL0     C79790   1.771   6.802   1.855  0.4141  0.8471 -0.0596
  592MOL0     C79791   1.748   6.690   1.934  0.1004 -1.2279 -0.4040
  592MOL0     C79792   1.842   6.584   1.945  0.1095  0.0671 -0.2802
  592MOL0     O79793   1.831   6.464   2.009 -0.5578  0.4886  0.2622
  592MOL0     C79794   1.716   6.447   2.092 -0.3129  0.1653  0.0481
  592MOL0     C79795   1.709   6.294   2.149 -0.0768 -0.8256  0.1118
  592MOL0     C79796   1.692   6.190   2.033  0.9550  1.1993  0.1089
  592MOL0     C79797   1.650   6.056   2.096  0.3967  0.0069  0.3443
  592MOL0     C79798   1.664   5.950   1.989  0.4506  0.0623 -0.7154
  592MOL0     C79799   1.643   5.815   2.054 -0.3801  0.0405 -0.7255
  592MOL0     C79800   1.493   5.780   2.066  0.9660 -1.1266 -0.4129
  592MOL0     C79801   1.471   5.625   2.085 -0.0055 -1.0167  0.2500
  592MOL0     N79802   1.336   5.606   2.139  0.3625  0.1651  0.3823
  592MOL0     C79803   1.220   5.658   2.088  0.3455 -0.1832  0.6090
  592MOL0     C79804   1.114   5.601   2.155  0.5133 -0.0846  0.1366
  592MOL0     C79805   0.965   5.638   2.158  0.3104 -0.3629 -0.2776
  592MOL0     C79806   0.863   5.525   2.139  0.0570  0.6431 -0.6520
  592MOL0     C79807   0.868   5.419   2.252  0.6272 -0.4142 -0.6176
  592MOL0     C79808   0.844   5.474   2.384  0.1965 -0.9810 -0.7503
  592MOL0     O79809   0.791   5.375   2.466  0.0778  0.6039  0.4057
  592MOL0     C79810   0.833   5.364   2.598  0.2252  0.2335 -0.2681
  592MOL0     C79811   0.912   5.257   2.643  0.0302 -0.2637 -0.3757
  592MOL0     C79812   0.968   5.255   2.769 -0.8694  0.2977  0.5096
  592MOL0     C79813   1.059   5.141   2.808  0.3344  0.8525  1.0764
  592MOL0     C79814   0.948   5.370   2.850 -0.1970  0.5711 -0.1534
  592MOL0     C79815   1.021   5.376   2.976  0.6392 -0.1720 -0.4534
  592MOL0     O79816   0.987   5.278   3.065  0.0356 -0.9784 -0.0137
  592MOL0     C79817   1.047   5.269   3.193 -0.2733 -0.6356 -0.3303
  592MOL0     C79818   1.039   5.368   3.300  0.7406  0.7502  0.5868
  592MOL0     C79819   1.097   5.346   3.419  0.6494 -0.3521  0.8530
  592MOL0     C79820   1.167   5.237   3.452 -0.1775  0.0485 -0.2551
  592MOL0     O79821   1.229   5.242   3.574 -0.4764 -0.5093  0.1305
  592MOL0     C79822   1.296   5.120   3.618  0.4157 -0.7291 -0.2066
  592MOL0     C79823   1.361   5.134   3.758  0.0940  0.6137  0.2631
  592MOL0     C79824   1.254   5.149   3.862  0.7470  0.0712  0.8278
  592MOL0     C79825   1.284   5.144   4.011  0.5501  0.8515  0.4034
  592MOL0     C79826   1.171   5.203   4.093 -0.9427  0.3357 -0.2610
  592MOL0     C79827   1.221   5.335   4.165  0.1317  1.3494  0.1322
  592MOL0     C79828   1.106   5.423   4.216  0.1373  0.5364  0.1565
  592MOL0     C79829   1.010   5.452   4.102  0.2026 -0.8781 -0.3307
  592MOL0    Cl79830   0.898   5.585   4.158  0.1631  0.2214 -0.1075
  592MOL0     C79831   1.187   5.145   3.350  0.9064 -1.0430  0.2582
  592MOL0     C79832   1.131   5.157   3.214 -0.7080  0.2924 -0.6629
  592MOL0     O79833   1.097   5.467   3.003 -0.1878  0.1056  0.1967
  592MOL0     C79834   0.870   5.477   2.813  0.1491  0.2768 -0.0529
  592MOL0     C79835   0.809   5.471   2.686 -0.2628  0.7271  0.4703
  592MOL0     N79836   1.168   5.505   2.238 -0.8273 -0.3013  0.4823
  592MOL0     N79837   1.297   5.506   2.224  0.6467  0.8326  0.2308
  592MOL0     C79838   1.958   6.600   1.863 -0.1484 -0.3101  0.5688
  592MOL0     C79839   1.980   6.718   1.785 -0.5511  0.3376 -0.4149
  592MOL0     C79840   2.009   7.117   1.571  0.3266  0.8217  0.0374
  592MOL0     C79841   1.902   7.206   1.566 -1.1697  0.8369  0.2483
  592MOL0     C79842   1.914   7.330   1.501  0.2158 -0.1251 -0.4169
  592MOL0     C79843   2.030   7.375   1.446 -1.4042  0.9633 -0.0228
  592MOL0     O79844   2.059   7.505   1.413  0.8440  0.2343  0.0518
  592MOL0     C79845   2.007   7.539   1.281 -0.3733  0.0436 -0.8253
  592MOL0     C79846   1.861   7.585   1.280 -0.4397 -0.0950 -0.3080
  592MOL0     C79847   1.829   7.711   1.370  1.0809 -0.5629  0.3141
  592MOL0     C79848   1.828   7.697   1.524  0.3613 -0.3008  0.3978
  592MOL0     C79849   1.782   7.814   1.596  0.5895 -0.2653  0.5237
  592MOL0     C79850   1.750   7.908   1.667 -0.3395  0.4484  0.2531
  592MOL0     C79851   2.141   7.291   1.457  0.1282  1.1640 -0.6207
  592MOL0     C79852   2.124   7.160   1.510  0.3140  0.5711 -0.2461
  592MOL0     H79853   1.693   6.873   1.878  1.2598  1.3337  1.4135
  592MOL0     H79854   1.655   6.683   1.989 -0.0305 -1.0460 -0.5993
  592MOL0     H79855   1.717   6.509   2.182  1.1496 -2.9158  2.3429
  592MOL0     H79856   1.628   6.469   2.032 -3.0225 -2.8149  2.5916
  592MOL0     H79857   1.797   6.283   2.213 -0.1110 -1.0816  0.1157
  592MOL0     H79858   1.622   6.295   2.215  0.6987 -2.5060  1.2212
  592MOL0     H79859   1.617   6.219   1.959 -0.0382 -0.7016  0.3076
  592MOL0     H79860   1.785   6.175   1.978 -0.0667 -3.3156 -0.8287
  592MOL0     H79861   1.715   6.031   2.180  0.8984 -0.2306 -0.1104
  592MOL0     H79862   1.548   6.059   2.136 -0.5863  3.7620 -1.8976
  592MOL0     H79863   1.590   5.971   1.911 -1.8981  1.2569  1.6354
  592MOL0     H79864   1.762   5.966   1.945  0.3217  1.3386 -0.5846
  592MOL0     H79865   1.693   5.741   1.990  0.6913 -0.1789  0.3357
  592MOL0     H79866   1.697   5.805   2.148  1.9901  0.4863 -1.9452
  592MOL0     H79867   1.447   5.836   2.148 -0.0149 -0.4562 -1.3810
  592MOL0     H79868   1.445   5.813   1.973 -0.1014 -0.2945  0.4056
  592MOL0     H79869   1.539   5.586   2.161  0.1985 -0.3361  0.4150
  592MOL0     H79870   1.474   5.586   1.983 -0.9467  1.5051 -0.8306
  592MOL0     H79871   1.221   5.736   2.013  0.7045 -1.3179 -0.5964
  592MOL0     H79872   0.946   5.679   2.258 -2.2032 -0.3140 -0.7112
  592MOL0     H79873   0.947   5.718   2.085 -1.2875 -1.1772 -0.8115
  592MOL0     H79874   0.875   5.482   2.039 -0.9765  0.3297 -0.6483
  592MOL0     H79875   0.764   5.570   2.143 -0.8969 -1.4257  1.6673
  592MOL0     H79876   0.955   5.354   2.254 -0.1672 -1.5010  0.2448
  592MOL0     H79877   0.786   5.352   2.223 -1.0705  0.9887  0.6760
  592MOL0     H79878   0.764   5.548   2.377  0.0205 -1.1916 -1.0005
  592MOL0     H79879   0.939   5.511   2.423  0.2897  0.0320 -1.8623
  592MOL0     H79880   0.931   5.179   2.571 -1.9417 -2.1045  0.9846
  592MOL0     H79881   1.161   5.180   2.818  0.1065  1.0430  3.3836
  592MOL0     H79882   1.021   5.094   2.899  0.9683 -0.6365  0.5857
  592MOL0     H79883   1.051   5.080   2.718 -0.1332  2.0466  0.2811
  592MOL0     H79884   0.972   5.448   3.272  1.8449  0.6481 -2.7294
  592MOL0     H79885   1.074   5.428   3.487 -1.5865  0.0118 -0.2512
  592MOL0     H79886   1.218   5.042   3.619 -0.4639  0.1319  0.2380
  592MOL0     H79887   1.370   5.093   3.542 -0.8185 -2.3501 -0.9068
  592MOL0     H79888   1.409   5.038   3.780 -0.6200  1.0031  4.2305
  592MOL0     H79889   1.432   5.216   3.772 -1.2112  1.6002  1.3515
  592MOL0     H79890   1.184   5.065   3.858  2.6309 -1.5161 -0.8236
  592MOL0     H79891   1.201   5.242   3.838  1.9499  1.1049  1.9816
  592MOL0     H79892   1.291   5.044   4.055 -1.5935  1.7935  3.1822
  592MOL0     H79893   1.380   5.193   4.030  1.5752  1.5096 -4.8202
  592MOL0     H79894   1.125   5.127   4.157 -1.6089  1.6746  0.9100
  592MOL0     H79895   1.086   5.225   4.027 -0.5391 -0.4306 -1.0617
  592MOL0     H79896   1.289   5.312   4.247 -1.1818 -1.5742  0.5278
  592MOL0     H79897   1.273   5.396   4.090  1.7195  0.2402  0.2745
  592MOL0     H79898   1.150   5.514   4.257  1.0467 -0.1827  0.8251
  592MOL0     H79899   1.048   5.371   4.293 -1.8231  1.8046 -0.3980
  592MOL0     H79900   0.961   5.358   4.079 -0.5095 -0.4382 -0.6478
  592MOL0     H79901   1.071   5.490   4.019  2.6047 -0.4156  1.5075
  592MOL0     H79902   1.256   5.064   3.374  0.3595 -1.5850  0.0274
  592MOL0     H79903   1.157   5.086   3.135  1.8944  1.0254 -0.5508
  592MOL0     H79904   0.864   5.573   2.863  0.4129 -0.6783  1.9117
  592MOL0     H79905   0.756   5.560   2.654 -1.9807 -0.6585 -0.7496
  592MOL0     H79906   2.024   6.517   1.845 -0.1024 -0.5484  1.7724
  592MOL0     H79907   2.075   6.730   1.733  0.4568 -0.5514  1.1580
  592MOL0     H79908   1.808   7.185   1.616 -1.6889 -0.6939 -1.2567
  592MOL0     H79909   1.824   7.386   1.479  0.7271 -0.6054 -4.4213
  592MOL0     H79910   2.062   7.627   1.245 -2.1612  1.9512  0.8129
  592MOL0     H79911   2.028   7.461   1.207 -0.4521  1.0360 -1.9296
  592MOL0     H79912   1.798   7.499   1.307  1.3356 -1.5291 -0.5753
  592MOL0     H79913   1.858   7.622   1.177  1.0657 -0.0675 -0.3586
  592MOL0     H79914   1.739   7.759   1.329  1.2198 -0.8668 -0.3595
  592MOL0     H79915   1.917   7.775   1.363  1.6444 -1.4139 -0.6743
  592MOL0     H79916   1.931   7.684   1.560  0.8488  1.3420 -0.3006
  592MOL0     H79917   1.777   7.603   1.548 -1.6591 -0.0320 -2.3835
  592MOL0     H79918   1.714   7.989   1.727  1.8921  0.6466  1.4394
  592MOL0     H79919   2.229   7.326   1.404 -0.5003  0.6351 -2.0735
  592MOL0     H79920   2.207   7.091   1.501 -0.4504 -0.2536 -1.2920
  593MOL0     O79921  11.069   7.077   3.674  0.4025  0.5974 -0.0098
  593MOL0     C79922  10.956   7.030   3.699 -0.2562  0.0497  0.6790
  593MOL0     O79923  10.911   6.921   3.646 -0.0817 -0.0253 -0.3084
  593MOL0     C79924  10.996   6.823   3.603  0.3088 -0.1218  0.1331
  593MOL0     C79925  11.099   6.770   3.667  1.1122  0.1371 -0.2795
  593MOL0     C79926  11.186   6.675   3.613 -0.1987 -0.9936 -0.5319
  593MOL0     C79927  11.154   6.623   3.479 -0.7829 -0.7133  1.0554
  593MOL0     O79928  11.208   6.502   3.434  0.0266 -0.3600  0.0924
  593MOL0     C79929  11.352   6.499   3.439 -0.3643 -0.3809 -0.9087
  593MOL0     C79930  11.402   6.380   3.371  0.5894 -0.2657  0.2709
  593MOL0     C79931  11.536   6.386   3.315 -0.4690  0.9034  0.4027
  593MOL0     C79932  11.573   6.258   3.232 -0.4473 -0.2356  0.0606
  593MOL0     C79933  11.480   6.262   3.113  0.8863  0.4673 -0.5912
  593MOL0     C79934  11.517   6.145   3.026 -0.6370  0.1767  0.1293
  593MOL0     C79935  11.455   6.163   2.886  1.0566  0.5965  0.0993
  593MOL0     C79936  11.463   6.031   2.802  0.5179  0.7680  1.0599
  593MOL0     N79937  11.416   6.050   2.663  0.1882 -0.2333  0.0182
  593MOL0     C79938  11.412   5.944   2.571 -0.7456  0.0505  0.9449
  593MOL0     C79939  11.392   6.011   2.449  0.2372 -0.0764 -1.6273
  593MOL0     C79940  11.376   5.952   2.315 -0.3782  0.7992  0.0846
  593MOL0     C79941  11.494   6.005   2.232  0.2547 -0.7667 -0.6013
  593MOL0     C79942  11.624   5.957   2.284  0.0527 -0.1700 -0.9681
  593MOL0     C79943  11.739   6.006   2.205  0.4491 -0.9306 -0.5258
  593MOL0     O79944  11.741   6.156   2.229 -0.2651 -0.4248 -0.3861
  593MOL0     C79945  11.756   6.247   2.123  0.0628  0.0219 -0.7172
  593MOL0     C79946  11.743   6.383   2.155 -0.5177  0.0499 -0.2527
  593MOL0     C79947  11.754   6.482   2.063 -0.4764 -0.6673  0.1914
  593MOL0     C79948  11.734   6.632   2.108  0.0788  0.7725  0.3261
  593MOL0     C79949  11.787   6.447   1.930  0.5137  0.4221 -0.9299
  593MOL0     C79950  11.787   6.535   1.815  0.2881  0.0018 -0.6420
  593MOL0     O79951  11.870   6.505   1.708  0.6132 -0.7890 -0.3343
  593MOL0     C79952  11.874   6.576   1.589  0.6266 -0.0613 -0.5350
  593MOL0     C79953  11.820   6.521   1.469  0.3492  0.3222 -0.1697
  593MOL0     C79954  11.826   6.589   1.348  0.6624 -0.2300  0.2545
  593MOL0     C79955  11.889   6.713   1.340 -0.5053  1.0423  0.9706
  593MOL0     O79956  11.877   6.776   1.216  0.2163 -0.1242 -0.7055
  593MOL0     C79957  11.933   6.909   1.195  0.0497  0.2153  0.6681
  593MOL0     C79958  11.912   6.923   1.048 -0.1764 -0.2504 -0.6539
  593MOL0     C79959  11.957   7.058   0.989  0.4565 -0.3064  0.2644
  593MOL0     C79960  11.965   7.063   0.833 -0.5290 -0.5070  0.1582
  593MOL0     C79961  12.069   7.161   0.764  0.2530  0.1190  0.7748
  593MOL0     C79962  12.129   7.107   0.629 -0.1435  1.7481 -0.0187
  593MOL0     C79963  12.016   7.105   0.525  0.3431 -0.3870  0.9241
  593MOL0     C79964  12.084   7.115   0.383  0.6690 -0.0479  0.0497
  593MOL0    Cl79965  12.221   6.995   0.339 -0.3273 -0.1700  0.3088
  593MOL0     C79966  11.960   6.759   1.458  0.3832 -0.5542 -0.3613
  593MOL0     C79967  11.940   6.699   1.579 -0.7106  0.3096 -0.3341
  593MOL0     O79968  11.686   6.613   1.811 -0.9328  0.7161 -0.5672
  593MOL0     C79969  11.791   6.312   1.890 -0.3097 -0.0866 -0.6936
  593MOL0     C79970  11.768   6.210   1.990  0.3913 -0.4972 -0.1807
  593MOL0     N79971  11.379   6.142   2.482 -0.9697 -0.2509 -0.5811
  593MOL0     N79972  11.380   6.164   2.606 -0.0323  0.3278  0.0379
  593MOL0     C79973  11.044   6.677   3.411 -0.1077  0.1458 -0.7434
  593MOL0     C79974  10.976   6.785   3.468  0.6873 -0.0599 -0.5477
  593MOL0     C79975  10.848   7.105   3.784 -0.0880 -0.3946  0.9046
  593MOL0     C79976  10.881   7.229   3.838  0.8843 -0.3971  0.1071
  593MOL0     C79977  10.783   7.304   3.916 -0.7473  0.5196  0.9630
  593MOL0     C79978  10.660   7.238   3.948  0.0735  0.1089 -0.0087
  593MOL0     O79979  10.559   7.289   4.022  0.0174  0.0378 -0.4039
  593MOL0     C79980  10.540   7.435   4.033 -0.4299 -0.0738 -0.9793
  593MOL0     C79981  10.415   7.469   4.104 -0.1488 -0.4385 -0.8824
  593MOL0     C79982  10.385   7.625   4.114  0.8307  0.2646  0.9987
  593MOL0     C79983  10.508   7.703   4.159 -0.7196 -0.2066 -0.2018
  593MOL0     C79984  10.611   7.730   4.060 -0.1426 -0.8388 -0.2223
  593MOL0     C79985  10.687   7.755   3.960  0.7442 -0.1995  0.5291
  593MOL0     C79986  10.631   7.112   3.890  0.0179 -0.2194 -0.1823
  593MOL0     C79987  10.725   7.048   3.809 -0.0174 -0.9547  0.5333
  593MOL0     H79988  11.131   6.802   3.766  1.4377  1.8988 -0.9135
  593MOL0     H79989  11.271   6.644   3.673 -0.2064 -0.7300 -0.3801
  593MOL0     H79990  11.397   6.584   3.386 -0.7007  1.0634  0.9941
  593MOL0     H79991  11.377   6.497   3.546  1.2395 -2.2573 -1.2689
  593MOL0     H79992  11.397   6.292   3.437 -0.1821  0.7104  1.5647
  593MOL0     H79993  11.319   6.361   3.303  1.7338  1.7179 -1.7840
  593MOL0     H79994  11.544   6.474   3.251 -0.8774 -0.6135 -1.8499
  593MOL0     H79995  11.610   6.393   3.395 -0.0984 -0.2432  0.1822
  593MOL0     H79996  11.680   6.270   3.214  0.0133 -1.4459  1.7562
  593MOL0     H79997  11.560   6.171   3.296  0.7376 -0.4394  0.0382
  593MOL0     H79998  11.381   6.245   3.155  2.2196 -0.3633  2.5105
  593MOL0     H79999  11.488   6.359   3.063 -0.0879  1.2942  0.7687
  593MOL0     H80000  11.619   6.107   3.016 -0.0880  0.9148  2.2778
  593MOL0     H80001  11.458   6.062   3.064 -3.2478  2.4747  1.5122
  593MOL0     H80002  11.347   6.174   2.899  0.6090  1.5290 -3.5503
  593MOL0     H80003  11.494   6.245   2.826 -0.8585  1.1276 -0.4840
  593MOL0     H80004  11.396   5.960   2.850 -1.4468  3.1444  2.0206
  593MOL0     H80005  11.566   5.994   2.806 -0.2963 -1.6841  0.5851
  593MOL0     H80006  11.414   5.837   2.589 -1.5143 -0.0537  0.4389
  593MOL0     H80007  11.383   5.843   2.310  1.4753  0.9456 -2.6263
  593MOL0     H80008  11.281   5.990   2.276 -0.2448  2.0131  0.9164
  593MOL0     H80009  11.482   6.114   2.226 -0.5223 -0.8507 -0.6550
  593MOL0     H80010  11.483   5.956   2.135 -0.9202 -2.9088  0.5483
  593MOL0     H80011  11.634   5.849   2.296 -0.5298  0.0046  1.6010
  593MOL0     H80012  11.640   6.009   2.379 -0.4634  0.5357 -1.2575
  593MOL0     H80013  11.715   5.971   2.104 -0.7331  2.8627 -1.7451
  593MOL0     H80014  11.831   5.957   2.237 -1.1057 -3.8871 -0.2223
  593MOL0     H80015  11.735   6.413   2.259  2.7819  2.0603 -0.4399
  593MOL0     H80016  11.678   6.685   2.030  2.4578 -1.2260 -3.0145
  593MOL0     H80017  11.667   6.628   2.195 -0.6632  0.7259 -0.2394
  593MOL0     H80018  11.820   6.686   2.149 -1.4693  1.8593  2.3839
  593MOL0     H80019  11.769   6.426   1.471 -2.1620  1.4936 -2.3979
  593MOL0     H80020  11.769   6.542   1.268  1.0402 -1.0362  0.4387
  593MOL0     H80021  11.891   6.995   1.249  1.4062 -0.3777  2.7996
  593MOL0     H80022  12.040   6.915   1.213  0.5169 -3.3423 -0.1074
  593MOL0     H80023  11.949   6.835   0.993  0.2209 -2.7050  3.1282
  593MOL0     H80024  11.805   6.912   1.030 -0.2500  1.8649 -1.7774
  593MOL0     H80025  12.057   7.074   1.031  0.3998 -1.2640  0.8021
  593MOL0     H80026  11.882   7.134   1.017 -0.3943 -0.9045 -0.3533
  593MOL0     H80027  11.994   6.959   0.812 -1.1203 -0.6062 -0.1795
  593MOL0     H80028  11.868   7.088   0.789  0.2624  3.8418  0.4470
  593MOL0     H80029  12.149   7.182   0.835  1.2967 -0.0497 -0.3134
  593MOL0     H80030  12.027   7.260   0.741  0.4421 -0.3901 -2.2408
  593MOL0     H80031  12.209   7.174   0.596  0.2622  0.2251 -2.3818
  593MOL0     H80032  12.169   7.005   0.635 -1.4922  0.8702 -3.5517
  593MOL0     H80033  11.942   7.185   0.527 -0.0847 -0.7533  0.2257
  593MOL0     H80034  11.959   7.012   0.538 -0.0716 -0.3000 -0.1393
  593MOL0     H80035  12.128   7.215   0.380  1.6196 -0.4651 -1.3004
  593MOL0     H80036  12.014   7.114   0.299  3.4194 -0.2365 -2.4255
  593MOL0     H80037  12.008   6.856   1.448 -0.4757 -0.3700 -4.3624
  593MOL0     H80038  11.982   6.747   1.667  1.4301  0.3509 -1.3207
  593MOL0     H80039  11.801   6.279   1.787  2.1209 -3.3563  0.4078
  593MOL0     H80040  11.758   6.108   1.954  0.4724 -0.0442 -1.5254
  593MOL0     H80041  11.008   6.644   3.314 -0.5992  5.3736 -2.6591
  593MOL0     H80042  10.894   6.835   3.417  0.8148 -0.2022 -0.8981
  593MOL0     H80043  10.982   7.261   3.817  0.3786  1.0017 -0.3287
  593MOL0     H80044  10.821   7.398   3.955  0.0984  0.0716  1.2608
  593MOL0     H80045  10.621   7.479   4.092 -1.5344  0.6770  0.0203
  593MOL0     H80046  10.530   7.484   3.936 -5.0626  2.8304  0.6221
  593MOL0     H80047  10.412   7.426   4.205 -1.2338  0.0514 -0.6945
  593MOL0     H80048  10.329   7.425   4.052 -1.6020  1.1463  0.0839
  593MOL0     H80049  10.301   7.650   4.180  0.8176  1.8401  0.4501
  593MOL0     H80050  10.357   7.664   4.015 -0.8534 -1.9044  0.5276
  593MOL0     H80051  10.550   7.648   4.244  4.7028  3.0263 -0.2988
  593MOL0     H80052  10.475   7.801   4.196 -0.7553 -0.8491  1.5361
  593MOL0     H80053  10.751   7.766   3.874 -0.0579 -0.2943 -0.0886
  593MOL0     H80054  10.536   7.068   3.918 -2.0558  2.7968 -1.9767
  593MOL0     H80055  10.706   6.953   3.760  0.7563 -0.0088 -1.7349
  594MOL0     O80056   2.824   5.893  11.096 -0.3462  0.7208  0.3679
  594MOL0     C80057   2.858   5.794  11.030  0.7670  0.8969 -0.8361
  594MOL0     O80058   2.980   5.740  11.028 -0.3985  0.1208  0.3411
  594MOL0     C80059   3.093   5.793  11.088  0.0835  0.1033  0.2279
  594MOL0     C80060   3.212   5.757  11.028 -0.2101  0.5035 -0.0150
  594MOL0     C80061   3.339   5.805  11.069  0.3862  0.3119  0.7414
  594MOL0     C80062   3.348   5.891  11.179 -0.7163  0.1538 -0.2727
  594MOL0     O80063   3.473   5.940  11.208  0.1138  0.2128 -0.4021
  594MOL0     C80064   3.513   5.965  11.339  0.6884  0.0506  0.2840
  594MOL0     C80065   3.648   6.045  11.335 -0.5513  0.2253  0.2711
  594MOL0     C80066   3.762   5.972  11.259 -0.1820  0.8561 -1.4225
  594MOL0     C80067   3.895   6.047  11.278  0.0740 -0.6278 -0.3902
  594MOL0     C80068   4.010   5.969  11.212  0.2595 -0.5357  0.1813
  594MOL0     C80069   4.004   5.936  11.064  0.3020  0.0723 -0.7530
  594MOL0     C80070   4.133   5.867  11.026  1.1524 -0.9096 -0.1072
  594MOL0     C80071   4.136   5.715  11.063 -1.3865  0.2317  0.5572
  594MOL0     N80072   4.258   5.639  11.031 -1.0012 -0.7957  0.0022
  594MOL0     C80073   4.366   5.620  11.124  0.5515  1.2281 -0.3340
  594MOL0     C80074   4.469   5.584  11.044  0.1278  0.5562 -0.2136
  594MOL0     C80075   4.608   5.548  11.088  1.2207  0.3354  0.1748
  594MOL0     C80076   4.725   5.587  10.999 -0.4762 -0.8886 -0.1354
  594MOL0     C80077   4.867   5.611  11.077 -0.8110  0.4742  0.2734
  594MOL0     C80078   4.976   5.644  10.969  0.0864 -0.3326 -1.0051
  594MOL0     O80079   5.081   5.710  11.045  0.0992  0.4379  0.0991
  594MOL0     C80080   5.187   5.647  11.105  0.7854  0.7473  0.0105
  594MOL0     C80081   5.255   5.745  11.178 -0.5230  0.1775 -0.4997
  594MOL0     C80082   5.371   5.701  11.250 -0.7133  0.3856  0.3751
  594MOL0     C80083   5.446   5.803  11.336 -0.1372 -0.3116  0.3554
  594MOL0     C80084   5.422   5.569  11.221 -0.2039  0.3480  0.1166
  594MOL0     C80085   5.561   5.511  11.269 -0.7936 -1.0031  0.3430
  594MOL0     O80086   5.567   5.372  11.287  0.3267 -0.3509 -0.1115
  594MOL0     C80087   5.692   5.308  11.298 -0.6697  0.0618  1.7390
  594MOL0     C80088   5.795   5.353  11.211 -0.0722  0.4363  0.2163
  594MOL0     C80089   5.920   5.290  11.200  0.7650 -0.1792  1.4508
  594MOL0     C80090   5.951   5.182  11.276  0.3922 -0.2159 -0.9711
  594MOL0     O80091   6.077   5.123  11.276 -0.2639 -0.6126 -0.0178
  594MOL0     C80092   6.074   5.007  11.193 -0.0495 -0.0549 -1.6463
  594MOL0     C80093   6.076   5.015  11.042  0.4593 -0.0362 -0.2184
  594MOL0     C80094   6.127   4.895  10.967 -0.3349 -0.7490 -0.1560
  594MOL0     C80095   6.076   4.914  10.824 -0.2710 -0.6174 -0.3674
  594MOL0     C80096   6.106   4.791  10.741 -0.1535  0.7032  0.2433
  594MOL0     C80097   6.084   4.806  10.588 -0.2437  0.1996  0.8678
  594MOL0     C80098   5.941   4.834  10.548 -0.6311 -0.2461  0.1832
  594MOL0     C80099   5.917   4.844  10.402  0.2164 -0.3568  0.3499
  594MOL0    Cl80100   5.740   4.861  10.361  0.3377  0.0368 -0.4807
  594MOL0     C80101   5.844   5.122  11.352 -0.3456  0.1933 -0.5511
  594MOL0     C80102   5.717   5.189  11.364 -1.1176  0.3393  0.0470
  594MOL0     O80103   5.655   5.592  11.281  0.6925 -0.3179  0.4635
  594MOL0     C80104   5.348   5.479  11.140  0.4731  0.4280  0.4296
  594MOL0     C80105   5.233   5.518  11.078  0.3359  0.6591 -0.0817
  594MOL0     N80106   4.415   5.576  10.910 -0.6892 -0.5945 -0.5817
  594MOL0     N80107   4.290   5.605  10.907 -0.5854  0.0254  0.2726
  594MOL0     C80108   3.236   5.924  11.245 -0.0182  0.2629  0.1593
  594MOL0     C80109   3.111   5.886  11.197  0.2855  0.3064  0.0346
  594MOL0     C80110   2.755   5.717  10.964  0.5455  0.1172  1.4968
  594MOL0     C80111   2.625   5.736  11.003 -0.4753  0.3530  0.4758
  594MOL0     C80112   2.518   5.653  10.964  0.0701  0.0263 -0.0436
  594MOL0     C80113   2.549   5.545  10.883 -0.0464 -0.8022  0.6288
  594MOL0     O80114   2.434   5.484  10.838  0.4257  0.3738 -0.8464
  594MOL0     C80115   2.450   5.366  10.745 -0.7922  0.1662  1.0040
  594MOL0     C80116   2.305   5.337  10.700  0.4888  0.4447 -0.1516
  594MOL0     C80117   2.204   5.302  10.818 -0.4670  0.9318  0.1171
  594MOL0     C80118   2.063   5.330  10.778 -0.2212 -1.1752 -0.4942
  594MOL0     C80119   1.998   5.260  10.672 -0.5086  0.5354 -0.0307
  594MOL0     C80120   1.954   5.189  10.578 -0.2590 -0.5249  1.1240
  594MOL0     C80121   2.680   5.527  10.839  0.3329 -0.3212  0.0114
  594MOL0     C80122   2.785   5.600  10.889 -0.0342 -0.7043  1.0520
  594MOL0     H80123   3.216   5.694  10.939  3.3768  1.0199 -0.3706
  594MOL0     H80124   3.424   5.764  11.014 -1.4811  0.2673 -2.3300
  594MOL0     H80125   3.444   6.029  11.396  1.9786  0.5734  1.3046
  594MOL0     H80126   3.532   5.868  11.387 -1.4203 -0.1447  0.8539
  594MOL0     H80127   3.633   6.143  11.288  4.4159  0.3233 -1.7191
  594MOL0     H80128   3.681   6.065  11.437  1.1108  0.4559 -0.2930
  594MOL0     H80129   3.781   5.871  11.294 -1.5404  1.6971  2.2322
  594MOL0     H80130   3.736   5.966  11.153  0.1958  1.8139 -1.5843
  594MOL0     H80131   3.871   6.148  11.243  2.3486 -0.6227 -2.1343
  594MOL0     H80132   3.919   6.052  11.385 -1.0407  0.0040 -0.1489
  594MOL0     H80133   4.105   6.014  11.242 -0.3110 -0.4339  1.9579
  594MOL0     H80134   4.019   5.872  11.262 -0.2332  0.6838  2.8023
  594MOL0     H80135   3.905   5.892  11.048 -0.5941  1.8119 -0.3370
  594MOL0     H80136   4.002   6.033  11.013 -0.4667  2.0631  2.6963
  594MOL0     H80137   4.139   5.885  10.918 -0.4370 -2.0503 -0.4300
  594MOL0     H80138   4.226   5.911  11.060  2.4984 -4.1551  0.8367
  594MOL0     H80139   4.051   5.669  11.012  1.2445 -1.1292 -3.0334
  594MOL0     H80140   4.115   5.720  11.170 -1.8433  0.7648  0.4504
  594MOL0     H80141   4.369   5.639  11.231 -1.0906 -0.2307  0.0269
  594MOL0     H80142   4.616   5.602  11.183 -1.9433 -2.0054  1.9696
  594MOL0     H80143   4.619   5.445  11.121 -0.4272  0.8682  2.6715
  594MOL0     H80144   4.701   5.679  10.946  0.6534  0.2129  1.1908
  594MOL0     H80145   4.732   5.506  10.926  0.3221  0.6399 -1.8253
  594MOL0     H80146   4.912   5.524  11.125  0.3544  0.1002 -1.4027
  594MOL0     H80147   4.867   5.700  11.140  1.7217  1.5510 -1.1118
  594MOL0     H80148   4.942   5.717  10.895  1.4033  0.5433 -0.7950
  594MOL0     H80149   4.997   5.557  10.907 -0.1476 -1.3661  0.3305
  594MOL0     H80150   5.233   5.851  11.176  0.6646  0.4302 -1.5054
  594MOL0     H80151   5.547   5.817  11.298 -0.0819  1.4705  1.0917
  594MOL0     H80152   5.397   5.901  11.330 -1.4310 -1.0281 -2.6054
  594MOL0     H80153   5.449   5.768  11.440 -3.5328 -0.2747  0.5833
  594MOL0     H80154   5.772   5.422  11.131 -0.4565 -0.2773 -0.3014
  594MOL0     H80155   6.006   5.329  11.146 -0.0917  2.6315  1.9238
  594MOL0     H80156   6.161   4.948  11.225 -1.8747 -1.5115  0.9543
  594MOL0     H80157   5.990   4.942  11.221 -0.4470  0.7916 -0.8217
  594MOL0     H80158   5.970   5.028  11.019  0.2981 -0.1600  0.4228
  594MOL0     H80159   6.117   5.107  11.001  1.3661 -1.1139 -1.8030
  594MOL0     H80160   6.093   4.798  11.006  0.8261 -0.6350  1.1948
  594MOL0     H80161   6.236   4.892  10.962 -0.3022 -1.5682  0.8045
  594MOL0     H80162   5.971   4.941  10.815 -1.0334 -3.9214 -3.4533
  594MOL0     H80163   6.130   4.996  10.776  2.1840 -1.2064  1.1657
  594MOL0     H80164   6.043   4.710  10.778 -0.5617  1.9967  2.5487
  594MOL0     H80165   6.212   4.765  10.749 -0.1812  0.5315  0.0582
  594MOL0     H80166   6.147   4.891  10.560  0.6878 -0.9470 -0.7659
  594MOL0     H80167   6.122   4.715  10.540  1.0075 -1.1717  4.2075
  594MOL0     H80168   5.901   4.922  10.600  0.8157 -1.9614  4.7131
  594MOL0     H80169   5.880   4.749  10.582 -0.9826 -0.2418 -0.4198
  594MOL0     H80170   5.948   4.745  10.365  0.6228  0.3056 -1.1615
  594MOL0     H80171   5.991   4.908  10.354  0.4822 -0.1680  1.0087
  594MOL0     H80172   5.877   5.034  11.407  0.0606  0.7276  0.0684
  594MOL0     H80173   5.632   5.154  11.421 -0.5807  1.6250  1.7055
  594MOL0     H80174   5.386   5.378  11.144  1.6432  0.8658  0.9915
  594MOL0     H80175   5.185   5.446  11.014  1.9006  0.1570 -0.7489
  594MOL0     H80176   3.253   6.000  11.321  0.0868  0.7533 -0.3534
  594MOL0     H80177   3.023   5.934  11.237  1.0692  2.0844 -0.2984
  594MOL0     H80178   2.598   5.817  11.070 -1.7062  0.2425  0.1278
  594MOL0     H80179   2.415   5.679  10.987 -0.2873 -0.1622 -1.3164
  594MOL0     H80180   2.504   5.387  10.652 -1.4679 -1.2928  0.2506
  594MOL0     H80181   2.502   5.283  10.794  2.0299  0.1584 -1.6918
  594MOL0     H80182   2.307   5.265  10.618 -2.1846 -1.0064  0.9343
  594MOL0     H80183   2.269   5.429  10.652  2.4240  0.5233 -1.5747
  594MOL0     H80184   2.229   5.372  10.898 -0.5990  1.6595 -0.4721
  594MOL0     H80185   2.200   5.201  10.860 -0.1811 -0.0010 -1.9907
  594MOL0     H80186   2.071   5.439  10.769  0.5520 -1.2199 -0.4627
  594MOL0     H80187   2.005   5.306  10.868 -0.1227  1.4555  0.3546
  594MOL0     H80188   1.919   5.122  10.502  0.5372 -0.5790  0.7922
  594MOL0     H80189   2.700   5.438  10.780 -0.3130  0.0489 -0.7839
  594MOL0     H80190   2.886   5.583  10.851 -2.0514 -3.2962 -4.1822
  595MOL0     O80191   2.645   2.251   3.117 -0.2931  0.2521 -0.3290
  595MOL0     C80192   2.634   2.373   3.090  0.2932 -0.0278  0.0067
  595MOL0     O80193   2.681   2.427   2.984  0.4512 -0.4419 -0.2027
  595MOL0     C80194   2.764   2.347   2.910  0.4714 -0.2427 -1.1020
  595MOL0     C80195   2.703   2.243   2.837  0.0455  0.4591  0.2829
  595MOL0     C80196   2.776   2.151   2.773 -0.3318 -0.9251  0.2963
  595MOL0     C80197   2.919   2.150   2.795  0.1629  0.6684 -0.0481
  595MOL0     O80198   2.979   2.041   2.738 -0.2000  0.6836 -0.2961
  595MOL0     C80199   3.108   2.014   2.785  0.0054 -0.5053 -1.2025
  595MOL0     C80200   3.122   1.864   2.796  0.0547  0.8939  0.0803
  595MOL0     C80201   3.226   1.828   2.898 -0.4349  0.3219 -0.4167
  595MOL0     C80202   3.243   1.670   2.917  0.2079  0.7599  0.0906
  595MOL0     C80203   3.248   1.609   3.060  0.1524 -0.4881  0.1101
  595MOL0     C80204   3.112   1.636   3.127 -0.9573  0.6776  0.3810
  595MOL0     C80205   2.990   1.596   3.038  0.5124  0.7795 -1.3442
  595MOL0     C80206   2.853   1.627   3.111 -0.5615  0.5841  0.5280
  595MOL0     N80207   2.829   1.550   3.232 -0.5235 -0.3577 -0.2166
  595MOL0     C80208   2.744   1.447   3.240 -0.1893  0.7071  0.4483
  595MOL0     C80209   2.753   1.411   3.366 -0.1389 -0.0500 -0.1438
  595MOL0     C80210   2.685   1.282   3.428  0.3437  0.2602  0.5554
  595MOL0     C80211   2.671   1.150   3.344 -0.7703  0.0004  0.1222
  595MOL0     C80212   2.808   1.103   3.308 -0.1315 -0.2728 -0.6128
  595MOL0     C80213   2.877   1.146   3.176  0.3606 -0.4826 -1.1538
  595MOL0     O80214   3.008   1.097   3.181 -0.5482  0.5619  0.7329
  595MOL0     C80215   3.060   1.119   3.058 -0.1112  0.0936 -0.5255
  595MOL0     C80216   3.053   1.024   2.959  0.6628 -0.1638  0.1885
  595MOL0     C80217   3.128   1.039   2.841 -0.2869 -0.4805 -0.5728
  595MOL0     C80218   3.151   0.914   2.774 -0.3867  0.1902 -0.2563
  595MOL0     C80219   3.199   1.158   2.820 -0.9646 -0.4128  0.1013
  595MOL0     C80220   3.278   1.182   2.703 -0.4959 -0.1093  0.7255
  595MOL0     O80221   3.385   1.264   2.717 -0.3791  0.2166 -0.0339
  595MOL0     C80222   3.448   1.321   2.604 -0.3800 -0.0574 -0.0957
  595MOL0     C80223   3.573   1.278   2.554 -0.6192 -0.2810 -0.2609
  595MOL0     C80224   3.629   1.334   2.435 -0.5615 -0.2729 -0.5235
  595MOL0     C80225   3.566   1.442   2.368  0.1578  0.0963  0.4391
  595MOL0     O80226   3.627   1.505   2.262 -0.0317 -0.3369 -0.1241
  595MOL0     C80227   3.568   1.619   2.200  0.4749 -1.1479  0.4724
  595MOL0     C80228   3.676   1.684   2.120 -0.1675 -0.7555 -0.0799
  595MOL0     C80229   3.769   1.775   2.208  0.7069  0.0148 -0.3881
  595MOL0     C80230   3.874   1.843   2.120  0.0761 -0.4760  0.8951
  595MOL0     C80231   3.948   1.953   2.199  0.3142 -0.0221  0.9052
  595MOL0     C80232   4.056   2.049   2.132 -0.0641  0.3357 -1.3122
  595MOL0     C80233   4.085   2.166   2.218  0.2403  0.4041  0.0759
  595MOL0     C80234   4.196   2.244   2.149  0.1212  0.3553  0.4278
  595MOL0    Cl80235   4.138   2.321   2.004  0.1548 -0.2466  0.1321
  595MOL0     C80236   3.433   1.469   2.409 -1.1907  0.4209 -0.7190
  595MOL0     C80237   3.381   1.414   2.522  0.2530  0.2009 -0.6147
  595MOL0     O80238   3.241   1.140   2.597 -0.4285 -0.0920  0.3725
  595MOL0     C80239   3.190   1.260   2.906  0.5571  0.3262  0.2859
  595MOL0     C80240   3.121   1.238   3.020  0.0141 -0.4181 -0.1071
  595MOL0     N80241   2.847   1.486   3.431 -0.0125  0.1682 -0.5957
  595MOL0     N80242   2.903   1.564   3.344  0.3318 -1.5424  0.0613
  595MOL0     C80243   2.978   2.262   2.854  0.4562 -0.3575  0.0743
  595MOL0     C80244   2.904   2.369   2.909 -0.0177  0.0838 -0.2839
  595MOL0     C80245   2.548   2.473   3.170 -0.0315 -0.1716  0.6017
  595MOL0     C80246   2.525   2.602   3.119  0.2004 -0.6447 -0.4574
  595MOL0     C80247   2.438   2.687   3.193 -0.2473 -0.8618  0.0373
  595MOL0     C80248   2.372   2.646   3.311  0.5174  0.3325  0.1816
  595MOL0     O80249   2.273   2.727   3.357  0.5600  0.5091  0.0239
  595MOL0     C80250   2.193   2.662   3.456 -0.1331 -0.3959 -0.2875
  595MOL0     C80251   2.077   2.751   3.487 -0.4439  0.0416 -0.1165
  595MOL0     C80252   1.997   2.685   3.602  0.5099 -0.8165 -0.6905
  595MOL0     C80253   2.041   2.733   3.745 -0.4991  0.7142 -0.6108
  595MOL0     C80254   2.000   2.644   3.852  0.0834 -0.9708 -0.4743
  595MOL0     C80255   1.965   2.565   3.938  0.3978  0.5987  0.2763
  595MOL0     C80256   2.406   2.519   3.364  0.1668  1.0712 -0.4756
  595MOL0     C80257   2.492   2.433   3.292  0.0237 -0.1588 -0.3913
  595MOL0     H80258   2.596   2.223   2.846  0.7193 -3.5945  1.5592
  595MOL0     H80259   2.732   2.066   2.721  2.8381 -1.9138 -1.0525
  595MOL0     H80260   3.181   2.058   2.717  2.0528 -0.3271  0.9773
  595MOL0     H80261   3.127   2.041   2.889  0.2232 -2.4487 -0.6985
  595MOL0     H80262   3.027   1.824   2.834  0.5125  0.5007  0.8392
  595MOL0     H80263   3.137   1.800   2.708 -4.2679 -2.1614  1.1804
  595MOL0     H80264   3.324   1.850   2.856  0.1879 -1.5274 -0.0308
  595MOL0     H80265   3.217   1.875   2.996 -1.1904  2.4235 -1.4333
  595MOL0     H80266   3.168   1.610   2.865  1.1868 -0.1494 -0.2993
  595MOL0     H80267   3.341   1.639   2.879  0.7187  1.4534  0.8163
  595MOL0     H80268   3.269   1.504   3.042 -0.3248 -0.3064 -1.6883
  595MOL0     H80269   3.327   1.652   3.124  2.3675 -1.6442 -1.6802
  595MOL0     H80270   3.127   1.572   3.215 -0.3966  0.9678  0.5064
  595MOL0     H80271   3.107   1.743   3.148  0.9753  1.4706 -2.5720
  595MOL0     H80272   2.986   1.640   2.938  1.0111 -0.4414 -1.9135
  595MOL0     H80273   2.990   1.488   3.022 -0.5145  1.0125 -3.2570
  595MOL0     H80274   2.776   1.587   3.043  1.7319 -0.0591 -1.8563
  595MOL0     H80275   2.845   1.734   3.133 -1.0188  0.7571 -0.4082
  595MOL0     H80276   2.696   1.399   3.156  0.1587 -2.3525  1.8768
  595MOL0     H80277   2.736   1.262   3.522  0.3154  0.5920  0.6433
  595MOL0     H80278   2.580   1.307   3.446  0.7706  3.3929 -0.6407
  595MOL0     H80279   2.611   1.145   3.252 -2.3015 -2.2143  1.1587
  595MOL0     H80280   2.632   1.071   3.410  1.9076 -0.2453  1.5409
  595MOL0     H80281   2.816   0.994   3.302 -0.9482 -0.3556 -0.2910
  595MOL0     H80282   2.873   1.115   3.395 -1.8900  1.3280  0.5381
  595MOL0     H80283   2.860   1.253   3.163 -1.9239  0.0584  3.9634
  595MOL0     H80284   2.823   1.097   3.094  0.2238 -1.5394 -0.4603
  595MOL0     H80285   3.006   0.933   2.994  2.0303  0.2699  3.5715
  595MOL0     H80286   3.063   0.885   2.716 -3.9571 -0.1009  4.6098
  595MOL0     H80287   3.225   0.925   2.695 -1.4168  0.9535 -1.1460
  595MOL0     H80288   3.193   0.841   2.844 -0.0439 -0.7610 -1.4180
  595MOL0     H80289   3.617   1.197   2.610 -2.3541 -0.7259  0.5363
  595MOL0     H80290   3.720   1.304   2.383  1.4382  5.1906 -0.8424
  595MOL0     H80291   3.491   1.582   2.133  3.4596 -1.8767 -2.8808
  595MOL0     H80292   3.540   1.692   2.276  1.6875  1.4398 -1.4128
  595MOL0     H80293   3.735   1.599   2.086  1.2973 -0.2158  0.9550
  595MOL0     H80294   3.635   1.753   2.045 -0.7530  0.1877  1.0584
  595MOL0     H80295   3.808   1.714   2.290  2.0278  0.0247 -0.9751
  595MOL0     H80296   3.707   1.856   2.247  0.1312 -0.9109  0.7050
  595MOL0     H80297   3.943   1.764   2.090  0.7560  0.5556 -0.3348
  595MOL0     H80298   3.818   1.891   2.040 -0.1755 -0.3271  1.1584
  595MOL0     H80299   3.997   1.915   2.289 -0.4410 -1.4498  0.7390
  595MOL0     H80300   3.864   2.016   2.230 -0.8960  0.9764 -3.6368
  595MOL0     H80301   4.151   2.002   2.105 -0.2669 -2.0797  1.6819
  595MOL0     H80302   4.009   2.090   2.042 -1.2778 -1.7220 -1.6829
  595MOL0     H80303   4.120   2.128   2.315 -2.8955 -1.6396  0.5279
  595MOL0     H80304   4.003   2.236   2.238  0.9390  0.1202  5.6473
  595MOL0     H80305   4.272   2.174   2.114 -3.6641 -2.4350 -3.2914
  595MOL0     H80306   4.238   2.318   2.218  0.3541  1.8152 -1.1972
  595MOL0     H80307   3.380   1.536   2.342  0.3005  2.7263  0.2862
  595MOL0     H80308   3.280   1.423   2.560  0.8079  0.3869  0.8963
  595MOL0     H80309   3.226   1.360   2.884 -2.7266  1.1048 -2.5638
  595MOL0     H80310   3.139   1.307   3.101  0.0780  0.3988 -0.8010
  595MOL0     H80311   3.086   2.266   2.855  0.5419 -0.9516 -2.1076
  595MOL0     H80312   2.950   2.451   2.965 -1.0098 -0.6055  1.6143
  595MOL0     H80313   2.574   2.641   3.030  2.3742 -0.8625  0.5563
  595MOL0     H80314   2.420   2.785   3.150  0.9043 -0.5880  0.1432
  595MOL0     H80315   2.151   2.566   3.426  0.1254 -1.0029  1.2233
  595MOL0     H80316   2.251   2.649   3.548 -0.6874  2.6195  0.6262
  595MOL0     H80317   2.012   2.767   3.400  0.2480  2.5397 -0.2608
  595MOL0     H80318   2.105   2.853   3.515 -2.6107  0.2117  1.6673
  595MOL0     H80319   1.979   2.578   3.604 -1.0455 -0.5855  1.6640
  595MOL0     H80320   1.893   2.718   3.597 -0.3454 -2.8125  1.7754
  595MOL0     H80321   2.017   2.835   3.776  1.2512  0.7827  0.7241
  595MOL0     H80322   2.151   2.729   3.739 -0.3501  1.5702  1.0405
  595MOL0     H80323   1.957   2.483   4.008 -0.2205  0.2179 -0.2302
  595MOL0     H80324   2.388   2.485   3.465 -1.7184  0.9211 -0.8147
  595MOL0     H80325   2.517   2.337   3.336  2.4232  0.3353 -0.5064
  596MOL0     O80326   4.194   1.556   7.477 -0.4690 -0.1974  0.5395
  596MOL0     C80327   4.147   1.523   7.370 -0.0973 -0.0435  0.0989
  596MOL0     O80328   4.016   1.512   7.337 -0.5534 -0.3852  0.6118
  596MOL0     C80329   3.925   1.499   7.439 -1.0283 -0.5197 -1.1014
  596MOL0     C80330   3.874   1.371   7.473  0.5104 -0.7476 -0.8923
  596MOL0     C80331   3.792   1.375   7.585  1.1529 -0.5002  0.4043
  596MOL0     C80332   3.748   1.496   7.650 -0.4794 -1.0550 -0.1999
  596MOL0     O80333   3.652   1.479   7.751  0.4721 -0.7541  0.7061
  596MOL0     C80334   3.537   1.574   7.746 -0.0039  0.4103  0.4259
  596MOL0     C80335   3.467   1.574   7.610 -0.1066 -0.2192  0.1876
  596MOL0     C80336   3.409   1.710   7.561 -0.2702  0.5940  0.1135
  596MOL0     C80337   3.328   1.776   7.658  0.1807 -0.2457 -0.0354
  596MOL0     C80338   3.245   1.892   7.603  0.3262 -0.2170  0.1655
  596MOL0     C80339   3.138   1.922   7.703 -0.0522 -0.0905  0.4674
  596MOL0     C80340   3.068   2.059   7.676 -0.1065  0.0145  0.1077
  596MOL0     C80341   2.997   2.051   7.535 -0.1950  0.1491  0.0778
  596MOL0     N80342   2.924   2.176   7.498 -0.0595  0.2017 -0.0513
  596MOL0     C80343   2.825   2.179   7.412 -0.7717 -0.3904 -0.0085
  596MOL0     C80344   2.771   2.297   7.431  0.4731  0.5797  0.2727
  596MOL0     C80345   2.645   2.348   7.369  0.1098 -1.0689 -0.0408
  596MOL0     C80346   2.541   2.383   7.469  0.1440 -0.5172 -0.9772
  596MOL0     C80347   2.542   2.534   7.502 -0.0228 -0.0999  0.0711
  596MOL0     C80348   2.457   2.569   7.630 -0.4984 -0.1683 -0.5470
  596MOL0     O80349   2.323   2.572   7.590  1.1163  0.1444  0.4064
  596MOL0     C80350   2.234   2.651   7.657 -0.1724 -0.0382  0.1001
  596MOL0     C80351   2.108   2.668   7.600  0.2254  0.3074  0.3689
  596MOL0     C80352   2.008   2.731   7.677  1.3374 -0.1901 -0.2982
  596MOL0     C80353   1.867   2.752   7.619 -0.1916  0.6477 -0.5881
  596MOL0     C80354   2.039   2.758   7.814  0.1808 -0.5797 -0.6158
  596MOL0     C80355   1.932   2.804   7.911  0.9136  1.1895 -0.1698
  596MOL0     O80356   1.798   2.749   7.910  0.2105  0.1417 -0.3429
  596MOL0     C80357   1.716   2.822   7.996 -0.0392  0.2189  0.0699
  596MOL0     C80358   1.631   2.923   7.962  0.2034 -0.2718  0.3682
  596MOL0     C80359   1.553   3.000   8.048 -0.1766  0.2535  0.0851
  596MOL0     C80360   1.539   2.962   8.182 -1.2001  0.0055  0.2489
  596MOL0     O80361   1.469   3.035   8.270  0.1538 -0.8205  0.0859
  596MOL0     C80362   1.368   3.122   8.221  0.4107  0.8183  0.6637
  596MOL0     C80363   1.269   3.159   8.323  0.2536  0.3014 -0.1112
  596MOL0     C80364   1.341   3.220   8.444 -0.0863 -0.1192  0.2771
  596MOL0     C80365   1.239   3.305   8.514  1.0813 -0.2456 -0.4424
  596MOL0     C80366   1.298   3.375   8.638  0.7428  0.3481  0.2447
  596MOL0     C80367   1.202   3.471   8.710  0.1569  0.4021 -0.5453
  596MOL0     C80368   1.241   3.517   8.849 -0.3788 -0.2161 -0.8234
  596MOL0     C80369   1.258   3.397   8.946  0.9259  0.0032  0.0688
  596MOL0    Cl80370   1.153   3.262   8.909 -0.0661  0.2129 -0.2008
  596MOL0     C80371   1.624   2.853   8.227 -0.9367 -1.1282 -0.7822
  596MOL0     C80372   1.713   2.786   8.129 -0.3128 -0.7119 -0.9680
  596MOL0     O80373   1.969   2.894   7.991 -0.1902  0.0403 -0.6426
  596MOL0     C80374   2.164   2.740   7.861 -0.5116  0.1648  0.4549
  596MOL0     C80375   2.266   2.697   7.784 -0.0102 -0.6452  0.7326
  596MOL0     N80376   2.832   2.363   7.533 -0.9859 -0.1539 -0.8801
  596MOL0     N80377   2.925   2.284   7.580  0.5907 -0.0376 -0.8263
  596MOL0     C80378   3.804   1.620   7.614  0.7146 -1.1356  0.0992
  596MOL0     C80379   3.896   1.620   7.512 -0.7100  0.4817  0.6699
  596MOL0     C80380   4.251   1.494   7.267 -0.6915  0.0510 -0.1597
  596MOL0     C80381   4.389   1.501   7.282 -0.1604 -0.5236  0.8030
  596MOL0     C80382   4.477   1.460   7.177  0.5285  0.0737  0.1144
  596MOL0     C80383   4.426   1.406   7.047  0.8967  0.3570 -0.2930
  596MOL0     O80384   4.491   1.340   6.949  0.8987 -0.2494 -0.1264
  596MOL0     C80385   4.612   1.280   6.982 -0.1959 -0.2689  0.5738
  596MOL0     C80386   4.660   1.203   6.863 -0.5476  1.0672  0.0673
  596MOL0     C80387   4.550   1.112   6.796 -0.0363  0.7603 -0.7904
  596MOL0     C80388   4.615   1.004   6.709  0.2111  0.3974  0.6048
  596MOL0     C80389   4.680   0.888   6.764  0.2408  0.2797  0.0292
  596MOL0     C80390   4.748   0.794   6.784  0.1054  0.2213 -0.6134
  596MOL0     C80391   4.288   1.426   7.031 -0.0088  0.6472 -0.4673
  596MOL0     C80392   4.211   1.449   7.147 -0.0033  0.0205  0.2216
  596MOL0     H80393   3.893   1.280   7.418 -1.1580 -0.4474 -2.0288
  596MOL0     H80394   3.759   1.281   7.629 -0.3444 -0.9999 -1.6580
  596MOL0     H80395   3.463   1.546   7.821  1.1275 -1.2015  0.9956
  596MOL0     H80396   3.575   1.675   7.765  1.5945 -0.0949  0.0639
  596MOL0     H80397   3.544   1.552   7.535  1.1776 -0.0368  1.3949
  596MOL0     H80398   3.405   1.485   7.600  1.4040 -1.3744  0.7046
  596MOL0     H80399   3.481   1.786   7.530 -1.4944  1.7821  0.1099
  596MOL0     H80400   3.362   1.694   7.463  1.8575  0.0188 -0.8931
  596MOL0     H80401   3.261   1.698   7.696  1.2429 -0.3111  1.7981
  596MOL0     H80402   3.397   1.808   7.736  0.1335 -1.5570  0.5698
  596MOL0     H80403   3.305   1.980   7.577  1.0631 -0.1346  1.9982
  596MOL0     H80404   3.200   1.860   7.509 -3.0411  0.4695  1.3779
  596MOL0     H80405   3.072   1.836   7.716 -0.5845 -0.2740 -2.6242
  596MOL0     H80406   3.192   1.930   7.798  1.3801  2.6620 -0.4566
  596MOL0     H80407   2.989   2.075   7.750  1.2758  1.9663  1.2434
  596MOL0     H80408   3.129   2.149   7.685 -1.5681  1.1017 -0.4860
  596MOL0     H80409   2.932   1.964   7.542 -4.5655  3.1831  1.6802
  596MOL0     H80410   3.076   2.031   7.461  1.8684  0.6942  2.0121
  596MOL0     H80411   2.784   2.093   7.359 -2.9821 -0.0119  0.9491
  596MOL0     H80412   2.660   2.439   7.309 -2.9594 -0.3327  0.1581
  596MOL0     H80413   2.615   2.268   7.301  1.4700  0.5414 -2.7328
  596MOL0     H80414   2.565   2.330   7.562 -0.0327 -1.2329 -1.3296
  596MOL0     H80415   2.439   2.356   7.441  0.4141 -1.3707 -1.1744
  596MOL0     H80416   2.526   2.600   7.416 -1.3557  0.5992  0.8263
  596MOL0     H80417   2.645   2.559   7.526 -0.4659  0.9040  1.0490
  596MOL0     H80418   2.491   2.668   7.661 -1.0671  0.1155 -0.7982
  596MOL0     H80419   2.470   2.492   7.707  1.9782  0.3331 -0.4078
  596MOL0     H80420   2.095   2.631   7.499  2.1686  2.6836 -0.8386
  596MOL0     H80421   1.873   2.767   7.510  1.2259  0.5939 -0.5372
  596MOL0     H80422   1.800   2.668   7.638 -0.6899  1.2618  0.4492
  596MOL0     H80423   1.813   2.834   7.667 -1.3958 -0.2476 -0.3795
  596MOL0     H80424   1.645   2.951   7.859 -0.3442  0.0831  0.3901
  596MOL0     H80425   1.489   3.076   8.005  0.3343  1.3642  1.2169
  596MOL0     H80426   1.417   3.212   8.181 -3.1546  2.4670 -0.3477
  596MOL0     H80427   1.313   3.068   8.144 -0.3450  0.9666  1.0980
  596MOL0     H80428   1.198   3.224   8.272  1.9249  0.4995 -2.3633
  596MOL0     H80429   1.210   3.075   8.360  2.1428 -1.3426 -0.6538
  596MOL0     H80430   1.427   3.281   8.416  1.0820 -2.1076 -0.7551
  596MOL0     H80431   1.382   3.147   8.514  1.5550  0.4377 -0.0468
  596MOL0     H80432   1.197   3.378   8.445  0.7292  0.0754  0.1053
  596MOL0     H80433   1.156   3.242   8.544  0.5574  1.0116  0.8554
  596MOL0     H80434   1.393   3.429   8.634  0.5793  1.0243  3.3333
  596MOL0     H80435   1.322   3.289   8.702 -1.1619 -1.1473 -0.9149
  596MOL0     H80436   1.198   3.565   8.653  1.8029  1.5732  1.1201
  596MOL0     H80437   1.099   3.438   8.722  0.7187 -0.3426  3.9606
  596MOL0     H80438   1.168   3.580   8.902 -0.5191 -0.5663 -0.6014
  596MOL0     H80439   1.336   3.571   8.851 -0.0525 -0.7122  2.2435
  596MOL0     H80440   1.230   3.432   9.046  0.5051 -2.1626  0.7645
  596MOL0     H80441   1.357   3.352   8.958  1.0320  0.2960  0.2928
  596MOL0     H80442   1.624   2.842   8.335 -0.6405 -0.2028 -0.6758
  596MOL0     H80443   1.775   2.708   8.173 -0.2343 -0.0297  0.1562
  596MOL0     H80444   2.183   2.762   7.966 -2.2361  0.5033  0.7212
  596MOL0     H80445   2.366   2.687   7.826  0.3144 -0.0504  0.1309
  596MOL0     H80446   3.777   1.717   7.652  1.6079 -1.7988  2.6014
  596MOL0     H80447   3.940   1.715   7.482 -0.9210  0.9302  1.7257
  596MOL0     H80448   4.441   1.535   7.371  1.1167 -0.8015  0.1829
  596MOL0     H80449   4.584   1.469   7.186  0.3593  1.1112  1.3255
  596MOL0     H80450   4.687   1.350   7.018  0.9221 -0.5190 -1.1309
  596MOL0     H80451   4.588   1.207   7.059 -0.2070 -2.0068 -1.0017
  596MOL0     H80452   4.745   1.144   6.900 -2.3230 -1.3067  0.5630
  596MOL0     H80453   4.705   1.280   6.800  0.3008  1.1498  0.7578
  596MOL0     H80454   4.488   1.180   6.738 -1.0096  1.6665  1.2215
  596MOL0     H80455   4.503   1.069   6.885 -0.6284  2.9674  0.0401
  596MOL0     H80456   4.678   1.044   6.629 -0.6556 -1.4099 -1.0714
  596MOL0     H80457   4.535   0.960   6.648  0.1935 -1.9219  2.1562
  596MOL0     H80458   4.804   0.704   6.798  1.6975  1.1723 -0.6454
  596MOL0     H80459   4.236   1.384   6.945  0.3882 -0.0544 -0.3730
  596MOL0     H80460   4.105   1.456   7.126 -0.0352  0.5758  0.5418
  597MOL0     O80461   3.233   4.876   4.868  0.0996  0.8507 -0.4714
  597MOL0     C80462   3.340   4.935   4.873  0.2678  0.1785  0.1996
  597MOL0     O80463   3.455   4.879   4.900 -0.0970 -0.0558  0.0710
  597MOL0     C80464   3.466   4.758   4.965  1.6670  0.3329 -0.1537
  597MOL0     C80465   3.585   4.701   4.944 -0.4888  0.1177  0.1998
  597MOL0     C80466   3.609   4.571   5.007 -0.1046 -1.2674 -0.1126
  597MOL0     C80467   3.510   4.505   5.069 -0.2243  0.4286 -0.3574
  597MOL0     O80468   3.517   4.371   5.092  0.3262 -0.4601  0.2239
  597MOL0     C80469   3.646   4.309   5.123 -0.1768 -0.2999  0.1966
  597MOL0     C80470   3.616   4.157   5.143  0.3332 -0.9661 -0.1095
  597MOL0     C80471   3.525   4.110   5.024  0.5072  0.2896  0.2686
  597MOL0     C80472   3.509   3.955   5.029  0.0013  0.1232  0.3754
  597MOL0     C80473   3.427   3.901   4.903  0.1691 -0.9067  0.1256
  597MOL0     C80474   3.397   3.753   4.939  0.2962  0.5979 -0.2475
  597MOL0     C80475   3.503   3.647   4.938  0.0598  0.3669  0.3709
  597MOL0     C80476   3.451   3.507   4.893  0.0471  2.0044 -0.0056
  597MOL0     N80477   3.360   3.444   4.985  0.8638  0.7503 -0.6603
  597MOL0     C80478   3.372   3.443   5.120  0.0172 -0.1684 -0.3186
  597MOL0     C80479   3.270   3.372   5.164  0.1418 -0.3071  0.4489
  597MOL0     C80480   3.244   3.357   5.312  0.6224 -0.6283  0.1033
  597MOL0     C80481   3.304   3.215   5.352  0.3547 -0.3793  0.4056
  597MOL0     C80482   3.292   3.185   5.499 -0.7141 -0.6152  0.6351
  597MOL0     C80483   3.303   3.035   5.514 -0.4730 -0.3420 -1.2694
  597MOL0     O80484   3.421   2.980   5.454 -0.6974 -0.4457 -0.0310
  597MOL0     C80485   3.538   3.015   5.511  0.1332 -1.2434 -0.7001
  597MOL0     C80486   3.564   3.023   5.648 -0.1722 -0.2069  0.0296
  597MOL0     C80487   3.686   3.065   5.704  0.0253  0.4542  0.6625
  597MOL0     C80488   3.700   3.066   5.855  0.7686  1.0005 -0.4584
  597MOL0     C80489   3.792   3.102   5.618 -1.0508  0.1774 -0.3864
  597MOL0     C80490   3.932   3.158   5.668  0.4903 -0.5352  0.3383
  597MOL0     O80491   4.009   3.200   5.569  0.1366 -0.4137 -0.1005
  597MOL0     C80492   4.137   3.249   5.591  0.0872 -1.1792  0.2474
  597MOL0     C80493   4.194   3.298   5.716  0.4010 -0.0401  0.3522
  597MOL0     C80494   4.342   3.312   5.727 -0.1732  0.3995  0.7601
  597MOL0     C80495   4.418   3.285   5.611  0.3443  0.6638 -0.6210
  597MOL0     O80496   4.552   3.282   5.599  0.2196  0.6073  0.8079
  597MOL0     C80497   4.634   3.370   5.679 -0.0769 -0.0370  0.6724
  597MOL0     C80498   4.785   3.368   5.630  0.5689 -0.4349  0.0664
  597MOL0     C80499   4.808   3.438   5.503 -0.3509  0.2347  0.6609
  597MOL0     C80500   4.948   3.409   5.438 -0.6178 -0.3466  0.7335
  597MOL0     C80501   4.985   3.499   5.318 -0.4026  0.2691 -0.1702
  597MOL0     C80502   5.054   3.620   5.359  0.9650  0.0934  0.4654
  597MOL0     C80503   5.071   3.704   5.227  0.2689 -0.7893 -0.7975
  597MOL0     C80504   5.228   3.732   5.196  0.4755  0.2717 -0.7364
  597MOL0    Cl80505   5.226   3.903   5.120  0.4013 -0.3928 -0.3457
  597MOL0     C80506   4.354   3.240   5.488  0.5313 -0.2571 -0.7892
  597MOL0     C80507   4.215   3.229   5.479  0.6354 -0.3493 -0.0647
  597MOL0     O80508   3.965   3.162   5.788 -0.1996  0.1236  0.9032
  597MOL0     C80509   3.769   3.077   5.479 -1.4181 -0.4608 -0.4235
  597MOL0     C80510   3.643   3.032   5.430 -0.0602  0.5108 -0.1302
  597MOL0     N80511   3.194   3.339   5.061 -0.3320  0.0205  0.5787
  597MOL0     N80512   3.244   3.385   4.950 -0.2517  0.6490  0.9899
  597MOL0     C80513   3.387   4.567   5.087 -0.2929  0.9605 -0.0738
  597MOL0     C80514   3.365   4.694   5.047  1.0887 -0.1000  0.2120
  597MOL0     C80515   3.346   5.080   4.826  0.3058 -0.0250  0.0945
  597MOL0     C80516   3.466   5.146   4.820  0.3538 -0.4799  0.2798
  597MOL0     C80517   3.461   5.286   4.786 -0.8575  0.0106 -0.1151
  597MOL0     C80518   3.343   5.355   4.755 -0.1762  0.5233 -1.2302
  597MOL0     O80519   3.335   5.487   4.714 -0.3803  0.1414  0.2281
  597MOL0     C80520   3.450   5.561   4.679  0.6394 -0.0964 -0.7905
  597MOL0     C80521   3.416   5.706   4.625  0.1979 -0.4996  0.1738
  597MOL0     C80522   3.375   5.808   4.731 -0.0168  0.1183  0.2614
  597MOL0     C80523   3.227   5.804   4.772  0.4629  0.1909  0.4180
  597MOL0     C80524   3.202   5.941   4.832 -0.0902  0.3939  0.4445
  597MOL0     C80525   3.191   6.053   4.876 -0.0578 -0.2708  0.7381
  597MOL0     C80526   3.227   5.280   4.755  0.2738 -0.4731  0.6522
  597MOL0     C80527   3.226   5.148   4.795  0.9103  0.2667 -0.3295
  597MOL0     H80528   3.651   4.755   4.878 -2.1882 -0.4584 -2.1057
  597MOL0     H80529   3.706   4.524   4.991  0.8854  1.4133 -3.1004
  597MOL0     H80530   3.719   4.317   5.042 -1.6516 -1.7472 -1.3435
  597MOL0     H80531   3.672   4.352   5.220 -1.7279  0.0399  0.4940
  597MOL0     H80532   3.715   4.111   5.140  2.4675  3.0400  1.5339
  597MOL0     H80533   3.571   4.129   5.239 -1.2117 -2.3430 -1.1776
  597MOL0     H80534   3.428   4.161   5.020  0.4728  0.4020  1.9405
  597MOL0     H80535   3.577   4.144   4.934  1.0810 -3.0450 -0.8302
  597MOL0     H80536   3.611   3.918   5.024  0.2284  0.9346 -3.0410
  597MOL0     H80537   3.455   3.934   5.122  1.3780  0.7406  1.3569
  597MOL0     H80538   3.324   3.939   4.898 -0.1635 -1.8367 -0.3785
  597MOL0     H80539   3.482   3.927   4.813 -1.8216  1.9107 -0.4304
  597MOL0     H80540   3.367   3.757   5.044 -2.3292  0.3914 -0.9298
  597MOL0     H80541   3.307   3.722   4.886  0.2907  3.3354 -2.0470
  597MOL0     H80542   3.590   3.683   4.883  0.1050  1.1213  0.9244
  597MOL0     H80543   3.543   3.627   5.038 -0.5152 -0.8875  0.3662
  597MOL0     H80544   3.538   3.440   4.888 -0.8560  0.8937 -1.8150
  597MOL0     H80545   3.409   3.520   4.793 -0.6614  1.7658  0.2541
  597MOL0     H80546   3.439   3.500   5.183 -2.1593 -1.0662  3.0664
  597MOL0     H80547   3.291   3.428   5.381  1.5532  0.1655 -1.2863
  597MOL0     H80548   3.138   3.379   5.329  0.0127 -0.4182 -3.2816
  597MOL0     H80549   3.413   3.213   5.337  0.4368 -2.2577  0.9360
  597MOL0     H80550   3.246   3.146   5.291  1.4093  0.7549 -2.0290
  597MOL0     H80551   3.196   3.220   5.540  1.0513  4.0317  1.3660
  597MOL0     H80552   3.372   3.235   5.555 -1.2455 -2.5587  3.3690
  597MOL0     H80553   3.213   2.977   5.495  0.2398 -1.7507 -0.4792
  597MOL0     H80554   3.312   3.021   5.622  0.3464 -1.6372 -1.4826
  597MOL0     H80555   3.487   2.999   5.720 -1.3077  1.9525 -0.3982
  597MOL0     H80556   3.692   3.169   5.890  0.8002  0.6415  0.6782
  597MOL0     H80557   3.615   3.012   5.898 -0.1604  1.0884 -2.1082
  597MOL0     H80558   3.796   3.033   5.897 -1.1095 -0.6981  2.9848
  597MOL0     H80559   4.133   3.312   5.804 -3.3645 -1.7375 -1.7514
  597MOL0     H80560   4.387   3.348   5.819 -0.3729 -0.2199  1.1115
  597MOL0     H80561   4.583   3.466   5.672  0.9042  0.3833 -1.7556
  597MOL0     H80562   4.639   3.333   5.782  1.6197 -0.8550  0.3380
  597MOL0     H80563   4.844   3.396   5.717 -1.6578  0.0082  1.5341
  597MOL0     H80564   4.800   3.262   5.606 -1.7660 -0.5251 -1.2999
  597MOL0     H80565   4.789   3.546   5.506  2.4718  0.9169 -1.3283
  597MOL0     H80566   4.733   3.407   5.430 -1.9067  1.7119  1.5619
  597MOL0     H80567   5.029   3.407   5.512  0.6203 -1.6741 -0.5808
  597MOL0     H80568   4.954   3.310   5.392  0.1571  1.4242 -3.4750
  597MOL0     H80569   4.892   3.525   5.267  0.6976  1.7824 -1.5055
  597MOL0     H80570   5.048   3.441   5.250  1.0636  0.9775  0.5462
  597MOL0     H80571   4.995   3.677   5.431  0.6103  2.0787 -1.2724
  597MOL0     H80572   5.150   3.603   5.407  0.9180  0.7184  0.7881
  597MOL0     H80573   5.020   3.800   5.234  1.3509 -0.2505 -0.0226
  597MOL0     H80574   5.027   3.660   5.138 -1.6123  3.2613 -2.0635
  597MOL0     H80575   5.276   3.654   5.135  1.5640 -0.4116  0.9298
  597MOL0     H80576   5.290   3.731   5.286 -0.3350 -1.3492 -0.1631
  597MOL0     H80577   4.412   3.209   5.401 -0.3683 -1.2976 -1.0423
  597MOL0     H80578   4.170   3.189   5.388 -0.4375 -1.0007  0.7319
  597MOL0     H80579   3.854   3.101   5.416 -1.5062  1.0763  0.0074
  597MOL0     H80580   3.637   3.000   5.327 -0.9804 -1.4936  0.5001
  597MOL0     H80581   3.303   4.508   5.121 -1.2126  2.3639  0.1863
  597MOL0     H80582   3.272   4.742   5.074  0.9443  1.9590 -3.2818
  597MOL0     H80583   3.559   5.104   4.855  1.5042  1.0511 -0.8216
  597MOL0     H80584   3.562   5.328   4.793  0.2246 -2.5767  0.8641
  597MOL0     H80585   3.520   5.583   4.760  2.0802 -1.3187 -1.6403
  597MOL0     H80586   3.492   5.502   4.597 -0.5018  2.4431 -3.3961
  597MOL0     H80587   3.355   5.690   4.536  0.6035  0.6536 -0.3400
  597MOL0     H80588   3.509   5.742   4.580 -1.2503  1.2649 -1.5699
  597MOL0     H80589   3.388   5.902   4.676 -0.0125 -0.7586 -1.2900
  597MOL0     H80590   3.441   5.792   4.817  0.6760 -4.2086 -0.8523
  597MOL0     H80591   3.197   5.718   4.833 -1.5680 -2.4041 -3.7122
  597MOL0     H80592   3.170   5.802   4.678  0.4294 -0.3814  0.4485
  597MOL0     H80593   3.185   6.149   4.923  0.4777 -0.4092  1.1087
  597MOL0     H80594   3.132   5.318   4.717  0.2739 -0.6396  0.4854
  597MOL0     H80595   3.134   5.091   4.787  1.9876 -1.4088 -1.9036
  598MOL0     O80596   5.733   1.608   5.807 -0.3595 -0.0148 -0.0247
  598MOL0     C80597   5.719   1.647   5.925 -0.4705 -0.6403 -0.0315
  598MOL0     O80598   5.604   1.697   5.979 -0.4720  0.3002  0.0259
  598MOL0     C80599   5.511   1.747   5.893  0.3545  0.6247 -0.4465
  598MOL0     C80600   5.375   1.709   5.909 -0.1210  0.1487 -0.1121
  598MOL0     C80601   5.275   1.741   5.813 -0.9817 -0.2217 -0.3860
  598MOL0     C80602   5.314   1.827   5.708  0.4353  0.5664 -0.4002
  598MOL0     O80603   5.227   1.871   5.609 -0.5556 -0.5984 -0.0182
  598MOL0     C80604   5.200   2.012   5.616  1.1291 -0.2403 -0.7176
  598MOL0     C80605   5.241   2.090   5.499  0.0235 -0.4090  0.7135
  598MOL0     C80606   5.158   2.043   5.371  0.6931  0.5754 -0.1368
  598MOL0     C80607   5.004   2.076   5.376  0.9937  0.3436  0.2018
  598MOL0     C80608   4.926   2.076   5.249 -0.3190  0.9335 -0.2850
  598MOL0     C80609   4.948   2.190   5.168  0.4393 -0.6588  0.1410
  598MOL0     C80610   4.853   2.182   5.041  0.6329 -0.3429 -0.3002
  598MOL0     C80611   4.856   2.312   4.966  0.1736 -0.8545 -0.2945
  598MOL0     N80612   4.743   2.307   4.875 -0.1698 -0.3815  0.3432
  598MOL0     C80613   4.602   2.321   4.893 -0.0140  0.0374 -0.1673
  598MOL0     C80614   4.541   2.288   4.780 -0.1587  0.3351 -0.3865
  598MOL0     C80615   4.391   2.309   4.762 -0.1956  0.2148 -0.3146
  598MOL0     C80616   4.298   2.188   4.783  0.3260 -0.3441  0.6154
  598MOL0     C80617   4.276   2.112   4.653  0.0475  0.1448  0.2593
  598MOL0     C80618   4.211   1.975   4.674  0.2747 -0.7251 -0.0718
  598MOL0     O80619   4.079   1.996   4.730  0.2414 -1.5405 -0.3596
  598MOL0     C80620   3.997   1.890   4.737  0.4945  0.1896  0.0054
  598MOL0     C80621   3.877   1.914   4.816 -0.7557 -1.3887  0.0734
  598MOL0     C80622   3.773   1.817   4.826  0.1614  0.1955  0.4364
  598MOL0     C80623   3.655   1.848   4.910 -0.4322 -0.3684 -0.2397
  598MOL0     C80624   3.792   1.695   4.755 -0.0526 -0.5839  0.6716
  598MOL0     C80625   3.704   1.590   4.763  0.0092 -0.3804 -0.6051
  598MOL0     O80626   3.623   1.586   4.880 -0.0323 -0.0014  0.6163
  598MOL0     C80627   3.552   1.467   4.895  0.1032  0.5903  0.5745
  598MOL0     C80628   3.412   1.476   4.881  0.2009 -0.6094 -0.6150
  598MOL0     C80629   3.324   1.370   4.895  0.3191  0.2637 -0.4626
  598MOL0     C80630   3.374   1.237   4.919  0.1197 -0.1801 -0.3980
  598MOL0     O80631   3.283   1.131   4.938  0.0429 -0.2991  0.3632
  598MOL0     C80632   3.282   1.017   4.848 -0.2177  0.9712 -0.0645
  598MOL0     C80633   3.217   0.890   4.900  0.7281 -0.2727  0.4429
  598MOL0     C80634   3.260   0.859   5.041 -0.3089  0.4587  0.3997
  598MOL0     C80635   3.401   0.792   5.047  0.0641  0.3568  0.4118
  598MOL0     C80636   3.428   0.716   5.187  0.0831 -0.1131  0.7096
  598MOL0     C80637   3.577   0.671   5.204  0.1093  0.5228  0.3109
  598MOL0     C80638   3.628   0.585   5.084 -0.0200 -0.0303 -0.2954
  598MOL0     C80639   3.736   0.489   5.126  0.6236  0.0106  1.2235
  598MOL0    Cl80640   3.873   0.596   5.152 -0.1988 -0.3019  0.3640
  598MOL0     C80641   3.516   1.227   4.924  1.4170 -0.0114 -0.5553
  598MOL0     C80642   3.605   1.335   4.910 -0.2457  0.5432  0.4278
  598MOL0     O80643   3.711   1.502   4.684  0.3290  0.2225  0.3976
  598MOL0     C80644   3.916   1.677   4.685  0.7516 -0.3822 -0.0085
  598MOL0     C80645   4.010   1.767   4.669 -0.0062 -0.5099  0.0547
  598MOL0     N80646   4.638   2.248   4.693  0.6300 -0.4292 -0.5411
  598MOL0     N80647   4.756   2.258   4.750 -0.0628  0.3930  0.3542
  598MOL0     C80648   5.444   1.864   5.693 -0.0762 -0.8701 -1.3149
  598MOL0     C80649   5.547   1.810   5.779  0.1386 -0.5641 -0.5530
  598MOL0     C80650   5.830   1.651   6.014  0.0539  0.1725  0.3596
  598MOL0     C80651   5.930   1.551   6.004  0.0829  0.4171  0.4936
  598MOL0     C80652   6.051   1.579   6.067  0.6335  0.5325 -0.1478
  598MOL0     C80653   6.068   1.688   6.154  0.6356  0.1741  0.1367
  598MOL0     O80654   6.191   1.699   6.209  1.0203  0.3644 -0.3050
  598MOL0     C80655   6.231   1.785   6.321 -0.0735 -0.6017  0.5463
  598MOL0     C80656   6.247   1.707   6.444  0.2421 -0.0732  0.2189
  598MOL0     C80657   6.356   1.598   6.438  0.6545 -0.3738 -0.1009
  598MOL0     C80658   6.291   1.468   6.377 -0.0092  0.1341  0.1851
  598MOL0     C80659   6.278   1.345   6.452 -0.0327  0.5175 -0.4904
  598MOL0     C80660   6.276   1.240   6.517  0.3870 -0.8844 -0.6533
  598MOL0     C80661   5.967   1.784   6.172 -0.1279  0.4696  0.8300
  598MOL0     C80662   5.852   1.765   6.092 -0.7630  0.8327  0.3675
  598MOL0     H80663   5.348   1.659   6.001  0.8773 -0.7709 -0.2942
  598MOL0     H80664   5.170   1.717   5.826 -0.5910 -2.8672 -1.5443
  598MOL0     H80665   5.092   2.024   5.625  0.9576 -0.6360 -2.0297
  598MOL0     H80666   5.251   2.060   5.700 -2.3686  1.2586  0.7449
  598MOL0     H80667   5.217   2.196   5.514 -2.4702 -0.7433 -0.3256
  598MOL0     H80668   5.349   2.084   5.484  0.0777  0.7207  0.5899
  598MOL0     H80669   5.206   2.094   5.287 -1.1028  0.9020 -1.0041
  598MOL0     H80670   5.169   1.936   5.350 -1.2590 -0.3779  2.9995
  598MOL0     H80671   4.962   2.004   5.447  1.2653  2.5506  2.7932
  598MOL0     H80672   4.992   2.173   5.425  3.7535  1.2010 -0.6143
  598MOL0     H80673   4.948   1.986   5.192  1.1749  1.4690 -0.5958
  598MOL0     H80674   4.821   2.059   5.272 -0.1404  0.7095  0.3954
  598MOL0     H80675   4.925   2.284   5.219 -1.6502 -0.6572 -0.7241
  598MOL0     H80676   5.055   2.189   5.147  0.9303 -0.6255  2.3725
  598MOL0     H80677   4.911   2.123   4.970 -0.5883 -1.3807 -0.4656
  598MOL0     H80678   4.754   2.141   5.061 -0.4730  1.4455 -1.7856
  598MOL0     H80679   4.952   2.344   4.925 -1.2041  5.6606  0.4906
  598MOL0     H80680   4.839   2.389   5.043  1.9345 -3.6764  3.2271
  598MOL0     H80681   4.562   2.360   4.986 -0.2560  0.3521 -0.4026
  598MOL0     H80682   4.369   2.389   4.833 -3.6775 -0.0748 -0.8639
  598MOL0     H80683   4.373   2.360   4.667  0.2674  2.0196  0.5270
  598MOL0     H80684   4.197   2.212   4.816 -0.0147 -0.4757 -0.2926
  598MOL0     H80685   4.337   2.121   4.860 -0.5651 -3.2176 -1.2625
  598MOL0     H80686   4.364   2.114   4.588 -2.1615  2.2506 -2.9656
  598MOL0     H80687   4.199   2.175   4.607  1.5870  2.7514  1.0554
  598MOL0     H80688   4.277   1.909   4.730  2.4718  0.4996 -1.1044
  598MOL0     H80689   4.196   1.929   4.575  1.6202 -0.6756 -0.3180
  598MOL0     H80690   3.865   2.005   4.874 -1.2332 -3.6211  3.8786
  598MOL0     H80691   3.563   1.832   4.851 -1.2117  0.1465  0.8049
  598MOL0     H80692   3.647   1.796   5.006 -3.8793 -0.5556 -0.4802
  598MOL0     H80693   3.646   1.952   4.941 -3.2504 -0.4890 -0.3708
  598MOL0     H80694   3.380   1.579   4.866  1.5197 -0.4380 -2.6550
  598MOL0     H80695   3.216   1.380   4.888  0.4755  1.0216 -2.1225
  598MOL0     H80696   3.236   1.044   4.752 -0.8605  0.0921 -0.0127
  598MOL0     H80697   3.385   0.990   4.823 -0.6897 -0.2246 -0.7724
  598MOL0     H80698   3.114   0.925   4.914  0.8550 -0.6781  2.8345
  598MOL0     H80699   3.227   0.809   4.827 -0.7791  1.4704 -1.8421
  598MOL0     H80700   3.191   0.786   5.083  2.5732 -2.9589 -0.3831
  598MOL0     H80701   3.247   0.942   5.112  0.2916  0.8271  0.0800
  598MOL0     H80702   3.400   0.717   4.966 -1.0211 -0.0698  0.8001
  598MOL0     H80703   3.476   0.870   5.031 -0.9533  1.2018 -0.3886
  598MOL0     H80704   3.362   0.629   5.174 -0.8886  0.4104  1.8932
  598MOL0     H80705   3.384   0.774   5.269 -1.3995 -2.1644  1.4464
  598MOL0     H80706   3.647   0.754   5.207  2.7484 -1.5752  0.2271
  598MOL0     H80707   3.582   0.617   5.299  2.0973  3.1733  1.8516
  598MOL0     H80708   3.666   0.651   5.005 -0.4192 -2.1110 -2.3664
  598MOL0     H80709   3.549   0.524   5.039  0.2861 -1.2830  0.8089
  598MOL0     H80710   3.752   0.430   5.036 -1.9171  0.9144  0.1034
  598MOL0     H80711   3.695   0.433   5.211 -1.5835  0.9322  0.8206
  598MOL0     H80712   3.565   1.142   4.970  1.7955 -1.0601 -2.7545
  598MOL0     H80713   3.712   1.316   4.909 -0.1225  1.2389 -0.1616
  598MOL0     H80714   3.941   1.582   4.639 -0.1829 -2.9283  4.2245
  598MOL0     H80715   4.096   1.751   4.605 -0.0901  3.0107 -1.1814
  598MOL0     H80716   5.476   1.939   5.622  0.8341  0.6784  0.6530
  598MOL0     H80717   5.650   1.834   5.755  0.2600  0.4796  0.8886
  598MOL0     H80718   5.920   1.457   5.952  2.6624  0.4327 -0.1482
  598MOL0     H80719   6.133   1.508   6.075  0.9735  0.8124 -0.9692
  598MOL0     H80720   6.323   1.829   6.282 -0.3664 -3.4997 -4.2010
  598MOL0     H80721   6.154   1.853   6.359  1.1373  0.2237  1.5838
  598MOL0     H80722   6.153   1.660   6.474 -0.0958  1.4328  1.6447
  598MOL0     H80723   6.272   1.777   6.525 -1.4936 -2.5632  3.1184
  598MOL0     H80724   6.404   1.570   6.532  1.6241 -0.9441 -0.7410
  598MOL0     H80725   6.440   1.639   6.380 -0.1310  0.2227 -0.8315
  598MOL0     H80726   6.346   1.441   6.286 -1.0429  1.8827 -1.0307
  598MOL0     H80727   6.199   1.483   6.319  0.0793 -0.3091 -0.0762
  598MOL0     H80728   6.279   1.147   6.569  1.7342 -0.7908 -0.5213
  598MOL0     H80729   5.973   1.866   6.242  2.0185  1.5647 -0.5469
  598MOL0     H80730   5.775   1.841   6.089 -0.6732  0.9774  1.3362
  599MOL0     O80731   9.627   1.977   7.821  0.2089 -0.4002  0.5978
  599MOL0     C80732   9.733   2.005   7.873 -0.6868  0.2098  0.8073
  599MOL0     O80733   9.856   1.976   7.817  0.6033  0.3877 -0.4697
  599MOL0     C80734   9.865   1.936   7.683 -0.3623  0.2512 -0.7158
  599MOL0     C80735   9.915   1.808   7.644 -0.5524  0.0447 -0.4384
  599MOL0     C80736   9.934   1.784   7.506  0.1270  0.5883  0.2763
  599MOL0     C80737   9.912   1.873   7.401  0.5822 -0.0955 -0.0632
  599MOL0     O80738   9.958   1.835   7.281 -0.1235  0.4807  0.5025
  599MOL0     C80739   9.857   1.851   7.181  0.1843  0.2606  0.1573
  599MOL0     C80740   9.909   1.809   7.043  0.1979  0.2398 -0.4265
  599MOL0     C80741   9.948   1.661   7.031 -0.1829 -0.8802 -0.2980
  599MOL0     C80742   9.968   1.614   6.894 -0.0405 -1.0485  1.1483
  599MOL0     C80743  10.017   1.480   6.889 -0.7327  0.7080  0.4223
  599MOL0     C80744  10.007   1.423   6.741  0.6176  0.1623  0.3791
  599MOL0     C80745  10.076   1.283   6.737 -0.0550  0.1160  0.5793
  599MOL0     C80746  10.028   1.197   6.619 -0.3779 -0.8722 -0.7929
  599MOL0     N80747  10.070   1.249   6.490  0.3096 -0.6036 -0.3211
  599MOL0     C80748  10.024   1.364   6.423  0.0239 -0.1582  0.2643
  599MOL0     C80749  10.059   1.350   6.294  0.3495 -0.6393 -0.8022
  599MOL0     C80750  10.023   1.454   6.194 -1.2260  0.8674 -0.3003
  599MOL0     C80751  10.152   1.507   6.132  0.4048 -0.4958 -0.1388
  599MOL0     C80752  10.223   1.611   6.223  0.0759 -0.5102 -0.0873
  599MOL0     C80753  10.352   1.638   6.153 -0.7327  0.0734 -0.9060
  599MOL0     O80754  10.421   1.741   6.217  0.0302 -0.0556 -0.0883
  599MOL0     C80755  10.556   1.748   6.208 -0.3179 -0.2916  0.7461
  599MOL0     C80756  10.612   1.762   6.081  0.4045 -0.1566  0.0048
  599MOL0     C80757  10.751   1.764   6.059  0.1845  0.0949 -0.0594
  599MOL0     C80758  10.803   1.787   5.916 -0.2973  0.1471  0.9189
  599MOL0     C80759  10.837   1.768   6.180 -0.2373  0.4521 -0.3072
  599MOL0     C80760  10.986   1.784   6.174 -0.4399 -0.1864 -0.4686
  599MOL0     O80761  11.045   1.819   6.293 -0.1238  0.6222 -0.4425
  599MOL0     C80762  11.174   1.769   6.300  0.5007  1.7392  0.9635
  599MOL0     C80763  11.190   1.651   6.378  0.2142 -1.0933  0.0968
  599MOL0     C80764  11.328   1.617   6.417 -0.9291 -0.7056  0.0853
  599MOL0     C80765  11.447   1.689   6.370  0.6496  0.5401 -1.4855
  599MOL0     O80766  11.570   1.641   6.402 -0.3509 -0.0988  0.2238
  599MOL0     C80767  11.663   1.735   6.450 -0.2129 -0.0989  0.0187
  599MOL0     C80768  11.809   1.734   6.400  0.0197  0.3501  1.0705
  599MOL0     C80769  11.832   1.737   6.248 -0.2448  0.6111 -0.0317
  599MOL0     C80770  11.960   1.798   6.216  0.0653 -0.6152 -0.0805
  599MOL0     C80771  11.992   1.771   6.069 -0.0750 -0.7798  0.1515
  599MOL0     C80772  12.136   1.819   6.010 -0.5120 -0.4470  0.3728
  599MOL0     C80773  12.162   1.789   5.864  0.3258  0.3045  0.1503
  599MOL0     C80774  12.058   1.854   5.774 -0.2351 -0.6527 -0.4882
  599MOL0    Cl80775  12.080   1.787   5.609 -0.1785 -0.4346 -0.2106
  599MOL0     C80776  11.415   1.801   6.290 -0.8916  0.1778 -0.7912
  599MOL0     C80777  11.292   1.839   6.259 -0.4864 -0.9244 -0.0947
  599MOL0     O80778  11.050   1.764   6.066 -0.2911 -0.2874  0.5630
  599MOL0     C80779  10.780   1.768   6.307  0.5573  0.2583  0.3793
  599MOL0     C80780  10.636   1.762   6.330 -1.0196  0.5907  1.5786
  599MOL0     N80781  10.129   1.233   6.279  0.2142 -0.1589 -0.0151
  599MOL0     N80782  10.140   1.175   6.400 -0.5986 -1.0438  0.1526
  599MOL0     C80783   9.861   2.000   7.445  0.1728  0.2509 -0.9398
  599MOL0     C80784   9.841   2.030   7.579  0.4271 -0.2395  0.6932
  599MOL0     C80785   9.737   2.110   7.987  0.2841 -0.3125  0.5519
  599MOL0     C80786   9.834   2.103   8.085 -0.1531 -0.1267  0.5144
  599MOL0     C80787   9.841   2.209   8.185  0.2530  0.6828 -0.1253
  599MOL0     C80788   9.756   2.315   8.186 -0.8285  0.1452 -0.2937
  599MOL0     O80789   9.770   2.424   8.268 -0.1538  0.0413 -0.1392
  599MOL0     C80790   9.872   2.435   8.365  0.6639 -0.3064 -0.1128
  599MOL0     C80791   9.861   2.581   8.405 -0.1479  0.6346 -0.6215
  599MOL0     C80792   9.747   2.598   8.503 -0.5401 -0.4820  0.7213
  599MOL0     C80793   9.721   2.747   8.505 -0.0932 -0.0437 -0.0910
  599MOL0     C80794   9.642   2.801   8.390  0.1719 -1.2744  0.0118
  599MOL0     C80795   9.582   2.840   8.297  0.5447 -0.2751  0.6265
  599MOL0     C80796   9.649   2.315   8.094 -0.4777  0.1302  0.6564
  599MOL0     C80797   9.642   2.216   7.998  0.9434  0.7945  0.9681
  599MOL0     H80798   9.940   1.734   7.719 -0.1546 -0.5148 -1.1180
  599MOL0     H80799   9.948   1.682   7.472 -1.7908  0.9652 -1.9644
  599MOL0     H80800   9.763   1.799   7.200  0.3522 -0.2610 -0.3935
  599MOL0     H80801   9.827   1.955   7.174  0.9362  0.7166  2.8382
  599MOL0     H80802   9.832   1.843   6.973 -0.1894  0.9092  0.3033
  599MOL0     H80803   9.991   1.879   7.024 -1.0742  2.4965  1.6929
  599MOL0     H80804  10.042   1.645   7.085  0.3815 -0.5198 -1.1424
  599MOL0     H80805   9.867   1.600   7.071 -1.4312  0.6936 -0.3307
  599MOL0     H80806   9.873   1.610   6.841 -0.0027  0.7167  0.8819
  599MOL0     H80807  10.037   1.672   6.831 -0.1928 -2.6863 -0.6115
  599MOL0     H80808  10.119   1.493   6.924 -0.6087  2.1332 -0.4013
  599MOL0     H80809   9.977   1.408   6.961 -0.0369 -0.8314 -0.6815
  599MOL0     H80810   9.907   1.424   6.697  1.4812  0.6834 -1.6755
  599MOL0     H80811  10.064   1.496   6.682  0.3441  0.8635  0.9583
  599MOL0     H80812  10.184   1.291   6.726  0.2628 -1.5098  2.1340
  599MOL0     H80813  10.064   1.229   6.831  3.3240 -1.3342  0.3085
  599MOL0     H80814   9.919   1.201   6.630 -0.6261 -0.5853 -3.0287
  599MOL0     H80815  10.050   1.090   6.623 -1.3355 -1.0917 -1.3368
  599MOL0     H80816   9.963   1.445   6.461 -1.7661  0.7083 -3.8909
  599MOL0     H80817   9.956   1.426   6.112  0.6915  2.6040 -2.6315
  599MOL0     H80818   9.969   1.537   6.241 -2.3023 -0.0454  0.1137
  599MOL0     H80819  10.133   1.549   6.033 -1.7064 -2.3754 -0.6121
  599MOL0     H80820  10.218   1.421   6.113 -1.6013 -1.8311 -1.5687
  599MOL0     H80821  10.252   1.583   6.324 -1.8329 -1.9076  0.1364
  599MOL0     H80822  10.164   1.701   6.246 -0.3041 -0.4155 -1.3401
  599MOL0     H80823  10.333   1.671   6.050 -0.5619  2.8035 -0.1453
  599MOL0     H80824  10.422   1.555   6.146  1.0220  1.4387 -0.4037
  599MOL0     H80825  10.551   1.756   5.991  1.9118 -0.1015 -1.0630
  599MOL0     H80826  10.874   1.713   5.876 -0.0727  1.0775 -0.4782
  599MOL0     H80827  10.717   1.783   5.848  0.6284  0.5793 -0.3195
  599MOL0     H80828  10.838   1.890   5.907 -2.5103  0.7748 -1.9833
  599MOL0     H80829  11.102   1.595   6.405 -0.0923 -0.8698 -0.4177
  599MOL0     H80830  11.346   1.530   6.481  0.7191  0.0866  0.7669
  599MOL0     H80831  11.628   1.838   6.436 -0.5670 -0.1025  0.8023
  599MOL0     H80832  11.665   1.727   6.559 -0.4450 -2.4055 -0.1111
  599MOL0     H80833  11.863   1.820   6.442 -3.1087  1.7315  2.6067
  599MOL0     H80834  11.862   1.647   6.439 -0.4481 -1.4787 -1.9972
  599MOL0     H80835  11.755   1.805   6.209  0.9208  1.1976 -1.3733
  599MOL0     H80836  11.814   1.636   6.211 -0.6909  0.3742  0.8092
  599MOL0     H80837  11.963   1.900   6.256 -1.7509 -1.6543  3.0847
  599MOL0     H80838  12.034   1.746   6.279  0.3518  1.0521  1.0244
  599MOL0     H80839  11.920   1.841   6.024  2.9015  2.1302 -0.4966
  599MOL0     H80840  11.982   1.671   6.026  0.3083  0.4856 -3.2817
  599MOL0     H80841  12.151   1.924   6.037  0.6035 -1.0233  2.1975
  599MOL0     H80842  12.212   1.763   6.066 -0.2062 -1.1858 -0.7588
  599MOL0     H80843  12.176   1.684   5.839  2.1403  0.6757 -0.5303
  599MOL0     H80844  12.262   1.820   5.834  0.1424 -0.7217 -1.6887
  599MOL0     H80845  12.065   1.963   5.780  0.3016 -0.7817  2.4491
  599MOL0     H80846  11.954   1.837   5.805  0.2787 -0.2837  1.5388
  599MOL0     H80847  11.501   1.857   6.256 -1.1772  1.3789  0.3603
  599MOL0     H80848  11.290   1.931   6.201 -0.3144  0.0748  1.4284
  599MOL0     H80849  10.834   1.781   6.401 -0.7649  2.1377  0.9386
  599MOL0     H80850  10.598   1.743   6.430 -0.2639 -1.3022  1.5570
  599MOL0     H80851   9.850   2.085   7.378 -1.4143  1.5900  0.9137
  599MOL0     H80852   9.806   2.132   7.590 -2.3773 -0.8894 -1.0320
  599MOL0     H80853   9.902   2.018   8.081 -0.9104 -0.7340  0.3347
  599MOL0     H80854   9.923   2.222   8.256  1.5479  2.1994 -1.8051
  599MOL0     H80855   9.848   2.370   8.450 -0.9747 -0.7677 -0.8925
  599MOL0     H80856   9.968   2.419   8.315  2.2026  3.7092  1.1737
  599MOL0     H80857   9.843   2.635   8.312  1.2492 -0.2806 -1.4521
  599MOL0     H80858   9.954   2.608   8.454 -1.1064  2.2102  0.4241
  599MOL0     H80859   9.781   2.556   8.597  2.8380 -0.6832 -0.4433
  599MOL0     H80860   9.654   2.547   8.476 -0.1133 -0.2639 -1.3445
  599MOL0     H80861   9.811   2.807   8.519  1.0698 -1.9628  1.1435
  599MOL0     H80862   9.675   2.766   8.603  1.0124  1.3009  0.1936
  599MOL0     H80863   9.517   2.874   8.219  1.8290  0.6645 -0.0854
  599MOL0     H80864   9.580   2.398   8.082 -0.8380  0.0532  2.0190
  599MOL0     H80865   9.574   2.220   7.913  5.1636 -3.1104 -3.2045
  600MOL0     O80866   6.118  10.586   3.263 -0.2434  0.0480  0.0539
  600MOL0     C80867   6.182  10.556   3.162 -0.9157  0.1552  0.4673
  600MOL0     O80868   6.313  10.584   3.132  0.1619 -0.3422  0.1202
  600MOL0     C80869   6.396  10.648   3.221  1.2609 -0.2461  0.1768
  600MOL0     C80870   6.521  10.675   3.159  0.3945  0.6098 -0.2897
  600MOL0     C80871   6.615  10.741   3.239 -0.2031  0.3514  0.4988
  600MOL0     C80872   6.587  10.806   3.355 -0.2293 -0.1760  0.5118
  600MOL0     O80873   6.673  10.897   3.412 -0.3936  0.0331  0.5344
  600MOL0     C80874   6.737  10.990   3.323  0.2348  0.3786 -0.0706
  600MOL0     C80875   6.891  11.000   3.328  1.4980  0.4287  0.2001
  600MOL0     C80876   6.963  10.860   3.306 -0.1465 -0.6794  0.1013
  600MOL0     C80877   7.049  10.807   3.428  0.5137  0.2785 -0.0128
  600MOL0     C80878   7.124  10.685   3.390  0.7732 -0.4504  0.5564
  600MOL0     C80879   7.252  10.653   3.475 -0.0110  0.3237 -1.2933
  600MOL0     C80880   7.315  10.521   3.449 -0.1585  1.0754  0.3041
  600MOL0     C80881   7.421  10.505   3.335 -0.2960 -0.2803 -0.2239
  600MOL0     N80882   7.410  10.604   3.223  0.2056  0.0762 -0.1645
  600MOL0     C80883   7.338  10.575   3.109  0.3727  1.1050 -0.2474
  600MOL0     C80884   7.368  10.677   3.021  0.3564  0.2411 -0.2037
  600MOL0     C80885   7.315  10.698   2.886 -1.0543 -0.6990  0.2464
  600MOL0     C80886   7.323  10.843   2.826  0.3641 -0.1885  0.3994
  600MOL0     C80887   7.242  10.948   2.897 -1.0004 -0.2340  0.1229
  600MOL0     C80888   7.094  10.939   2.887 -0.1133 -0.1970  1.1781
  600MOL0     O80889   7.058  10.972   2.752  0.0807  0.1970 -0.2676
  600MOL0     C80890   6.926  10.969   2.721 -0.3349 -0.2632  0.6097
  600MOL0     C80891   6.831  10.890   2.786  0.2254 -0.7839 -0.2167
  600MOL0     C80892   6.699  10.875   2.737 -0.2369  0.0837 -0.6085
  600MOL0     C80893   6.599  10.797   2.829  0.2861 -0.4535  0.3609
  600MOL0     C80894   6.655  10.932   2.620 -0.7175 -1.2984  0.3758
  600MOL0     C80895   6.522  10.918   2.559 -0.5134 -0.1017  0.3386
  600MOL0     O80896   6.493  11.016   2.476 -0.0758 -0.7842  0.2301
  600MOL0     C80897   6.375  11.022   2.402  0.3891  0.1446 -1.0263
  600MOL0     C80898   6.256  11.047   2.463  0.2763 -0.0896 -0.3825
  600MOL0     C80899   6.133  11.060   2.386 -0.2726 -0.8828 -0.6994
  600MOL0     C80900   6.130  11.035   2.252 -0.4256  0.2437  0.5998
  600MOL0     O80901   6.003  11.067   2.198 -0.0653  0.5846 -0.4323
  600MOL0     C80902   5.980  11.045   2.056 -0.0825 -0.6682 -0.7221
  600MOL0     C80903   5.829  11.070   2.038  0.2369 -0.2922 -0.1737
  600MOL0     C80904   5.782  11.019   1.900  0.1749 -0.2214  0.3766
  600MOL0     C80905   5.836  11.120   1.789  0.1625 -0.7281  0.1935
  600MOL0     C80906   5.790  11.098   1.645 -0.3910 -0.6384 -0.4385
  600MOL0     C80907   5.830  11.211   1.555 -0.2377  0.2412  0.6135
  600MOL0     C80908   5.810  11.172   1.403 -0.1384 -0.3451  0.0126
  600MOL0     C80909   5.879  11.269   1.299  0.0314 -0.1555  0.5092
  600MOL0    Cl80910   5.779  11.415   1.265  0.0748  0.6762 -0.3379
  600MOL0     C80911   6.252  11.000   2.190  0.0843 -0.0891  0.5907
  600MOL0     C80912   6.371  10.995   2.268 -0.3429  0.3569  0.7615
  600MOL0     O80913   6.455  10.813   2.578  0.3288  1.0278 -0.7485
  600MOL0     C80914   6.750  11.011   2.554 -0.6060 -0.3714 -0.5523
  600MOL0     C80915   6.881  11.029   2.604  0.1498  0.1839 -0.3449
  600MOL0     N80916   7.459  10.757   3.088 -0.2618 -0.2901 -0.6502
  600MOL0     N80917   7.493  10.705   3.202  0.8391  0.6811 -0.0221
  600MOL0     C80918   6.459  10.784   3.410  0.2126  0.4294  1.1526
  600MOL0     C80919   6.367  10.704   3.348  0.2498 -0.1436  0.9018
  600MOL0     C80920   6.109  10.500   3.043  0.6765  0.0958 -0.3410
  600MOL0     C80921   6.174  10.490   2.910  0.2053 -0.2566 -0.6966
  600MOL0     C80922   6.102  10.453   2.802  0.2494  0.5694  0.9717
  600MOL0     C80923   5.967  10.416   2.817 -0.2336 -0.1271 -0.4238
  600MOL0     O80924   5.910  10.378   2.709  0.2325 -0.4902  0.5868
  600MOL0     C80925   5.767  10.382   2.696 -0.0408 -0.5248  0.1893
  600MOL0     C80926   5.736  10.404   2.539  0.0994  0.0653 -0.4792
  600MOL0     C80927   5.789  10.293   2.445 -0.2409 -0.0773  0.7806
  600MOL0     C80928   5.837  10.349   2.311  0.3489 -0.2908 -0.3587
  600MOL0     C80929   5.721  10.409   2.233 -0.5527  0.0476  0.7515
  600MOL0     C80930   5.630  10.447   2.171 -0.5093  0.0878  0.2069
  600MOL0     C80931   5.901  10.421   2.943  0.7858 -0.6960 -0.9371
  600MOL0     C80932   5.968  10.469   3.059 -0.0918  0.5087  0.0124
  600MOL0     H80933   6.541  10.634   3.061  0.0741 -0.1352 -0.0501
  600MOL0     H80934   6.707  10.756   3.183 -0.6033 -0.1914 -0.3227
  600MOL0     H80935   6.701  10.992   3.220  0.1644  1.2230 -0.0378
  600MOL0     H80936   6.689  11.084   3.352 -1.8695 -0.8261  0.5933
  600MOL0     H80937   6.920  11.070   3.249  0.8360  0.3503 -0.1174
  600MOL0     H80938   6.919  11.041   3.425  0.8487  1.4846 -0.0363
  600MOL0     H80939   6.895  10.779   3.279  1.6704 -1.2711 -3.1358
  600MOL0     H80940   7.032  10.873   3.222 -4.8460 -1.0029 -4.2695
  600MOL0     H80941   7.108  10.893   3.462 -1.5006  1.5891  0.3491
  600MOL0     H80942   6.973  10.786   3.503 -2.2205 -0.9729 -2.9483
  600MOL0     H80943   7.055  10.600   3.394  0.9555 -0.6712 -0.6754
  600MOL0     H80944   7.156  10.695   3.286  0.8462 -0.8366  0.5407
  600MOL0     H80945   7.321  10.733   3.446 -0.1816  1.2122  0.5484
  600MOL0     H80946   7.226  10.663   3.581  0.6229 -1.9120 -0.8772
  600MOL0     H80947   7.378  10.496   3.535  0.8634  0.1962 -0.6732
  600MOL0     H80948   7.243  10.440   3.435  2.6043 -1.4274 -0.4017
  600MOL0     H80949   7.439  10.400   3.307  2.2339  0.1790 -0.5409
  600MOL0     H80950   7.519  10.519   3.381 -0.7869  2.3594  0.1415
  600MOL0     H80951   7.263  10.499   3.087  0.8327  0.0580  1.5976
  600MOL0     H80952   7.381  10.641   2.821 -0.4425  0.1550  0.0951
  600MOL0     H80953   7.214  10.661   2.865 -1.0034 -0.5107 -0.3552
  600MOL0     H80954   7.293  10.844   2.721  1.9026 -0.0785 -0.0621
  600MOL0     H80955   7.427  10.876   2.825 -1.0348  5.0368 -0.2905
  600MOL0     H80956   7.273  11.046   2.860  2.5699 -1.4915 -0.6818
  600MOL0     H80957   7.273  10.949   3.002 -1.0076  2.8092  0.1766
  600MOL0     H80958   7.032  11.003   2.951 -3.1503 -3.3322  1.6454
  600MOL0     H80959   7.066  10.836   2.907 -2.6162 -0.5447 -2.8409
  600MOL0     H80960   6.849  10.822   2.869 -1.2139 -0.3506  0.4863
  600MOL0     H80961   6.499  10.841   2.824  1.1463  1.6099  0.3332
  600MOL0     H80962   6.594  10.691   2.802  0.0559 -0.8997  2.0419
  600MOL0     H80963   6.630  10.795   2.933 -3.6161 -3.0381  1.7145
  600MOL0     H80964   6.261  11.059   2.571 -1.3324  0.7144 -0.3619
  600MOL0     H80965   6.046  11.099   2.438  0.3854  0.5800 -0.6449
  600MOL0     H80966   6.037  11.118   1.997  0.3921 -1.7098 -1.5711
  600MOL0     H80967   6.004  10.943   2.024  1.1889 -0.7383  0.3219
  600MOL0     H80968   5.761  11.015   2.103 -1.2887  0.1936 -1.2847
  600MOL0     H80969   5.808  11.177   2.044 -1.7852 -0.7219  1.1342
  600MOL0     H80970   5.673  11.023   1.900  0.1858  0.8372  1.8390
  600MOL0     H80971   5.810  10.914   1.887 -0.6404 -0.4514  0.4614
  600MOL0     H80972   5.817  11.227   1.803 -1.1793 -0.6768 -1.7370
  600MOL0     H80973   5.945  11.108   1.782  0.1583  0.0440 -1.8717
  600MOL0     H80974   5.682  11.084   1.644 -0.6799  1.1854  0.2650
  600MOL0     H80975   5.835  11.005   1.609 -1.5813 -0.6620 -1.9266
  600MOL0     H80976   5.777  11.302   1.585 -2.5634 -0.3941 -1.1956
  600MOL0     H80977   5.938  11.229   1.553 -0.4662  2.0619  1.9766
  600MOL0     H80978   5.704  11.165   1.379 -0.2337  1.1535 -0.0503
  600MOL0     H80979   5.852  11.071   1.393 -0.7583 -0.7584  1.3152
  600MOL0     H80980   5.889  11.209   1.208  1.3665  0.8420 -0.0269
  600MOL0     H80981   5.978  11.301   1.332  0.9272 -1.5604 -0.6662
  600MOL0     H80982   6.254  10.980   2.083 -2.3812 -0.2036  0.5145
  600MOL0     H80983   6.463  10.965   2.220 -0.8558  0.1707 -0.1256
  600MOL0     H80984   6.726  11.057   2.459  0.7874 -1.1833 -1.3262
  600MOL0     H80985   6.965  11.062   2.543  0.1384 -0.4276 -0.6960
  600MOL0     H80986   6.437  10.838   3.502  1.4869  0.7599  1.2850
  600MOL0     H80987   6.267  10.692   3.391  0.4642  1.0934  1.8086
  600MOL0     H80988   6.278  10.513   2.893  0.0666  0.9549 -0.0208
  600MOL0     H80989   6.164  10.433   2.715 -0.9432 -5.2096  1.0885
  600MOL0     H80990   5.718  10.298   2.747 -2.3129  1.2491  1.1322
  600MOL0     H80991   5.727  10.474   2.741 -2.1756 -2.4558  2.6057
  600MOL0     H80992   5.791  10.497   2.519 -2.1670  0.9733 -3.2078
  600MOL0     H80993   5.628  10.414   2.523 -0.4491 -3.6752  0.1515
  600MOL0     H80994   5.707  10.220   2.436 -0.6231  0.3375  0.8583
  600MOL0     H80995   5.869  10.249   2.504 -1.0898  0.9163  2.7401
  600MOL0     H80996   5.893  10.277   2.250  1.5516  1.7430 -1.7896
  600MOL0     H80997   5.913  10.426   2.330 -1.1859  0.7069  2.1408
  600MOL0     H80998   5.544  10.471   2.113 -0.1048 -2.3626 -1.5650
  600MOL0     H80999   5.796  10.391   2.947 -0.3816  2.8737 -0.9970
  600MOL0     H81000   5.922  10.484   3.156  1.7824 -0.3506  1.0881
  601MOL0     O81001   4.826   3.987  10.444  0.9529  0.4916  1.0361
  601MOL0     C81002   4.720   3.947  10.388 -0.0680 -0.7803 -0.2156
  601MOL0     O81003   4.705   3.899  10.265 -0.2048 -0.2297  0.6518
  601MOL0     C81004   4.815   3.890  10.180  0.5638  0.0600  0.0574
  601MOL0     C81005   4.846   3.984  10.087  0.8519  0.3729 -0.2861
  601MOL0     C81006   4.960   3.961  10.009  0.9302 -1.4463 -0.1639
  601MOL0     C81007   5.049   3.860  10.017  0.0527  0.3698 -0.3083
  601MOL0     O81008   5.159   3.850   9.944  0.4280  0.0169 -0.0640
  601MOL0     C81009   5.286   3.878  10.008 -0.0066  0.1268 -0.4010
  601MOL0     C81010   5.404   3.869   9.907 -0.7536 -1.2229  0.7378
  601MOL0     C81011   5.526   3.957   9.929  0.2157 -0.4300  0.4681
  601MOL0     C81012   5.603   3.932  10.062 -0.5950  0.2082 -0.3370
  601MOL0     C81013   5.746   3.974  10.037 -0.7975 -0.1873  0.0351
  601MOL0     C81014   5.837   3.905  10.142 -0.5876 -0.5092  0.2493
  601MOL0     C81015   5.978   3.972  10.144  0.5797  0.3586  0.1068
  601MOL0     C81016   5.993   4.105  10.221  0.8944 -0.0412  1.0467
  601MOL0     N81017   6.105   4.164  10.150 -0.0637  0.3230  0.0830
  601MOL0     C81018   6.093   4.242  10.039  0.8764  1.1741  0.2482
  601MOL0     C81019   6.225   4.253   9.996 -0.6755  0.5675 -0.1886
  601MOL0     C81020   6.258   4.290   9.853  0.4533 -0.1291  0.8634
  601MOL0     C81021   6.197   4.427   9.823  1.1239 -0.1430 -0.3419
  601MOL0     C81022   6.249   4.511   9.717  0.3658  0.7653  0.3320
  601MOL0     C81023   6.394   4.555   9.734 -0.4419 -0.9998  0.5885
  601MOL0     O81024   6.407   4.635   9.843 -0.0557 -1.3596  0.5506
  601MOL0     C81025   6.536   4.640   9.893  0.2529  0.8191 -0.1115
  601MOL0     C81026   6.584   4.526   9.955 -0.1640 -1.2104 -0.6467
  601MOL0     C81027   6.709   4.520  10.009 -0.4585 -0.0191 -0.5038
  601MOL0     C81028   6.750   4.396  10.090  0.0566  0.2310  0.5272
  601MOL0     C81029   6.804   4.622   9.987  0.0082 -0.3421 -0.6573
  601MOL0     C81030   6.942   4.629  10.044  0.0759  0.6421 -0.1248
  601MOL0     O81031   7.011   4.744  10.034 -0.2443 -0.3832 -0.5543
  601MOL0     C81032   7.123   4.774  10.113  0.5460  0.7093  0.1310
  601MOL0     C81033   7.133   4.870  10.213  0.6179  0.2583 -0.5755
  601MOL0     C81034   7.247   4.904  10.277 -0.6123  0.0272  0.7145
  601MOL0     C81035   7.372   4.854  10.232 -0.1439 -0.4815  0.8136
  601MOL0     O81036   7.482   4.890  10.309 -0.2621 -0.8630  0.1924
  601MOL0     C81037   7.608   4.857  10.258 -0.0582 -0.4480 -0.7202
  601MOL0     C81038   7.733   4.925  10.315 -0.2025  0.6844  0.6412
  601MOL0     C81039   7.800   4.854  10.437 -0.0597 -1.0103 -0.3103
  601MOL0     C81040   7.683   4.824  10.536 -0.8787 -0.5559  0.4965
  601MOL0     C81041   7.741   4.759  10.663  0.1203 -0.1038  0.3804
  601MOL0     C81042   7.831   4.853  10.743  0.1977  0.6332 -0.1649
  601MOL0     C81043   7.876   4.770  10.871  0.0511  0.1430 -0.6442
  601MOL0     C81044   7.756   4.735  10.963  0.7747 -0.1451 -0.3466
  601MOL0    Cl81045   7.764   4.810  11.122  0.1898  0.2209 -0.0509
  601MOL0     C81046   7.372   4.755  10.139  0.3339  0.3187  0.9161
  601MOL0     C81047   7.249   4.717  10.077  0.7627 -0.3389  0.3470
  601MOL0     O81048   6.983   4.530  10.103  0.5248  0.5418 -0.6857
  601MOL0     C81049   6.763   4.738   9.916 -0.4776 -0.8714  0.0257
  601MOL0     C81050   6.632   4.741   9.867  0.2552  0.3408 -0.4335
  601MOL0     N81051   6.316   4.204  10.087  0.1784 -0.0577 -0.9664
  601MOL0     N81052   6.238   4.148  10.182 -0.3275 -0.7996 -1.1080
  601MOL0     C81053   5.018   3.760  10.123 -0.2387  0.5576  0.8791
  601MOL0     C81054   4.896   3.777  10.198 -0.6161  0.0240 -0.2320
  601MOL0     C81055   4.595   3.968  10.472  0.3764  0.3522 -0.0167
  601MOL0     C81056   4.606   3.986  10.617 -0.5004 -0.0020 -0.2326
  601MOL0     C81057   4.493   4.011  10.696  0.4197 -0.1943 -0.9360
  601MOL0     C81058   4.372   4.032  10.629 -0.5900  0.4747 -0.8497
  601MOL0     O81059   4.270   4.050  10.716  0.3994 -0.1937  0.2275
  601MOL0     C81060   4.131   4.049  10.672  0.1750  0.2578 -0.0952
  601MOL0     C81061   4.046   4.086  10.791 -0.2384 -0.2419  0.6188
  601MOL0     C81062   4.061   4.015  10.930  0.1574 -0.1865  0.7075
  601MOL0     C81063   4.052   3.862  10.926  0.9465 -0.4799 -0.0447
  601MOL0     C81064   4.188   3.804  10.895 -0.1527 -1.1940  0.2193
  601MOL0     C81065   4.292   3.758  10.877 -0.9975  0.0095 -0.2307
  601MOL0     C81066   4.356   4.014  10.498  0.0227 -0.4466  0.3238
  601MOL0     C81067   4.466   3.977  10.417  0.8990  1.1943 -0.7764
  601MOL0     H81068   4.789   4.074  10.067  0.2532 -0.7654 -4.5915
  601MOL0     H81069   4.995   4.037   9.939  1.7209 -1.4191  0.2472
  601MOL0     H81070   5.275   3.973  10.062 -0.8526 -0.4550  0.4699
  601MOL0     H81071   5.311   3.807  10.087  0.6953  1.3967  0.5624
  601MOL0     H81072   5.437   3.765   9.903  0.5377 -0.8465  1.0118
  601MOL0     H81073   5.365   3.888   9.807 -2.4606 -3.6514  0.8676
  601MOL0     H81074   5.595   3.949   9.845 -1.3828 -1.9913 -0.7898
  601MOL0     H81075   5.494   4.061   9.939  3.2942  0.4154  3.3357
  601MOL0     H81076   5.559   3.977  10.151  1.1884  3.7713 -1.0895
  601MOL0     H81077   5.600   3.823  10.073  0.3657  0.0892 -1.0336
  601MOL0     H81078   5.780   3.944   9.937  0.5749  2.2043 -0.2612
  601MOL0     H81079   5.748   4.083  10.034 -2.8114 -0.1278 -0.6922
  601MOL0     H81080   5.785   3.920  10.237 -1.1326 -1.1518  0.0653
  601MOL0     H81081   5.853   3.799  10.121  1.4450  0.1568 -2.0695
  601MOL0     H81082   6.038   3.899  10.200  0.5040 -0.2632 -0.5981
  601MOL0     H81083   6.012   3.971  10.040  1.7349  0.4095  0.4637
  601MOL0     H81084   6.015   4.085  10.326  0.4953 -1.3116  0.9101
  601MOL0     H81085   5.896   4.155  10.223 -1.0580 -3.4690  2.9232
  601MOL0     H81086   5.998   4.263   9.992  0.3968 -0.9154  0.1950
  601MOL0     H81087   6.367   4.301   9.850  0.5773 -0.2893 -3.7811
  601MOL0     H81088   6.234   4.217   9.775 -0.8802  1.4484 -0.2632
  601MOL0     H81089   6.203   4.487   9.914  1.4229 -0.3727 -0.2111
  601MOL0     H81090   6.090   4.411   9.811  0.7032  1.7531  0.4559
  601MOL0     H81091   6.174   4.589   9.703 -0.0496  0.4526  0.7864
  601MOL0     H81092   6.239   4.452   9.625  2.3117 -3.2807  2.4617
  601MOL0     H81093   6.438   4.610   9.650 -0.8055 -1.6817 -0.0619
  601MOL0     H81094   6.464   4.472   9.752  2.1395  0.4296 -1.9093
  601MOL0     H81095   6.516   4.442   9.967 -1.0534 -0.4324 -0.0699
  601MOL0     H81096   6.683   4.312  10.070  2.7927 -1.8777 -0.3280
  601MOL0     H81097   6.847   4.361  10.054 -0.3300 -0.4382  0.1068
  601MOL0     H81098   6.748   4.419  10.197  0.4907 -0.5418  0.7050
  601MOL0     H81099   7.047   4.931  10.236 -0.6855 -1.0178 -1.8636
  601MOL0     H81100   7.239   4.978  10.356 -3.1471  1.2307 -0.5536
  601MOL0     H81101   7.632   4.750  10.247  2.7529 -0.0446  0.6428
  601MOL0     H81102   7.605   4.892  10.154 -1.1886 -1.0562 -0.9097
  601MOL0     H81103   7.817   4.935  10.246 -0.8753  0.4614 -0.2408
  601MOL0     H81104   7.713   5.032  10.316 -1.7184  0.5005 -1.7716
  601MOL0     H81105   7.871   4.925  10.481 -0.6067  0.0172 -1.0402
  601MOL0     H81106   7.852   4.765  10.401 -1.6854 -2.8623  1.6423
  601MOL0     H81107   7.617   4.909  10.554 -0.2432  0.4005 -1.4063
  601MOL0     H81108   7.616   4.743  10.507  0.3548 -2.0858  1.6967
  601MOL0     H81109   7.799   4.671  10.636 -0.0029 -0.0335 -0.1213
  601MOL0     H81110   7.656   4.723  10.721  0.6205 -0.6604  0.7759
  601MOL0     H81111   7.925   4.875  10.690  0.8751  0.4877  0.9414
  601MOL0     H81112   7.788   4.949  10.772 -1.8039 -0.4606  0.6489
  601MOL0     H81113   7.928   4.853  10.918 -1.5810  1.5756 -1.2549
  601MOL0     H81114   7.945   4.687  10.857 -1.3147 -1.4063  1.2052
  601MOL0     H81115   7.742   4.626  10.971 -0.8589  0.0599  0.1174
  601MOL0     H81116   7.663   4.778  10.924  2.2900  0.7885 -3.2146
  601MOL0     H81117   7.462   4.703  10.108 -1.0282 -1.2396 -0.6185
  601MOL0     H81118   7.253   4.647   9.994  1.8336 -1.3421  1.2117
  601MOL0     H81119   6.828   4.819   9.883 -0.5506 -1.9441 -3.0596
  601MOL0     H81120   6.592   4.827   9.813  1.2110 -0.3471 -2.3392
  601MOL0     H81121   5.098   3.692  10.149  1.5211  1.4497 -1.7891
  601MOL0     H81122   4.873   3.715  10.284 -1.6177  0.0710 -0.4601
  601MOL0     H81123   4.703   3.989  10.665 -0.2904  2.1536 -0.6963
  601MOL0     H81124   4.496   4.023  10.804 -3.1706 -0.5081 -0.6622
  601MOL0     H81125   4.126   4.124  10.593  0.6644  0.2142 -0.1717
  601MOL0     H81126   4.116   3.946  10.637 -0.9219  0.3863 -0.0294
  601MOL0     H81127   3.938   4.076  10.778 -0.4005 -2.3996  3.0131
  601MOL0     H81128   4.075   4.189  10.817 -1.0681  0.2962 -0.4822
  601MOL0     H81129   3.972   4.054  10.979 -0.6711 -2.6291  1.3119
  601MOL0     H81130   4.152   4.048  10.981  0.7942  2.5277 -1.8700
  601MOL0     H81131   3.993   3.828  10.841  0.5291 -1.3269  0.5673
  601MOL0     H81132   4.022   3.822  11.023  1.9689 -0.3227  0.3544
  601MOL0     H81133   4.390   3.727  10.845 -0.9971  1.2887 -1.5804
  601MOL0     H81134   4.255   4.026  10.460 -0.2158  0.3414  1.1472
  601MOL0     H81135   4.458   3.960  10.310  0.6568 -1.5000 -0.4190
  602MOL0     O81136  10.792   8.441   1.130  0.7040  0.1711 -0.4840
  602MOL0     C81137  10.855   8.409   1.027 -0.8202  0.4438 -0.5774
  602MOL0     O81138  10.943   8.305   1.020  0.5669  0.3559  0.5102
  602MOL0     C81139  10.947   8.213   1.126  0.4206 -0.6980 -0.1373
  602MOL0     C81140  10.844   8.124   1.153 -0.3337  0.6293  0.6468
  602MOL0     C81141  10.853   8.034   1.268 -0.5237 -0.1843  0.6188
  602MOL0     C81142  10.962   8.045   1.357  0.4519 -0.1249 -0.0297
  602MOL0     O81143  10.971   7.967   1.466 -0.0994 -0.7652 -0.1253
  602MOL0     C81144  11.036   8.004   1.592  0.3604 -0.0159  1.2012
  602MOL0     C81145  11.032   7.886   1.687  0.3737  0.4101  0.5166
  602MOL0     C81146  11.100   7.901   1.819 -0.2809 -0.3587 -0.1251
  602MOL0     C81147  11.076   7.783   1.923  0.5437  0.1755 -0.2317
  602MOL0     C81148  11.137   7.652   1.877  1.0097  0.0849 -0.0419
  602MOL0     C81149  11.110   7.546   1.980  0.4469 -1.2064  0.0804
  602MOL0     C81150  11.110   7.412   1.910  0.3715 -0.1622 -0.8517
  602MOL0     C81151  10.968   7.351   1.898 -0.5452  0.5075 -0.0728
  602MOL0     N81152  10.898   7.408   1.776  0.4188  0.1291  0.0514
  602MOL0     C81153  10.892   7.356   1.650 -0.0156  0.1121  0.4836
  602MOL0     C81154  10.823   7.447   1.575 -0.3217 -0.0544 -0.2824
  602MOL0     C81155  10.785   7.445   1.433 -1.3118  0.3162 -0.2795
  602MOL0     C81156  10.900   7.483   1.339  0.2841 -0.4388  0.3842
  602MOL0     C81157  10.894   7.624   1.283  0.7394  0.9589  0.3515
  602MOL0     C81158  10.778   7.648   1.193 -0.6064 -0.3864  0.1220
  602MOL0     O81159  10.778   7.555   1.076  0.3236 -0.6931  0.1065
  602MOL0     C81160  10.843   7.609   0.963  0.2004  0.3406 -0.6349
  602MOL0     C81161  10.943   7.713   0.960  0.7260  0.1934 -0.3697
  602MOL0     C81162  11.016   7.734   0.848 -0.5864  0.4375  0.5941
  602MOL0     C81163  11.083   7.875   0.825 -0.9482  0.4051 -0.1232
  602MOL0     C81164  10.998   7.653   0.734 -0.4442  0.9502 -0.7083
  602MOL0     C81165  11.092   7.661   0.608 -0.4865 -0.6751 -0.2424
  602MOL0     O81166  11.121   7.545   0.549 -0.4059  0.3199  0.3164
  602MOL0     C81167  11.213   7.551   0.442 -0.4861 -1.4591  0.3361
  602MOL0     C81168  11.190   7.634   0.327  0.8116 -0.0496  0.2256
  602MOL0     C81169  11.292   7.652   0.232  0.2686  0.2748 -0.2501
  602MOL0     C81170  11.421   7.602   0.255  0.4697 -0.8608 -0.2043
  602MOL0     O81171  11.523   7.635   0.167  0.9744 -0.7181  0.1565
  602MOL0     C81172  11.563   7.773   0.178 -0.7873  0.1316 -0.5060
  602MOL0     C81173  11.679   7.813   0.088  0.5516 -0.4658 -0.2291
  602MOL0     C81174  11.638   7.821  -0.058  0.2339 -0.2410 -1.3175
  602MOL0     C81175  11.749   7.901  -0.127 -0.3202 -0.5570  1.5673
  602MOL0     C81176  11.742   7.858  -0.274  0.4791 -0.5310 -0.5089
  602MOL0     C81177  11.871   7.913  -0.343 -0.2240 -1.2802  0.6270
  602MOL0     C81178  11.892   8.062  -0.333  0.5286  0.0880 -0.0708
  602MOL0     C81179  11.777   8.161  -0.392  0.6047  0.3891  0.8450
  602MOL0    Cl81180  11.830   8.318  -0.364  0.5740  0.3033  0.0495
  602MOL0     C81181  11.436   7.518   0.356 -0.4524  0.1562 -0.5005
  602MOL0     C81182  11.340   7.499   0.457  1.0948 -0.1324 -0.2042
  602MOL0     O81183  11.099   7.775   0.556  0.3777 -0.6501  0.4548
  602MOL0     C81184  10.899   7.551   0.738 -0.6244 -0.3202  0.1282
  602MOL0     C81185  10.822   7.532   0.849 -1.0014  0.0217  0.9974
  602MOL0     N81186  10.799   7.550   1.668  0.5056  0.5359  0.5337
  602MOL0     N81187  10.852   7.533   1.776 -0.0817 -0.9532  0.1379
  602MOL0     C81188  11.056   8.147   1.324 -0.5690 -0.5917 -0.1434
  602MOL0     C81189  11.058   8.215   1.204  0.2595  0.4017  0.7530
  602MOL0     C81190  10.834   8.472   0.897  0.2561  0.3070  0.5409
  602MOL0     C81191  10.844   8.400   0.776 -0.1962 -0.4167 -0.5459
  602MOL0     C81192  10.827   8.455   0.650  1.2716 -0.3259 -0.3815
  602MOL0     C81193  10.812   8.595   0.645  0.5708 -0.1957 -0.0466
  602MOL0     O81194  10.814   8.644   0.520 -0.5666  0.0980 -0.4640
  602MOL0     C81195  10.801   8.777   0.483  0.1781 -0.3310 -0.0359
  602MOL0     C81196  10.935   8.849   0.478  0.7095 -0.5945 -0.1825
  602MOL0     C81197  11.037   8.779   0.386 -0.3103  0.1656 -0.0265
  602MOL0     C81198  11.111   8.665   0.457  0.6311 -0.8303 -0.1608
  602MOL0     C81199  11.202   8.602   0.359  1.0567 -0.0154  0.1769
  602MOL0     C81200  11.272   8.560   0.268 -1.3584  0.0554  0.1455
  602MOL0     C81201  10.815   8.673   0.760 -0.4475 -0.5240  0.1751
  602MOL0     C81202  10.822   8.615   0.885  0.0398  0.1091  0.6175
  602MOL0     H81203  10.761   8.111   1.084 -0.4662  1.6758  0.5895
  602MOL0     H81204  10.775   7.963   1.291 -1.2264  0.9748  1.9524
  602MOL0     H81205  11.140   8.029   1.572 -0.2273  1.4218 -0.3076
  602MOL0     H81206  10.982   8.091   1.631 -2.9314 -2.0291  1.5881
  602MOL0     H81207  10.931   7.862   1.722  0.7585 -2.9386 -0.3865
  602MOL0     H81208  11.071   7.803   1.628 -0.3315  1.1807 -1.1143
  602MOL0     H81209  11.209   7.903   1.807 -0.0380 -2.1391  1.3681
  602MOL0     H81210  11.069   7.998   1.861  3.6969  1.8092 -1.6591
  602MOL0     H81211  11.107   7.814   2.023  0.9250  0.8652 -0.5572
  602MOL0     H81212  10.968   7.764   1.926  0.4786  0.5349 -0.3216
  602MOL0     H81213  11.084   7.636   1.783 -2.2316  1.6510  1.3574
  602MOL0     H81214  11.241   7.677   1.854  0.1655  0.8171 -3.6914
  602MOL0     H81215  11.178   7.556   2.064  1.6832 -0.7574 -0.9406
  602MOL0     H81216  11.012   7.567   2.025  1.3842  1.9604  0.9080
  602MOL0     H81217  11.148   7.421   1.808  1.0399  1.1096 -0.5126
  602MOL0     H81218  11.174   7.354   1.977 -2.2951 -1.3503  0.8481
  602MOL0     H81219  10.915   7.368   1.992 -2.6554  0.6150 -1.2255
  602MOL0     H81220  10.979   7.243   1.887  0.7633  0.5823  0.3252
  602MOL0     H81221  10.935   7.260   1.623 -2.4777 -0.8874 -0.1810
  602MOL0     H81222  10.751   7.342   1.412  1.7722 -1.4802  2.6137
  602MOL0     H81223  10.695   7.502   1.408  0.1724  3.0035  0.1426
  602MOL0     H81224  10.916   7.414   1.255  0.4973 -1.3744  1.1778
  602MOL0     H81225  10.996   7.473   1.390  0.1618 -2.0462  0.3627
  602MOL0     H81226  10.985   7.663   1.236  0.4702  0.8303 -0.2879
  602MOL0     H81227  10.880   7.686   1.372 -0.6003 -0.1544  0.9495
  602MOL0     H81228  10.786   7.746   1.146  2.5361  1.6285  4.2122
  602MOL0     H81229  10.684   7.651   1.250  0.8249 -0.0323  2.6319
  602MOL0     H81230  10.955   7.782   1.042  0.4969 -0.0151 -0.1590
  602MOL0     H81231  11.021   7.928   0.752 -0.1669 -2.8544 -3.5307
  602MOL0     H81232  11.101   7.931   0.917 -0.2939 -1.5615  1.0173
  602MOL0     H81233  11.185   7.862   0.787  0.1363  1.2734  2.2829
  602MOL0     H81234  11.095   7.685   0.309  1.4089  1.5055  1.2721
  602MOL0     H81235  11.285   7.720   0.147 -0.1431 -0.8079 -1.1170
  602MOL0     H81236  11.475   7.831   0.148  0.0052  0.9200 -1.3586
  602MOL0     H81237  11.586   7.801   0.282 -0.4594 -0.2508 -0.4729
  602MOL0     H81238  11.708   7.913   0.119  0.7837 -1.8790  5.1337
  602MOL0     H81239  11.769   7.752   0.096  1.1320  0.3163 -0.6741
  602MOL0     H81240  11.541   7.870  -0.072 -1.3614 -3.0431 -0.8663
  602MOL0     H81241  11.630   7.718  -0.094 -0.1144 -0.4183 -0.7460
  602MOL0     H81242  11.730   8.008  -0.127 -4.4108 -1.0897  0.1365
  602MOL0     H81243  11.844   7.874  -0.081  1.4039 -1.0712 -1.9513
  602MOL0     H81244  11.656   7.905  -0.322  0.7603 -1.0099 -1.4916
  602MOL0     H81245  11.730   7.751  -0.296 -1.0506  0.0058 -2.5004
  602MOL0     H81246  11.943   7.838  -0.311 -1.2672 -2.9042 -0.6348
  602MOL0     H81247  11.854   7.887  -0.448  0.2637 -0.7867  0.4255
  602MOL0     H81248  11.976   8.093  -0.397 -0.8865 -0.1329 -2.1089
  602MOL0     H81249  11.911   8.087  -0.228  1.1806 -0.1419 -0.1254
  602MOL0     H81250  11.676   8.150  -0.353 -1.2952  5.6065 -1.7591
  602MOL0     H81251  11.766   8.146  -0.500 -0.1936  1.4676  0.7687
  602MOL0     H81252  11.535   7.475   0.364 -0.0807  1.2720  1.4821
  602MOL0     H81253  11.350   7.435   0.544  0.4584 -2.4438 -1.7525
  602MOL0     H81254  10.879   7.488   0.652 -1.6531  1.2149 -0.8020
  602MOL0     H81255  10.748   7.453   0.840 -0.3285 -0.6230  0.9765
  602MOL0     H81256  11.132   8.157   1.401 -0.0884 -1.4347 -0.4925
  602MOL0     H81257  11.134   8.285   1.170 -2.2244  2.3962 -1.1371
  602MOL0     H81258  10.875   8.296   0.780  3.0701  0.4689 -0.2618
  602MOL0     H81259  10.838   8.385   0.568  3.4568 -0.8568  0.3092
  602MOL0     H81260  10.745   8.787   0.390 -1.0139 -0.1631  0.6849
  602MOL0     H81261  10.742   8.816   0.567  1.3975 -0.7848  1.0812
  602MOL0     H81262  10.978   8.860   0.578  0.4164  2.0159 -0.2636
  602MOL0     H81263  10.912   8.953   0.451  2.3799 -0.1148  0.1701
  602MOL0     H81264  11.116   8.852   0.364 -0.1962 -0.3263 -1.3478
  602MOL0     H81265  11.003   8.753   0.285 -1.3634  0.8192  0.1455
  602MOL0     H81266  11.053   8.597   0.519 -1.5454  1.6660  0.7422
  602MOL0     H81267  11.179   8.719   0.524  0.7991  0.4706 -1.3308
  602MOL0     H81268  11.337   8.537   0.185 -2.2232 -1.4344 -0.1498
  602MOL0     H81269  10.810   8.781   0.752 -1.7514 -0.5777  0.0793
  602MOL0     H81270  10.819   8.672   0.977  1.7737 -1.5261  1.7716
  603MOL0     O81271   2.503   1.245   6.291 -0.4356 -0.4499 -0.4089
  603MOL0     C81272   2.628   1.263   6.286  1.0013 -0.8928  0.0160
  603MOL0     O81273   2.686   1.380   6.243  0.3388 -0.0767  0.2945
  603MOL0     C81274   2.601   1.467   6.181  0.0491 -1.4421 -0.4637
  603MOL0     C81275   2.635   1.495   6.050  0.3217  1.0494 -0.5077
  603MOL0     C81276   2.561   1.581   5.969  0.0170  0.2783 -0.3210
  603MOL0     C81277   2.444   1.647   6.018 -0.6895 -0.1329  0.1625
  603MOL0     O81278   2.389   1.736   5.933 -0.0439  0.5094  1.0869
  603MOL0     C81279   2.264   1.790   5.980 -0.8689  0.0320  0.1786
  603MOL0     C81280   2.191   1.843   5.861  0.3393 -0.4116 -0.8147
  603MOL0     C81281   2.050   1.894   5.884  0.4611  0.7287 -0.2894
  603MOL0     C81282   1.999   1.951   5.750  1.2751 -0.4927  0.4873
  603MOL0     C81283   1.868   2.027   5.765 -0.9169 -0.1128 -0.0853
  603MOL0     C81284   1.911   2.165   5.799  0.1953 -0.7904  0.5701
  603MOL0     C81285   1.791   2.256   5.798  1.2284 -0.1380 -0.5607
  603MOL0     C81286   1.745   2.275   5.646  0.0906  0.1479 -0.3715
  603MOL0     N81287   1.667   2.391   5.634  0.6591 -0.3983 -0.8427
  603MOL0     C81288   1.546   2.412   5.696  0.9974  0.2152 -0.2978
  603MOL0     C81289   1.528   2.542   5.708  0.2064 -0.0599 -0.4387
  603MOL0     C81290   1.429   2.608   5.789 -0.2255 -1.3306 -0.4074
  603MOL0     C81291   1.415   2.756   5.792  0.7598 -0.0082  0.7372
  603MOL0     C81292   1.294   2.815   5.716  1.1229  0.6760 -0.5497
  603MOL0     C81293   1.286   2.804   5.571 -0.3496 -0.5214 -0.5265
  603MOL0     O81294   1.147   2.835   5.535  0.1201 -0.2295 -0.0585
  603MOL0     C81295   1.106   2.864   5.407  0.1580  0.4482 -0.2325
  603MOL0     C81296   1.192   2.856   5.295  0.6260 -0.4055 -0.3329
  603MOL0     C81297   1.150   2.890   5.168  1.0078  0.0587 -0.1765
  603MOL0     C81298   1.248   2.884   5.060 -0.2008 -0.0989 -0.5881
  603MOL0     C81299   1.014   2.931   5.150 -0.3325  0.0568 -0.2875
  603MOL0     C81300   0.962   2.975   5.026 -0.1106 -0.5253  0.0648
  603MOL0     O81301   0.923   3.103   5.035 -0.0425 -0.1838  1.2628
  603MOL0     C81302   0.848   3.149   4.930  0.4634 -0.1535 -0.3126
  603MOL0     C81303   0.710   3.113   4.904 -0.9532  0.1007  0.2600
  603MOL0     C81304   0.664   3.160   4.783  0.5041 -0.6295  0.1415
  603MOL0     C81305   0.723   3.257   4.689  0.0623  0.2559 -0.3446
  603MOL0     O81306   0.659   3.312   4.581 -0.2314  0.1966  0.2839
  603MOL0     C81307   0.538   3.257   4.542  0.4730  0.1091 -0.1283
  603MOL0     C81308   0.493   3.318   4.403 -0.1249  0.1847  0.7057
  603MOL0     C81309   0.472   3.466   4.397 -0.1351 -0.6718  0.2319
  603MOL0     C81310   0.464   3.521   4.254  0.2270  0.5942 -0.6266
  603MOL0     C81311   0.334   3.476   4.168  0.3567 -0.3198  1.1506
  603MOL0     C81312   0.205   3.540   4.197  0.5969 -0.6766 -0.0552
  603MOL0     C81313   0.095   3.475   4.113 -0.2181 -0.4931 -0.0746
  603MOL0     C81314  -0.040   3.518   4.174  0.0056  0.2887  0.2287
  603MOL0    Cl81315  -0.169   3.427   4.107 -0.1708  0.4944  0.0813
  603MOL0     C81316   0.848   3.294   4.729  0.4329  0.1771  0.3746
  603MOL0     C81317   0.912   3.239   4.844  0.2842  0.0532  0.1698
  603MOL0     O81318   0.948   2.899   4.932  1.5424 -0.7902 -0.7422
  603MOL0     C81319   0.929   2.933   5.259 -0.0933 -0.4601 -0.4149
  603MOL0     C81320   0.970   2.899   5.382  0.2212 -0.3011 -0.1372
  603MOL0     N81321   1.640   2.606   5.655 -0.5510 -0.0123 -0.0392
  603MOL0     N81322   1.711   2.516   5.611 -0.2821 -0.8036  0.4550
  603MOL0     C81323   2.403   1.623   6.155  0.2552 -0.0665  0.5344
  603MOL0     C81324   2.490   1.537   6.236 -0.5928  0.5579 -0.1084
  603MOL0     C81325   2.720   1.153   6.311  0.2386  0.3232  0.1140
  603MOL0     C81326   2.865   1.170   6.309 -0.3495  0.0719 -0.8784
  603MOL0     C81327   2.950   1.053   6.332  0.0863  0.0823 -0.1538
  603MOL0     C81328   2.894   0.930   6.359  0.4898  1.5242 -0.4437
  603MOL0     O81329   2.967   0.812   6.376 -0.2246  0.5524  1.0099
  603MOL0     C81330   3.113   0.807   6.396 -0.0723  1.0102 -0.1121
  603MOL0     C81331   3.158   0.661   6.428  0.5407  1.3342 -1.3627
  603MOL0     C81332   3.148   0.582   6.297 -1.2541 -0.2574 -1.0398
  603MOL0     C81333   3.279   0.586   6.216  0.9860 -0.0958  0.6517
  603MOL0     C81334   3.263   0.497   6.102  0.4302 -0.2881 -0.8255
  603MOL0     C81335   3.252   0.412   6.011 -0.5002 -0.0262 -0.7029
  603MOL0     C81336   2.753   0.918   6.384  0.2454 -0.3667 -0.0386
  603MOL0     C81337   2.674   1.032   6.357  0.9003 -0.6278 -0.7387
  603MOL0     H81338   2.709   1.434   6.001 -2.8357 -2.5948 -1.2371
  603MOL0     H81339   2.588   1.594   5.865 -2.3643 -0.6943 -1.1323
  603MOL0     H81340   2.194   1.713   6.013 -3.6535  2.4242  0.2375
  603MOL0     H81341   2.276   1.870   6.053 -2.0587 -0.2799  0.7358
  603MOL0     H81342   2.246   1.928   5.821 -0.1598 -0.8403 -2.4955
  603MOL0     H81343   2.190   1.765   5.784 -1.0205 -0.5777 -0.6626
  603MOL0     H81344   1.978   1.815   5.910  1.8075 -0.5373 -0.2911
  603MOL0     H81345   2.052   1.974   5.958  1.3707  1.5384 -1.1686
  603MOL0     H81346   2.075   2.014   5.701 -0.0697 -1.6179 -3.3795
  603MOL0     H81347   1.979   1.864   5.688 -0.9909 -0.1243  0.6091
  603MOL0     H81348   1.831   2.029   5.662  3.0974  1.1006 -1.7066
  603MOL0     H81349   1.798   1.986   5.839 -1.0338 -2.5052 -1.4085
  603MOL0     H81350   1.958   2.155   5.898  1.4425 -3.2075 -0.1920
  603MOL0     H81351   1.996   2.201   5.740 -0.5495  1.0853  0.5495
  603MOL0     H81352   1.718   2.199   5.856  2.1655 -0.3730  0.4250
  603MOL0     H81353   1.816   2.353   5.842  0.4395  0.6264 -1.7335
  603MOL0     H81354   1.704   2.184   5.600 -1.0625  1.1291 -1.3323
  603MOL0     H81355   1.836   2.286   5.586 -0.6778 -3.5090 -2.5403
  603MOL0     H81356   1.482   2.336   5.740  1.1987 -1.6850 -3.0222
  603MOL0     H81357   1.328   2.570   5.768 -0.5125  0.6856 -3.2886
  603MOL0     H81358   1.464   2.580   5.889 -0.1892 -0.6238 -0.2231
  603MOL0     H81359   1.515   2.796   5.772  0.4006  0.2415 -0.6451
  603MOL0     H81360   1.388   2.772   5.897 -0.7385 -0.5813  0.4638
  603MOL0     H81361   1.279   2.919   5.748 -0.3540  0.9174 -1.8387
  603MOL0     H81362   1.212   2.748   5.743  0.9635  1.7581  1.9099
  603MOL0     H81363   1.299   2.702   5.531 -1.6605  0.5696 -4.1358
  603MOL0     H81364   1.353   2.872   5.518 -0.3802  1.8800  2.2912
  603MOL0     H81365   1.294   2.822   5.306  0.6302 -0.0188  1.1112
  603MOL0     H81366   1.284   2.985   5.038 -1.3512  0.2802 -0.8279
  603MOL0     H81367   1.328   2.812   5.081 -0.9267 -1.1300 -1.2700
  603MOL0     H81368   1.204   2.860   4.962  0.7244  3.4910 -2.0570
  603MOL0     H81369   0.662   3.045   4.974 -1.3767  0.4287  0.2838
  603MOL0     H81370   0.564   3.122   4.766  0.0938 -0.8854  2.7415
  603MOL0     H81371   0.553   3.151   4.518 -1.1515  0.1457 -1.4701
  603MOL0     H81372   0.464   3.273   4.620  0.0890  0.2667 -0.5203
  603MOL0     H81373   0.573   3.303   4.329 -0.9602  1.3909 -0.4942
  603MOL0     H81374   0.392   3.281   4.383 -0.3225  0.5613  1.0024
  603MOL0     H81375   0.565   3.505   4.437 -1.3664 -0.0988  2.7644
  603MOL0     H81376   0.377   3.498   4.441  0.1323  1.4312 -0.6290
  603MOL0     H81377   0.461   3.630   4.245  0.2820  0.4390 -3.4488
  603MOL0     H81378   0.547   3.490   4.190  0.1506  0.3307 -0.5989
  603MOL0     H81379   0.321   3.368   4.175 -0.7799 -0.1205  2.5844
  603MOL0     H81380   0.366   3.510   4.069  2.4918  1.5176  2.3593
  603MOL0     H81381   0.188   3.516   4.302  0.5259 -0.7466 -0.0831
  603MOL0     H81382   0.201   3.649   4.182 -1.9246 -0.9250 -1.6963
  603MOL0     H81383   0.108   3.367   4.128 -0.9634 -0.5653  0.0573
  603MOL0     H81384   0.110   3.507   4.010  1.7939  2.4094  0.9793
  603MOL0     H81385  -0.059   3.623   4.153 -0.0489 -0.2480 -3.0278
  603MOL0     H81386  -0.027   3.499   4.281  2.0224  0.6790  0.1063
  603MOL0     H81387   0.910   3.364   4.674  1.2807  0.1039  1.2062
  603MOL0     H81388   1.017   3.261   4.861  0.2589  0.6983 -0.4330
  603MOL0     H81389   0.827   2.970   5.261 -0.0180 -0.2876  0.7786
  603MOL0     H81390   0.905   2.900   5.470 -0.4203  2.4950 -0.5499
  603MOL0     H81391   2.312   1.669   6.194  0.5822 -0.4130  1.7639
  603MOL0     H81392   2.473   1.509   6.339  3.1142 -1.6605  0.0859
  603MOL0     H81393   2.915   1.262   6.282  0.1043 -0.1412 -0.7723
  603MOL0     H81394   3.059   1.059   6.339 -0.0526  0.5174  3.0401
  603MOL0     H81395   3.161   0.835   6.302 -2.8602  1.8782 -1.3999
  603MOL0     H81396   3.129   0.861   6.490 -1.1976  1.0340  0.0753
  603MOL0     H81397   3.087   0.620   6.501  1.7060 -0.0967 -0.9967
  603MOL0     H81398   3.254   0.658   6.480  0.9537 -1.5604 -2.1019
  603MOL0     H81399   3.062   0.606   6.234 -1.2406  1.1665 -0.5465
  603MOL0     H81400   3.142   0.479   6.334  1.0889 -0.1470 -0.1881
  603MOL0     H81401   3.357   0.552   6.285  1.3483  0.8374  0.7266
  603MOL0     H81402   3.300   0.689   6.183 -1.6391  0.3767  0.2831
  603MOL0     H81403   3.261   0.331   5.941  3.1718  0.4284 -0.9316
  603MOL0     H81404   2.711   0.828   6.429 -1.2217  2.4783  5.0320
  603MOL0     H81405   2.567   1.036   6.375  0.4242 -0.3931 -3.2030
  604MOL0     O81406   8.334   3.431   4.432  0.2418 -0.6128  0.2431
  604MOL0     C81407   8.450   3.460   4.448 -0.3636 -0.7503 -0.2255
  604MOL0     O81408   8.509   3.578   4.417 -0.3744  0.1112 -0.5497
  604MOL0     C81409   8.432   3.684   4.393  0.0734 -0.1990 -1.3726
  604MOL0     C81410   8.344   3.732   4.487  0.1723 -1.2544  0.7045
  604MOL0     C81411   8.260   3.840   4.466  0.5681 -0.4914  0.0406
  604MOL0     C81412   8.262   3.904   4.338  0.6825  0.0027 -0.2113
  604MOL0     O81413   8.192   4.018   4.312 -0.9235 -0.6674  1.2811
  604MOL0     C81414   8.057   4.000   4.289 -0.3332 -0.5082 -0.2975
  604MOL0     C81415   8.014   3.905   4.179  0.0606 -0.3380  0.0467
  604MOL0     C81416   7.854   3.914   4.159 -0.1909  0.6606  0.0472
  604MOL0     C81417   7.772   3.850   4.277  0.4939  0.6997  1.0667
  604MOL0     C81418   7.625   3.861   4.247  0.5596 -1.4027 -0.5275
  604MOL0     C81419   7.552   3.807   4.366 -0.4985  0.6352  0.1333
  604MOL0     C81420   7.410   3.836   4.351  0.1042 -0.5318  1.0492
  604MOL0     C81421   7.322   3.807   4.465 -0.5231 -0.0377  0.4045
  604MOL0     N81422   7.312   3.667   4.511 -0.0575 -0.8371  0.2329
  604MOL0     C81423   7.255   3.574   4.432 -0.7198  0.0825  0.4627
  604MOL0     C81424   7.206   3.476   4.511 -0.6430  0.3352 -0.9917
  604MOL0     C81425   7.133   3.352   4.465  0.6511  1.0708  0.0817
  604MOL0     C81426   7.150   3.232   4.554 -0.0873  1.0460 -0.1769
  604MOL0     C81427   7.068   3.110   4.512  0.3491  0.2539  0.0094
  604MOL0     C81428   7.092   3.062   4.364  0.4370 -0.8581 -0.1766
  604MOL0     O81429   7.227   3.059   4.334 -0.9283  0.0462 -0.1007
  604MOL0     C81430   7.285   2.951   4.267 -1.2945  0.5116  0.0962
  604MOL0     C81431   7.301   2.951   4.135  0.2442 -0.5564 -0.0006
  604MOL0     C81432   7.359   2.844   4.056 -0.0061 -0.4455 -0.8330
  604MOL0     C81433   7.378   2.865   3.910  0.2350  0.1236  0.6573
  604MOL0     C81434   7.407   2.732   4.135  0.4557 -0.4659 -0.1678
  604MOL0     C81435   7.492   2.636   4.061  0.2116 -0.7861 -0.4982
  604MOL0     O81436   7.581   2.678   3.970  0.4737 -0.1004 -0.1366
  604MOL0     C81437   7.639   2.577   3.899  0.0626  0.1086  0.4881
  604MOL0     C81438   7.779   2.545   3.916  0.6781  0.2943 -0.4156
  604MOL0     C81439   7.833   2.451   3.830 -0.1581 -0.3358  0.0314
  604MOL0     C81440   7.756   2.375   3.744 -0.6152  0.5979 -0.4293
  604MOL0     O81441   7.804   2.286   3.661  0.2737  0.6909 -0.2302
  604MOL0     C81442   7.925   2.321   3.592 -0.3813  0.0054 -0.1925
  604MOL0     C81443   7.937   2.217   3.476  0.7668  0.2210  0.5237
  604MOL0     C81444   7.828   2.227   3.381 -0.8555  0.1286  0.2755
  604MOL0     C81445   7.849   2.128   3.264  0.3658 -0.4415  0.8866
  604MOL0     C81446   7.737   2.112   3.163  0.1676  0.6190  0.1749
  604MOL0     C81447   7.758   2.203   3.041 -0.6943  0.3113  0.1638
  604MOL0     C81448   7.651   2.180   2.938  0.6340 -0.1577  0.7041
  604MOL0     C81449   7.672   2.261   2.809  1.0891 -0.2279 -0.1970
  604MOL0    Cl81450   7.549   2.249   2.683 -0.0291 -0.1482 -0.0771
  604MOL0     C81451   7.621   2.408   3.721 -0.0889 -0.1168 -0.0382
  604MOL0     C81452   7.564   2.514   3.792 -0.7276  0.4949  0.4098
  604MOL0     O81453   7.462   2.520   4.088  0.4456 -0.7795  0.1152
  604MOL0     C81454   7.373   2.724   4.271 -0.1410  0.0291 -0.0869
  604MOL0     C81455   7.315   2.833   4.343  0.6933  0.1486  0.2657
  604MOL0     N81456   7.244   3.516   4.644 -0.0187 -0.0404  0.4048
  604MOL0     N81457   7.296   3.635   4.641  0.5082  0.6772  0.1680
  604MOL0     C81458   8.349   3.859   4.243 -0.7280  0.1895 -0.2428
  604MOL0     C81459   8.439   3.752   4.280 -0.5714  0.5235  0.3106
  604MOL0     C81460   8.528   3.356   4.510  0.0117  0.1672  0.6080
  604MOL0     C81461   8.665   3.378   4.531  0.6968 -0.0813  0.8286
  604MOL0     C81462   8.749   3.278   4.582 -0.0531 -0.5904  0.3411
  604MOL0     C81463   8.703   3.157   4.615  0.6786 -0.7067  0.6050
  604MOL0     O81464   8.771   3.052   4.672 -0.3810 -0.3635 -0.2800
  604MOL0     C81465   8.885   3.076   4.753  0.9115 -0.4539  1.1004
  604MOL0     C81466   9.019   3.087   4.674 -0.2113 -0.1078  0.7846
  604MOL0     C81467   9.121   3.176   4.745 -0.2778  0.6648 -0.3668
  604MOL0     C81468   9.152   3.133   4.897  0.8649 -0.0005 -1.0748
  604MOL0     C81469   9.271   3.182   4.959  1.0084  1.0058 -0.1890
  604MOL0     C81470   9.360   3.231   5.007 -0.2881 -0.0340 -0.0682
  604MOL0     C81471   8.569   3.128   4.579 -0.5789 -0.4936 -0.1654
  604MOL0     C81472   8.484   3.230   4.519  0.2542 -0.0996 -1.5053
  604MOL0     H81473   8.339   3.673   4.578 -0.8242 -0.0055  1.4924
  604MOL0     H81474   8.192   3.869   4.545 -1.1812  4.3377 -2.7999
  604MOL0     H81475   8.005   3.958   4.376 -0.3698  0.4720  0.1615
  604MOL0     H81476   8.023   4.104   4.286  1.8879  0.2473 -1.7703
  604MOL0     H81477   8.062   3.938   4.086  0.4729 -4.9516 -1.6283
  604MOL0     H81478   8.052   3.809   4.216  0.1142  0.6804  2.9215
  604MOL0     H81479   7.829   4.019   4.139  2.1045  1.1970 -0.3457
  604MOL0     H81480   7.843   3.859   4.065  2.8208  1.1577 -0.7117
  604MOL0     H81481   7.794   3.744   4.287 -1.5775  0.2646  1.5129
  604MOL0     H81482   7.804   3.902   4.367  1.4558 -1.5982  2.1171
  604MOL0     H81483   7.587   3.959   4.218 -4.3591 -3.8295 -3.4758
  604MOL0     H81484   7.602   3.800   4.159 -1.0794 -1.5923 -0.0039
  604MOL0     H81485   7.578   3.703   4.389 -2.2078  0.5468  1.9919
  604MOL0     H81486   7.578   3.866   4.454 -1.0799  1.0508  0.0309
  604MOL0     H81487   7.390   3.935   4.311 -0.9804 -1.8059 -1.8360
  604MOL0     H81488   7.367   3.766   4.279 -0.0339 -0.3781  0.9834
  604MOL0     H81489   7.225   3.855   4.448 -0.6475 -0.0748  0.9893
  604MOL0     H81490   7.356   3.858   4.556 -0.6209 -3.4861  2.5550
  604MOL0     H81491   7.254   3.581   4.323 -1.7503 -0.2638  0.4322
  604MOL0     H81492   7.025   3.360   4.453  0.6057 -0.8322 -0.9713
  604MOL0     H81493   7.170   3.315   4.369 -1.9253 -1.4041 -0.0665
  604MOL0     H81494   7.128   3.264   4.656  0.2888 -0.1427  0.2947
  604MOL0     H81495   7.250   3.192   4.534 -0.1678  0.1994  1.0277
  604MOL0     H81496   6.959   3.120   4.522 -0.0633 -0.4285 -2.8968
  604MOL0     H81497   7.086   3.031   4.585 -0.0639  1.1746  1.1428
  604MOL0     H81498   7.034   3.126   4.296  2.8778 -1.6507 -3.2368
  604MOL0     H81499   7.051   2.961   4.366  0.2735 -0.7749  0.8842
  604MOL0     H81500   7.276   3.037   4.074  2.8312  0.8704  0.8137
  604MOL0     H81501   7.473   2.916   3.893  0.8279 -1.2045 -0.2043
  604MOL0     H81502   7.363   2.777   3.847  0.4423  0.2421  0.4452
  604MOL0     H81503   7.304   2.942   3.885  3.0456  2.1876 -1.9790
  604MOL0     H81504   7.820   2.591   4.006 -0.4151  1.7183 -0.6106
  604MOL0     H81505   7.936   2.434   3.859  0.1346  2.2440  0.7700
  604MOL0     H81506   7.930   2.423   3.553  1.4669  0.7462  1.7781
  604MOL0     H81507   8.007   2.314   3.664  1.2296  2.2012 -1.6601
  604MOL0     H81508   8.028   2.239   3.418  1.0877 -1.5824  0.2934
  604MOL0     H81509   7.945   2.117   3.519  1.8838  0.1108  0.0957
  604MOL0     H81510   7.824   2.329   3.342 -0.2026 -0.2495 -0.8307
  604MOL0     H81511   7.738   2.205   3.440  0.3889  1.6631  2.9316
  604MOL0     H81512   7.942   2.156   3.214  1.4069  1.6449  3.7331
  604MOL0     H81513   7.863   2.032   3.315 -0.4681 -0.4269  1.1575
  604MOL0     H81514   7.641   2.120   3.216  0.7641  0.4538  1.3021
  604MOL0     H81515   7.741   2.014   3.115  0.6447 -0.3900  2.2032
  604MOL0     H81516   7.745   2.305   3.078 -0.4039  0.4457 -0.1077
  604MOL0     H81517   7.855   2.207   2.992 -0.0346  1.0024  1.4974
  604MOL0     H81518   7.558   2.225   2.974  0.0472 -0.4330 -0.4058
  604MOL0     H81519   7.634   2.079   2.898  1.7260  0.6092 -1.9348
  604MOL0     H81520   7.770   2.231   2.770  2.0357  2.0731  0.2711
  604MOL0     H81521   7.682   2.369   2.825  0.0774 -0.3428  1.3233
  604MOL0     H81522   7.564   2.350   3.650  1.6391 -1.5999 -0.2834
  604MOL0     H81523   7.460   2.531   3.766 -0.5533 -0.6011 -1.1181
  604MOL0     H81524   7.414   2.638   4.322  0.2441  0.5531  0.5081
  604MOL0     H81525   7.284   2.826   4.447 -0.7347  1.6369 -0.0246
  604MOL0     H81526   8.339   3.906   4.146  0.5904  0.8478 -0.0944
  604MOL0     H81527   8.504   3.719   4.199  0.1338  2.1461  0.1689
  604MOL0     H81528   8.701   3.479   4.518 -0.5500  0.7448  3.1812
  604MOL0     H81529   8.852   3.301   4.607 -0.3089  2.1141 -0.7638
  604MOL0     H81530   8.865   3.170   4.804  1.4649 -0.4361  1.2849
  604MOL0     H81531   8.893   2.995   4.827 -1.0884  0.1451  2.0404
  604MOL0     H81532   8.982   3.145   4.589 -0.8523  0.7349  1.6058
  604MOL0     H81533   9.054   2.987   4.647  1.3112  0.7355 -0.5223
  604MOL0     H81534   9.087   3.280   4.738  3.2481  1.8963 -1.3902
  604MOL0     H81535   9.212   3.162   4.685 -1.1411 -2.7256 -1.1017
  604MOL0     H81536   9.156   3.024   4.901 -2.3185 -0.1848  0.9462
  604MOL0     H81537   9.068   3.171   4.956  1.3990  2.2023 -1.6146
  604MOL0     H81538   9.451   3.282   5.029 -0.0315 -0.5377  0.0564
  604MOL0     H81539   8.534   3.027   4.598 -2.9849  0.4185  0.6042
  604MOL0     H81540   8.388   3.192   4.486 -0.0414  0.0201 -0.8026
  605MOL0     O81541   4.076   0.904   0.941  0.0655  0.1255  0.2695
  605MOL0     C81542   4.032   0.962   0.844  0.2420  0.1385 -0.5624
  605MOL0     O81543   3.916   0.946   0.779  0.7278  0.2259 -0.3330
  605MOL0     C81544   3.830   0.841   0.801 -0.8918  0.5524 -0.7877
  605MOL0     C81545   3.783   0.779   0.685  0.1781 -0.0330 -1.0603
  605MOL0     C81546   3.701   0.673   0.699  0.4756  0.1537 -0.5260
  605MOL0     C81547   3.665   0.623   0.823  0.2431 -0.6666  0.6572
  605MOL0     O81548   3.581   0.508   0.820 -0.3176  0.4106  0.6223
  605MOL0     C81549   3.571   0.427   0.943  0.0405 -1.0515  1.0945
  605MOL0     C81550   3.467   0.322   0.920  0.1797  0.1856 -0.8477
  605MOL0     C81551   3.491   0.209   1.027 -0.7885  0.3341 -0.1328
  605MOL0     C81552   3.359   0.169   1.100  0.4445  0.7521 -0.2759
  605MOL0     C81553   3.388   0.090   1.231  0.8295 -0.1099 -0.1079
  605MOL0     C81554   3.281   0.112   1.335  0.0114 -0.6005 -0.9103
  605MOL0     C81555   3.304   0.241   1.414 -1.8005  0.8046  0.5823
  605MOL0     C81556   3.206   0.350   1.402 -0.5970  0.3511  0.0394
  605MOL0     N81557   3.258   0.483   1.436  0.7365  0.2438  0.6608
  605MOL0     C81558   3.376   0.537   1.386 -0.3697  0.1220  0.3665
  605MOL0     C81559   3.392   0.654   1.460  0.8974  0.2426 -0.1594
  605MOL0     C81560   3.491   0.761   1.446  0.1153 -0.2834 -0.3409
  605MOL0     C81561   3.628   0.726   1.406  0.3918 -0.7144 -0.1130
  605MOL0     C81562   3.747   0.808   1.462 -0.2973 -0.1279 -0.8625
  605MOL0     C81563   3.750   0.817   1.615 -0.0828  0.0027  0.1122
  605MOL0     O81564   3.868   0.881   1.669 -0.6390  0.6798 -0.3667
  605MOL0     C81565   3.998   0.836   1.651  0.6242 -0.1625  0.2945
  605MOL0     C81566   4.047   0.701   1.658 -0.0352 -0.5411 -0.1415
  605MOL0     C81567   4.173   0.671   1.615 -1.4579  0.2069  1.1448
  605MOL0     C81568   4.210   0.518   1.610 -0.2546  0.2608  0.1395
  605MOL0     C81569   4.261   0.777   1.576  0.7165 -0.0151  1.0504
  605MOL0     C81570   4.399   0.761   1.537  0.0843  0.2276 -0.9469
  605MOL0     O81571   4.443   0.853   1.440 -0.0536  0.3638  0.5817
  605MOL0     C81572   4.570   0.895   1.453  0.5412  0.4405  0.7835
  605MOL0     C81573   4.615   0.999   1.536  0.6257 -1.0494 -1.0502
  605MOL0     C81574   4.750   1.053   1.523 -0.0174  0.6955 -0.2035
  605MOL0     C81575   4.841   0.994   1.431  0.5074 -0.4785  1.0065
  605MOL0     O81576   4.972   1.042   1.400  0.4240 -0.3127 -0.4212
  605MOL0     C81577   5.046   1.102   1.511 -0.1473  0.7955 -0.3177
  605MOL0     C81578   5.198   1.115   1.499 -0.7471 -0.1420  0.8046
  605MOL0     C81579   5.219   1.206   1.379  0.3653  0.4321 -0.2376
  605MOL0     C81580   5.372   1.199   1.355  0.2666 -0.0259  0.5797
  605MOL0     C81581   5.414   1.239   1.215 -0.3264 -0.6161 -0.0276
  605MOL0     C81582   5.360   1.380   1.169 -1.3332 -0.1073 -0.1205
  605MOL0     C81583   5.409   1.415   1.028 -0.1400 -0.3825  0.7252
  605MOL0     C81584   5.547   1.486   1.042 -1.0634  0.6201  0.3879
  605MOL0    Cl81585   5.567   1.632   0.945  0.0196  0.1784 -0.3306
  605MOL0     C81586   4.792   0.886   1.356  0.2390 -0.5412  0.4169
  605MOL0     C81587   4.664   0.838   1.368 -1.0572  0.4941  0.3045
  605MOL0     O81588   4.479   0.685   1.602  0.8439 -0.1545  0.2386
  605MOL0     C81589   4.213   0.908   1.577  0.1564  0.1204 -0.5641
  605MOL0     C81590   4.081   0.936   1.613  0.2920  0.1097 -0.8660
  605MOL0     N81591   3.293   0.656   1.551 -0.7306  0.2098  0.8508
  605MOL0     N81592   3.204   0.566   1.535  0.5225 -0.9833  0.1026
  605MOL0     C81593   3.716   0.680   0.938 -1.2720  0.0588  0.2368
  605MOL0     C81594   3.795   0.797   0.928 -0.3811  0.4173  0.3986
  605MOL0     C81595   4.118   1.050   0.769 -0.5884 -0.7196 -0.7756
  605MOL0     C81596   4.227   1.111   0.841 -0.1054  0.5312 -0.2823
  605MOL0     C81597   4.315   1.197   0.770  0.0227 -0.3948  0.1877
  605MOL0     C81598   4.299   1.222   0.636 -0.2351 -0.2755  0.2251
  605MOL0     O81599   4.383   1.316   0.579  0.0938  0.2451 -0.2731
  605MOL0     C81600   4.426   1.298   0.440 -0.0839  0.8208 -0.6026
  605MOL0     C81601   4.531   1.408   0.412  0.9256  0.4520 -0.1992
  605MOL0     C81602   4.597   1.406   0.269 -0.4604  0.2900 -0.3045
  605MOL0     C81603   4.661   1.278   0.232 -0.9301  0.2698  0.1008
  605MOL0     C81604   4.580   1.174   0.190  0.4133  0.3141 -0.6900
  605MOL0     C81605   4.519   1.084   0.156  0.3390  0.1586  0.7597
  605MOL0     C81606   4.190   1.166   0.567 -0.1250  1.2165 -0.2975
  605MOL0     C81607   4.110   1.071   0.628 -0.2617 -0.9580 -0.7280
  605MOL0     H81608   3.831   0.811   0.593  0.8705 -1.9261 -1.3857
  605MOL0     H81609   3.644   0.635   0.615 -1.0352  0.9726  0.0856
  605MOL0     H81610   3.675   0.411   0.972  0.9793  2.8718  0.4198
  605MOL0     H81611   3.523   0.478   1.026 -2.7431 -0.0367 -0.9790
  605MOL0     H81612   3.368   0.365   0.939  0.9698  0.6169  2.9866
  605MOL0     H81613   3.476   0.274   0.822 -0.6393 -0.4928 -0.6010
  605MOL0     H81614   3.535   0.126   0.972  2.5004  1.2809  0.8467
  605MOL0     H81615   3.576   0.234   1.091  0.0499 -1.5326 -0.4679
  605MOL0     H81616   3.302   0.262   1.111 -1.4098 -0.2348 -0.9378
  605MOL0     H81617   3.294   0.110   1.034  1.7813 -2.5949  1.1961
  605MOL0     H81618   3.388  -0.013   1.195 -1.2728  0.4409 -1.9261
  605MOL0     H81619   3.483   0.123   1.272 -0.8086  3.2581  1.3916
  605MOL0     H81620   3.194   0.126   1.271 -0.6645 -0.2170  0.0689
  605MOL0     H81621   3.273   0.029   1.406  2.5229 -1.2954 -1.3216
  605MOL0     H81622   3.321   0.211   1.517 -1.8157 -0.7985  0.1437
  605MOL0     H81623   3.399   0.286   1.384 -2.1716  1.2016 -0.0278
  605MOL0     H81624   3.121   0.325   1.467 -2.6223  1.8506 -1.8697
  605MOL0     H81625   3.170   0.354   1.299 -0.7102  3.2253  0.0841
  605MOL0     H81626   3.434   0.504   1.301  1.5264  4.2380 -0.1658
  605MOL0     H81627   3.448   0.836   1.379 -3.0232  0.0465  1.8219
  605MOL0     H81628   3.493   0.808   1.545  1.9455 -1.3051  0.1466
  605MOL0     H81629   3.635   0.737   1.297 -0.5316  1.5202 -0.0033
  605MOL0     H81630   3.650   0.624   1.439  0.8234 -0.0565  1.7672
  605MOL0     H81631   3.763   0.911   1.431 -0.1928 -0.0333 -0.4991
  605MOL0     H81632   3.841   0.762   1.430  0.6102  1.3035 -0.3563
  605MOL0     H81633   3.729   0.722   1.666  3.8344 -0.4503  1.1737
  605MOL0     H81634   3.657   0.869   1.637 -2.0726 -1.7725 -3.1634
  605MOL0     H81635   3.977   0.621   1.679  0.4370 -0.9135  0.0475
  605MOL0     H81636   4.171   0.481   1.514  1.7473  2.1535 -1.5020
  605MOL0     H81637   4.318   0.509   1.619  0.2703  4.8565  0.5744
  605MOL0     H81638   4.153   0.465   1.686  3.1516  0.4761  3.0779
  605MOL0     H81639   4.545   1.040   1.609  2.2812 -2.5423  1.5476
  605MOL0     H81640   4.778   1.141   1.579  0.3954  1.6432 -1.8262
  605MOL0     H81641   5.012   1.204   1.530 -0.1651  0.4677  1.5990
  605MOL0     H81642   5.029   1.044   1.603  2.3701 -0.2750 -0.4555
  605MOL0     H81643   5.244   1.158   1.588  0.2207 -1.7363  1.1135
  605MOL0     H81644   5.246   1.018   1.481 -0.6058  0.3104 -1.5951
  605MOL0     H81645   5.188   1.309   1.396 -0.6534 -0.0213  0.8210
  605MOL0     H81646   5.156   1.172   1.296 -2.0306 -0.3037  1.7567
  605MOL0     H81647   5.430   1.254   1.431 -0.1865  1.6315 -0.2175
  605MOL0     H81648   5.403   1.095   1.365  0.3628 -0.1302 -0.6786
  605MOL0     H81649   5.369   1.168   1.146 -1.4416  2.0335 -2.2458
  605MOL0     H81650   5.523   1.251   1.205  0.0480 -2.5846  1.1974
  605MOL0     H81651   5.251   1.365   1.164 -1.4551 -0.0590  1.6775
  605MOL0     H81652   5.392   1.455   1.242  0.1742 -2.5052  1.8313
  605MOL0     H81653   5.338   1.469   0.965  0.2329  4.4075  3.8614
  605MOL0     H81654   5.431   1.317   0.985 -2.0292  0.5741 -2.7141
  605MOL0     H81655   5.625   1.420   1.004  0.5519  2.7442 -0.1647
  605MOL0     H81656   5.578   1.513   1.144  2.0225  1.8086 -0.7657
  605MOL0     H81657   4.846   0.846   1.271 -3.5108 -2.1893 -1.4225
  605MOL0     H81658   4.636   0.757   1.301 -2.5948  1.1298  0.1458
  605MOL0     H81659   4.274   0.990   1.541  1.4194 -1.3864 -1.9990
  605MOL0     H81660   4.043   1.038   1.607  2.6429  1.0126 -1.9417
  605MOL0     H81661   3.685   0.652   1.038  0.1721 -2.3120  0.0855
  605MOL0     H81662   3.844   0.831   1.019 -0.0704 -0.5922  0.6303
  605MOL0     H81663   4.239   1.097   0.948 -1.3904  2.4357  0.1643
  605MOL0     H81664   4.393   1.253   0.821 -1.5959  2.1731 -0.0376
  605MOL0     H81665   4.475   1.201   0.428 -2.2486 -0.4498  0.1953
  605MOL0     H81666   4.348   1.307   0.364  1.9282 -1.5060 -3.1226
  605MOL0     H81667   4.608   1.395   0.489  3.1768  0.7364 -2.2680
  605MOL0     H81668   4.492   1.510   0.422  0.2423  0.1009  0.8036
  605MOL0     H81669   4.668   1.488   0.275 -0.4493  0.1942  1.2836
  605MOL0     H81670   4.526   1.437   0.192  0.7032 -2.9212 -2.9012
  605MOL0     H81671   4.708   1.248   0.327 -2.0124  0.5284  0.7344
  605MOL0     H81672   4.745   1.285   0.162 -1.6183 -1.8883 -1.0483
  605MOL0     H81673   4.466   0.995   0.128  0.5037 -0.4374  2.2419
  605MOL0     H81674   4.182   1.195   0.463 -1.4403 -1.4286 -1.0079
  605MOL0     H81675   4.022   1.032   0.578 -1.0801  1.5396 -1.3748
  606MOL0     O81676   2.808   1.708   5.524  0.3782 -0.0430  0.2038
  606MOL0     C81677   2.751   1.634   5.601 -0.0192 -0.1530 -0.1450
  606MOL0     O81678   2.611   1.644   5.630  0.1574 -0.0281  0.2616
  606MOL0     C81679   2.530   1.742   5.585  0.3125 -0.1597  0.2647
  606MOL0     C81680   2.555   1.879   5.551  0.2898  0.0083 -0.3407
  606MOL0     C81681   2.452   1.957   5.503 -0.0171 -0.0528 -0.1893
  606MOL0     C81682   2.326   1.911   5.474 -0.0444 -0.7211  0.9667
  606MOL0     O81683   2.216   1.996   5.436  0.8654  0.2192 -0.0189
  606MOL0     C81684   2.252   2.136   5.412 -0.5355 -0.4676  0.0890
  606MOL0     C81685   2.132   2.232   5.399 -0.4120 -0.0284  0.8517
  606MOL0     C81686   2.021   2.177   5.293 -0.6637 -0.5372  0.6240
  606MOL0     C81687   1.926   2.288   5.260 -1.0889 -0.5358 -0.0363
  606MOL0     C81688   1.812   2.246   5.166 -0.1793 -0.5860  0.2992
  606MOL0     C81689   1.719   2.363   5.134  0.0710  1.1046 -0.6198
  606MOL0     C81690   1.665   2.448   5.251 -0.3940 -0.7730  0.8604
  606MOL0     C81691   1.545   2.537   5.218  0.2109  0.2822 -0.3795
  606MOL0     N81692   1.577   2.682   5.194 -0.3245  0.3266  0.2672
  606MOL0     C81693   1.571   2.777   5.288  0.3863  0.8174 -0.0630
  606MOL0     C81694   1.589   2.897   5.229 -0.6315 -0.2979 -0.1655
  606MOL0     C81695   1.598   3.014   5.321  0.4649  0.1107  0.2590
  606MOL0     C81696   1.470   3.099   5.310 -0.2684 -0.1392  0.1011
  606MOL0     C81697   1.464   3.215   5.400 -0.1067 -0.3416 -0.8265
  606MOL0     C81698   1.438   3.192   5.555 -0.9906  1.0812  0.2057
  606MOL0     O81699   1.563   3.145   5.612  0.3167  0.1390  1.0518
  606MOL0     C81700   1.562   3.105   5.740 -1.0561  0.2413 -0.9396
  606MOL0     C81701   1.669   3.013   5.773  0.2053  0.0207 -0.0872
  606MOL0     C81702   1.668   2.946   5.896  0.1873 -0.4795 -0.1472
  606MOL0     C81703   1.756   2.824   5.892  0.2957  0.1521 -0.8630
  606MOL0     C81704   1.570   2.973   5.994  0.7536 -0.1428  0.4849
  606MOL0     C81705   1.582   2.921   6.128 -0.1197 -0.2215  0.2312
  606MOL0     O81706   1.470   2.910   6.204 -0.7028  0.5324 -0.8591
  606MOL0     C81707   1.500   2.879   6.336  0.2572 -0.0321  0.3539
  606MOL0     C81708   1.506   2.753   6.387 -0.3653  0.4009  0.4250
  606MOL0     C81709   1.558   2.733   6.521  0.4460  0.2091 -0.4181
  606MOL0     C81710   1.602   2.838   6.596  0.5055 -0.2375 -1.6765
  606MOL0     O81711   1.653   2.812   6.721  0.0605  0.0759 -0.3824
  606MOL0     C81712   1.571   2.726   6.806  0.5127 -0.5249  0.8824
  606MOL0     C81713   1.660   2.649   6.902  0.4054 -1.3605 -0.5434
  606MOL0     C81714   1.572   2.557   6.998  0.7335  0.7486  0.0102
  606MOL0     C81715   1.655   2.442   7.053  0.0520  0.1726 -0.0778
  606MOL0     C81716   1.789   2.491   7.120 -0.8055 -0.3409 -0.0693
  606MOL0     C81717   1.871   2.386   7.190 -1.1567 -0.9158  0.6411
  606MOL0     C81718   1.813   2.343   7.321  0.3037  0.8789 -0.0059
  606MOL0     C81719   1.884   2.222   7.384 -0.4347  0.9369  0.0492
  606MOL0    Cl81720   1.809   2.080   7.325  0.0260  0.0331 -0.2492
  606MOL0     C81721   1.592   2.965   6.551 -0.2504 -0.3397 -0.3320
  606MOL0     C81722   1.547   2.983   6.414  0.4220 -0.4779 -0.1955
  606MOL0     O81723   1.698   2.892   6.165 -0.3876  0.2929  0.1160
  606MOL0     C81724   1.474   3.063   5.967 -0.0045 -0.6457  0.2874
  606MOL0     C81725   1.466   3.128   5.841 -0.0224 -0.9606  0.8197
  606MOL0     N81726   1.602   2.876   5.089 -0.7567  0.8560 -0.7228
  606MOL0     N81727   1.601   2.744   5.074 -0.4026 -0.1076  0.7217
  606MOL0     C81728   2.296   1.776   5.505  0.8904 -0.8489  0.3099
  606MOL0     C81729   2.393   1.699   5.567 -0.3078 -0.1686  0.3365
  606MOL0     C81730   2.837   1.528   5.663 -0.3394  0.4957  0.0085
  606MOL0     C81731   2.973   1.547   5.681 -0.2330 -0.0234 -1.1821
  606MOL0     C81732   3.053   1.468   5.761  0.1222 -0.5985  0.9591
  606MOL0     C81733   2.994   1.359   5.823 -0.0246  0.5868  0.5137
  606MOL0     O81734   3.064   1.276   5.907  1.3001  0.4741  0.4867
  606MOL0     C81735   3.148   1.182   5.846 -1.1975  0.3321  0.4453
  606MOL0     C81736   3.104   1.040   5.851 -0.3734  0.0940 -0.2743
  606MOL0     C81737   3.101   0.977   5.984 -0.1115 -0.0544 -0.6250
  606MOL0     C81738   3.007   0.849   5.985  0.0352 -0.2175 -1.0100
  606MOL0     C81739   3.054   0.754   5.886  0.9257  0.3616  0.0079
  606MOL0     C81740   3.103   0.681   5.805  0.5726  0.1256 -0.1943
  606MOL0     C81741   2.854   1.336   5.795  0.1462  0.5888  0.1588
  606MOL0     C81742   2.776   1.417   5.715 -0.2884 -0.6340 -0.1310
  606MOL0     H81743   2.655   1.920   5.552  0.9099 -1.4505  0.3629
  606MOL0     H81744   2.478   2.062   5.502 -0.1568  0.0969  2.7811
  606MOL0     H81745   2.303   2.174   5.501 -0.5924 -4.4663  2.0759
  606MOL0     H81746   2.308   2.132   5.318 -2.3146 -2.1507 -0.9766
  606MOL0     H81747   2.097   2.235   5.503  2.3353 -1.1559  1.9113
  606MOL0     H81748   2.159   2.332   5.364 -2.5333 -0.2157 -1.5735
  606MOL0     H81749   2.072   2.139   5.204 -0.2928  1.0293  0.1429
  606MOL0     H81750   1.973   2.089   5.338 -1.9981  0.2400  0.7567
  606MOL0     H81751   1.882   2.323   5.353 -0.7723  2.6635 -0.9891
  606MOL0     H81752   1.980   2.374   5.221  3.9781 -3.3985 -0.2457
  606MOL0     H81753   1.853   2.188   5.083  0.5485 -0.3010  0.4511
  606MOL0     H81754   1.763   2.171   5.229 -0.7968 -0.7164 -0.3199
  606MOL0     H81755   1.770   2.432   5.066  1.3252  2.0433  1.2061
  606MOL0     H81756   1.628   2.331   5.082 -0.8420 -0.4772  1.7885
  606MOL0     H81757   1.640   2.381   5.334  4.8925 -1.5993  2.1366
  606MOL0     H81758   1.746   2.503   5.298 -0.4689  1.1090 -1.0614
  606MOL0     H81759   1.480   2.525   5.305  0.6146 -0.9765 -0.2279
  606MOL0     H81760   1.491   2.497   5.132 -0.8734  1.7010 -0.3953
  606MOL0     H81761   1.554   2.747   5.391  1.2295 -0.8410 -0.3680
  606MOL0     H81762   1.598   2.971   5.422  1.5272  3.8278  2.0124
  606MOL0     H81763   1.683   3.081   5.305 -0.4449  1.2961  0.2910
  606MOL0     H81764   1.379   3.040   5.325  0.5865 -2.0095 -1.5954
  606MOL0     H81765   1.477   3.119   5.202  0.6894 -5.5518 -1.1357
  606MOL0     H81766   1.376   3.274   5.372 -0.4092 -0.3132  0.1354
  606MOL0     H81767   1.554   3.275   5.385 -0.6479  1.6754  2.6669
  606MOL0     H81768   1.366   3.110   5.567 -0.4287  0.7122  1.1589
  606MOL0     H81769   1.402   3.274   5.618  2.0828  0.5246  2.9338
  606MOL0     H81770   1.746   3.001   5.698  3.8222 -1.1386  3.4813
  606MOL0     H81771   1.759   2.782   5.791 -2.1086  0.5942 -1.1964
  606MOL0     H81772   1.853   2.847   5.935 -0.6350 -0.2083  1.6109
  606MOL0     H81773   1.707   2.751   5.958 -1.1389  2.3059  0.5807
  606MOL0     H81774   1.490   2.662   6.328 -0.8991  1.4537 -1.1236
  606MOL0     H81775   1.574   2.631   6.552 -1.1398  0.1856  0.4531
  606MOL0     H81776   1.493   2.781   6.860  1.0498 -0.3188  1.4547
  606MOL0     H81777   1.504   2.654   6.757 -3.5381  3.6398 -0.3933
  606MOL0     H81778   1.727   2.584   6.846  2.7955 -0.2105  0.8246
  606MOL0     H81779   1.723   2.712   6.966  1.3051 -1.7545 -1.0279
  606MOL0     H81780   1.486   2.511   6.949  0.5920  0.4782  0.5076
  606MOL0     H81781   1.537   2.615   7.084 -1.0362 -1.3809  0.8025
  606MOL0     H81782   1.598   2.402   7.138  0.3955  0.9420  0.5287
  606MOL0     H81783   1.668   2.363   6.978  0.4033 -2.0162  2.1518
  606MOL0     H81784   1.768   2.578   7.183  1.5699  0.4692 -0.2981
  606MOL0     H81785   1.855   2.516   7.036  1.9355 -1.3694  1.6091
  606MOL0     H81786   1.870   2.303   7.118  0.5435 -0.5163  0.1129
  606MOL0     H81787   1.974   2.418   7.210 -0.4099 -0.4625 -3.0662
  606MOL0     H81788   1.712   2.303   7.308  1.7393 -4.2424  2.1574
  606MOL0     H81789   1.807   2.428   7.391 -0.7226 -0.1203  1.1791
  606MOL0     H81790   1.882   2.223   7.493  1.6330 -0.0898  0.1479
  606MOL0     H81791   1.988   2.212   7.350 -0.1910 -0.1852  1.0590
  606MOL0     H81792   1.622   3.052   6.607 -1.7397  0.5108 -0.7932
  606MOL0     H81793   1.531   3.077   6.362  0.0454  1.2212  2.7650
  606MOL0     H81794   1.396   3.102   6.031 -0.5557  3.1307 -2.3764
  606MOL0     H81795   1.390   3.203   5.827  0.4253  0.4310  4.5987
  606MOL0     H81796   2.194   1.746   5.483 -0.8090  2.4275  2.8149
  606MOL0     H81797   2.363   1.598   5.594  0.4263 -0.4607  0.0751
  606MOL0     H81798   3.009   1.644   5.648  1.6958 -0.3085 -0.0324
  606MOL0     H81799   3.155   1.497   5.786  0.4976 -0.9171 -0.1309
  606MOL0     H81800   3.171   1.206   5.742 -0.3924  2.6293  1.0960
  606MOL0     H81801   3.240   1.193   5.904 -2.3099  3.1468  1.8822
  606MOL0     H81802   3.169   0.982   5.786  0.2704  0.9260 -0.3965
  606MOL0     H81803   3.003   1.036   5.809 -0.3231 -4.6233 -0.4227
  606MOL0     H81804   3.064   1.039   6.067  2.4883 -0.3390  0.8559
  606MOL0     H81805   3.205   0.951   6.007 -0.2005  1.0897  1.3602
  606MOL0     H81806   2.906   0.880   5.957  0.5386  0.9639 -1.5783
  606MOL0     H81807   3.012   0.802   6.083  3.4685  1.6597 -0.1197
  606MOL0     H81808   3.150   0.612   5.738  0.5355  0.6589 -0.7727
  606MOL0     H81809   2.803   1.254   5.844 -1.9168 -1.2356 -4.4965
  606MOL0     H81810   2.669   1.400   5.717 -0.3051 -0.5790  1.9650
  607MOL0     O81811   6.864   2.296   0.005 -0.5035 -0.2433 -0.0062
  607MOL0     C81812   6.821   2.354   0.100 -0.4267 -0.2944 -0.5388
  607MOL0     O81813   6.714   2.309   0.181  1.1306 -0.1412  1.2920
  607MOL0     C81814   6.607   2.238   0.121  0.1964 -0.2193  0.0966
  607MOL0     C81815   6.576   2.226  -0.021 -0.0470  0.4876 -0.5939
  607MOL0     C81816   6.460   2.162  -0.059 -0.9467 -0.2064 -0.0624
  607MOL0     C81817   6.384   2.094   0.021  0.3527 -0.3711  1.0358
  607MOL0     O81818   6.276   2.044  -0.033 -0.2116  0.2535  0.5267
  607MOL0     C81819   6.146   2.011   0.019  0.1965  0.4957  0.0528
  607MOL0     C81820   6.068   1.903  -0.058 -0.0732 -0.1940 -0.2739
  607MOL0     C81821   5.930   1.869  -0.003 -0.6595  0.4833  0.7257
  607MOL0     C81822   5.862   1.783  -0.108 -0.2460 -0.4117 -0.4792
  607MOL0     C81823   5.724   1.738  -0.057 -0.2661  0.4240 -0.2229
  607MOL0     C81824   5.634   1.687  -0.167 -0.2772 -0.3714  0.5295
  607MOL0     C81825   5.519   1.614  -0.106 -0.0022 -0.4125 -0.0496
  607MOL0     C81826   5.436   1.704  -0.026  0.1732 -0.2936  0.2482
  607MOL0     N81827   5.302   1.656  -0.005  1.1197  0.1672 -0.1202
  607MOL0     C81828   5.250   1.531   0.006  0.4051 -0.0030 -0.0805
  607MOL0     C81829   5.113   1.551  -0.003  0.5362  0.3044 -0.3675
  607MOL0     C81830   5.006   1.455   0.006  0.2328  0.6897 -0.3884
  607MOL0     C81831   4.896   1.448  -0.100  0.2823  0.2828  1.2930
  607MOL0     C81832   4.970   1.396  -0.233  0.2902  0.2135 -0.3195
  607MOL0     C81833   4.877   1.416  -0.351 -0.4801 -0.0406 -1.1606
  607MOL0     O81834   4.841   1.548  -0.380  0.5595  0.3334  0.0901
  607MOL0     C81835   4.778   1.580  -0.496 -1.1130 -0.3901 -0.0344
  607MOL0     C81836   4.701   1.488  -0.563 -0.1070 -0.3542  0.0756
  607MOL0     C81837   4.627   1.526  -0.673 -0.6658  0.5772 -0.2763
  607MOL0     C81838   4.540   1.419  -0.748  0.2077  1.0123  0.3595
  607MOL0     C81839   4.610   1.665  -0.702 -0.4971  0.3387  0.9488
  607MOL0     C81840   4.523   1.706  -0.815  0.2954  0.5340  0.2008
  607MOL0     O81841   4.525   1.638  -0.930 -0.3067  0.8130  0.1303
  607MOL0     C81842   4.468   1.684  -1.039  0.2052  0.2666  0.0139
  607MOL0     C81843   4.546   1.723  -1.145  0.4103 -0.4662  0.3239
  607MOL0     C81844   4.484   1.765  -1.269  0.3992  0.2058 -0.7597
  607MOL0     C81845   4.349   1.754  -1.288 -0.4031  0.6215  0.0663
  607MOL0     O81846   4.311   1.771  -1.416 -0.1836  0.3412  0.0750
  607MOL0     C81847   4.171   1.783  -1.446  0.5168 -0.3070 -0.3097
  607MOL0     C81848   4.110   1.922  -1.409  0.4685  0.1624  0.1324
  607MOL0     C81849   3.958   1.945  -1.435  0.3716 -0.2624  1.0449
  607MOL0     C81850   3.927   2.093  -1.442 -0.3293 -0.3212  0.1866
  607MOL0     C81851   3.789   2.128  -1.489 -0.1258 -0.3356 -0.5908
  607MOL0     C81852   3.788   2.265  -1.562 -0.3787 -0.9032  0.9436
  607MOL0     C81853   3.747   2.378  -1.474  0.4953  0.3683  0.6897
  607MOL0     C81854   3.591   2.381  -1.461  0.3563  0.2717  0.1084
  607MOL0    Cl81855   3.500   2.420  -1.608  0.2911  0.0175 -0.2168
  607MOL0     C81856   4.272   1.719  -1.174 -0.1159  0.2819 -0.1934
  607MOL0     C81857   4.327   1.687  -1.055 -1.3402 -0.7228 -0.6040
  607MOL0     O81858   4.462   1.810  -0.799 -0.1077  0.7038 -0.2646
  607MOL0     C81859   4.692   1.762  -0.640 -0.9796  0.5518  0.2550
  607MOL0     C81860   4.766   1.717  -0.524  0.6156 -0.1408  0.3448
  607MOL0     N81861   5.089   1.687  -0.018 -0.4495 -0.2449 -0.1836
  607MOL0     N81862   5.197   1.742  -0.024 -0.7591 -0.7604 -0.0669
  607MOL0     C81863   6.409   2.098   0.159  0.5546 -0.0863  0.9110
  607MOL0     C81864   6.526   2.162   0.209 -0.1119  0.0518 -0.3642
  607MOL0     C81865   6.890   2.469   0.148 -0.7811 -0.0341 -0.9610
  607MOL0     C81866   6.995   2.538   0.082  0.2274  0.1147 -0.0564
  607MOL0     C81867   7.058   2.653   0.138 -0.3119  1.4824 -0.2347
  607MOL0     C81868   7.034   2.688   0.270  1.1086  0.4442  0.2413
  607MOL0     O81869   7.107   2.792   0.325 -0.9839  0.2875 -0.1269
  607MOL0     C81870   7.059   2.881   0.428  0.3340 -0.6434 -0.4267
  607MOL0     C81871   7.007   3.023   0.373  0.0712 -0.2246 -0.1292
  607MOL0     C81872   6.888   3.015   0.283  0.2776 -0.4078 -0.1636
  607MOL0     C81873   6.857   3.157   0.223  0.0717  1.3168  0.4551
  607MOL0     C81874   6.821   3.263   0.324  0.3195 -0.1052 -0.2480
  607MOL0     C81875   6.784   3.356   0.393  0.2415  0.4217  0.4013
  607MOL0     C81876   6.936   2.612   0.335  0.1820 -0.2499 -0.0842
  607MOL0     C81877   6.869   2.506   0.279  0.5497 -0.1208 -0.1806
  607MOL0     H81878   6.642   2.265  -0.098 -0.8648 -0.5258 -1.8578
  607MOL0     H81879   6.440   2.158  -0.166  1.4137  0.4043 -0.5887
  607MOL0     H81880   6.150   1.976   0.122 -1.1249 -0.8845 -0.3211
  607MOL0     H81881   6.082   2.100   0.025 -0.6245  0.0455 -1.4311
  607MOL0     H81882   6.061   1.938  -0.161 -0.8460 -1.2650 -0.5928
  607MOL0     H81883   6.133   1.816  -0.071  1.7089  1.1191 -0.7216
  607MOL0     H81884   5.934   1.800   0.081 -1.7391 -0.0483  0.3495
  607MOL0     H81885   5.870   1.957   0.022 -2.4923 -1.0487  1.9718
  607MOL0     H81886   5.848   1.838  -0.202  1.4333 -0.0131 -0.5291
  607MOL0     H81887   5.924   1.698  -0.135  0.6809  0.6119 -1.6396
  607MOL0     H81888   5.744   1.656   0.013 -1.0431  0.9086  0.5884
  607MOL0     H81889   5.674   1.804   0.015 -1.5583 -0.6482 -0.1144
  607MOL0     H81890   5.599   1.765  -0.235  2.8280 -0.6410 -1.5763
  607MOL0     H81891   5.685   1.613  -0.230 -0.7961  0.4145 -0.8481
  607MOL0     H81892   5.458   1.565  -0.182 -1.1264 -0.5498  0.9088
  607MOL0     H81893   5.554   1.544  -0.030  1.6762  0.1153 -0.3101
  607MOL0     H81894   5.428   1.804  -0.069 -2.0905  0.3436  1.9563
  607MOL0     H81895   5.469   1.717   0.078  1.5168 -4.4806  0.5340
  607MOL0     H81896   5.304   1.437   0.014 -0.2760 -0.2414  3.1900
  607MOL0     H81897   5.048   1.355   0.022 -2.8304 -0.3742  1.9710
  607MOL0     H81898   4.955   1.477   0.100 -0.9688  0.9485 -1.0740
  607MOL0     H81899   4.854   1.548  -0.117  3.5308  1.4346 -1.1318
  607MOL0     H81900   4.813   1.390  -0.059 -1.7464  0.2994 -2.3320
  607MOL0     H81901   4.999   1.291  -0.222  2.0847  0.7148  0.1230
  607MOL0     H81902   5.052   1.468  -0.233 -0.4434  1.0648  0.4788
  607MOL0     H81903   4.788   1.358  -0.323 -1.4003  0.3567 -3.0718
  607MOL0     H81904   4.922   1.372  -0.441 -1.3752 -1.5601 -0.9128
  607MOL0     H81905   4.694   1.382  -0.540 -1.3227  0.2612  3.0956
  607MOL0     H81906   4.449   1.455  -0.797 -1.9190 -4.5594 -0.5778
  607MOL0     H81907   4.594   1.380  -0.834  0.2964 -2.1786  1.7044
  607MOL0     H81908   4.504   1.334  -0.688 -0.2004  0.1966 -1.0036
  607MOL0     H81909   4.654   1.729  -1.141  1.0671 -1.9699 -5.8738
  607MOL0     H81910   4.557   1.787  -1.346 -0.5809  3.4607 -0.8839
  607MOL0     H81911   4.164   1.766  -1.554  1.1698 -1.8755 -0.1356
  607MOL0     H81912   4.122   1.700  -1.395  0.0644  0.2848  0.2301
  607MOL0     H81913   4.115   1.938  -1.301 -2.6376 -1.0328  0.5848
  607MOL0     H81914   4.159   2.005  -1.460 -0.6478  0.9707  0.3278
  607MOL0     H81915   3.894   1.882  -1.372 -2.6048 -1.0374 -2.3616
  607MOL0     H81916   3.948   1.905  -1.537  0.8115 -0.5719  1.1233
  607MOL0     H81917   3.937   2.137  -1.342 -0.1621 -0.7436  0.3564
  607MOL0     H81918   3.992   2.145  -1.513 -1.0697  0.2820 -0.0598
  607MOL0     H81919   3.720   2.123  -1.404  0.7785 -0.1001  0.1725
  607MOL0     H81920   3.762   2.051  -1.562  1.3938  0.4600 -2.0343
  607MOL0     H81921   3.886   2.282  -1.608 -1.2866 -2.0428 -1.5600
  607MOL0     H81922   3.720   2.262  -1.647  0.0821 -0.1035  0.5436
  607MOL0     H81923   3.775   2.470  -1.527 -0.7503  0.9605  1.0352
  607MOL0     H81924   3.795   2.370  -1.376 -2.6323 -2.4795  2.1774
  607MOL0     H81925   3.554   2.452  -1.386 -3.9779 -1.0489 -0.4846
  607MOL0     H81926   3.551   2.286  -1.424  0.1450  0.2241 -0.2444
  607MOL0     H81927   4.165   1.708  -1.177  0.0310 -1.3839 -0.6973
  607MOL0     H81928   4.282   1.662  -0.960 -0.8944  2.0462  0.4268
  607MOL0     H81929   4.694   1.863  -0.678 -0.6890  0.5546  0.2749
  607MOL0     H81930   4.827   1.785  -0.465 -0.1799 -0.6717  1.8420
  607MOL0     H81931   6.338   2.057   0.230 -1.7261 -0.4320 -1.4311
  607MOL0     H81932   6.542   2.184   0.314 -1.2200 -1.7828  0.2298
  607MOL0     H81933   7.031   2.502  -0.015  0.4265  0.7310 -0.2152
  607MOL0     H81934   7.141   2.700   0.086  0.2709  2.2144  1.3140
  607MOL0     H81935   6.975   2.838   0.482  0.4515  0.5796  0.7773
  607MOL0     H81936   7.145   2.894   0.495 -0.8386  1.7346  0.7288
  607MOL0     H81937   7.092   3.069   0.322  1.5715  0.4320  2.7568
  607MOL0     H81938   6.993   3.097   0.453  0.6237 -0.4883  0.2165
  607MOL0     H81939   6.808   2.968   0.341  0.8996 -0.2299  0.8591
  607MOL0     H81940   6.906   2.943   0.203 -0.2991 -1.3865  0.5605
  607MOL0     H81941   6.775   3.154   0.151  1.0011 -0.8330 -0.6054
  607MOL0     H81942   6.948   3.191   0.173 -0.2537  1.0056 -0.3562
  607MOL0     H81943   6.759   3.439   0.457 -0.4681 -0.1336  0.8703
  607MOL0     H81944   6.926   2.617   0.443 -1.9856  2.2450 -0.3052
  607MOL0     H81945   6.798   2.462   0.347 -0.0380  1.6572  0.4137
  608MOL0     O81946   7.407   7.300   6.433  0.6755  0.0587  0.3365
  608MOL0     C81947   7.438   7.179   6.404  0.1554  0.5004 -0.1762
  608MOL0     O81948   7.384   7.074   6.466  0.6327 -0.4854 -0.8357
  608MOL0     C81949   7.286   7.103   6.560 -0.4818 -0.5410 -0.2690
  608MOL0     C81950   7.151   7.088   6.521  0.0866 -0.7171  0.4676
  608MOL0     C81951   7.051   7.114   6.612  0.5993 -0.5813 -1.0580
  608MOL0     C81952   7.082   7.188   6.728 -2.0444 -0.6853  0.2142
  608MOL0     O81953   6.980   7.227   6.809  0.5673  0.3891 -0.5057
  608MOL0     C81954   6.971   7.369   6.818  0.4998 -0.0988 -0.3478
  608MOL0     C81955   6.913   7.415   6.957  0.8372 -0.2915  0.1506
  608MOL0     C81956   6.772   7.347   6.975 -0.5986 -0.3599 -0.2927
  608MOL0     C81957   6.701   7.396   7.105 -0.0075  0.2464  0.5910
  608MOL0     C81958   6.678   7.542   7.101  0.1144 -0.2151  0.0309
  608MOL0     C81959   6.537   7.590   7.131  0.2339 -0.2117 -0.4362
  608MOL0     C81960   6.511   7.747   7.104 -0.5484  0.3206  0.5903
  608MOL0     C81961   6.592   7.837   7.199 -1.2517  0.1443 -0.2287
  608MOL0     N81962   6.520   7.858   7.323 -0.4144 -0.6190 -0.6379
  608MOL0     C81963   6.546   7.811   7.453  0.3316 -0.1323 -0.8542
  608MOL0     C81964   6.470   7.884   7.535 -0.1045 -0.2562 -0.4262
  608MOL0     C81965   6.450   7.856   7.680 -0.6050  0.9414 -0.4046
  608MOL0     C81966   6.364   7.974   7.732 -0.9901 -0.6384 -0.5153
  608MOL0     C81967   6.453   8.104   7.730  0.9813 -0.2457 -0.2839
  608MOL0     C81968   6.412   8.223   7.816  0.4950 -0.4777  0.6605
  608MOL0     O81969   6.473   8.351   7.787  0.4112 -0.6984 -0.6612
  608MOL0     C81970   6.393   8.456   7.825  0.8938 -0.5454  0.4289
  608MOL0     C81971   6.325   8.459   7.941  0.0737 -0.2752  0.4229
  608MOL0     C81972   6.229   8.567   7.967  0.2304  0.0052 -0.1065
  608MOL0     C81973   6.132   8.537   8.073  0.3898  0.5857  0.0960
  608MOL0     C81974   6.215   8.678   7.884  0.0915  0.7848 -0.4316
  608MOL0     C81975   6.125   8.790   7.925  0.1516  0.5531 -0.5927
  608MOL0     O81976   5.994   8.753   7.937  0.5531 -0.4009  0.2972
  608MOL0     C81977   5.910   8.829   8.030 -1.0446 -0.6116 -0.0029
  608MOL0     C81978   5.932   8.953   8.097 -0.8011  0.1338  0.0565
  608MOL0     C81979   5.841   9.008   8.178  0.4597 -0.8093 -0.5089
  608MOL0     C81980   5.711   8.947   8.201  0.0044 -0.2829 -0.4401
  608MOL0     O81981   5.624   9.011   8.284 -0.4509 -0.7076 -0.4919
  608MOL0     C81982   5.491   9.005   8.242  0.9414  0.0443  0.0275
  608MOL0     C81983   5.384   9.070   8.336 -0.3633 -0.7056  0.5438
  608MOL0     C81984   5.397   9.223   8.333  0.9122  0.1806 -0.5718
  608MOL0     C81985   5.505   9.290   8.426  0.2177  0.1740 -0.4514
  608MOL0     C81986   5.501   9.440   8.435  0.5436 -0.2291  0.9572
  608MOL0     C81987   5.610   9.486   8.528  0.7230  0.1948  0.4577
  608MOL0     C81988   5.656   9.635   8.512  0.2814  1.0054  0.0596
  608MOL0     C81989   5.765   9.668   8.613 -0.2786 -0.9362  0.4180
  608MOL0    Cl81990   5.667   9.667   8.771 -0.0379 -0.3596  0.5396
  608MOL0     C81991   5.690   8.830   8.131  1.6139  0.4119 -0.4448
  608MOL0     C81992   5.784   8.776   8.045  0.3518  0.4351 -1.1689
  608MOL0     O81993   6.169   8.904   7.924 -0.8216  0.4273 -0.0402
  608MOL0     C81994   6.295   8.681   7.772 -0.7652 -0.5573 -0.1837
  608MOL0     C81995   6.378   8.572   7.749 -0.9726 -0.1915  0.9357
  608MOL0     N81996   6.394   7.971   7.455 -0.3009  0.2257  0.1036
  608MOL0     N81997   6.430   7.956   7.329 -0.1112 -0.7977 -0.4416
  608MOL0     C81998   7.219   7.206   6.759  0.5488 -1.0151 -0.4748
  608MOL0     C81999   7.320   7.164   6.676  0.5228 -0.1740  0.6100
  608MOL0     C82000   7.534   7.149   6.295 -0.3089 -0.0236 -0.0156
  608MOL0     C82001   7.572   7.019   6.264 -0.5120 -0.0826  0.2249
  608MOL0     C82002   7.648   6.994   6.142 -0.1613 -0.8753 -0.8398
  608MOL0     C82003   7.700   7.096   6.072  0.7154 -0.3769  0.4449
  608MOL0     O82004   7.782   7.089   5.957 -0.4949 -0.1290  0.5857
  608MOL0     C82005   7.874   6.978   5.922  0.4809 -0.2803 -0.5757
  608MOL0     C82006   7.994   6.979   6.014  0.4754  0.0326 -0.8088
  608MOL0     C82007   8.124   7.025   5.945 -0.2464  0.1699  0.7340
  608MOL0     C82008   8.115   7.168   5.892  0.6589  0.8360 -0.5676
  608MOL0     C82009   8.066   7.243   6.012  0.4059 -0.7744 -0.1713
  608MOL0     C82010   8.034   7.292   6.123  1.0638 -0.2125  0.9576
  608MOL0     C82011   7.675   7.229   6.122 -0.2608  0.3508  1.4075
  608MOL0     C82012   7.592   7.255   6.226 -0.1624 -0.3124  0.3752
  608MOL0     H82013   7.119   7.043   6.427 -0.1562  0.2558  0.0776
  608MOL0     H82014   6.949   7.097   6.580  0.6429 -2.4858 -0.3488
  608MOL0     H82015   7.069   7.415   6.802 -0.7403  2.5841 -0.7865
  608MOL0     H82016   6.903   7.406   6.741  1.3877  2.1769 -0.1236
  608MOL0     H82017   6.981   7.375   7.032 -0.9614  0.6456  2.4138
  608MOL0     H82018   6.914   7.524   6.971  2.3699 -0.1451 -0.8487
  608MOL0     H82019   6.712   7.366   6.885 -3.2751 -1.0952  1.2328
  608MOL0     H82020   6.779   7.238   6.974 -5.1728 -0.8684 -1.2276
  608MOL0     H82021   6.615   7.338   7.140  0.4147 -0.2621  0.8115
  608MOL0     H82022   6.770   7.368   7.185  0.4952 -0.4199 -0.0557
  608MOL0     H82023   6.747   7.576   7.179 -1.7813  0.8894  1.3219
  608MOL0     H82024   6.719   7.583   7.008  3.1824 -0.9219  0.9426
  608MOL0     H82025   6.464   7.529   7.077  0.2986  0.2757 -1.0856
  608MOL0     H82026   6.517   7.570   7.237 -1.9147 -0.9381 -0.9196
  608MOL0     H82027   6.555   7.771   7.007  0.0034  2.9910  1.4236
  608MOL0     H82028   6.405   7.775   7.100 -0.4887  0.5130  0.3185
  608MOL0     H82029   6.610   7.931   7.146 -1.6249 -0.5101 -1.5366
  608MOL0     H82030   6.690   7.792   7.217  0.2912  3.0621 -0.7528
  608MOL0     H82031   6.618   7.735   7.483  2.0391  1.0299 -1.8246
  608MOL0     H82032   6.393   7.763   7.683  0.6575 -0.2377 -4.9682
  608MOL0     H82033   6.538   7.831   7.739 -0.7644 -0.7392 -0.8210
  608MOL0     H82034   6.334   7.959   7.836  4.4254 -1.0538  1.3072
  608MOL0     H82035   6.269   7.989   7.679 -1.0503  0.1339 -0.2092
  608MOL0     H82036   6.463   8.129   7.624  0.7322  0.2858 -0.1823
  608MOL0     H82037   6.549   8.078   7.776  0.8425  2.2800  1.6426
  608MOL0     H82038   6.440   8.197   7.919  3.8739  2.1295  0.5690
  608MOL0     H82039   6.302   8.228   7.818  0.5274  0.4282  0.4518
  608MOL0     H82040   6.343   8.381   8.013  0.1535 -1.3727 -0.7560
  608MOL0     H82041   6.028   8.541   8.039  0.8820 -1.1392 -1.8684
  608MOL0     H82042   6.137   8.432   8.105 -0.3391  0.1677 -1.0610
  608MOL0     H82043   6.142   8.599   8.162  1.8506  4.0129 -2.2525
  608MOL0     H82044   6.024   9.009   8.083 -1.8889  1.9577 -0.2359
  608MOL0     H82045   5.873   9.090   8.241  0.5187 -1.0302 -0.2511
  608MOL0     H82046   5.496   9.048   8.142  0.3805  1.5512  0.6209
  608MOL0     H82047   5.453   8.902   8.237 -1.2840  0.8745 -1.6881
  608MOL0     H82048   5.285   9.041   8.300  0.5893 -2.6679 -0.6002
  608MOL0     H82049   5.388   9.040   8.442 -2.9171  1.3765  1.3410
  608MOL0     H82050   5.300   9.254   8.374  2.0632  4.9138 -0.8712
  608MOL0     H82051   5.405   9.262   8.232 -0.6120  0.1511 -0.7200
  608MOL0     H82052   5.507   9.236   8.521  0.9417 -1.4731 -1.3681
  608MOL0     H82053   5.602   9.269   8.382  0.5796 -0.0014  0.4103
  608MOL0     H82054   5.401   9.468   8.467  1.2005  3.0812  0.5010
  608MOL0     H82055   5.508   9.491   8.338  2.2168  1.5535  1.9374
  608MOL0     H82056   5.571   9.462   8.627 -1.8167  0.3880 -0.4232
  608MOL0     H82057   5.700   9.426   8.512 -0.0603 -0.2950 -2.6559
  608MOL0     H82058   5.563   9.693   8.521  1.3733  2.6549  1.1798
  608MOL0     H82059   5.698   9.649   8.412  0.3364 -0.0293 -0.0726
  608MOL0     H82060   5.795   9.771   8.592 -5.7400  1.6544  3.1701
  608MOL0     H82061   5.850   9.599   8.614 -0.7585 -1.5496  0.1198
  608MOL0     H82062   5.602   8.769   8.148  1.3033  1.9126  4.8420
  608MOL0     H82063   5.758   8.685   7.993 -2.5038  0.9468 -0.7689
  608MOL0     H82064   6.294   8.774   7.716  0.6664  0.3209  1.1324
  608MOL0     H82065   6.429   8.569   7.653 -2.2569  1.2203  0.1532
  608MOL0     H82066   7.253   7.253   6.851 -2.1990 -0.7521  0.4734
  608MOL0     H82067   7.423   7.183   6.703  0.6000  0.3982 -0.0763
  608MOL0     H82068   7.549   6.935   6.328 -0.7437  2.0332  3.0915
  608MOL0     H82069   7.660   6.888   6.122 -0.9778 -0.8868 -1.2966
  608MOL0     H82070   7.814   6.887   5.932  1.7503 -1.1490 -0.6761
  608MOL0     H82071   7.913   6.979   5.820  0.4612  0.5058 -0.5822
  608MOL0     H82072   8.012   6.876   6.048 -0.3047  0.3849  0.7755
  608MOL0     H82073   7.975   7.037   6.105 -2.1905  1.8145 -2.3774
  608MOL0     H82074   8.135   6.966   5.853 -1.4212  0.5904  0.3056
  608MOL0     H82075   8.215   7.018   6.005  0.1517  0.6509  0.2034
  608MOL0     H82076   8.037   7.173   5.816 -3.4067 -0.3850  3.0812
  608MOL0     H82077   8.208   7.204   5.847  0.8396 -1.4442 -2.2107
  608MOL0     H82078   8.024   7.331   6.223  1.6902  0.4188  0.7796
  608MOL0     H82079   7.729   7.305   6.067  1.5705 -1.4801  0.5379
  608MOL0     H82080   7.575   7.362   6.234 -1.3363 -0.1675 -2.6538
  609MOL0     O82081  10.021   9.616  10.763  0.5249  0.0035  0.8754
  609MOL0     C82082   9.975   9.724  10.725 -0.4024 -0.3829 -0.3386
  609MOL0     O82083   9.861   9.770  10.762 -0.3138  0.7168  0.3364
  609MOL0     C82084   9.825   9.741  10.896  1.0979  0.4064  0.5397
  609MOL0     C82085   9.689   9.749  10.920  0.6368  0.8608 -0.0870
  609MOL0     C82086   9.638   9.709  11.044  0.9583 -0.4795 -0.2593
  609MOL0     C82087   9.721   9.669  11.152  0.0093 -0.0814 -0.0841
  609MOL0     O82088   9.672   9.672  11.282 -0.6779  0.0772  0.0913
  609MOL0     C82089   9.547   9.608  11.293  0.1071 -0.4199 -0.2466
  609MOL0     C82090   9.540   9.558  11.440  1.4158 -0.1715  0.6667
  609MOL0     C82091   9.409   9.478  11.470  0.6652  0.0819  0.5282
  609MOL0     C82092   9.410   9.344  11.406  0.1344  0.1639  0.9653
  609MOL0     C82093   9.285   9.258  11.440  0.2024 -0.5891  0.4176
  609MOL0     C82094   9.276   9.136  11.346 -0.3958  0.2199 -0.6181
  609MOL0     C82095   9.199   9.015  11.399 -0.6064 -0.7967  0.0758
  609MOL0     C82096   9.252   8.893  11.328 -0.2303 -0.6303 -0.2656
  609MOL0     N82097   9.192   8.883  11.196  0.4806  0.1591 -0.3571
  609MOL0     C82098   9.228   8.946  11.081 -0.4628 -0.7078 -0.3997
  609MOL0     C82099   9.141   8.894  10.987 -0.0098  0.5892  1.1627
  609MOL0     C82100   9.143   8.926  10.833  0.4910  1.2185  0.7442
  609MOL0     C82101   9.040   9.019  10.790  0.5418 -1.5003 -0.1450
  609MOL0     C82102   9.043   9.043  10.638  0.8941 -0.1063  0.6480
  609MOL0     C82103   8.937   9.136  10.583  0.1013  0.6875 -0.3410
  609MOL0     O82104   8.987   9.262  10.542 -0.4072 -0.6060  0.1182
  609MOL0     C82105   8.903   9.357  10.495  0.7972  0.7655  0.0000
  609MOL0     C82106   8.789   9.324  10.421  0.0230 -0.2752  1.1882
  609MOL0     C82107   8.700   9.432  10.373 -0.2097 -0.2295 -0.3337
  609MOL0     C82108   8.591   9.408  10.278 -0.1448  0.1514  0.9529
  609MOL0     C82109   8.735   9.565  10.410 -0.2418 -0.7936 -0.1419
  609MOL0     C82110   8.656   9.686  10.365 -0.0194 -0.3865 -0.3063
  609MOL0     O82111   8.724   9.795  10.322 -0.1875 -0.3604  0.3438
  609MOL0     C82112   8.667   9.918  10.304 -0.4105  0.1840  0.6536
  609MOL0     C82113   8.754  10.015  10.333 -0.7675 -0.5588 -0.7363
  609MOL0     C82114   8.714  10.148  10.311  0.2484  0.3656  0.4503
  609MOL0     C82115   8.588  10.174  10.247 -0.1030  0.8919 -0.1743
  609MOL0     O82116   8.529  10.296  10.231  0.0707 -0.2851 -0.2698
  609MOL0     C82117   8.601  10.417  10.214 -0.2782 -1.1290 -0.4522
  609MOL0     C82118   8.502  10.526  10.235 -0.4890 -0.1668  0.7758
  609MOL0     C82119   8.410  10.528  10.114 -1.4494  0.2605  1.5122
  609MOL0     C82120   8.409  10.663  10.044 -0.3897  0.5369  0.5756
  609MOL0     C82121   8.314  10.674   9.929 -0.0236 -0.2125  0.9075
  609MOL0     C82122   8.380  10.641   9.790 -0.8375 -0.1882  0.3774
  609MOL0     C82123   8.277  10.652   9.675  0.0769 -0.1095  0.4061
  609MOL0     C82124   8.156  10.576   9.681  0.1306  0.2955 -0.6187
  609MOL0    Cl82125   8.180  10.401   9.693  0.3870 -0.5638 -0.2235
  609MOL0     C82126   8.513  10.069  10.190  0.2177  0.0491 -0.2485
  609MOL0     C82127   8.551   9.934  10.222  0.2681 -0.2108 -0.2610
  609MOL0     O82128   8.535   9.681  10.387 -0.3685 -0.0372 -0.4647
  609MOL0     C82129   8.856   9.585  10.496 -0.9900 -0.4047  0.1667
  609MOL0     C82130   8.946   9.482  10.527  0.3763 -0.1077  0.9486
  609MOL0     N82131   9.049   8.815  11.052 -0.6268 -0.3776 -0.2525
  609MOL0     N82132   9.076   8.815  11.175  0.2638  0.5778  0.7105
  609MOL0     C82133   9.862   9.675  11.131 -0.2558 -0.5470  0.2178
  609MOL0     C82134   9.915   9.708  11.003 -1.0359  0.4721 -0.3826
  609MOL0     C82135  10.040   9.795  10.608  0.0152  0.1540  0.2634
  609MOL0     C82136   9.989   9.921  10.570 -0.6649  0.3729  0.3000
  609MOL0     C82137  10.047   9.969  10.445 -0.2348 -0.0411 -0.6221
  609MOL0     C82138  10.147   9.904  10.373  0.6037 -0.1559 -0.0593
  609MOL0     O82139  10.197   9.937  10.255  0.1367  1.2805  0.6746
  609MOL0     C82140  10.130  10.028  10.168  0.4988 -1.3435 -0.3741
  609MOL0     C82141   9.996   9.979  10.107  0.2487  0.0183 -0.1939
  609MOL0     C82142  10.013   9.884   9.996 -1.5169  0.3790  0.0766
  609MOL0     C82143   9.887   9.796   9.975  0.4968  0.5667 -0.7819
  609MOL0     C82144   9.771   9.886   9.931  0.1863  0.0855 -0.8668
  609MOL0     C82145   9.680   9.950   9.872  0.6310  0.2954  0.1285
  609MOL0     C82146  10.195   9.786  10.431  0.3915  0.2786 -0.3932
  609MOL0     C82147  10.153   9.737  10.550  0.2681 -0.6896  0.1900
  609MOL0     H82148   9.613   9.767  10.845 -3.0236  0.1373  3.1010
  609MOL0     H82149   9.530   9.714  11.037  1.0431  2.0773 -0.8355
  609MOL0     H82150   9.464   9.676  11.269  1.1200  2.2154  2.9044
  609MOL0     H82151   9.538   9.521  11.227 -1.1285  2.3162 -4.0844
  609MOL0     H82152   9.628   9.497  11.461  1.5532  0.3196  1.5580
  609MOL0     H82153   9.549   9.645  11.507 -0.0767 -0.1607  0.8653
  609MOL0     H82154   9.395   9.463  11.577  0.8498  4.0449  1.2657
  609MOL0     H82155   9.329   9.546  11.439  0.8843  1.0628  2.0264
  609MOL0     H82156   9.423   9.377  11.303  0.6210  3.1194  1.8941
  609MOL0     H82157   9.503   9.294  11.436  1.8759  1.7462 -1.4706
  609MOL0     H82158   9.289   9.221  11.543 -3.1983 -0.1189  0.8244
  609MOL0     H82159   9.195   9.317  11.422 -0.0721 -0.7327  1.2942
  609MOL0     H82160   9.221   9.176  11.260 -2.7078  0.9171  1.0644
  609MOL0     H82161   9.375   9.109  11.311  0.0757  0.2836  0.6265
  609MOL0     H82162   9.215   9.007  11.507  0.3526 -0.7843 -0.0496
  609MOL0     H82163   9.094   9.027  11.372 -1.0103 -3.1351  0.3947
  609MOL0     H82164   9.217   8.806  11.385 -1.1274  0.4436  0.9000
  609MOL0     H82165   9.361   8.886  11.331 -0.2005 -0.1751 -0.1822
  609MOL0     H82166   9.307   9.019  11.063 -0.8224 -0.1684  0.1542
  609MOL0     H82167   9.241   8.967  10.810  2.5525 -2.7326  1.5798
  609MOL0     H82168   9.135   8.828  10.785 -0.8044  1.3849  0.5888
  609MOL0     H82169   9.041   9.118  10.837 -1.5133  0.1058 -3.1161
  609MOL0     H82170   8.944   8.971  10.812  1.0414 -2.1428  0.7113
  609MOL0     H82171   9.039   8.949  10.582  2.1017  1.3405 -2.0774
  609MOL0     H82172   9.142   9.077  10.606  0.8870 -1.8099 -1.4374
  609MOL0     H82173   8.856   9.142  10.656  0.6350  1.9212  0.1750
  609MOL0     H82174   8.898   9.081  10.497  0.2463 -1.1801  0.7324
  609MOL0     H82175   8.770   9.224  10.382 -0.7513  0.9369 -1.8122
  609MOL0     H82176   8.607   9.326  10.208 -0.9312  1.6992 -1.1469
  609MOL0     H82177   8.499   9.381  10.331 -1.3744 -3.8197 -2.7029
  609MOL0     H82178   8.575   9.492  10.210 -1.7771 -0.0968  0.9932
  609MOL0     H82179   8.852   9.994  10.376  0.0773 -0.4776 -2.5072
  609MOL0     H82180   8.783  10.222  10.349 -0.5226  2.7678 -2.4264
  609MOL0     H82181   8.686  10.439  10.279 -0.0889 -4.5835  0.6189
  609MOL0     H82182   8.643  10.424  10.113 -1.8342 -0.5326 -1.0938
  609MOL0     H82183   8.442  10.515  10.325 -0.2416 -1.1644  0.8244
  609MOL0     H82184   8.542  10.628  10.238  2.5679 -0.9201 -3.8636
  609MOL0     H82185   8.306  10.500  10.133 -0.3513 -4.4862  1.6691
  609MOL0     H82186   8.448  10.462  10.036  1.4974  1.3306  1.9138
  609MOL0     H82187   8.368  10.737  10.113 -2.9380  0.7906 -1.0899
  609MOL0     H82188   8.508  10.692  10.007 -0.4187  1.9930  1.5867
  609MOL0     H82189   8.284  10.779   9.928  1.6063  0.2942  1.4999
  609MOL0     H82190   8.222  10.616   9.945  0.1245 -0.5392  0.5827
  609MOL0     H82191   8.450  10.722   9.769 -0.5354 -0.7950 -1.0720
  609MOL0     H82192   8.441  10.550   9.794  2.4744  1.6574 -2.3346
  609MOL0     H82193   8.331  10.633   9.581  0.8261  1.7699  0.4179
  609MOL0     H82194   8.235  10.752   9.670 -0.1861 -0.2654 -2.4222
  609MOL0     H82195   8.108  10.586   9.584  1.0119  0.5365 -1.0366
  609MOL0     H82196   8.087  10.611   9.758  2.3367 -1.5490  2.4701
  609MOL0     H82197   8.424  10.064  10.128 -0.6693 -1.7565  1.0863
  609MOL0     H82198   8.487   9.855  10.182  1.3696 -0.7794 -0.9320
  609MOL0     H82199   8.862   9.683  10.542 -4.4454 -1.0367  2.3734
  609MOL0     H82200   9.042   9.492  10.576  1.2916  2.0580 -1.0738
  609MOL0     H82201   9.934   9.647  11.207 -0.5522  2.7573  1.9310
  609MOL0     H82202  10.021   9.723  10.986  0.2714 -1.5890  4.2509
  609MOL0     H82203   9.901   9.978  10.601  0.3713  2.1897  0.0335
  609MOL0     H82204  10.012  10.070  10.425  3.8301  2.4947  3.1123
  609MOL0     H82205  10.101  10.122  10.216 -0.6401 -1.8587 -0.0273
  609MOL0     H82206  10.205  10.042  10.089  0.8063  0.4411  0.1875
  609MOL0     H82207   9.952  10.072  10.070 -2.0250 -1.0786 -0.4454
  609MOL0     H82208   9.929   9.937  10.182 -0.3947  0.1525 -0.6808
  609MOL0     H82209  10.087   9.808  10.025 -1.5750  1.1487  2.4217
  609MOL0     H82210  10.067   9.917   9.907 -0.6094  0.3220  0.5851
  609MOL0     H82211   9.867   9.715  10.046 -0.1752  1.0864 -0.3722
  609MOL0     H82212   9.926   9.745   9.886  0.0988  0.5769 -0.9638
  609MOL0     H82213   9.612  10.018   9.824  2.3434  2.2036  0.2846
  609MOL0     H82214  10.284   9.750  10.381 -1.1611 -1.4057 -2.1079
  609MOL0     H82215  10.198   9.649  10.596 -0.6825 -1.7168 -0.7719
  610MOL0     O82216   9.324   6.055   4.691  0.3900  0.6743 -0.8787
  610MOL0     C82217   9.356   5.946   4.648  0.1519 -0.2982 -0.4628
  610MOL0     O82218   9.299   5.831   4.674  1.1202  0.3872  0.0713
  610MOL0     C82219   9.217   5.827   4.785  0.1842 -0.1095  0.5489
  610MOL0     C82220   9.079   5.803   4.765  0.5375  0.5755 -0.0631
  610MOL0     C82221   8.992   5.789   4.868 -0.1554 -0.1340 -0.2624
  610MOL0     C82222   9.038   5.794   4.998  0.4457  0.0393  0.4276
  610MOL0     O82223   8.940   5.759   5.089 -0.7670  0.7164 -0.2157
  610MOL0     C82224   8.966   5.636   5.159 -0.1973  0.1386  0.3380
  610MOL0     C82225   8.836   5.556   5.135  0.5620 -0.8358 -0.4559
  610MOL0     C82226   8.864   5.407   5.088  0.0714 -0.0699  0.0396
  610MOL0     C82227   8.940   5.326   5.202  0.7505  0.0601  0.2396
  610MOL0     C82228   8.933   5.167   5.172  0.7905  0.4285 -0.7597
  610MOL0     C82229   8.814   5.096   5.244  0.3823 -0.1906  0.6252
  610MOL0     C82230   8.816   4.937   5.235  0.7323  1.1256 -0.0514
  610MOL0     C82231   8.807   4.871   5.094  0.6263  0.8798  0.7342
  610MOL0     N82232   8.707   4.933   5.011 -0.1741  0.0801 -0.2734
  610MOL0     C82233   8.735   4.973   4.886 -0.0722  0.5959 -0.1932
  610MOL0     C82234   8.628   4.956   4.811 -0.1735  0.7517  0.3351
  610MOL0     C82235   8.604   4.987   4.658 -0.1279 -0.4277  0.5228
  610MOL0     C82236   8.477   5.060   4.623  0.2793 -0.6195 -0.2377
  610MOL0     C82237   8.353   4.971   4.609  0.3151 -0.2966 -0.3696
  610MOL0     C82238   8.341   4.881   4.483 -0.6173  0.6012  0.7219
  610MOL0     O82239   8.348   4.963   4.362  0.9843  0.3766 -0.6760
  610MOL0     C82240   8.249   5.057   4.323  0.0523  0.2724  0.5778
  610MOL0     C82241   8.287   5.130   4.209 -0.9064 -0.4232 -0.8847
  610MOL0     C82242   8.205   5.215   4.135 -0.5620  1.1280  0.6030
  610MOL0     C82243   8.271   5.301   4.023 -0.1978 -0.8644 -0.3744
  610MOL0     C82244   8.068   5.217   4.184  1.1290  0.3928 -0.7751
  610MOL0     C82245   7.974   5.319   4.133  0.0943 -0.0935 -0.2296
  610MOL0     O82246   7.839   5.306   4.168  0.2231 -0.0349 -0.3856
  610MOL0     C82247   7.756   5.414   4.158  0.5439 -0.5667 -0.5175
  610MOL0     C82248   7.781   5.539   4.215 -0.2480 -0.4674  0.0364
  610MOL0     C82249   7.703   5.648   4.194 -0.5909 -0.3866 -0.4763
  610MOL0     C82250   7.574   5.637   4.151 -0.4787  0.2393  0.5937
  610MOL0     O82251   7.481   5.732   4.151 -0.2806  0.3948  1.2374
  610MOL0     C82252   7.494   5.862   4.211 -0.0716  0.7709  0.2185
  610MOL0     C82253   7.539   5.978   4.127  0.0831 -0.1805  0.6138
  610MOL0     C82254   7.481   5.987   3.987 -0.2219  0.4709 -0.4652
  610MOL0     C82255   7.552   6.083   3.896 -0.0048  0.0104 -0.2997
  610MOL0     C82256   7.477   6.120   3.769  0.2151  0.7740  0.0230
  610MOL0     C82257   7.463   5.995   3.668  0.5772 -0.5005 -0.1884
  610MOL0     C82258   7.435   6.059   3.527  0.1004  0.0675 -0.0597
  610MOL0     C82259   7.358   5.961   3.430  0.0097 -0.1317  0.6279
  610MOL0    Cl82260   7.351   6.016   3.264  0.0091  0.1366 -0.1991
  610MOL0     C82261   7.534   5.503   4.118  0.0636  0.5653 -0.4115
  610MOL0     C82262   7.623   5.394   4.122 -0.2152 -0.4578 -0.6984
  610MOL0     O82263   8.023   5.413   4.074 -0.0087 -0.3293 -0.1754
  610MOL0     C82264   8.027   5.133   4.285 -0.2896  0.7075  0.4904
  610MOL0     C82265   8.115   5.056   4.356  0.2929  0.5790 -0.8344
  610MOL0     N82266   8.529   4.911   4.894  0.0962  1.5047 -0.5690
  610MOL0     N82267   8.572   4.905   5.017 -0.1524 -0.4683  0.3750
  610MOL0     C82268   9.175   5.829   5.025  0.4265  0.8922 -0.1718
  610MOL0     C82269   9.258   5.852   4.914 -0.4079  0.2420 -0.0988
  610MOL0     C82270   9.458   5.946   4.546 -0.2608  0.5155  0.5007
  610MOL0     C82271   9.549   6.051   4.540  0.1611 -0.3583 -0.2217
  610MOL0     C82272   9.660   6.043   4.451  0.3105  0.4095 -0.4642
  610MOL0     C82273   9.687   5.922   4.378  0.3592  0.9669 -0.1762
  610MOL0     O82274   9.794   5.924   4.294  0.5320 -0.5253 -0.5935
  610MOL0     C82275   9.826   5.815   4.212 -0.0833  0.6427  0.5907
  610MOL0     C82276   9.932   5.868   4.118 -0.8296 -0.5558 -0.6767
  610MOL0     C82277   9.896   5.998   4.044 -0.4511 -0.1604  0.0067
  610MOL0     C82278  10.022   6.076   4.013 -0.3083 -0.4191 -0.3657
  610MOL0     C82279   9.993   6.218   3.982  0.5934  0.7120 -0.3104
  610MOL0     C82280   9.946   6.324   3.952  0.2709 -0.1522  1.0484
  610MOL0     C82281   9.606   5.816   4.395  0.6174 -1.1824 -0.0411
  610MOL0     C82282   9.487   5.830   4.471 -0.6185  0.7253 -0.4556
  610MOL0     H82283   9.033   5.788   4.668  0.2585 -3.5697  0.5095
  610MOL0     H82284   8.892   5.762   4.839 -0.6680  2.7501 -1.5099
  610MOL0     H82285   9.046   5.573   5.120 -0.4005  0.2365 -0.2535
  610MOL0     H82286   8.980   5.641   5.267  0.1593  1.2470  0.2581
  610MOL0     H82287   8.775   5.558   5.226  1.2343 -1.4934  0.0206
  610MOL0     H82288   8.768   5.596   5.058  1.5032 -0.6830 -1.2259
  610MOL0     H82289   8.764   5.365   5.071  1.3286 -1.9884 -3.8746
  610MOL0     H82290   8.920   5.402   4.995  0.0809 -0.9967  0.0763
  610MOL0     H82291   9.043   5.357   5.223  0.2913  2.1178 -0.3272
  610MOL0     H82292   8.894   5.345   5.300  0.4670 -0.1447  0.1465
  610MOL0     H82293   8.939   5.138   5.067 -2.7337 -0.3036 -0.8721
  610MOL0     H82294   9.021   5.131   5.227 -0.5055 -1.7203  0.0603
  610MOL0     H82295   8.833   5.113   5.350 -5.4916  0.7800  1.8970
  610MOL0     H82296   8.716   5.134   5.212 -0.4859 -1.7859  1.2552
  610MOL0     H82297   8.905   4.899   5.286  0.9141 -4.0736 -3.4216
  610MOL0     H82298   8.731   4.892   5.288  1.7661 -2.0001 -0.8459
  610MOL0     H82299   8.770   4.769   5.110 -1.7456  1.7802  1.4050
  610MOL0     H82300   8.905   4.888   5.049  1.6831 -0.6279  2.3558
  610MOL0     H82301   8.830   5.001   4.842 -0.2857  1.9401  0.1322
  610MOL0     H82302   8.690   5.039   4.616 -0.7663  1.2249  1.1668
  610MOL0     H82303   8.604   4.899   4.593  1.7191 -0.7431  0.8966
  610MOL0     H82304   8.496   5.118   4.532  0.9723 -1.4244 -0.6181
  610MOL0     H82305   8.455   5.129   4.704 -0.1917 -0.6156 -0.3664
  610MOL0     H82306   8.272   5.043   4.621 -0.1888 -1.1212  1.5861
  610MOL0     H82307   8.337   4.902   4.693  1.1796  1.4175  1.2747
  610MOL0     H82308   8.245   4.831   4.500  0.0083 -0.4319  1.3343
  610MOL0     H82309   8.421   4.807   4.480  1.5370  2.8314  0.1907
  610MOL0     H82310   8.394   5.117   4.191 -1.4099 -3.3267 -2.3060
  610MOL0     H82311   8.379   5.285   4.011  1.0296  4.4297  0.9178
  610MOL0     H82312   8.217   5.280   3.931 -0.6284 -0.5801 -0.1893
  610MOL0     H82313   8.253   5.408   4.038  0.7469 -0.2764 -2.8897
  610MOL0     H82314   7.878   5.545   4.264  1.0398 -2.6190 -2.0808
  610MOL0     H82315   7.736   5.748   4.222 -3.2486  1.1830 -2.4286
  610MOL0     H82316   7.393   5.883   4.248 -1.3986 -1.5604 -1.8073
  610MOL0     H82317   7.562   5.860   4.297 -0.3585 -1.5423  0.4700
  610MOL0     H82318   7.525   6.074   4.179  0.2587  0.3460 -0.2883
  610MOL0     H82319   7.648   5.971   4.123  0.8096  5.5579  1.1360
  610MOL0     H82320   7.379   6.024   3.999 -0.2065  0.6339 -0.8036
  610MOL0     H82321   7.489   5.882   3.958 -0.7746  0.1143  0.6253
  610MOL0     H82322   7.551   6.178   3.950 -3.4313 -0.2590  0.3113
  610MOL0     H82323   7.648   6.047   3.858 -0.7441 -0.1180 -2.1640
  610MOL0     H82324   7.533   6.194   3.712  2.0207 -1.5563 -1.4008
  610MOL0     H82325   7.372   6.148   3.780 -1.1697 -3.9353  1.4128
  610MOL0     H82326   7.559   5.944   3.655 -1.1558 -4.4128  0.9002
  610MOL0     H82327   7.379   5.929   3.692  0.3833 -1.4896 -3.1451
  610MOL0     H82328   7.527   6.104   3.489 -0.1337  0.3388 -0.3119
  610MOL0     H82329   7.372   6.148   3.538  0.0866 -0.3012  5.4080
  610MOL0     H82330   7.255   5.947   3.467 -1.3236  2.0891 -1.9326
  610MOL0     H82331   7.405   5.862   3.434  0.8388  0.2850  3.0223
  610MOL0     H82332   7.428   5.484   4.104 -0.0098  1.7090 -1.6626
  610MOL0     H82333   7.581   5.295   4.114 -0.0815 -0.8608  2.2437
  610MOL0     H82334   7.925   5.132   4.321 -0.7875  0.2067 -0.8634
  610MOL0     H82335   8.085   4.994   4.440 -0.2265 -1.8674 -2.6681
  610MOL0     H82336   9.216   5.838   5.125  1.1924  0.7219 -0.4651
  610MOL0     H82337   9.359   5.889   4.929  0.7281 -2.6352  0.1923
  610MOL0     H82338   9.543   6.140   4.603 -0.1895  0.4433 -1.3630
  610MOL0     H82339   9.731   6.125   4.460  3.0309 -1.7142 -1.1753
  610MOL0     H82340   9.858   5.724   4.263 -1.9857 -3.3435 -4.3870
  610MOL0     H82341   9.756   5.771   4.140  0.0858 -0.7025  1.2237
  610MOL0     H82342   9.954   5.785   4.051  0.9232  0.0306 -0.8817
  610MOL0     H82343  10.019   5.882   4.184 -0.9708  0.1374 -0.6271
  610MOL0     H82344   9.828   6.056   4.108 -0.9850 -1.8808  1.0731
  610MOL0     H82345   9.847   5.968   3.951 -1.8124  3.0352 -0.4226
  610MOL0     H82346  10.065   6.031   3.923 -0.0275  1.2265 -1.0834
  610MOL0     H82347  10.085   6.063   4.102  0.7423 -1.9160 -1.2766
  610MOL0     H82348   9.928   6.419   3.907  2.7637 -0.6184 -1.1607
  610MOL0     H82349   9.618   5.729   4.331  0.5995 -0.8282 -0.5341
  610MOL0     H82350   9.429   5.739   4.463  3.8136 -2.2567 -2.3953
  611MOL0     O82351   6.622   4.093  11.029  0.0375 -0.1831  0.1646
  611MOL0     C82352   6.581   3.994  11.090 -0.1425  0.1324 -0.5345
  611MOL0     O82353   6.534   3.999  11.214 -0.6172 -0.3201  0.1786
  611MOL0     C82354   6.531   4.118  11.273 -0.3067 -0.4430 -0.0970
  611MOL0     C82355   6.420   4.199  11.268  0.9956 -0.4635  0.9996
  611MOL0     C82356   6.417   4.325  11.326  0.2010  0.2666 -0.5024
  611MOL0     C82357   6.521   4.374  11.402 -0.6134  0.5972 -0.7304
  611MOL0     O82358   6.514   4.493  11.473  0.2214  0.6899 -0.0713
  611MOL0     C82359   6.537   4.476  11.607  0.8476  0.3012  0.1915
  611MOL0     C82360   6.478   4.596  11.678 -0.5444  0.1094  0.4255
  611MOL0     C82361   6.331   4.577  11.723  0.3353 -0.2135 -0.9976
  611MOL0     C82362   6.283   4.712  11.759  0.6004 -0.5298  1.0082
  611MOL0     C82363   6.129   4.718  11.784  0.0087 -0.3790  0.8775
  611MOL0     C82364   6.068   4.644  11.906 -0.2943  0.5557  1.1354
  611MOL0     C82365   5.915   4.640  11.895  0.5874  1.1320 -0.1990
  611MOL0     C82366   5.854   4.551  12.005 -0.3808 -0.1422 -0.2672
  611MOL0     N82367   5.827   4.617  12.136  0.3057  1.3200 -0.0864
  611MOL0     C82368   5.738   4.715  12.161 -0.3318  0.3148  0.5802
  611MOL0     C82369   5.756   4.759  12.283 -0.1931 -0.5163 -0.4885
  611MOL0     C82370   5.665   4.839  12.373  0.4243 -0.6533  0.4498
  611MOL0     C82371   5.557   4.749  12.445 -0.5948 -0.3899 -0.3958
  611MOL0     C82372   5.593   4.671  12.575  0.4220  0.9617 -0.1994
  611MOL0     C82373   5.467   4.615  12.653 -0.4407  0.2302  1.1572
  611MOL0     O82374   5.411   4.510  12.579  0.0376  0.1085 -0.0663
  611MOL0     C82375   5.318   4.438  12.643  1.0265 -0.4745  0.4132
  611MOL0     C82376   5.240   4.489  12.747  0.8299  0.0965 -0.0208
  611MOL0     C82377   5.133   4.418  12.802 -0.5574  0.3397  0.9138
  611MOL0     C82378   5.062   4.458  12.927  0.2011 -0.0785 -0.2860
  611MOL0     C82379   5.101   4.296  12.749  0.8921 -0.0501 -0.0026
  611MOL0     C82380   4.984   4.208  12.807  0.1213 -0.3492 -0.6346
  611MOL0     O82381   5.008   4.074  12.810  0.8083 -0.4951  0.6176
  611MOL0     C82382   4.914   3.986  12.870 -0.4776 -0.5513  0.2217
  611MOL0     C82383   4.784   3.969  12.822 -0.1721  0.8214 -0.3182
  611MOL0     C82384   4.696   3.884  12.887  0.2982 -0.5857  0.3007
  611MOL0     C82385   4.737   3.802  12.995  0.0956 -0.3488 -0.5610
  611MOL0     O82386   4.655   3.709  13.053  0.4916 -0.2780 -0.4018
  611MOL0     C82387   4.519   3.758  13.069  0.8290  0.6776 -0.1458
  611MOL0     C82388   4.446   3.669  13.171 -0.0499  0.6554 -0.2679
  611MOL0     C82389   4.420   3.526  13.134  0.8897 -0.0577 -0.4663
  611MOL0     C82390   4.314   3.509  13.018 -0.3795  0.0296  0.3003
  611MOL0     C82391   4.310   3.358  12.998 -0.1490 -0.3964 -0.0393
  611MOL0     C82392   4.194   3.326  12.906 -0.1580  0.1747  1.1831
  611MOL0     C82393   4.195   3.176  12.854 -0.6026 -0.4808 -0.2033
  611MOL0     C82394   4.080   3.137  12.757  0.3980  0.2765  0.5628
  611MOL0    Cl82395   4.140   2.980  12.698  0.1219  0.0015  0.1624
  611MOL0     C82396   4.867   3.818  13.040 -0.5165 -1.2438 -0.5390
  611MOL0     C82397   4.958   3.907  12.975  0.1823 -0.7612  0.1849
  611MOL0     O82398   4.877   4.259  12.825 -0.2718  0.5214 -0.3409
  611MOL0     C82399   5.181   4.242  12.643 -0.0669  0.4912 -0.2502
  611MOL0     C82400   5.291   4.314  12.586  0.1573  0.1735  0.8477
  611MOL0     N82401   5.873   4.702  12.329  0.2509 -0.3592 -0.3090
  611MOL0     N82402   5.919   4.616  12.245 -0.2806  0.3650 -0.1375
  611MOL0     C82403   6.636   4.289  11.409 -0.0049 -0.5841  0.0413
  611MOL0     C82404   6.642   4.162  11.349 -0.6160 -0.2980  0.1646
  611MOL0     C82405   6.582   3.867  11.012 -0.2641  0.2517 -0.6675
  611MOL0     C82406   6.620   3.858  10.877 -0.5972 -0.2286  0.4382
  611MOL0     C82407   6.606   3.739  10.805 -0.3292 -0.3587  0.8613
  611MOL0     C82408   6.558   3.629  10.865  1.0857  0.8049 -0.0832
  611MOL0     O82409   6.547   3.521  10.783 -0.8554  0.7226 -0.3770
  611MOL0     C82410   6.478   3.402  10.829 -0.3341 -0.3622  0.1671
  611MOL0     C82411   6.567   3.315  10.914 -0.5678  0.1431  0.3814
  611MOL0     C82412   6.487   3.185  10.959 -0.2701  0.9965 -0.4920
  611MOL0     C82413   6.581   3.096  11.033 -0.4833  0.0211 -0.2306
  611MOL0     C82414   6.631   3.158  11.163  0.0646  0.8406 -0.1350
  611MOL0     C82415   6.678   3.220  11.264 -0.1046  0.2006 -0.3940
  611MOL0     C82416   6.511   3.634  10.993 -0.0613  0.2973 -0.4977
  611MOL0     C82417   6.521   3.755  11.075 -0.4597  0.3654 -0.2645
  611MOL0     H82418   6.342   4.159  11.203  0.5455  0.8555  0.6934
  611MOL0     H82419   6.327   4.386  11.316  0.6920  1.9662  3.3965
  611MOL0     H82420   6.501   4.381  11.647 -1.1782 -0.6341 -3.4316
  611MOL0     H82421   6.644   4.475  11.633  0.9992 -2.3246 -0.2020
  611MOL0     H82422   6.541   4.631  11.760 -1.0424 -2.1644  1.8968
  611MOL0     H82423   6.479   4.677  11.604  0.9645 -0.7643 -0.5721
  611MOL0     H82424   6.278   4.525  11.643  1.3540 -1.7129 -0.7365
  611MOL0     H82425   6.319   4.510  11.809  2.3839  0.2786 -0.2846
  611MOL0     H82426   6.340   4.751  11.844  0.9831  0.1326  0.4564
  611MOL0     H82427   6.310   4.774  11.673  0.8799 -0.9175  0.8122
  611MOL0     H82428   6.104   4.824  11.772  4.0585  0.4468 -2.8054
  611MOL0     H82429   6.074   4.668  11.705  0.8072  2.0724 -1.3781
  611MOL0     H82430   6.097   4.540  11.923 -1.1647  0.2167  0.6225
  611MOL0     H82431   6.088   4.706  11.994  0.1962  2.1308 -0.0442
  611MOL0     H82432   5.875   4.740  11.914 -1.3730 -0.1689  3.7532
  611MOL0     H82433   5.880   4.601  11.799 -2.6316 -0.4039  1.4211
  611MOL0     H82434   5.916   4.461  12.011  3.6318  2.4175  0.6732
  611MOL0     H82435   5.763   4.517  11.955 -0.9522  4.9242 -3.3852
  611MOL0     H82436   5.655   4.752  12.101 -0.4442 -1.2559 -0.2906
  611MOL0     H82437   5.726   4.882  12.452 -1.3114 -0.8715  1.9757
  611MOL0     H82438   5.616   4.919  12.317 -1.0658  0.0930  2.7118
  611MOL0     H82439   5.528   4.673  12.372  1.9422 -0.9739 -0.9062
  611MOL0     H82440   5.466   4.806  12.462  0.2249  0.5726  1.0293
  611MOL0     H82441   5.636   4.752  12.636 -0.5906 -0.0136  1.9008
  611MOL0     H82442   5.669   4.594  12.559  0.9101  1.3812  0.0519
  611MOL0     H82443   5.402   4.700  12.676 -0.2661  0.3858  1.0858
  611MOL0     H82444   5.505   4.564  12.742 -0.7042 -1.1649  0.4982
  611MOL0     H82445   5.243   4.591  12.784 -0.4960 -0.1350  0.7991
  611MOL0     H82446   5.098   4.393  13.006  0.8138 -0.3892 -0.8088
  611MOL0     H82447   5.089   4.561  12.955 -0.5736  0.4085 -1.2428
  611MOL0     H82448   4.954   4.471  12.924  0.2929  2.0448  1.9322
  611MOL0     H82449   4.747   4.031  12.742  0.2990  0.3751 -0.8852
  611MOL0     H82450   4.597   3.882  12.841 -0.1260  2.3523  0.8491
  611MOL0     H82451   4.516   3.858  13.113  0.4916  0.3241  0.6537
  611MOL0     H82452   4.465   3.753  12.974 -1.6071  0.1361  1.1802
  611MOL0     H82453   4.508   3.689  13.259  0.3264  0.9762 -0.6043
  611MOL0     H82454   4.350   3.710  13.205 -0.7550 -1.4519  0.4958
  611MOL0     H82455   4.384   3.473  13.223 -2.5133  0.8892 -1.1044
  611MOL0     H82456   4.516   3.477  13.115  1.3039 -1.2792  3.7494
  611MOL0     H82457   4.220   3.546  13.059  0.9674  2.2121  1.6521
  611MOL0     H82458   4.323   3.551  12.918 -0.9331 -1.1439 -0.2533
  611MOL0     H82459   4.297   3.302  13.092 -1.7593 -1.3771 -0.7852
  611MOL0     H82460   4.406   3.331  12.953  0.8896 -0.3697  2.0244
  611MOL0     H82461   4.094   3.327  12.950 -0.5134 -2.9814  0.6792
  611MOL0     H82462   4.186   3.394  12.820 -1.4197  0.5228  1.5537
  611MOL0     H82463   4.195   3.098  12.931  0.4387 -0.7270 -0.4382
  611MOL0     H82464   4.289   3.163  12.799 -1.2905  0.1593 -1.5698
  611MOL0     H82465   4.070   3.201  12.669 -1.9960  0.1665  0.6830
  611MOL0     H82466   3.991   3.134  12.822  1.0579 -0.1108  1.4637
  611MOL0     H82467   4.905   3.765  13.127 -1.4078  0.2796  0.8168
  611MOL0     H82468   5.060   3.908  13.012 -0.1784  2.1816  1.3648
  611MOL0     H82469   5.155   4.146  12.600 -1.1583  0.2883  0.8144
  611MOL0     H82470   5.329   4.278  12.491 -0.4057 -0.5737  0.9060
  611MOL0     H82471   6.720   4.329  11.465 -2.3257 -0.2767  3.6089
  611MOL0     H82472   6.738   4.111  11.351  1.1640  2.8404  1.7807
  611MOL0     H82473   6.654   3.946  10.823  0.6991 -0.8983  0.0953
  611MOL0     H82474   6.646   3.740  10.704  1.9517 -0.9115  1.7088
  611MOL0     H82475   6.400   3.445  10.892  2.6046  0.9168  3.2367
  611MOL0     H82476   6.438   3.354  10.739  4.7288 -1.3097 -1.9401
  611MOL0     H82477   6.616   3.364  10.999  3.3710 -1.8047 -0.5119
  611MOL0     H82478   6.656   3.293  10.856 -0.2233  2.3111 -0.0230
  611MOL0     H82479   6.448   3.128  10.874  2.0903  0.3014 -1.1916
  611MOL0     H82480   6.404   3.217  11.022 -2.3125 -2.0320 -1.4417
  611MOL0     H82481   6.668   3.073  10.971 -0.8476  1.1576 -1.1756
  611MOL0     H82482   6.539   2.996  11.049 -0.3045 -0.1462 -0.7826
  611MOL0     H82483   6.723   3.267  11.348 -0.2381 -1.3763  0.5981
  611MOL0     H82484   6.477   3.551  11.054 -1.9427  0.5246 -1.1834
  611MOL0     H82485   6.482   3.772  11.176 -2.6790 -0.9289 -0.8389
  612MOL0     O82486   1.594   0.295   4.905 -0.6540  0.0281  0.8283
  612MOL0     C82487   1.640   0.404   4.859  0.1861 -0.1823  0.1828
  612MOL0     O82488   1.576   0.485   4.772  0.1274 -0.1018 -0.1220
  612MOL0     C82489   1.465   0.441   4.715 -0.3841  0.8069 -0.5482
  612MOL0     C82490   1.352   0.408   4.797 -0.2745 -0.1277 -0.5587
  612MOL0     C82491   1.236   0.353   4.743 -0.5527  0.2594  0.4516
  612MOL0     C82492   1.222   0.341   4.608  0.2665  0.2504 -0.2596
  612MOL0     O82493   1.101   0.293   4.558 -0.5477  0.3121 -0.2700
  612MOL0     C82494   1.101   0.216   4.438  0.8124 -0.1028 -0.3678
  612MOL0     C82495   1.038   0.297   4.321  0.0607 -0.5083 -0.2972
  612MOL0     C82496   0.897   0.347   4.355 -0.3428  0.9988  0.1008
  612MOL0     C82497   0.827   0.414   4.233 -0.4106  0.4493 -0.1069
  612MOL0     C82498   0.707   0.495   4.274  0.1016  0.7448  0.1347
  612MOL0     C82499   0.584   0.414   4.272  1.1399  0.2799 -0.0572
  612MOL0     C82500   0.462   0.498   4.316  0.6036 -0.2842  0.3074
  612MOL0     C82501   0.337   0.408   4.311  0.7174 -0.3002  0.3399
  612MOL0     N82502   0.214   0.482   4.281 -0.1672  0.3968  0.4992
  612MOL0     C82503   0.202   0.541   4.155 -0.7683  0.1490 -0.4210
  612MOL0     C82504   0.080   0.599   4.163  0.8060  0.6925 -0.6014
  612MOL0     C82505   0.027   0.696   4.060  0.1765  0.0352 -0.1116
  612MOL0     C82506  -0.001   0.636   3.925  0.0057  0.0746  1.1271
  612MOL0     C82507   0.113   0.637   3.818  0.2213  0.7047  0.7912
  612MOL0     C82508   0.110   0.510   3.731  0.4900  0.5055 -0.4872
  612MOL0     O82509   0.117   0.387   3.808  0.1647 -1.0143 -0.6664
  612MOL0     C82510   0.242   0.333   3.843  0.1488 -0.7942  0.5488
  612MOL0     C82511   0.241   0.199   3.889  0.1608  0.0740 -1.2706
  612MOL0     C82512   0.355   0.131   3.925 -0.7663 -0.9844 -0.2594
  612MOL0     C82513   0.343  -0.006   3.977  0.6504  0.0606  0.8200
  612MOL0     C82514   0.487   0.197   3.915  0.3319  0.1272 -0.6802
  612MOL0     C82515   0.617   0.130   3.952  0.3202 -1.2668  0.3098
  612MOL0     O82516   0.609   0.040   4.053 -0.1865 -0.1783  0.4013
  612MOL0     C82517   0.720  -0.032   4.083 -0.3843 -0.0082 -0.2601
  612MOL0     C82518   0.725  -0.166   4.049  0.4142  1.1651 -0.0147
  612MOL0     C82519   0.835  -0.249   4.078 -0.8392 -0.5273 -0.0259
  612MOL0     C82520   0.939  -0.187   4.157 -0.2531 -0.0272  0.3262
  612MOL0     O82521   1.035  -0.267   4.208 -0.1809  0.8162  0.5677
  612MOL0     C82522   1.107  -0.217   4.315 -0.5143  0.0652 -0.6593
  612MOL0     C82523   1.225  -0.307   4.335 -0.1473  0.1655 -0.0048
  612MOL0     C82524   1.206  -0.437   4.420 -1.0326  0.8702 -0.0108
  612MOL0     C82525   1.332  -0.532   4.437 -0.2910  0.9271  1.1421
  612MOL0     C82526   1.310  -0.677   4.479  1.1268  0.3433  0.3024
  612MOL0     C82527   1.444  -0.756   4.507 -0.1110 -0.4667  1.2989
  612MOL0     C82528   1.527  -0.802   4.382  0.3959  0.2994  0.5590
  612MOL0     C82529   1.669  -0.852   4.423  0.3876 -0.8439  0.1563
  612MOL0    Cl82530   1.738  -0.898   4.264  0.1410  0.7998 -0.1439
  612MOL0     C82531   0.935  -0.044   4.178 -0.1068  0.4852  0.5958
  612MOL0     C82532   0.832   0.029   4.144  0.5947 -0.4318  1.1063
  612MOL0     O82533   0.714   0.152   3.887 -0.9732  0.5137  0.1090
  612MOL0     C82534   0.489   0.318   3.850 -0.3175  0.0949 -0.3887
  612MOL0     C82535   0.372   0.392   3.827  0.6505 -0.6354 -0.2719
  612MOL0     N82536   0.019   0.573   4.286 -0.1135 -0.2051 -0.0345
  612MOL0     N82537   0.104   0.496   4.357  0.0219 -0.1113  0.8059
  612MOL0     C82538   1.330   0.371   4.533  0.1587 -0.9489 -0.2839
  612MOL0     C82539   1.446   0.426   4.581  0.1968  0.2708 -0.0382
  612MOL0     C82540   1.787   0.435   4.894  0.7480 -0.1956  0.7533
  612MOL0     C82541   1.853   0.539   4.820 -0.3345 -0.6516  0.0414
  612MOL0     C82542   1.987   0.577   4.849 -0.8843 -0.1020 -0.1517
  612MOL0     C82543   2.057   0.508   4.949  0.2472 -0.1385  0.4039
  612MOL0     O82544   2.176   0.546   5.005 -0.6944  1.1116  0.1132
  612MOL0     C82545   2.242   0.670   4.959  1.3238  1.4287 -0.2826
  612MOL0     C82546   2.382   0.678   5.011 -0.0830  0.6172  0.0155
  612MOL0     C82547   2.384   0.696   5.165 -0.0139 -0.5854 -0.5486
  612MOL0     C82548   2.522   0.685   5.225 -0.3801 -0.8886 -0.2078
  612MOL0     C82549   2.631   0.758   5.161  0.0162 -0.8467 -0.5591
  612MOL0     C82550   2.724   0.821   5.107  1.4329  0.8627 -0.6607
  612MOL0     C82551   1.990   0.409   5.025 -0.9049  0.0415  0.2681
  612MOL0     C82552   1.859   0.368   4.996  0.8299  0.8388  1.3743
  612MOL0     H82553   1.364   0.426   4.904 -1.1297 -0.6459 -0.3609
  612MOL0     H82554   1.166   0.324   4.820  1.5385 -3.3763  1.2430
  612MOL0     H82555   1.193   0.172   4.400  0.7231 -1.3128  0.7505
  612MOL0     H82556   1.029   0.136   4.459 -0.8672  1.2635 -0.6345
  612MOL0     H82557   1.097   0.386   4.299  1.6118 -0.6888  2.6716
  612MOL0     H82558   1.043   0.240   4.228  4.0595  1.8283 -1.7729
  612MOL0     H82559   0.845   0.256   4.386 -2.1686  2.4124  1.4042
  612MOL0     H82560   0.893   0.415   4.440  1.0635  3.1423 -1.4392
  612MOL0     H82561   0.897   0.479   4.180  1.2168 -1.8309 -0.9430
  612MOL0     H82562   0.801   0.334   4.163  2.6895 -1.1475  0.3846
  612MOL0     H82563   0.730   0.535   4.373  1.1310 -0.5748  0.4554
  612MOL0     H82564   0.696   0.580   4.205  0.1136  0.5345 -0.1281
  612MOL0     H82565   0.569   0.367   4.174 -1.2482 -1.4754  1.0423
  612MOL0     H82566   0.600   0.336   4.347  3.0637  0.6041 -0.0954
  612MOL0     H82567   0.479   0.535   4.418  0.9532  0.7278 -0.1055
  612MOL0     H82568   0.440   0.580   4.248 -2.7358 -0.5146  0.9299
  612MOL0     H82569   0.325   0.360   4.409 -1.3410  1.1772  0.8911
  612MOL0     H82570   0.346   0.332   4.233  1.5930  1.9749 -1.8861
  612MOL0     H82571   0.265   0.533   4.067 -2.3935  0.3299 -1.6437
  612MOL0     H82572  -0.066   0.746   4.088  1.2251  0.4281  3.1213
  612MOL0     H82573   0.106   0.770   4.043  0.0992 -0.2545 -2.0183
  612MOL0     H82574  -0.073   0.698   3.871  1.7270 -0.2327 -1.7037
  612MOL0     H82575  -0.047   0.538   3.939 -1.9283  0.3442 -2.1610
  612MOL0     H82576   0.207   0.627   3.873  0.4178 -1.9613  0.0967
  612MOL0     H82577   0.114   0.726   3.754 -1.0296  0.4570  0.3973
  612MOL0     H82578   0.186   0.510   3.653  1.7547 -0.8230  0.6669
  612MOL0     H82579   0.015   0.515   3.678  0.9489 -2.0930 -1.7132
  612MOL0     H82580   0.149   0.143   3.887  1.5560 -2.6239  1.5490
  612MOL0     H82581   0.384  -0.006   4.078 -0.3964 -0.1854  1.2612
  612MOL0     H82582   0.241  -0.042   3.990  0.1901  0.8536 -0.3900
  612MOL0     H82583   0.399  -0.061   3.901 -0.3682 -0.1841  0.2302
  612MOL0     H82584   0.640  -0.219   4.007 -3.3763  4.4135  2.8602
  612MOL0     H82585   0.843  -0.352   4.046  2.8994 -1.1807  2.4144
  612MOL0     H82586   1.150  -0.117   4.306 -4.1312  2.2329  2.9089
  612MOL0     H82587   1.048  -0.220   4.407  0.1436  2.9998 -0.0444
  612MOL0     H82588   1.279  -0.322   4.241 -0.3824  0.5033 -0.1974
  612MOL0     H82589   1.301  -0.253   4.391  1.3540 -0.8198 -1.0180
  612MOL0     H82590   1.122  -0.492   4.375 -0.0713 -2.5304  1.9978
  612MOL0     H82591   1.177  -0.410   4.522 -1.1171 -1.2284  0.5537
  612MOL0     H82592   1.361  -0.547   4.332 -1.7665 -0.5689  0.9041
  612MOL0     H82593   1.410  -0.490   4.500  0.6033 -0.0074  0.6908
  612MOL0     H82594   1.255  -0.733   4.402  1.7449  1.2603 -0.8412
  612MOL0     H82595   1.248  -0.676   4.569  0.8236  1.5659  0.0924
  612MOL0     H82596   1.509  -0.698   4.574 -0.0229  2.3899 -1.0499
  612MOL0     H82597   1.408  -0.846   4.557  1.5301 -2.1608 -0.4123
  612MOL0     H82598   1.537  -0.717   4.314  1.2307 -1.0706 -1.1185
  612MOL0     H82599   1.467  -0.879   4.333 -0.4165  0.9553  0.4930
  612MOL0     H82600   1.658  -0.939   4.490 -0.0671  0.5964  2.0445
  612MOL0     H82601   1.726  -0.777   4.479  1.0026 -2.1840  1.4147
  612MOL0     H82602   1.015   0.002   4.236  1.6208 -2.7097  1.0151
  612MOL0     H82603   0.816   0.131   4.177  1.7741 -0.0198  0.4684
  612MOL0     H82604   0.575   0.378   3.821 -0.1260 -0.6099 -1.3252
  612MOL0     H82605   0.380   0.493   3.788 -1.5028  0.0497  0.8853
  612MOL0     H82606   1.334   0.361   4.425 -2.0567  1.2761 -0.6585
  612MOL0     H82607   1.516   0.455   4.503  0.0025  1.3378  0.1695
  612MOL0     H82608   1.802   0.597   4.744  3.0579 -1.0287 -2.7549
  612MOL0     H82609   2.023   0.665   4.796  3.0549 -2.1969 -1.3805
  612MOL0     H82610   2.260   0.657   4.852 -1.7784 -0.2780 -0.7194
  612MOL0     H82611   2.188   0.766   4.963 -3.7003 -0.8956 -2.8090
  612MOL0     H82612   2.440   0.763   4.971 -0.7089  1.5247  1.0017
  612MOL0     H82613   2.428   0.587   4.970  0.1181  1.1421 -0.9715
  612MOL0     H82614   2.307   0.640   5.218 -1.3863  3.2012  1.8561
  612MOL0     H82615   2.354   0.797   5.195  3.9357 -0.1410  2.6032
  612MOL0     H82616   2.553   0.580   5.223 -0.1926 -0.8163 -1.8075
  612MOL0     H82617   2.513   0.721   5.328 -0.7767 -0.0821 -0.5166
  612MOL0     H82618   2.802   0.876   5.058 -0.1630  4.2808  0.3592
  612MOL0     H82619   2.028   0.363   5.116 -2.4452  1.9860  1.9804
  612MOL0     H82620   1.822   0.289   5.061  0.0617  0.9813  1.1133
  613MOL0     O82621   9.926   7.734   8.073  0.0020  0.3133 -0.5827
  613MOL0     C82622  10.001   7.639   8.045  0.7000  0.1669 -0.0465
  613MOL0     O82623  10.138   7.649   8.044 -0.4687 -0.7804  0.2292
  613MOL0     C82624  10.207   7.760   8.085 -0.1985 -0.6845 -0.6663
  613MOL0     C82625  10.324   7.799   8.016  0.2334  0.6968  0.2089
  613MOL0     C82626  10.396   7.907   8.056 -0.0837  0.6925 -0.2405
  613MOL0     C82627  10.348   7.983   8.163 -0.7462  0.0119  0.0577
  613MOL0     O82628  10.411   8.099   8.208 -1.0335 -0.2663  0.7094
  613MOL0     C82629  10.474   8.179   8.110  0.2395 -0.1046  0.4594
  613MOL0     C82630  10.366   8.233   8.007 -0.1502  0.5681  0.5581
  613MOL0     C82631  10.426   8.340   7.919 -0.7195 -0.9018  0.8747
  613MOL0     C82632  10.321   8.378   7.805 -0.1302 -0.1074 -0.7056
  613MOL0     C82633  10.382   8.464   7.710  0.3467 -1.4936  0.6879
  613MOL0     C82634  10.496   8.400   7.625  0.1974  0.8552 -0.0233
  613MOL0     C82635  10.537   8.483   7.500 -0.3687 -0.0169 -1.5149
  613MOL0     C82636  10.586   8.624   7.537  0.3499 -0.4325 -0.1118
  613MOL0     N82637  10.654   8.688   7.417  0.1440  0.0080 -0.1402
  613MOL0     C82638  10.789   8.696   7.416 -0.0908  0.6003  0.0042
  613MOL0     C82639  10.828   8.765   7.307 -0.1686  0.0452  0.6935
  613MOL0     C82640  10.967   8.814   7.274 -0.0955  0.3168  0.3994
  613MOL0     C82641  10.995   8.954   7.329  0.7144 -0.1493 -0.0091
  613MOL0     C82642  11.146   8.982   7.329 -0.7394 -0.1930 -0.3289
  613MOL0     C82643  11.192   9.120   7.373 -0.1890  0.3666  0.1755
  613MOL0     O82644  11.147   9.137   7.505  0.1047 -0.9985  0.4598
  613MOL0     C82645  11.097   9.257   7.547  0.0993  0.2891  0.9683
  613MOL0     C82646  10.958   9.262   7.581 -0.9587  0.0631 -0.0460
  613MOL0     C82647  10.911   9.384   7.628 -0.5683  1.0016  0.6597
  613MOL0     C82648  10.773   9.377   7.671 -0.4382 -0.2361 -0.0572
  613MOL0     C82649  11.004   9.493   7.650 -0.4684  0.0609  0.2933
  613MOL0     C82650  10.961   9.614   7.731  0.6970  0.5571 -0.4810
  613MOL0     O82651  11.063   9.679   7.788 -0.2953  0.3869  0.4849
  613MOL0     C82652  11.031   9.767   7.890 -0.2914  0.8947  0.0066
  613MOL0     C82653  11.018   9.901   7.871 -0.7269  0.6070  0.0457
  613MOL0     C82654  10.963   9.988   7.967  0.4986 -0.1254  0.9281
  613MOL0     C82655  10.914   9.932   8.087 -0.7999 -1.7618 -0.1202
  613MOL0     O82656  10.847  10.025   8.175 -0.4477 -0.7462 -0.9525
  613MOL0     C82657  10.807   9.978   8.306  0.8760  0.3943 -0.8950
  613MOL0     C82658  10.766  10.095   8.396  0.3329  0.7971 -0.1529
  613MOL0     C82659  10.660  10.184   8.329  0.3815 -0.0995 -1.5163
  613MOL0     C82660  10.594  10.281   8.435  0.9070  0.7512  0.1917
  613MOL0     C82661  10.698  10.373   8.509 -0.2492  0.2064  0.3760
  613MOL0     C82662  10.645  10.494   8.581  0.0348 -0.6483 -0.3616
  613MOL0     C82663  10.563  10.461   8.706 -0.5691 -0.4388 -0.3043
  613MOL0     C82664  10.624  10.369   8.807 -0.1531  1.1748 -0.3855
  613MOL0    Cl82665  10.776  10.426   8.867 -0.5049 -0.4127 -0.2691
  613MOL0     C82666  10.936   9.796   8.118 -0.2459 -0.0632  0.4187
  613MOL0     C82667  10.990   9.715   8.018 -0.7237  0.0719 -0.2437
  613MOL0     O82668  10.845   9.664   7.728  0.3387  0.4984 -0.5346
  613MOL0     C82669  11.138   9.481   7.619 -0.1806  0.7196  0.3420
  613MOL0     C82670  11.184   9.362   7.561  1.2070 -0.7795 -1.0351
  613MOL0     N82671  10.709   8.781   7.233  0.1879  0.2907 -0.2357
  613MOL0     N82672  10.599   8.738   7.299 -0.2551 -0.3973 -0.6946
  613MOL0     C82673  10.233   7.955   8.223  0.5896  0.5469 -0.5845
  613MOL0     C82674  10.163   7.842   8.189 -0.0908 -0.5023  0.6129
  613MOL0     C82675   9.939   7.507   7.998  0.4877  0.0874 -0.3399
  613MOL0     C82676  10.020   7.401   7.972  0.0220 -0.6306 -0.3174
  613MOL0     C82677   9.958   7.290   7.914 -0.6962  0.8361 -0.1957
  613MOL0     C82678   9.821   7.280   7.890  0.2295  1.3638 -0.3441
  613MOL0     O82679   9.777   7.154   7.850  1.1368  0.6097 -0.4231
  613MOL0     C82680   9.650   7.153   7.785  1.1158  0.1392 -0.0855
  613MOL0     C82681   9.653   7.223   7.647 -0.2201  0.3275  0.1048
  613MOL0     C82682   9.522   7.204   7.570  0.5566  0.1276  0.1608
  613MOL0     C82683   9.527   7.284   7.438  0.4418  0.8883  0.4235
  613MOL0     C82684   9.391   7.272   7.386  1.6611  0.4913 -0.4930
  613MOL0     C82685   9.277   7.271   7.347  0.1632  1.0396  1.1910
  613MOL0     C82686   9.741   7.387   7.920 -0.0285 -0.2949  0.5478
  613MOL0     C82687   9.798   7.505   7.977  0.4622  0.0737 -1.0982
  613MOL0     H82688  10.368   7.748   7.931 -0.4224  1.6830 -0.7471
  613MOL0     H82689  10.483   7.923   7.993 -1.4015 -2.8757 -3.3516
  613MOL0     H82690  10.513   8.266   8.163  2.2758  0.9488 -2.4366
  613MOL0     H82691  10.550   8.125   8.051 -1.0417 -2.3203  0.7355
  613MOL0     H82692  10.343   8.151   7.939  4.1029 -0.0834 -0.3225
  613MOL0     H82693  10.279   8.274   8.061  0.0670 -0.3466  1.6418
  613MOL0     H82694  10.450   8.421   7.989  1.3074  0.3632 -1.1740
  613MOL0     H82695  10.518   8.307   7.870 -0.8452  2.7062 -2.2512
  613MOL0     H82696  10.273   8.294   7.754  0.8359 -0.2940 -1.3211
  613MOL0     H82697  10.248   8.441   7.857 -0.5446 -0.4707 -0.8410
  613MOL0     H82698  10.300   8.489   7.642  1.0596 -1.1732 -0.0662
  613MOL0     H82699  10.428   8.553   7.755  0.5113 -1.4597  0.4509
  613MOL0     H82700  10.581   8.374   7.689  0.9173 -2.0840 -1.9486
  613MOL0     H82701  10.462   8.304   7.585  1.1325  0.1427  0.8284
  613MOL0     H82702  10.614   8.420   7.455  0.3871 -0.1347 -0.1072
  613MOL0     H82703  10.454   8.490   7.429  0.4015 -0.3825 -2.4599
  613MOL0     H82704  10.659   8.623   7.618  0.0811  0.6540  0.1519
  613MOL0     H82705  10.492   8.676   7.557 -2.8171 -3.3516 -5.0680
  613MOL0     H82706  10.837   8.658   7.505 -2.6629 -0.3974  1.0622
  613MOL0     H82707  11.037   8.745   7.322  0.6839 -0.9604 -2.3734
  613MOL0     H82708  10.973   8.812   7.165  0.0012  0.5440  0.3983
  613MOL0     H82709  10.959   8.961   7.432  0.5421 -1.9613  0.0844
  613MOL0     H82710  10.932   9.024   7.274 -0.5923 -0.0080  1.5984
  613MOL0     H82711  11.176   8.976   7.224  0.0604  0.9193 -0.1829
  613MOL0     H82712  11.195   8.902   7.385 -0.3824  2.3968  3.4298
  613MOL0     H82713  11.151   9.205   7.317  3.0291  1.5144 -0.6513
  613MOL0     H82714  11.300   9.134   7.367 -0.2624  0.7147 -0.4722
  613MOL0     H82715  10.888   9.180   7.579 -1.9008  0.8408  0.1490
  613MOL0     H82716  10.717   9.304   7.611  2.1601 -0.8031 -1.9553
  613MOL0     H82717  10.763   9.357   7.779 -0.5132  0.3473  0.0439
  613MOL0     H82718  10.721   9.470   7.647  0.9882  0.9076  1.0589
  613MOL0     H82719  11.052   9.934   7.773  1.5327 -0.1344  0.5130
  613MOL0     H82720  10.966  10.095   7.951  1.7265 -0.3273 -0.4500
  613MOL0     H82721  10.728   9.904   8.294 -1.4985  2.5686  0.2461
  613MOL0     H82722  10.895   9.941   8.359  2.0626  0.3647 -2.7789
  613MOL0     H82723  10.734  10.066   8.496 -0.8295  3.0760  0.2022
  613MOL0     H82724  10.859  10.151   8.402 -0.3323  2.0938 -1.3657
  613MOL0     H82725  10.588  10.127   8.268  0.7843  0.0587 -2.1508
  613MOL0     H82726  10.712  10.239   8.251  1.7511  0.3744 -0.3064
  613MOL0     H82727  10.523  10.337   8.373  2.1115 -1.7184 -3.7445
  613MOL0     H82728  10.537  10.236   8.517 -0.5246  0.2758 -1.0364
  613MOL0     H82729  10.754  10.421   8.429  0.8549 -1.1028  0.3272
  613MOL0     H82730  10.763  10.309   8.570 -0.0486 -1.4510 -1.4869
  613MOL0     H82731  10.733  10.555   8.604 -1.4300  1.5200 -0.2059
  613MOL0     H82732  10.576  10.544   8.512 -3.5437  0.2335  3.4492
  613MOL0     H82733  10.473  10.412   8.669  0.0219  0.3867 -3.0326
  613MOL0     H82734  10.533  10.549   8.764 -1.1390 -1.2420  0.6524
  613MOL0     H82735  10.643  10.273   8.758  4.1841  2.0758 -0.8579
  613MOL0     H82736  10.570  10.360   8.901  5.3779 -0.8254  3.0846
  613MOL0     H82737  10.899   9.751   8.209 -1.2168 -0.2646 -0.0638
  613MOL0     H82738  11.010   9.609   8.029  0.5889 -0.1054 -3.3202
  613MOL0     H82739  11.211   9.560   7.633 -0.5878  1.4360 -1.3288
  613MOL0     H82740  11.288   9.353   7.532  1.9460  0.6178  0.9861
  613MOL0     H82741  10.185   8.019   8.298  0.3649  0.9013 -1.0234
  613MOL0     H82742  10.083   7.806   8.252 -1.8211 -3.3678 -2.8152
  613MOL0     H82743  10.128   7.412   7.984  0.2314 -0.9783 -1.6898
  613MOL0     H82744  10.028   7.210   7.894  0.7926  2.7645 -3.4685
  613MOL0     H82745   9.614   7.051   7.765 -1.3728  0.2827  2.9972
  613MOL0     H82746   9.575   7.190   7.855  4.6149  2.8078  2.5965
  613MOL0     H82747   9.740   7.180   7.598  0.9119  1.5409  0.9712
  613MOL0     H82748   9.670   7.330   7.664  2.5291  0.1887 -1.1865
  613MOL0     H82749   9.440   7.236   7.635  0.0149  1.6910 -1.2330
  613MOL0     H82750   9.511   7.096   7.553 -1.3001  0.7284 -3.4074
  613MOL0     H82751   9.592   7.238   7.363 -0.5913 -2.4569  1.3839
  613MOL0     H82752   9.563   7.384   7.463  3.0655  0.2459 -0.5062
  613MOL0     H82753   9.178   7.262   7.307 -0.1865  3.5545  1.3264
  613MOL0     H82754   9.633   7.393   7.912 -0.0134  0.3286  0.7644
  613MOL0     H82755   9.753   7.597   8.012  2.1262 -0.6859  3.7593
  614MOL0     O82756   8.863   4.789   5.714 -0.1614 -0.1932  0.0255
  614MOL0     C82757   8.885   4.837   5.825 -0.3058 -0.4188  0.3759
  614MOL0     O82758   8.843   4.783   5.940  1.3075 -0.1301 -0.6511
  614MOL0     C82759   8.752   4.671   5.938  0.3714  0.5093 -0.8004
  614MOL0     C82760   8.614   4.673   5.912 -0.1020 -0.5648 -0.4459
  614MOL0     C82761   8.546   4.549   5.888  0.3773 -0.0207  0.2919
  614MOL0     C82762   8.596   4.425   5.912 -0.3240 -0.5949 -0.2378
  614MOL0     O82763   8.518   4.320   5.878  0.4153 -0.0587  0.1646
  614MOL0     C82764   8.588   4.196   5.840  0.7036  0.2041  0.4141
  614MOL0     C82765   8.485   4.099   5.798  0.3147  0.3325 -0.7973
  614MOL0     C82766   8.429   4.027   5.924  0.3270 -0.2479 -0.1849
  614MOL0     C82767   8.307   3.936   5.903  0.1838  0.2522 -0.5357
  614MOL0     C82768   8.266   3.882   6.035  0.0590 -0.0420  0.6174
  614MOL0     C82769   8.124   3.811   6.033  0.3805 -0.1459 -0.2260
  614MOL0     C82770   8.125   3.662   5.990 -0.0510 -1.0067 -0.1587
  614MOL0     C82771   7.975   3.619   6.002 -0.5909  0.1893 -0.3253
  614MOL0     N82772   7.936   3.579   6.138 -0.0441 -0.5446 -0.0751
  614MOL0     C82773   8.003   3.516   6.238  0.2210 -0.1989  1.7233
  614MOL0     C82774   7.947   3.538   6.357 -0.3578 -0.1096  0.4345
  614MOL0     C82775   8.013   3.486   6.479 -0.5143 -0.0559 -0.7417
  614MOL0     C82776   7.940   3.352   6.512  0.2049  0.6111  0.4534
  614MOL0     C82777   7.797   3.366   6.562  0.1584  0.1218  0.4871
  614MOL0     C82778   7.777   3.296   6.694  0.6482 -0.3338 -0.2196
  614MOL0     O82779   7.834   3.163   6.673  0.7507 -0.0669 -0.2366
  614MOL0     C82780   7.823   3.071   6.777  0.1964 -1.2027  0.1210
  614MOL0     C82781   7.713   3.070   6.873 -1.2108 -0.3941  0.6990
  614MOL0     C82782   7.703   2.979   6.975 -1.5269 -1.1022  0.2112
  614MOL0     C82783   7.583   2.996   7.068  0.5089 -0.1321 -0.0732
  614MOL0     C82784   7.818   2.892   6.998  0.2472 -0.9586 -0.6187
  614MOL0     C82785   7.833   2.788   7.109  0.3359  0.2565  0.4410
  614MOL0     O82786   7.953   2.724   7.129 -0.0744 -0.5144 -0.4092
  614MOL0     C82787   7.956   2.610   7.212  0.4700 -0.2750  0.2030
  614MOL0     C82788   7.889   2.488   7.172  0.0763 -0.7297  0.7373
  614MOL0     C82789   7.874   2.380   7.262  0.1681  0.6167  0.1288
  614MOL0     C82790   7.941   2.373   7.384 -0.6441 -0.8552  0.8690
  614MOL0     O82791   7.947   2.265   7.463 -0.3222  0.2952  0.5269
  614MOL0     C82792   7.853   2.165   7.458  0.5373 -0.5524  0.6932
  614MOL0     C82793   7.846   2.105   7.586  0.4261 -0.7698 -0.5055
  614MOL0     C82794   7.765   2.182   7.690  0.9044  0.2155 -0.4272
  614MOL0     C82795   7.776   2.127   7.830 -0.2195  0.1447  0.1331
  614MOL0     C82796   7.720   2.236   7.922  0.7943  0.4529 -0.7882
  614MOL0     C82797   7.698   2.185   8.070  0.3600  0.7459 -0.4933
  614MOL0     C82798   7.600   2.264   8.148 -1.1620  0.3223  0.9636
  614MOL0     C82799   7.589   2.205   8.280  0.6697  0.5857  0.6566
  614MOL0    Cl82800   7.543   2.037   8.286  0.2958 -0.5703  0.1486
  614MOL0     C82801   8.013   2.492   7.415 -0.3662  0.6429  0.2227
  614MOL0     C82802   8.011   2.615   7.335 -0.1647  0.9867  0.1564
  614MOL0     O82803   7.733   2.770   7.173 -0.8995  0.0918 -0.4293
  614MOL0     C82804   7.927   2.886   6.902  0.0564  1.3611  0.0362
  614MOL0     C82805   7.935   2.980   6.798  0.4363  0.0252  0.0352
  614MOL0     N82806   7.842   3.622   6.333 -0.8254  0.2073 -0.0188
  614MOL0     N82807   7.848   3.657   6.202  0.2323 -0.0999  0.1583
  614MOL0     C82808   8.729   4.420   5.959 -0.2150 -1.4851  0.3307
  614MOL0     C82809   8.802   4.540   5.974  0.3685  0.7910  0.8783
  614MOL0     C82810   8.956   4.963   5.818 -0.0834 -0.5518 -0.4656
  614MOL0     C82811   8.978   5.035   5.942 -0.5068 -0.2178  0.2565
  614MOL0     C82812   9.062   5.146   5.944  0.4675 -1.1008  1.4049
  614MOL0     C82813   9.116   5.192   5.817  0.4322 -0.3494 -0.4419
  614MOL0     O82814   9.191   5.304   5.803  0.3007 -0.0585  0.7812
  614MOL0     C82815   9.255   5.359   5.922  0.1025 -0.1771  0.0420
  614MOL0     C82816   9.313   5.503   5.889  0.2926 -0.0302 -0.2422
  614MOL0     C82817   9.205   5.601   5.852  0.1726 -0.8908 -0.7987
  614MOL0     C82818   9.251   5.721   5.771 -0.5843 -0.6198  0.3771
  614MOL0     C82819   9.342   5.804   5.844 -0.1082 -0.5270 -0.7588
  614MOL0     C82820   9.422   5.875   5.908  0.2045  0.0019  0.1693
  614MOL0     C82821   9.087   5.128   5.699  0.2968 -0.2050  0.5732
  614MOL0     C82822   9.008   5.013   5.693  0.5279 -0.6679 -0.9817
  614MOL0     H82823   8.563   4.768   5.900  2.7221  1.6844  3.2436
  614MOL0     H82824   8.445   4.549   5.848  1.3678  0.2541 -2.4038
  614MOL0     H82825   8.659   4.215   5.758  0.0469 -1.2539 -0.5248
  614MOL0     H82826   8.642   4.164   5.930  1.4741  3.8256  1.3948
  614MOL0     H82827   8.399   4.134   5.740  0.3385 -0.3864 -1.2786
  614MOL0     H82828   8.533   4.025   5.735  2.0828  0.2824  0.5327
  614MOL0     H82829   8.513   3.963   5.949  0.9387  0.1884 -1.0779
  614MOL0     H82830   8.422   4.099   6.007  1.4565  1.6689 -1.6502
  614MOL0     H82831   8.220   3.993   5.866 -1.3436  0.0090  2.3678
  614MOL0     H82832   8.344   3.860   5.834  1.6187  2.2080 -2.0298
  614MOL0     H82833   8.339   3.811   6.075  0.8200  1.1181  1.3444
  614MOL0     H82834   8.252   3.974   6.093 -5.3654  2.4660 -3.6958
  614MOL0     H82835   8.078   3.833   6.129  0.8296  0.0173 -0.0470
  614MOL0     H82836   8.069   3.864   5.954  1.0920  1.0691  0.0742
  614MOL0     H82837   8.156   3.658   5.885 -0.4162  4.6910 -0.8407
  614MOL0     H82838   8.187   3.596   6.051  3.2678 -0.0493 -2.2647
  614MOL0     H82839   7.971   3.533   5.935  2.4240  0.5209 -1.0707
  614MOL0     H82840   7.911   3.695   5.956  1.9451  3.1267  0.6747
  614MOL0     H82841   8.086   3.450   6.214 -2.2402 -2.4269 -1.5862
  614MOL0     H82842   8.117   3.465   6.453 -0.2756  0.4093 -0.2015
  614MOL0     H82843   8.010   3.555   6.564 -0.4156  0.8899 -1.4887
  614MOL0     H82844   7.996   3.302   6.591 -1.5097 -1.6093  0.3597
  614MOL0     H82845   7.943   3.286   6.425 -5.7043  0.8944 -0.3800
  614MOL0     H82846   7.726   3.326   6.489  0.3749  2.1971 -0.9455
  614MOL0     H82847   7.773   3.473   6.563 -2.1017 -0.0462 -4.6205
  614MOL0     H82848   7.670   3.296   6.717  1.4270  0.2146  4.0947
  614MOL0     H82849   7.825   3.347   6.778  0.6238 -0.1275 -0.3297
  614MOL0     H82850   7.637   3.147   6.867 -1.2985 -0.4809  0.7018
  614MOL0     H82851   7.605   2.999   7.175  1.3728  3.1498 -0.2144
  614MOL0     H82852   7.543   3.095   7.044  5.9584  2.0781 -1.7032
  614MOL0     H82853   7.510   2.920   7.042  0.6872 -0.5785  0.6980
  614MOL0     H82854   7.848   2.489   7.072  1.9884  1.3642 -0.1138
  614MOL0     H82855   7.808   2.301   7.228  1.4385 -0.9187  1.1171
  614MOL0     H82856   7.754   2.203   7.431  0.2707 -0.6803  1.4720
  614MOL0     H82857   7.870   2.084   7.387 -2.6551 -0.1757 -0.7162
  614MOL0     H82858   7.796   2.009   7.569 -1.8186  0.1728  0.3875
  614MOL0     H82859   7.946   2.081   7.623  0.7234  1.4854  0.2788
  614MOL0     H82860   7.660   2.190   7.661  0.8547  2.5398  0.1711
  614MOL0     H82861   7.809   2.282   7.684  0.1937  0.6203  0.8786
  614MOL0     H82862   7.735   2.027   7.847  1.5216 -0.5303  0.6416
  614MOL0     H82863   7.880   2.099   7.852 -0.5188 -0.6505  0.5704
  614MOL0     H82864   7.620   2.258   7.885 -0.4999  0.7642  2.5030
  614MOL0     H82865   7.776   2.330   7.918 -1.1521  2.0940  3.6112
  614MOL0     H82866   7.680   2.077   8.070 -3.8972  1.2714 -0.1447
  614MOL0     H82867   7.790   2.190   8.129  1.0730 -2.5324 -1.1722
  614MOL0     H82868   7.503   2.269   8.099 -1.5530 -1.3256  1.5095
  614MOL0     H82869   7.642   2.364   8.162 -0.0277  0.0061  0.0358
  614MOL0     H82870   7.511   2.248   8.343 -0.2636 -1.7187  1.1568
  614MOL0     H82871   7.683   2.216   8.336 -1.2548 -0.1691  4.3158
  614MOL0     H82872   8.068   2.492   7.509 -1.6808  2.4411  1.0595
  614MOL0     H82873   8.065   2.704   7.367  2.1917 -0.4312  0.3106
  614MOL0     H82874   8.009   2.815   6.909 -1.6163 -0.8387 -1.3842
  614MOL0     H82875   8.014   2.984   6.723  1.4705 -0.3868  1.0543
  614MOL0     H82876   8.778   4.326   5.986  1.4746 -0.8855 -0.5185
  614MOL0     H82877   8.906   4.537   6.005 -0.1289 -0.3955  2.5928
  614MOL0     H82878   8.942   4.995   6.037 -0.4035  0.8346  0.7521
  614MOL0     H82879   9.091   5.182   6.042 -1.0622 -1.7071  2.1093
  614MOL0     H82880   9.181   5.371   6.001 -4.8313 -0.2647 -4.0328
  614MOL0     H82881   9.336   5.296   5.959 -1.1051 -2.2837 -0.7131
  614MOL0     H82882   9.401   5.494   5.823  1.5433 -2.2509  1.5560
  614MOL0     H82883   9.352   5.541   5.983 -2.2842  1.8702  0.1483
  614MOL0     H82884   9.155   5.637   5.943  3.2815  0.9176  0.3317
  614MOL0     H82885   9.127   5.555   5.790 -1.3813  1.0280 -0.3705
  614MOL0     H82886   9.160   5.779   5.755  0.2925  0.3111 -1.6647
  614MOL0     H82887   9.304   5.695   5.678  2.0076 -1.7126  2.0355
  614MOL0     H82888   9.491   5.932   5.966  0.0063  3.0953 -2.3767
  614MOL0     H82889   9.129   5.160   5.604 -1.8697  1.6000  0.1409
  614MOL0     H82890   8.996   4.972   5.594 -0.7105  0.1587 -1.1904
  615MOL0     O82891   0.672   4.960   4.349  0.9222 -0.2906 -0.3027
  615MOL0     C82892   0.795   4.960   4.354 -0.4566  0.0826 -0.5552
  615MOL0     O82893   0.872   5.034   4.264 -0.2007 -0.4520  0.4024
  615MOL0     C82894   0.823   5.122   4.169  1.4921 -0.5793 -0.8934
  615MOL0     C82895   0.858   5.119   4.029 -0.5922  0.1643 -0.7443
  615MOL0     C82896   0.807   5.200   3.931  0.3347 -0.2058  0.3876
  615MOL0     C82897   0.693   5.280   3.953 -0.9438 -0.2450 -0.6904
  615MOL0     O82898   0.651   5.362   3.850 -0.0816  0.4478  0.3352
  615MOL0     C82899   0.513   5.357   3.823  0.6887 -0.8157  0.6538
  615MOL0     C82900   0.475   5.222   3.766 -0.8202  0.7386  0.3536
  615MOL0     C82901   0.340   5.229   3.695  0.1374  0.7843 -0.2323
  615MOL0     C82902   0.351   5.258   3.552 -0.4684  0.0463 -0.0128
  615MOL0     C82903   0.220   5.325   3.498  0.1111  0.3904  0.1282
  615MOL0     C82904   0.235   5.341   3.342  0.7589  0.2585  0.2957
  615MOL0     C82905   0.117   5.416   3.279  0.0003 -0.1187  0.6964
  615MOL0     C82906  -0.010   5.328   3.284  0.1810  0.0467  0.2856
  615MOL0     N82907  -0.106   5.379   3.378 -0.4746  0.0115  0.1558
  615MOL0     C82908  -0.154   5.323   3.500  0.4410  0.3992 -0.6563
  615MOL0     C82909  -0.223   5.422   3.557 -0.2276  0.6017 -0.1118
  615MOL0     C82910  -0.286   5.430   3.693  0.2433 -0.7499 -0.0219
  615MOL0     C82911  -0.396   5.325   3.699 -0.1915 -0.0403 -0.3300
  615MOL0     C82912  -0.480   5.319   3.828  0.1958 -0.1948 -0.4505
  615MOL0     C82913  -0.559   5.189   3.835  0.4675  0.0881  0.3476
  615MOL0     O82914  -0.645   5.166   3.943 -0.2395 -0.3634  0.7585
  615MOL0     C82915  -0.596   5.102   4.049 -0.2507 -0.5227 -0.0417
  615MOL0     C82916  -0.583   4.969   4.044 -0.0512  0.3802 -0.1945
  615MOL0     C82917  -0.518   4.898   4.148 -0.2486 -0.6454  0.7262
  615MOL0     C82918  -0.478   4.755   4.127 -0.2557 -0.0996  0.9828
  615MOL0     C82919  -0.469   4.970   4.258 -0.9124  0.7716 -0.4227
  615MOL0     C82920  -0.410   4.906   4.374  0.8249 -0.0714  0.2191
  615MOL0     O82921  -0.307   4.978   4.430  0.1504 -0.9656 -0.2682
  615MOL0     C82922  -0.249   4.953   4.549 -0.1842  0.8082 -0.5223
  615MOL0     C82923  -0.107   4.941   4.559 -0.5111  0.1667 -0.3494
  615MOL0     C82924  -0.046   4.914   4.680  0.4188 -0.0547 -1.0078
  615MOL0     C82925  -0.112   4.902   4.800  1.2507 -0.2907  0.3706
  615MOL0     O82926  -0.057   4.862   4.914 -0.9481 -0.2128  0.1508
  615MOL0     C82927  -0.017   4.968   5.004 -0.5708  0.0946 -0.3185
  615MOL0     C82928   0.033   4.889   5.124 -0.4640 -0.2805 -0.0129
  615MOL0     C82929   0.096   4.972   5.233  0.6932  0.0227 -0.2573
  615MOL0     C82930   0.181   4.893   5.329  0.3425  0.2100 -0.1059
  615MOL0     C82931   0.251   4.983   5.439 -0.4625 -0.0207  0.9422
  615MOL0     C82932   0.371   4.915   5.522 -0.1041  0.4097 -0.1652
  615MOL0     C82933   0.501   4.905   5.458 -0.3540  0.8317  0.4662
  615MOL0     C82934   0.607   4.832   5.555 -0.1301 -0.6920 -0.1956
  615MOL0    Cl82935   0.546   4.670   5.596 -0.2177  0.3814  0.0203
  615MOL0     C82936  -0.251   4.915   4.789  1.1001 -0.4614 -0.0673
  615MOL0     C82937  -0.327   4.940   4.668 -0.5523 -0.0528 -0.8453
  615MOL0     O82938  -0.455   4.798   4.411  0.3339  0.2630 -1.1645
  615MOL0     C82939  -0.483   5.109   4.264 -0.0261  0.5166  0.2490
  615MOL0     C82940  -0.549   5.181   4.159  0.7060  0.0823 -0.3901
  615MOL0     N82941  -0.241   5.532   3.474  0.1955 -0.0007  0.2410
  615MOL0     N82942  -0.156   5.501   3.374  0.1239 -0.3029  0.2643
  615MOL0     C82943   0.657   5.291   4.090  0.6119 -0.5467 -1.0811
  615MOL0     C82944   0.717   5.215   4.194 -0.3344  0.3105  0.5023
  615MOL0     C82945   0.870   4.895   4.459 -0.0774 -0.3652 -0.9559
  615MOL0     C82946   0.808   4.867   4.584  0.3451 -0.2418 -0.6249
  615MOL0     C82947   0.863   4.804   4.691 -0.0534  0.2669  0.1221
  615MOL0     C82948   0.998   4.783   4.676  0.2369  0.0991 -0.4572
  615MOL0     O82949   1.045   4.744   4.799  0.5320 -0.9108  0.1920
  615MOL0     C82950   1.182   4.725   4.815  0.2821 -0.7007  0.8462
  615MOL0     C82951   1.252   4.862   4.841  0.6887  0.6328  0.8447
  615MOL0     C82952   1.350   4.865   4.954 -0.3983 -0.4945  0.5746
  615MOL0     C82953   1.428   4.990   4.958 -0.5894  0.7569 -0.0473
  615MOL0     C82954   1.544   4.994   5.049 -0.1053  0.6417 -1.0226
  615MOL0     C82955   1.647   5.004   5.112  0.9383  0.1656 -0.0535
  615MOL0     C82956   1.070   4.810   4.558  0.6580  0.4007 -0.3303
  615MOL0     C82957   1.008   4.871   4.452 -0.9981  0.0037  0.3219
  615MOL0     H82958   0.935   5.049   3.998  0.0981 -0.3188  1.7722
  615MOL0     H82959   0.841   5.182   3.829 -4.0374 -2.8236 -0.8615
  615MOL0     H82960   0.452   5.383   3.910 -0.5859 -1.1418 -0.1092
  615MOL0     H82961   0.490   5.428   3.743 -0.6615 -1.2491  0.6300
  615MOL0     H82962   0.543   5.187   3.689 -2.4376 -1.3643 -0.1845
  615MOL0     H82963   0.468   5.153   3.851  0.1807  2.0058  1.5201
  615MOL0     H82964   0.298   5.130   3.714  0.7891  0.6675  0.6571
  615MOL0     H82965   0.281   5.310   3.741  1.2382  2.4596 -1.6438
  615MOL0     H82966   0.428   5.336   3.545 -2.5349  2.0016 -3.3572
  615MOL0     H82967   0.377   5.176   3.485 -4.0607  0.4996 -2.1961
  615MOL0     H82968   0.136   5.258   3.520 -1.4440  1.7540 -1.3021
  615MOL0     H82969   0.202   5.419   3.552 -0.2254  0.7231 -0.5570
  615MOL0     H82970   0.325   5.400   3.325  0.3305  0.3713 -1.9688
  615MOL0     H82971   0.248   5.241   3.299 -1.8916  1.2017 -3.2205
  615MOL0     H82972   0.111   5.519   3.315  0.3397  1.5612 -3.4507
  615MOL0     H82973   0.143   5.421   3.173  1.3270 -2.5737  0.8393
  615MOL0     H82974   0.015   5.227   3.317 -0.6184 -0.4856 -0.7013
  615MOL0     H82975  -0.060   5.319   3.187  0.0333 -2.6926  0.5456
  615MOL0     H82976  -0.137   5.223   3.538 -1.9164  0.7338  1.5729
  615MOL0     H82977  -0.206   5.408   3.765  0.8813 -0.8514 -0.7469
  615MOL0     H82978  -0.313   5.533   3.717  0.9857 -0.5431 -0.0304
  615MOL0     H82979  -0.348   5.227   3.687  0.8118 -0.1352  3.1320
  615MOL0     H82980  -0.461   5.335   3.612  2.0238  0.7264 -2.0045
  615MOL0     H82981  -0.552   5.401   3.827  0.9483  0.4916  0.0920
  615MOL0     H82982  -0.416   5.324   3.916  0.1697  0.4793 -0.4635
  615MOL0     H82983  -0.480   5.113   3.842  2.1449  1.8708  2.5592
  615MOL0     H82984  -0.600   5.177   3.735  1.6410  4.8077 -0.9265
  615MOL0     H82985  -0.619   4.916   3.956 -1.2154  0.4438  0.2390
  615MOL0     H82986  -0.477   4.726   4.022  0.9568  1.0970  0.6324
  615MOL0     H82987  -0.378   4.747   4.172 -0.8199  1.5546  2.7010
  615MOL0     H82988  -0.551   4.696   4.183 -0.9060  2.1590  2.6860
  615MOL0     H82989  -0.038   4.946   4.475  0.8937  1.7231  0.8437
  615MOL0     H82990   0.061   4.901   4.673  0.7339  0.9209  1.0706
  615MOL0     H82991   0.057   5.032   4.955  0.6473 -2.4858 -2.0755
  615MOL0     H82992  -0.109   5.024   5.026 -2.0195 -0.2490 -4.5150
  615MOL0     H82993  -0.051   4.831   5.164  0.5798 -0.8442  1.4750
  615MOL0     H82994   0.113   4.822   5.091 -1.0095  0.6104 -3.5563
  615MOL0     H82995   0.022   5.021   5.298 -0.6593 -3.5565  1.1384
  615MOL0     H82996   0.156   5.054   5.191 -0.4583 -0.5174 -3.1427
  615MOL0     H82997   0.129   4.804   5.367  0.2015 -0.6381 -2.1441
  615MOL0     H82998   0.267   4.867   5.266  0.1688 -0.4200 -0.0866
  615MOL0     H82999   0.179   5.024   5.510  0.2426 -0.7736  2.1246
  615MOL0     H83000   0.295   5.060   5.375 -2.0604  2.2204  2.4157
  615MOL0     H83001   0.387   4.981   5.607  0.2838  0.9509 -0.6474
  615MOL0     H83002   0.331   4.815   5.541 -1.9968  1.5743  2.4541
  615MOL0     H83003   0.550   5.002   5.446 -0.7616  0.9553 -0.2893
  615MOL0     H83004   0.496   4.848   5.365  1.1415  2.3618 -0.6159
  615MOL0     H83005   0.619   4.899   5.641 -2.6032  0.6972 -0.8610
  615MOL0     H83006   0.699   4.827   5.496 -0.4904  3.0694 -1.3218
  615MOL0     H83007  -0.303   4.916   4.884  3.9536 -1.2662  1.6091
  615MOL0     H83008  -0.434   4.946   4.679 -0.5854 -2.1322  0.6030
  615MOL0     H83009  -0.454   5.170   4.350  3.7415  0.8788 -1.0869
  615MOL0     H83010  -0.572   5.287   4.168 -0.0817 -0.0413 -0.8648
  615MOL0     H83011   0.581   5.356   4.133  1.9425 -0.5262  1.4591
  615MOL0     H83012   0.697   5.229   4.300  2.8837 -0.8657  1.3988
  615MOL0     H83013   0.702   4.892   4.588 -0.0849 -2.0338  0.5061
  615MOL0     H83014   0.814   4.772   4.782 -3.2441 -0.2285 -1.6175
  615MOL0     H83015   1.186   4.658   4.902  1.5069  0.3308  1.6172
  615MOL0     H83016   1.223   4.681   4.724 -1.0208 -0.2659  0.0278
  615MOL0     H83017   1.176   4.940   4.850  2.1848  2.1532  0.7778
  615MOL0     H83018   1.294   4.899   4.747  0.0262  3.6947  1.6250
  615MOL0     H83019   1.419   4.781   4.942  1.2679  0.8225  0.5975
  615MOL0     H83020   1.296   4.855   5.049  0.9914 -1.2488  1.3109
  615MOL0     H83021   1.364   5.068   5.000 -1.9405  0.2867 -1.1733
  615MOL0     H83022   1.462   5.010   4.856  0.8913  0.2183  0.3089
  615MOL0     H83023   1.737   5.035   5.162  0.4660 -0.6853  1.3854
  615MOL0     H83024   1.178   4.801   4.558  0.7035  0.1983  2.1911
  615MOL0     H83025   1.066   4.902   4.365  0.4502  0.1814  1.3264
  616MOL0     O83026   5.692   0.253  10.305 -0.3664  0.0925 -0.2832
  616MOL0     C83027   5.598   0.222  10.378  0.3854 -0.1997 -0.3885
  616MOL0     O83028   5.553   0.304  10.481  0.0284 -0.4972  0.3626
  616MOL0     C83029   5.594   0.432  10.479  0.1610 -0.0278  0.1104
  616MOL0     C83030   5.551   0.529  10.389 -1.0181 -0.5015  0.0053
  616MOL0     C83031   5.600   0.661  10.396 -0.2677 -0.0814 -0.3153
  616MOL0     C83032   5.686   0.706  10.497  0.2888 -0.9120 -0.1051
  616MOL0     O83033   5.720   0.832  10.524 -1.1748 -0.6794 -1.2389
  616MOL0     C83034   5.787   0.913  10.428  0.1771  0.0135 -0.6264
  616MOL0     C83035   5.909   0.978  10.492  0.3129 -0.2369 -0.1018
  616MOL0     C83036   5.891   1.060  10.621  0.7837 -0.2472 -0.7501
  616MOL0     C83037   5.811   1.186  10.604 -0.4642 -0.4710 -0.6294
  616MOL0     C83038   5.804   1.259  10.737  0.7041 -0.1784  0.3525
  616MOL0     C83039   5.757   1.408  10.725  0.3795 -0.0085  0.5484
  616MOL0     C83040   5.823   1.496  10.610 -0.3266 -0.0078 -0.7947
  616MOL0     C83041   5.968   1.528  10.632 -0.4152  0.0580  0.8309
  616MOL0     N83042   6.011   1.647  10.555  0.1692 -0.4627  0.3337
  616MOL0     C83043   5.977   1.776  10.593  1.5085  0.7303  0.7432
  616MOL0     C83044   6.034   1.853  10.499 -0.2203 -0.2785 -1.1343
  616MOL0     C83045   6.011   2.008  10.497 -0.8849  0.9004 -0.3890
  616MOL0     C83046   6.029   2.074  10.361 -0.3584 -0.5208 -0.5683
  616MOL0     C83047   6.012   2.223  10.382  0.6822 -0.4402 -0.6410
  616MOL0     C83048   6.004   2.315  10.253  0.2351  0.1876  0.0184
  616MOL0     O83049   5.886   2.270  10.185  0.5899  0.7569  0.3683
  616MOL0     C83050   5.799   2.374  10.149 -1.0859  1.0590 -0.8324
  616MOL0     C83051   5.776   2.394  10.010 -0.0794 -0.2200 -1.3388
  616MOL0     C83052   5.684   2.490   9.966 -0.7181  0.4612  0.0698
  616MOL0     C83053   5.682   2.502   9.811  0.0286 -0.0677  0.5657
  616MOL0     C83054   5.624   2.576  10.054  0.1533 -0.3312 -0.0289
  616MOL0     C83055   5.538   2.684   9.998  0.4543 -0.2746 -0.0232
  616MOL0     O83056   5.460   2.654   9.887 -0.2404 -0.1774  0.6952
  616MOL0     C83057   5.405   2.756   9.806 -0.0209 -0.3899  0.8904
  616MOL0     C83058   5.414   2.745   9.674  0.5924  0.7112  1.4176
  616MOL0     C83059   5.358   2.837   9.586 -0.4343  0.3788 -0.6109
  616MOL0     C83060   5.291   2.947   9.638  0.1636 -0.0527 -0.2597
  616MOL0     O83061   5.230   3.029   9.544 -0.1878  0.4581  0.3122
  616MOL0     C83062   5.159   3.139   9.603 -0.3346  0.2493  0.3221
  616MOL0     C83063   5.105   3.214   9.490  0.3567  0.4653  0.5774
  616MOL0     C83064   5.209   3.254   9.387 -0.6255  0.1487 -0.4187
  616MOL0     C83065   5.173   3.388   9.321  0.9602  0.3261  1.0609
  616MOL0     C83066   5.284   3.407   9.217  0.2581  0.0921 -0.1723
  616MOL0     C83067   5.311   3.561   9.183 -0.4969 -0.1170  0.4984
  616MOL0     C83068   5.419   3.588   9.067 -0.4610 -0.1261  0.3490
  616MOL0     C83069   5.357   3.615   8.927 -0.0888 -0.3267 -0.2961
  616MOL0    Cl83070   5.487   3.704   8.845 -0.3413 -0.1011  0.3920
  616MOL0     C83071   5.273   2.957   9.779 -0.0209  0.3364 -0.3997
  616MOL0     C83072   5.327   2.860   9.865 -0.3272 -0.1178 -0.1402
  616MOL0     O83073   5.540   2.799  10.053  0.2809 -0.0176 -0.3023
  616MOL0     C83074   5.641   2.557  10.192  0.1398 -0.6215  0.7971
  616MOL0     C83075   5.726   2.453  10.239 -0.5618  0.2320  0.3114
  616MOL0     N83076   6.095   1.775  10.404 -0.8467 -0.8857  0.2025
  616MOL0     N83077   6.078   1.653  10.432 -0.2439  0.2053 -0.1026
  616MOL0     C83078   5.712   0.609  10.596  0.2923  0.5922  0.6771
  616MOL0     C83079   5.669   0.475  10.584  0.3476  0.8349 -0.6071
  616MOL0     C83080   5.526   0.105  10.339  0.6100  0.0732 -0.6460
  616MOL0     C83081   5.425   0.050  10.422  0.0883 -0.5748  0.2514
  616MOL0     C83082   5.354  -0.056  10.388 -0.6645  0.6102  0.0472
  616MOL0     C83083   5.366  -0.115  10.264 -0.3160  0.1542 -0.0602
  616MOL0     O83084   5.289  -0.229  10.234  0.1770 -0.1037  0.1726
  616MOL0     C83085   5.294  -0.276  10.105 -0.0546 -0.8403  1.0371
  616MOL0     C83086   5.202  -0.398  10.084  0.6458 -0.7018 -0.5532
  616MOL0     C83087   5.077  -0.374  10.183  0.8108  1.0796 -0.0586
  616MOL0     C83088   4.971  -0.490  10.174  0.2547  0.3347  0.3790
  616MOL0     C83089   4.960  -0.565  10.300 -1.2881  0.0730  0.1233
  616MOL0     C83090   4.959  -0.620  10.408 -0.0542 -0.0864 -1.3549
  616MOL0     C83091   5.472  -0.068  10.177 -0.4941  0.3018 -0.5426
  616MOL0     C83092   5.542   0.036  10.219 -0.3610  0.2502  0.1017
  616MOL0     H83093   5.487   0.510  10.304  0.8429 -2.2151 -1.1218
  616MOL0     H83094   5.550   0.734  10.333 -2.8904 -2.0865 -0.7664
  616MOL0     H83095   5.825   0.843  10.353 -2.6609  0.2601 -2.4151
  616MOL0     H83096   5.704   0.969  10.384  0.8541  0.5605 -1.2393
  616MOL0     H83097   5.980   0.896  10.510  1.4025  1.2659  3.3468
  616MOL0     H83098   5.957   1.052  10.427 -2.3775  1.1533 -0.6289
  616MOL0     H83099   5.839   0.998  10.694 -3.0682  0.8797 -2.2865
  616MOL0     H83100   5.986   1.084  10.670  0.1094 -0.5706  0.7801
  616MOL0     H83101   5.860   1.251  10.531 -1.9909  0.0456 -1.2327
  616MOL0     H83102   5.708   1.167  10.573 -1.5104 -3.4903  3.7521
  616MOL0     H83103   5.737   1.198  10.797  1.1243 -0.8280  0.1755
  616MOL0     H83104   5.899   1.266  10.791  1.1991  1.6816 -0.6664
  616MOL0     H83105   5.649   1.406  10.708  0.2359  2.3081  0.9030
  616MOL0     H83106   5.767   1.457  10.822 -0.1468  0.8619  0.1697
  616MOL0     H83107   5.807   1.464  10.507  2.2311  1.1964 -1.6330
  616MOL0     H83108   5.781   1.597  10.608  0.0035  0.1281 -0.8733
  616MOL0     H83109   6.031   1.445  10.600 -1.8220 -0.2817 -1.2456
  616MOL0     H83110   5.984   1.546  10.739 -2.1302  1.4605  0.8989
  616MOL0     H83111   5.921   1.810  10.679 -1.8801  1.9267 -1.6989
  616MOL0     H83112   5.908   2.008  10.534 -1.1454  0.3291 -1.0917
  616MOL0     H83113   6.065   2.048  10.584 -0.4375 -0.4927  0.0087
  616MOL0     H83114   5.970   2.027  10.283  0.3389 -4.5794  1.1072
  616MOL0     H83115   6.133   2.061  10.331  0.1933  0.3919  0.8449
  616MOL0     H83116   6.100   2.248  10.443 -0.4915 -1.2296  1.4769
  616MOL0     H83117   5.923   2.243  10.442  0.0341 -0.2164 -1.6485
  616MOL0     H83118   6.096   2.300  10.196  1.1742 -0.4222  1.6321
  616MOL0     H83119   5.996   2.414  10.297  3.8428  0.6439 -0.1171
  616MOL0     H83120   5.828   2.346   9.927  0.7878  2.3246 -2.3763
  616MOL0     H83121   5.777   2.465   9.770  1.4189  1.7645  1.9321
  616MOL0     H83122   5.591   2.449   9.784 -0.5675  0.8909  0.6378
  616MOL0     H83123   5.669   2.607   9.784 -0.9273  0.1298  1.6984
  616MOL0     H83124   5.470   2.663   9.630  2.0276  2.2843  0.1702
  616MOL0     H83125   5.354   2.816   9.479  1.6894 -0.3736 -0.5813
  616MOL0     H83126   5.083   3.109   9.675 -0.9881 -0.3285 -0.5859
  616MOL0     H83127   5.220   3.206   9.665 -0.3905 -1.0168  1.7897
  616MOL0     H83128   5.025   3.157   9.443  2.6876 -1.3809 -1.4055
  616MOL0     H83129   5.053   3.304   9.526 -3.2960 -0.6377 -1.3559
  616MOL0     H83130   5.214   3.176   9.310 -0.0763  0.4074 -0.6503
  616MOL0     H83131   5.310   3.259   9.427  1.3603 -0.7475 -4.7464
  616MOL0     H83132   5.072   3.388   9.278  1.1480 -0.6373  0.5757
  616MOL0     H83133   5.171   3.470   9.393 -0.9577  1.4150 -0.1418
  616MOL0     H83134   5.264   3.357   9.123  0.5167 -0.7445  0.2119
  616MOL0     H83135   5.378   3.361   9.247  1.2180 -0.3982 -3.5534
  616MOL0     H83136   5.222   3.616   9.152 -0.5260 -0.9645 -1.0055
  616MOL0     H83137   5.350   3.594   9.280  5.3183 -1.8996 -0.8196
  616MOL0     H83138   5.496   3.512   9.053 -2.3947 -2.3020  0.8941
  616MOL0     H83139   5.467   3.679   9.103  0.1618 -1.2709  2.5723
  616MOL0     H83140   5.272   3.683   8.924 -2.4766 -3.1169  0.1154
  616MOL0     H83141   5.334   3.519   8.880  0.3729 -0.8626  0.5472
  616MOL0     H83142   5.225   3.050   9.809 -0.4586 -0.3878  1.2717
  616MOL0     H83143   5.300   2.863   9.970 -0.7120 -0.4686 -0.2265
  616MOL0     H83144   5.583   2.602  10.272 -2.6800 -2.4362 -0.0338
  616MOL0     H83145   5.732   2.442  10.347 -1.8029  4.4617  0.9915
  616MOL0     H83146   5.773   0.644  10.678  1.7526  1.1795 -0.6086
  616MOL0     H83147   5.702   0.399  10.655 -0.1753 -0.8558 -2.1104
  616MOL0     H83148   5.405   0.106  10.513  0.4784 -1.8840  1.1671
  616MOL0     H83149   5.276  -0.078  10.460  0.6936  0.7849  1.6559
  616MOL0     H83150   5.259  -0.192  10.045 -2.0890 -2.0788  0.3950
  616MOL0     H83151   5.395  -0.306  10.077  0.1465  0.7210 -0.0203
  616MOL0     H83152   5.257  -0.487  10.117 -1.1398 -2.5928 -2.3576
  616MOL0     H83153   5.160  -0.409   9.984  0.6559 -0.2884 -0.6056
  616MOL0     H83154   5.022  -0.290  10.141  0.7568  1.4884  0.8127
  616MOL0     H83155   5.101  -0.355  10.288  1.9418 -0.8506  0.0829
  616MOL0     H83156   4.983  -0.559  10.090 -0.4144 -0.2086  0.7058
  616MOL0     H83157   4.872  -0.449  10.154 -0.2796 -1.2325 -0.3980
  616MOL0     H83158   4.952  -0.660  10.507  1.7079  1.7266 -0.4294
  616MOL0     H83159   5.486  -0.106  10.076  2.5450  0.8012 -0.3885
  616MOL0     H83160   5.627   0.059  10.156 -0.1270 -1.1661 -0.1279
  617MOL0     O83161   0.519   8.773   8.988  0.0368 -0.4039 -0.2541
  617MOL0     C83162   0.539   8.892   8.992  0.7811 -0.1869  0.6336
  617MOL0     O83163   0.624   8.953   9.079 -0.3882 -0.0636  0.2445
  617MOL0     C83164   0.648   8.882   9.193 -0.1752  0.8203  0.3229
  617MOL0     C83165   0.734   8.777   9.199 -0.2135  0.2939 -0.0614
  617MOL0     C83166   0.759   8.704   9.317 -0.0696  0.4041 -0.4914
  617MOL0     C83167   0.695   8.742   9.434 -1.1396 -0.2414 -0.8749
  617MOL0     O83168   0.727   8.677   9.548  0.1801 -0.8461  0.0030
  617MOL0     C83169   0.690   8.731   9.682  0.7380  0.5515  1.0376
  617MOL0     C83170   0.804   8.702   9.784 -0.3336 -0.3161  0.2007
  617MOL0     C83171   0.933   8.778   9.744  0.3884  1.4184 -0.0569
  617MOL0     C83172   1.049   8.725   9.835  0.8148 -0.2984 -0.7565
  617MOL0     C83173   1.176   8.807   9.811 -0.7294  0.2594 -0.2466
  617MOL0     C83174   1.186   8.909   9.925  1.5622  0.5630 -0.1798
  617MOL0     C83175   1.299   9.020   9.930 -0.9969 -0.5073  0.5898
  617MOL0     C83176   1.274   9.132   9.823 -1.0740 -0.5444 -0.6447
  617MOL0     N83177   1.170   9.229   9.857 -0.5542 -0.0294 -0.0876
  617MOL0     C83178   1.119   9.261   9.981 -0.5883 -0.5281  0.4280
  617MOL0     C83179   1.066   9.383   9.965 -0.5541 -0.2959 -1.3480
  617MOL0     C83180   1.023   9.468  10.079 -0.4317 -1.0663  0.3170
  617MOL0     C83181   1.131   9.579  10.096 -0.3096  0.0614  0.4387
  617MOL0     C83182   1.122   9.616  10.250 -0.6878  1.3668  0.3297
  617MOL0     C83183   1.174   9.758  10.268 -0.3143  0.2375 -0.2125
  617MOL0     O83184   1.315   9.763  10.259  0.4813  0.7230  0.0950
  617MOL0     C83185   1.399   9.754  10.373 -0.4489 -0.0984  0.1538
  617MOL0     C83186   1.501   9.648  10.367  0.3262 -1.1150 -0.3267
  617MOL0     C83187   1.593   9.626  10.481  0.5907  0.6315  0.1917
  617MOL0     C83188   1.671   9.495  10.472 -0.3762 -0.0083 -0.0385
  617MOL0     C83189   1.575   9.712  10.595  0.1083 -0.4597 -0.2901
  617MOL0     C83190   1.646   9.689  10.723  0.2461  0.1321 -0.5175
  617MOL0     O83191   1.596   9.749  10.838  0.0255 -0.0285  0.4819
  617MOL0     C83192   1.645   9.726  10.968 -0.3087 -0.0968 -0.3601
  617MOL0     C83193   1.778   9.696  11.010  0.5585  0.6195 -0.7410
  617MOL0     C83194   1.814   9.696  11.146  0.5002 -0.0248 -0.0286
  617MOL0     C83195   1.709   9.697  11.239 -0.4480 -0.2628 -1.1377
  617MOL0     O83196   1.727   9.692  11.375  0.1892 -0.3097 -1.0017
  617MOL0     C83197   1.858   9.701  11.436  0.2066  0.3572  0.4448
  617MOL0     C83198   1.818   9.700  11.592  0.6019  0.2258  0.4624
  617MOL0     C83199   1.943   9.699  11.678 -0.2857  0.7532 -0.2359
  617MOL0     C83200   2.011   9.561  11.680  0.7137  0.9699 -0.7477
  617MOL0     C83201   2.134   9.569  11.769  0.4176  0.0385  0.2744
  617MOL0     C83202   2.105   9.607  11.917 -0.9805  0.2254 -0.0407
  617MOL0     C83203   2.227   9.611  12.020  0.1345 -0.1663 -0.7460
  617MOL0     C83204   2.376   9.610  11.969  0.2944  0.0916 -0.6036
  617MOL0    Cl83205   2.485   9.614  12.101  0.4350  0.1463 -0.3227
  617MOL0     C83206   1.570   9.707  11.195  0.0514  0.0307  0.0901
  617MOL0     C83207   1.540   9.727  11.058  0.0641 -0.1808 -0.8101
  617MOL0     O83208   1.737   9.610  10.729  0.5925  0.4688 -0.1775
  617MOL0     C83209   1.470   9.815  10.590 -0.7028 -0.5051  0.5325
  617MOL0     C83210   1.395   9.843  10.476  0.9805  0.2370  0.1490
  617MOL0     N83211   1.066   9.417   9.832 -0.1341 -0.0772  0.4189
  617MOL0     N83212   1.121   9.320   9.769 -0.3709 -0.0229  0.7936
  617MOL0     C83213   0.607   8.854   9.426  0.4073  0.2426  0.5683
  617MOL0     C83214   0.574   8.929   9.313 -0.4305 -0.4998 -0.4972
  617MOL0     C83215   0.492   8.992   8.883 -0.2911 -0.7471 -0.0524
  617MOL0     C83216   0.520   9.135   8.903 -1.4814 -0.6981  1.1592
  617MOL0     C83217   0.488   9.222   8.802 -0.1131 -1.6438 -1.2900
  617MOL0     C83218   0.420   9.180   8.685  0.0600  0.1325 -0.0577
  617MOL0     O83219   0.380   9.268   8.594  0.6396  0.3244  0.3922
  617MOL0     C83220   0.317   9.392   8.645 -0.0116  0.6376 -0.8117
  617MOL0     C83221   0.238   9.439   8.519  0.4669  0.6099 -0.3342
  617MOL0     C83222   0.150   9.553   8.557  0.0640  0.7408 -0.0362
  617MOL0     C83223   0.173   9.696   8.500 -0.1888 -0.2457  0.3200
  617MOL0     C83224   0.293   9.777   8.554 -0.3193 -0.5697  0.1663
  617MOL0     C83225   0.391   9.835   8.588  1.2136 -0.2474  0.2078
  617MOL0     C83226   0.383   9.045   8.669 -0.7318 -0.5611  0.5139
  617MOL0     C83227   0.417   8.956   8.772  0.5762  0.0287  0.2620
  617MOL0     H83228   0.802   8.760   9.116 -1.2467  0.6566 -1.0062
  617MOL0     H83229   0.830   8.622   9.310 -1.2405 -0.6244 -0.7571
  617MOL0     H83230   0.668   8.838   9.679  3.2446  1.1344 -1.3390
  617MOL0     H83231   0.595   8.687   9.713  1.9469 -2.3023  1.0002
  617MOL0     H83232   0.779   8.728   9.887  0.0512  0.0934  0.1982
  617MOL0     H83233   0.824   8.595   9.784  0.5819 -0.1658  1.5535
  617MOL0     H83234   0.960   8.774   9.639  2.9870  4.7752  0.3033
  617MOL0     H83235   0.909   8.885   9.756  0.0243  1.4266 -0.8310
  617MOL0     H83236   1.013   8.737   9.938  0.0966  1.7245 -1.1935
  617MOL0     H83237   1.064   8.619   9.811  4.4693 -1.1407  3.9285
  617MOL0     H83238   1.258   8.735   9.825 -0.5613  0.4399 -0.3035
  617MOL0     H83239   1.185   8.857   9.715  2.5491 -1.5985 -1.0539
  617MOL0     H83240   1.093   8.963   9.942  1.3150  0.6701 -1.7802
  617MOL0     H83241   1.212   8.855  10.017  1.5483  0.6550 -0.1212
  617MOL0     H83242   1.298   9.072  10.027 -0.8799  0.2336  0.2016
  617MOL0     H83243   1.400   8.985   9.908 -0.7126  0.2476  0.6659
  617MOL0     H83244   1.249   9.083   9.728  0.5105  0.9196 -1.8931
  617MOL0     H83245   1.374   9.177   9.816 -0.4574 -0.9301  3.4523
  617MOL0     H83246   1.137   9.211  10.076  2.2652  0.9247  0.7580
  617MOL0     H83247   0.924   9.505  10.054 -1.0136 -1.8993  1.2964
  617MOL0     H83248   1.012   9.404  10.168  1.7365 -1.8543  0.0764
  617MOL0     H83249   1.103   9.665  10.034  2.3551  0.9309  0.3037
  617MOL0     H83250   1.233   9.550  10.068 -1.2861 -2.7369 -0.5596
  617MOL0     H83251   1.177   9.542  10.309 -4.7887 -1.3416  1.2197
  617MOL0     H83252   1.024   9.608  10.298  0.7768 -2.4023  3.2520
  617MOL0     H83253   1.134   9.782  10.367 -0.3841  1.8351 -0.6054
  617MOL0     H83254   1.131   9.833  10.202  1.3247  2.2576  0.8961
  617MOL0     H83255   1.511   9.579  10.284 -1.5006 -2.3661  0.4314
  617MOL0     H83256   1.647   9.420  10.547 -0.3918 -0.9470 -0.9536
  617MOL0     H83257   1.647   9.445  10.378  1.8949  1.2163 -1.3560
  617MOL0     H83258   1.779   9.514  10.470  0.1982 -2.9123  0.2372
  617MOL0     H83259   1.843   9.696  10.923 -2.0081 -0.9435 -2.8077
  617MOL0     H83260   1.912   9.693  11.193 -0.1016  1.1765  1.3731
  617MOL0     H83261   1.930   9.627  11.401  1.5384  1.2621  1.1690
  617MOL0     H83262   1.900   9.799  11.412 -0.6145  0.9989  1.5167
  617MOL0     H83263   1.767   9.793  11.619 -1.0312 -0.2874 -0.7435
  617MOL0     H83264   1.750   9.618  11.617  0.7895  1.1899  5.2082
  617MOL0     H83265   1.919   9.727  11.781 -0.6167 -0.7436  0.1167
  617MOL0     H83266   2.009   9.777  11.639  2.2650 -1.0004  0.3477
  617MOL0     H83267   1.946   9.488  11.730  0.6025  0.9199 -0.9673
  617MOL0     H83268   2.046   9.526  11.582 -0.0099  0.1847 -0.7356
  617MOL0     H83269   2.201   9.645  11.727  0.5498 -0.3074 -0.1489
  617MOL0     H83270   2.192   9.477  11.764  0.6404  0.1820  0.2330
  617MOL0     H83271   2.046   9.698  11.929 -3.1023 -0.9061 -1.3285
  617MOL0     H83272   2.029   9.537  11.953  0.4492 -0.4460  1.8344
  617MOL0     H83273   2.204   9.524  12.082 -5.6359 -1.4150 -3.9001
  617MOL0     H83274   2.220   9.703  12.079 -0.3732 -1.7024  1.7347
  617MOL0     H83275   2.395   9.696  11.903  1.7712  0.8929  0.8147
  617MOL0     H83276   2.391   9.518  11.911 -3.2568  0.8132 -2.9818
  617MOL0     H83277   1.496   9.697  11.274 -0.6306 -0.9657 -0.6475
  617MOL0     H83278   1.434   9.740  11.037 -0.5065 -0.2175  1.6724
  617MOL0     H83279   1.452   9.870  10.682  0.0614 -1.2831  1.1549
  617MOL0     H83280   1.328   9.928  10.464  1.4670  0.9527  2.0834
  617MOL0     H83281   0.547   8.874   9.514  0.9462  0.2368  0.9426
  617MOL0     H83282   0.496   9.004   9.310  0.7343  0.7407 -1.0030
  617MOL0     H83283   0.587   9.157   8.985 -0.6599  1.7240 -0.0480
  617MOL0     H83284   0.505   9.328   8.818  2.0630 -1.9609 -1.2068
  617MOL0     H83285   0.262   9.373   8.737  4.1366 -1.8625  1.4248
  617MOL0     H83286   0.391   9.465   8.678 -0.9958  0.4847  1.9658
  617MOL0     H83287   0.189   9.352   8.475 -1.5317  0.2867  2.3383
  617MOL0     H83288   0.304   9.476   8.440  2.0402  0.6710  0.9529
  617MOL0     H83289   0.136   9.561   8.665 -0.4722  3.1656 -0.2088
  617MOL0     H83290   0.053   9.513   8.527  0.0698  0.4262  0.3696
  617MOL0     H83291   0.087   9.763   8.512  0.4404  0.6662 -0.0843
  617MOL0     H83292   0.198   9.676   8.395  0.1864  0.2516  0.3102
  617MOL0     H83293   0.475   9.884   8.635  2.9569 -0.5134 -2.3953
  617MOL0     H83294   0.308   9.000   8.606  0.8454 -1.0254 -1.0968
  617MOL0     H83295   0.393   8.854   8.744 -0.2909  0.2207  0.2574
  618MOL0     O83296   4.550   0.254   5.440  0.2462  0.5134 -0.4222
  618MOL0     C83297   4.660   0.287   5.411  0.4169  0.2315  0.9616
  618MOL0     O83298   4.704   0.328   5.284 -0.3965  0.0118  0.4748
  618MOL0     C83299   4.605   0.346   5.192 -0.5421 -0.9373  0.5272
  618MOL0     C83300   4.567   0.244   5.104  0.1167 -0.3567  0.6563
  618MOL0     C83301   4.469   0.284   5.004  0.4979  1.0719 -0.7083
  618MOL0     C83302   4.420   0.414   5.000  0.2850 -0.1125 -0.0660
  618MOL0     O83303   4.310   0.437   4.916  0.2326  0.0341  0.1026
  618MOL0     C83304   4.233   0.547   4.953  0.3918  0.1195  0.4287
  618MOL0     C83305   4.107   0.564   4.873  0.5999 -0.7105 -0.3093
  618MOL0     C83306   4.112   0.619   4.722 -0.3199 -0.7430  0.0031
  618MOL0     C83307   4.216   0.558   4.636 -0.2253  0.2040  0.2030
  618MOL0     C83308   4.225   0.599   4.488  1.2370 -0.3839 -0.3300
  618MOL0     C83309   4.094   0.584   4.406  1.4384  0.4444  0.5711
  618MOL0     C83310   4.108   0.625   4.261  1.2991 -0.7606  0.3715
  618MOL0     C83311   3.968   0.642   4.191 -0.1279 -0.1430  0.7202
  618MOL0     N83312   3.908   0.510   4.162 -0.1510  0.0540 -0.8289
  618MOL0     C83313   3.958   0.427   4.073 -0.6823  0.2531 -0.1660
  618MOL0     C83314   3.868   0.332   4.059  0.3739  0.1492  0.6675
  618MOL0     C83315   3.860   0.230   3.950 -0.2509 -0.0008 -0.5721
  618MOL0     C83316   3.867   0.084   4.003  0.9097  0.2232 -0.4665
  618MOL0     C83317   3.743   0.049   4.084 -0.4028 -0.2586 -0.3075
  618MOL0     C83318   3.613   0.056   4.016 -0.4223 -0.7253  0.2068
  618MOL0     O83319   3.597  -0.012   3.883 -0.6904  0.1160 -0.5460
  618MOL0     C83320   3.612  -0.152   3.869  0.4072  0.4815  0.4474
  618MOL0     C83321   3.596  -0.252   3.969  0.6271  0.1996 -0.5616
  618MOL0     C83322   3.609  -0.386   3.934  0.4155  0.3232  0.5290
  618MOL0     C83323   3.571  -0.483   4.040 -0.4149 -0.3140  0.5538
  618MOL0     C83324   3.647  -0.417   3.804 -1.2674 -0.6236  0.2017
  618MOL0     C83325   3.678  -0.554   3.760 -0.2201  0.0972  0.0461
  618MOL0     O83326   3.782  -0.565   3.681 -0.1689  0.3686 -0.0619
  618MOL0     C83327   3.807  -0.678   3.602 -0.3044 -0.1680  0.1902
  618MOL0     C83328   3.699  -0.737   3.532 -0.2988  0.5101 -0.1112
  618MOL0     C83329   3.715  -0.845   3.445  0.2854  0.2238  0.0517
  618MOL0     C83330   3.840  -0.902   3.436  0.0991 -0.1762 -0.9761
  618MOL0     O83331   3.846  -1.020   3.367 -0.3972 -0.1116  0.0179
  618MOL0     C83332   3.942  -1.031   3.266 -1.1249  0.0943  0.4777
  618MOL0     C83333   3.922  -0.938   3.141 -0.2089 -0.2845 -0.0013
  618MOL0     C83334   3.781  -0.965   3.076 -0.2341 -1.2055 -1.2015
  618MOL0     C83335   3.765  -0.889   2.939  0.5263  0.6289  0.3322
  618MOL0     C83336   3.830  -0.965   2.822 -0.3983  0.3234  0.1615
  618MOL0     C83337   3.740  -1.080   2.765  0.2546  0.0286 -0.4699
  618MOL0     C83338   3.797  -1.147   2.644 -0.0991  0.5989  0.2413
  618MOL0     C83339   3.703  -1.254   2.587 -0.1735 -0.3515 -0.1062
  618MOL0    Cl83340   3.590  -1.194   2.471 -0.4849  0.0234  0.2441
  618MOL0     C83341   3.943  -0.846   3.501  0.9885  0.4022 -0.2130
  618MOL0     C83342   3.928  -0.738   3.579 -0.1383  0.4426  0.0224
  618MOL0     O83343   3.601  -0.642   3.788 -0.1972 -0.8089  0.2561
  618MOL0     C83344   3.651  -0.320   3.704 -0.6685 -0.8499 -0.5264
  618MOL0     C83345   3.631  -0.185   3.738 -0.3282  0.2144  0.7726
  618MOL0     N83346   3.757   0.360   4.141 -0.2690  0.2060  1.1330
  618MOL0     N83347   3.791   0.461   4.210 -0.1626  1.4573  0.5579
  618MOL0     C83348   4.466   0.508   5.089 -0.4420  0.1909 -0.4362
  618MOL0     C83349   4.568   0.477   5.173  0.1207  0.0000 -0.1597
  618MOL0     C83350   4.766   0.257   5.516  0.1384  0.5704 -0.8447
  618MOL0     C83351   4.900   0.291   5.493  0.4881 -0.1048 -0.0877
  618MOL0     C83352   5.006   0.237   5.576  0.5270  0.3579 -0.0893
  618MOL0     C83353   4.971   0.138   5.673 -0.6574  1.0930 -0.0520
  618MOL0     O83354   5.066   0.066   5.741  0.0265  0.2860 -0.1247
  618MOL0     C83355   5.202   0.106   5.756 -0.2376  0.9292  0.3056
  618MOL0     C83356   5.227   0.211   5.869 -0.0264  1.2837 -0.9197
  618MOL0     C83357   5.185   0.149   6.008  0.6527  1.1848  0.5177
  618MOL0     C83358   5.224   0.234   6.131 -0.2807  0.4302 -0.3969
  618MOL0     C83359   5.162   0.175   6.251 -0.3716  0.4246  0.3834
  618MOL0     C83360   5.107   0.132   6.349  1.1950 -0.7702 -0.4357
  618MOL0     C83361   4.841   0.109   5.696 -0.1403  0.8807  0.3620
  618MOL0     C83362   4.735   0.170   5.624  0.5641  1.0391  0.9112
  618MOL0     H83363   4.606   0.143   5.107 -1.8961 -1.2099 -0.1402
  618MOL0     H83364   4.407   0.211   4.952 -2.3449  2.3869  0.5915
  618MOL0     H83365   4.211   0.538   5.059 -0.4936 -0.0254  0.2367
  618MOL0     H83366   4.293   0.637   4.932  1.8182 -0.7985  0.4705
  618MOL0     H83367   4.046   0.473   4.879 -0.8204 -0.0291 -2.9218
  618MOL0     H83368   4.043   0.631   4.933  1.8415 -0.3213  0.6152
  618MOL0     H83369   4.012   0.600   4.680  0.1606 -3.0028 -0.2929
  618MOL0     H83370   4.122   0.727   4.716  0.1408 -0.4629  3.8497
  618MOL0     H83371   4.313   0.563   4.686  0.9958 -0.8759 -1.9486
  618MOL0     H83372   4.194   0.451   4.630  1.0180 -0.0963  0.6609
  618MOL0     H83373   4.257   0.704   4.481  4.6896 -1.0227  3.0314
  618MOL0     H83374   4.311   0.544   4.449  1.6419 -2.6984  3.3525
  618MOL0     H83375   4.049   0.485   4.420  0.4402  0.3272 -2.6597
  618MOL0     H83376   4.024   0.654   4.453  3.0369  1.9393  0.8394
  618MOL0     H83377   4.161   0.721   4.260  0.8179 -0.4842 -1.8241
  618MOL0     H83378   4.170   0.546   4.218 -0.5243 -2.4493  0.6878
  618MOL0     H83379   3.971   0.698   4.097  0.7775  1.8809  1.8731
  618MOL0     H83380   3.898   0.702   4.251 -1.2422 -0.0450 -0.6340
  618MOL0     H83381   4.032   0.448   3.997  0.0488 -2.2287 -0.2250
  618MOL0     H83382   3.770   0.245   3.889 -0.0530  1.6623 -0.5131
  618MOL0     H83383   3.939   0.254   3.878  1.5836  0.4133  1.4685
  618MOL0     H83384   3.956   0.061   4.062  0.4041 -0.7066 -0.0413
  618MOL0     H83385   3.876   0.019   3.915  1.5563 -0.6077  0.1982
  618MOL0     H83386   3.750   0.108   4.176 -1.6629  0.2549 -0.5155
  618MOL0     H83387   3.765  -0.056   4.101 -0.4028 -0.6570 -2.5382
  618MOL0     H83388   3.593   0.164   4.007  1.1636 -0.4772 -0.7999
  618MOL0     H83389   3.538   0.015   4.084 -0.6291 -1.6138 -0.5281
  618MOL0     H83390   3.584  -0.226   4.073  1.3586 -0.9661 -0.1699
  618MOL0     H83391   3.477  -0.536   4.019 -0.2326 -1.1558  1.7540
  618MOL0     H83392   3.651  -0.555   4.061  0.7116  0.0707 -2.0722
  618MOL0     H83393   3.558  -0.434   4.137  1.5437  1.2922  0.0793
  618MOL0     H83394   3.604  -0.687   3.551  0.0658  2.1521 -2.2175
  618MOL0     H83395   3.631  -0.890   3.394  2.3018 -4.0099  0.0318
  618MOL0     H83396   4.037  -1.006   3.314 -0.0453 -0.5243 -1.2437
  618MOL0     H83397   3.953  -1.133   3.228 -0.5182  0.1329  0.5385
  618MOL0     H83398   3.940  -0.835   3.175 -2.3615  0.1381  0.0198
  618MOL0     H83399   4.000  -0.969   3.071 -1.0561 -0.0200 -1.0937
  618MOL0     H83400   3.708  -0.936   3.152  0.7639 -2.4301  0.2923
  618MOL0     H83401   3.768  -1.073   3.062  1.2307 -1.9603  2.0927
  618MOL0     H83402   3.659  -0.871   2.914  0.6297  1.2030  0.2890
  618MOL0     H83403   3.806  -0.788   2.952 -0.8330  1.2250  0.2808
  618MOL0     H83404   3.930  -0.995   2.855 -0.5247 -0.6116 -0.2860
  618MOL0     H83405   3.852  -0.900   2.737  0.5804 -0.6496 -0.3435
  618MOL0     H83406   3.719  -1.157   2.840 -1.3883  1.1877  0.3287
  618MOL0     H83407   3.645  -1.029   2.750  0.2437 -0.5683 -2.8244
  618MOL0     H83408   3.890  -1.198   2.669 -0.4450  0.9209  2.3555
  618MOL0     H83409   3.809  -1.068   2.568 -0.6156 -1.7475 -2.4709
  618MOL0     H83410   3.645  -1.295   2.670  0.4368  1.1921  1.1327
  618MOL0     H83411   3.761  -1.330   2.534 -0.9400 -1.0356  0.0215
  618MOL0     H83412   4.040  -0.891   3.485  0.1357 -0.5689 -3.3919
  618MOL0     H83413   4.009  -0.711   3.646  0.5365 -0.5317 -0.3864
  618MOL0     H83414   3.669  -0.336   3.598  0.1180 -0.8308 -0.3994
  618MOL0     H83415   3.656  -0.107   3.667 -3.7083  2.2731  1.6227
  618MOL0     H83416   4.434   0.612   5.092  1.8774  0.9312  0.9750
  618MOL0     H83417   4.603   0.551   5.244 -0.4710  0.2786 -0.1532
  618MOL0     H83418   4.931   0.340   5.401  1.5737  0.7559  0.7098
  618MOL0     H83419   5.108   0.261   5.548 -0.5095  0.9257 -3.9620
  618MOL0     H83420   5.258   0.018   5.787 -0.7127  0.1374 -0.9902
  618MOL0     H83421   5.233   0.140   5.656 -0.2094 -0.4034 -0.1641
  618MOL0     H83422   5.183   0.308   5.843 -2.2585  0.2416 -1.2771
  618MOL0     H83423   5.335   0.230   5.865  0.4392 -0.8538  0.2787
  618MOL0     H83424   5.225   0.047   6.015  0.0147  1.0101  1.8893
  618MOL0     H83425   5.076   0.155   5.996  0.7145  3.8883  0.6969
  618MOL0     H83426   5.200   0.340   6.134  0.6130  0.6735 -1.3062
  618MOL0     H83427   5.332   0.232   6.149 -0.5969  1.0323  1.9607
  618MOL0     H83428   5.048   0.100   6.433  2.0905  0.7344  0.8144
  618MOL0     H83429   4.809   0.025   5.756 -1.5404  0.6312 -0.6918
  618MOL0     H83430   4.632   0.144   5.643  0.7509 -0.5281 -0.0121
  619MOL0     O83431   3.446   7.943   3.070 -0.4307 -0.5233  0.2845
  619MOL0     C83432   3.540   7.925   3.150  0.2117  0.3974  0.4517
  619MOL0     O83433   3.617   7.813   3.154 -0.0922 -0.7009  0.1874
  619MOL0     C83434   3.581   7.707   3.078 -0.5966  0.0713  0.4328
  619MOL0     C83435   3.471   7.625   3.119 -0.0290 -0.0133 -0.0058
  619MOL0     C83436   3.436   7.513   3.035 -0.1649 -1.6250  0.2404
  619MOL0     C83437   3.495   7.493   2.913 -0.0911 -0.8539 -0.1378
  619MOL0     O83438   3.449   7.393   2.837 -0.1576  0.4526 -0.0060
  619MOL0     C83439   3.528   7.347   2.727  0.4731 -0.0904 -0.4113
  619MOL0     C83440   3.465   7.224   2.664  0.1176  0.0419 -0.4684
  619MOL0     C83441   3.327   7.253   2.596  0.4145 -0.1347  0.0527
  619MOL0     C83442   3.272   7.110   2.548 -0.9301  0.3239  0.1860
  619MOL0     C83443   3.122   7.105   2.538  0.5353 -0.8760 -0.1836
  619MOL0     C83444   3.052   7.191   2.432 -1.1177 -0.7646  0.2555
  619MOL0     C83445   2.901   7.185   2.429  0.6916 -1.4595  0.1387
  619MOL0     C83446   2.836   7.268   2.541 -0.2355 -0.1399 -0.3182
  619MOL0     N83447   2.690   7.254   2.552 -0.0906  0.1264 -0.1880
  619MOL0     C83448   2.595   7.330   2.478 -0.1041  0.7388 -0.0183
  619MOL0     C83449   2.475   7.301   2.534 -0.9023 -0.0144  0.5312
  619MOL0     C83450   2.338   7.347   2.503  0.5276 -1.3819 -0.4548
  619MOL0     C83451   2.317   7.365   2.359 -0.1718  0.2344  0.8085
  619MOL0     C83452   2.174   7.402   2.315 -1.0685 -0.1587 -0.2108
  619MOL0     C83453   2.131   7.532   2.367 -0.4384 -0.5613  0.1203
  619MOL0     O83454   2.016   7.528   2.462 -0.9413  0.2806  0.8392
  619MOL0     C83455   1.965   7.645   2.499 -0.4729  0.0925 -0.0318
  619MOL0     C83456   2.035   7.775   2.489  0.1449  0.8581  0.8444
  619MOL0     C83457   1.977   7.890   2.516 -0.8324 -0.8228  0.7383
  619MOL0     C83458   2.058   8.008   2.473  0.3133 -0.5368  0.3445
  619MOL0     C83459   1.849   7.894   2.579 -0.4425 -0.1970 -0.7583
  619MOL0     C83460   1.799   8.022   2.630 -0.7855 -0.8614 -1.1275
  619MOL0     O83461   1.876   8.143   2.635  0.3842  0.1635  0.5066
  619MOL0     C83462   1.843   8.250   2.720 -0.2729 -0.3701 -0.3239
  619MOL0     C83463   1.815   8.218   2.856 -0.3042 -0.3963 -0.1963
  619MOL0     C83464   1.788   8.338   2.932 -0.1109  0.4149 -0.6752
  619MOL0     C83465   1.798   8.464   2.886  0.0045 -0.0879 -0.7290
  619MOL0     O83466   1.769   8.574   2.958 -0.5573  0.0054  0.5912
  619MOL0     C83467   1.642   8.579   3.034  0.5974  0.7939 -0.4745
  619MOL0     C83468   1.621   8.699   3.120  0.0040  0.3385  0.1512
  619MOL0     C83469   1.624   8.827   3.030 -0.0185  0.8983 -0.4799
  619MOL0     C83470   1.594   8.946   3.128 -0.7541  0.6249  0.7835
  619MOL0     C83471   1.712   9.042   3.127 -0.0146  0.0361  0.3153
  619MOL0     C83472   1.851   9.003   3.182  1.0072 -0.3729  0.2696
  619MOL0     C83473   1.962   9.119   3.161 -0.2094 -0.1774  0.0263
  619MOL0     C83474   2.095   9.065   3.202 -0.2420  0.3526 -0.3371
  619MOL0    Cl83475   2.070   8.987   3.365 -0.0526 -0.2010  0.1734
  619MOL0     C83476   1.839   8.484   2.754 -0.0002  0.6475  1.2173
  619MOL0     C83477   1.868   8.376   2.676 -0.3350  0.1364  0.8722
  619MOL0     O83478   1.687   8.010   2.681  0.0202  0.7348  0.1731
  619MOL0     C83479   1.779   7.772   2.590  0.6025  0.2072 -0.3881
  619MOL0     C83480   1.836   7.653   2.547  0.9002  0.1622  0.5814
  619MOL0     N83481   2.504   7.212   2.637  0.9521  0.4999  0.3550
  619MOL0     N83482   2.626   7.174   2.641 -0.1623  0.8372  0.4715
  619MOL0     C83483   3.593   7.588   2.869  0.2166  0.7323  0.3025
  619MOL0     C83484   3.637   7.698   2.954 -0.8995  0.5533  0.6302
  619MOL0     C83485   3.562   8.029   3.246  0.2797 -0.2220 -0.5710
  619MOL0     C83486   3.643   8.004   3.367  0.5795  0.0530 -0.1268
  619MOL0     C83487   3.656   8.106   3.465  0.0097  1.3196  0.6093
  619MOL0     C83488   3.595   8.223   3.458 -0.6229  0.4897 -0.3854
  619MOL0     O83489   3.628   8.333   3.544  0.0021  0.6015  0.4062
  619MOL0     C83490   3.631   8.458   3.482 -0.6750 -0.7103 -0.0594
  619MOL0     C83491   3.702   8.555   3.566  0.2272 -0.6454 -0.1643
  619MOL0     C83492   3.655   8.564   3.704  0.9870 -0.2720 -0.7224
  619MOL0     C83493   3.728   8.659   3.789  0.1745 -0.2008  0.2722
  619MOL0     C83494   3.686   8.665   3.931 -0.5206 -0.4676  0.1705
  619MOL0     C83495   3.657   8.656   4.054 -1.5512 -0.1471  0.0730
  619MOL0     C83496   3.502   8.240   3.354 -0.1310 -0.1027  0.1299
  619MOL0     C83497   3.480   8.144   3.250 -0.1083 -0.5424 -0.3776
  619MOL0     H83498   3.433   7.649   3.218 -0.7104 -2.0232  0.2638
  619MOL0     H83499   3.368   7.439   3.075  0.1547 -2.4497 -0.7050
  619MOL0     H83500   3.535   7.418   2.644  1.0637 -1.0904 -1.2343
  619MOL0     H83501   3.626   7.321   2.767  0.5803  1.0710  0.1271
  619MOL0     H83502   3.533   7.175   2.594  0.7665  0.3316 -0.0439
  619MOL0     H83503   3.437   7.158   2.746 -0.6606 -1.8433 -2.1759
  619MOL0     H83504   3.253   7.281   2.672 -0.5720 -1.0629 -0.5257
  619MOL0     H83505   3.340   7.331   2.521 -1.4868  0.5758  0.4079
  619MOL0     H83506   3.319   7.093   2.451  5.4100  2.1056  2.4174
  619MOL0     H83507   3.304   7.035   2.622 -2.8863 -1.2088 -0.4230
  619MOL0     H83508   3.093   7.007   2.499  0.4606 -0.8987 -0.0718
  619MOL0     H83509   3.067   7.122   2.631  0.5570 -1.1674 -0.1177
  619MOL0     H83510   3.093   7.292   2.428 -0.3932 -1.1081 -2.1840
  619MOL0     H83511   3.082   7.156   2.333  1.3658 -2.1985  1.4044
  619MOL0     H83512   2.855   7.216   2.335 -0.4560 -0.0063  1.1274
  619MOL0     H83513   2.877   7.079   2.442 -4.6473 -0.5735 -0.5356
  619MOL0     H83514   2.855   7.373   2.518  1.0194 -0.1172  0.6977
  619MOL0     H83515   2.891   7.248   2.633 -1.5594 -0.1119  0.5182
  619MOL0     H83516   2.611   7.414   2.412  0.6813  1.3498  0.9184
  619MOL0     H83517   2.268   7.269   2.534 -3.5730  2.5321  1.4573
  619MOL0     H83518   2.318   7.442   2.555  3.0940 -1.8858  1.6699
  619MOL0     H83519   2.333   7.277   2.297  1.8494  1.9036 -1.2225
  619MOL0     H83520   2.387   7.435   2.313  0.0505 -2.2276 -2.9842
  619MOL0     H83521   2.114   7.324   2.363  0.3826  0.0387  2.0756
  619MOL0     H83522   2.173   7.407   2.206  0.5695 -0.0595 -0.2370
  619MOL0     H83523   2.104   7.587   2.276  1.9615 -1.5133 -1.2415
  619MOL0     H83524   2.214   7.581   2.420 -0.2037  0.6087 -1.2702
  619MOL0     H83525   2.140   7.780   2.462 -0.0586  3.7791  0.3635
  619MOL0     H83526   1.993   8.075   2.416 -0.0208  0.1835  1.5333
  619MOL0     H83527   2.097   8.054   2.565 -0.0851  1.1865 -0.3024
  619MOL0     H83528   2.139   7.978   2.406 -0.4769  1.8000 -1.8294
  619MOL0     H83529   1.814   8.119   2.899 -1.9523  0.5162  2.1050
  619MOL0     H83530   1.752   8.318   3.033 -0.8690 -0.4804 -1.1135
  619MOL0     H83531   1.552   8.570   2.974 -0.7013  1.1933  1.3240
  619MOL0     H83532   1.646   8.486   3.092  1.9466  0.2034 -1.4604
  619MOL0     H83533   1.520   8.689   3.160 -0.2993  2.8366  0.1561
  619MOL0     H83534   1.701   8.702   3.195  1.1891 -0.6281 -1.0350
  619MOL0     H83535   1.563   8.817   2.939 -0.1087 -1.3896 -0.2189
  619MOL0     H83536   1.724   8.838   2.986 -0.7370 -2.2466 -3.3334
  619MOL0     H83537   1.504   8.992   3.087  0.4557  2.1836 -0.1910
  619MOL0     H83538   1.581   8.905   3.229  1.7122 -1.3575  0.4080
  619MOL0     H83539   1.693   9.130   3.189  1.2452 -0.6328  1.7328
  619MOL0     H83540   1.724   9.076   3.024  2.2189  2.9700  1.3846
  619MOL0     H83541   1.829   8.989   3.288 -1.2181  0.7332  0.0086
  619MOL0     H83542   1.877   8.903   3.144 -0.2599 -0.9060  0.7648
  619MOL0     H83543   1.943   9.203   3.229  2.3853  0.4073  0.1635
  619MOL0     H83544   1.961   9.159   3.059 -1.7223 -0.3224 -0.0357
  619MOL0     H83545   2.158   9.155   3.204 -1.4417  1.4036 -3.2697
  619MOL0     H83546   2.123   8.989   3.128  0.5552  1.2458 -0.9756
  619MOL0     H83547   1.850   8.587   2.720  1.0012  0.7367  1.7492
  619MOL0     H83548   1.891   8.392   2.571 -0.2727 -1.9042  0.5288
  619MOL0     H83549   1.685   7.770   2.644  0.4316 -0.5975 -0.7004
  619MOL0     H83550   1.775   7.563   2.546 -2.1696  2.0669 -1.3284
  619MOL0     H83551   3.639   7.562   2.775  2.6127 -3.1540  2.3188
  619MOL0     H83552   3.716   7.761   2.916  0.4253 -0.7454  1.1200
  619MOL0     H83553   3.698   7.912   3.379  0.7501  0.3571  1.6874
  619MOL0     H83554   3.738   8.096   3.536  2.9837  1.6658 -2.5305
  619MOL0     H83555   3.687   8.446   3.389  1.1512  0.5123  0.8269
  619MOL0     H83556   3.533   8.507   3.473  1.2893  3.1411 -4.3650
  619MOL0     H83557   3.689   8.654   3.521 -1.6693 -0.7561  0.0731
  619MOL0     H83558   3.808   8.529   3.572  0.4929  0.5782  1.1976
  619MOL0     H83559   3.651   8.465   3.751  4.3052 -0.2436 -0.1921
  619MOL0     H83560   3.555   8.606   3.692  0.9267 -0.5877 -1.3984
  619MOL0     H83561   3.714   8.762   3.755  0.0514  0.0879  1.1888
  619MOL0     H83562   3.835   8.637   3.802  0.1309  0.1077  1.1766
  619MOL0     H83563   3.623   8.645   4.155 -0.2532 -0.1997  0.5236
  619MOL0     H83564   3.437   8.325   3.341 -0.0257 -0.1111 -0.4998
  619MOL0     H83565   3.412   8.164   3.167  1.8852  3.8815 -1.2011
  620MOL0     O83566   8.395  10.124   1.414 -0.4775  0.3517 -0.1188
  620MOL0     C83567   8.349  10.123   1.527  0.0062 -0.9166 -1.2268
  620MOL0     O83568   8.245  10.206   1.566  0.7693  0.6352  0.4532
  620MOL0     C83569   8.192  10.288   1.465 -1.0133  0.1827 -0.6789
  620MOL0     C83570   8.253  10.406   1.420 -0.4234 -0.4436 -0.3923
  620MOL0     C83571   8.193  10.478   1.310  0.1729 -0.4391  0.1023
  620MOL0     C83572   8.084  10.427   1.234 -0.2443  0.9429 -0.1144
  620MOL0     O83573   8.019  10.482   1.117  0.1006  0.3451  0.2481
  620MOL0     C83574   8.108  10.569   1.043  0.0994  0.1909  0.0132
  620MOL0     C83575   8.019  10.654   0.945  0.2985 -0.0495 -0.4007
  620MOL0     C83576   7.913  10.747   1.009  0.0501 -0.2097 -0.2831
  620MOL0     C83577   7.978  10.840   1.116  0.3113 -0.8444 -0.7097
  620MOL0     C83578   8.079  10.938   1.066  0.5129  0.5305 -0.1716
  620MOL0     C83579   8.038  11.017   0.946  0.1733 -0.2161 -1.4296
  620MOL0     C83580   7.903  11.083   0.977 -0.2271  0.1702 -0.3167
  620MOL0     C83581   7.873  11.177   0.860  0.7676 -0.5999  0.0554
  620MOL0     N83582   7.772  11.109   0.773 -0.1472 -0.9336 -0.5124
  620MOL0     C83583   7.644  11.093   0.812 -0.1118  0.0703  0.8387
  620MOL0     C83584   7.600  11.024   0.712  0.9022 -1.0846 -0.0982
  620MOL0     C83585   7.466  10.956   0.710  0.2940 -0.8295 -0.3373
  620MOL0     C83586   7.466  10.824   0.793  0.2283  0.0598 -0.2979
  620MOL0     C83587   7.591  10.733   0.783  1.2906  0.2032  0.5529
  620MOL0     C83588   7.610  10.610   0.878 -0.3535  0.2459  0.0322
  620MOL0     O83589   7.505  10.527   0.859  0.5628  0.3064  0.2222
  620MOL0     C83590   7.518  10.396   0.903  0.5490  0.5933 -0.0660
  620MOL0     C83591   7.428  10.301   0.849 -0.5970 -0.1172  0.1355
  620MOL0     C83592   7.432  10.168   0.889 -0.4637 -0.1188  1.2231
  620MOL0     C83593   7.348  10.076   0.805  0.0845 -0.3069 -0.3274
  620MOL0     C83594   7.521  10.130   0.986 -0.5543  0.8394 -0.6615
  620MOL0     C83595   7.511   9.986   1.042  0.2410 -0.3876  0.0001
  620MOL0     O83596   7.388   9.928   1.082 -0.7740  0.5965 -0.8643
  620MOL0     C83597   7.275   9.998   1.114 -0.3689 -0.0822 -0.4918
  620MOL0     C83598   7.157   9.921   1.103  0.5496 -0.5688 -0.0257
  620MOL0     C83599   7.032   9.981   1.146 -0.6947 -1.2992  0.3278
  620MOL0     C83600   7.028  10.107   1.216  0.6469 -0.2776 -0.1169
  620MOL0     O83601   6.913  10.164   1.261  0.0478 -0.8456 -0.4910
  620MOL0     C83602   6.783  10.105   1.274 -0.1427  0.8432 -0.9062
  620MOL0     C83603   6.690  10.206   1.210  0.5292  0.9024 -0.1467
  620MOL0     C83604   6.546  10.163   1.252  0.1390  1.0207 -0.9431
  620MOL0     C83605   6.442  10.265   1.204  0.3006 -0.4730 -1.2025
  620MOL0     C83606   6.306  10.210   1.254 -1.1096  0.5846 -0.0387
  620MOL0     C83607   6.185  10.306   1.246  0.1426 -1.5694 -0.0085
  620MOL0     C83608   6.126  10.322   1.111 -1.0393  0.7673  0.6391
  620MOL0     C83609   6.016  10.421   1.106 -0.2043  0.1023  0.2815
  620MOL0    Cl83610   5.929  10.391   0.960  0.1705 -0.0831 -0.4930
  620MOL0     C83611   7.146  10.181   1.225 -0.1184  0.2919 -0.7132
  620MOL0     C83612   7.274  10.131   1.176 -0.2943  0.6460  1.1120
  620MOL0     O83613   7.614   9.927   1.034 -0.1290  0.1299  0.8086
  620MOL0     C83614   7.613  10.219   1.030 -0.0667 -0.1348 -0.0267
  620MOL0     C83615   7.605  10.357   0.997 -0.2384 -0.2008 -0.1901
  620MOL0     N83616   7.694  10.993   0.615 -0.0951  0.5283  0.6633
  620MOL0     N83617   7.801  11.055   0.655  0.3770 -0.0171 -0.3489
  620MOL0     C83618   8.043  10.302   1.270  0.1746  0.6774  0.6241
  620MOL0     C83619   8.083  10.240   1.388  0.1262 -0.0940 -0.7026
  620MOL0     C83620   8.411  10.032   1.625 -0.1096 -0.5613 -0.1911
  620MOL0     C83621   8.511   9.942   1.593 -0.3049 -0.5673 -0.2353
  620MOL0     C83622   8.568   9.852   1.685  0.1289 -0.2796  0.7451
  620MOL0     C83623   8.530   9.857   1.823  0.7561  1.1117  0.2520
  620MOL0     O83624   8.603   9.786   1.908  0.5529 -0.3223 -0.6958
  620MOL0     C83625   8.575   9.778   2.046  0.5921 -0.1399  0.1277
  620MOL0     C83626   8.691   9.701   2.104 -0.2951  0.0685 -0.3285
  620MOL0     C83627   8.663   9.652   2.246  0.5018  0.4465 -0.3806
  620MOL0     C83628   8.663   9.769   2.341  0.5264  0.7764  0.1961
  620MOL0     C83629   8.685   9.714   2.477 -0.5944 -0.0147  0.2098
  620MOL0     C83630   8.692   9.657   2.581 -0.9036 -0.8563 -0.0289
  620MOL0     C83631   8.426   9.939   1.853 -0.1288  0.6889 -0.2487
  620MOL0     C83632   8.368  10.025   1.761  0.9195  0.2476 -0.0311
  620MOL0     H83633   8.343  10.453   1.458  0.5156 -1.3494 -1.4257
  620MOL0     H83634   8.242  10.571   1.281 -0.2611 -0.6744 -1.5046
  620MOL0     H83635   8.173  10.641   1.094  0.4721 -0.1268 -0.0108
  620MOL0     H83636   8.175  10.505   0.985  1.0409  2.1584 -1.1834
  620MOL0     H83637   8.089  10.716   0.888 -0.8349  1.1951 -0.5004
  620MOL0     H83638   7.971  10.590   0.871 -0.1395 -0.9161  0.6019
  620MOL0     H83639   7.858  10.806   0.935 -2.2115 -0.8933  0.7448
  620MOL0     H83640   7.844  10.686   1.068 -1.4903  0.6033 -1.1844
  620MOL0     H83641   7.910  10.895   1.183  3.4637 -0.0953  2.1921
  620MOL0     H83642   8.020  10.774   1.193 -1.9384 -0.0142  1.3705
  620MOL0     H83643   8.081  11.008   1.150 -2.6715  0.9509 -0.3062
  620MOL0     H83644   8.174  10.888   1.049  0.0111 -1.8397  3.1149
  620MOL0     H83645   8.122  11.080   0.916  0.2239 -0.9043 -2.8291
  620MOL0     H83646   8.030  10.941   0.868  0.4266 -1.8768  0.0747
  620MOL0     H83647   7.824  11.008   0.984  1.2863 -1.3802  1.2007
  620MOL0     H83648   7.903  11.142   1.070 -0.1003  1.4007 -1.0807
  620MOL0     H83649   7.960  11.194   0.797  2.6313  0.0656  2.6301
  620MOL0     H83650   7.830  11.267   0.904  1.1126 -1.5627  2.5177
  620MOL0     H83651   7.596  11.104   0.909  3.5489 -0.3638  2.8649
  620MOL0     H83652   7.384  11.017   0.749  0.5935 -1.9478  2.1849
  620MOL0     H83653   7.445  10.928   0.606 -0.4480 -0.5278 -0.2746
  620MOL0     H83654   7.388  10.759   0.752 -0.3613 -0.2352  1.2483
  620MOL0     H83655   7.445  10.848   0.897 -2.5454 -0.4908 -0.6465
  620MOL0     H83656   7.687  10.785   0.787  0.3115  2.2331 -0.5985
  620MOL0     H83657   7.573  10.691   0.683 -1.5077  0.7305  0.7718
  620MOL0     H83658   7.610  10.651   0.979  0.7474 -1.4626  0.7693
  620MOL0     H83659   7.697  10.547   0.855 -2.6408 -2.0795 -3.1913
  620MOL0     H83660   7.346  10.335   0.787 -0.0432  1.7411  0.3405
  620MOL0     H83661   7.343  10.117   0.704 -0.5436 -0.9009 -0.5387
  620MOL0     H83662   7.384   9.974   0.819 -0.8787 -0.6903 -0.5683
  620MOL0     H83663   7.248  10.087   0.848 -0.2546 -1.6690 -0.7412
  620MOL0     H83664   7.154   9.822   1.059 -1.5473 -0.5506 -0.0045
  620MOL0     H83665   6.937   9.929   1.146 -0.6314 -1.4146  0.0255
  620MOL0     H83666   6.784  10.007   1.225  0.8080 -0.2006  1.0767
  620MOL0     H83667   6.759  10.090   1.380 -0.0921 -0.2618 -1.0408
  620MOL0     H83668   6.722  10.299   1.257  2.3128  0.0854  0.3130
  620MOL0     H83669   6.704  10.215   1.102  4.3467 -0.3374  0.1077
  620MOL0     H83670   6.549  10.160   1.362  0.0397  0.8056 -0.9465
  620MOL0     H83671   6.529  10.060   1.219 -0.5957  1.3695 -1.6590
  620MOL0     H83672   6.469  10.359   1.251  2.8974 -1.4141 -0.6348
  620MOL0     H83673   6.440  10.265   1.095  0.4264 -1.4837 -1.2196
  620MOL0     H83674   6.318  10.193   1.361 -0.3885  3.4552  0.4091
  620MOL0     H83675   6.265  10.121   1.204  0.9261  0.5021 -1.6555
  620MOL0     H83676   6.106  10.279   1.317  0.8890 -3.5559  0.1185
  620MOL0     H83677   6.212  10.406   1.282 -1.4154 -1.6851  1.6649
  620MOL0     H83678   6.085  10.227   1.074 -0.1539 -1.0929  4.0144
  620MOL0     H83679   6.208  10.350   1.044 -2.4045 -2.0483 -2.5002
  620MOL0     H83680   6.045  10.526   1.096 -0.4620 -0.0509 -4.0662
  620MOL0     H83681   5.948  10.401   1.190 -1.4739 -0.1992 -0.7695
  620MOL0     H83682   7.133  10.281   1.263 -1.3018 -0.2096  0.2722
  620MOL0     H83683   7.367  10.184   1.195  0.1160  0.5043 -0.3590
  620MOL0     H83684   7.691  10.178   1.093 -0.6544 -1.4586 -0.1197
  620MOL0     H83685   7.675  10.422   1.048  0.4985 -0.3408 -1.0013
  620MOL0     H83686   7.958  10.264   1.214  1.7782 -0.6476 -1.0804
  620MOL0     H83687   8.026  10.157   1.430  1.0269 -1.8058 -2.6944
  620MOL0     H83688   8.532   9.946   1.487 -1.6769  1.7389 -0.4830
  620MOL0     H83689   8.644   9.777   1.663  1.1781  1.2421 -1.1188
  620MOL0     H83690   8.584   9.882   2.080 -0.6767  0.4245 -1.1721
  620MOL0     H83691   8.476   9.739   2.072  0.9158  1.1234  3.8395
  620MOL0     H83692   8.783   9.759   2.119  0.1465 -1.3808  4.1307
  620MOL0     H83693   8.708   9.608   2.049 -2.2211 -0.5027 -0.0233
  620MOL0     H83694   8.729   9.571   2.280 -1.0736 -0.2325  1.2249
  620MOL0     H83695   8.565   9.603   2.248 -0.8176  2.9521 -0.4183
  620MOL0     H83696   8.564   9.815   2.340  0.3655  0.4423  0.3804
  620MOL0     H83697   8.738   9.846   2.322  0.3293  1.3551  1.6425
  620MOL0     H83698   8.694   9.603   2.673 -0.7625 -2.6918 -1.0590
  620MOL0     H83699   8.408   9.948   1.959  1.2024 -0.4216  0.1012
  620MOL0     H83700   8.293  10.098   1.792  0.7120  0.1707 -0.3475
  621MOL0     O83701   2.194   6.980   7.162 -0.2254 -0.0102  0.4518
  621MOL0     C83702   2.289   6.904   7.161  0.5484  0.3189 -0.6301
  621MOL0     O83703   2.356   6.856   7.271  0.3133 -0.1910 -0.3521
  621MOL0     C83704   2.326   6.914   7.393  0.0000  0.3025 -1.0166
  621MOL0     C83705   2.310   6.820   7.501 -0.0948 -0.7723 -0.1957
  621MOL0     C83706   2.299   6.853   7.635  0.5306 -0.5221  0.4858
  621MOL0     C83707   2.297   6.992   7.658  0.4111 -0.4754  0.6915
  621MOL0     O83708   2.285   7.047   7.784 -0.1496 -0.4148  0.0948
  621MOL0     C83709   2.180   6.976   7.867 -0.2147 -0.5194  0.4181
  621MOL0     C83710   2.204   7.022   8.016 -0.8654 -0.6080 -0.3459
  621MOL0     C83711   2.353   6.998   8.062 -0.6682  1.2506  0.0054
  621MOL0     C83712   2.386   7.066   8.202 -0.4016  0.5187 -0.0597
  621MOL0     C83713   2.508   7.011   8.277  0.4880  0.4284  0.5728
  621MOL0     C83714   2.548   7.111   8.381 -0.8935 -0.1348 -0.5474
  621MOL0     C83715   2.682   7.068   8.439  0.1515 -0.2024 -0.0673
  621MOL0     C83716   2.740   7.161   8.532  1.1660  0.0291 -0.1865
  621MOL0     N83717   2.671   7.156   8.663 -0.2183 -0.4047  0.5950
  621MOL0     C83718   2.576   7.256   8.696 -0.5511 -0.1993  0.8771
  621MOL0     C83719   2.554   7.233   8.825  0.0670 -0.1676 -0.3370
  621MOL0     C83720   2.436   7.300   8.899 -0.3692 -0.3955  0.0943
  621MOL0     C83721   2.494   7.437   8.940  0.9610 -0.7048 -0.0143
  621MOL0     C83722   2.392   7.540   8.995 -0.7532  0.2923  0.0872
  621MOL0     C83723   2.327   7.632   8.892 -0.5869  0.1652 -0.4864
  621MOL0     O83724   2.251   7.554   8.809  0.9669 -0.5793 -0.2882
  621MOL0     C83725   2.123   7.505   8.838 -0.8528  0.1739 -0.0602
  621MOL0     C83726   2.064   7.519   8.968 -0.6755 -0.6576  0.6045
  621MOL0     C83727   1.950   7.450   9.004  0.2579 -0.1486 -0.1330
  621MOL0     C83728   1.918   7.468   9.147 -0.3018 -0.5225 -0.4114
  621MOL0     C83729   1.876   7.385   8.902 -0.0933  0.2391 -0.3774
  621MOL0     C83730   1.749   7.319   8.926  0.4563 -0.2550 -0.6699
  621MOL0     O83731   1.716   7.209   8.850 -0.2540 -0.6986 -0.6013
  621MOL0     C83732   1.584   7.168   8.842 -0.1392  0.9831  0.5391
  621MOL0     C83733   1.573   7.023   8.849 -0.3756 -0.0421  0.9571
  621MOL0     C83734   1.445   6.967   8.821  0.8942  0.0358  0.1484
  621MOL0     C83735   1.332   7.044   8.786  0.4509  0.4897 -0.0047
  621MOL0     O83736   1.206   6.990   8.769 -0.8742 -0.0699  0.1000
  621MOL0     C83737   1.161   6.888   8.867  0.7377 -0.0758  0.2906
  621MOL0     C83738   1.010   6.872   8.882 -1.1012  0.0892 -0.2305
  621MOL0     C83739   0.924   6.867   8.760 -0.5223  0.2451 -0.1017
  621MOL0     C83740   0.785   6.881   8.808  1.0790  0.2785  0.5353
  621MOL0     C83741   0.683   6.849   8.701  0.2530  0.1579 -0.6980
  621MOL0     C83742   0.663   6.969   8.598 -0.7497 -0.8819 -0.2641
  621MOL0     C83743   0.533   6.959   8.522 -0.4903  0.4560  0.0383
  621MOL0     C83744   0.522   7.068   8.419 -0.0152 -0.1529  0.9211
  621MOL0    Cl83745   0.655   7.056   8.298 -0.2440 -0.5201 -0.2267
  621MOL0     C83746   1.344   7.182   8.779 -0.5470  0.9884  0.2974
  621MOL0     C83747   1.469   7.240   8.812  0.1590  1.5799  0.4108
  621MOL0     O83748   1.678   7.372   9.006  0.1475 -0.3309  0.5162
  621MOL0     C83749   1.932   7.372   8.776 -1.1534  0.1823  0.4497
  621MOL0     C83750   2.051   7.433   8.738 -0.1629 -0.8372  0.4626
  621MOL0     N83751   2.640   7.140   8.869  0.1355  0.5628 -0.4151
  621MOL0     N83752   2.714   7.093   8.783  1.0166  0.0140  0.3086
  621MOL0     C83753   2.314   7.084   7.558  0.0807  0.2400 -0.3141
  621MOL0     C83754   2.328   7.043   7.429 -0.3194  1.0125 -0.0273
  621MOL0     C83755   2.350   6.873   7.028 -0.3625  0.0175  0.5615
  621MOL0     C83756   2.475   6.813   7.019  0.0301 -1.8579 -0.5693
  621MOL0     C83757   2.539   6.793   6.900  0.8281 -0.3836  0.2625
  621MOL0     C83758   2.485   6.835   6.786  1.3616 -0.7149  0.2706
  621MOL0     O83759   2.556   6.820   6.673  0.1959  0.2941 -0.4773
  621MOL0     C83760   2.492   6.850   6.544  1.4269 -0.0072  0.2365
  621MOL0     C83761   2.595   6.851   6.437 -1.0229 -0.7831  1.6169
  621MOL0     C83762   2.707   6.963   6.455 -0.2625  0.1187 -0.7236
  621MOL0     C83763   2.827   6.915   6.371  0.0172  0.1945 -0.4525
  621MOL0     C83764   2.805   6.919   6.224 -1.0254 -0.3121  0.1177
  621MOL0     C83765   2.788   6.898   6.108 -0.4042  0.6082 -0.0417
  621MOL0     C83766   2.348   6.892   6.781  0.4952 -0.3268 -0.3472
  621MOL0     C83767   2.286   6.908   6.907 -0.0264 -0.3356 -0.2656
  621MOL0     H83768   2.311   6.717   7.467 -0.5713 -1.0238  0.5320
  621MOL0     H83769   2.262   6.778   7.703 -1.8256 -1.5870 -1.7870
  621MOL0     H83770   2.076   7.000   7.845 -0.4917  1.1589  3.0746
  621MOL0     H83771   2.202   6.869   7.867 -0.7719 -0.7375 -2.7866
  621MOL0     H83772   2.190   7.130   8.023  1.4605 -0.0378 -2.7292
  621MOL0     H83773   2.135   6.969   8.082 -2.6163  2.9541  0.9288
  621MOL0     H83774   2.366   6.889   8.067 -0.9077  1.2706  1.4715
  621MOL0     H83775   2.434   7.031   7.996 -0.1643  2.1128  1.0248
  621MOL0     H83776   2.407   7.173   8.196 -1.8372  1.1028  3.0545
  621MOL0     H83777   2.303   7.047   8.271  0.0634 -0.5123  0.2318
  621MOL0     H83778   2.483   6.915   8.322  0.8716  0.4358  0.8060
  621MOL0     H83779   2.589   6.993   8.206 -0.0435 -1.0360  0.3000
  621MOL0     H83780   2.560   7.214   8.345 -0.1539 -0.7074 -2.0119
  621MOL0     H83781   2.480   7.118   8.467  1.1926  4.4744  1.0681
  621MOL0     H83782   2.664   6.968   8.479 -1.8942 -0.1187 -0.7130
  621MOL0     H83783   2.754   7.058   8.358 -0.0937  1.0682 -0.4601
  621MOL0     H83784   2.732   7.263   8.494 -1.4186  0.0710  0.3105
  621MOL0     H83785   2.844   7.130   8.549  1.8024  1.5359 -1.0921
  621MOL0     H83786   2.534   7.334   8.633 -1.3927 -0.1932  1.4305
  621MOL0     H83787   2.354   7.313   8.828  1.2825  3.9285 -1.3502
  621MOL0     H83788   2.416   7.240   8.989  0.8045 -2.6211 -1.0694
  621MOL0     H83789   2.553   7.480   8.859  1.2137  0.8498  0.9593
  621MOL0     H83790   2.577   7.423   9.010  0.9958  2.1819  0.6439
  621MOL0     H83791   2.443   7.600   9.071 -0.0386  1.1871 -1.0751
  621MOL0     H83792   2.321   7.484   9.058 -0.9849 -0.2493 -0.6375
  621MOL0     H83793   2.400   7.683   8.829  0.1313  0.8191  0.8286
  621MOL0     H83794   2.267   7.706   8.945  0.9706 -0.1118  1.8385
  621MOL0     H83795   2.123   7.574   9.042  1.8484  1.3647 -2.6506
  621MOL0     H83796   1.817   7.434   9.173 -1.1277  1.7085 -0.4420
  621MOL0     H83797   1.984   7.406   9.208  4.6502  2.7259 -1.9043
  621MOL0     H83798   1.932   7.572   9.177  1.6822 -0.4775 -1.3725
  621MOL0     H83799   1.666   6.968   8.865  1.3138  2.4723  0.3476
  621MOL0     H83800   1.430   6.861   8.808 -1.7882  0.6793 -4.1176
  621MOL0     H83801   1.203   6.792   8.838  2.1691  0.1426  1.4962
  621MOL0     H83802   1.218   6.910   8.958 -0.4918 -1.7771  1.5074
  621MOL0     H83803   1.009   6.778   8.940  1.3068 -0.7209 -1.3655
  621MOL0     H83804   0.986   6.950   8.955  1.4787  0.6210  0.1690
  621MOL0     H83805   0.932   6.767   8.718 -2.0260  0.0647 -0.0120
  621MOL0     H83806   0.940   6.951   8.692 -3.3090  0.3870 -0.7073
  621MOL0     H83807   0.767   6.809   8.889 -0.1157 -2.2826 -1.8519
  621MOL0     H83808   0.772   6.984   8.842 -0.5548  0.5985 -0.9319
  621MOL0     H83809   0.585   6.835   8.748  1.0764 -1.1447  0.7139
  621MOL0     H83810   0.710   6.764   8.639  3.7419 -0.7484  1.7350
  621MOL0     H83811   0.651   7.055   8.663  1.5500 -1.4915  1.0815
  621MOL0     H83812   0.748   6.979   8.530 -0.0885 -1.3742  0.4706
  621MOL0     H83813   0.448   6.983   8.587 -1.5571 -0.7374 -0.8782
  621MOL0     H83814   0.526   6.859   8.479 -1.5495  0.3029  0.5339
  621MOL0     H83815   0.524   7.166   8.467 -3.0359  0.3681  0.1916
  621MOL0     H83816   0.431   7.040   8.365 -1.9913 -0.2601  4.0781
  621MOL0     H83817   1.260   7.244   8.749 -1.3316 -1.3310 -2.7907
  621MOL0     H83818   1.496   7.345   8.799 -0.2711  1.3185 -3.8443
  621MOL0     H83819   1.881   7.321   8.695 -0.7281  0.8706 -0.2684
  621MOL0     H83820   2.087   7.434   8.636 -0.6527  3.6042  0.1248
  621MOL0     H83821   2.312   7.190   7.581  1.0308  0.0365  0.8407
  621MOL0     H83822   2.338   7.112   7.346  1.6187  0.4204 -0.3262
  621MOL0     H83823   2.527   6.771   7.104  0.4581 -1.3291 -0.5638
  621MOL0     H83824   2.633   6.741   6.894  0.3261 -1.6804  2.3972
  621MOL0     H83825   2.417   6.775   6.518  0.6590  0.3153  1.4281
  621MOL0     H83826   2.443   6.947   6.555  0.2292 -0.2664 -2.1954
  621MOL0     H83827   2.538   6.864   6.345 -1.7440 -0.0083  2.1575
  621MOL0     H83828   2.639   6.753   6.416  0.2280 -0.0130  0.4989
  621MOL0     H83829   2.741   6.979   6.558 -1.2394 -2.3753  0.0564
  621MOL0     H83830   2.666   7.059   6.421 -1.2551  0.4610  1.2686
  621MOL0     H83831   2.846   6.812   6.401  1.0519  0.6428  0.5050
  621MOL0     H83832   2.910   6.978   6.403 -0.6895  1.3041 -0.7337
  621MOL0     H83833   2.763   6.867   6.008 -0.0586 -2.5226  0.7222
  621MOL0     H83834   2.298   6.925   6.690 -2.2913  0.1413  1.2450
  621MOL0     H83835   2.187   6.953   6.902  0.5201  1.1947  1.6821
  622MOL0     O83836   9.903  10.011   0.130 -0.5533  0.5417  0.1078
  622MOL0     C83837  10.011   9.980   0.171 -1.3667 -0.0152  0.4186
  622MOL0     O83838  10.124   9.999   0.114  1.0198 -0.4217  0.2561
  622MOL0     C83839  10.143  10.038  -0.016  0.0750  0.6419  0.2982
  622MOL0     C83840  10.222  10.148  -0.046  0.3590  0.2548  0.6979
  622MOL0     C83841  10.258  10.175  -0.179 -0.2632 -0.3752 -0.5086
  622MOL0     C83842  10.224  10.088  -0.282  0.9269  0.3604  0.1681
  622MOL0     O83843  10.272  10.123  -0.409 -0.5874  0.5188  0.6692
  622MOL0     C83844  10.212  10.070  -0.531  0.2637  1.2117 -0.0623
  622MOL0     C83845  10.322   9.973  -0.589 -0.0393  0.4661 -0.1506
  622MOL0     C83846  10.429  10.050  -0.665 -0.4526 -0.0743 -0.9015
  622MOL0     C83847  10.359  10.106  -0.791 -0.6469 -0.4037  1.4663
  622MOL0     C83848  10.455  10.114  -0.918  0.4471 -1.1541  0.6542
  622MOL0     C83849  10.568  10.199  -0.880  0.5342 -0.4185 -0.1555
  622MOL0     C83850  10.617  10.300  -0.993  0.2890  0.0492 -0.5396
  622MOL0     C83851  10.730  10.243  -1.075 -0.5506  0.2704 -0.1079
  622MOL0     N83852  10.691  10.124  -1.165 -0.0985 -0.3727 -0.0588
  622MOL0     C83853  10.626  10.123  -1.282  0.4104  0.0212 -0.3371
  622MOL0     C83854  10.624   9.989  -1.316  0.5504  0.6994  0.5444
  622MOL0     C83855  10.572   9.932  -1.452 -0.7166  0.0047 -0.3203
  622MOL0     C83856  10.522   9.787  -1.442 -0.8385  0.5115 -0.3857
  622MOL0     C83857  10.425   9.756  -1.555  0.0486 -0.2365  0.1962
  622MOL0     C83858  10.493   9.724  -1.694 -0.4687 -1.1201 -0.4529
  622MOL0     O83859  10.457   9.821  -1.796  0.4457 -0.4371  0.4689
  622MOL0     C83860  10.333   9.810  -1.853  0.3043 -0.8472  0.3052
  622MOL0     C83861  10.305   9.900  -1.964 -0.2071 -0.8978  0.3623
  622MOL0     C83862  10.175   9.908  -2.036 -0.9765  0.2015 -0.3733
  622MOL0     C83863  10.174  10.003  -2.154  0.2833 -0.5251  0.5703
  622MOL0     C83864  10.063   9.840  -1.972  0.2430 -0.7490  0.5962
  622MOL0     C83865   9.925   9.858  -2.023  1.3137 -0.1182  0.7206
  622MOL0     O83866   9.903   9.893  -2.151 -0.3587 -0.0461 -0.4528
  622MOL0     C83867   9.772   9.902  -2.212  0.6049 -0.2009 -0.1726
  622MOL0     C83868   9.648   9.852  -2.164 -0.8076  0.0515  0.0384
  622MOL0     C83869   9.527   9.874  -2.227  0.1358  0.3610 -0.3743
  622MOL0     C83870   9.526   9.934  -2.354 -0.3311 -0.7647  0.2127
  622MOL0     O83871   9.398   9.958  -2.415 -0.6138 -0.1917  0.4614
  622MOL0     C83872   9.384  10.068  -2.502  0.4464  0.2575 -0.6069
  622MOL0     C83873   9.240  10.072  -2.568 -0.7718 -0.5598  0.0387
  622MOL0     C83874   9.202   9.970  -2.663  0.0283  0.5078 -0.5619
  622MOL0     C83875   9.168   9.831  -2.591  0.0426  0.8741 -0.5053
  622MOL0     C83876   9.082   9.721  -2.653 -0.4468  0.1046  0.1894
  622MOL0     C83877   9.101   9.600  -2.572  0.0462 -0.1224 -0.4008
  622MOL0     C83878   9.030   9.494  -2.645 -0.1577 -0.0892 -0.0434
  622MOL0     C83879   9.106   9.367  -2.653 -0.9679  0.1968  0.0800
  622MOL0    Cl83880   9.266   9.392  -2.744  0.0584 -0.5584 -0.1715
  622MOL0     C83881   9.643   9.981  -2.407 -0.0048 -0.3653 -0.5922
  622MOL0     C83882   9.765   9.972  -2.335 -0.6039 -0.3041  0.4470
  622MOL0     O83883   9.837   9.851  -1.940  0.5173 -0.4376  0.5255
  622MOL0     C83884  10.092   9.760  -1.857 -0.7274 -0.4566  0.2257
  622MOL0     C83885  10.221   9.739  -1.801 -0.3097 -0.3739  0.4630
  622MOL0     N83886  10.684   9.914  -1.216  0.0199  0.6771 -0.5322
  622MOL0     N83887  10.732  10.000  -1.129 -0.6341 -0.2064  0.1966
  622MOL0     C83888  10.135   9.987  -0.255 -1.0239  0.2527 -0.6846
  622MOL0     C83889  10.094   9.962  -0.123 -0.1433 -0.2930  0.8167
  622MOL0     C83890  10.022   9.933   0.307  0.3814 -1.1943 -0.2261
  622MOL0     C83891   9.900   9.925   0.393 -0.6026 -0.0623  0.6701
  622MOL0     C83892   9.910   9.889   0.529 -0.3765 -0.3784  0.2373
  622MOL0     C83893  10.036   9.857   0.589  0.1913  0.0452  0.7272
  622MOL0     O83894  10.033   9.843   0.726 -0.3909 -0.8356 -0.2029
  622MOL0     C83895  10.146   9.790   0.790 -0.3208 -0.4242 -0.0067
  622MOL0     C83896  10.112   9.752   0.941 -1.0431  1.2789  1.4321
  622MOL0     C83897  10.004   9.846   1.003  0.7817 -0.9012  0.8628
  622MOL0     C83898   9.975   9.810   1.147  0.0437  0.6202 -0.4843
  622MOL0     C83899   9.900   9.677   1.143 -0.1262 -0.9905 -0.2557
  622MOL0     C83900   9.838   9.573   1.140  0.1686  0.7905  1.2458
  622MOL0     C83901  10.147   9.839   0.490  0.3818 -0.5623 -0.5604
  622MOL0     C83902  10.147   9.877   0.360  0.5396 -0.4061  0.6503
  622MOL0     H83903  10.242  10.212   0.039  0.2539  0.4102  0.6064
  622MOL0     H83904  10.327  10.250  -0.216  0.5834 -0.7965  0.1686
  622MOL0     H83905  10.123  10.011  -0.511  2.7307 -2.8105  0.0723
  622MOL0     H83906  10.188  10.161  -0.588 -1.1165  1.8603  1.4887
  622MOL0     H83907  10.369   9.912  -0.512  0.8343 -0.5250 -1.4385
  622MOL0     H83908  10.277   9.900  -0.656 -0.7261 -0.2800  1.0817
  622MOL0     H83909  10.463  10.130  -0.599  2.8270  0.6332 -3.2088
  622MOL0     H83910  10.514   9.983  -0.682 -0.0964 -0.5158  2.0695
  622MOL0     H83911  10.279  10.044  -0.831 -0.4975  1.0458 -1.3055
  622MOL0     H83912  10.322  10.204  -0.760 -1.9522  0.0296 -1.1639
  622MOL0     H83913  10.495  10.020  -0.956  0.8337 -0.4163 -0.8406
  622MOL0     H83914  10.401  10.160  -1.001  1.5785 -0.5838  0.2159
  622MOL0     H83915  10.542  10.246  -0.785  2.5274 -0.6428  0.5510
  622MOL0     H83916  10.654  10.138  -0.851 -0.6152 -1.5540  0.9673
  622MOL0     H83917  10.538  10.325  -1.065 -0.0537 -0.4609 -0.3454
  622MOL0     H83918  10.647  10.390  -0.938 -3.8045 -0.4841  3.1644
  622MOL0     H83919  10.811  10.222  -1.004 -0.0487 -0.6328 -0.9184
  622MOL0     H83920  10.780  10.319  -1.135  1.2224 -1.3482 -0.7866
  622MOL0     H83921  10.576  10.196  -1.345  1.6541  2.0703  0.9634
  622MOL0     H83922  10.499  10.004  -1.491  0.2803  1.3487  0.2213
  622MOL0     H83923  10.657   9.940  -1.519 -1.7584  4.0589 -1.4759
  622MOL0     H83924  10.476   9.772  -1.344 -2.3315  1.8853 -0.8329
  622MOL0     H83925  10.605   9.716  -1.447 -1.7610 -0.5944 -0.3294
  622MOL0     H83926  10.350   9.834  -1.566 -1.7071 -1.9919 -0.8824
  622MOL0     H83927  10.373   9.665  -1.523  0.6645 -0.5327  0.3758
  622MOL0     H83928  10.452   9.626  -1.723  2.8759 -2.1550 -2.2770
  622MOL0     H83929  10.602   9.731  -1.692 -0.5165 -0.4387 -0.3286
  622MOL0     H83930  10.374   9.975  -2.002 -0.9600  0.3974  1.4723
  622MOL0     H83931  10.150   9.954  -2.249  2.6918 -1.8534  0.5602
  622MOL0     H83932  10.106  10.086  -2.133 -0.0813 -1.1474  1.9658
  622MOL0     H83933  10.267  10.053  -2.182  0.1886 -1.6847 -2.1366
  622MOL0     H83934   9.650   9.794  -2.073  4.0591  0.6965  0.6210
  622MOL0     H83935   9.440   9.844  -2.171  0.2853  2.3212  1.0339
  622MOL0     H83936   9.388  10.157  -2.438 -2.3934 -1.2694  1.9486
  622MOL0     H83937   9.457  10.064  -2.583 -0.5666  0.0746 -1.5363
  622MOL0     H83938   9.181  10.068  -2.476  3.3350 -1.8445  2.9453
  622MOL0     H83939   9.225  10.166  -2.621  0.6447 -0.5414 -0.3796
  622MOL0     H83940   9.281   9.941  -2.732  0.1520  3.1908 -1.6592
  622MOL0     H83941   9.120  10.017  -2.719  1.4627  2.8724 -0.7922
  622MOL0     H83942   9.267   9.792  -2.567 -0.5491  0.2227  1.0180
  622MOL0     H83943   9.109   9.855  -2.502  0.1443  0.6503 -0.3731
  622MOL0     H83944   9.119   9.697  -2.753 -0.9445  0.0721  0.0083
  622MOL0     H83945   8.976   9.744  -2.668 -0.4685  0.1267  0.3811
  622MOL0     H83946   9.206   9.573  -2.564 -0.2171 -1.2915 -0.7386
  622MOL0     H83947   9.062   9.617  -2.471  0.0299  1.0562 -0.5887
  622MOL0     H83948   8.997   9.521  -2.745  1.9329 -3.3961 -1.8050
  622MOL0     H83949   8.934   9.484  -2.593  0.2304 -2.3324  0.3806
  622MOL0     H83950   9.052   9.282  -2.695  0.2929  0.4270 -2.1572
  622MOL0     H83951   9.138   9.341  -2.552 -0.8296  1.5147  0.4050
  622MOL0     H83952   9.653  10.027  -2.505  3.8963  2.1644  0.7858
  622MOL0     H83953   9.857  10.009  -2.378  0.2448  0.2188  2.6393
  622MOL0     H83954  10.008   9.707  -1.814 -0.9444 -1.0869 -0.9238
  622MOL0     H83955  10.227   9.683  -1.709 -0.2345  0.7874  1.1837
  622MOL0     H83956  10.103   9.903  -0.315  3.0894 -1.2995 -1.0125
  622MOL0     H83957  10.032   9.875  -0.106  0.7262 -0.8975  0.9237
  622MOL0     H83958   9.807   9.943   0.341  0.3654 -1.2260 -1.6695
  622MOL0     H83959   9.814   9.894   0.580  0.0670 -0.2884  1.0710
  622MOL0     H83960  10.191   9.705   0.740  1.3321  0.5451 -0.2355
  622MOL0     H83961  10.226   9.865   0.795  0.0333 -0.8519  0.9134
  622MOL0     H83962  10.199   9.754   1.009 -1.2504 -0.8846  1.8289
  622MOL0     H83963  10.071   9.651   0.934 -1.5259  1.2289  3.9150
  622MOL0     H83964   9.906   9.844   0.954  0.5668  2.3040  0.9563
  622MOL0     H83965  10.028   9.951   0.986  1.8842 -1.2007  0.4587
  622MOL0     H83966   9.906   9.888   1.181 -1.4910  0.2084 -2.4720
  622MOL0     H83967  10.068   9.795   1.202 -0.2877 -0.2150 -0.1412
  622MOL0     H83968   9.771   9.490   1.153  0.6878  0.3708  1.2808
  622MOL0     H83969  10.235   9.795   0.536  0.7399 -0.1372 -0.8330
  622MOL0     H83970  10.239   9.888   0.302  0.0036 -0.3848 -0.2053
  623MOL0     O83971   9.792   0.486   3.240 -0.2138 -0.5862 -0.0927
  623MOL0     C83972   9.724   0.582   3.277 -0.2136 -0.0170 -0.2558
  623MOL0     O83973   9.637   0.582   3.383 -0.2210  0.0410  0.1676
  623MOL0     C83974   9.640   0.480   3.481 -0.1800  1.1854  0.6560
  623MOL0     C83975   9.596   0.507   3.615 -0.9046 -0.4010  0.2526
  623MOL0     C83976   9.598   0.413   3.716 -0.0352 -1.0258  0.4230
  623MOL0     C83977   9.623   0.278   3.682 -0.2756 -0.5391 -0.2627
  623MOL0     O83978   9.618   0.190   3.784  0.0006  0.1358  0.3693
  623MOL0     C83979   9.602   0.049   3.748  1.0519  0.5547  0.8786
  623MOL0     C83980   9.568  -0.047   3.864  0.5899 -0.6754  0.2254
  623MOL0     C83981   9.671  -0.032   3.980 -0.1381 -0.2384  0.1682
  623MOL0     C83982   9.789  -0.112   3.936  0.3213  0.4448  1.0197
  623MOL0     C83983   9.904  -0.101   4.031  0.6692  1.0577  0.0431
  623MOL0     C83984  10.001  -0.213   3.981  1.1555  1.0582 -0.1853
  623MOL0     C83985  10.137  -0.188   4.037  0.2229 -0.1789 -1.0420
  623MOL0     C83986  10.236  -0.276   3.950 -0.5677 -0.2004  0.0120
  623MOL0     N83987  10.372  -0.249   3.993  0.6853 -0.6337 -0.4914
  623MOL0     C83988  10.419  -0.271   4.120  0.0022 -0.1319  0.1287
  623MOL0     C83989  10.551  -0.240   4.122  0.2139  0.0604  0.4493
  623MOL0     C83990  10.631  -0.240   4.252  0.1637 -0.5475 -1.5088
  623MOL0     C83991  10.743  -0.134   4.267 -1.1973 -0.3215  0.7484
  623MOL0     C83992  10.654  -0.010   4.306 -0.1107  0.1673 -0.5314
  623MOL0     C83993  10.731   0.132   4.312  0.1863 -0.5638 -0.2937
  623MOL0     O83994  10.857   0.103   4.374 -0.2186  0.1817 -0.0509
  623MOL0     C83995  10.892   0.147   4.496  0.7095 -1.2614 -0.2503
  623MOL0     C83996  10.968   0.056   4.566 -1.4510 -0.0945 -0.4420
  623MOL0     C83997  11.013   0.092   4.694 -0.7525 -0.4030 -0.7876
  623MOL0     C83998  11.102   0.002   4.782 -0.6508 -0.7750  0.4478
  623MOL0     C83999  10.982   0.224   4.743 -0.8755  0.3346  0.1760
  623MOL0     C84000  11.032   0.281   4.869  0.3944 -0.4177  0.0413
  623MOL0     O84001  11.045   0.424   4.879 -1.4976  0.0814 -0.2859
  623MOL0     C84002  11.051   0.498   5.000  0.7639 -0.5576  0.1676
  623MOL0     C84003  11.100   0.631   4.997  0.2634 -0.9473 -0.6340
  623MOL0     C84004  11.094   0.718   5.115  0.0501  0.3360 -0.0321
  623MOL0     C84005  11.050   0.662   5.231  1.7042 -0.3879 -0.5886
  623MOL0     O84006  11.054   0.748   5.343 -0.6322  0.7193  0.3857
  623MOL0     C84007  11.012   0.713   5.474  0.7503 -0.0559 -0.9395
  623MOL0     C84008  11.073   0.820   5.562 -0.0439 -0.7145  0.8053
  623MOL0     C84009  11.065   0.797   5.720 -0.2187  0.7068  1.1102
  623MOL0     C84010  11.123   0.908   5.809  0.0228 -0.0787 -0.2166
  623MOL0     C84011  11.109   0.865   5.959  0.3571  0.1308 -0.9069
  623MOL0     C84012  11.200   0.959   6.054 -0.5518  0.5589 -0.3244
  623MOL0     C84013  11.220   0.881   6.189  0.6543 -0.0649 -0.2184
  623MOL0     C84014  11.274   0.737   6.196 -0.4599  0.0545  0.2699
  623MOL0    Cl84015  11.294   0.703   6.370  0.2178 -0.0978 -0.3328
  623MOL0     C84016  11.025   0.522   5.243  0.0946 -0.6371  0.8209
  623MOL0     C84017  11.029   0.442   5.129  0.3558  0.1890  0.3672
  623MOL0     O84018  11.062   0.205   4.960  0.2595 -0.2771 -0.7749
  623MOL0     C84019  10.924   0.316   4.661  0.8687 -0.5969  0.4017
  623MOL0     C84020  10.866   0.278   4.542  0.7103 -0.1924 -1.0389
  623MOL0     N84021  10.577  -0.179   4.001 -0.5260  0.5363  0.2478
  623MOL0     N84022  10.469  -0.189   3.929 -0.4472  0.1862 -0.0754
  623MOL0     C84023   9.663   0.244   3.552 -0.2701  0.4879  0.2363
  623MOL0     C84024   9.679   0.347   3.462 -0.3121  0.6682 -0.7708
  623MOL0     C84025   9.750   0.714   3.217  0.1034  0.2327  0.2686
  623MOL0     C84026   9.787   0.717   3.085  0.5299 -0.1504 -0.0320
  623MOL0     C84027   9.816   0.843   3.027 -0.5188  0.3836 -0.7681
  623MOL0     C84028   9.829   0.957   3.106 -0.1940 -0.1226  0.7289
  623MOL0     O84029   9.879   1.070   3.045 -0.3633  0.2736  0.3885
  623MOL0     C84030   9.973   1.139   3.126  1.0634 -0.1725  0.3215
  623MOL0     C84031  10.019   1.273   3.071 -0.9360  0.1111 -0.1016
  623MOL0     C84032   9.900   1.369   3.081  0.6865  0.7271  0.2823
  623MOL0     C84033   9.941   1.495   3.157  0.3023  0.3086  0.4628
  623MOL0     C84034  10.071   1.558   3.100  0.3736  0.1285  0.5571
  623MOL0     C84035  10.163   1.611   3.054  0.0314 -0.3624  0.1280
  623MOL0     C84036   9.771   0.954   3.231 -0.0101  0.0927 -0.3310
  623MOL0     C84037   9.730   0.833   3.286  0.4834  0.1336 -0.1413
  623MOL0     H84038   9.572   0.607   3.649  1.1611 -0.6364  2.6325
  623MOL0     H84039   9.584   0.438   3.821 -0.9321 -0.6653  0.2287
  623MOL0     H84040   9.509   0.040   3.689  0.8140 -1.0669  1.4599
  623MOL0     H84041   9.688   0.006   3.697  1.6240  2.9937 -0.3967
  623MOL0     H84042   9.467  -0.016   3.893  0.6816 -2.2288  2.4016
  623MOL0     H84043   9.572  -0.152   3.834 -0.5361 -0.9620  1.0375
  623MOL0     H84044   9.700   0.073   3.986  1.9657 -0.5404 -2.6459
  623MOL0     H84045   9.631  -0.067   4.076  0.9427 -0.6176  0.4882
  623MOL0     H84046   9.756  -0.216   3.933  2.0771 -0.3139 -4.8881
  623MOL0     H84047   9.823  -0.102   3.832 -4.7160  0.6534 -0.8665
  623MOL0     H84048   9.949  -0.001   4.028 -1.4020  2.0303 -0.4320
  623MOL0     H84049   9.879  -0.114   4.136 -0.5165  0.0112 -0.3400
  623MOL0     H84050   9.963  -0.312   4.007  1.1170  1.1569  0.1436
  623MOL0     H84051  10.012  -0.211   3.872  0.2173 -1.9689 -0.4189
  623MOL0     H84052  10.168  -0.083   4.039  1.3215 -0.4959  1.1462
  623MOL0     H84053  10.123  -0.224   4.139  1.0231  0.8714 -0.5457
  623MOL0     H84054  10.233  -0.257   3.842  0.3484 -2.3378 -0.4551
  623MOL0     H84055  10.202  -0.379   3.963 -3.7817  0.6949 -0.4938
  623MOL0     H84056  10.366  -0.314   4.205  0.4502  2.3684  1.7738
  623MOL0     H84057  10.560  -0.232   4.334  0.6802  2.0971 -1.2347
  623MOL0     H84058  10.688  -0.333   4.267  0.9300  0.3339  1.6676
  623MOL0     H84059  10.790  -0.122   4.169 -1.6221 -0.2970  0.5436
  623MOL0     H84060  10.825  -0.155   4.336 -0.5103 -0.2256 -0.0312
  623MOL0     H84061  10.606  -0.027   4.403 -0.4292  0.5211 -0.6236
  623MOL0     H84062  10.566   0.005   4.242 -0.6126 -2.1180 -0.4386
  623MOL0     H84063  10.677   0.207   4.370  2.6976  0.7528  0.4790
  623MOL0     H84064  10.732   0.172   4.210  2.5898 -1.5504 -0.7166
  623MOL0     H84065  10.999  -0.036   4.518  2.3263  0.2089  1.0446
  623MOL0     H84066  11.057  -0.017   4.880  0.7094 -2.7541  0.7726
  623MOL0     H84067  11.124  -0.098   4.743 -1.8612 -0.8561 -0.0680
  623MOL0     H84068  11.196   0.054   4.803 -3.0903  3.1324  2.8271
  623MOL0     H84069  11.126   0.671   4.899  1.8608 -0.1110  0.1113
  623MOL0     H84070  11.136   0.819   5.115 -1.1472  0.8781  1.8099
  623MOL0     H84071  10.904   0.714   5.492  0.8227  1.8321 -0.3564
  623MOL0     H84072  11.057   0.617   5.500  1.9515  0.7426  0.0408
  623MOL0     H84073  11.179   0.835   5.538 -0.1834 -0.4056  0.3941
  623MOL0     H84074  11.014   0.911   5.549  0.3817 -0.0467  3.0077
  623MOL0     H84075  11.114   0.700   5.732  0.5432  0.5916 -2.1168
  623MOL0     H84076  10.960   0.791   5.751 -0.6784  1.5792 -0.1747
  623MOL0     H84077  11.225   0.932   5.779  0.0657  2.1330  1.4445
  623MOL0     H84078  11.060   0.996   5.791 -0.5329 -0.6461 -1.1503
  623MOL0     H84079  11.137   0.760   5.964  1.2565  0.3651 -0.8053
  623MOL0     H84080  11.011   0.873   6.007  0.9769 -3.1336  1.2321
  623MOL0     H84081  11.293   0.978   5.999 -1.1039  2.7731 -0.5667
  623MOL0     H84082  11.146   1.052   6.071  1.0296  1.8154 -1.8439
  623MOL0     H84083  11.131   0.887   6.252  0.4422  1.7283 -0.6274
  623MOL0     H84084  11.285   0.951   6.243 -0.7303  0.6443  0.5826
  623MOL0     H84085  11.372   0.741   6.149  1.3364  2.6447  3.7667
  623MOL0     H84086  11.196   0.675   6.150 -2.2985  1.3298  1.4840
  623MOL0     H84087  11.009   0.491   5.346  4.1332  3.1133  2.9403
  623MOL0     H84088  11.010   0.338   5.154 -0.7205  0.4906  0.8719
  623MOL0     H84089  10.903   0.419   4.690 -1.0559  0.2310 -3.2596
  623MOL0     H84090  10.810   0.349   4.481  1.4433 -0.2528 -1.8011
  623MOL0     H84091   9.683   0.140   3.531  0.6402  0.4272  1.3477
  623MOL0     H84092   9.714   0.318   3.364  0.6668 -0.1928 -0.1942
  623MOL0     H84093   9.775   0.635   3.015 -2.2378 -1.6142  1.9988
  623MOL0     H84094   9.838   0.849   2.921 -1.9680 -2.1908 -1.2894
  623MOL0     H84095   9.932   1.163   3.224  0.1343  1.6768 -0.4750
  623MOL0     H84096  10.056   1.069   3.143 -0.5566 -2.2340  0.1705
  623MOL0     H84097  10.051   1.257   2.968 -1.0806 -0.3107 -0.0847
  623MOL0     H84098  10.106   1.308   3.128 -0.2381 -1.0315 -0.4162
  623MOL0     H84099   9.810   1.327   3.128 -0.6809  2.4286 -0.6724
  623MOL0     H84100   9.880   1.411   2.982 -0.4212 -1.6631 -0.5993
  623MOL0     H84101   9.951   1.473   3.264  3.0727  0.5213  0.3220
  623MOL0     H84102   9.859   1.566   3.146  0.0768 -0.2968 -2.7131
  623MOL0     H84103  10.246   1.660   3.008 -1.2522  0.5350 -1.3492
  623MOL0     H84104   9.749   1.045   3.286 -1.0736  0.6665 -1.6256
  623MOL0     H84105   9.679   0.813   3.379 -1.0886 -2.1461 -1.4122
  624MOL0     O84106   9.614   3.348   9.904  0.4175  0.0271 -0.2647
  624MOL0     C84107   9.645   3.465   9.869 -0.3551 -1.2564 -1.1592
  624MOL0     O84108   9.605   3.588   9.937 -0.8277  1.3968  0.5644
  624MOL0     C84109   9.520   3.572  10.038  0.0464 -0.1533  0.9582
  624MOL0     C84110   9.561   3.590  10.169  0.1602  0.2988 -0.1878
  624MOL0     C84111   9.462   3.620  10.264  0.1258 -0.4033  0.1201
  624MOL0     C84112   9.330   3.638  10.230 -0.1900  1.0140 -0.5020
  624MOL0     O84113   9.262   3.703  10.326 -0.3645  0.4255 -0.0761
  624MOL0     C84114   9.137   3.761  10.295 -0.3416 -0.2408  0.2690
  624MOL0     C84115   9.082   3.815  10.418  1.0171  0.2640  0.6360
  624MOL0     C84116   9.006   3.949  10.393  0.0014  0.7026 -0.7756
  624MOL0     C84117   8.928   3.975  10.526 -0.8533 -0.4222 -0.6961
  624MOL0     C84118   8.801   3.895  10.535 -0.7424 -0.1917  0.7973
  624MOL0     C84119   8.695   3.936  10.432 -0.0104 -0.4950  0.7148
  624MOL0     C84120   8.554   3.867  10.455 -0.0208  0.4999 -0.3930
  624MOL0     C84121   8.460   3.895  10.343 -1.3076 -0.1881 -0.5584
  624MOL0     N84122   8.338   3.819  10.372  0.2297 -0.1096  0.4124
  624MOL0     C84123   8.325   3.679  10.378  0.3864  0.0894 -0.6517
  624MOL0     C84124   8.196   3.650  10.374  0.8348 -0.2327  0.4939
  624MOL0     C84125   8.121   3.519  10.370  0.1113  0.1197  0.2320
  624MOL0     C84126   8.057   3.473  10.499 -0.2644  0.0259  0.0352
  624MOL0     C84127   7.942   3.567  10.545 -0.1328 -0.0619  0.6476
  624MOL0     C84128   7.856   3.515  10.657  0.6001 -0.0038 -0.6575
  624MOL0     O84129   7.923   3.534  10.778  0.7462 -0.1975  0.0264
  624MOL0     C84130   7.878   3.639  10.850  0.2160 -0.8336 -0.3122
  624MOL0     C84131   7.818   3.757  10.801  0.4894 -0.4076  0.0103
  624MOL0     C84132   7.777   3.857  10.882 -0.1753  0.9399  0.1073
  624MOL0     C84133   7.699   3.973  10.825 -0.5328 -0.0997 -0.3371
  624MOL0     C84134   7.793   3.843  11.022 -0.1782  0.5180 -0.9042
  624MOL0     C84135   7.753   3.945  11.131 -0.2833 -0.1287  0.0933
  624MOL0     O84136   7.749   3.892  11.258 -0.4749 -0.7282 -0.1362
  624MOL0     C84137   7.683   3.965  11.352 -0.0668 -0.7252  0.3782
  624MOL0     C84138   7.750   4.003  11.459 -0.9472  0.7702 -0.3684
  624MOL0     C84139   7.687   4.059  11.570 -0.2178  0.3552 -0.2866
  624MOL0     C84140   7.550   4.093  11.561 -0.1038 -0.5305  0.1412
  624MOL0     O84141   7.482   4.125  11.677  0.0607  0.1722 -0.3064
  624MOL0     C84142   7.525   4.064  11.801  0.9858 -0.2045 -0.2719
  624MOL0     C84143   7.427   4.080  11.911 -0.3582  0.2026  0.5017
  624MOL0     C84144   7.470   4.002  12.033  0.0571 -0.8327  0.4480
  624MOL0     C84145   7.365   4.023  12.147 -0.2435 -0.1494  0.1277
  624MOL0     C84146   7.381   3.921  12.269  0.0927 -0.8439 -0.0850
  624MOL0     C84147   7.278   3.955  12.372  0.0780  0.4519  0.0214
  624MOL0     C84148   7.271   3.858  12.481 -0.5377 -0.0263 -0.1669
  624MOL0     C84149   7.158   3.895  12.580  0.1813 -0.4063  0.4647
  624MOL0    Cl84150   7.123   3.770  12.705 -0.0594 -0.0069  0.0997
  624MOL0     C84151   7.482   4.070  11.442  0.2393 -0.6492  0.6919
  624MOL0     C84152   7.541   4.003  11.336 -0.4524  0.1132 -1.0405
  624MOL0     O84153   7.709   4.053  11.095  0.1356  0.1752  1.1558
  624MOL0     C84154   7.858   3.730  11.070  0.5676  0.9437 -0.2450
  624MOL0     C84155   7.898   3.627  10.987 -1.0974  0.2695 -0.2045
  624MOL0     N84156   8.120   3.766  10.349 -0.8684  0.5464 -0.2144
  624MOL0     N84157   8.205   3.863  10.357  0.8910  0.3141 -0.1119
  624MOL0     C84158   9.281   3.594  10.105 -0.1226  0.2061  0.0954
  624MOL0     C84159   9.379   3.558  10.007  0.2662 -0.9509  0.3640
  624MOL0     C84160   9.719   3.477   9.738 -1.2150 -0.2713 -0.0668
  624MOL0     C84161   9.761   3.354   9.675  1.0877 -0.7649 -0.6249
  624MOL0     C84162   9.835   3.360   9.554 -0.7740 -0.1324  0.5258
  624MOL0     C84163   9.872   3.486   9.499  0.2983 -0.1436 -0.5387
  624MOL0     O84164   9.950   3.497   9.388 -0.1532  0.3086  0.7802
  624MOL0     C84165  10.076   3.542   9.412  0.2159 -0.9176  0.0010
  624MOL0     C84166  10.129   3.643   9.306 -1.0289  0.3881 -0.6188
  624MOL0     C84167  10.129   3.598   9.158 -0.2170 -0.7994  0.4398
  624MOL0     C84168  10.159   3.710   9.077  0.5168 -0.0804  0.2752
  624MOL0     C84169  10.156   3.691   8.935  0.0446 -0.0055  0.5962
  624MOL0     C84170  10.161   3.661   8.814 -0.7727  0.1381 -0.7759
  624MOL0     C84171   9.822   3.601   9.555  0.6956 -0.1285  0.0257
  624MOL0     C84172   9.749   3.599   9.677 -0.0577 -0.5173  1.0287
  624MOL0     H84173   9.667   3.592  10.192 -0.1690 -1.6040  1.8611
  624MOL0     H84174   9.488   3.656  10.363 -2.5379 -0.3011  0.8569
  624MOL0     H84175   9.162   3.842  10.226 -0.7863 -0.5485 -0.2595
  624MOL0     H84176   9.068   3.690  10.248 -0.2698  0.2935 -0.6604
  624MOL0     H84177   9.012   3.740  10.455 -2.7785  2.8217 -0.7151
  624MOL0     H84178   9.165   3.829  10.487  2.2674 -0.1963 -0.7094
  624MOL0     H84179   9.081   4.027  10.381  0.3695  0.3748 -0.6227
  624MOL0     H84180   8.940   3.946  10.306 -0.6239 -1.8378 -0.2898
  624MOL0     H84181   8.997   3.956  10.609 -0.0264  1.1886 -0.9604
  624MOL0     H84182   8.906   4.082  10.529 -2.2918 -0.6639 -1.7707
  624MOL0     H84183   8.812   3.788  10.516  0.0443  0.3474 -2.2666
  624MOL0     H84184   8.748   3.917  10.628 -1.7613  2.8702 -0.4022
  624MOL0     H84185   8.663   4.040  10.442 -1.5737 -0.5233 -2.6045
  624MOL0     H84186   8.724   3.918  10.328 -0.9154  0.1911  0.3230
  624MOL0     H84187   8.573   3.760  10.458  0.3836  0.5017 -1.8349
  624MOL0     H84188   8.513   3.895  10.552 -1.2848 -2.2299 -0.0550
  624MOL0     H84189   8.512   3.864  10.252 -1.0998 -1.7547  0.0658
  624MOL0     H84190   8.429   4.000  10.340 -3.0690 -0.5384  2.0326
  624MOL0     H84191   8.402   3.603  10.385  1.7966  1.6148  1.3927
  624MOL0     H84192   8.059   3.528  10.280  0.4966  2.5647  0.1392
  624MOL0     H84193   8.202   3.446  10.358 -0.0080 -0.4324  2.3282
  624MOL0     H84194   8.127   3.449  10.579 -1.8857 -0.4466  1.3778
  624MOL0     H84195   8.010   3.375  10.491  0.0165 -0.4019  2.7332
  624MOL0     H84196   7.887   3.583  10.451  2.4207  2.2711 -0.5669
  624MOL0     H84197   7.978   3.666  10.573 -2.6440  1.6089 -1.4860
  624MOL0     H84198   7.840   3.407  10.643  1.7111 -0.8365  3.3687
  624MOL0     H84199   7.757   3.559  10.670  0.8116  0.1024  0.7136
  624MOL0     H84200   7.801   3.772  10.695  0.4155  1.3164  0.2443
  624MOL0     H84201   7.753   4.066  10.845 -0.1355 -0.9777  3.5734
  624MOL0     H84202   7.678   3.945  10.721  0.4348 -1.1581 -0.2686
  624MOL0     H84203   7.603   3.990  10.874 -2.2448 -1.0911 -3.0992
  624MOL0     H84204   7.853   3.971  11.457 -1.4954 -1.4520 -3.9856
  624MOL0     H84205   7.753   4.061  11.656 -2.2602 -0.3506  1.3687
  624MOL0     H84206   7.547   3.958  11.787  1.4153 -0.0863 -0.5385
  624MOL0     H84207   7.622   4.109  11.826  0.1936  1.1189  0.5232
  624MOL0     H84208   7.417   4.186  11.934 -1.1537 -0.0466  1.3689
  624MOL0     H84209   7.327   4.051  11.876 -0.7030  0.3332  1.3545
  624MOL0     H84210   7.564   4.034  12.079 -1.0656  1.4567  1.2918
  624MOL0     H84211   7.481   3.897  12.004  1.2081 -0.5165 -0.3379
  624MOL0     H84212   7.375   4.128  12.176 -0.9709 -0.4005  1.3441
  624MOL0     H84213   7.270   4.006  12.096 -0.3345  2.2123 -0.6031
  624MOL0     H84214   7.477   3.949  12.315  0.6483  1.9723 -2.6358
  624MOL0     H84215   7.377   3.822  12.223  0.1829 -0.0763 -1.8385
  624MOL0     H84216   7.305   4.048  12.423 -2.2777  0.9386  0.4876
  624MOL0     H84217   7.187   3.972  12.314  1.1100  1.4629 -1.3795
  624MOL0     H84218   7.365   3.856  12.537 -0.1709  1.0924 -0.7029
  624MOL0     H84219   7.255   3.759  12.438 -0.0533  0.3980 -1.3822
  624MOL0     H84220   7.061   3.915  12.532 -0.6709 -2.3216  1.2849
  624MOL0     H84221   7.189   3.986  12.631  1.4052  0.3690 -1.5568
  624MOL0     H84222   7.376   4.091  11.432 -0.9550 -4.9470  2.1817
  624MOL0     H84223   7.497   3.995  11.237  2.1380  0.3182 -2.2827
  624MOL0     H84224   7.874   3.724  11.177  1.1122  2.8097 -0.1804
  624MOL0     H84225   7.973   3.548  10.990 -0.0471  1.2604  1.3869
  624MOL0     H84226   9.176   3.602  10.079 -0.1338  1.7681  0.5675
  624MOL0     H84227   9.355   3.529   9.905 -3.0862  4.1870 -0.7054
  624MOL0     H84228   9.741   3.257   9.718  2.4485 -1.4303 -1.4065
  624MOL0     H84229   9.883   3.276   9.504  0.3238  2.0788 -2.4565
  624MOL0     H84230  10.089   3.595   9.507 -2.8921 -0.1702  0.1127
  624MOL0     H84231  10.132   3.448   9.411  2.5504  0.3238 -3.3023
  624MOL0     H84232  10.233   3.666   9.330 -0.4504 -2.7084  0.4039
  624MOL0     H84233  10.063   3.729   9.312 -1.1532  0.6500 -3.8059
  624MOL0     H84234  10.023   3.578   9.138 -0.2332 -0.7689  0.4933
  624MOL0     H84235  10.195   3.511   9.152  1.6151  0.4741  1.1907
  624MOL0     H84236  10.265   3.724   9.101  1.7924 -2.4906 -3.0599
  624MOL0     H84237  10.096   3.798   9.091 -1.8575 -1.9911  2.5989
  624MOL0     H84238  10.170   3.630   8.712 -1.4246 -2.5306 -0.0882
  624MOL0     H84239   9.843   3.696   9.507  1.9446 -0.6673 -0.5437
  624MOL0     H84240   9.733   3.689   9.736  3.0044 -0.6146  2.1897
  625MOL0     O84241   2.980   7.320   6.357 -0.2874  0.8909 -0.7253
  625MOL0     C84242   2.888   7.373   6.292  0.7252 -0.3349 -0.2221
  625MOL0     O84243   2.802   7.460   6.351 -0.0227 -0.3666  0.6615
  625MOL0     C84244   2.820   7.485   6.484  0.7470  0.9676 -0.1163
  625MOL0     C84245   2.725   7.424   6.570 -0.4835  0.2122  0.0046
  625MOL0     C84246   2.726   7.463   6.709 -0.1666  0.2284 -0.4204
  625MOL0     C84247   2.815   7.558   6.759  0.2629 -0.5054  0.1409
  625MOL0     O84248   2.832   7.620   6.877 -0.3765 -0.2665 -0.5684
  625MOL0     C84249   2.725   7.606   6.971  0.8058  0.4685  0.4439
  625MOL0     C84250   2.599   7.681   6.930  0.1885  0.3557  0.3893
  625MOL0     C84251   2.487   7.675   7.034 -0.8943  0.3189  0.5233
  625MOL0     C84252   2.439   7.531   7.046  0.2622  0.5864 -0.6336
  625MOL0     C84253   2.309   7.534   7.117 -0.6540  0.2541 -0.1537
  625MOL0     C84254   2.250   7.391   7.141 -0.4427 -0.2220  0.1463
  625MOL0     C84255   2.142   7.392   7.251  0.7971  0.5585  0.6552
  625MOL0     C84256   2.196   7.379   7.396 -0.0754  0.5386 -0.1318
  625MOL0     N84257   2.205   7.506   7.461 -0.3861 -0.6936 -0.4512
  625MOL0     C84258   2.106   7.603   7.469  0.0612  0.6322  0.2357
  625MOL0     C84259   2.177   7.711   7.492  0.5125  0.4246 -0.3406
  625MOL0     C84260   2.126   7.845   7.476 -0.0306  0.0030  0.5146
  625MOL0     C84261   2.206   7.935   7.378  0.6552  0.4146 -0.2151
  625MOL0     C84262   2.218   7.886   7.226  0.6451 -0.4147  0.1518
  625MOL0     C84263   2.089   7.921   7.160  1.6859  0.4690  0.3354
  625MOL0     O84264   2.090   7.879   7.024 -0.1273 -0.6236  0.4500
  625MOL0     C84265   2.156   7.960   6.928  0.1284 -0.0842 -0.1242
  625MOL0     C84266   2.156   7.919   6.793 -0.0281 -1.0327  0.1442
  625MOL0     C84267   2.192   8.009   6.690  0.7182  0.3891 -0.6909
  625MOL0     C84268   2.152   7.960   6.555  0.6005  0.4755  0.7384
  625MOL0     C84269   2.245   8.134   6.725 -0.7477 -0.1942  0.2238
  625MOL0     C84270   2.289   8.238   6.625 -0.0653  0.7397 -0.8270
  625MOL0     O84271   2.289   8.373   6.672  0.4347  0.3492  0.1743
  625MOL0     C84272   2.337   8.469   6.584  0.4145  0.3578 -1.2826
  625MOL0     C84273   2.472   8.476   6.559 -0.0354 -0.4193 -0.0131
  625MOL0     C84274   2.512   8.592   6.490 -0.8447 -0.5722 -0.0410
  625MOL0     C84275   2.427   8.686   6.429  0.0932 -0.7172  0.5779
  625MOL0     O84276   2.466   8.791   6.354  0.6159 -0.5598 -0.7309
  625MOL0     C84277   2.606   8.816   6.322  0.5887  0.3382  0.1342
  625MOL0     C84278   2.663   8.930   6.404 -0.6203 -0.4811 -0.1788
  625MOL0     C84279   2.818   8.936   6.393 -0.4452 -0.4928  0.2207
  625MOL0     C84280   2.882   8.855   6.507  0.2027  0.2734 -0.1697
  625MOL0     C84281   3.034   8.879   6.516  0.3074  0.6683 -0.0974
  625MOL0     C84282   3.082   8.817   6.643  0.0198  0.3422  0.2107
  625MOL0     C84283   3.223   8.854   6.690  0.0220 -0.5527 -0.1688
  625MOL0     C84284   3.335   8.785   6.619  0.6803  0.9320  0.1142
  625MOL0    Cl84285   3.494   8.839   6.673 -0.4027 -0.1595 -0.1490
  625MOL0     C84286   2.296   8.670   6.456  0.3992 -0.6502 -0.2200
  625MOL0     C84287   2.249   8.558   6.532  0.0253  0.1521 -0.0826
  625MOL0     O84288   2.315   8.205   6.511 -0.3322  0.4736  0.4195
  625MOL0     C84289   2.259   8.167   6.855  0.4728  0.0004 -0.1023
  625MOL0     C84290   2.212   8.082   6.963  0.2645 -0.0934  0.6436
  625MOL0     N84291   2.310   7.685   7.515 -0.7718  0.4131  0.4318
  625MOL0     N84292   2.323   7.557   7.500 -0.3103 -0.3755 -0.2682
  625MOL0     C84293   2.918   7.602   6.677  0.1304 -0.0768  0.5291
  625MOL0     C84294   2.911   7.569   6.539 -0.2955 -0.6257  0.5235
  625MOL0     C84295   2.866   7.357   6.145  0.0379  0.0064  0.2150
  625MOL0     C84296   2.817   7.465   6.067 -1.1551 -0.8069 -0.2277
  625MOL0     C84297   2.789   7.447   5.938 -0.0003 -1.1291  0.0378
  625MOL0     C84298   2.823   7.329   5.867 -0.3976  0.0542  1.1339
  625MOL0     O84299   2.795   7.315   5.737  0.3683  0.1685 -0.2029
  625MOL0     C84300   2.662   7.276   5.698 -0.0315  1.0852 -0.7962
  625MOL0     C84301   2.680   7.174   5.580  0.4971  0.3087  0.1499
  625MOL0     C84302   2.725   7.232   5.449  0.1043  1.3468 -0.1740
  625MOL0     C84303   2.879   7.264   5.437  0.5393  0.3229  0.1374
  625MOL0     C84304   2.909   7.325   5.306  0.2263 -0.9915  0.1683
  625MOL0     C84305   2.927   7.396   5.213  0.6825  0.0274 -0.3434
  625MOL0     C84306   2.873   7.220   5.937 -0.4519 -0.3835 -0.3047
  625MOL0     C84307   2.900   7.236   6.073  0.8898 -0.5914 -1.1623
  625MOL0     H84308   2.650   7.351   6.541  0.3582 -0.3696 -0.7697
  625MOL0     H84309   2.649   7.420   6.772 -0.6299  0.9619 -0.4687
  625MOL0     H84310   2.689   7.503   6.978 -1.6180  1.2392  0.3070
  625MOL0     H84311   2.768   7.628   7.069  1.8534 -1.8305  0.5700
  625MOL0     H84312   2.614   7.785   6.902 -1.2376  1.0822  2.1068
  625MOL0     H84313   2.565   7.648   6.832  0.9738  1.0333 -0.1268
  625MOL0     H84314   2.532   7.706   7.129 -1.1228  2.0626  0.1092
  625MOL0     H84315   2.403   7.734   6.994 -1.1635  0.3837  1.1665
  625MOL0     H84316   2.420   7.469   6.958  3.8357 -1.9095  0.1395
  625MOL0     H84317   2.503   7.469   7.109 -2.5845 -0.7349  1.1652
  625MOL0     H84318   2.335   7.580   7.213  0.7976 -0.3857 -0.2188
  625MOL0     H84319   2.234   7.597   7.068  1.5677  4.5001  1.4097
  625MOL0     H84320   2.198   7.356   7.051 -2.9275  1.8613  0.6427
  625MOL0     H84321   2.323   7.313   7.162  0.2631  0.4113  0.0950
  625MOL0     H84322   2.072   7.476   7.241 -1.6155 -1.4568 -0.5505
  625MOL0     H84323   2.087   7.300   7.230  1.4486  0.4656 -0.7254
  625MOL0     H84324   2.298   7.341   7.405  0.6053  2.7361  4.0499
  625MOL0     H84325   2.136   7.306   7.452  3.7868 -1.0147  2.4246
  625MOL0     H84326   2.003   7.597   7.435  0.2863  0.6240 -0.4663
  625MOL0     H84327   2.022   7.847   7.443  0.0080 -0.4967  0.3585
  625MOL0     H84328   2.123   7.892   7.575  0.9221  0.0843  0.5197
  625MOL0     H84329   2.306   7.949   7.420  0.6030 -0.6329  0.2878
  625MOL0     H84330   2.161   8.035   7.383 -1.0803 -0.3654  0.9348
  625MOL0     H84331   2.233   7.778   7.223  0.7526 -0.4019  0.2229
  625MOL0     H84332   2.299   7.932   7.169  0.2021 -0.2193 -0.3210
  625MOL0     H84333   2.042   8.019   7.173 -0.5952 -0.6922  1.3734
  625MOL0     H84334   2.016   7.858   7.211  0.0212  1.1657 -1.0866
  625MOL0     H84335   2.101   7.828   6.772  2.2472 -3.5662  3.8708
  625MOL0     H84336   2.117   8.044   6.494 -0.5924  0.2056  1.0154
  625MOL0     H84337   2.231   7.909   6.500  0.3498 -1.9538  2.4683
  625MOL0     H84338   2.064   7.897   6.537  0.4299  1.6240 -3.6439
  625MOL0     H84339   2.538   8.402   6.602  0.1828 -0.6200 -0.6859
  625MOL0     H84340   2.619   8.584   6.475 -0.6722 -1.2450  1.4103
  625MOL0     H84341   2.676   8.733   6.339  0.4541  0.0847 -0.5146
  625MOL0     H84342   2.604   8.848   6.217 -2.2934 -1.2145 -0.3679
  625MOL0     H84343   2.627   9.027   6.368 -1.7532  0.0772  2.2626
  625MOL0     H84344   2.639   8.916   6.510 -0.9717 -2.8320 -0.5203
  625MOL0     H84345   2.837   9.044   6.397 -3.9861  0.2414  0.7502
  625MOL0     H84346   2.849   8.907   6.292 -5.1620 -0.6066 -1.4648
  625MOL0     H84347   2.824   8.869   6.598  1.2072 -1.1453  0.7305
  625MOL0     H84348   2.875   8.747   6.489 -0.5681  0.4497 -0.9690
  625MOL0     H84349   3.059   8.986   6.517 -0.4147  0.8366  1.1654
  625MOL0     H84350   3.096   8.845   6.432  1.4970 -3.1162  2.0591
  625MOL0     H84351   3.013   8.859   6.717  0.3616  0.5648  0.4065
  625MOL0     H84352   3.071   8.709   6.654 -2.7576  0.3630 -1.3803
  625MOL0     H84353   3.232   8.832   6.797  1.4496  0.5103 -0.0312
  625MOL0     H84354   3.238   8.959   6.663  0.2560 -0.8343 -1.1803
  625MOL0     H84355   3.321   8.808   6.513 -1.3777  0.7496  0.3012
  625MOL0     H84356   3.325   8.677   6.620  0.2624  0.8324 -3.1387
  625MOL0     H84357   2.220   8.736   6.418  3.1715  2.4601 -0.7764
  625MOL0     H84358   2.149   8.552   6.576  0.8114  0.6564  1.8884
  625MOL0     H84359   2.288   8.270   6.869 -0.5660  0.7177 -2.6717
  625MOL0     H84360   2.219   8.119   7.065  1.5171 -2.4385  1.4875
  625MOL0     H84361   2.985   7.676   6.719  0.2549 -0.1477  0.4536
  625MOL0     H84362   2.981   7.624   6.477 -2.2730  2.8678  1.1381
  625MOL0     H84363   2.786   7.551   6.126  2.1879  0.3017  0.0986
  625MOL0     H84364   2.764   7.532   5.874  1.6054 -1.2976 -0.8721
  625MOL0     H84365   2.595   7.243   5.777  1.2516  2.4495  0.9615
  625MOL0     H84366   2.620   7.369   5.658  0.0079  1.2958 -0.3547
  625MOL0     H84367   2.587   7.119   5.564 -0.0065  1.9478 -3.4975
  625MOL0     H84368   2.751   7.097   5.615 -0.3937 -0.6641 -0.1232
  625MOL0     H84369   2.657   7.315   5.424 -0.2916  1.3422  0.8257
  625MOL0     H84370   2.708   7.153   5.375  1.8648 -0.0564  0.8272
  625MOL0     H84371   2.940   7.175   5.454 -0.0329  0.2360  1.9052
  625MOL0     H84372   2.912   7.337   5.511  0.8516  1.3990 -1.0469
  625MOL0     H84373   2.922   7.426   5.110  2.5601 -4.1945 -1.8520
  625MOL0     H84374   2.903   7.128   5.889 -0.2698 -0.3773 -0.2055
  625MOL0     H84375   2.921   7.146   6.129  3.5757 -0.6925 -2.1977
  626MOL0     O84376   0.709   8.623   1.624  1.0768 -0.0018  0.1820
  626MOL0     C84377   0.716   8.500   1.588  0.6021 -0.2494  0.0120
  626MOL0     O84378   0.625   8.437   1.505 -0.6902  0.3822  0.0941
  626MOL0     C84379   0.510   8.495   1.479  0.6327 -0.9378  0.6174
  626MOL0     C84380   0.495   8.605   1.389 -0.3205  0.2866 -1.0866
  626MOL0     C84381   0.382   8.679   1.394 -0.3263  0.3153  1.2973
  626MOL0     C84382   0.262   8.628   1.453 -0.6293  0.0644 -0.1405
  626MOL0     O84383   0.149   8.682   1.413 -0.2539 -0.9048 -0.7002
  626MOL0     C84384   0.053   8.738   1.512 -0.8320  0.6767 -0.7740
  626MOL0     C84385   0.041   8.898   1.513 -0.2542  0.0055  0.6025
  626MOL0     C84386   0.030   8.958   1.376  0.2554  0.5092  0.6068
  626MOL0     C84387   0.023   9.107   1.386  0.6683  0.4484  0.0216
  626MOL0     C84388   0.014   9.168   1.249 -0.1638 -0.9141 -0.1419
  626MOL0     C84389   0.027   9.330   1.272 -0.3059  0.7190 -0.4386
  626MOL0     C84390   0.036   9.412   1.145 -1.0468  0.0269  0.5161
  626MOL0     C84391  -0.103   9.452   1.099 -0.1137  0.1212  0.0739
  626MOL0     N84392  -0.076   9.530   0.972 -0.3642 -1.0132  0.1866
  626MOL0     C84393  -0.050   9.663   0.971 -0.3044  0.1039  0.0326
  626MOL0     C84394  -0.096   9.713   0.857  0.0453 -0.8788 -0.2125
  626MOL0     C84395  -0.115   9.859   0.817  0.7791 -1.0969  0.0265
  626MOL0     C84396  -0.158   9.954   0.932 -0.1453  0.7168  0.1273
  626MOL0     C84397  -0.232  10.080   0.876 -0.5440 -0.9719 -0.2944
  626MOL0     C84398  -0.161  10.155   0.771  0.4666  0.5700  1.0154
  626MOL0     O84399  -0.242  10.260   0.701  0.0148 -0.6803 -0.1779
  626MOL0     C84400  -0.199  10.391   0.700 -0.0229  0.0329  0.6118
  626MOL0     C84401  -0.112  10.452   0.790 -0.4532 -0.7650  1.3826
  626MOL0     C84402  -0.043  10.567   0.764 -0.2828 -0.6143  0.0815
  626MOL0     C84403   0.056  10.598   0.868  0.2460 -0.5798 -0.0114
  626MOL0     C84404  -0.074  10.634   0.637 -0.4503  0.1476  0.1065
  626MOL0     C84405   0.010  10.752   0.583 -0.5392 -0.0576  0.0983
  626MOL0     O84406  -0.057  10.834   0.498  0.2955  0.0081 -0.5855
  626MOL0     C84407   0.011  10.917   0.416 -1.0623 -0.7688 -0.6690
  626MOL0     C84408   0.022  10.876   0.281 -0.1417 -0.5277  0.2281
  626MOL0     C84409   0.075  10.961   0.186 -0.5474 -1.0097  0.1129
  626MOL0     C84410   0.131  11.080   0.227 -0.1537  0.0742 -0.9413
  626MOL0     O84411   0.204  11.161   0.136  0.1842 -0.8742  0.1116
  626MOL0     C84412   0.199  11.143  -0.002  1.2914 -0.2676 -0.5127
  626MOL0     C84413   0.281  11.247  -0.076  0.9761  0.4695  0.4586
  626MOL0     C84414   0.255  11.239  -0.226 -0.7960 -0.2810 -0.2170
  626MOL0     C84415   0.156  11.348  -0.265  0.2368  0.0543  0.5456
  626MOL0     C84416   0.108  11.352  -0.406  0.7049 -0.2235  0.1286
  626MOL0     C84417   0.203  11.395  -0.530  0.5369  1.0087 -0.5575
  626MOL0     C84418   0.271  11.521  -0.506 -0.1604 -0.5650 -0.4904
  626MOL0     C84419   0.405  11.506  -0.429  0.9023  0.0866 -0.3007
  626MOL0    Cl84420   0.523  11.404  -0.510 -0.2235 -0.2462 -0.0023
  626MOL0     C84421   0.136  11.112   0.367  0.3920 -0.1028  0.1717
  626MOL0     C84422   0.068  11.038   0.465 -0.2104  0.6708  0.0313
  626MOL0     O84423   0.132  10.758   0.616  0.2295  0.3937  0.1262
  626MOL0     C84424  -0.183  10.587   0.569 -0.1284  0.4297  0.5297
  626MOL0     C84425  -0.252  10.465   0.596  0.3176  0.4431 -0.5131
  626MOL0     N84426  -0.149   9.605   0.787 -0.5586 -0.2997 -0.0633
  626MOL0     N84427  -0.131   9.500   0.849 -0.3355  0.1188 -0.2778
  626MOL0     C84428   0.273   8.516   1.529 -0.1075  0.5830 -0.1583
  626MOL0     C84429   0.401   8.449   1.549  0.1091  1.4744 -1.3647
  626MOL0     C84430   0.840   8.427   1.620 -0.3467  0.2146 -0.0767
  626MOL0     C84431   0.959   8.502   1.662 -0.1495  0.1594 -0.0649
  626MOL0     C84432   1.072   8.430   1.688 -0.4092  1.0200 -0.3273
  626MOL0     C84433   1.079   8.286   1.699  1.2224 -0.0757  0.3167
  626MOL0     O84434   1.191   8.223   1.741 -0.6292 -0.3440 -0.4794
  626MOL0     C84435   1.228   8.086   1.681 -0.7458  0.0118  0.1714
  626MOL0     C84436   1.363   8.096   1.622 -0.7058 -0.8281 -0.1778
  626MOL0     C84437   1.396   8.213   1.524 -0.5225  0.4952 -0.6362
  626MOL0     C84438   1.306   8.235   1.405 -0.5536  0.9423 -1.1986
  626MOL0     C84439   1.290   8.118   1.312  0.3322 -0.1727  0.4634
  626MOL0     C84440   1.279   8.012   1.252 -0.9891 -1.0595  0.5553
  626MOL0     C84441   0.961   8.220   1.657  0.7605  0.0229 -0.0122
  626MOL0     C84442   0.854   8.289   1.616  0.8040  0.0603  0.4673
  626MOL0     H84443   0.581   8.641   1.333 -0.6089  2.1519 -0.4040
  626MOL0     H84444   0.374   8.770   1.336 -2.8245  0.3993  1.6352
  626MOL0     H84445  -0.052   8.711   1.497 -1.1786  1.4968  0.0178
  626MOL0     H84446   0.082   8.704   1.612 -0.6246 -0.6132 -1.2586
  626MOL0     H84447  -0.045   8.930   1.574 -0.0530 -1.0625  1.4874
  626MOL0     H84448   0.133   8.934   1.560 -0.0511  0.3722 -0.0743
  626MOL0     H84449   0.123   8.935   1.323  0.5783 -0.8086  1.6909
  626MOL0     H84450  -0.056   8.927   1.316  0.5141  0.1045  0.4442
  626MOL0     H84451  -0.067   9.130   1.445 -0.2340 -0.1835 -1.0622
  626MOL0     H84452   0.116   9.137   1.435  1.1112 -0.2836 -0.3486
  626MOL0     H84453   0.101   9.138   1.189  3.5105 -0.4255  4.3054
  626MOL0     H84454  -0.079   9.140   1.200 -0.2742 -3.6555  1.4285
  626MOL0     H84455  -0.055   9.366   1.335 -0.3160  3.5886 -1.9571
  626MOL0     H84456   0.124   9.349   1.319  0.1743  0.4708 -1.2982
  626MOL0     H84457   0.100   9.500   1.155 -0.0390 -0.6007 -0.1883
  626MOL0     H84458   0.088   9.348   1.073  1.3801 -0.8503  2.8747
  626MOL0     H84459  -0.130   9.515   1.185  0.1924  0.1072  0.1832
  626MOL0     H84460  -0.176   9.374   1.077 -0.1990  1.1872 -4.3249
  626MOL0     H84461  -0.011   9.721   1.053 -0.8560  0.0239  0.3600
  626MOL0     H84462  -0.023   9.899   0.772 -0.5170  2.3393  0.1420
  626MOL0     H84463  -0.191   9.854   0.738  2.2820 -1.4034 -1.4631
  626MOL0     H84464  -0.068   9.990   0.985  1.0005 -0.6220 -0.8363
  626MOL0     H84465  -0.228   9.902   0.997  1.2530 -1.7982 -0.2471
  626MOL0     H84466  -0.247  10.158   0.951  4.0916  1.4882 -1.5333
  626MOL0     H84467  -0.334  10.051   0.850 -0.5884  0.1921 -1.5521
  626MOL0     H84468  -0.114  10.091   0.695  0.4295 -0.2659  1.6862
  626MOL0     H84469  -0.076  10.194   0.827  1.0419  0.8272  0.0012
  626MOL0     H84470  -0.089  10.391   0.876 -2.0357 -0.4575  2.0593
  626MOL0     H84471   0.058  10.707   0.879 -2.8758 -0.4474  0.0930
  626MOL0     H84472   0.026  10.548   0.960  0.1406 -2.1173 -0.8421
  626MOL0     H84473   0.151  10.553   0.835 -0.8385 -2.0613 -1.2418
  626MOL0     H84474  -0.013  10.780   0.245  1.1420 -0.2792 -1.8214
  626MOL0     H84475   0.057  10.935   0.082  1.0946  0.7795 -0.6831
  626MOL0     H84476   0.228  11.039  -0.015 -2.0270 -1.9564  3.3710
  626MOL0     H84477   0.096  11.143  -0.038  1.4311 -0.7664 -0.9178
  626MOL0     H84478   0.256  11.346  -0.036  0.7761  0.3719  0.5780
  626MOL0     H84479   0.390  11.242  -0.065  1.0495  2.0085  0.6682
  626MOL0     H84480   0.223  11.136  -0.244 -3.9664  0.3409  1.2247
  626MOL0     H84481   0.342  11.259  -0.289 -1.4860 -0.4143 -1.2351
  626MOL0     H84482   0.063  11.326  -0.211 -0.6960  0.7429 -0.7119
  626MOL0     H84483   0.199  11.443  -0.231  1.5545 -0.9809  1.8355
  626MOL0     H84484   0.030  11.429  -0.408  0.8160 -0.1123 -1.1912
  626MOL0     H84485   0.065  11.255  -0.430  0.9440 -0.5884  1.1251
  626MOL0     H84486   0.278  11.318  -0.549  0.1127 -0.1516  2.0549
  626MOL0     H84487   0.146  11.397  -0.623  0.7407  0.0026 -0.7131
  626MOL0     H84488   0.205  11.595  -0.460  1.2538 -1.1522  2.7675
  626MOL0     H84489   0.313  11.568  -0.596  3.6639 -0.8983  0.9415
  626MOL0     H84490   0.374  11.478  -0.328  2.5741  0.4085  0.3252
  626MOL0     H84491   0.444  11.608  -0.423 -1.7297  1.2342 -1.1674
  626MOL0     H84492   0.182  11.206   0.393  0.3843  0.0634 -0.4060
  626MOL0     H84493   0.057  11.054   0.572 -2.7567  0.4203 -0.1208
  626MOL0     H84494  -0.204  10.654   0.486  2.2783  1.9437  1.0471
  626MOL0     H84495  -0.325  10.431   0.524  2.4430 -3.6996 -0.9655
  626MOL0     H84496   0.187   8.466   1.572  0.8960 -1.1690 -0.1079
  626MOL0     H84497   0.402   8.370   1.623 -3.7756  0.9552 -1.6486
  626MOL0     H84498   0.965   8.610   1.672  1.2030 -0.1398  3.7371
  626MOL0     H84499   1.153   8.488   1.733 -0.3444 -0.5214  1.6746
  626MOL0     H84500   1.221   8.009   1.758  2.0974 -0.1030  0.4121
  626MOL0     H84501   1.155   8.043   1.612  0.6422 -3.0727  0.4646
  626MOL0     H84502   1.381   8.000   1.573 -0.6269  0.3463 -2.5842
  626MOL0     H84503   1.431   8.097   1.708 -1.5349  2.2806  0.5651
  626MOL0     H84504   1.499   8.200   1.490 -0.2033  0.2681  0.3657
  626MOL0     H84505   1.389   8.306   1.582 -1.5908  0.2917 -0.4226
  626MOL0     H84506   1.337   8.327   1.354 -3.0170  1.2406 -2.3284
  626MOL0     H84507   1.209   8.270   1.442  0.2288  1.2395  0.6768
  626MOL0     H84508   1.277   7.913   1.210 -0.2731  0.2139 -2.7580
  626MOL0     H84509   0.960   8.113   1.677 -3.0892 -0.0674  0.1111
  626MOL0     H84510   0.773   8.226   1.580  1.9853 -1.2284 -0.0183
  627MOL0     O84511   6.866   8.972   1.719 -0.1840 -0.4435 -0.5596
  627MOL0     C84512   6.755   8.921   1.719 -0.1713 -0.2248 -0.1777
  627MOL0     O84513   6.697   8.857   1.825 -0.2468 -0.0173 -0.1594
  627MOL0     C84514   6.793   8.808   1.915 -0.5704 -0.5956 -0.7120
  627MOL0     C84515   6.867   8.686   1.901 -0.6072 -0.9314  0.5482
  627MOL0     C84516   6.981   8.653   1.981  1.2472  0.2670  0.0136
  627MOL0     C84517   7.010   8.729   2.093 -0.3513 -0.4716 -0.0068
  627MOL0     O84518   7.112   8.699   2.185 -0.4436  0.7651  0.0614
  627MOL0     C84519   7.230   8.643   2.120  0.2226 -0.2013 -0.0393
  627MOL0     C84520   7.312   8.593   2.237  0.1528  0.2985  0.7957
  627MOL0     C84521   7.356   8.715   2.323  0.2580  0.5555  0.5862
  627MOL0     C84522   7.460   8.668   2.422  1.2842 -0.1999 -1.1850
  627MOL0     C84523   7.410   8.569   2.531  0.2711  0.6792  0.4980
  627MOL0     C84524   7.500   8.549   2.651 -0.3680  0.2286 -0.5988
  627MOL0     C84525   7.634   8.470   2.630 -0.0786 -0.6090 -1.0369
  627MOL0     C84526   7.625   8.322   2.600  0.5246  0.6080  0.0366
  627MOL0     N84527   7.561   8.253   2.706 -1.4816  0.2471 -0.0964
  627MOL0     C84528   7.632   8.173   2.800  0.0242 -0.5014  0.4471
  627MOL0     C84529   7.529   8.105   2.857 -0.3528  0.1345 -0.5459
  627MOL0     C84530   7.541   7.987   2.954  0.2226 -0.4924 -0.6056
  627MOL0     C84531   7.589   7.856   2.873 -0.2893  0.3336  1.6595
  627MOL0     C84532   7.484   7.791   2.781  0.3058  1.0159  0.2257
  627MOL0     C84533   7.526   7.665   2.710 -0.0295 -0.0652 -0.1433
  627MOL0     O84534   7.579   7.557   2.782  0.0160 -0.1566 -0.3198
  627MOL0     C84535   7.615   7.443   2.716  0.7609 -0.6955  0.3420
  627MOL0     C84536   7.683   7.347   2.786 -0.0391 -0.9379  0.6779
  627MOL0     C84537   7.742   7.235   2.731 -0.4627 -0.9214 -0.4735
  627MOL0     C84538   7.844   7.158   2.816  0.1951  0.6363  0.3022
  627MOL0     C84539   7.725   7.197   2.597 -1.2923 -0.6171  0.1793
  627MOL0     C84540   7.806   7.097   2.527  0.5611 -0.7276 -0.2846
  627MOL0     O84541   7.791   7.089   2.395 -0.6315 -0.2137  0.0235
  627MOL0     C84542   7.893   7.034   2.319  0.0824 -0.8413  0.6826
  627MOL0     C84543   7.871   6.901   2.279 -0.2125  0.1655 -1.4100
  627MOL0     C84544   7.972   6.835   2.209 -0.3113  0.1113  0.4848
  627MOL0     C84545   8.088   6.897   2.179 -0.2244 -0.3603 -0.8275
  627MOL0     O84546   8.177   6.827   2.104  0.1654 -0.5992 -0.5221
  627MOL0     C84547   8.267   6.900   2.018  1.3179 -0.1697  0.1025
  627MOL0     C84548   8.350   6.812   1.929  0.1967  0.5936  0.3904
  627MOL0     C84549   8.433   6.714   2.014 -0.1179 -0.0769  0.0846
  627MOL0     C84550   8.542   6.658   1.937 -0.0125 -1.5020  0.1489
  627MOL0     C84551   8.632   6.552   2.012  0.6741 -0.4824 -0.1788
  627MOL0     C84552   8.745   6.517   1.921  0.3416  0.2678  1.4398
  627MOL0     C84553   8.827   6.394   1.977  1.3797  0.2393 -0.2712
  627MOL0     C84554   8.761   6.259   1.948  0.2147  0.0625  0.1608
  627MOL0    Cl84555   8.871   6.127   2.012 -0.0097 -0.7306  0.1506
  627MOL0     C84556   8.104   7.038   2.208 -0.3363 -0.1140 -0.0024
  627MOL0     C84557   7.997   7.109   2.270  0.2303 -0.1565 -0.4003
  627MOL0     O84558   7.874   7.013   2.588 -0.1499 -0.6467 -0.6154
  627MOL0     C84559   7.644   7.293   2.516  0.0294 -0.3533  0.0950
  627MOL0     C84560   7.603   7.418   2.575  0.8519  0.2983  0.2534
  627MOL0     N84561   7.403   8.130   2.797  0.6560  0.4606  1.2001
  627MOL0     N84562   7.426   8.226   2.709 -0.4077  0.0096  0.5504
  627MOL0     C84563   6.928   8.840   2.118 -0.3708  0.2375  0.9426
  627MOL0     C84564   6.829   8.887   2.028  0.8473 -0.0123  0.0879
  627MOL0     C84565   6.689   8.915   1.592  0.8230  0.1149 -0.2613
  627MOL0     C84566   6.752   8.962   1.476  0.2562 -0.1080  0.1809
  627MOL0     C84567   6.691   8.941   1.358  0.4210  0.8210 -0.0620
  627MOL0     C84568   6.565   8.881   1.339  0.5106  0.2887  0.2946
  627MOL0     O84569   6.506   8.846   1.219 -0.2270  0.0828  0.2433
  627MOL0     C84570   6.567   8.921   1.112  0.2876  0.4498 -0.0589
  627MOL0     C84571   6.449   8.944   1.023  0.3937 -0.7196  0.6847
  627MOL0     C84572   6.496   8.973   0.882  0.0260 -0.6967  0.1139
  627MOL0     C84573   6.375   8.999   0.798  0.4434 -0.2672  0.5883
  627MOL0     C84574   6.409   9.027   0.660  0.0791  0.1471 -0.5569
  627MOL0     C84575   6.409   9.054   0.543  0.0743 -0.1836 -0.6243
  627MOL0     C84576   6.507   8.839   1.452 -0.1963  0.2325  0.3521
  627MOL0     C84577   6.568   8.847   1.580  0.5820 -0.3773 -0.1455
  627MOL0     H84578   6.854   8.638   1.805 -0.4530  0.0261  0.0345
  627MOL0     H84579   7.041   8.570   1.946 -0.7438 -0.8855 -0.8456
  627MOL0     H84580   7.215   8.556   2.056 -2.6164  1.2514 -1.5412
  627MOL0     H84581   7.267   8.727   2.060  0.3057 -0.7818 -0.8044
  627MOL0     H84582   7.262   8.518   2.299  3.8604 -1.8823  1.5172
  627MOL0     H84583   7.405   8.558   2.191  0.4248  0.8054  0.9475
  627MOL0     H84584   7.395   8.794   2.258 -1.1897  0.3149 -0.6381
  627MOL0     H84585   7.273   8.758   2.380 -0.4555 -3.3691  2.8922
  627MOL0     H84586   7.538   8.628   2.356  1.4015  1.6339 -2.2418
  627MOL0     H84587   7.489   8.766   2.460  0.3559 -1.1558  2.3998
  627MOL0     H84588   7.309   8.588   2.568  0.4103 -0.7896  1.7410
  627MOL0     H84589   7.403   8.469   2.486 -1.0269  0.7260  0.5596
  627MOL0     H84590   7.510   8.649   2.693  1.9696  0.3107 -1.2441
  627MOL0     H84591   7.450   8.499   2.734 -1.5058  2.2631  0.0092
  627MOL0     H84592   7.690   8.520   2.550 -0.4345 -1.8116 -2.0596
  627MOL0     H84593   7.689   8.476   2.724 -0.9183  3.5109 -0.6029
  627MOL0     H84594   7.728   8.288   2.584  0.5503  0.6943  0.0146
  627MOL0     H84595   7.578   8.296   2.505  2.3466  4.0230 -1.9987
  627MOL0     H84596   7.740   8.162   2.798  0.0007 -0.7376  0.4578
  627MOL0     H84597   7.622   8.013   3.022  0.4226  1.3167 -1.4825
  627MOL0     H84598   7.451   7.967   3.013 -0.1326  0.2637 -0.8787
  627MOL0     H84599   7.613   7.780   2.949  0.9520  2.6998  3.8194
  627MOL0     H84600   7.679   7.882   2.816 -1.0146  1.4969  1.0160
  627MOL0     H84601   7.468   7.865   2.702  2.1707  3.1638  1.7277
  627MOL0     H84602   7.392   7.779   2.838 -1.0937 -1.0815 -2.2443
  627MOL0     H84603   7.594   7.701   2.633 -2.1083  2.2242 -1.0540
  627MOL0     H84604   7.441   7.636   2.647  1.7717  0.7361 -3.0893
  627MOL0     H84605   7.704   7.373   2.889 -4.5217 -0.6593  1.7441
  627MOL0     H84606   7.803   7.057   2.830  3.1982 -0.6295  0.6346
  627MOL0     H84607   7.942   7.150   2.770 -0.1839 -0.6590 -0.3087
  627MOL0     H84608   7.867   7.197   2.916  1.7557 -3.2389  1.6292
  627MOL0     H84609   7.788   6.843   2.317  0.4713  1.4447  2.4568
  627MOL0     H84610   7.937   6.736   2.183 -1.1493  0.2768  0.9743
  627MOL0     H84611   8.207   6.968   1.956  0.3792 -0.7724  0.3271
  627MOL0     H84612   8.331   6.964   2.080  1.2300 -2.2791  2.5406
  627MOL0     H84613   8.286   6.769   1.851 -0.6771  2.5943 -0.0489
  627MOL0     H84614   8.414   6.878   1.870  1.1873  1.4946  2.3796
  627MOL0     H84615   8.370   6.631   2.048 -0.4033  0.1820  0.1953
  627MOL0     H84616   8.480   6.775   2.092  1.9665 -0.7365 -0.5910
  627MOL0     H84617   8.506   6.618   1.842  4.1761 -1.6998 -1.5657
  627MOL0     H84618   8.602   6.745   1.911  0.4994 -0.8144  3.1829
  627MOL0     H84619   8.574   6.468   2.052  1.4556 -0.3822  1.2073
  627MOL0     H84620   8.676   6.608   2.095 -2.4598 -1.4193  2.3285
  627MOL0     H84621   8.707   6.491   1.822 -1.1321 -1.2186  2.3399
  627MOL0     H84622   8.818   6.598   1.906 -0.1165  0.5527  0.7159
  627MOL0     H84623   8.823   6.410   2.085  0.0692  1.4891 -0.4777
  627MOL0     H84624   8.930   6.401   1.941  0.7152 -0.0148 -2.3362
  627MOL0     H84625   8.752   6.249   1.840 -1.1064  1.1252  0.1395
  627MOL0     H84626   8.667   6.257   2.005  1.0281 -0.1542  1.5433
  627MOL0     H84627   8.193   7.096   2.189 -1.0756  0.3553 -2.4528
  627MOL0     H84628   8.019   7.212   2.297 -0.8187  0.0843 -0.4360
  627MOL0     H84629   7.630   7.279   2.410  2.8338 -0.8256 -0.2824
  627MOL0     H84630   7.561   7.484   2.499 -2.3188 -1.2284  0.4885
  627MOL0     H84631   6.951   8.895   2.209  1.1054 -1.0776  1.4199
  627MOL0     H84632   6.784   8.986   2.034  1.4443  0.3745 -1.2788
  627MOL0     H84633   6.855   8.996   1.467  0.0510 -0.0195 -3.6052
  627MOL0     H84634   6.752   8.961   1.271 -1.4315  0.7382 -1.4214
  627MOL0     H84635   6.604   9.020   1.140  1.5460 -0.6840  2.5568
  627MOL0     H84636   6.660   8.880   1.071  1.1675  2.5543 -0.2995
  627MOL0     H84637   6.393   9.029   1.062  0.6469  0.7710 -1.9414
  627MOL0     H84638   6.380   8.859   1.019  0.4628 -0.7457 -1.3660
  627MOL0     H84639   6.553   8.885   0.850 -2.0571 -2.4043  0.8748
  627MOL0     H84640   6.572   9.052   0.877 -1.1735  0.4409 -3.4817
  627MOL0     H84641   6.319   9.082   0.841  0.7797 -1.0527  2.6447
  627MOL0     H84642   6.308   8.913   0.801 -0.0704  0.0644 -0.7329
  627MOL0     H84643   6.404   9.086   0.441 -4.0859  1.6089 -0.0690
  627MOL0     H84644   6.403   8.807   1.456  0.4576 -2.3687 -1.3649
  627MOL0     H84645   6.509   8.810   1.662  1.4972 -1.5888 -0.0095
  628MOL0     O84646   4.620   9.582  10.249 -0.6986  0.0112 -0.0371
  628MOL0     C84647   4.728   9.628  10.273 -0.9999 -0.3725  0.3564
  628MOL0     O84648   4.850   9.561  10.284  0.0777  0.2652 -0.3555
  628MOL0     C84649   4.868   9.430  10.247 -0.4015  0.1277 -0.2902
  628MOL0     C84650   4.963   9.365  10.331  0.3758  0.4315  0.1434
  628MOL0     C84651   4.997   9.237  10.302 -0.2524 -0.8174 -0.6723
  628MOL0     C84652   4.943   9.166  10.193  0.5486 -0.5444 -0.2941
  628MOL0     O84653   4.999   9.048  10.159  0.0704  0.4173  0.7269
  628MOL0     C84654   5.017   9.021  10.021 -0.2928  0.1913  0.2060
  628MOL0     C84655   5.082   8.885   9.993  0.3019 -0.1233  0.1559
  628MOL0     C84656   5.233   8.882  10.046 -0.1222 -0.2630  0.5018
  628MOL0     C84657   5.330   8.860   9.930  0.7583 -0.6241 -0.4988
  628MOL0     C84658   5.346   8.991   9.849  0.0797 -0.1462 -0.1834
  628MOL0     C84659   5.455   8.980   9.740 -0.3740 -0.7943 -0.8503
  628MOL0     C84660   5.456   9.109   9.658  0.0989  1.5855  0.0644
  628MOL0     C84661   5.509   9.233   9.732  0.3107  1.1540 -1.0049
  628MOL0     N84662   5.503   9.346   9.639 -0.4929 -0.4518  0.2753
  628MOL0     C84663   5.388   9.391   9.578 -0.5383 -0.4924 -0.7785
  628MOL0     C84664   5.435   9.435   9.463 -0.2905  0.5072  0.0615
  628MOL0     C84665   5.363   9.467   9.340 -0.0356 -0.5729  0.2081
  628MOL0     C84666   5.460   9.541   9.245  1.1378  0.0922 -0.0337
  628MOL0     C84667   5.390   9.608   9.130 -0.2731  0.2695  0.7120
  628MOL0     C84668   5.336   9.514   9.030 -1.1083 -0.2977  0.5000
  628MOL0     O84669   5.201   9.553   9.001  0.0600 -0.0096  1.0138
  628MOL0     C84670   5.175   9.678   8.942 -0.5534  0.4507 -0.2775
  628MOL0     C84671   5.042   9.726   8.962 -0.7319 -0.1631  0.3640
  628MOL0     C84672   5.009   9.851   8.898  1.8220 -0.0781 -0.9336
  628MOL0     C84673   4.872   9.902   8.923 -0.1824 -0.2431 -0.1244
  628MOL0     C84674   5.101   9.928   8.825  0.5681 -0.4256 -0.6940
  628MOL0     C84675   5.068  10.054   8.761  0.2516  0.8252  0.5323
  628MOL0     O84676   5.172  10.124   8.719 -0.7726 -0.2324  1.0721
  628MOL0     C84677   5.172  10.258   8.723 -0.1621 -0.7252  0.4283
  628MOL0     C84678   5.297  10.324   8.696  0.2411  0.0184 -0.3504
  628MOL0     C84679   5.292  10.462   8.687  0.6195 -0.1008  0.8735
  628MOL0     C84680   5.185  10.542   8.728  1.7296 -0.5628 -0.3788
  628MOL0     O84681   5.186  10.677   8.741  0.4712 -0.2526  0.5279
  628MOL0     C84682   5.279  10.734   8.830 -0.6114 -0.3724 -1.3523
  628MOL0     C84683   5.237  10.687   8.978 -0.5157 -0.1403 -0.5621
  628MOL0     C84684   5.349  10.727   9.075 -0.9140 -0.2273 -0.2260
  628MOL0     C84685   5.294  10.722   9.220  0.0690  0.1861 -0.1825
  628MOL0     C84686   5.322  10.845   9.318  0.1769  0.4892 -0.0699
  628MOL0     C84687   5.464  10.839   9.374  0.0289 -0.0520 -0.3306
  628MOL0     C84688   5.490  10.730   9.470 -0.8101  0.8540  0.2182
  628MOL0     C84689   5.631  10.738   9.523 -0.2110  0.5943  0.3524
  628MOL0    Cl84690   5.646  10.875   9.639  0.1691  0.2944  0.5117
  628MOL0     C84691   5.064  10.476   8.746 -0.4233 -0.2921 -0.5286
  628MOL0     C84692   5.058  10.341   8.742  0.6797  0.5136 -0.5881
  628MOL0     O84693   4.948  10.064   8.723  0.5559 -0.5211  0.2027
  628MOL0     C84694   5.238   9.885   8.825  0.8726 -0.3362  0.2804
  628MOL0     C84695   5.267   9.758   8.875  0.4566 -0.3948 -0.2596
  628MOL0     N84696   5.574   9.443   9.469  0.8578 -0.1307 -0.4692
  628MOL0     N84697   5.615   9.377   9.570 -0.7414  0.3945 -0.2384
  628MOL0     C84698   4.836   9.229  10.123  0.1171  0.0375  0.3405
  628MOL0     C84699   4.793   9.361  10.152 -0.4172 -0.0285  0.4700
  628MOL0     C84700   4.734   9.770  10.324  0.1808  0.2625 -0.0014
  628MOL0     C84701   4.633   9.867  10.291 -0.3642  0.4276 -0.8115
  628MOL0     C84702   4.639   9.997  10.341  0.5860 -0.3138  0.7923
  628MOL0     C84703   4.747  10.034  10.429  0.1939 -1.0111  0.2310
  628MOL0     O84704   4.767  10.166  10.465  0.0222 -0.0258 -0.4966
  628MOL0     C84705   4.787  10.255  10.348 -1.0105 -0.2926  0.4056
  628MOL0     C84706   4.917  10.330  10.345 -0.8274  0.7356 -0.3761
  628MOL0     C84707   4.932  10.427  10.229  0.2477  0.4641 -0.3609
  628MOL0     C84708   5.078  10.493  10.208  0.4559  0.5687  0.1690
  628MOL0     C84709   5.097  10.560  10.084 -0.3650  1.3898  0.1867
  628MOL0     C84710   5.111  10.604   9.972  0.1318 -0.2754 -0.5512
  628MOL0     C84711   4.839   9.931  10.470  1.9006  0.3814 -0.0932
  628MOL0     C84712   4.825   9.805  10.418 -0.4423  0.3301  0.1014
  628MOL0     H84713   5.001   9.426  10.412 -0.5302  0.9730  0.1756
  628MOL0     H84714   5.072   9.201  10.372 -2.6267  1.0313  3.1136
  628MOL0     H84715   4.918   9.005   9.977 -0.1261  0.4865 -0.2763
  628MOL0     H84716   5.069   9.101   9.969 -1.4734 -0.2515 -1.7945
  628MOL0     H84717   5.027   8.809  10.049 -2.0991 -0.2319 -2.1332
  628MOL0     H84718   5.073   8.852   9.889  0.9094  0.1450  0.0131
  628MOL0     H84719   5.251   8.975  10.100 -1.6438  0.2389  0.1925
  628MOL0     H84720   5.240   8.797  10.113  1.2003 -1.1068 -0.6465
  628MOL0     H84721   5.421   8.812   9.968 -0.4988 -2.9383 -0.2504
  628MOL0     H84722   5.286   8.794   9.855  0.8562  0.1939 -1.3095
  628MOL0     H84723   5.256   9.027   9.798 -0.8232 -1.9366  0.0613
  628MOL0     H84724   5.378   9.072   9.916  1.9314 -0.3831 -0.7361
  628MOL0     H84725   5.551   8.957   9.788 -1.9143 -3.0526  1.3981
  628MOL0     H84726   5.423   8.898   9.675 -0.8211 -0.3239 -1.2334
  628MOL0     H84727   5.523   9.099   9.572 -0.8420 -1.8665 -0.4266
  628MOL0     H84728   5.357   9.118   9.612 -0.2941 -2.2305 -0.1878
  628MOL0     H84729   5.608   9.208   9.772 -0.0294  2.4279  0.7864
  628MOL0     H84730   5.442   9.261   9.814  0.6374  1.8616 -0.9722
  628MOL0     H84731   5.286   9.376   9.611  0.1103 -1.2748  1.0321
  628MOL0     H84732   5.322   9.382   9.284 -1.0392  0.1316 -0.1645
  628MOL0     H84733   5.282   9.538   9.357  2.5251  2.0699  2.4321
  628MOL0     H84734   5.536   9.470   9.208 -1.0501 -1.8695 -1.0188
  628MOL0     H84735   5.515   9.624   9.291 -1.6794  2.3304 -0.4268
  628MOL0     H84736   5.463   9.664   9.071 -1.0805 -1.4437 -2.1015
  628MOL0     H84737   5.309   9.676   9.160 -1.9403 -0.3794 -2.0285
  628MOL0     H84738   5.327   9.420   9.085 -0.0560 -0.5818  0.2044
  628MOL0     H84739   5.405   9.510   8.945 -0.8090  0.7698  0.6822
  628MOL0     H84740   4.973   9.671   9.025  0.6133 -0.0455  2.0095
  628MOL0     H84741   4.893  10.005   8.952 -0.6694 -0.0763 -0.3642
  628MOL0     H84742   4.813   9.906   8.831  0.3097  1.0804 -0.3998
  628MOL0     H84743   4.831   9.838   9.001  1.7770 -0.0960  1.1060
  628MOL0     H84744   5.378  10.264   8.656  1.6461  2.1973 -0.9206
  628MOL0     H84745   5.383  10.515   8.662  0.8345 -0.7482  0.2549
  628MOL0     H84746   5.381  10.705   8.806  0.0622  0.9529 -0.2894
  628MOL0     H84747   5.291  10.843   8.825 -0.8408 -0.0381  2.1965
  628MOL0     H84748   5.142  10.731   9.009  1.0344  1.4419  2.3829
  628MOL0     H84749   5.229  10.578   8.987  1.2837 -0.1436  5.6912
  628MOL0     H84750   5.380  10.828   9.048  1.2887 -1.0642 -1.1551
  628MOL0     H84751   5.437  10.661   9.066  0.6132  1.6922  0.0377
  628MOL0     H84752   5.186  10.706   9.211  0.4686 -1.8076 -2.3035
  628MOL0     H84753   5.318  10.629   9.271 -3.3071  0.9525  3.2069
  628MOL0     H84754   5.254  10.840   9.404  0.4966 -4.4920  0.1930
  628MOL0     H84755   5.303  10.943   9.273  0.2497  0.1231 -0.9234
  628MOL0     H84756   5.523  10.837   9.283 -2.0094 -0.5657 -1.7116
  628MOL0     H84757   5.481  10.936   9.423 -3.5167  0.5376  0.0262
  628MOL0     H84758   5.479  10.629   9.430 -0.7106  0.2185  1.7479
  628MOL0     H84759   5.419  10.741   9.552 -1.8118 -1.5987 -0.2376
  628MOL0     H84760   5.706  10.750   9.444  1.3949  0.3007  1.7699
  628MOL0     H84761   5.649  10.652   9.588 -1.0880  0.7065  0.7595
  628MOL0     H84762   4.973  10.535   8.752 -0.1382  0.4938 -2.6735
  628MOL0     H84763   4.963  10.293   8.761 -0.2379  2.8833  1.3429
  628MOL0     H84764   5.318   9.946   8.785  0.3403 -0.6441 -1.3415
  628MOL0     H84765   5.372   9.728   8.873  0.1583 -1.4836 -1.9747
  628MOL0     H84766   4.787   9.172  10.045 -0.7579 -2.9360  2.8463
  628MOL0     H84767   4.712   9.403  10.092 -0.2035 -0.7513 -0.3502
  628MOL0     H84768   4.543   9.844  10.234 -0.7164  1.4659 -0.7043
  628MOL0     H84769   4.565  10.072  10.316  0.9566 -0.5434 -1.1126
  628MOL0     H84770   4.801  10.193  10.259  5.0927 -0.4586  1.0690
  628MOL0     H84771   4.701  10.322  10.342 -1.9699 -1.6236 -2.2503
  628MOL0     H84772   4.992  10.252  10.327  0.4858  2.0922 -1.0810
  628MOL0     H84773   4.938  10.380  10.441  1.2057 -2.5192  1.0611
  628MOL0     H84774   4.867  10.515  10.229 -1.0914 -0.4920 -1.1105
  628MOL0     H84775   4.916  10.362  10.143  2.5858 -0.9491  0.1741
  628MOL0     H84776   5.150  10.413  10.227 -0.1356  0.1377  0.6320
  628MOL0     H84777   5.097  10.561  10.291 -1.7364 -0.7864  1.9045
  628MOL0     H84778   5.136  10.641   9.875  1.6220 -1.1293 -0.5265
  628MOL0     H84779   4.902   9.961  10.554 -0.4209  0.5226  1.7060
  628MOL0     H84780   4.885   9.727  10.465 -0.9657 -0.8421 -1.1177
  629MOL0     O84781   7.495   9.835   5.355 -1.0080  0.1640 -0.7210
  629MOL0     C84782   7.600   9.864   5.289  0.0332 -0.1010 -0.6547
  629MOL0     O84783   7.601   9.921   5.170  0.5647  1.1661 -0.0863
  629MOL0     C84784   7.497   9.990   5.121 -1.0123 -0.1938  0.3122
  629MOL0     C84785   7.513  10.018   4.992  0.3588 -0.8366  0.2086
  629MOL0     C84786   7.428  10.101   4.928  0.1755 -1.1896 -0.3532
  629MOL0     C84787   7.326  10.171   4.997 -0.1636 -0.0319 -0.4499
  629MOL0     O84788   7.243  10.259   4.927  0.8731 -0.9316  0.4812
  629MOL0     C84789   7.220  10.258   4.783  0.3617 -0.4009  0.6192
  629MOL0     C84790   7.120  10.369   4.735 -0.7185 -0.5609  0.7015
  629MOL0     C84791   7.053  10.338   4.592  0.2771 -0.6924  0.0453
  629MOL0     C84792   7.149  10.300   4.471  0.4164  0.1164  0.1477
  629MOL0     C84793   7.078  10.330   4.342  0.3274  0.2210 -0.7589
  629MOL0     C84794   7.153  10.284   4.222 -0.3916 -0.6451  0.2182
  629MOL0     C84795   7.064  10.264   4.098  0.4691 -0.4490 -0.0366
  629MOL0     C84796   7.024  10.403   4.042  0.4026 -0.6900  0.0980
  629MOL0     N84797   6.973  10.410   3.902 -0.1069  0.1550  0.0747
  629MOL0     C84798   6.842  10.415   3.858 -0.6132  0.4419 -0.4833
  629MOL0     C84799   6.852  10.426   3.726 -0.3205 -0.3592 -0.0585
  629MOL0     C84800   6.739  10.439   3.627 -0.1567 -0.2985 -0.1602
  629MOL0     C84801   6.600  10.428   3.675 -1.0166  0.0721 -0.1468
  629MOL0     C84802   6.504  10.423   3.555 -0.2274 -0.1065 -0.1406
  629MOL0     C84803   6.363  10.372   3.609 -0.9323  0.7135 -0.1393
  629MOL0     O84804   6.321  10.449   3.722  0.0428 -0.0262 -0.0169
  629MOL0     C84805   6.270  10.575   3.699  0.1848 -0.3238 -0.3868
  629MOL0     C84806   6.150  10.603   3.634 -0.7938  0.0550 -0.2555
  629MOL0     C84807   6.104  10.733   3.610 -0.8362  0.4405  0.0886
  629MOL0     C84808   5.977  10.740   3.525  0.1546  0.5287 -0.5304
  629MOL0     C84809   6.168  10.838   3.675  0.5015  0.5213 -0.9370
  629MOL0     C84810   6.116  10.981   3.683  0.0212 -0.3594 -0.5706
  629MOL0     O84811   5.994  11.017   3.636 -0.1190 -0.4690  0.1551
  629MOL0     C84812   5.942  11.143   3.664 -0.3126 -1.0310  0.1115
  629MOL0     C84813   5.810  11.167   3.697 -0.6162  0.3978 -0.9258
  629MOL0     C84814   5.763  11.302   3.705  0.2982 -0.6687 -0.2716
  629MOL0     C84815   5.846  11.411   3.674  0.5565 -0.1464  0.0319
  629MOL0     O84816   5.795  11.537   3.677  1.2227  0.7778  0.4491
  629MOL0     C84817   5.670  11.553   3.602 -0.5042  0.1843  0.2451
  629MOL0     C84818   5.678  11.660   3.491 -0.1696 -0.1383  0.4753
  629MOL0     C84819   5.783  11.627   3.387  0.1194  0.8375 -0.2777
  629MOL0     C84820   5.718  11.528   3.289 -0.5484 -0.9597 -0.0456
  629MOL0     C84821   5.807  11.502   3.173  0.5122  0.5537  0.3300
  629MOL0     C84822   5.704  11.423   3.085 -0.2287  0.6266  0.2501
  629MOL0     C84823   5.760  11.384   2.942  0.7206 -0.6275 -0.0568
  629MOL0     C84824   5.834  11.248   2.943 -0.1860 -0.4536 -0.1411
  629MOL0    Cl84825   5.909  11.200   2.796 -0.3279  0.2365  0.0341
  629MOL0     C84826   5.974  11.388   3.639  0.5037  0.7428  0.3851
  629MOL0     C84827   6.023  11.254   3.628  0.4726  0.1167 -0.4317
  629MOL0     O84828   6.184  11.047   3.756  0.2958 -0.8559  0.0513
  629MOL0     C84829   6.286  10.808   3.750  0.4236 -0.3019 -0.2740
  629MOL0     C84830   6.341  10.680   3.752  0.6502  0.0178 -0.2676
  629MOL0     N84831   6.984  10.429   3.685  0.5586 -0.9537 -0.7002
  629MOL0     N84832   7.056  10.424   3.793  0.0914 -0.0307  0.1559
  629MOL0     C84833   7.304  10.138   5.129  0.2573 -0.4268 -0.1427
  629MOL0     C84834   7.396  10.049   5.198  0.8847 -0.1598 -0.1779
  629MOL0     C84835   7.728   9.810   5.334  0.0212 -0.0544  0.0771
  629MOL0     C84836   7.750   9.761   5.462 -0.2664 -0.6096 -1.1403
  629MOL0     C84837   7.871   9.691   5.497 -0.0008  0.0635  1.1042
  629MOL0     C84838   7.972   9.680   5.399 -0.2475 -0.3260  0.4799
  629MOL0     O84839   8.078   9.609   5.437 -0.0215 -0.3131 -0.1343
  629MOL0     C84840   8.151   9.556   5.331 -0.1871  0.5185  0.1393
  629MOL0     C84841   8.263   9.464   5.370 -0.2969  0.5595 -0.1377
  629MOL0     C84842   8.360   9.525   5.470 -0.2854  0.1872  0.0733
  629MOL0     C84843   8.454   9.421   5.535  0.1828  1.0105  0.8248
  629MOL0     C84844   8.521   9.472   5.654 -0.6706 -0.0143  0.2258
  629MOL0     C84845   8.575   9.523   5.751  0.2553 -0.9832 -0.2537
  629MOL0     C84846   7.961   9.749   5.277  0.4909  0.5646  0.2919
  629MOL0     C84847   7.837   9.807   5.246 -0.0809 -0.2933 -0.7263
  629MOL0     H84848   7.601   9.976   4.946  1.4194 -1.3487  2.5483
  629MOL0     H84849   7.448  10.119   4.823  2.2540 -1.3237 -0.0142
  629MOL0     H84850   7.310  10.262   4.722 -1.0790  3.0131 -1.6202
  629MOL0     H84851   7.172  10.162   4.760  0.3341 -0.8316  2.3458
  629MOL0     H84852   7.028  10.382   4.793 -3.1716 -1.0848 -2.7674
  629MOL0     H84853   7.181  10.460   4.742 -0.1689 -1.0111  2.3006
  629MOL0     H84854   6.970  10.268   4.598 -0.4468  0.1541  0.1053
  629MOL0     H84855   6.999  10.432   4.577  1.6367  1.1183  4.7749
  629MOL0     H84856   7.238  10.361   4.489  0.5084 -0.0528  0.2678
  629MOL0     H84857   7.173  10.194   4.468  0.4323  0.1386 -0.8478
  629MOL0     H84858   6.984  10.276   4.353  0.1586  0.5871 -0.3489
  629MOL0     H84859   7.040  10.433   4.336 -1.4599 -0.3928 -0.5738
  629MOL0     H84860   7.236  10.352   4.200 -0.1367 -1.1997 -0.5704
  629MOL0     H84861   7.195  10.185   4.245  0.2194 -0.6771 -0.9568
  629MOL0     H84862   7.126  10.220   4.019  2.1885  0.0925  0.9492
  629MOL0     H84863   6.979  10.200   4.124 -0.1360  0.0743 -0.7096
  629MOL0     H84864   7.118  10.459   4.047  1.9299 -2.9354 -1.6269
  629MOL0     H84865   6.951  10.448   4.110  0.9092 -0.5006  0.5301
  629MOL0     H84866   6.757  10.424   3.925  0.9907 -3.5938  2.4744
  629MOL0     H84867   6.758  10.528   3.567  0.2110 -0.0121  0.3709
  629MOL0     H84868   6.755  10.351   3.564 -0.5331 -0.6566  0.2324
  629MOL0     H84869   6.578  10.509   3.746  0.2465 -0.9417  1.4473
  629MOL0     H84870   6.585  10.333   3.726  3.5538 -1.6607 -1.6009
  629MOL0     H84871   6.538  10.347   3.484  1.4627  2.1159 -1.8793
  629MOL0     H84872   6.499  10.522   3.509  2.7007 -0.8654 -2.4220
  629MOL0     H84873   6.354  10.264   3.626 -0.9476  0.6684 -0.4206
  629MOL0     H84874   6.294  10.390   3.526 -0.8565  2.6612  0.1909
  629MOL0     H84875   6.103  10.513   3.597  1.7393 -2.1578  1.5458
  629MOL0     H84876   5.892  10.790   3.571  2.8479  2.3052  2.9467
  629MOL0     H84877   6.020  10.789   3.437  6.0429  0.0668  1.6482
  629MOL0     H84878   5.939  10.637   3.514 -1.1807  0.7073  1.7221
  629MOL0     H84879   5.746  11.084   3.725  1.1221 -1.3651 -1.8801
  629MOL0     H84880   5.660  11.320   3.734  1.2424  2.1995  1.7241
  629MOL0     H84881   5.633  11.457   3.566 -0.5386  0.3262 -0.0978
  629MOL0     H84882   5.591  11.578   3.673 -0.8219 -3.7149  1.5152
  629MOL0     H84883   5.579  11.669   3.445 -1.0646 -1.3862  2.0325
  629MOL0     H84884   5.710  11.750   3.544  1.2035 -2.2728  3.5642
  629MOL0     H84885   5.867  11.583   3.443 -0.1372  3.0396  2.0041
  629MOL0     H84886   5.823  11.720   3.346  0.3357  1.5835  1.5343
  629MOL0     H84887   5.703  11.435   3.344  1.4728 -1.3004  0.0043
  629MOL0     H84888   5.615  11.545   3.254 -0.9289 -1.8050  0.6186
  629MOL0     H84889   5.894  11.441   3.199  0.0239  0.0579  0.8404
  629MOL0     H84890   5.841  11.596   3.129 -2.8030  1.0209 -1.5769
  629MOL0     H84891   5.677  11.341   3.152 -0.7534  2.9775  3.1306
  629MOL0     H84892   5.622  11.489   3.054 -0.0113  0.2701 -1.1272
  629MOL0     H84893   5.831  11.464   2.920  1.1667 -0.6529  1.1706
  629MOL0     H84894   5.682  11.388   2.866  2.0708  1.6887 -1.4102
  629MOL0     H84895   5.763  11.168   2.968 -1.0980 -0.3478 -2.2288
  629MOL0     H84896   5.913  11.249   3.019 -1.0996 -0.4912  0.8364
  629MOL0     H84897   6.030  11.479   3.616  0.5554  1.8719  4.3060
  629MOL0     H84898   6.126  11.234   3.601  0.9925 -0.7358  1.9456
  629MOL0     H84899   6.345  10.883   3.800  2.0116 -0.6835 -1.4796
  629MOL0     H84900   6.428  10.654   3.812 -0.6921 -0.6799  1.4855
  629MOL0     H84901   7.231  10.190   5.190  3.3694  0.9897  2.7483
  629MOL0     H84902   7.387  10.033   5.305 -1.4894  1.8397  0.0216
  629MOL0     H84903   7.673   9.776   5.537 -0.0923  1.1508 -1.2786
  629MOL0     H84904   7.889   9.642   5.592  1.0838 -4.3944 -1.1447
  629MOL0     H84905   8.086   9.506   5.258 -1.8725  1.2297  1.0921
  629MOL0     H84906   8.204   9.641   5.287  1.6351 -0.5747  0.1137
  629MOL0     H84907   8.317   9.446   5.276  0.8858  2.1784  0.1948
  629MOL0     H84908   8.229   9.365   5.402  0.1786  1.2782  2.8084
  629MOL0     H84909   8.320   9.597   5.542 -0.5636  1.7626 -1.5840
  629MOL0     H84910   8.422   9.581   5.401  0.5375 -0.9387 -0.1279
  629MOL0     H84911   8.519   9.373   5.461 -0.5314  0.9158  0.2440
  629MOL0     H84912   8.379   9.350   5.572 -1.0716  1.7785 -0.1439
  629MOL0     H84913   8.618   9.563   5.840 -2.0799  2.0683 -0.3341
  629MOL0     H84914   8.038   9.755   5.201 -0.2405  1.1880 -0.4200
  629MOL0     H84915   7.829   9.831   5.140 -0.9675 -3.3599 -1.4573
  630MOL0     O84916   0.170   1.792  10.456 -0.0819  0.4609  0.8293
  630MOL0     C84917   0.289   1.768  10.420  0.2796  1.0411 -0.4947
  630MOL0     O84918   0.325   1.732  10.298  0.4879  0.1944  0.0587
  630MOL0     C84919   0.222   1.730  10.199  0.0579  0.0484 -0.2730
  630MOL0     C84920   0.175   1.612  10.141 -0.6771  0.2456 -0.6764
  630MOL0     C84921   0.074   1.612  10.044  0.7252 -0.0888  0.0799
  630MOL0     C84922   0.023   1.732   9.995  0.3871  0.3426  0.6769
  630MOL0     O84923  -0.071   1.736   9.892 -0.8131 -0.2592  0.3179
  630MOL0     C84924  -0.122   1.628   9.818 -0.3601 -0.3304 -0.9797
  630MOL0     C84925  -0.240   1.675   9.734  0.0976  0.8380  0.5613
  630MOL0     C84926  -0.203   1.758   9.608  0.0518 -0.0318  0.1615
  630MOL0     C84927  -0.322   1.759   9.509  0.4937 -0.4414  1.7217
  630MOL0     C84928  -0.312   1.888   9.420  1.2785 -0.2182  1.1700
  630MOL0     C84929  -0.204   1.876   9.316 -0.5593  1.6246 -0.1152
  630MOL0     C84930  -0.236   1.955   9.187  0.0178  0.4084  0.5293
  630MOL0     C84931  -0.151   1.931   9.070 -0.2634  0.5411  0.1174
  630MOL0     N84932  -0.003   1.953   9.086  0.4282  0.7418  0.1846
  630MOL0     C84933   0.076   2.032   9.007 -0.6591 -0.4588 -0.1616
  630MOL0     C84934   0.195   2.033   9.067  0.0625 -0.4238  0.4682
  630MOL0     C84935   0.319   2.103   9.035 -0.9879  0.6433 -0.2499
  630MOL0     C84936   0.384   2.056   8.910 -0.1003 -0.4609  0.8312
  630MOL0     C84937   0.462   1.929   8.936  0.1077  0.4700 -0.3755
  630MOL0     C84938   0.539   1.888   8.808  0.5231 -0.4114 -0.4446
  630MOL0     O84939   0.579   2.005   8.730  0.6300  0.2660 -0.2481
  630MOL0     C84940   0.643   1.985   8.611 -0.3182  0.8018  0.0460
  630MOL0     C84941   0.648   2.083   8.511 -1.6555 -0.3530 -0.5254
  630MOL0     C84942   0.712   2.057   8.382  0.9093 -0.7475 -0.0586
  630MOL0     C84943   0.734   2.171   8.291 -0.4252  0.8652  0.8954
  630MOL0     C84944   0.757   1.926   8.352  0.1234  0.1929 -0.3367
  630MOL0     C84945   0.822   1.886   8.220  0.1183  0.6500 -0.5630
  630MOL0     O84946   0.927   1.797   8.235 -0.2416  0.3522 -1.0850
  630MOL0     C84947   1.012   1.790   8.126 -0.0900  0.6173 -0.1957
  630MOL0     C84948   1.005   1.671   8.052 -0.0183 -0.2292 -1.1339
  630MOL0     C84949   1.058   1.670   7.923  0.0342 -0.4302  0.0477
  630MOL0     C84950   1.143   1.779   7.879  0.8780 -0.2333  1.0887
  630MOL0     O84951   1.216   1.778   7.757  0.0709 -0.0839  0.5322
  630MOL0     C84952   1.267   1.651   7.711  0.8553  0.1524 -0.0508
  630MOL0     C84953   1.390   1.665   7.629 -0.0877 -0.6536  0.3250
  630MOL0     C84954   1.496   1.722   7.719 -0.7114 -0.9712  0.1680
  630MOL0     C84955   1.623   1.746   7.636  1.2426 -0.3791 -0.1060
  630MOL0     C84956   1.737   1.778   7.733  0.2162 -0.0293  0.2677
  630MOL0     C84957   1.862   1.832   7.653 -0.3138  0.6470 -0.3105
  630MOL0     C84958   1.981   1.851   7.747  0.8168  0.1502 -0.3198
  630MOL0     C84959   2.023   1.998   7.730  0.8397 -0.6964 -1.6618
  630MOL0    Cl84960   2.070   2.025   7.560  0.3993 -0.2065  0.4473
  630MOL0     C84961   1.136   1.901   7.950 -0.0551 -0.0420 -0.5518
  630MOL0     C84962   1.069   1.909   8.072  0.0787 -0.1461 -0.9046
  630MOL0     O84963   0.761   1.916   8.122 -0.6862 -0.0208  0.5578
  630MOL0     C84964   0.742   1.836   8.453 -0.5761  0.3182 -0.3900
  630MOL0     C84965   0.696   1.854   8.581 -0.1768 -0.1299 -1.1841
  630MOL0     N84966   0.188   1.940   9.175  0.0604  0.4756 -0.4483
  630MOL0     N84967   0.072   1.891   9.188 -0.4359  0.2338  0.2131
  630MOL0     C84968   0.073   1.847  10.048 -0.0426  0.1614  0.6615
  630MOL0     C84969   0.167   1.851  10.151 -0.1170 -0.4297  0.0517
  630MOL0     C84970   0.393   1.787  10.526  0.2410 -0.0955 -0.3013
  630MOL0     C84971   0.523   1.785  10.480  1.1251  0.3882 -0.7310
  630MOL0     C84972   0.621   1.822  10.573 -0.0675 -0.5331  0.0690
  630MOL0     C84973   0.589   1.877  10.704 -0.7445  0.3503  0.0450
  630MOL0     O84974   0.683   1.928  10.788  0.9574 -0.7630 -0.2631
  630MOL0     C84975   0.788   1.844  10.839  0.1382 -0.4464 -0.9160
  630MOL0     C84976   0.747   1.749  10.949 -0.2323 -0.0258  0.1465
  630MOL0     C84977   0.766   1.814  11.084 -0.0964 -0.1297  0.2692
  630MOL0     C84978   0.668   1.923  11.118  0.9462  0.4069  0.8764
  630MOL0     C84979   0.526   1.878  11.130  0.7823 -0.2669  0.1207
  630MOL0     C84980   0.414   1.845  11.151 -0.2281 -0.3020 -0.0792
  630MOL0     C84981   0.459   1.873  10.746  0.0129  0.2055  0.3812
  630MOL0     C84982   0.358   1.822  10.660 -0.4158 -0.5967  0.9911
  630MOL0     H84983   0.224   1.518  10.164 -2.0254 -1.2037 -3.3250
  630MOL0     H84984   0.036   1.519  10.003  1.6016  0.4175 -1.9851
  630MOL0     H84985  -0.044   1.581   9.757  0.5931 -0.1650  0.0948
  630MOL0     H84986  -0.152   1.549   9.887 -0.3127 -1.7899 -2.5520
  630MOL0     H84987  -0.299   1.590   9.701  0.3586  0.6844  0.4816
  630MOL0     H84988  -0.313   1.730   9.794 -1.6695  1.8045 -2.2857
  630MOL0     H84989  -0.180   1.862   9.632  0.2531 -0.2390  0.8819
  630MOL0     H84990  -0.116   1.708   9.566 -0.2601  0.3078 -0.9187
  630MOL0     H84991  -0.329   1.672   9.443 -0.6357  1.5214 -0.9127
  630MOL0     H84992  -0.421   1.763   9.554 -1.3872  0.5007 -2.0672
  630MOL0     H84993  -0.408   1.902   9.369  0.8663 -4.0070  0.6508
  630MOL0     H84994  -0.284   1.974   9.482  1.5084 -0.3045  1.1839
  630MOL0     H84995  -0.108   1.908   9.359 -0.1365  1.0884 -0.6299
  630MOL0     H84996  -0.189   1.770   9.295 -3.4063  1.4532 -1.7845
  630MOL0     H84997  -0.343   1.951   9.166  0.0408 -0.5250  0.5521
  630MOL0     H84998  -0.215   2.057   9.220 -1.6646  0.6588  0.9169
  630MOL0     H84999  -0.185   1.995   8.988 -3.4324 -0.2207  0.6880
  630MOL0     H85000  -0.176   1.830   9.035  1.3715  0.6252 -1.4398
  630MOL0     H85001   0.051   2.096   8.923  0.6105  1.3034  0.7483
  630MOL0     H85002   0.290   2.208   9.026 -1.5915  0.7429  2.1794
  630MOL0     H85003   0.391   2.109   9.117 -0.3200  0.5498 -0.8196
  630MOL0     H85004   0.447   2.132   8.862 -3.4817  1.3227 -1.1203
  630MOL0     H85005   0.307   2.048   8.833  0.2866  1.2032  0.2151
  630MOL0     H85006   0.385   1.854   8.957 -0.9793  0.9803 -2.3218
  630MOL0     H85007   0.532   1.937   9.020  1.2280 -0.3911 -1.2075
  630MOL0     H85008   0.469   1.826   8.751  1.2164 -0.2529 -1.4829
  630MOL0     H85009   0.621   1.825   8.843  0.1435 -0.4173  0.4729
  630MOL0     H85010   0.609   2.182   8.534  1.3545  1.0169 -0.8154
  630MOL0     H85011   0.673   2.258   8.316 -2.6142 -0.3488 -0.0278
  630MOL0     H85012   0.841   2.197   8.298 -0.4904  0.7214  3.6562
  630MOL0     H85013   0.706   2.141   8.190  0.3909 -0.5329  1.0615
  630MOL0     H85014   0.956   1.582   8.090  0.0868  0.2625  0.2212
  630MOL0     H85015   1.052   1.583   7.859 -0.4443  1.5615 -2.8411
  630MOL0     H85016   1.284   1.587   7.798  1.9316  1.1672  0.5122
  630MOL0     H85017   1.199   1.602   7.641  1.6953 -2.1829  0.6607
  630MOL0     H85018   1.420   1.568   7.588  1.1734  0.6480 -2.0284
  630MOL0     H85019   1.380   1.723   7.537  3.0494  0.3496  0.4924
  630MOL0     H85020   1.516   1.663   7.809  1.7668  1.0621  1.0626
  630MOL0     H85021   1.470   1.826   7.740  1.8643  0.1841 -1.7515
  630MOL0     H85022   1.645   1.662   7.569  2.3110  0.1121 -0.3901
  630MOL0     H85023   1.595   1.829   7.571 -2.5773 -1.2644  0.1631
  630MOL0     H85024   1.760   1.696   7.802 -2.7870  0.7834  2.4607
  630MOL0     H85025   1.697   1.864   7.788 -3.8117 -1.3600 -0.2565
  630MOL0     H85026   1.882   1.751   7.583 -4.3877 -0.7519 -0.1383
  630MOL0     H85027   1.828   1.919   7.597 -0.4133  1.8580  1.5232
  630MOL0     H85028   2.067   1.786   7.724  1.3295  0.2176  1.2830
  630MOL0     H85029   1.957   1.841   7.853  1.7696  2.8675  0.2207
  630MOL0     H85030   2.110   2.015   7.794 -1.1084 -1.2060  1.3329
  630MOL0     H85031   1.947   2.075   7.744  0.8360 -0.4773 -2.8084
  630MOL0     H85032   1.193   1.983   7.907  0.4262 -1.7142 -3.3512
  630MOL0     H85033   1.060   2.000   8.131  0.6596  0.7227 -2.1223
  630MOL0     H85034   0.786   1.740   8.428  0.2353  0.6351 -0.2211
  630MOL0     H85035   0.686   1.769   8.648 -0.2560 -0.7288 -1.9456
  630MOL0     H85036   0.029   1.939  10.010 -2.3576  0.1162  2.9489
  630MOL0     H85037   0.207   1.945  10.186  1.3326 -1.7802  2.2979
  630MOL0     H85038   0.551   1.758  10.379 -0.2309  1.8987 -1.5548
  630MOL0     H85039   0.723   1.833  10.539 -0.4795  2.6743 -0.4406
  630MOL0     H85040   0.815   1.777  10.756 -3.8460 -4.3201  0.5001
  630MOL0     H85041   0.875   1.900  10.876 -0.4026 -2.1093  3.4515
  630MOL0     H85042   0.803   1.655  10.944 -0.0053 -0.1855  3.5134
  630MOL0     H85043   0.643   1.714  10.939 -0.4123  0.8336 -1.1614
  630MOL0     H85044   0.870   1.848  11.082  0.5018 -1.8719 -0.0488
  630MOL0     H85045   0.751   1.734  11.158 -0.9624 -0.8542 -0.6596
  630MOL0     H85046   0.676   2.010  11.051  2.0710 -0.8106 -0.6476
  630MOL0     H85047   0.704   1.967  11.211 -1.2443  2.6750  0.7839
  630MOL0     H85048   0.314   1.813  11.172  0.5115 -3.4927 -0.9000
  630MOL0     H85049   0.437   1.874  10.852 -0.9011 -2.1597  0.2649
  630MOL0     H85050   0.255   1.820  10.694 -0.6632  2.1631  0.6741
  631MOL0     O85051   4.401   7.926  10.428  0.2424 -0.4802  0.1762
  631MOL0     C85052   4.445   8.034  10.397 -0.7377 -0.8069 -1.0399
  631MOL0     O85053   4.403   8.152  10.441  0.7343 -0.7571 -0.1487
  631MOL0     C85054   4.312   8.161  10.536 -0.2575 -0.8975 -0.1652
  631MOL0     C85055   4.177   8.115  10.511 -0.9392  0.3869 -0.8741
  631MOL0     C85056   4.088   8.117  10.620  1.0071 -0.1347 -0.9067
  631MOL0     C85057   4.122   8.173  10.749 -0.0471  0.8164 -0.8055
  631MOL0     O85058   4.034   8.199  10.849 -0.0195  0.2133 -0.3942
  631MOL0     C85059   3.965   8.324  10.829 -0.0050  0.4259 -0.0206
  631MOL0     C85060   3.957   8.400  10.955 -0.2967  1.2007 -0.1436
  631MOL0     C85061   4.081   8.473  11.000 -0.1209 -0.7023 -0.1078
  631MOL0     C85062   4.098   8.611  10.925 -0.3119  0.4815  0.2514
  631MOL0     C85063   4.243   8.650  10.943  0.7080 -0.0311  1.0993
  631MOL0     C85064   4.259   8.784  10.865  0.0727 -0.5510  0.2723
  631MOL0     C85065   4.402   8.812  10.825  0.6004 -0.2970  0.1057
  631MOL0     C85066   4.489   8.860  10.942  0.4635  0.3855 -1.1937
  631MOL0     N85067   4.631   8.901  10.917  0.1529 -0.1604 -0.2851
  631MOL0     C85068   4.736   8.823  10.887  0.7103 -0.8350 -0.5001
  631MOL0     C85069   4.839   8.905  10.869 -0.5630 -0.5618  0.1879
  631MOL0     C85070   4.986   8.869  10.837 -0.1438  0.6596 -0.2138
  631MOL0     C85071   4.999   8.866  10.688  0.8090  0.5438 -0.1141
  631MOL0     C85072   5.142   8.856  10.641 -0.6971 -0.3717  0.2938
  631MOL0     C85073   5.142   8.887  10.489  0.8037 -0.1485  0.1233
  631MOL0     O85074   5.281   8.872  10.452  0.7898 -0.3394  0.0176
  631MOL0     C85075   5.329   8.745  10.420 -0.3080 -0.4467 -0.7779
  631MOL0     C85076   5.459   8.753  10.374  0.3706  0.0709 -1.0068
  631MOL0     C85077   5.535   8.644  10.339  0.7860 -0.1627 -0.2074
  631MOL0     C85078   5.665   8.675  10.272  0.5367  0.0383  0.0595
  631MOL0     C85079   5.476   8.519  10.343 -0.3971  0.5591  0.3446
  631MOL0     C85080   5.542   8.393  10.310  0.3713 -0.3360 -0.2247
  631MOL0     O85081   5.464   8.273  10.323 -0.9273 -0.1005 -0.6438
  631MOL0     C85082   5.540   8.160  10.311  0.3700  0.2348 -0.6546
  631MOL0     C85083   5.548   8.089  10.195  0.0741  0.4188  0.3421
  631MOL0     C85084   5.642   7.982  10.172 -0.0264  0.1211 -1.2090
  631MOL0     C85085   5.720   7.933  10.279 -0.5700  0.0983  0.2991
  631MOL0     O85086   5.817   7.839  10.266 -0.2036 -0.1726 -0.7550
  631MOL0     C85087   5.801   7.737  10.176 -0.4581  0.6977  0.7178
  631MOL0     C85088   5.680   7.646  10.201  0.4807 -0.5088 -0.0036
  631MOL0     C85089   5.669   7.525  10.117  0.0620  0.3285 -0.1422
  631MOL0     C85090   5.531   7.457  10.129  0.9692  0.0370 -0.3046
  631MOL0     C85091   5.512   7.357  10.243  0.4299  0.3465  0.3210
  631MOL0     C85092   5.455   7.225  10.203  0.4956  0.3754 -0.9002
  631MOL0     C85093   5.541   7.147  10.112 -0.4812  0.1077 -0.0970
  631MOL0     C85094   5.503   6.998  10.113 -0.3915  0.4675 -0.2652
  631MOL0    Cl85095   5.501   6.916  10.275  0.5967  0.2301  0.4524
  631MOL0     C85096   5.704   8.003  10.398 -0.3036  0.1746  0.2859
  631MOL0     C85097   5.609   8.102  10.423  0.6981  0.7409  0.7410
  631MOL0     O85098   5.661   8.390  10.319 -0.5703 -0.0376 -0.2438
  631MOL0     C85099   5.337   8.517  10.372 -0.6373 -0.2554 -0.6930
  631MOL0     C85100   5.262   8.628  10.406  0.3368 -0.8973 -0.2680
  631MOL0     N85101   4.789   9.033  10.892  0.2770  0.1341 -0.2041
  631MOL0     N85102   4.658   9.030  10.910 -0.5531  0.1461 -0.6177
  631MOL0     C85103   4.255   8.207  10.775  0.4887 -0.9117  1.0532
  631MOL0     C85104   4.342   8.216  10.667  0.2987  0.5570  0.1518
  631MOL0     C85105   4.574   8.031  10.329 -0.0001 -0.9561 -0.4219
  631MOL0     C85106   4.651   8.151  10.322  0.9395 -0.5836  0.1893
  631MOL0     C85107   4.770   8.148  10.253 -0.2921 -0.6239 -0.1090
  631MOL0     C85108   4.822   8.037  10.190 -0.3252  0.0228  0.2276
  631MOL0     O85109   4.950   8.056  10.135  0.8512 -0.4862  1.1797
  631MOL0     C85110   5.001   7.947  10.062  0.4590  0.5487  0.2215
  631MOL0     C85111   5.081   7.850  10.159 -0.7376 -1.5774  0.5078
  631MOL0     C85112   5.182   7.769  10.081  0.0827 -0.3217  1.4996
  631MOL0     C85113   5.324   7.839  10.072 -0.3236 -0.0686 -0.7175
  631MOL0     C85114   5.408   7.778   9.964 -0.3398  0.4782 -0.3481
  631MOL0     C85115   5.478   7.736   9.877 -0.5941  0.4112 -0.2831
  631MOL0     C85116   4.753   7.919  10.210 -0.3724 -0.0653 -0.8564
  631MOL0     C85117   4.628   7.917  10.269  0.2504 -0.2929  0.3120
  631MOL0     H85118   4.149   8.066  10.418 -1.7730 -1.3868  0.2637
  631MOL0     H85119   3.993   8.078  10.586  2.8071 -1.0346 -5.6680
  631MOL0     H85120   4.019   8.387  10.758  0.2793 -0.0880 -0.2577
  631MOL0     H85121   3.864   8.307  10.789  0.6856  1.3160 -2.2902
  631MOL0     H85122   3.886   8.482  10.945  1.8487  3.2890  0.7868
  631MOL0     H85123   3.931   8.329  11.034  0.1083  1.0009 -0.1842
  631MOL0     H85124   4.071   8.493  11.107 -1.8800 -0.7260 -0.2268
  631MOL0     H85125   4.166   8.405  10.996  0.0730 -0.5369  1.0001
  631MOL0     H85126   4.077   8.611  10.818 -0.4549 -0.5251  0.2687
  631MOL0     H85127   4.037   8.693  10.965 -1.0831 -0.7531  1.7149
  631MOL0     H85128   4.269   8.663  11.048  3.1367  0.2779  0.5246
  631MOL0     H85129   4.304   8.571  10.898 -0.6552 -1.2539  1.3247
  631MOL0     H85130   4.194   8.773  10.778 -0.4027 -0.1674  0.5765
  631MOL0     H85131   4.226   8.871  10.922  2.2353  0.7931 -0.4374
  631MOL0     H85132   4.442   8.722  10.778  1.0996  0.4341 -0.9120
  631MOL0     H85133   4.402   8.901  10.762 -1.1268  0.5880  1.2563
  631MOL0     H85134   4.501   8.772  11.006  2.8080  2.0831  0.8718
  631MOL0     H85135   4.445   8.939  11.004  3.5390  0.2268  1.4546
  631MOL0     H85136   4.740   8.715  10.892  2.7972 -0.7710  2.3873
  631MOL0     H85137   5.059   8.940  10.879  2.0281 -1.5700  0.0474
  631MOL0     H85138   5.012   8.776  10.887 -1.5956  0.1799 -0.3269
  631MOL0     H85139   4.955   8.961  10.656 -0.7257  0.0496  0.4363
  631MOL0     H85140   4.938   8.785  10.647  0.6120 -0.4612  2.0356
  631MOL0     H85141   5.192   8.762  10.665  1.7998  0.1219 -2.3614
  631MOL0     H85142   5.217   8.920  10.688  1.4370 -3.6869  1.7601
  631MOL0     H85143   5.116   8.989  10.458 -0.1163 -1.3920 -3.8223
  631MOL0     H85144   5.072   8.821  10.437 -0.2123 -0.2686  1.5821
  631MOL0     H85145   5.504   8.851  10.377 -0.7703  0.5879  0.9177
  631MOL0     H85146   5.666   8.780  10.243  2.8752 -0.2006 -0.9051
  631MOL0     H85147   5.745   8.674  10.346 -0.3344 -3.1447  1.1439
  631MOL0     H85148   5.693   8.603  10.194 -0.9194  1.3249 -1.7551
  631MOL0     H85149   5.494   8.136  10.113 -2.1082  0.5884  1.7960
  631MOL0     H85150   5.661   7.940  10.073 -0.6280  2.0546 -2.2114
  631MOL0     H85151   5.817   7.757  10.069  1.5609  0.9117  1.0243
  631MOL0     H85152   5.878   7.664  10.203 -0.9319 -0.4144 -0.7585
  631MOL0     H85153   5.671   7.623  10.308  5.6205 -0.2241  0.7109
  631MOL0     H85154   5.590   7.701  10.169  1.0855 -0.9957 -2.8044
  631MOL0     H85155   5.752   7.457  10.140  1.3358  0.6405 -3.2744
  631MOL0     H85156   5.671   7.550  10.011 -2.8521  0.9255 -0.1294
  631MOL0     H85157   5.445   7.521  10.112  0.9018  0.1931  0.5850
  631MOL0     H85158   5.548   7.403  10.035  0.7371  3.8406 -2.7407
  631MOL0     H85159   5.458   7.409  10.322 -0.4395  3.0061 -1.8720
  631MOL0     H85160   5.610   7.346  10.291  1.7055 -0.6546 -2.2865
  631MOL0     H85161   5.445   7.169  10.297  2.3572  0.1807 -0.7844
  631MOL0     H85162   5.357   7.241  10.157 -0.3524  0.5941  0.9126
  631MOL0     H85163   5.645   7.160  10.141 -1.5214  0.3779  4.1790
  631MOL0     H85164   5.527   7.188  10.012 -3.5476  4.1366  1.6814
  631MOL0     H85165   5.580   6.940  10.061 -0.2975  1.0146 -0.7455
  631MOL0     H85166   5.409   6.971  10.065  1.4527 -1.1510 -3.2857
  631MOL0     H85167   5.768   7.976  10.482  3.6143  2.1038 -1.7790
  631MOL0     H85168   5.600   8.140  10.524  2.2358 -0.4355  1.3519
  631MOL0     H85169   5.289   8.419  10.367  0.2577 -0.9804  2.5964
  631MOL0     H85170   5.154   8.638  10.403  0.4196 -0.1790 -2.1960
  631MOL0     H85171   4.290   8.259  10.864  0.2505  1.7007 -0.2564
  631MOL0     H85172   4.449   8.232  10.677 -0.1827  2.8518  2.9512
  631MOL0     H85173   4.606   8.241  10.364 -0.3991 -1.1492  0.0121
  631MOL0     H85174   4.823   8.242  10.244 -2.5642  0.5743 -2.1240
  631MOL0     H85175   4.919   7.904  10.004  0.7767 -0.3289  0.4061
  631MOL0     H85176   5.073   7.984   9.988 -0.7419 -2.1760 -2.5060
  631MOL0     H85177   5.020   7.779  10.216 -0.9843 -0.5247  1.5842
  631MOL0     H85178   5.118   7.909  10.243  0.3766 -0.5577 -0.6612
  631MOL0     H85179   5.136   7.746   9.984 -0.4250 -0.0976  1.6822
  631MOL0     H85180   5.201   7.674  10.132  0.5359  0.1424  2.2103
  631MOL0     H85181   5.375   7.842  10.169 -2.0664  0.3354  0.2422
  631MOL0     H85182   5.304   7.944  10.045 -0.5771  0.3997  1.1215
  631MOL0     H85183   5.528   7.691   9.794 -0.2693  1.3452 -0.5968
  631MOL0     H85184   4.799   7.824  10.183 -2.3699 -1.4860  0.4546
  631MOL0     H85185   4.565   7.830  10.275  0.8273 -0.6034  2.5438
  632MOL0     O85186  10.720   1.660   5.204 -0.2752 -0.4049  0.5303
  632MOL0     C85187  10.615   1.609   5.166  0.5565  0.0994 -0.3622
  632MOL0     O85188  10.537   1.643   5.058  0.0728 -0.6893  0.7716
  632MOL0     C85189  10.568   1.751   4.977 -0.9557  0.8539 -0.1354
  632MOL0     C85190  10.536   1.880   5.023  0.0639  0.7733 -0.6059
  632MOL0     C85191  10.547   1.993   4.935  0.6533  0.4387 -0.7781
  632MOL0     C85192  10.588   1.970   4.800 -0.0950  0.4785  0.2909
  632MOL0     O85193  10.590   2.070   4.704  0.5627  0.0544  0.0109
  632MOL0     C85194  10.581   2.215   4.725  0.7243  0.0640 -0.0794
  632MOL0     C85195  10.706   2.263   4.801 -0.3359  0.7189 -0.7438
  632MOL0     C85196  10.681   2.412   4.847 -0.3868  0.1228  0.2679
  632MOL0     C85197  10.703   2.526   4.739  0.5489 -0.3115  0.3110
  632MOL0     C85198  10.843   2.525   4.682 -0.7293 -0.1857  0.2174
  632MOL0     C85199  10.871   2.635   4.587 -0.4405 -0.1310 -0.3525
  632MOL0     C85200  10.879   2.774   4.655 -0.2973  0.4142 -0.4817
  632MOL0     C85201  10.918   2.893   4.566  0.6009  0.8099 -0.3507
  632MOL0     N85202  10.925   3.021   4.633 -0.0573  0.1812  0.7259
  632MOL0     C85203  11.038   3.066   4.691 -0.2688 -1.0056  0.4723
  632MOL0     C85204  11.010   3.183   4.749 -0.2859  0.4700 -0.1205
  632MOL0     C85205  11.113   3.269   4.821 -0.0893  0.1690  0.4716
  632MOL0     C85206  11.072   3.293   4.964  0.1676  0.6388 -0.1348
  632MOL0     C85207  11.104   3.159   5.030 -0.0943  0.2273 -0.3938
  632MOL0     C85208  11.249   3.133   5.073 -0.3993 -0.2468  0.1675
  632MOL0     O85209  11.321   3.054   4.978  1.1653 -0.2308  0.2261
  632MOL0     C85210  11.281   2.933   4.937 -0.0666 -0.7456  0.4156
  632MOL0     C85211  11.369   2.868   4.846 -0.2955 -0.7388 -0.7556
  632MOL0     C85212  11.343   2.742   4.787 -0.0663  0.0943  0.1962
  632MOL0     C85213  11.451   2.679   4.698  0.9711 -0.9602  1.0309
  632MOL0     C85214  11.228   2.672   4.829 -0.3332  0.3098 -0.1062
  632MOL0     C85215  11.201   2.540   4.782 -1.2050 -0.1794 -0.5636
  632MOL0     O85216  11.201   2.443   4.877 -0.3710 -0.6109 -0.7541
  632MOL0     C85217  11.179   2.309   4.840 -0.0390 -0.2124 -0.5657
  632MOL0     C85218  11.053   2.252   4.866  0.0081  0.1928  0.0756
  632MOL0     C85219  11.043   2.115   4.856 -0.4622  0.0241  0.7704
  632MOL0     C85220  11.142   2.027   4.820 -0.4317  0.4887 -0.0308
  632MOL0     O85221  11.129   1.889   4.798  0.3643 -0.2033  0.1778
  632MOL0     C85222  11.011   1.820   4.845 -0.5444  0.0638 -0.4401
  632MOL0     C85223  11.036   1.664   4.834  0.2833 -1.0318  0.0360
  632MOL0     C85224  10.946   1.590   4.930  0.2439 -0.7252  0.5754
  632MOL0     C85225  11.005   1.446   4.944 -0.3326  0.1145  0.0754
  632MOL0     C85226  10.917   1.355   5.044  0.3709  0.0910 -0.9541
  632MOL0     C85227  10.981   1.243   5.113 -0.1038  0.9677  0.8054
  632MOL0     C85228  10.887   1.164   5.201 -0.0596 -0.0303  0.6558
  632MOL0     C85229  10.952   1.050   5.257 -0.0057 -0.5403  0.7021
  632MOL0    Cl85230  10.813   0.959   5.347 -0.3088 -0.0825 -0.0552
  632MOL0     C85231  11.271   2.084   4.794  1.6197  0.2153  0.1551
  632MOL0     C85232  11.285   2.225   4.803  0.4877  0.1913  0.6364
  632MOL0     O85233  11.197   2.515   4.662 -0.8009 -0.8651  0.4521
  632MOL0     C85234  11.157   2.723   4.932  1.1147 -0.2511 -1.2518
  632MOL0     C85235  11.184   2.849   4.990  0.0845 -0.1290 -0.0831
  632MOL0     N85236  10.880   3.213   4.713  0.0903  0.1344  0.2529
  632MOL0     N85237  10.824   3.109   4.658 -0.2400  0.0240  1.3749
  632MOL0     C85238  10.624   1.846   4.751 -0.0611  0.9894 -0.6215
  632MOL0     C85239  10.603   1.735   4.843  0.4324 -0.2753  0.4679
  632MOL0     C85240  10.557   1.495   5.247 -0.0538 -0.4921  0.3152
  632MOL0     C85241  10.636   1.421   5.337 -0.2312  0.1339  0.5054
  632MOL0     C85242  10.585   1.318   5.425  0.6982  0.1073 -0.5500
  632MOL0     C85243  10.448   1.282   5.419  0.3693  0.0104  0.9430
  632MOL0     O85244  10.403   1.182   5.505  0.1590 -0.2190 -0.5553
  632MOL0     C85245  10.280   1.192   5.579 -0.0093  0.5015  1.2206
  632MOL0     C85246  10.269   1.314   5.667  0.4074  0.2130 -0.5251
  632MOL0     C85247  10.382   1.333   5.765 -0.2148 -0.3495 -0.1015
  632MOL0     C85248  10.417   1.481   5.797 -0.9755  0.1811 -0.0325
  632MOL0     C85249  10.477   1.547   5.681 -0.1840  0.7646 -0.2272
  632MOL0     C85250  10.561   1.610   5.608  0.0347 -0.3353  0.7001
  632MOL0     C85251  10.364   1.363   5.334 -0.1398 -0.2415  0.9435
  632MOL0     C85252  10.423   1.469   5.250  0.2393 -0.5517  0.3944
  632MOL0     H85253  10.518   1.918   5.124 -1.4539 -1.5013  0.0511
  632MOL0     H85254  10.549   2.098   4.963  3.4282  0.3749 -0.4432
  632MOL0     H85255  10.582   2.258   4.624  1.1460  0.3675  0.0528
  632MOL0     H85256  10.488   2.241   4.776  0.8688  3.6838 -1.3569
  632MOL0     H85257  10.717   2.211   4.896  0.6973 -0.0853 -1.2749
  632MOL0     H85258  10.797   2.250   4.741  0.4618 -1.3604  0.7859
  632MOL0     H85259  10.581   2.411   4.890 -1.3862 -1.6172 -1.8834
  632MOL0     H85260  10.757   2.424   4.925 -0.5202 -0.3226  0.4701
  632MOL0     H85261  10.621   2.508   4.667 -1.4130 -2.8149  2.9339
  632MOL0     H85262  10.683   2.620   4.790  0.2805 -0.8821  1.2746
  632MOL0     H85263  10.927   2.536   4.752 -0.0825 -0.9834 -0.4160
  632MOL0     H85264  10.853   2.427   4.634 -1.2113 -0.4315  0.6187
  632MOL0     H85265  10.959   2.600   4.533  0.3951 -0.0762  0.9373
  632MOL0     H85266  10.801   2.660   4.507  0.2745  1.0420 -0.6398
  632MOL0     H85267  10.787   2.789   4.713  0.1923 -2.3421  1.1799
  632MOL0     H85268  10.959   2.766   4.729 -2.3637 -0.7596  1.7410
  632MOL0     H85269  10.846   2.896   4.484  2.8248  1.4304 -2.3792
  632MOL0     H85270  11.014   2.872   4.519  2.0403 -2.8689  3.4864
  632MOL0     H85271  11.136   3.021   4.677  0.3272  1.1220 -3.5042
  632MOL0     H85272  11.206   3.212   4.815 -0.3608 -0.8355  3.8640
  632MOL0     H85273  11.118   3.363   4.765 -1.1744 -1.2467 -2.2199
  632MOL0     H85274  10.964   3.315   4.967  0.3623  1.7967 -0.9945
  632MOL0     H85275  11.121   3.384   4.999  0.9411  1.2665 -2.6612
  632MOL0     H85276  11.066   3.072   4.975 -0.6632  0.5562 -0.5261
  632MOL0     H85277  11.039   3.163   5.118  1.0020  5.1084  0.4641
  632MOL0     H85278  11.266   3.088   5.171 -0.1423  1.2820  0.8483
  632MOL0     H85279  11.290   3.233   5.088 -0.9406 -0.0849  0.5914
  632MOL0     H85280  11.465   2.908   4.814 -0.9798  2.8258  1.0869
  632MOL0     H85281  11.542   2.740   4.694  0.6538 -0.5170  0.4616
  632MOL0     H85282  11.483   2.581   4.735  1.6048 -1.9778 -1.9394
  632MOL0     H85283  11.413   2.674   4.595 -0.5815 -1.6252  1.6100
  632MOL0     H85284  10.966   2.304   4.907  0.0755 -0.1937  0.7208
  632MOL0     H85285  10.945   2.068   4.863 -0.4867 -0.8547 -3.3027
  632MOL0     H85286  10.996   1.848   4.950  0.6521 -0.9575  0.0306
  632MOL0     H85287  10.932   1.861   4.781  1.6383 -0.6935 -3.8539
  632MOL0     H85288  11.012   1.636   4.732 -0.3006 -3.3773  0.7713
  632MOL0     H85289  11.141   1.633   4.846  0.4831 -1.7496 -2.8417
  632MOL0     H85290  10.847   1.587   4.883  0.4666 -1.2001  0.1211
  632MOL0     H85291  10.943   1.637   5.028  1.3181 -0.6329  0.5769
  632MOL0     H85292  10.998   1.394   4.848 -4.1187 -1.6510  1.1210
  632MOL0     H85293  11.106   1.462   4.983 -1.0018  2.3350  1.0220
  632MOL0     H85294  10.826   1.318   4.995 -0.8563  0.1802  1.1371
  632MOL0     H85295  10.876   1.419   5.122  1.8140 -0.2050  0.0712
  632MOL0     H85296  11.019   1.172   5.038 -1.2150 -0.3274  1.4193
  632MOL0     H85297  11.071   1.273   5.166  2.0332 -1.9601 -0.8452
  632MOL0     H85298  10.808   1.132   5.133  1.3234  1.3361 -1.7212
  632MOL0     H85299  10.844   1.224   5.282 -1.9789 -1.7063  0.9666
  632MOL0     H85300  11.028   1.068   5.334 -1.8926  1.7008  2.1887
  632MOL0     H85301  10.986   0.995   5.169  0.0497 -0.1563  0.4826
  632MOL0     H85302  11.355   2.026   4.757  1.2867 -0.6014  0.6552
  632MOL0     H85303  11.385   2.263   4.785 -0.4038  2.5099  0.2090
  632MOL0     H85304  11.100   2.659   4.998  1.2410  3.1797  2.6178
  632MOL0     H85305  11.147   2.876   5.088 -1.6845  3.1763 -1.4733
  632MOL0     H85306  10.659   1.826   4.650 -2.4069  0.7754 -1.4469
  632MOL0     H85307  10.614   1.642   4.789 -1.4177 -0.8261  0.9789
  632MOL0     H85308  10.744   1.430   5.336 -0.2625  0.4443 -0.5566
  632MOL0     H85309  10.661   1.272   5.488 -0.7715 -2.0074 -0.2078
  632MOL0     H85310  10.195   1.180   5.511  2.1737 -0.6397 -1.4998
  632MOL0     H85311  10.276   1.104   5.644  0.0933 -0.6786 -0.3233
  632MOL0     H85312  10.178   1.284   5.720  0.5614  0.5604 -0.0535
  632MOL0     H85313  10.259   1.407   5.610 -0.9289  1.2626  1.3126
  632MOL0     H85314  10.468   1.272   5.739  2.7613  3.7637 -0.9794
  632MOL0     H85315  10.341   1.277   5.849  2.8006 -5.2555 -1.4729
  632MOL0     H85316  10.491   1.488   5.877  0.6261 -3.1743 -1.0487
  632MOL0     H85317  10.326   1.540   5.812 -0.4035  0.9087  0.6647
  632MOL0     H85318  10.629   1.662   5.544  3.2273 -2.6173  2.0105
  632MOL0     H85319  10.259   1.340   5.324 -0.0671  0.2313 -1.6134
  632MOL0     H85320  10.365   1.545   5.199  1.2649  1.9825  2.6980
  633MOL0     O85321   9.597   8.763   2.104  0.2248  0.4883  0.0930
  633MOL0     C85322   9.560   8.830   2.009  0.4039  1.2045  0.9132
  633MOL0     O85323   9.556   8.784   1.876 -0.2087  0.0186 -0.4964
  633MOL0     C85324   9.638   8.691   1.825 -0.4699  1.0652 -0.3510
  633MOL0     C85325   9.602   8.608   1.721  0.1256 -0.1174  0.2584
  633MOL0     C85326   9.697   8.515   1.684 -0.5774 -0.1460 -0.4532
  633MOL0     C85327   9.828   8.503   1.736 -0.1052  0.7613  0.7399
  633MOL0     O85328   9.906   8.413   1.669 -0.7192  0.2402 -0.0007
  633MOL0     C85329  10.029   8.369   1.740 -0.6749 -0.4764  0.7842
  633MOL0     C85330  10.080   8.241   1.670 -0.2555  0.3271  0.6015
  633MOL0     C85331   9.980   8.131   1.689  0.2474 -0.7031  0.1213
  633MOL0     C85332   9.982   8.054   1.558 -1.3678  0.0885 -0.1080
  633MOL0     C85333   9.859   7.965   1.541 -0.1387  0.1834 -0.7348
  633MOL0     C85334   9.825   7.907   1.407 -1.1776  0.1182  0.0862
  633MOL0     C85335   9.931   7.803   1.361 -0.3746  0.7309  0.1582
  633MOL0     C85336   9.883   7.748   1.221 -0.2714 -0.8217 -0.1101
  633MOL0     N85337   9.750   7.688   1.211 -0.9444  0.0178 -0.6635
  633MOL0     C85338   9.637   7.761   1.198 -1.1331 -1.1298 -0.9546
  633MOL0     C85339   9.544   7.673   1.212  0.4299  0.2120 -0.1297
  633MOL0     C85340   9.402   7.706   1.192 -0.0250 -1.0316  0.1768
  633MOL0     C85341   9.314   7.623   1.285  0.0535 -0.1543 -0.5082
  633MOL0     C85342   9.173   7.657   1.250  0.4273 -0.2443 -0.7620
  633MOL0     C85343   9.071   7.596   1.341  0.1633  0.3657 -0.2364
  633MOL0     O85344   8.948   7.642   1.292  0.5868  0.1760 -0.5696
  633MOL0     C85345   8.828   7.608   1.354  0.3529 -0.3483 -0.1228
  633MOL0     C85346   8.812   7.550   1.479 -0.3946  0.3265  0.7445
  633MOL0     C85347   8.688   7.513   1.538 -0.1735  0.9396  0.5869
  633MOL0     C85348   8.685   7.475   1.678  0.2057  0.6998  0.0615
  633MOL0     C85349   8.570   7.538   1.462 -0.2493  0.5009  0.8259
  633MOL0     C85350   8.427   7.503   1.502  0.1897 -0.5077  0.7496
  633MOL0     O85351   8.334   7.585   1.441  0.4418  0.7574 -0.1683
  633MOL0     C85352   8.198   7.573   1.468 -0.8249  0.7765  0.0810
  633MOL0     C85353   8.168   7.568   1.607 -0.3462  0.2212 -0.5388
  633MOL0     C85354   8.033   7.566   1.653  0.4637 -0.3220 -1.5087
  633MOL0     C85355   7.931   7.583   1.557 -0.2971 -0.1676 -0.0555
  633MOL0     O85356   7.802   7.586   1.596 -0.0238  0.6421 -0.0579
  633MOL0     C85357   7.753   7.501   1.692  0.6184  0.1018 -0.2953
  633MOL0     C85358   7.732   7.356   1.644  0.0427  0.6593 -0.7297
  633MOL0     C85359   7.593   7.338   1.582 -0.4944 -0.2826  0.4314
  633MOL0     C85360   7.555   7.193   1.574  0.6951 -0.7416  0.3624
  633MOL0     C85361   7.399   7.186   1.561 -0.5282 -0.6132 -0.4375
  633MOL0     C85362   7.351   7.203   1.418  0.1346 -0.6970 -0.5572
  633MOL0     C85363   7.193   7.213   1.420 -0.1998  0.3029 -0.0777
  633MOL0     C85364   7.127   7.087   1.475 -0.7858  0.5860  0.2249
  633MOL0    Cl85365   6.946   7.123   1.474  0.3542  0.0020 -0.1349
  633MOL0     C85366   7.962   7.592   1.423 -0.0706 -0.6049 -0.4828
  633MOL0     C85367   8.096   7.592   1.380 -1.0172  0.2031 -0.5922
  633MOL0     O85368   8.393   7.403   1.566  0.5872 -0.0559 -0.5917
  633MOL0     C85369   8.590   7.600   1.330  0.5842  0.9652 -0.8899
  633MOL0     C85370   8.716   7.632   1.280  0.0133 -0.2033  0.6903
  633MOL0     N85371   9.590   7.548   1.258 -0.5444 -0.0452  0.3432
  633MOL0     N85372   9.721   7.557   1.244  0.0377 -0.0773  0.3221
  633MOL0     C85373   9.867   8.593   1.839 -0.5877 -0.6167  0.7187
  633MOL0     C85374   9.772   8.682   1.879 -0.4725  0.2224  1.5531
  633MOL0     C85375   9.486   8.960   2.041 -0.2578 -0.0910 -0.4092
  633MOL0     C85376   9.451   9.046   1.932  0.2919  0.6746 -0.9689
  633MOL0     C85377   9.384   9.169   1.965 -1.1001  0.7691 -0.2169
  633MOL0     C85378   9.351   9.204   2.097 -0.2252  0.9694  0.0340
  633MOL0     O85379   9.274   9.315   2.121 -0.0414  0.5246  0.1900
  633MOL0     C85380   9.169   9.320   2.221  0.0266  0.3093  0.0056
  633MOL0     C85381   9.072   9.428   2.184 -0.3332 -0.4865 -0.1778
  633MOL0     C85382   9.135   9.567   2.204  1.3653 -0.7127 -0.3144
  633MOL0     C85383   9.032   9.672   2.175 -0.6617 -0.2584 -0.6295
  633MOL0     C85384   9.069   9.799   2.232  0.0147  1.0781  0.4268
  633MOL0     C85385   9.098   9.904   2.287  0.0116  0.3558  0.2902
  633MOL0     C85386   9.402   9.124   2.197 -0.4449  0.0727 -0.1937
  633MOL0     C85387   9.471   9.005   2.169 -0.6995 -0.5583  0.1500
  633MOL0     H85388   9.503   8.618   1.676 -0.1149  2.8047  1.2154
  633MOL0     H85389   9.679   8.452   1.596 -1.2854 -2.9650  1.5556
  633MOL0     H85390  10.105   8.448   1.731 -1.2393  0.4644  3.3721
  633MOL0     H85391  10.015   8.358   1.848 -2.0088 -0.1787  0.6602
  633MOL0     H85392  10.100   8.268   1.565  1.8788 -1.4021  0.4882
  633MOL0     H85393  10.174   8.209   1.716  0.5359  3.3428  1.3348
  633MOL0     H85394  10.016   8.059   1.764  0.0535 -1.2244 -0.2846
  633MOL0     H85395   9.881   8.176   1.693  0.8371  0.5783  1.2353
  633MOL0     H85396   9.971   8.121   1.472  1.4291 -1.3164 -1.7066
  633MOL0     H85397  10.075   7.997   1.558 -0.3101  1.7097 -1.9661
  633MOL0     H85398   9.873   7.879   1.607 -4.2404 -1.1818 -1.3607
  633MOL0     H85399   9.764   8.010   1.573 -2.4385 -4.3251 -0.4899
  633MOL0     H85400   9.724   7.863   1.412 -1.7509  1.5170  1.2136
  633MOL0     H85401   9.816   7.982   1.328  2.5896 -2.6673 -3.4030
  633MOL0     H85402  10.028   7.853   1.350  0.0708 -0.3174 -0.9117
  633MOL0     H85403   9.947   7.731   1.441  1.1138 -2.3234 -2.6636
  633MOL0     H85404   9.947   7.663   1.196  2.0005  0.2248  1.7293
  633MOL0     H85405   9.887   7.834   1.153  0.9543  0.2736  1.2762
  633MOL0     H85406   9.628   7.867   1.176  0.8151  0.0466  2.9740
  633MOL0     H85407   9.374   7.810   1.211  1.9678 -0.2753 -0.7943
  633MOL0     H85408   9.376   7.678   1.090  4.2381 -1.5966 -0.9400
  633MOL0     H85409   9.341   7.639   1.390  0.8162  0.7364 -0.8285
  633MOL0     H85410   9.318   7.516   1.264 -1.9027 -0.6328  1.1752
  633MOL0     H85411   9.139   7.640   1.147 -2.7085  1.3018 -0.1135
  633MOL0     H85412   9.164   7.765   1.261  4.1653 -0.0127  2.1962
  633MOL0     H85413   9.097   7.618   1.445  0.5150 -1.0801  0.0062
  633MOL0     H85414   9.088   7.488   1.347  4.6752  0.9410  4.2606
  633MOL0     H85415   8.907   7.537   1.530  0.1776 -0.1197 -0.4238
  633MOL0     H85416   8.755   7.524   1.746 -0.5313 -1.7629  2.7738
  633MOL0     H85417   8.584   7.484   1.720 -0.1623  0.1916 -0.6911
  633MOL0     H85418   8.705   7.368   1.679  2.8005  1.1194  1.5961
  633MOL0     H85419   8.247   7.566   1.681 -0.6856 -1.1330 -0.1784
  633MOL0     H85420   8.010   7.560   1.759  0.1906 -0.4544 -1.5755
  633MOL0     H85421   7.806   7.503   1.787  2.4819  0.4166 -1.2946
  633MOL0     H85422   7.650   7.534   1.711  0.1848 -1.9092  1.1501
  633MOL0     H85423   7.807   7.318   1.573 -1.4832  0.6036 -2.3844
  633MOL0     H85424   7.732   7.287   1.729 -1.9650  3.5692  1.8249
  633MOL0     H85425   7.590   7.381   1.482  2.7396 -1.0685 -0.1042
  633MOL0     H85426   7.516   7.386   1.643 -1.2614 -1.3160  0.2994
  633MOL0     H85427   7.596   7.135   1.492  0.3848 -3.2245  1.8751
  633MOL0     H85428   7.577   7.154   1.674  1.2484  0.5817  0.7821
  633MOL0     H85429   7.353   7.261   1.627  1.8047 -1.0069  1.7876
  633MOL0     H85430   7.361   7.089   1.593 -1.3033 -1.1778 -2.8600
  633MOL0     H85431   7.379   7.295   1.367  2.2791 -0.4620  0.9182
  633MOL0     H85432   7.387   7.120   1.356  1.9592 -1.6263  1.5785
  633MOL0     H85433   7.151   7.239   1.323 -0.1060 -0.9620 -0.4807
  633MOL0     H85434   7.172   7.299   1.483  1.1525 -0.5142  1.5885
  633MOL0     H85435   7.151   7.069   1.580 -1.7279  2.7158  0.8397
  633MOL0     H85436   7.150   7.001   1.411  4.7509  2.7336 -1.2748
  633MOL0     H85437   7.885   7.604   1.347 -0.8869  0.8432  0.5140
  633MOL0     H85438   8.140   7.592   1.281  2.8379 -1.7805  0.8988
  633MOL0     H85439   8.507   7.612   1.262 -1.0082  1.1909  1.0249
  633MOL0     H85440   8.742   7.681   1.187 -1.1101  4.0005  2.3799
  633MOL0     H85441   9.974   8.597   1.857 -0.0375 -1.4251 -1.8680
  633MOL0     H85442   9.799   8.751   1.959  3.0561 -0.5154  1.1522
  633MOL0     H85443   9.475   9.014   1.831 -1.3178 -5.3051  0.1344
  633MOL0     H85444   9.360   9.247   1.894 -2.7523  1.0590  0.6102
  633MOL0     H85445   9.127   9.222   2.247  2.9416 -0.6427  1.5756
  633MOL0     H85446   9.205   9.348   2.320 -2.2696  5.9798 -0.3862
  633MOL0     H85447   8.982   9.423   2.246 -1.5881  0.5568 -1.8234
  633MOL0     H85448   9.022   9.403   2.091 -2.7816 -0.3309  1.0178
  633MOL0     H85449   9.211   9.572   2.126  2.0412  1.6385  0.4396
  633MOL0     H85450   9.173   9.577   2.306 -1.9453  1.4500  0.8715
  633MOL0     H85451   8.931   9.633   2.191  0.1163 -2.2080 -0.2372
  633MOL0     H85452   9.030   9.704   2.070 -2.0856  1.3547 -0.1536
  633MOL0     H85453   9.129   9.993   2.337 -1.9206  0.0801  2.1211
  633MOL0     H85454   9.408   9.162   2.299  1.6324  2.1683 -0.9961
  633MOL0     H85455   9.505   8.949   2.255 -0.0867 -2.6327 -1.3802
  634MOL0     O85456   4.447  10.566   9.354 -0.1655  0.5154 -0.0259
  634MOL0     C85457   4.529  10.650   9.328  0.2544 -1.2543 -0.4686
  634MOL0     O85458   4.505  10.766   9.272  1.0827 -0.0773  0.6069
  634MOL0     C85459   4.442  10.856   9.357  0.8278  1.2138 -0.2557
  634MOL0     C85460   4.309  10.899   9.321  0.4433 -1.1106  0.1668
  634MOL0     C85461   4.252  10.979   9.426 -0.3018  0.3115 -0.0002
  634MOL0     C85462   4.313  11.026   9.543  0.6825  0.2022  0.0336
  634MOL0     O85463   4.244  11.106   9.636 -0.4142 -0.0988 -0.2491
  634MOL0     C85464   4.315  11.219   9.683 -0.0957 -0.6597 -0.3652
  634MOL0     C85465   4.214  11.328   9.712  0.7598 -0.1325  0.4371
  634MOL0     C85466   4.150  11.381   9.582 -0.4823 -0.1101  0.6401
  634MOL0     C85467   4.076  11.516   9.613  0.6741  0.0115 -0.0702
  634MOL0     C85468   3.969  11.545   9.508  0.1815  0.5083 -0.0627
  634MOL0     C85469   3.892  11.667   9.542 -0.1282 -0.6607  0.6136
  634MOL0     C85470   3.818  11.635   9.673  0.0694 -0.2833  0.2038
  634MOL0     C85471   3.710  11.735   9.704  0.7199  1.2994  0.6921
  634MOL0     N85472   3.746  11.853   9.780 -0.4366 -0.2025  0.4911
  634MOL0     C85473   3.768  11.966   9.709  0.5317  0.0752 -0.6359
  634MOL0     C85474   3.804  12.052   9.806 -1.1580  0.3866  0.9086
  634MOL0     C85475   3.813  12.195   9.769  1.2604  0.4723  0.4555
  634MOL0     C85476   3.869  12.284   9.877  0.3398 -0.5358  0.2290
  634MOL0     C85477   3.765  12.328   9.976  1.2776  0.2971  0.1123
  634MOL0     C85478   3.671  12.448   9.928  0.1958 -0.5575 -0.8851
  634MOL0     O85479   3.534  12.435   9.981 -0.3562  0.5695  0.2368
  634MOL0     C85480   3.451  12.545   9.956 -0.3291  0.0510 -0.2728
  634MOL0     C85481   3.485  12.669   9.891  0.8435 -0.3485  0.0099
  634MOL0     C85482   3.400  12.773   9.855 -0.2516 -0.0075 -1.0396
  634MOL0     C85483   3.454  12.890   9.786  0.3210 -0.3487  1.2381
  634MOL0     C85484   3.266  12.750   9.903  0.0885 -0.1277 -0.5744
  634MOL0     C85485   3.175  12.868   9.914  0.7189 -0.7902 -0.4259
  634MOL0     O85486   3.089  12.865  10.016 -0.5758 -0.7397  0.4346
  634MOL0     C85487   2.994  12.960  10.030 -0.5214 -0.4174 -0.2326
  634MOL0     C85488   2.860  12.924  10.043  0.0887 -0.6688 -0.4486
  634MOL0     C85489   2.759  13.028  10.055  0.4126  0.2324  0.6769
  634MOL0     C85490   2.801  13.163  10.054 -0.3963 -0.6461  0.2643
  634MOL0     O85491   2.717  13.268  10.041 -0.1971  0.1914 -1.1179
  634MOL0     C85492   2.667  13.298   9.911  0.0732 -0.6205  0.0608
  634MOL0     C85493   2.753  13.404   9.837  0.1874 -0.3956  0.3140
  634MOL0     C85494   2.686  13.483   9.719 -0.3480  0.4793  0.6469
  634MOL0     C85495   2.570  13.565   9.770  0.2579 -0.1088  0.4004
  634MOL0     C85496   2.489  13.624   9.647 -0.4556  0.7077  0.3634
  634MOL0     C85497   2.380  13.532   9.600  0.1426  0.4210  0.5902
  634MOL0     C85498   2.316  13.584   9.462 -0.0107  0.3653 -0.1378
  634MOL0     C85499   2.179  13.543   9.423 -0.1678 -0.0431  1.0709
  634MOL0    Cl85500   2.187  13.383   9.333  0.0917  0.3817  0.2846
  634MOL0     C85501   2.929  13.192  10.047 -0.7330  0.5725  0.0629
  634MOL0     C85502   3.034  13.096  10.042  0.3975 -0.9986  0.1928
  634MOL0     O85503   3.170  12.946   9.819 -0.0007  0.1489  0.0174
  634MOL0     C85504   3.227  12.634   9.970  0.6039  0.9007  0.3659
  634MOL0     C85505   3.320  12.534   9.996 -0.4505  0.7617  0.0494
  634MOL0     N85506   3.794  11.991   9.936  0.5322 -0.1915  0.1876
  634MOL0     N85507   3.751  11.867   9.911 -0.1473 -1.1076 -0.4133
  634MOL0     C85508   4.447  10.997   9.560 -0.3138  0.4466  0.6456
  634MOL0     C85509   4.505  10.915   9.470  0.7082  0.1952  0.2664
  634MOL0     C85510   4.669  10.603   9.333  0.0243 -0.8925 -0.1549
  634MOL0     C85511   4.704  10.478   9.281  0.3468 -0.7594 -0.5208
  634MOL0     C85512   4.831  10.435   9.286 -0.1131 -0.5131  0.3321
  634MOL0     C85513   4.937  10.502   9.347  0.0968 -0.6596  0.1432
  634MOL0     O85514   5.067  10.462   9.368 -0.1066 -0.1926 -0.8132
  634MOL0     C85515   5.093  10.318   9.389 -0.7629 -0.2421 -0.1195
  634MOL0     C85516   5.222  10.281   9.316  0.2438  0.7140  0.3814
  634MOL0     C85517   5.249  10.344   9.187  0.2631 -0.9647  0.7645
  634MOL0     C85518   5.319  10.249   9.085 -0.1784  0.4601  0.7089
  634MOL0     C85519   5.447  10.196   9.138 -0.9297 -1.0125  0.1547
  634MOL0     C85520   5.555  10.144   9.170 -0.2827  0.3427 -0.9230
  634MOL0     C85521   4.907  10.637   9.386 -0.0133  0.4128 -0.7601
  634MOL0     C85522   4.776  10.682   9.385 -0.0329  0.3395  0.2116
  634MOL0     H85523   4.252  10.877   9.231  0.1640 -0.7951  0.2602
  634MOL0     H85524   4.153  11.020   9.409  0.0147  1.4183  0.7245
  634MOL0     H85525   4.362  11.195   9.779 -3.4455 -0.0551  1.5923
  634MOL0     H85526   4.376  11.263   9.604 -1.1100  0.2993 -0.6420
  634MOL0     H85527   4.135  11.295   9.781  0.4667  0.0954  0.2155
  634MOL0     H85528   4.270  11.401   9.772  0.6672 -1.8565  2.7481
  634MOL0     H85529   4.231  11.405   9.513  0.1888 -2.1405  0.6553
  634MOL0     H85530   4.079  11.305   9.546  0.5728  0.2398 -2.4440
  634MOL0     H85531   4.037  11.507   9.715 -0.5186 -2.4463 -0.6645
  634MOL0     H85532   4.149  11.597   9.604  1.8015 -1.0008 -0.2523
  634MOL0     H85533   4.012  11.557   9.409  0.7318  0.1608  0.1313
  634MOL0     H85534   3.890  11.470   9.499 -0.6109  1.4867 -1.8026
  634MOL0     H85535   3.966  11.742   9.573 -0.7677  3.1887 -5.4838
  634MOL0     H85536   3.826  11.706   9.464  1.7489  1.6511  0.0570
  634MOL0     H85537   3.769  11.542   9.643 -1.0732  1.0197 -2.3238
  634MOL0     H85538   3.876  11.623   9.765 -1.6609 -0.4347  1.3253
  634MOL0     H85539   3.632  11.681   9.759 -1.9351  0.0798 -3.7395
  634MOL0     H85540   3.660  11.767   9.612  1.6828  0.1385 -0.2712
  634MOL0     H85541   3.767  11.987   9.602  2.2316  0.6356 -0.5621
  634MOL0     H85542   3.877  12.211   9.682 -0.7253 -1.2421 -1.4173
  634MOL0     H85543   3.709  12.213   9.742  0.3663 -1.5902  2.2413
  634MOL0     H85544   3.920  12.369   9.831  0.4500 -0.5436  0.3376
  634MOL0     H85545   3.938  12.223   9.935 -2.5065 -1.5842  2.7501
  634MOL0     H85546   3.814  12.382  10.058  2.0441  1.7466 -1.2411
  634MOL0     H85547   3.709  12.243  10.015  2.3774 -0.5777 -0.1647
  634MOL0     H85548   3.670  12.439   9.819  0.7724 -3.6669 -0.7238
  634MOL0     H85549   3.722  12.540   9.956 -1.6128 -0.4281  2.4528
  634MOL0     H85550   3.589  12.694   9.875  0.6640  0.6722  0.3459
  634MOL0     H85551   3.407  12.973   9.840  0.6250  0.5956  0.0880
  634MOL0     H85552   3.562  12.888   9.774  0.2734  1.7746 -0.0074
  634MOL0     H85553   3.411  12.888   9.686  2.1778  3.1238  0.1950
  634MOL0     H85554   2.826  12.824  10.021  3.3789 -1.7493 -1.2293
  634MOL0     H85555   2.653  13.007  10.046  0.8107 -2.6104  1.7239
  634MOL0     H85556   2.667  13.208   9.849  1.6323  1.8412 -3.8782
  634MOL0     H85557   2.564  13.336   9.910  0.4153  0.3716  0.9464
  634MOL0     H85558   2.787  13.481   9.907 -1.1924  1.1786 -0.6624
  634MOL0     H85559   2.839  13.349   9.799  0.8001 -0.1507  1.3291
  634MOL0     H85560   2.655  13.432   9.628  2.7471 -0.0580 -0.2191
  634MOL0     H85561   2.769  13.544   9.681 -1.9244  2.3040 -0.0365
  634MOL0     H85562   2.501  13.527   9.846  1.4101  1.1231  2.1476
  634MOL0     H85563   2.618  13.650   9.819 -1.5902  0.2735  1.6494
  634MOL0     H85564   2.549  13.662   9.564  0.6480  1.4867  1.4834
  634MOL0     H85565   2.443  13.720   9.672  0.9349  1.1140  1.4585
  634MOL0     H85566   2.415  13.431   9.579  2.7044  1.3974 -0.2024
  634MOL0     H85567   2.303  13.518   9.676  0.1002  2.1064  0.9060
  634MOL0     H85568   2.392  13.553   9.390  1.7428 -3.1224  2.8907
  634MOL0     H85569   2.318  13.694   9.462  0.9681  0.5047  3.8657
  634MOL0     H85570   2.121  13.618   9.368  0.0648  0.3897  1.4105
  634MOL0     H85571   2.127  13.527   9.518 -0.0313  4.1187  2.0624
  634MOL0     H85572   2.955  13.297  10.040  4.4296 -0.5107 -2.2804
  634MOL0     H85573   3.141  13.113  10.030  0.1840  0.2071 -0.1395
  634MOL0     H85574   3.126  12.635  10.008  0.3818 -0.1427 -0.1726
  634MOL0     H85575   3.301  12.441  10.049 -0.4500  0.7989  0.1160
  634MOL0     H85576   4.505  11.045   9.637 -2.7658  2.4534  1.3785
  634MOL0     H85577   4.611  10.901   9.489  1.0371 -0.7555 -2.0170
  634MOL0     H85578   4.636  10.408   9.234  1.9234 -2.3128 -0.5701
  634MOL0     H85579   4.839  10.337   9.239 -0.9621 -0.3759 -0.1146
  634MOL0     H85580   5.099  10.292   9.495  0.0904  0.1888 -0.0540
  634MOL0     H85581   5.012  10.256   9.349  1.7755 -3.9774 -0.0477
  634MOL0     H85582   5.210  10.173   9.303  1.5002  0.5435  0.5611
  634MOL0     H85583   5.309  10.292   9.381  0.0393 -2.5378  1.3934
  634MOL0     H85584   5.305  10.437   9.197 -3.7357  2.0938 -1.9590
  634MOL0     H85585   5.155  10.374   9.140  1.4718  0.4568 -0.9252
  634MOL0     H85586   5.326  10.297   8.987  0.4576 -1.1806 -0.0987
  634MOL0     H85587   5.250  10.165   9.071  1.4138 -1.0268  1.4226
  634MOL0     H85588   5.653  10.111   9.196 -0.9039  1.1979  3.1566
  634MOL0     H85589   4.976  10.712   9.424  1.1358 -1.8735  2.0804
  634MOL0     H85590   4.759  10.773   9.441 -0.1038 -0.6096  1.8026
  635MOL0     O85591   1.123   6.998   6.018 -0.0444 -0.5794 -0.3970
  635MOL0     C85592   1.117   6.907   6.100  0.5272 -0.2998 -0.3161
  635MOL0     O85593   1.141   6.921   6.235  0.4714  0.2379  1.1142
  635MOL0     C85594   1.136   7.044   6.299 -0.5647  0.4953 -0.4291
  635MOL0     C85595   1.210   7.048   6.423  0.0107  0.2089  0.6091
  635MOL0     C85596   1.218   7.164   6.490  0.3795 -0.4791 -1.0156
  635MOL0     C85597   1.161   7.283   6.445  0.3431  0.2597  0.0818
  635MOL0     O85598   1.188   7.390   6.524 -0.2622  0.1223 -0.5525
  635MOL0     C85599   1.150   7.515   6.472 -0.0029 -0.5140  0.1141
  635MOL0     C85600   1.232   7.621   6.540 -0.5133  0.0720  0.5222
  635MOL0     C85601   1.179   7.657   6.676 -0.9753 -0.4233  0.1410
  635MOL0     C85602   1.268   7.777   6.724  0.2793 -0.4148  0.1467
  635MOL0     C85603   1.236   7.825   6.863 -0.5053  0.7770  0.7537
  635MOL0     C85604   1.305   7.727   6.969  0.0255 -0.6406 -0.2574
  635MOL0     C85605   1.294   7.799   7.100  0.1565 -0.5290 -0.0641
  635MOL0     C85606   1.380   7.743   7.210  0.2068  0.1668  0.2493
  635MOL0     N85607   1.309   7.623   7.264 -0.1682 -0.4866  0.9982
  635MOL0     C85608   1.320   7.492   7.214  0.0645  0.1816  0.2412
  635MOL0     C85609   1.264   7.411   7.305 -0.3012 -0.4502 -0.8659
  635MOL0     C85610   1.232   7.259   7.294 -0.2340  0.0590  0.9446
  635MOL0     C85611   1.123   7.208   7.200  0.0789 -0.0482  0.0542
  635MOL0     C85612   1.165   7.221   7.056  1.0355 -0.2709  0.4952
  635MOL0     C85613   1.073   7.150   6.963  0.8686  0.1751  0.3962
  635MOL0     O85614   1.056   7.011   6.989  0.0369  0.5147  0.5351
  635MOL0     C85615   1.131   6.925   6.912  0.6310 -0.5072 -0.4247
  635MOL0     C85616   1.220   6.837   6.976  0.1565  0.0616  0.2350
  635MOL0     C85617   1.296   6.740   6.900 -0.5574  0.0161 -0.4082
  635MOL0     C85618   1.401   6.661   6.973 -0.5939  0.6260  0.2211
  635MOL0     C85619   1.285   6.749   6.751 -0.4179 -0.3546 -0.5275
  635MOL0     C85620   1.371   6.662   6.653 -0.1575  0.0024 -1.2754
  635MOL0     O85621   1.316   6.650   6.532  0.2451 -0.4261 -0.2473
  635MOL0     C85622   1.368   6.560   6.435 -0.1859 -0.5123 -0.2960
  635MOL0     C85623   1.388   6.593   6.302  0.5734  0.2465 -1.3116
  635MOL0     C85624   1.427   6.496   6.206  0.4286  0.1755  0.2010
  635MOL0     C85625   1.431   6.358   6.234  0.0504 -0.6170 -0.4189
  635MOL0     O85626   1.475   6.255   6.158  0.1542  0.0788  0.1295
  635MOL0     C85627   1.547   6.282   6.030  0.7501 -0.0957 -0.4823
  635MOL0     C85628   1.668   6.183   6.004  0.9015  0.0627  0.2345
  635MOL0     C85629   1.622   6.046   5.954  0.7598  0.8740  0.5911
  635MOL0     C85630   1.742   5.964   5.901  0.1934 -0.3792  0.2615
  635MOL0     C85631   1.852   5.947   6.012  0.4737  0.5028  0.1214
  635MOL0     C85632   1.969   5.863   5.956  0.8375 -0.0847  0.3266
  635MOL0     C85633   2.070   5.831   6.067 -1.0367 -0.4886  0.1756
  635MOL0     C85634   2.201   5.784   6.017  0.1216 -0.3673 -0.0225
  635MOL0    Cl85635   2.187   5.656   5.891  0.0479  0.0859  0.0318
  635MOL0     C85636   1.398   6.326   6.366  0.0785  0.1811  0.8879
  635MOL0     C85637   1.376   6.421   6.467 -0.0325 -0.2049  0.4457
  635MOL0     O85638   1.485   6.625   6.693  0.2078  0.6637 -0.5380
  635MOL0     C85639   1.181   6.827   6.693  0.0798  0.2454 -0.5339
  635MOL0     C85640   1.108   6.916   6.771  0.7468 -0.1585  0.1372
  635MOL0     N85641   1.234   7.491   7.417 -0.5809 -0.7134 -0.1134
  635MOL0     N85642   1.261   7.612   7.390 -0.5476 -0.1679  0.9995
  635MOL0     C85643   1.084   7.279   6.329  0.0988 -0.3087 -0.3470
  635MOL0     C85644   1.072   7.157   6.259  0.7803 -0.9108 -0.4510
  635MOL0     C85645   1.113   6.767   6.056  0.2485 -0.2459 -0.1806
  635MOL0     C85646   1.070   6.677   6.148 -0.4840 -0.5290 -0.3336
  635MOL0     C85647   1.076   6.542   6.133 -0.1155 -0.2689  0.6602
  635MOL0     C85648   1.124   6.488   6.016 -0.1752  0.0084 -1.1869
  635MOL0     O85649   1.130   6.351   5.980  1.7701  0.2615  0.4420
  635MOL0     C85650   1.108   6.243   6.076 -0.8063 -0.1558 -0.3267
  635MOL0     C85651   1.169   6.112   6.031  0.1211  0.1552  0.2423
  635MOL0     C85652   1.150   5.988   6.124 -0.0320  0.0055  0.1184
  635MOL0     C85653   1.008   5.935   6.127 -0.1401 -0.5027  0.2554
  635MOL0     C85654   0.998   5.810   6.199  0.1358  0.6985 -0.4113
  635MOL0     C85655   1.014   5.699   6.257  0.8121 -0.5545  0.3308
  635MOL0     C85656   1.171   6.582   5.912  0.0512 -0.4509 -0.0574
  635MOL0     C85657   1.164   6.719   5.937 -0.3551 -0.4157  0.7718
  635MOL0     H85658   1.256   6.958   6.461 -0.3743  0.4601  1.6862
  635MOL0     H85659   1.277   7.169   6.581  0.6796  0.3367 -1.2463
  635MOL0     H85660   1.179   7.520   6.367 -0.4453 -0.0108  0.0156
  635MOL0     H85661   1.042   7.532   6.480  0.1263  0.1846  0.3909
  635MOL0     H85662   1.336   7.585   6.543 -0.1761  1.0717  1.4938
  635MOL0     H85663   1.233   7.710   6.476  0.9768 -0.3878 -0.1735
  635MOL0     H85664   1.075   7.691   6.671 -1.1961 -1.0539  0.4134
  635MOL0     H85665   1.188   7.571   6.742  1.5074  0.2203  0.7266
  635MOL0     H85666   1.372   7.745   6.718  0.7106  0.8106  0.8436
  635MOL0     H85667   1.247   7.857   6.652 -1.9978 -0.8811  0.2017
  635MOL0     H85668   1.267   7.929   6.871  0.0587  0.7002 -0.2345
  635MOL0     H85669   1.129   7.816   6.879 -0.2858 -0.5515  1.6134
  635MOL0     H85670   1.255   7.629   6.966 -2.0990  0.3643  0.4086
  635MOL0     H85671   1.411   7.712   6.949  0.4284  3.0216 -1.7075
  635MOL0     H85672   1.342   7.896   7.087 -1.4130  0.4477  1.0607
  635MOL0     H85673   1.188   7.795   7.128  0.3567  2.4795  1.5160
  635MOL0     H85674   1.404   7.823   7.280  1.4700  1.7197 -1.8471
  635MOL0     H85675   1.472   7.710   7.161  0.8857  1.8893  0.3092
  635MOL0     H85676   1.350   7.475   7.111 -2.8231  3.9440 -1.4322
  635MOL0     H85677   1.323   7.202   7.271  1.5379  3.6846 -2.0659
  635MOL0     H85678   1.203   7.236   7.397 -1.5831  0.2609  0.6282
  635MOL0     H85679   1.035   7.271   7.213  0.8164  0.6302  2.0943
  635MOL0     H85680   1.120   7.101   7.221  1.0680  0.3482  2.5152
  635MOL0     H85681   1.262   7.174   7.037  1.1838  0.4175 -0.4949
  635MOL0     H85682   1.176   7.325   7.024  0.0418 -0.7661 -1.6187
  635MOL0     H85683   1.116   7.169   6.864 -0.8194  1.8231 -0.0848
  635MOL0     H85684   0.971   7.189   6.963  0.4273 -0.9160 -0.7889
  635MOL0     H85685   1.247   6.847   7.080 -0.2357  0.4792  0.2997
  635MOL0     H85686   1.491   6.723   6.981  0.7496 -1.4115  2.5896
  635MOL0     H85687   1.363   6.630   7.071 -0.2700 -1.2216 -0.2136
  635MOL0     H85688   1.421   6.574   6.911  0.9628  0.7758  0.4767
  635MOL0     H85689   1.374   6.698   6.280 -0.6451  0.3746 -0.0976
  635MOL0     H85690   1.445   6.535   6.106 -2.7972 -1.6550 -1.2650
  635MOL0     H85691   1.476   6.272   5.947  0.1677  0.9644 -0.1202
  635MOL0     H85692   1.588   6.384   6.030  2.4981 -0.7431 -1.3075
  635MOL0     H85693   1.726   6.226   5.921  2.1463 -5.3371 -2.1118
  635MOL0     H85694   1.739   6.170   6.087  1.7932 -2.4671 -0.8319
  635MOL0     H85695   1.546   6.052   5.876  0.5644  0.1024  0.7112
  635MOL0     H85696   1.576   5.993   6.037  0.4332 -1.0844 -0.7480
  635MOL0     H85697   1.717   5.868   5.855  3.9353 -1.6590  0.5035
  635MOL0     H85698   1.787   6.019   5.818 -2.2320  0.0338 -0.8553
  635MOL0     H85699   1.807   5.905   6.102 -1.4830  1.1805 -0.4977
  635MOL0     H85700   1.888   6.046   6.044 -0.3136  1.3448 -1.4700
  635MOL0     H85701   1.928   5.767   5.925  0.3357  0.6878 -1.4909
  635MOL0     H85702   2.017   5.909   5.870  2.2760 -1.0405  0.5800
  635MOL0     H85703   2.023   5.759   6.135 -0.4164 -0.9428  0.1333
  635MOL0     H85704   2.091   5.924   6.119 -2.4428 -2.6526  5.2496
  635MOL0     H85705   2.258   5.739   6.099  0.2969  1.5591  0.9686
  635MOL0     H85706   2.248   5.872   5.973 -0.7423 -0.6892 -1.6903
  635MOL0     H85707   1.375   6.222   6.386  2.8132 -0.7720 -0.5284
  635MOL0     H85708   1.369   6.394   6.572 -1.5059 -1.1618  0.1295
  635MOL0     H85709   1.158   6.828   6.587  1.7357  3.6039 -0.9672
  635MOL0     H85710   1.035   6.982   6.726  1.0945 -0.3639 -0.7532
  635MOL0     H85711   1.028   7.365   6.296 -1.8550 -1.6796 -0.7958
  635MOL0     H85712   1.009   7.145   6.171 -1.5435  0.6404  0.8981
  635MOL0     H85713   1.033   6.709   6.245 -4.6320 -0.6233 -1.6708
  635MOL0     H85714   1.038   6.474   6.208 -2.1352 -0.4974 -0.4839
  635MOL0     H85715   1.159   6.269   6.169  0.7026 -1.0956 -0.8424
  635MOL0     H85716   0.999   6.235   6.081 -0.6820 -1.8029  0.5705
  635MOL0     H85717   1.277   6.125   6.026  0.6645 -3.3763  0.0546
  635MOL0     H85718   1.138   6.088   5.929  1.4084 -0.5164 -0.0116
  635MOL0     H85719   1.182   5.998   6.228 -1.1467 -2.3009  0.7648
  635MOL0     H85720   1.221   5.917   6.080 -1.2095 -0.8305 -0.4872
  635MOL0     H85721   0.987   5.926   6.020  0.9464  0.8129 -0.0940
  635MOL0     H85722   0.939   6.006   6.174 -1.0165 -0.2559 -1.3069
  635MOL0     H85723   1.031   5.601   6.296 -2.3694 -1.2912  0.1222
  635MOL0     H85724   1.211   6.547   5.817 -2.1515 -2.5441 -0.3259
  635MOL0     H85725   1.207   6.792   5.869  1.7598 -0.0035  2.4664
  636MOL0     O85726  10.684   8.514   5.794 -0.0507 -0.5017 -0.2341
  636MOL0     C85727  10.644   8.631   5.764  0.5521  0.2787  0.1103
  636MOL0     O85728  10.534   8.664   5.684 -0.0078  0.9759 -0.3610
  636MOL0     C85729  10.451   8.575   5.617 -0.1557 -0.6005  0.4115
  636MOL0     C85730  10.350   8.616   5.524 -0.2923  0.7731  0.5339
  636MOL0     C85731  10.259   8.530   5.466  0.6011  0.3561 -1.1758
  636MOL0     C85732  10.254   8.400   5.497  0.4365  0.0216 -0.6275
  636MOL0     O85733  10.156   8.323   5.441  0.4223  0.1462 -0.4102
  636MOL0     C85734  10.134   8.185   5.493  0.7482 -0.0264  0.3128
  636MOL0     C85735  10.013   8.138   5.422  0.2737 -0.0616  0.0713
  636MOL0     C85736   9.987   7.989   5.447 -0.8433  0.3916  0.8579
  636MOL0     C85737   9.840   7.953   5.452  0.6024  0.2071  0.8219
  636MOL0     C85738   9.822   7.802   5.482 -0.6087 -0.1386 -0.3518
  636MOL0     C85739   9.700   7.739   5.411 -0.3172  0.8102 -0.1349
  636MOL0     C85740   9.727   7.676   5.270  0.1625  0.0283  0.8785
  636MOL0     C85741   9.824   7.552   5.268  1.1836 -0.5837 -0.0914
  636MOL0     N85742   9.810   7.482   5.136 -0.1513  0.1923  0.4750
  636MOL0     C85743   9.695   7.446   5.074  0.8709  0.6819  0.9367
  636MOL0     C85744   9.732   7.403   4.954 -0.0215  0.3138  1.0095
  636MOL0     C85745   9.652   7.354   4.837  0.5285 -0.7030  0.2831
  636MOL0     C85746   9.587   7.217   4.863 -0.5207  0.6288  1.1113
  636MOL0     C85747   9.705   7.109   4.882  0.4831 -0.1799  0.2183
  636MOL0     C85748   9.773   7.058   4.755 -0.5299 -0.7499  0.7398
  636MOL0     O85749   9.879   7.146   4.721 -0.2373  0.4854  0.3834
  636MOL0     C85750   9.955   7.124   4.610 -0.4823  1.0961  0.5007
  636MOL0     C85751  10.024   7.236   4.566  0.5278  0.6760 -1.3156
  636MOL0     C85752  10.087   7.240   4.440  0.5904 -0.1297 -0.2329
  636MOL0     C85753  10.148   7.362   4.390 -0.8115  0.6596 -0.1282
  636MOL0     C85754  10.086   7.127   4.356  0.8235  0.8595  0.8199
  636MOL0     C85755  10.146   7.120   4.221  0.3442 -0.0401 -1.0294
  636MOL0     O85756  10.135   7.227   4.141  0.5778 -0.0550 -0.5808
  636MOL0     C85757  10.153   7.207   4.009 -0.7333 -0.0089  0.3218
  636MOL0     C85758  10.275   7.167   3.952 -0.5080 -0.2868  0.4645
  636MOL0     C85759  10.304   7.163   3.812  0.1493  0.0699  0.7575
  636MOL0     C85760  10.190   7.165   3.732 -0.5405  0.1859  0.1534
  636MOL0     O85761  10.205   7.168   3.592  0.9732 -0.0356  0.1896
  636MOL0     C85762  10.315   7.230   3.526 -0.7561  0.1968  0.1387
  636MOL0     C85763  10.318   7.197   3.380  0.1600 -0.2209 -0.3535
  636MOL0     C85764  10.366   7.060   3.351  0.3865  0.2021 -0.2268
  636MOL0     C85765  10.516   7.067   3.322 -0.0682 -0.6842  0.4662
  636MOL0     C85766  10.574   6.930   3.267  0.6157  1.0234 -0.0892
  636MOL0     C85767  10.612   6.820   3.366 -0.3402  0.4053 -0.0454
  636MOL0     C85768  10.666   6.695   3.293 -0.1718  0.0585  0.0815
  636MOL0     C85769  10.672   6.566   3.377 -0.6681  0.6474  0.4850
  636MOL0    Cl85770  10.653   6.420   3.283 -0.7439 -0.0981  0.0993
  636MOL0     C85771  10.064   7.178   3.783 -0.4714  0.1077 -0.3302
  636MOL0     C85772  10.039   7.197   3.927  0.6837  0.1606  0.2572
  636MOL0     O85773  10.208   7.016   4.196 -0.5404  0.6217  0.0081
  636MOL0     C85774  10.019   7.013   4.400 -0.4543 -0.1888 -0.0812
  636MOL0     C85775   9.953   7.011   4.523  0.7888 -0.6095  0.2064
  636MOL0     N85776   9.874   7.404   4.946  0.3037 -0.9115 -0.6234
  636MOL0     N85777   9.910   7.476   5.043 -0.2028  0.6000 -0.5599
  636MOL0     C85778  10.349   8.356   5.601  0.0488  0.3899  0.3541
  636MOL0     C85779  10.442   8.440   5.651  0.2383  0.0840  0.1683
  636MOL0     C85780  10.716   8.742   5.828 -0.2423 -0.8354 -0.3091
  636MOL0     C85781  10.710   8.876   5.780 -1.1112 -0.4337 -0.2801
  636MOL0     C85782  10.792   8.974   5.828 -0.0633  0.0438  0.3805
  636MOL0     C85783  10.902   8.939   5.915 -0.4667 -0.5571 -0.3733
  636MOL0     O85784  11.009   9.018   5.957  0.8277 -0.0902 -0.2316
  636MOL0     C85785  11.045   9.137   5.888  0.4061 -0.0238  0.0640
  636MOL0     C85786  11.168   9.199   5.947  1.0572 -0.0944 -0.7227
  636MOL0     C85787  11.279   9.106   5.982 -0.4051  0.1197  0.1210
  636MOL0     C85788  11.260   9.024   6.116 -0.7098  0.2080 -0.0046
  636MOL0     C85789  11.220   9.102   6.227  0.0969  0.7341  0.4208
  636MOL0     C85790  11.186   9.164   6.325 -0.4587 -0.0694  0.2176
  636MOL0     C85791  10.909   8.813   5.961 -0.5950 -0.6006  1.3049
  636MOL0     C85792  10.813   8.720   5.925 -0.1807  0.0636 -0.4944
  636MOL0     H85793  10.343   8.718   5.486 -1.1976  0.6647  0.3922
  636MOL0     H85794  10.184   8.565   5.394 -0.8519  2.9848  1.3813
  636MOL0     H85795  10.211   8.118   5.452  0.0444 -0.1388 -0.8836
  636MOL0     H85796  10.118   8.179   5.601 -0.6733  1.1069  0.2014
  636MOL0     H85797   9.933   8.196   5.469  1.0067  0.3951  0.7946
  636MOL0     H85798  10.009   8.155   5.314  1.1719 -0.4928 -0.0372
  636MOL0     H85799  10.030   7.933   5.363 -1.1992 -0.0816  0.9863
  636MOL0     H85800  10.041   7.961   5.538  1.0998 -0.7788 -0.5723
  636MOL0     H85801   9.776   8.018   5.513 -2.2672 -0.8298 -0.8941
  636MOL0     H85802   9.791   7.967   5.355  1.7207 -0.2278  0.1774
  636MOL0     H85803   9.912   7.740   5.470  1.2215  1.9621  1.5113
  636MOL0     H85804   9.799   7.788   5.588 -4.8482  0.7338 -1.0006
  636MOL0     H85805   9.668   7.659   5.478  0.6235 -1.3665 -2.1383
  636MOL0     H85806   9.624   7.818   5.406 -2.0052 -0.7615 -0.4811
  636MOL0     H85807   9.631   7.635   5.236  0.1615  1.3134 -0.8333
  636MOL0     H85808   9.760   7.757   5.204  0.4897 -0.9750 -0.2423
  636MOL0     H85809   9.820   7.489   5.357 -3.1365  0.7389  0.9002
  636MOL0     H85810   9.926   7.590   5.265  1.0087 -0.1097 -0.2584
  636MOL0     H85811   9.592   7.447   5.110  1.0744  0.6269  1.5226
  636MOL0     H85812   9.583   7.434   4.810  1.1958 -0.6817 -1.4372
  636MOL0     H85813   9.721   7.335   4.755  1.2363 -1.1892  0.9778
  636MOL0     H85814   9.525   7.185   4.779  0.6613  0.5511  0.2394
  636MOL0     H85815   9.517   7.219   4.947 -3.3890 -2.0624 -0.9673
  636MOL0     H85816   9.644   7.031   4.930  0.2021  1.3205  2.4753
  636MOL0     H85817   9.784   7.135   4.952 -0.9400 -0.4920  2.0134
  636MOL0     H85818   9.703   7.038   4.674 -2.4975  3.5345  1.1388
  636MOL0     H85819   9.829   6.965   4.774  0.7938  0.1100  1.1869
  636MOL0     H85820  10.012   7.317   4.637 -3.6488 -2.1947  1.6885
  636MOL0     H85821  10.247   7.340   4.349 -1.3469 -0.2428 -0.9932
  636MOL0     H85822  10.076   7.388   4.312  0.0012  2.9385 -0.1800
  636MOL0     H85823  10.158   7.446   4.459  1.9998  1.2258 -1.0940
  636MOL0     H85824  10.367   7.173   4.009  0.7592  0.9665 -1.5993
  636MOL0     H85825  10.401   7.150   3.766 -0.4727  1.4121 -1.0349
  636MOL0     H85826  10.307   7.339   3.521  0.4533  0.2736 -0.5247
  636MOL0     H85827  10.408   7.193   3.571  0.7190  0.1222 -2.7014
  636MOL0     H85828  10.219   7.210   3.334  0.8367  0.3158 -1.7283
  636MOL0     H85829  10.388   7.274   3.346 -1.8146  3.2242  2.7037
  636MOL0     H85830  10.317   7.020   3.262 -1.0659 -0.5675  0.8687
  636MOL0     H85831  10.351   6.993   3.436 -1.5424 -0.1367 -0.7784
  636MOL0     H85832  10.529   7.138   3.240 -2.1618  1.0865  1.5651
  636MOL0     H85833  10.577   7.104   3.406  1.5710  3.7501 -2.3403
  636MOL0     H85834  10.672   6.960   3.228 -1.3982  2.3665 -4.7558
  636MOL0     H85835  10.513   6.895   3.183  0.9810  0.5762 -0.1754
  636MOL0     H85836  10.691   6.859   3.431  4.2727 -1.7327 -3.7853
  636MOL0     H85837  10.522   6.792   3.421  1.8122 -1.1967  2.9138
  636MOL0     H85838  10.762   6.732   3.255  0.5900 -0.8434  1.0524
  636MOL0     H85839  10.599   6.678   3.209  0.9233 -0.0922 -0.7931
  636MOL0     H85840  10.579   6.567   3.435 -1.6510  0.3118 -1.0301
  636MOL0     H85841  10.759   6.559   3.442  0.6409 -4.4451 -1.2983
  636MOL0     H85842   9.979   7.169   3.716  0.4635 -2.1536 -1.3228
  636MOL0     H85843   9.939   7.216   3.965  0.9477  2.6445 -0.1181
  636MOL0     H85844  10.004   6.933   4.328  0.8378  0.1048 -0.6985
  636MOL0     H85845   9.885   6.929   4.547  0.7337 -0.4954  0.4393
  636MOL0     H85846  10.366   8.255   5.637  5.4924  0.8818 -0.0045
  636MOL0     H85847  10.505   8.378   5.714  1.0197 -0.7472 -1.3595
  636MOL0     H85848  10.651   8.911   5.695 -0.5565 -1.6585 -1.1930
  636MOL0     H85849  10.793   9.080   5.805 -0.3197  0.6708  2.9371
  636MOL0     H85850  11.060   9.114   5.782 -1.0875  0.9097 -0.3773
  636MOL0     H85851  10.963   9.209   5.896 -2.9997 -3.3509 -1.6482
  636MOL0     H85852  11.141   9.266   6.030 -2.4914 -1.5009 -0.5453
  636MOL0     H85853  11.213   9.266   5.873  1.4325 -1.8863 -2.1877
  636MOL0     H85854  11.372   9.163   5.981 -1.0710  1.4526  2.8341
  636MOL0     H85855  11.288   9.032   5.902 -0.7929 -1.1270  1.1789
  636MOL0     H85856  11.343   8.959   6.143 -1.0651 -0.4743 -0.5088
  636MOL0     H85857  11.176   8.953   6.112 -0.4166 -0.4626  3.3734
  636MOL0     H85858  11.165   9.227   6.410  4.5517 -0.0713  1.7870
  636MOL0     H85859  10.990   8.783   6.026  1.4487  0.6807 -0.4836
  636MOL0     H85860  10.829   8.621   5.967 -0.0436 -0.4722 -1.7704
  637MOL0     O85861   7.062   4.460  10.912  0.3735  0.2281 -0.6068
  637MOL0     C85862   7.127   4.370  10.859  0.0119 -1.1347  0.7475
  637MOL0     O85863   7.247   4.331  10.885  0.1153  0.6011  0.3038
  637MOL0     C85864   7.319   4.384  10.986  0.6160 -0.4764 -0.5400
  637MOL0     C85865   7.340   4.524  10.993  0.5733  0.0507  0.2012
  637MOL0     C85866   7.406   4.583  11.103 -0.6443 -0.7000  1.1154
  637MOL0     C85867   7.466   4.499  11.199  0.2071  1.1192  0.4746
  637MOL0     O85868   7.541   4.562  11.295  0.6280  0.4007 -0.0814
  637MOL0     C85869   7.655   4.492  11.341 -0.3157  0.1438  0.4159
  637MOL0     C85870   7.603   4.427  11.474 -0.2361 -0.3376 -0.1181
  637MOL0     C85871   7.613   4.524  11.595  0.2528  0.4196 -1.3630
  637MOL0     C85872   7.590   4.435  11.727 -0.4662 -0.5606 -0.0519
  637MOL0     C85873   7.593   4.523  11.865  0.3964  0.8556 -0.4020
  637MOL0     C85874   7.467   4.601  11.868 -0.4361 -0.1430  0.5922
  637MOL0     C85875   7.343   4.527  11.928 -0.4215  0.5418  0.6685
  637MOL0     C85876   7.224   4.627  11.941  0.1664  0.1972 -0.6475
  637MOL0     N85877   7.245   4.712  12.060  0.3165 -0.4322  0.7573
  637MOL0     C85878   7.297   4.838  12.063 -0.6917 -0.3292 -0.6773
  637MOL0     C85879   7.317   4.865  12.200 -0.4253  0.5002  0.5426
  637MOL0     C85880   7.374   4.983  12.261  0.2147 -0.8229 -0.0832
  637MOL0     C85881   7.263   5.075  12.306  0.3709  0.6579  1.0260
  637MOL0     C85882   7.299   5.208  12.375 -0.0968 -0.1749  0.9975
  637MOL0     C85883   7.310   5.322  12.271 -0.9902 -0.5005  0.3643
  637MOL0     O85884   7.339   5.450  12.334  0.1180  0.4313 -0.4518
  637MOL0     C85885   7.343   5.566  12.254  0.8921  0.5518 -0.3623
  637MOL0     C85886   7.386   5.683  12.320 -0.4478 -0.0596  0.1995
  637MOL0     C85887   7.413   5.799  12.243  0.3538 -0.4651 -0.3419
  637MOL0     C85888   7.476   5.920  12.315  0.2764  0.1217  0.6403
  637MOL0     C85889   7.390   5.803  12.101  0.3747  0.1069 -0.3681
  637MOL0     C85890   7.412   5.915  12.015 -0.1164 -0.1292  0.3204
  637MOL0     O85891   7.321   5.935  11.911  0.3632 -0.7554 -0.8210
  637MOL0     C85892   7.325   6.049  11.836  0.9057  0.1009 -0.3477
  637MOL0     C85893   7.250   6.163  11.861  0.0806 -0.2022  0.3636
  637MOL0     C85894   7.262   6.278  11.784  1.2333 -0.1926 -0.2967
  637MOL0     C85895   7.332   6.279  11.671 -0.0518  0.5802  0.1695
  637MOL0     O85896   7.342   6.395  11.593  0.2314  0.1841  0.3768
  637MOL0     C85897   7.433   6.399  11.486 -0.0555 -0.2918 -0.1802
  637MOL0     C85898   7.421   6.522  11.403  0.0962 -0.4935 -0.1202
  637MOL0     C85899   7.517   6.513  11.286  0.0098  1.1486 -0.9103
  637MOL0     C85900   7.501   6.630  11.186  0.1376  0.0942 -0.4048
  637MOL0     C85901   7.493   6.591  11.039 -0.4221  0.2803  0.4846
  637MOL0     C85902   7.609   6.501  10.980 -0.1313  0.2826 -1.2839
  637MOL0     C85903   7.748   6.568  10.974  0.0921 -0.2142 -0.5640
  637MOL0     C85904   7.833   6.501  10.868 -0.2786 -0.1429 -0.1872
  637MOL0    Cl85905   7.789   6.545  10.702 -0.2781 -0.1047 -0.0334
  637MOL0     C85906   7.398   6.160  11.631 -0.3521 -0.7741 -0.8359
  637MOL0     C85907   7.398   6.047  11.718  0.5545  0.6153  0.7579
  637MOL0     O85908   7.513   5.979  12.032 -0.3547 -0.2791 -0.1450
  637MOL0     C85909   7.334   5.687  12.044 -0.7058  0.4178  0.5862
  637MOL0     C85910   7.324   5.568  12.115 -0.2094  0.3708  0.3062
  637MOL0     N85911   7.264   4.758  12.267  0.7105 -0.4257 -0.0318
  637MOL0     N85912   7.216   4.673  12.182  0.8419 -0.5696  0.0742
  637MOL0     C85913   7.443   4.355  11.195 -0.5307  0.8259  1.2408
  637MOL0     C85914   7.367   4.297  11.089 -0.2750  0.1134 -0.2361
  637MOL0     C85915   7.067   4.311  10.736 -0.2189  0.1042 -0.1493
  637MOL0     C85916   6.931   4.297  10.720  0.2785  0.3082 -0.3698
  637MOL0     C85917   6.876   4.239  10.605  0.5021 -0.4652 -1.2573
  637MOL0     C85918   6.954   4.196  10.499 -0.2049 -0.8446  0.6768
  637MOL0     O85919   6.902   4.132  10.393  0.8120  0.5812 -0.1269
  637MOL0     C85920   6.965   4.106  10.264  0.4377 -0.5227 -0.3792
  637MOL0     C85921   6.871   4.033  10.165 -0.2792 -0.6869  0.2365
  637MOL0     C85922   6.906   4.036  10.024 -0.5465  0.6420 -0.2422
  637MOL0     C85923   6.814   3.940   9.936 -0.2137 -0.5916 -0.3686
  637MOL0     C85924   6.677   3.986   9.944  0.3102  0.9627 -0.3575
  637MOL0     C85925   6.568   4.030   9.942 -0.3227 -0.3230 -0.5896
  637MOL0     C85926   7.093   4.200  10.520  0.6045 -0.8034  0.4579
  637MOL0     C85927   7.153   4.255  10.629 -0.0025  0.2491  0.6278
  637MOL0     H85928   7.293   4.594  10.924 -0.9211 -1.1745 -0.0906
  637MOL0     H85929   7.406   4.691  11.116  1.1182 -0.8067  2.4295
  637MOL0     H85930   7.687   4.403  11.286 -0.1360  2.1581 -3.0322
  637MOL0     H85931   7.750   4.546  11.345  2.3445 -3.8556 -2.1705
  637MOL0     H85932   7.506   4.381  11.455 -1.0941  2.3539 -3.0617
  637MOL0     H85933   7.664   4.343  11.509 -1.5331 -0.7632  1.1958
  637MOL0     H85934   7.715   4.563  11.593  0.7867 -0.8994 -3.0668
  637MOL0     H85935   7.540   4.605  11.594 -2.1167 -1.5525  0.2592
  637MOL0     H85936   7.495   4.381  11.723 -0.4184 -1.1314  3.3664
  637MOL0     H85937   7.657   4.348  11.733  1.0658  0.6103  0.3118
  637MOL0     H85938   7.602   4.461  11.955 -1.9246 -3.4072 -2.7600
  637MOL0     H85939   7.672   4.599  11.863  0.8312  0.4582  0.8576
  637MOL0     H85940   7.498   4.692  11.920  1.2395 -0.5182  0.3210
  637MOL0     H85941   7.446   4.636  11.766  0.8674 -0.5109  0.1788
  637MOL0     H85942   7.318   4.449  11.855  2.9809  1.0296 -1.2386
  637MOL0     H85943   7.368   4.475  12.021 -2.4064 -1.4463  0.1678
  637MOL0     H85944   7.126   4.580  11.950 -0.5743  1.8522  0.3170
  637MOL0     H85945   7.220   4.694  11.855 -0.2674 -0.1282 -0.8792
  637MOL0     H85946   7.336   4.897  11.981 -0.0026 -1.1188 -0.9361
  637MOL0     H85947   7.443   4.965  12.344  1.3117  0.6750 -0.6258
  637MOL0     H85948   7.432   5.035  12.185  0.7719  1.4312  1.7445
  637MOL0     H85949   7.188   5.019  12.362  0.7523 -3.1110 -1.8415
  637MOL0     H85950   7.212   5.094  12.211  4.8255  1.4720 -1.5190
  637MOL0     H85951   7.390   5.198  12.435  0.7312 -2.1223 -0.4727
  637MOL0     H85952   7.211   5.228  12.438 -2.7467  0.0196 -2.4517
  637MOL0     H85953   7.218   5.321  12.212 -2.0082  0.1378  1.8829
  637MOL0     H85954   7.403   5.311  12.213  1.6847  1.2195  3.9358
  637MOL0     H85955   7.388   5.689  12.428 -0.8655  1.5273  0.1427
  637MOL0     H85956   7.566   5.957  12.266 -0.8441 -0.1077 -1.7529
  637MOL0     H85957   7.408   6.005  12.321  0.3528  0.1547  1.0662
  637MOL0     H85958   7.480   5.898  12.422 -2.3227 -0.1612  0.7428
  637MOL0     H85959   7.192   6.161  11.953 -2.4060  2.8112 -0.9755
  637MOL0     H85960   7.211   6.370  11.812 -1.2931 -1.5344 -0.1748
  637MOL0     H85961   7.528   6.401  11.540 -0.4228 -1.0379  0.5121
  637MOL0     H85962   7.425   6.315  11.417 -3.7888  0.3385 -0.7554
  637MOL0     H85963   7.320   6.546  11.369  1.1801  1.3664 -2.3327
  637MOL0     H85964   7.457   6.610  11.459  2.6009  0.4769 -2.9628
  637MOL0     H85965   7.494   6.418  11.238  0.3393  0.9898 -0.7585
  637MOL0     H85966   7.621   6.498  11.317  0.4325  4.3370 -0.3658
  637MOL0     H85967   7.427   6.704  11.217 -0.0204  0.7128 -2.1661
  637MOL0     H85968   7.600   6.667  11.214 -0.0658  0.2555  0.1238
  637MOL0     H85969   7.501   6.684  10.983  1.8342  2.3284  3.8217
  637MOL0     H85970   7.396   6.543  11.028 -1.2483  2.1177 -0.8593
  637MOL0     H85971   7.617   6.421  11.054 -1.2476  1.2252 -0.0974
  637MOL0     H85972   7.577   6.462  10.883 -0.0393 -0.2276 -1.1113
  637MOL0     H85973   7.792   6.545  11.071 -2.1975 -0.4961  0.4646
  637MOL0     H85974   7.731   6.675  10.958 -4.0675 -0.2424  2.1157
  637MOL0     H85975   7.839   6.392  10.877 -2.1657 -0.1228  1.8061
  637MOL0     H85976   7.936   6.538  10.877 -0.0359 -0.6091 -0.8866
  637MOL0     H85977   7.449   6.140  11.538  1.6930 -0.4411  0.1533
  637MOL0     H85978   7.446   5.953  11.692 -1.3667 -0.5874  1.4035
  637MOL0     H85979   7.330   5.682  11.935  5.4281 -2.5120  0.0831
  637MOL0     H85980   7.291   5.474  12.071 -0.3558  0.7352 -0.3910
  637MOL0     H85981   7.493   4.288  11.264  0.3309  0.5632  0.3764
  637MOL0     H85982   7.352   4.190  11.089  0.5048  0.0024 -0.2355
  637MOL0     H85983   6.868   4.347  10.794 -0.4347  2.5492 -2.3792
  637MOL0     H85984   6.768   4.238  10.599  0.4465  1.3204 -1.0384
  637MOL0     H85985   6.993   4.203  10.222  1.4533 -0.1186  1.1539
  637MOL0     H85986   7.057   4.047  10.274  0.6007  0.0213  1.7550
  637MOL0     H85987   6.769   4.070  10.177 -0.5532 -0.7506 -1.5832
  637MOL0     H85988   6.865   3.931  10.204  0.3701 -0.2724  1.4774
  637MOL0     H85989   7.008   3.997  10.026 -1.4376 -1.8668  0.9745
  637MOL0     H85990   6.902   4.138   9.987 -2.1625  1.9711  3.1808
  637MOL0     H85991   6.819   3.836   9.968  2.1126 -0.1672  0.9543
  637MOL0     H85992   6.847   3.950   9.832 -2.6245 -1.5890 -1.2819
  637MOL0     H85993   6.469   4.070   9.937  0.1554  0.7585 -3.4154
  637MOL0     H85994   7.161   4.159  10.446  1.3180 -2.1108  1.7900
  637MOL0     H85995   7.261   4.254  10.638  0.0160 -0.4417  0.3792
  638MOL0     O85996   1.519   3.227   2.326 -0.2540 -0.0437  0.6702
  638MOL0     C85997   1.618   3.272   2.265 -0.8442  0.8566  0.5196
  638MOL0     O85998   1.714   3.197   2.194 -0.1030  0.1362 -0.1573
  638MOL0     C85999   1.713   3.067   2.220 -0.0601  0.0519  0.3570
  638MOL0     C86000   1.679   2.984   2.109  0.2282  0.4643 -0.1519
  638MOL0     C86001   1.672   2.845   2.129 -0.1678 -0.9204 -0.4944
  638MOL0     C86002   1.721   2.794   2.253  0.5772 -0.7876  0.3751
  638MOL0     O86003   1.724   2.664   2.277  0.4609  0.1337 -0.4039
  638MOL0     C86004   1.680   2.578   2.178  0.8361 -0.0630  0.0843
  638MOL0     C86005   1.707   2.436   2.230 -0.2421 -0.1290 -0.8804
  638MOL0     C86006   1.843   2.382   2.191 -0.6331 -0.2921 -0.0525
  638MOL0     C86007   1.961   2.446   2.274 -0.1848 -0.5371 -0.0857
  638MOL0     C86008   2.096   2.391   2.211  0.1138 -0.1027 -0.6495
  638MOL0     C86009   2.209   2.457   2.283  0.4549  0.1407  0.5062
  638MOL0     C86010   2.339   2.389   2.251 -0.1210  0.2418  0.4932
  638MOL0     C86011   2.350   2.258   2.321 -0.3009 -0.3200 -0.3297
  638MOL0     N86012   2.487   2.206   2.301 -0.0011 -0.3644 -0.1763
  638MOL0     C86013   2.604   2.262   2.352  0.8281  0.3845  0.2936
  638MOL0     C86014   2.697   2.188   2.289 -0.9205 -0.1961 -0.4245
  638MOL0     C86015   2.842   2.202   2.306  0.1004  0.0240  0.8354
  638MOL0     C86016   2.893   2.314   2.211 -0.7490 -0.9448 -0.2157
  638MOL0     C86017   3.037   2.286   2.183  0.2115  0.9370 -0.4661
  638MOL0     C86018   3.096   2.418   2.121  0.2314  0.0685 -0.1240
  638MOL0     O86019   3.222   2.386   2.060 -0.4364 -0.5852 -0.1315
  638MOL0     C86020   3.327   2.396   2.143  0.7723  0.2539 -0.1207
  638MOL0     C86021   3.416   2.292   2.137 -0.0355  0.1125 -0.3656
  638MOL0     C86022   3.539   2.297   2.207  0.6848  0.1338  0.6585
  638MOL0     C86023   3.646   2.183   2.184  0.7063  0.1543  1.1283
  638MOL0     C86024   3.571   2.412   2.272 -0.0370 -0.9317 -0.2099
  638MOL0     C86025   3.699   2.425   2.336 -0.1519  1.3035 -1.1995
  638MOL0     O86026   3.756   2.548   2.342  0.8455 -0.5259 -0.7528
  638MOL0     C86027   3.873   2.554   2.412  0.3734  0.7115 -0.4683
  638MOL0     C86028   3.867   2.563   2.554 -0.0016 -0.1021  0.3523
  638MOL0     C86029   3.985   2.562   2.627  0.4413  0.1281 -0.5520
  638MOL0     C86030   4.113   2.552   2.567 -0.0493 -0.5432  0.9889
  638MOL0     O86031   4.226   2.563   2.637  0.0681  0.0233  0.2385
  638MOL0     C86032   4.304   2.679   2.623 -0.4623 -0.1599  0.8976
  638MOL0     C86033   4.372   2.709   2.748  0.5458  0.6604  0.0751
  638MOL0     C86034   4.270   2.715   2.874 -0.0635 -0.3033 -0.1470
  638MOL0     C86035   4.362   2.711   2.994 -0.6180 -0.2496 -0.4142
  638MOL0     C86036   4.306   2.724   3.131  0.3620  0.7665 -0.2034
  638MOL0     C86037   4.208   2.608   3.165  0.1728 -0.1047  0.1571
  638MOL0     C86038   4.199   2.566   3.313 -0.4028  0.2519  0.4034
  638MOL0     C86039   4.193   2.411   3.313  0.2144 -1.0176 -0.1006
  638MOL0    Cl86040   4.189   2.379   3.480 -0.3611 -0.2933 -0.4926
  638MOL0     C86041   4.117   2.549   2.424  0.6780  0.0874  0.7525
  638MOL0     C86042   3.996   2.548   2.351 -1.0190 -1.0445  0.8470
  638MOL0     O86043   3.756   2.330   2.394  0.6227  0.2562 -0.3715
  638MOL0     C86044   3.480   2.514   2.288  0.3780  0.3556 -0.7903
  638MOL0     C86045   3.353   2.514   2.219  0.1959  0.7098 -0.2451
  638MOL0     N86046   2.644   2.094   2.207  0.0014 -0.1510  0.2977
  638MOL0     N86047   2.514   2.104   2.220 -0.0546  0.1816  0.1094
  638MOL0     C86048   1.774   2.869   2.357  0.2712 -0.9183 -0.2705
  638MOL0     C86049   1.763   3.013   2.340 -0.1940  1.8752 -0.9342
  638MOL0     C86050   1.623   3.421   2.268 -0.3095 -0.5769  0.5349
  638MOL0     C86051   1.497   3.489   2.277  0.0614 -0.1292 -0.1863
  638MOL0     C86052   1.480   3.629   2.264 -0.0618  0.0660 -0.2107
  638MOL0     C86053   1.595   3.709   2.254  0.3115 -0.1169  0.2050
  638MOL0     O86054   1.594   3.849   2.253 -0.5906 -0.1892  0.6716
  638MOL0     C86055   1.472   3.916   2.303 -0.1332  0.2842  0.9438
  638MOL0     C86056   1.509   4.049   2.363  0.0954  0.5935  0.2088
  638MOL0     C86057   1.562   4.160   2.272 -0.2479 -0.1418 -0.4611
  638MOL0     C86058   1.611   4.284   2.350 -0.2220  0.0710  0.2094
  638MOL0     C86059   1.749   4.258   2.412  0.6383  0.2897  1.2372
  638MOL0     C86060   1.855   4.208   2.451  0.7754 -0.3004  0.1017
  638MOL0     C86061   1.718   3.647   2.260 -0.2423  0.3801 -0.7004
  638MOL0     C86062   1.736   3.511   2.253  0.5528  0.4369 -0.2187
  638MOL0     H86063   1.642   3.022   2.015 -1.7208 -3.5832 -1.2253
  638MOL0     H86064   1.624   2.780   2.057 -0.0357  0.1019 -1.5174
  638MOL0     H86065   1.575   2.592   2.151  1.3173  2.1966 -0.8474
  638MOL0     H86066   1.744   2.583   2.089  3.1200 -2.3049  1.4681
  638MOL0     H86067   1.692   2.432   2.338  0.1640  2.0988 -0.6943
  638MOL0     H86068   1.641   2.362   2.181  0.9673 -1.4759 -0.5344
  638MOL0     H86069   1.829   2.274   2.199 -1.9548 -0.1269  0.1431
  638MOL0     H86070   1.862   2.409   2.086 -1.2124  0.2502 -0.0237
  638MOL0     H86071   1.959   2.555   2.273  0.8741 -0.4606  1.5921
  638MOL0     H86072   1.954   2.419   2.380 -2.6697  3.3901  0.9648
  638MOL0     H86073   2.089   2.285   2.234  3.5676 -0.1284  0.7916
  638MOL0     H86074   2.111   2.401   2.103 -1.5820  1.8854 -0.7792
  638MOL0     H86075   2.209   2.561   2.250  1.4605 -0.3924 -1.3356
  638MOL0     H86076   2.189   2.449   2.390 -2.5826 -0.1753  0.0168
  638MOL0     H86077   2.344   2.359   2.146 -0.3727  0.5194  0.3980
  638MOL0     H86078   2.422   2.452   2.285  0.6506 -1.9394  2.8825
  638MOL0     H86079   2.273   2.188   2.289  1.1623 -3.4533  2.3942
  638MOL0     H86080   2.342   2.267   2.430 -3.6365 -0.1680 -0.4989
  638MOL0     H86081   2.600   2.344   2.423 -0.3974  1.3003 -0.8027
  638MOL0     H86082   2.868   2.229   2.409 -0.8064  0.4521  0.9580
  638MOL0     H86083   2.889   2.106   2.282  1.4177  1.2086 -1.7569
  638MOL0     H86084   2.878   2.414   2.253  1.3879  0.7884 -3.2123
  638MOL0     H86085   2.844   2.312   2.114 -1.6800 -2.3711  0.2448
  638MOL0     H86086   3.034   2.197   2.120  2.2634 -0.0799  0.7318
  638MOL0     H86087   3.109   2.270   2.265 -0.2478  1.9887  0.1643
  638MOL0     H86088   3.103   2.481   2.210 -0.8302 -1.8082  1.3672
  638MOL0     H86089   3.030   2.456   2.042 -0.9620 -1.9519 -0.1784
  638MOL0     H86090   3.390   2.207   2.075 -0.8076  0.5834 -0.7063
  638MOL0     H86091   3.730   2.238   2.141 -1.4660  0.1594 -3.8554
  638MOL0     H86092   3.659   2.134   2.281  1.9520  0.5984  1.1964
  638MOL0     H86093   3.609   2.113   2.108  5.7794  0.7339 -2.3347
  638MOL0     H86094   3.771   2.573   2.604  0.6952  2.0158  1.3915
  638MOL0     H86095   3.980   2.552   2.735  4.9932 -0.9064 -0.2391
  638MOL0     H86096   4.380   2.664   2.546 -0.8135 -0.6832  0.6462
  638MOL0     H86097   4.251   2.767   2.585  0.1482 -1.0847 -2.3816
  638MOL0     H86098   4.445   2.634   2.780 -1.9667 -1.8413  0.3853
  638MOL0     H86099   4.432   2.797   2.723  1.3940 -0.0419 -0.4286
  638MOL0     H86100   4.197   2.633   2.872 -0.1150 -0.2515 -0.3698
  638MOL0     H86101   4.206   2.804   2.883 -0.9664 -0.9222 -0.2675
  638MOL0     H86102   4.398   2.608   2.994  0.5763  0.0696  2.1038
  638MOL0     H86103   4.440   2.787   2.984 -0.7572 -0.0409  0.0336
  638MOL0     H86104   4.256   2.818   3.154 -0.2233  0.1894  0.9754
  638MOL0     H86105   4.384   2.724   3.208 -0.7660  2.3479  1.0154
  638MOL0     H86106   4.107   2.633   3.132 -0.1859 -0.9671  0.5651
  638MOL0     H86107   4.232   2.519   3.106  0.2286 -0.5688  0.8668
  638MOL0     H86108   4.124   2.614   3.375 -0.4308 -0.5391  0.9980
  638MOL0     H86109   4.302   2.576   3.348  0.4803  1.0125 -2.1286
  638MOL0     H86110   4.289   2.376   3.274  1.3443  0.3560  1.3511
  638MOL0     H86111   4.114   2.358   3.258  1.8519 -2.7880 -0.8731
  638MOL0     H86112   4.215   2.548   2.377  0.8150 -2.3008  0.9487
  638MOL0     H86113   4.000   2.538   2.243  1.3155  2.3506  0.4775
  638MOL0     H86114   3.506   2.597   2.353  2.4325  0.7155 -1.9926
  638MOL0     H86115   3.288   2.600   2.232  0.7517  1.3287 -1.4429
  638MOL0     H86116   1.799   2.814   2.447 -2.1411 -1.2936  0.2297
  638MOL0     H86117   1.798   3.070   2.425  1.2069 -1.3759  0.8210
  638MOL0     H86118   1.403   3.434   2.278 -0.3307  0.5296 -0.3336
  638MOL0     H86119   1.378   3.660   2.243 -0.3699 -2.1276 -2.3585
  638MOL0     H86120   1.412   3.944   2.215 -1.1465 -1.3247  1.0896
  638MOL0     H86121   1.416   3.854   2.373 -2.9563  0.1066 -1.2871
  638MOL0     H86122   1.598   4.032   2.425  0.3422 -5.3818 -1.1446
  638MOL0     H86123   1.425   4.093   2.418 -1.2103 -0.3690 -0.9180
  638MOL0     H86124   1.499   4.201   2.193  1.5726  2.1424 -0.8448
  638MOL0     H86125   1.648   4.105   2.231  0.8450 -0.1415  1.6773
  638MOL0     H86126   1.539   4.312   2.428 -2.6913 -0.8118 -1.5946
  638MOL0     H86127   1.628   4.364   2.277  1.6962 -1.7662 -1.4887
  638MOL0     H86128   1.947   4.167   2.486  0.1162 -3.6254 -1.6450
  638MOL0     H86129   1.808   3.701   2.232  0.0765  0.3018  0.1243
  638MOL0     H86130   1.839   3.476   2.251  0.1153 -1.1322  1.6021
  639MOL0     O86131   1.437   7.423   4.916 -0.2220  0.2587  0.0960
  639MOL0     C86132   1.448   7.538   4.869  0.0393 -0.1725 -0.5569
  639MOL0     O86133   1.556   7.622   4.887 -0.1487  0.0852 -0.7832
  639MOL0     C86134   1.673   7.576   4.945 -0.1854  0.5984 -0.7232
  639MOL0     C86135   1.659   7.544   5.077 -0.6058 -0.2326  0.2528
  639MOL0     C86136   1.771   7.479   5.141 -0.3517 -0.0012 -0.2299
  639MOL0     C86137   1.886   7.438   5.071  0.0764 -0.5322  0.2678
  639MOL0     O86138   1.995   7.387   5.135  0.4848 -0.4870 -0.0621
  639MOL0     C86139   1.985   7.341   5.266  0.7245 -0.3782 -0.8230
  639MOL0     C86140   2.004   7.458   5.369  0.8530 -0.0810  0.3423
  639MOL0     C86141   2.120   7.420   5.469  0.0363  0.2136 -0.1099
  639MOL0     C86142   2.155   7.526   5.566  0.4178  0.2137  0.1513
  639MOL0     C86143   2.260   7.487   5.656 -0.1285  0.0453 -0.3480
  639MOL0     C86144   2.270   7.576   5.780  0.2786 -0.3133  0.2009
  639MOL0     C86145   2.391   7.527   5.867 -1.2148  0.0120 -0.2943
  639MOL0     C86146   2.450   7.629   5.978 -0.3577 -1.1615 -0.9525
  639MOL0     N86147   2.362   7.646   6.098  0.2551  0.2932 -0.2729
  639MOL0     C86148   2.239   7.691   6.097  0.4664  0.4738 -0.2951
  639MOL0     C86149   2.188   7.689   6.223  0.0005  0.4423  0.1971
  639MOL0     C86150   2.040   7.690   6.270 -0.2244 -0.0013 -0.9090
  639MOL0     C86151   1.955   7.564   6.232  0.2180  0.1583  0.5538
  639MOL0     C86152   2.010   7.431   6.294  0.8926  0.1915 -0.7403
  639MOL0     C86153   1.917   7.315   6.257  0.4688 -0.6136  0.6315
  639MOL0     O86154   1.942   7.270   6.112 -0.7444  0.2952 -0.8069
  639MOL0     C86155   1.872   7.158   6.086  0.5550  0.1432  0.1016
  639MOL0     C86156   1.742   7.132   6.146  0.7303  1.2351  0.1823
  639MOL0     C86157   1.662   7.028   6.095 -0.1844 -0.2799 -0.4625
  639MOL0     C86158   1.516   6.998   6.151 -0.2952 -0.8595  0.0989
  639MOL0     C86159   1.715   6.936   5.994  0.7759 -0.1386 -0.1914
  639MOL0     C86160   1.640   6.822   5.928  0.4932 -1.0728 -0.6944
  639MOL0     O86161   1.680   6.778   5.809 -0.4236 -0.4313  0.4838
  639MOL0     C86162   1.646   6.652   5.771  0.6243  0.1893 -0.4904
  639MOL0     C86163   1.744   6.547   5.770  1.0131  1.0789 -0.7074
  639MOL0     C86164   1.697   6.419   5.733 -0.7300 -0.0903 -0.2747
  639MOL0     C86165   1.571   6.401   5.678  0.0496  0.1045  0.7707
  639MOL0     O86166   1.526   6.280   5.620  1.1702  0.2420 -0.5662
  639MOL0     C86167   1.608   6.161   5.589  0.2270 -0.4710  0.2778
  639MOL0     C86168   1.516   6.070   5.509  0.7075  0.4991 -0.2101
  639MOL0     C86169   1.455   5.961   5.598 -0.2587 -0.8096 -0.7649
  639MOL0     C86170   1.397   5.856   5.503 -0.2699  1.4573 -0.6564
  639MOL0     C86171   1.387   5.721   5.568  0.6031  0.1992  0.2982
  639MOL0     C86172   1.285   5.726   5.679 -0.3906 -0.4892  0.9980
  639MOL0     C86173   1.340   5.744   5.819 -0.5055  0.2804 -1.6044
  639MOL0     C86174   1.366   5.612   5.894 -1.0074  0.0791  0.2372
  639MOL0    Cl86175   1.235   5.506   5.913 -0.1911  0.5621  0.2103
  639MOL0     C86176   1.477   6.501   5.678  0.3062 -0.4808  0.1725
  639MOL0     C86177   1.517   6.623   5.730 -0.4529 -0.2986  0.1168
  639MOL0     O86178   1.553   6.762   6.000  0.5094  0.7505  0.4478
  639MOL0     C86179   1.850   6.960   5.948 -0.3658 -0.3941  1.0305
  639MOL0     C86180   1.923   7.068   5.992  0.2085  0.6566 -0.3123
  639MOL0     N86181   2.287   7.642   6.305  0.3708  0.2084  0.2783
  639MOL0     N86182   2.389   7.618   6.230  0.6347  0.5256 -0.3288
  639MOL0     C86183   1.892   7.477   4.931 -0.7952  0.2600 -0.7099
  639MOL0     C86184   1.787   7.545   4.866  0.0365  0.4577 -0.1901
  639MOL0     C86185   1.335   7.591   4.787  0.3394 -0.3981  0.5242
  639MOL0     C86186   1.205   7.545   4.823  1.0661  0.1377 -0.1796
  639MOL0     C86187   1.091   7.591   4.762  0.0664 -0.2014  0.6426
  639MOL0     C86188   1.100   7.703   4.667 -0.4277 -0.0099 -1.2453
  639MOL0     O86189   0.995   7.754   4.604 -0.3303 -1.2450 -0.0915
  639MOL0     C86190   0.992   7.772   4.466  0.1780  0.4127 -0.0499
  639MOL0     C86191   0.893   7.668   4.401 -0.5421 -0.4422 -1.0335
  639MOL0     C86192   0.890   7.697   4.256 -0.0402 -0.1539  0.5273
  639MOL0     C86193   0.791   7.617   4.172 -0.6068  0.0120  0.6911
  639MOL0     C86194   0.854   7.504   4.123  0.4911 -0.0102  0.4289
  639MOL0     C86195   0.912   7.410   4.068  0.7158  0.7669 -0.8398
  639MOL0     C86196   1.234   7.748   4.638  1.1257  0.9817  0.7632
  639MOL0     C86197   1.351   7.697   4.700 -0.4709  0.0777  0.0263
  639MOL0     H86198   1.563   7.570   5.120  0.6106  0.6763  2.6324
  639MOL0     H86199   1.774   7.464   5.248  2.9330 -2.3579 -0.5079
  639MOL0     H86200   1.894   7.282   5.279 -0.6546  1.7762 -0.2692
  639MOL0     H86201   2.068   7.271   5.284  0.1273 -0.4766  1.9350
  639MOL0     H86202   2.034   7.542   5.305 -0.3722  0.5836  0.6073
  639MOL0     H86203   1.918   7.494   5.426  0.6067  3.4489 -1.9662
  639MOL0     H86204   2.087   7.332   5.527 -0.0340  0.8385  0.8291
  639MOL0     H86205   2.214   7.400   5.417  1.1847  3.7900  0.3084
  639MOL0     H86206   2.169   7.617   5.507  0.2791  0.1115 -0.0388
  639MOL0     H86207   2.060   7.537   5.619  1.3313  0.9004  1.7064
  639MOL0     H86208   2.231   7.389   5.694  0.2703  0.6859  1.7045
  639MOL0     H86209   2.347   7.487   5.589  2.6103 -0.7813  2.9332
  639MOL0     H86210   2.275   7.684   5.760 -3.5059  0.0160  0.3891
  639MOL0     H86211   2.183   7.565   5.845 -0.3417 -1.4098 -0.7965
  639MOL0     H86212   2.379   7.433   5.923  4.9486  1.1683  4.1403
  639MOL0     H86213   2.475   7.514   5.798 -1.8059  0.3617 -1.0824
  639MOL0     H86214   2.466   7.730   5.940  1.5622 -0.7330  0.8659
  639MOL0     H86215   2.544   7.596   6.022 -0.5228  0.0728  0.3665
  639MOL0     H86216   2.174   7.714   6.013 -1.5328  1.0778  1.3173
  639MOL0     H86217   2.040   7.708   6.378 -1.4600 -0.7860 -0.7595
  639MOL0     H86218   1.978   7.777   6.247 -0.7451 -0.2278 -0.3995
  639MOL0     H86219   1.964   7.564   6.123  2.0969  4.5254  0.4840
  639MOL0     H86220   1.848   7.582   6.249  0.0678  2.4855 -2.0884
  639MOL0     H86221   2.025   7.436   6.402  1.7347  1.0094 -0.8741
  639MOL0     H86222   2.110   7.415   6.252  1.3326  0.6753  0.0904
  639MOL0     H86223   1.814   7.353   6.263  0.0739 -1.0421 -1.9869
  639MOL0     H86224   1.929   7.224   6.316  1.4412 -0.7455  0.2448
  639MOL0     H86225   1.702   7.204   6.217 -0.7578 -3.4372  4.6888
  639MOL0     H86226   1.484   7.076   6.219 -1.8832 -0.2112 -1.3282
  639MOL0     H86227   1.443   7.001   6.069 -0.8683  1.1926  0.6272
  639MOL0     H86228   1.516   6.896   6.191  0.0943 -1.6941 -1.8551
  639MOL0     H86229   1.849   6.554   5.796  0.9395 -1.6892  0.7120
  639MOL0     H86230   1.761   6.332   5.744  1.4187  1.5854  1.6385
  639MOL0     H86231   1.677   6.192   5.510 -0.2403 -2.1063 -0.8345
  639MOL0     H86232   1.662   6.115   5.672  1.2325  1.0939  0.5295
  639MOL0     H86233   1.436   6.134   5.469 -1.0625 -2.3259 -1.4816
  639MOL0     H86234   1.573   6.037   5.421 -2.3229  1.1319 -2.6040
  639MOL0     H86235   1.380   6.003   5.666  0.0305 -0.8485 -0.4119
  639MOL0     H86236   1.535   5.926   5.665 -0.4140 -1.3753 -0.8725
  639MOL0     H86237   1.299   5.896   5.476 -0.4375 -0.9256 -4.3070
  639MOL0     H86238   1.462   5.847   5.415  0.7877  0.7167  0.1688
  639MOL0     H86239   1.478   5.682   5.613  0.5057  0.8146  1.0565
  639MOL0     H86240   1.352   5.652   5.491 -1.0593  3.1863 -1.8700
  639MOL0     H86241   1.202   5.793   5.656  2.4967  2.3723 -2.0148
  639MOL0     H86242   1.245   5.624   5.671  0.7495 -0.8520 -0.4087
  639MOL0     H86243   1.267   5.797   5.880 -1.2556 -3.7137  1.4043
  639MOL0     H86244   1.430   5.807   5.820  1.1506 -1.9571 -1.1435
  639MOL0     H86245   1.405   5.638   5.992  1.5495 -0.6308 -0.4940
  639MOL0     H86246   1.441   5.546   5.848 -2.3042 -1.9875  0.9537
  639MOL0     H86247   1.377   6.480   5.642  0.6769 -1.9828 -0.0627
  639MOL0     H86248   1.437   6.696   5.736  0.9277  1.2921 -0.0289
  639MOL0     H86249   1.897   6.910   5.864  1.8726 -0.4710  2.2386
  639MOL0     H86250   2.018   7.077   5.941  0.9972 -2.8872  0.2848
  639MOL0     H86251   1.983   7.449   4.879  1.0235  1.8390  1.4217
  639MOL0     H86252   1.783   7.549   4.757 -1.6076 -2.7169 -0.3691
  639MOL0     H86253   1.198   7.466   4.898  0.6785  1.8801  1.6909
  639MOL0     H86254   0.995   7.542   4.776 -2.0748  2.9188 -1.7787
  639MOL0     H86255   0.955   7.870   4.435  0.1953  0.6189  0.5785
  639MOL0     H86256   1.094   7.749   4.433  1.3506  3.8809  0.7694
  639MOL0     H86257   0.792   7.677   4.440  0.4264  1.7977  1.1611
  639MOL0     H86258   0.941   7.573   4.428 -0.5779  0.5145  2.9119
  639MOL0     H86259   0.990   7.698   4.213  1.0827 -4.6449  2.5076
  639MOL0     H86260   0.860   7.802   4.251  2.4697  0.6091  0.2818
  639MOL0     H86261   0.769   7.675   4.082 -1.4301 -4.0027 -1.9802
  639MOL0     H86262   0.699   7.582   4.221 -1.3257 -0.8666 -1.2030
  639MOL0     H86263   0.949   7.317   4.031 -3.2349 -1.1483 -0.5343
  639MOL0     H86264   1.242   7.830   4.568 -1.6891  0.4109 -0.3647
  639MOL0     H86265   1.448   7.740   4.677 -0.2304  0.8337  2.2103
  640MOL0     O86266   2.026   4.280   1.439 -0.0512 -0.0329  0.1797
  640MOL0     C86267   2.039   4.199   1.533 -0.8320  1.0463  1.0241
  640MOL0     O86268   2.054   4.232   1.663  0.3978 -0.3536 -0.4303
  640MOL0     C86269   2.071   4.371   1.689  0.0351 -1.2566  0.8262
  640MOL0     C86270   1.970   4.439   1.751  0.8260  0.1658  1.1066
  640MOL0     C86271   1.995   4.572   1.792 -0.4337 -0.6378  0.1488
  640MOL0     C86272   2.121   4.634   1.789 -0.6438  0.4636 -0.5043
  640MOL0     O86273   2.148   4.759   1.840 -0.8305 -0.2525 -0.3157
  640MOL0     C86274   2.040   4.829   1.913 -0.3079 -0.5672 -0.6884
  640MOL0     C86275   2.114   4.953   1.972 -0.1945 -1.3159 -0.6444
  640MOL0     C86276   2.031   5.003   2.095  0.5960 -0.3627 -0.7085
  640MOL0     C86277   2.075   5.141   2.144  0.2853  0.0587  0.5363
  640MOL0     C86278   2.019   5.255   2.050  0.2841  0.4330 -0.3492
  640MOL0     C86279   2.081   5.391   2.100  1.0188  0.1111  0.7481
  640MOL0     C86280   2.006   5.516   2.043  0.7302  0.4184 -0.8761
  640MOL0     C86281   2.029   5.655   2.120 -0.0687 -0.8579  0.0313
  640MOL0     N86282   2.095   5.761   2.038  0.2981  0.1661  0.1533
  640MOL0     C86283   2.229   5.762   2.021  0.4776 -0.1410  0.5296
  640MOL0     C86284   2.251   5.892   1.993  0.0230  0.5003 -0.0618
  640MOL0     C86285   2.379   5.952   1.960 -1.4349  0.6082  0.7634
  640MOL0     C86286   2.463   5.983   2.076 -0.3563 -0.1351 -0.6386
  640MOL0     C86287   2.480   5.878   2.180 -0.1044 -0.7083  0.6819
  640MOL0     C86288   2.588   5.902   2.285 -0.1320  0.1988  0.2571
  640MOL0     O86289   2.594   5.784   2.360 -0.3424 -1.0711 -0.5062
  640MOL0     C86290   2.686   5.684   2.347  0.8236 -0.6075  1.0236
  640MOL0     C86291   2.677   5.567   2.424 -0.6919 -0.6257  0.1928
  640MOL0     C86292   2.767   5.464   2.401 -0.9303  0.5376  0.4667
  640MOL0     C86293   2.762   5.355   2.502  0.9980  0.6196 -0.3848
  640MOL0     C86294   2.862   5.463   2.294  0.9002  0.1577 -0.1541
  640MOL0     C86295   2.953   5.349   2.253  0.6455 -0.5162 -1.3005
  640MOL0     O86296   2.909   5.224   2.299  0.3346 -0.1909 -0.0460
  640MOL0     C86297   2.946   5.115   2.229 -0.6804  0.2635 -0.4238
  640MOL0     C86298   2.943   5.096   2.091  0.0864  0.0125 -0.5563
  640MOL0     C86299   2.988   4.979   2.034 -0.5408  0.2139 -0.6510
  640MOL0     C86300   3.056   4.876   2.107 -0.7531 -0.2827 -0.7927
  640MOL0     O86301   3.101   4.764   2.036  0.6068  0.3785 -0.4530
  640MOL0     C86302   3.163   4.654   2.103 -0.1049  0.5713 -0.5565
  640MOL0     C86303   3.226   4.564   1.993  0.4035 -0.4143 -1.1423
  640MOL0     C86304   3.124   4.522   1.890  1.4259 -0.1569 -0.1884
  640MOL0     C86305   3.192   4.405   1.813  0.5903  1.4677  0.2546
  640MOL0     C86306   3.075   4.368   1.718  1.2654 -0.7664  0.5100
  640MOL0     C86307   3.110   4.240   1.642 -0.6310 -0.4129 -0.7404
  640MOL0     C86308   3.182   4.266   1.511 -0.2641 -0.6533  0.5810
  640MOL0     C86309   3.187   4.142   1.424 -0.0467  0.3097 -0.7180
  640MOL0    Cl86310   3.036   4.143   1.332 -0.1282 -0.1313 -0.0786
  640MOL0     C86311   3.060   4.888   2.247  0.3044 -0.4572  0.2758
  640MOL0     C86312   2.993   5.000   2.301  0.1793  0.8979  0.4338
  640MOL0     O86313   3.052   5.365   2.172 -0.2321 -0.2386 -0.4098
  640MOL0     C86314   2.860   5.572   2.202  0.4717  0.4413 -0.2290
  640MOL0     C86315   2.780   5.687   2.233 -0.4690  0.4532 -0.6117
  640MOL0     N86316   2.138   5.958   1.992 -0.1799 -0.0143  0.7319
  640MOL0     N86317   2.043   5.892   2.035  1.5043 -0.1616  0.2439
  640MOL0     C86318   2.219   4.557   1.724 -0.3898  0.3723 -0.2888
  640MOL0     C86319   2.205   4.420   1.672  0.5859 -0.1668  0.3782
  640MOL0     C86320   2.024   4.053   1.509  0.5787  1.3482 -0.0780
  640MOL0     C86321   2.002   4.007   1.380  0.4586  0.6182  0.6093
  640MOL0     C86322   1.988   3.871   1.358 -0.3608 -0.0930 -0.1358
  640MOL0     C86323   2.010   3.771   1.455 -0.4034 -0.4788 -0.1011
  640MOL0     O86324   1.992   3.636   1.435 -0.9636  0.4851 -0.1988
  640MOL0     C86325   1.980   3.587   1.302 -0.0094 -0.0759 -0.3114
  640MOL0     C86326   1.954   3.431   1.319 -0.5846  0.0602  0.0007
  640MOL0     C86327   1.948   3.363   1.184  0.9544 -0.4496  1.4429
  640MOL0     C86328   1.888   3.436   1.059  0.1816  0.3315 -0.1878
  640MOL0     C86329   1.742   3.464   1.049 -0.7367 -0.0776 -0.9261
  640MOL0     C86330   1.626   3.497   1.033  0.1742 -0.5401 -0.1587
  640MOL0     C86331   2.029   3.821   1.584 -0.1121 -0.1215  0.3199
  640MOL0     C86332   2.037   3.957   1.616  0.7863  0.1328 -0.6123
  640MOL0     H86333   1.873   4.392   1.760  2.3432 -3.9171 -1.4180
  640MOL0     H86334   1.908   4.625   1.830  0.2929  1.4432 -0.9843
  640MOL0     H86335   1.949   4.855   1.858 -0.0018  2.8662  0.1547
  640MOL0     H86336   2.014   4.763   1.995  0.4359 -0.3736 -0.2816
  640MOL0     H86337   2.214   4.914   1.994 -0.2836 -1.4310 -0.4400
  640MOL0     H86338   2.125   5.033   1.899 -0.8412 -1.8437 -1.3386
  640MOL0     H86339   1.928   4.997   2.059  0.3697  2.4077 -0.6770
  640MOL0     H86340   2.028   4.928   2.175 -2.8547  2.9670  2.6826
  640MOL0     H86341   2.035   5.158   2.245 -0.5832  0.5833  0.1134
  640MOL0     H86342   2.183   5.148   2.158  0.3008  0.2384  0.3329
  640MOL0     H86343   2.053   5.241   1.947  3.2427 -0.2221  0.6170
  640MOL0     H86344   1.910   5.256   2.050  0.2591  0.2437  1.5755
  640MOL0     H86345   2.074   5.400   2.209 -0.3390  2.4510  0.5229
  640MOL0     H86346   2.187   5.391   2.072  1.1255  2.7966  0.8971
  640MOL0     H86347   2.042   5.522   1.940  0.9319  0.1494 -0.8204
  640MOL0     H86348   1.899   5.493   2.036  1.2911 -2.8288 -0.0906
  640MOL0     H86349   2.099   5.644   2.204  0.7828 -1.0047 -0.6797
  640MOL0     H86350   1.935   5.684   2.166 -1.2209 -2.2906 -1.3123
  640MOL0     H86351   2.308   5.688   2.016 -0.0629 -0.7237  0.5915
  640MOL0     H86352   2.450   5.903   1.893  2.5005 -0.1647  4.9838
  640MOL0     H86353   2.357   6.045   1.907 -1.1606 -0.6602 -1.7618
  640MOL0     H86354   2.415   6.063   2.132  2.0715 -0.9145  2.8742
  640MOL0     H86355   2.560   6.007   2.032  0.3977  0.1177  1.1115
  640MOL0     H86356   2.516   5.788   2.131  0.8280  0.5320 -1.0388
  640MOL0     H86357   2.391   5.848   2.236 -1.0963 -4.5733 -2.5402
  640MOL0     H86358   2.549   5.983   2.348 -0.5349  2.5194 -2.7245
  640MOL0     H86359   2.684   5.932   2.243 -0.8107 -0.0042 -1.5385
  640MOL0     H86360   2.602   5.560   2.502 -3.3847 -1.7458 -2.2888
  640MOL0     H86361   2.705   5.275   2.454 -2.9008  2.8338  0.1832
  640MOL0     H86362   2.863   5.323   2.530 -0.2794 -1.8482  1.8313
  640MOL0     H86363   2.703   5.384   2.589 -2.3061  0.8016 -2.5281
  640MOL0     H86364   2.903   5.179   2.033 -0.5165 -0.3273 -0.6371
  640MOL0     H86365   2.960   4.958   1.931  0.4428 -0.0317 -0.8815
  640MOL0     H86366   3.244   4.682   2.171 -1.6403 -1.2778  2.2324
  640MOL0     H86367   3.087   4.596   2.155  0.7812  1.6755  2.1451
  640MOL0     H86368   3.314   4.615   1.952  1.9161 -0.3823  1.8380
  640MOL0     H86369   3.262   4.475   2.045 -0.7731  0.5646  1.5389
  640MOL0     H86370   3.094   4.604   1.824 -2.0627 -1.2235 -0.1065
  640MOL0     H86371   3.031   4.482   1.933  1.8455 -2.6139 -1.4010
  640MOL0     H86372   3.281   4.441   1.761  0.3796 -1.0000 -2.0490
  640MOL0     H86373   3.224   4.320   1.873  1.3241 -0.0853 -2.1795
  640MOL0     H86374   3.046   4.441   1.643  4.2107 -0.1782 -0.1857
  640MOL0     H86375   2.983   4.340   1.771 -0.5148  1.4947 -1.1824
  640MOL0     H86376   3.174   4.185   1.711  0.0273  2.7180  1.3849
  640MOL0     H86377   3.024   4.173   1.633 -0.2121 -1.1833  0.6422
  640MOL0     H86378   3.280   4.314   1.518  0.6383 -1.9471 -2.0592
  640MOL0     H86379   3.126   4.343   1.457  2.3439 -0.5988 -2.3635
  640MOL0     H86380   3.187   4.045   1.475 -3.3748  0.6694  0.2074
  640MOL0     H86381   3.270   4.146   1.353 -1.0278  1.3535 -1.8455
  640MOL0     H86382   3.097   4.807   2.309 -1.0970 -0.4337  1.1958
  640MOL0     H86383   2.979   4.989   2.408  1.5378 -1.8464  0.4371
  640MOL0     H86384   2.931   5.564   2.120  1.4262 -2.8381  0.7764
  640MOL0     H86385   2.783   5.764   2.157 -1.6756 -1.4383 -2.6757
  640MOL0     H86386   2.313   4.605   1.698  1.0691 -2.2106 -0.1688
  640MOL0     H86387   2.280   4.358   1.625 -1.8208 -1.7679 -1.6117
  640MOL0     H86388   2.000   4.082   1.302  2.0458  0.8931  0.8017
  640MOL0     H86389   1.971   3.844   1.254 -1.1448 -1.3379  0.2867
  640MOL0     H86390   1.900   3.639   1.249  0.0177 -0.5375 -0.8170
  640MOL0     H86391   2.073   3.601   1.245 -0.9430 -2.2805 -2.6135
  640MOL0     H86392   1.857   3.421   1.369 -0.4446 -0.1302  0.2363
  640MOL0     H86393   2.017   3.379   1.393  2.5595  0.4706 -2.1853
  640MOL0     H86394   1.894   3.268   1.192 -0.5528 -0.7561 -5.8143
  640MOL0     H86395   2.052   3.339   1.161  0.6691  2.0181 -3.8497
  640MOL0     H86396   1.907   3.376   0.970  0.2707  1.2911 -0.8199
  640MOL0     H86397   1.941   3.530   1.049  0.7729 -0.1557 -1.8407
  640MOL0     H86398   1.530   3.529   0.998 -0.6040 -1.3807  1.1149
  640MOL0     H86399   2.048   3.743   1.657 -0.8508 -0.3493  0.2800
  640MOL0     H86400   2.062   3.980   1.719 -0.8556 -1.4693  0.1977
  641MOL0     O86401   2.626   7.745   3.405  0.0351  0.7400 -0.6277
  641MOL0     C86402   2.518   7.748   3.341  0.3667  0.4601  1.2410
  641MOL0     O86403   2.398   7.798   3.389  0.1152 -0.0215  0.0543
  641MOL0     C86404   2.394   7.840   3.519  0.4868 -0.6923 -0.2148
  641MOL0     C86405   2.337   7.762   3.625  0.9221 -0.5190 -1.0709
  641MOL0     C86406   2.329   7.817   3.755  1.0235  0.2513  0.3142
  641MOL0     C86407   2.392   7.944   3.785  0.4825 -0.4951 -0.3070
  641MOL0     O86408   2.396   7.991   3.911 -0.0119 -0.7634 -0.2850
  641MOL0     C86409   2.412   7.906   4.028  0.5358 -0.4577  0.5973
  641MOL0     C86410   2.518   7.797   4.021 -0.3029 -0.6917  0.2560
  641MOL0     C86411   2.647   7.848   3.966  0.5543  0.8642 -0.5543
  641MOL0     C86412   2.771   7.765   4.021 -1.1311 -0.1482  0.3974
  641MOL0     C86413   2.763   7.614   3.991 -0.3459  0.3008 -0.3414
  641MOL0     C86414   2.889   7.532   4.027  0.2673 -0.1073  0.1389
  641MOL0     C86415   2.866   7.384   4.004  0.1887  0.8049  0.1442
  641MOL0     C86416   2.998   7.309   4.033  0.4773 -0.3635 -1.2256
  641MOL0     N86417   3.027   7.304   4.175 -0.1219 -0.4301  0.1824
  641MOL0     C86418   3.148   7.336   4.223 -0.4792  0.0778 -0.4326
  641MOL0     C86419   3.135   7.336   4.360 -0.0877  0.1930  0.1206
  641MOL0     C86420   3.241   7.338   4.450  0.0541 -0.5146 -0.6553
  641MOL0     C86421   3.362   7.242   4.428 -0.4325 -0.3944  0.1496
  641MOL0     C86422   3.443   7.221   4.559  0.3309  0.5772 -0.4171
  641MOL0     C86423   3.551   7.121   4.544 -0.6568 -0.3569  0.1256
  641MOL0     O86424   3.497   6.985   4.501  0.2834 -0.4489  0.4387
  641MOL0     C86425   3.587   6.879   4.515 -1.5139  1.3754  0.8824
  641MOL0     C86426   3.529   6.748   4.518  0.2462 -0.6234 -0.7385
  641MOL0     C86427   3.611   6.628   4.510  0.5980  0.2300 -0.7325
  641MOL0     C86428   3.538   6.505   4.481  0.1450 -0.1693 -0.2262
  641MOL0     C86429   3.757   6.636   4.521  0.5493  0.0948 -0.5885
  641MOL0     C86430   3.860   6.523   4.505  0.7762 -0.0744 -0.8691
  641MOL0     O86431   3.810   6.399   4.514 -0.1226  0.6793  0.2611
  641MOL0     C86432   3.898   6.294   4.514 -0.2047  0.0693 -0.3135
  641MOL0     C86433   3.880   6.196   4.423 -0.2931 -0.5672 -0.3638
  641MOL0     C86434   3.967   6.086   4.414  0.0634 -0.2556 -0.4197
  641MOL0     C86435   4.071   6.086   4.506  0.6085  0.0027 -0.1133
  641MOL0     O86436   4.163   5.983   4.490 -0.3474 -0.1952 -1.2486
  641MOL0     C86437   4.296   6.022   4.449 -0.2197 -0.0828 -0.3400
  641MOL0     C86438   4.298   6.033   4.298 -0.3796 -0.5683  0.5129
  641MOL0     C86439   4.214   6.145   4.223  0.3214  0.0433 -0.6634
  641MOL0     C86440   4.119   6.076   4.120  0.6296  0.7482  0.3888
  641MOL0     C86441   4.183   6.043   3.992 -0.7758 -0.7106 -0.2064
  641MOL0     C86442   4.083   5.973   3.898 -0.0688 -0.5292 -0.1503
  641MOL0     C86443   4.140   5.938   3.754 -0.1087 -0.0219  0.4639
  641MOL0     C86444   4.041   5.913   3.644 -0.3430  0.0523  0.2046
  641MOL0    Cl86445   3.936   5.790   3.701 -0.0376  0.5010 -0.1759
  641MOL0     C86446   4.095   6.184   4.608  0.1098 -0.3967  0.4387
  641MOL0     C86447   4.001   6.291   4.614 -0.9236  0.2614  0.1702
  641MOL0     O86448   3.974   6.555   4.480 -0.0793  0.1769  0.0142
  641MOL0     C86449   3.809   6.764   4.530 -0.1287 -0.1524  0.2735
  641MOL0     C86450   3.731   6.883   4.515 -0.0819  0.2294 -0.3378
  641MOL0     N86451   3.018   7.292   4.394 -0.1076  0.1761  0.2525
  641MOL0     N86452   2.946   7.275   4.283 -0.5472 -0.6712 -0.0696
  641MOL0     C86453   2.451   8.013   3.680  0.0570  0.7429  0.0615
  641MOL0     C86454   2.455   7.959   3.552  0.3770 -0.0904  0.6067
  641MOL0     C86455   2.516   7.694   3.204 -0.1918  0.4905  0.2580
  641MOL0     C86456   2.396   7.682   3.127  0.0121 -0.1957 -0.1344
  641MOL0     C86457   2.410   7.636   2.992  0.6358 -1.1985  0.7195
  641MOL0     C86458   2.534   7.602   2.936 -0.2216 -0.9321  0.1613
  641MOL0     O86459   2.530   7.583   2.805  0.1055  0.1662 -0.5049
  641MOL0     C86460   2.645   7.627   2.719 -0.0288 -0.5011 -0.7050
  641MOL0     C86461   2.599   7.656   2.579  0.1334  0.5793  0.2832
  641MOL0     C86462   2.532   7.787   2.565  0.5559  0.0493  0.5063
  641MOL0     C86463   2.403   7.781   2.482  0.4135  0.9456  0.4005
  641MOL0     C86464   2.431   7.754   2.346  0.2607 -0.1894  0.4645
  641MOL0     C86465   2.438   7.736   2.222 -0.4398  0.2790  1.0369
  641MOL0     C86466   2.649   7.601   3.017 -0.2724  0.7470  0.4876
  641MOL0     C86467   2.643   7.652   3.143 -0.0227  0.2547  0.0094
  641MOL0     H86468   2.296   7.667   3.594  0.1131 -1.5232  2.5705
  641MOL0     H86469   2.287   7.775   3.846  1.7017  2.9758  2.0040
  641MOL0     H86470   2.422   7.970   4.116 -1.1543 -1.5167  1.6105
  641MOL0     H86471   2.315   7.855   4.029  1.0186 -1.4018  0.0229
  641MOL0     H86472   2.552   7.769   4.121  0.6203 -1.2165 -0.1890
  641MOL0     H86473   2.481   7.708   3.970  2.3326 -0.6120 -2.0380
  641MOL0     H86474   2.655   7.854   3.857  0.8593  3.0162 -0.4623
  641MOL0     H86475   2.659   7.948   4.009  2.3199 -0.1252  1.4757
  641MOL0     H86476   2.853   7.817   3.971  0.3949  0.5795  3.4113
  641MOL0     H86477   2.793   7.779   4.127 -0.3729  1.4858  0.0497
  641MOL0     H86478   2.688   7.578   4.062 -0.7681  1.1933 -0.3286
  641MOL0     H86479   2.740   7.599   3.885  0.9653  0.9910 -0.7537
  641MOL0     H86480   2.970   7.581   3.972  0.3287 -1.2018 -0.7670
  641MOL0     H86481   2.924   7.555   4.128  1.1325 -1.8736  0.2784
  641MOL0     H86482   2.784   7.362   4.073 -1.0696  2.5558 -0.7338
  641MOL0     H86483   2.836   7.361   3.901 -0.0679 -1.4648  0.6572
  641MOL0     H86484   3.077   7.371   3.988  0.3694 -0.1670 -1.1481
  641MOL0     H86485   2.994   7.206   3.996  2.5388 -0.5421 -1.0651
  641MOL0     H86486   3.236   7.368   4.168 -0.1790 -1.0956 -0.6570
  641MOL0     H86487   3.284   7.439   4.450  0.5822 -0.7272 -0.0398
  641MOL0     H86488   3.204   7.323   4.552  1.9535 -1.5125 -0.0619
  641MOL0     H86489   3.434   7.276   4.352 -0.9351 -0.3460 -0.3051
  641MOL0     H86490   3.325   7.147   4.388 -1.2017 -2.0041  4.2530
  641MOL0     H86491   3.372   7.187   4.635 -0.2225 -2.1857 -2.0206
  641MOL0     H86492   3.496   7.314   4.581  1.5326 -0.4010  0.9998
  641MOL0     H86493   3.606   7.111   4.638  0.7429  1.4198 -0.4577
  641MOL0     H86494   3.615   7.166   4.468 -2.8617 -0.7613 -2.1218
  641MOL0     H86495   3.421   6.742   4.510 -0.1453  2.8449  0.2192
  641MOL0     H86496   3.585   6.448   4.400  0.8565  2.1575 -1.5466
  641MOL0     H86497   3.522   6.442   4.569  2.0884 -0.4823 -0.0342
  641MOL0     H86498   3.439   6.519   4.438  0.4192 -1.4735 -1.3606
  641MOL0     H86499   3.801   6.213   4.352 -0.3859  0.6891  0.0249
  641MOL0     H86500   3.966   6.000   4.347 -1.9400  0.1704 -1.0047
  641MOL0     H86501   4.329   6.112   4.503 -2.0436 -0.4801  1.5545
  641MOL0     H86502   4.365   5.948   4.490  1.7491  0.8177 -1.8517
  641MOL0     H86503   4.399   6.068   4.275 -1.3453  2.2941  0.3688
  641MOL0     H86504   4.275   5.935   4.255 -2.1878  0.4452 -0.9299
  641MOL0     H86505   4.279   6.226   4.188  0.1320  0.5391  0.1071
  641MOL0     H86506   4.159   6.204   4.298  1.7040 -0.7301  1.0338
  641MOL0     H86507   4.091   5.980   4.165  2.6678  0.0674  0.2763
  641MOL0     H86508   4.023   6.126   4.102  0.1635 -0.6950 -1.5331
  641MOL0     H86509   4.265   5.970   3.992  0.4580  0.5641 -2.6048
  641MOL0     H86510   4.221   6.130   3.938  0.9751 -0.2254  1.6726
  641MOL0     H86511   4.036   5.884   3.942 -1.9295  0.2570 -0.4682
  641MOL0     H86512   4.001   6.044   3.885  0.6444  0.6827  1.6325
  641MOL0     H86513   4.209   5.853   3.758 -0.9154 -0.6643  1.1746
  641MOL0     H86514   4.192   6.027   3.718 -2.7070  2.2983  2.0509
  641MOL0     H86515   4.097   5.884   3.554  0.9098  2.7351  0.0270
  641MOL0     H86516   3.992   6.007   3.617  0.8021 -0.0094 -2.3619
  641MOL0     H86517   4.157   6.177   4.698 -2.8118 -1.1571  2.5428
  641MOL0     H86518   4.018   6.365   4.692  1.7664  1.0615 -1.0384
  641MOL0     H86519   3.917   6.775   4.538 -0.1649  0.4295 -0.0117
  641MOL0     H86520   3.784   6.977   4.509 -1.1923  1.0476  1.7115
  641MOL0     H86521   2.497   8.111   3.687  3.8354  0.0021 -6.2404
  641MOL0     H86522   2.480   8.028   3.472  1.7389  3.4318  3.7410
  641MOL0     H86523   2.298   7.694   3.172  0.5514  1.3288  0.6900
  641MOL0     H86524   2.322   7.629   2.927  0.2904 -0.1821  1.0716
  641MOL0     H86525   2.690   7.713   2.770  1.8577 -1.1227 -1.2260
  641MOL0     H86526   2.719   7.547   2.712  1.6795  0.5535  2.8739
  641MOL0     H86527   2.521   7.583   2.554 -0.9085  2.2237 -1.5087
  641MOL0     H86528   2.685   7.655   2.511 -0.3023 -0.2124 -0.2724
  641MOL0     H86529   2.592   7.867   2.522 -0.5573  1.4123  1.4141
  641MOL0     H86530   2.505   7.822   2.666  0.0846 -1.4695  0.9358
  641MOL0     H86531   2.354   7.878   2.494 -0.3670  0.4269  1.7110
  641MOL0     H86532   2.343   7.703   2.530  0.5487  0.0902 -0.7869
  641MOL0     H86533   2.453   7.745   2.116 -0.4558  3.2185  1.1860
  641MOL0     H86534   2.746   7.570   2.979 -1.2716 -3.4727  0.8723
  641MOL0     H86535   2.729   7.647   3.210 -0.2058 -2.3443  0.1762
  642MOL0     O86536   3.824   3.207   8.962  0.2864  0.4724 -0.6108
  642MOL0     C86537   3.801   3.330   8.986 -0.5220  0.7728  0.7001
  642MOL0     O86538   3.851   3.403   9.083  0.4473 -0.1559 -0.8926
  642MOL0     C86539   3.924   3.345   9.178 -0.8152 -0.4552 -0.2935
  642MOL0     C86540   3.905   3.394   9.306 -0.0258 -0.8767  0.6708
  642MOL0     C86541   3.983   3.363   9.414 -0.0630 -0.6580  0.4106
  642MOL0     C86542   4.099   3.292   9.398  0.3959  0.2256  0.2941
  642MOL0     O86543   4.173   3.274   9.506 -1.2728  0.4705  0.1087
  642MOL0     C86544   4.212   3.140   9.528  0.1530  0.3083  0.0543
  642MOL0     C86545   4.086   3.046   9.555 -0.0294 -0.0685 -0.2898
  642MOL0     C86546   4.001   3.076   9.678  0.8208  0.2176 -0.4255
  642MOL0     C86547   4.082   3.092   9.804  0.0064  0.6969 -0.4225
  642MOL0     C86548   3.997   3.085   9.925  1.0970 -0.3191  0.4890
  642MOL0     C86549   4.073   3.120  10.049 -0.3116 -0.1318  0.3137
  642MOL0     C86550   4.169   3.015  10.096 -0.3013  0.4788  0.1455
  642MOL0     C86551   4.104   2.876  10.119  0.0744  0.4736 -0.6653
  642MOL0     N86552   4.197   2.801  10.210 -0.9117 -0.7268  0.9103
  642MOL0     C86553   4.183   2.781  10.343  0.3863 -0.2416  0.8795
  642MOL0     C86554   4.277   2.689  10.375 -0.4796  0.0059  0.1942
  642MOL0     C86555   4.306   2.658  10.521  0.2910 -0.1509  0.5498
  642MOL0     C86556   4.380   2.522  10.541 -0.7393 -0.6207  0.4386
  642MOL0     C86557   4.428   2.543  10.690  0.8283 -0.2652 -0.5231
  642MOL0     C86558   4.501   2.413  10.736 -0.5798  0.7102  0.1454
  642MOL0     O86559   4.595   2.384  10.628 -0.4420 -0.5774  0.5123
  642MOL0     C86560   4.730   2.400  10.647  0.6227  0.0250  1.6414
  642MOL0     C86561   4.793   2.340  10.754 -0.3332 -0.2523  0.6532
  642MOL0     C86562   4.932   2.331  10.777 -0.3371 -0.5005 -0.2990
  642MOL0     C86563   4.966   2.247  10.900 -0.3045  0.5283  1.4721
  642MOL0     C86564   5.016   2.389  10.677  0.1929  0.6520 -0.4532
  642MOL0     C86565   5.162   2.388  10.684  0.4173 -0.8766 -0.2240
  642MOL0     O86566   5.230   2.472  10.601  0.5997  0.0736  0.0618
  642MOL0     C86567   5.365   2.455  10.592 -1.1614  0.9459  0.9195
  642MOL0     C86568   5.424   2.328  10.569 -0.3146  0.0639 -0.5745
  642MOL0     C86569   5.560   2.321  10.581  0.5851  0.3852  0.5406
  642MOL0     C86570   5.636   2.434  10.603  0.4502 -0.1156 -0.3674
  642MOL0     O86571   5.770   2.416  10.600 -0.6412  0.5113  0.7320
  642MOL0     C86572   5.840   2.489  10.704 -0.4401 -0.4215  0.1437
  642MOL0     C86573   5.969   2.427  10.732  0.3899  0.2361  0.1706
  642MOL0     C86574   6.057   2.507  10.815  0.4360 -0.0589 -0.3849
  642MOL0     C86575   5.985   2.530  10.948 -0.3837 -0.0241  1.0491
  642MOL0     C86576   6.073   2.583  11.059 -0.1115 -0.0729  0.1613
  642MOL0     C86577   6.150   2.703  11.016 -0.0858 -0.0725 -0.2933
  642MOL0     C86578   6.215   2.780  11.130 -0.4441  0.2661  0.3540
  642MOL0     C86579   6.259   2.918  11.097 -0.3321  0.7159 -0.7344
  642MOL0    Cl86580   6.137   3.037  11.062 -0.9435  0.0310  0.0583
  642MOL0     C86581   5.577   2.559  10.604  0.7172 -0.1924  0.4232
  642MOL0     C86582   5.445   2.575  10.597 -0.0357  0.3882  0.6626
  642MOL0     O86583   5.214   2.321  10.769  0.8686 -0.6205  0.4948
  642MOL0     C86584   4.955   2.445  10.561 -0.4411  0.9280  0.0840
  642MOL0     C86585   4.815   2.448  10.547  0.3890 -0.0936  0.0280
  642MOL0     N86586   4.353   2.653  10.255  0.1133  0.5212  0.0331
  642MOL0     N86587   4.295   2.724  10.162  0.0434 -0.3296  0.4531
  642MOL0     C86588   4.130   3.244   9.263  0.2625 -0.2953 -0.0283
  642MOL0     C86589   4.043   3.282   9.157 -0.6242  0.1865  0.1718
  642MOL0     C86590   3.737   3.395   8.868  0.7183 -0.0971  0.1177
  642MOL0     C86591   3.659   3.316   8.781  0.4239 -0.0367  0.7113
  642MOL0     C86592   3.578   3.378   8.683 -0.2190  0.5643 -1.0826
  642MOL0     C86593   3.570   3.512   8.672  0.2640  0.1106 -0.0617
  642MOL0     O86594   3.491   3.587   8.585 -1.2581 -0.1513 -0.1098
  642MOL0     C86595   3.359   3.542   8.581 -0.6207 -0.7259  0.2996
  642MOL0     C86596   3.273   3.662   8.598 -0.3031 -0.2553 -0.4350
  642MOL0     C86597   3.291   3.756   8.467 -0.3185  0.3751 -0.0333
  642MOL0     C86598   3.162   3.848   8.467  0.7950 -0.1905 -0.3468
  642MOL0     C86599   3.163   3.951   8.367 -0.6774 -0.5850  0.7361
  642MOL0     C86600   3.164   4.026   8.266  0.0546  0.2299 -0.4687
  642MOL0     C86601   3.662   3.586   8.751  1.6623  0.4449  0.4124
  642MOL0     C86602   3.743   3.530   8.853 -0.2429  0.7867 -1.0853
  642MOL0     H86603   3.813   3.451   9.313  0.7888  0.6242 -0.3102
  642MOL0     H86604   3.950   3.396   9.512 -0.5895 -0.1119  0.0561
  642MOL0     H86605   4.284   3.110   9.452 -0.1290 -1.0508  0.3014
  642MOL0     H86606   4.276   3.131   9.616  1.6217  1.7652 -0.8029
  642MOL0     H86607   4.021   3.057   9.467 -0.6268 -3.5933 -0.4179
  642MOL0     H86608   4.116   2.941   9.562  2.4755  0.6774  1.2437
  642MOL0     H86609   3.933   3.157   9.647 -1.0316 -1.0440  0.1645
  642MOL0     H86610   3.934   2.990   9.682  0.5949  0.3014 -1.8729
  642MOL0     H86611   4.155   3.011   9.819 -0.1025  0.8541  1.1936
  642MOL0     H86612   4.139   3.185   9.797  1.7253 -0.3056 -0.3877
  642MOL0     H86613   3.925   3.163   9.899  2.3477 -0.2340 -3.5083
  642MOL0     H86614   3.946   2.988   9.929  2.1931 -1.1032 -2.1121
  642MOL0     H86615   4.120   3.217  10.035 -0.8576 -0.1130 -1.6817
  642MOL0     H86616   3.999   3.137  10.128  0.8147  1.8384  1.0143
  642MOL0     H86617   4.255   3.004  10.029  0.0141 -1.1162  0.7664
  642MOL0     H86618   4.214   3.047  10.191 -0.3310 -1.4178  0.8450
  642MOL0     H86619   4.104   2.814  10.029  2.0753 -1.2367  0.4111
  642MOL0     H86620   4.004   2.897  10.158  0.1257  2.1839 -1.3984
  642MOL0     H86621   4.123   2.832  10.417  1.3503 -0.0318  1.5407
  642MOL0     H86622   4.362   2.739  10.568  0.1028 -0.1003  0.6899
  642MOL0     H86623   4.214   2.652  10.581  1.9685  3.3333  3.9444
  642MOL0     H86624   4.466   2.506  10.474 -1.5316 -1.3243 -0.4311
  642MOL0     H86625   4.310   2.440  10.527 -1.7253  0.3631 -0.6458
  642MOL0     H86626   4.340   2.566  10.750  2.2274 -1.4395  2.1984
  642MOL0     H86627   4.503   2.622  10.703 -1.0760  1.4484  0.6443
  642MOL0     H86628   4.425   2.335  10.744  1.2884 -1.3309 -0.8564
  642MOL0     H86629   4.545   2.421  10.836  0.4215 -0.3072 -0.1843
  642MOL0     H86630   4.726   2.290  10.824 -1.8029  1.7016  0.7118
  642MOL0     H86631   5.041   2.173  10.870  4.1302  3.6642  3.7385
  642MOL0     H86632   5.022   2.298  10.979  4.2958 -2.8319  0.8215
  642MOL0     H86633   4.879   2.190  10.936 -0.1367 -1.3793 -0.8882
  642MOL0     H86634   5.359   2.246  10.542  1.2220 -0.5674 -2.6798
  642MOL0     H86635   5.612   2.228  10.560 -1.8391 -0.7816 -0.7373
  642MOL0     H86636   5.863   2.592  10.676  2.7074 -1.4648 -1.6111
  642MOL0     H86637   5.779   2.486  10.795 -0.3280 -1.5526  0.1937
  642MOL0     H86638   5.938   2.335  10.783 -1.1470  0.7017  0.1136
  642MOL0     H86639   6.004   2.401  10.631 -0.0348 -3.3735  0.7888
  642MOL0     H86640   6.076   2.604  10.769 -1.5692  0.2882 -0.5424
  642MOL0     H86641   6.150   2.454  10.840  2.1805  3.3922  1.0673
  642MOL0     H86642   5.903   2.601  10.932 -0.1494 -0.0421 -0.3581
  642MOL0     H86643   5.943   2.436  10.984 -0.0332 -0.7748 -0.4282
  642MOL0     H86644   6.141   2.499  11.078 -1.9557 -1.6343  0.1426
  642MOL0     H86645   6.019   2.613  11.149  1.4647 -2.6623  2.1372
  642MOL0     H86646   6.228   2.681  10.943  1.0809  2.1518  0.2063
  642MOL0     H86647   6.076   2.769  10.972 -1.9931 -2.7406 -1.3408
  642MOL0     H86648   6.308   2.726  11.153 -0.2584 -0.7967 -2.5425
  642MOL0     H86649   6.142   2.793  11.211 -3.7800 -1.0220 -2.2362
  642MOL0     H86650   6.321   2.915  11.007 -0.3934  0.2096 -0.7625
  642MOL0     H86651   6.333   2.949  11.171 -0.1914  1.5695 -1.2159
  642MOL0     H86652   5.634   2.651  10.610 -1.3221  1.0979  1.2567
  642MOL0     H86653   5.406   2.674  10.618 -1.2624  0.4478 -1.5838
  642MOL0     H86654   5.007   2.501  10.484  1.4990  0.6570  1.1532
  642MOL0     H86655   4.772   2.487  10.455  0.1511  4.6952  1.8958
  642MOL0     H86656   4.226   3.202   9.238  0.5476 -0.3156  1.0432
  642MOL0     H86657   4.067   3.240   9.060 -1.3432 -0.9165  0.4488
  642MOL0     H86658   3.664   3.208   8.791  1.8769  0.2647  4.5282
  642MOL0     H86659   3.515   3.315   8.621 -0.2301 -1.9852  1.3492
  642MOL0     H86660   3.338   3.489   8.488  1.0608 -3.8995  1.5919
  642MOL0     H86661   3.329   3.477   8.664 -1.5968  0.1601  0.6740
  642MOL0     H86662   3.296   3.724   8.685  1.3430  1.2615 -1.8608
  642MOL0     H86663   3.167   3.637   8.610 -0.5642  1.2465  0.5341
  642MOL0     H86664   3.293   3.707   8.370 -0.1983 -2.6008  1.3500
  642MOL0     H86665   3.387   3.805   8.484 -0.0261  0.2241 -1.1970
  642MOL0     H86666   3.146   3.882   8.570 -0.3811 -2.4315  0.2842
  642MOL0     H86667   3.085   3.776   8.441  0.2845  0.1868  0.0942
  642MOL0     H86668   3.163   4.092   8.182  2.6444 -0.9270 -1.5111
  642MOL0     H86669   3.655   3.694   8.743  2.8100  0.5000 -0.0845
  642MOL0     H86670   3.798   3.593   8.922 -0.5330 -0.4740  0.3648
  643MOL0     O86671   3.889   7.150   1.273 -1.1827 -0.0399 -0.5228
  643MOL0     C86672   3.893   7.254   1.202  0.1345  0.6037 -0.9943
  643MOL0     O86673   3.894   7.261   1.062 -0.3821  0.2022 -0.0576
  643MOL0     C86674   3.884   7.141   0.990  0.4452  0.0571  0.0506
  643MOL0     C86675   3.945   7.135   0.861 -0.2314  0.3459  0.3428
  643MOL0     C86676   3.921   7.017   0.771  0.3290  0.1615  0.4540
  643MOL0     C86677   3.838   6.911   0.821 -0.5632 -0.1801  0.3961
  643MOL0     O86678   3.814   6.789   0.760  0.2475 -0.5937 -0.3837
  643MOL0     C86679   3.861   6.760   0.631 -0.2746  0.4421  0.3748
  643MOL0     C86680   3.781   6.829   0.519 -0.3524 -0.2679 -0.3432
  643MOL0     C86681   3.622   6.824   0.540  0.4922  0.1963 -0.2617
  643MOL0     C86682   3.553   6.683   0.529  0.0333  0.3631  1.1626
  643MOL0     C86683   3.396   6.699   0.525 -0.7185 -0.2062 -0.0018
  643MOL0     C86684   3.322   6.564   0.559 -0.4564 -0.7982  1.0633
  643MOL0     C86685   3.317   6.551   0.712  0.0980 -0.3017 -0.1007
  643MOL0     C86686   3.179   6.592   0.761  0.1709  0.0470  0.4553
  643MOL0     N86687   3.077   6.501   0.728 -0.6602  0.2311  0.2503
  643MOL0     C86688   2.954   6.539   0.673 -0.6190 -0.9056 -0.3375
  643MOL0     C86689   2.880   6.425   0.672  0.5022 -0.3714 -0.8408
  643MOL0     C86690   2.737   6.403   0.615  0.3294 -0.0622  0.5046
  643MOL0     C86691   2.718   6.259   0.566  0.6646  0.8584 -0.7381
  643MOL0     C86692   2.583   6.246   0.477 -0.8221 -0.0933 -0.5360
  643MOL0     C86693   2.455   6.278   0.552 -0.3565  0.2155 -1.1169
  643MOL0     O86694   2.444   6.420   0.581  0.2551 -0.1176  0.4138
  643MOL0     C86695   2.352   6.492   0.504 -0.7886 -0.2137 -0.2806
  643MOL0     C86696   2.278   6.585   0.569 -0.7236 -0.2686  0.1743
  643MOL0     C86697   2.163   6.651   0.522  0.1440 -0.3860  0.2168
  643MOL0     C86698   2.102   6.750   0.627  0.9192  0.1442 -0.5656
  643MOL0     C86699   2.126   6.624   0.386  0.6111  0.2187  0.7890
  643MOL0     C86700   2.024   6.701   0.310 -0.5281  0.3490  0.5628
  643MOL0     O86701   2.022   6.688   0.169  0.5135 -0.3403  0.0035
  643MOL0     C86702   1.923   6.758   0.101  0.0961 -0.1147 -0.6409
  643MOL0     C86703   1.788   6.735   0.119 -0.5334  0.2684  0.2390
  643MOL0     C86704   1.695   6.772   0.018  0.0959 -0.4280  0.4777
  643MOL0     C86705   1.739   6.869  -0.076  0.6852  1.0679 -0.5882
  643MOL0     O86706   1.668   6.927  -0.171 -0.0339 -1.0078 -0.5375
  643MOL0     C86707   1.530   6.898  -0.202  1.3476  0.0865 -0.9990
  643MOL0     C86708   1.470   7.009  -0.282 -0.1997 -0.4111  0.5604
  643MOL0     C86709   1.312   6.998  -0.288  0.9041 -0.0323  1.1217
  643MOL0     C86710   1.250   7.054  -0.425  0.0006  0.6001 -0.2319
  643MOL0     C86711   1.105   7.030  -0.439  0.3910  0.9000  0.3371
  643MOL0     C86712   1.067   7.046  -0.578  0.2178  0.9201 -0.5681
  643MOL0     C86713   0.919   7.024  -0.594 -0.6667 -0.4419 -0.7110
  643MOL0     C86714   0.875   7.034  -0.740  0.6532 -0.1605 -0.0361
  643MOL0    Cl86715   0.904   7.201  -0.782  0.3158 -0.1550 -0.1161
  643MOL0     C86716   1.866   6.909  -0.077 -0.6534 -0.3574 -0.1066
  643MOL0     C86717   1.966   6.849   0.008 -0.3937 -0.2363 -0.3341
  643MOL0     O86718   1.945   6.776   0.370 -0.4241 -0.5712  0.0857
  643MOL0     C86719   2.206   6.526   0.310 -0.4200 -0.7974  0.2539
  643MOL0     C86720   2.320   6.471   0.364 -0.2956  0.3197 -0.8588
  643MOL0     N86721   2.966   6.326   0.717 -0.4701  0.1880 -0.0599
  643MOL0     N86722   3.071   6.376   0.770  0.2332 -0.1011 -0.3424
  643MOL0     C86723   3.788   6.921   0.956 -0.3884  0.4382  0.6331
  643MOL0     C86724   3.794   7.036   1.024  0.2573  0.1940  0.1601
  643MOL0     C86725   3.918   7.379   1.275 -0.1376 -0.2020  0.0050
  643MOL0     C86726   3.843   7.399   1.393 -0.0560  0.2588 -0.0385
  643MOL0     C86727   3.862   7.511   1.468  0.1269  0.0470 -0.4699
  643MOL0     C86728   3.944   7.611   1.423 -0.3637  0.3996  0.0270
  643MOL0     O86729   3.990   7.720   1.499  0.1642  0.1904 -0.0307
  643MOL0     C86730   3.986   7.699   1.648 -0.0435  0.3058  0.2058
  643MOL0     C86731   4.089   7.598   1.705  0.5971  0.7946 -1.0644
  643MOL0     C86732   4.230   7.623   1.659 -0.2986 -0.9184  0.2499
  643MOL0     C86733   4.319   7.526   1.743 -0.0524  0.2807  0.1275
  643MOL0     C86734   4.453   7.552   1.701  0.2232  0.6162 -0.9522
  643MOL0     C86735   4.566   7.550   1.653 -0.4001  0.7491  0.0783
  643MOL0     C86736   4.004   7.601   1.297  0.0806 -0.5825 -0.0934
  643MOL0     C86737   3.999   7.484   1.229  0.0585  0.7647  0.2280
  643MOL0     H86738   4.001   7.223   0.832 -0.3402  0.5716  0.8140
  643MOL0     H86739   3.969   7.019   0.674  3.0822 -0.0885  1.7143
  643MOL0     H86740   3.969   6.770   0.619 -0.5014  1.8152 -0.6279
  643MOL0     H86741   3.840   6.653   0.620 -0.2550  0.3880  0.8208
  643MOL0     H86742   3.819   6.930   0.498 -1.5264 -0.4751 -4.2316
  643MOL0     H86743   3.804   6.771   0.430  1.2438 -1.9619  1.1142
  643MOL0     H86744   3.596   6.866   0.637 -0.2315 -2.3298  0.7204
  643MOL0     H86745   3.579   6.894   0.468  2.1361 -0.1020 -1.6220
  643MOL0     H86746   3.582   6.629   0.438 -1.1688  0.1597  0.8851
  643MOL0     H86747   3.584   6.618   0.612  2.4213 -0.7223 -0.4588
  643MOL0     H86748   3.366   6.782   0.590  3.1593  1.0594  0.4362
  643MOL0     H86749   3.364   6.735   0.427 -0.0593  2.2444  0.6179
  643MOL0     H86750   3.228   6.560   0.504 -0.0479 -1.8475  0.4177
  643MOL0     H86751   3.381   6.476   0.531  1.5257  0.6394  0.4829
  643MOL0     H86752   3.344   6.447   0.735  1.4868 -0.4911 -2.3307
  643MOL0     H86753   3.375   6.628   0.764 -3.6193  1.3307  2.0421
  643MOL0     H86754   3.149   6.687   0.716  1.1082 -0.0025 -0.3107
  643MOL0     H86755   3.181   6.609   0.869 -0.4645 -0.6859  0.5967
  643MOL0     H86756   2.940   6.641   0.638 -0.7074 -0.6386  0.4633
  643MOL0     H86757   2.664   6.420   0.694 -0.6375 -0.1850 -0.3542
  643MOL0     H86758   2.708   6.466   0.531 -2.1718  0.5846  1.7790
  643MOL0     H86759   2.724   6.190   0.650 -2.1109  1.3873 -0.0004
  643MOL0     H86760   2.800   6.227   0.502  1.0745  0.4756 -0.0238
  643MOL0     H86761   2.579   6.136   0.473  1.0083 -0.4449  3.0917
  643MOL0     H86762   2.598   6.284   0.376  2.0302 -2.6177 -1.2500
  643MOL0     H86763   2.452   6.240   0.654 -0.4054  0.3652 -1.0620
  643MOL0     H86764   2.371   6.245   0.490 -1.5619 -1.9468  1.4964
  643MOL0     H86765   2.307   6.605   0.672 -2.8593 -0.9854  0.9686
  643MOL0     H86766   2.141   6.731   0.727  1.9510 -1.3371 -1.2087
  643MOL0     H86767   2.126   6.854   0.599  0.9664  0.2776 -0.0346
  643MOL0     H86768   1.994   6.739   0.615  1.3513 -3.5985 -2.1065
  643MOL0     H86769   1.752   6.676   0.203 -3.5641 -0.9976 -1.7600
  643MOL0     H86770   1.592   6.737   0.018  0.4486 -1.9835 -3.3558
  643MOL0     H86771   1.513   6.813  -0.269 -2.6051 -0.1208  0.0263
  643MOL0     H86772   1.466   6.885  -0.114  1.8670  0.1068 -0.6159
  643MOL0     H86773   1.497   7.102  -0.231 -0.0280  1.2213 -2.2982
  643MOL0     H86774   1.506   7.016  -0.385  1.0053 -2.2144  0.8148
  643MOL0     H86775   1.263   7.045  -0.202 -0.0515  1.9490 -0.4133
  643MOL0     H86776   1.296   6.890  -0.281 -1.1379  0.1470 -0.0290
  643MOL0     H86777   1.270   7.161  -0.417  1.4238  0.4740 -1.5581
  643MOL0     H86778   1.304   7.010  -0.509  0.6895 -1.4820  1.2172
  643MOL0     H86779   1.043   7.095  -0.377  0.0169 -1.7247  2.9398
  643MOL0     H86780   1.088   6.928  -0.403 -3.0388  1.3981  0.3908
  643MOL0     H86781   1.099   7.147  -0.604  1.2668  0.7354 -0.0300
  643MOL0     H86782   1.116   6.964  -0.631  0.0234 -1.6703  2.9181
  643MOL0     H86783   0.865   7.102  -0.539 -2.6061 -1.1370 -1.5517
  643MOL0     H86784   0.887   6.931  -0.547  0.0147 -0.4656 -0.2872
  643MOL0     H86785   0.769   7.009  -0.755  0.9439  0.3349 -3.7432
  643MOL0     H86786   0.918   6.961  -0.809  0.2192 -1.1799  0.7421
  643MOL0     H86787   1.903   6.976  -0.153 -1.3202 -0.7551 -0.7912
  643MOL0     H86788   2.069   6.880  -0.002 -0.3570 -0.9544 -3.5201
  643MOL0     H86789   2.180   6.507   0.207  2.7870 -0.6467 -0.6909
  643MOL0     H86790   2.386   6.396   0.321  1.4201  1.6819 -0.6886
  643MOL0     H86791   3.736   6.827   0.975 -2.3717  0.6639 -2.7899
  643MOL0     H86792   3.736   7.045   1.115  0.6086 -0.1852  0.4236
  643MOL0     H86793   3.779   7.322   1.435 -0.5005  0.5389 -0.2060
  643MOL0     H86794   3.816   7.536   1.563 -2.3314 -1.0771 -1.3004
  643MOL0     H86795   4.010   7.799   1.685 -0.5124  0.6002 -0.2727
  643MOL0     H86796   3.889   7.677   1.693  0.5304  1.3930  2.0699
  643MOL0     H86797   4.053   7.501   1.669  3.4057 -0.6161 -0.3545
  643MOL0     H86798   4.090   7.590   1.814 -1.2114  0.2394 -1.0581
  643MOL0     H86799   4.257   7.728   1.665  2.9546 -1.6706  0.4627
  643MOL0     H86800   4.229   7.592   1.554  1.0011 -3.1219  0.8274
  643MOL0     H86801   4.288   7.421   1.737 -0.4370  0.3778  0.3496
  643MOL0     H86802   4.309   7.563   1.845  3.7779  1.4346  0.2549
  643MOL0     H86803   4.667   7.551   1.618 -0.2574 -0.8327  0.3432
  643MOL0     H86804   4.068   7.684   1.267 -0.4725  0.5243  1.5985
  643MOL0     H86805   4.049   7.469   1.133 -1.0255  0.4783 -0.3033
  644MOL0     O86806   9.217   0.935   4.177 -0.2073 -0.3535 -0.3370
  644MOL0     C86807   9.297   0.842   4.184  0.4429 -0.2541 -0.1435
  644MOL0     O86808   9.346   0.766   4.083 -0.3663 -0.7390  0.0752
  644MOL0     C86809   9.310   0.770   3.951 -0.2765 -0.1348  0.5897
  644MOL0     C86810   9.257   0.883   3.882  0.4238 -0.4306 -0.3655
  644MOL0     C86811   9.213   0.881   3.744 -0.0879 -0.0631 -0.2014
  644MOL0     C86812   9.242   0.768   3.677 -0.0485  0.0627 -0.2308
  644MOL0     O86813   9.198   0.762   3.550  0.4295 -0.3619 -0.0896
  644MOL0     C86814   9.302   0.822   3.468  0.0100  0.6121 -0.5033
  644MOL0     C86815   9.246   0.807   3.332  0.1269 -0.2854  0.0216
  644MOL0     C86816   9.357   0.850   3.231 -0.0533  0.4937 -0.3915
  644MOL0     C86817   9.303   0.849   3.080 -0.4500 -0.4543  0.3342
  644MOL0     C86818   9.415   0.904   2.991 -0.0063 -0.2916 -0.5977
  644MOL0     C86819   9.453   1.056   3.005  0.1433  0.3403 -1.2166
  644MOL0     C86820   9.544   1.094   2.885 -0.3469 -0.1491 -0.1023
  644MOL0     C86821   9.549   1.249   2.878 -0.3070  0.6741 -0.0779
  644MOL0     N86822   9.640   1.288   2.771 -0.1802  0.4457 -0.4435
  644MOL0     C86823   9.773   1.270   2.752  0.7364  0.5652 -0.2622
  644MOL0     C86824   9.808   1.302   2.626  0.0471  0.4884 -0.0151
  644MOL0     C86825   9.953   1.273   2.565 -0.3393  0.3597 -0.7743
  644MOL0     C86826  10.026   1.403   2.523  0.5875 -0.0295  0.1212
  644MOL0     C86827   9.962   1.469   2.402 -0.2741 -0.5605 -0.5362
  644MOL0     C86828  10.055   1.572   2.327 -0.9912  0.1947 -0.1035
  644MOL0     O86829   9.987   1.647   2.218 -0.1344 -0.1371 -0.6282
  644MOL0     C86830  10.073   1.739   2.162 -0.8449 -0.5266  0.2666
  644MOL0     C86831  10.208   1.771   2.203 -0.2204  0.0468 -0.0810
  644MOL0     C86832  10.276   1.875   2.151 -0.5394 -0.1541 -0.1469
  644MOL0     C86833  10.424   1.900   2.191  0.3664  0.9313  0.5396
  644MOL0     C86834  10.209   1.959   2.050 -0.0490  0.0228 -0.7424
  644MOL0     C86835  10.270   2.072   1.982 -0.7775 -0.1789 -0.4602
  644MOL0     O86836  10.390   2.053   1.903 -0.4935 -0.0292 -0.2865
  644MOL0     C86837  10.444   2.175   1.862 -0.0793 -0.1752  0.8058
  644MOL0     C86838  10.391   2.229   1.741 -0.7527  0.0919  1.1960
  644MOL0     C86839  10.454   2.342   1.681 -0.0391 -0.4560  0.4468
  644MOL0     C86840  10.563   2.403   1.737 -0.5811  0.3600 -0.5767
  644MOL0     O86841  10.639   2.509   1.686 -0.0141  0.4403  0.4292
  644MOL0     C86842  10.596   2.587   1.572  0.5572  0.3326 -0.4728
  644MOL0     C86843  10.649   2.724   1.574  0.5315  0.8451 -0.3736
  644MOL0     C86844  10.592   2.805   1.456  0.3217 -0.3090  0.1530
  644MOL0     C86845  10.633   2.948   1.452  0.3768  0.4721  0.9122
  644MOL0     C86846  10.614   3.000   1.306 -0.5620  0.2692 -0.4152
  644MOL0     C86847  10.604   3.149   1.300  0.4877 -0.5294  0.2051
  644MOL0     C86848  10.556   3.211   1.166 -0.4315 -0.0917 -0.8425
  644MOL0     C86849  10.485   3.342   1.167 -0.2443  0.2123  0.4241
  644MOL0    Cl86850  10.330   3.319   1.261 -0.1535  0.1297 -0.5814
  644MOL0     C86851  10.618   2.347   1.853 -0.5097  0.1152 -0.4648
  644MOL0     C86852  10.560   2.236   1.913  0.3452 -0.5210  0.1679
  644MOL0     O86853  10.212   2.177   1.994 -0.3217  0.1401  0.3934
  644MOL0     C86854  10.073   1.931   2.019  0.0405 -0.3129  0.2867
  644MOL0     C86855  10.004   1.834   2.088  0.0484 -0.3060 -0.1619
  644MOL0     N86856   9.686   1.333   2.564  0.6496 -0.6842 -0.4659
  644MOL0     N86857   9.593   1.320   2.652  0.5410 -0.6002  0.2140
  644MOL0     C86858   9.315   0.659   3.731 -0.1903 -0.1517 -0.4072
  644MOL0     C86859   9.338   0.657   3.869  0.2512 -0.8230  0.3758
  644MOL0     C86860   9.341   0.805   4.321  0.2932 -0.1806  0.8649
  644MOL0     C86861   9.341   0.906   4.430  0.4439  0.3759  0.2524
  644MOL0     C86862   9.404   0.885   4.551 -0.3874 -0.1015 -0.2209
  644MOL0     C86863   9.469   0.753   4.569  0.6158  0.0604  0.5982
  644MOL0     O86864   9.520   0.724   4.694  0.2172  0.3571  0.1514
  644MOL0     C86865   9.587   0.598   4.726 -0.2785  0.4012 -1.3714
  644MOL0     C86866   9.658   0.624   4.864 -0.6139  0.6041 -0.5842
  644MOL0     C86867   9.556   0.646   4.982 -0.3571  0.0904  0.6597
  644MOL0     C86868   9.631   0.619   5.114  0.2855 -0.0028  0.3290
  644MOL0     C86869   9.546   0.616   5.230  0.1415  0.5712 -0.8268
  644MOL0     C86870   9.471   0.626   5.320 -0.0257  0.2755 -0.0545
  644MOL0     C86871   9.470   0.657   4.466 -0.3500 -0.7287  0.4095
  644MOL0     C86872   9.409   0.682   4.345  0.4740  0.1859  0.5876
  644MOL0     H86873   9.233   0.974   3.936  1.3189 -0.8255  0.7610
  644MOL0     H86874   9.160   0.969   3.708  0.4443  0.8333  1.1287
  644MOL0     H86875   9.316   0.930   3.472  4.3852  0.2299 -0.3622
  644MOL0     H86876   9.395   0.766   3.483  0.2612  1.7727  3.4868
  644MOL0     H86877   9.231   0.701   3.311  1.6587 -0.3887 -0.6240
  644MOL0     H86878   9.157   0.870   3.327  1.2024  1.4775  1.5763
  644MOL0     H86879   9.376   0.955   3.256  2.2050 -0.3236  1.7332
  644MOL0     H86880   9.456   0.804   3.236 -0.0361  0.5827  0.1488
  644MOL0     H86881   9.271   0.752   3.042 -0.1620 -2.3107  4.4031
  644MOL0     H86882   9.216   0.913   3.058 -1.4278 -2.4863 -2.2674
  644MOL0     H86883   9.509   0.850   3.007  0.5623 -0.5001 -3.8698
  644MOL0     H86884   9.402   0.876   2.886  0.3139 -0.8245 -0.5004
  644MOL0     H86885   9.364   1.116   2.989  1.8032  2.2610 -4.1535
  644MOL0     H86886   9.501   1.073   3.102 -0.3936 -2.1607 -0.4291
  644MOL0     H86887   9.639   1.040   2.881 -0.4087 -0.1920 -1.4402
  644MOL0     H86888   9.495   1.057   2.794 -0.1530  1.9666 -1.1428
  644MOL0     H86889   9.589   1.286   2.972  0.7808 -0.0171 -0.2485
  644MOL0     H86890   9.446   1.286   2.871 -0.6929  0.3833  2.9180
  644MOL0     H86891   9.827   1.220   2.832  1.0111 -1.2715 -1.5203
  644MOL0     H86892  10.009   1.238   2.652 -3.4397  1.2819  1.8124
  644MOL0     H86893   9.952   1.193   2.491 -1.2771 -0.8735  0.5100
  644MOL0     H86894  10.132   1.393   2.495  0.8077  2.9118 -0.3831
  644MOL0     H86895  10.026   1.482   2.598  3.0023 -0.6781  0.9050
  644MOL0     H86896   9.876   1.527   2.438  0.6016  0.1519  0.4639
  644MOL0     H86897   9.930   1.393   2.330 -1.3500 -1.7743  1.1782
  644MOL0     H86898  10.149   1.529   2.292 -1.2780  0.3303 -1.0791
  644MOL0     H86899  10.083   1.640   2.408 -1.2788 -0.8139  0.8735
  644MOL0     H86900  10.256   1.696   2.264  0.0383 -0.1650 -0.5330
  644MOL0     H86901  10.477   1.850   2.110 -1.8963 -0.8638  0.0435
  644MOL0     H86902  10.443   2.007   2.199 -3.5900  1.9846 -1.4708
  644MOL0     H86903  10.444   1.854   2.289  1.3540  2.4401  1.0779
  644MOL0     H86904  10.323   2.173   1.678  0.8523  2.0680 -2.6305
  644MOL0     H86905  10.414   2.384   1.589 -0.8521 -0.6298  0.7120
  644MOL0     H86906  10.627   2.539   1.480 -0.0068 -1.9854  0.4821
  644MOL0     H86907  10.488   2.603   1.578  0.8809  3.4063 -1.3326
  644MOL0     H86908  10.628   2.780   1.666 -1.0133  0.4540 -0.4644
  644MOL0     H86909  10.758   2.718   1.563  0.4571 -1.8748 -0.2673
  644MOL0     H86910  10.483   2.814   1.459  0.4841  3.0265  0.5301
  644MOL0     H86911  10.627   2.758   1.364 -1.8818 -0.5785 -0.6184
  644MOL0     H86912  10.563   3.000   1.519 -1.5524  3.4385 -2.9725
  644MOL0     H86913  10.739   2.957   1.476  0.7982 -3.5485  1.2022
  644MOL0     H86914  10.523   2.954   1.266 -0.0591 -0.9948 -0.1577
  644MOL0     H86915  10.691   2.955   1.243 -0.5484  0.9088 -0.8691
  644MOL0     H86916  10.534   3.172   1.380 -1.5994 -0.7222 -1.4826
  644MOL0     H86917  10.700   3.186   1.339  0.0526 -0.0458  0.8379
  644MOL0     H86918  10.493   3.132   1.125  1.4736 -3.3264  1.9328
  644MOL0     H86919  10.642   3.220   1.099  0.4553  2.5361  0.5111
  644MOL0     H86920  10.454   3.367   1.065 -0.9715  1.2187  0.8783
  644MOL0     H86921  10.549   3.421   1.207  2.0051 -2.2842  2.1112
  644MOL0     H86922  10.713   2.386   1.889 -1.7854  1.1010  2.0511
  644MOL0     H86923  10.598   2.185   2.001 -0.2496  0.9404  1.3100
  644MOL0     H86924  10.010   1.983   1.947 -1.6195 -5.0766 -2.1633
  644MOL0     H86925   9.902   1.811   2.057 -0.3425  3.4663 -2.3228
  644MOL0     H86926   9.339   0.570   3.675  1.5776  0.3114 -0.4521
  644MOL0     H86927   9.387   0.568   3.907  0.5183 -0.7835  0.1279
  644MOL0     H86928   9.283   0.996   4.411  0.6203  1.2496  3.3812
  644MOL0     H86929   9.393   0.950   4.637  1.6502  0.2499 -0.1622
  644MOL0     H86930   9.529   0.506   4.735 -1.8992  1.4839 -0.1484
  644MOL0     H86931   9.670   0.582   4.656  0.0716  1.7681 -1.3089
  644MOL0     H86932   9.724   0.710   4.874 -1.3909  1.2621 -0.9699
  644MOL0     H86933   9.712   0.536   4.900  2.0835  2.3094 -0.2082
  644MOL0     H86934   9.475   0.572   4.973  1.3179 -1.6853 -0.7156
  644MOL0     H86935   9.511   0.744   4.968 -2.3975 -0.6864  1.3370
  644MOL0     H86936   9.698   0.705   5.121 -0.0942  0.1824  5.1261
  644MOL0     H86937   9.689   0.526   5.113  0.5861  0.0853 -3.3856
  644MOL0     H86938   9.414   0.623   5.411  0.7305 -0.3266  0.4248
  644MOL0     H86939   9.525   0.567   4.492  1.2335 -0.0192 -0.2901
  644MOL0     H86940   9.410   0.604   4.270 -2.5432  1.4504 -0.9319
  645MOL0     O86941  10.052   8.364   5.992 -0.2279 -0.7550  0.1491
  645MOL0     C86942  10.147   8.304   5.941  0.5166 -0.7071  0.7353
  645MOL0     O86943  10.276   8.358   5.933  0.5947  0.3106 -0.0024
  645MOL0     C86944  10.299   8.478   5.980 -0.3936 -1.6282  0.0349
  645MOL0     C86945  10.283   8.593   5.904 -0.5685  0.0094 -0.0788
  645MOL0     C86946  10.333   8.720   5.944  0.0978  0.6777  1.1386
  645MOL0     C86947  10.385   8.737   6.065  0.3211 -0.2716  0.1327
  645MOL0     O86948  10.400   8.865   6.114 -0.2010 -0.3725  0.2313
  645MOL0     C86949  10.531   8.899   6.142 -0.2245  0.5689  0.0707
  645MOL0     C86950  10.557   9.044   6.167 -0.6381 -0.2950  0.4227
  645MOL0     C86951  10.702   9.054   6.212  1.1197  0.0032 -1.0020
  645MOL0     C86952  10.716   9.082   6.356 -0.5519 -0.3456  0.1612
  645MOL0     C86953  10.874   9.093   6.385 -0.3528  0.0305  0.8770
  645MOL0     C86954  10.910   9.056   6.523 -0.2335 -0.3376  0.1163
  645MOL0     C86955  10.853   9.160   6.621 -0.4018 -0.1028  0.0540
  645MOL0     C86956  10.945   9.282   6.612 -0.0428  0.8438 -0.2894
  645MOL0     N86957  10.931   9.378   6.722  0.0251  0.1646  0.2916
  645MOL0     C86958  10.874   9.357   6.849 -0.2707  0.3367 -0.6983
  645MOL0     C86959  10.870   9.482   6.904 -0.2789  0.3007  0.0686
  645MOL0     C86960  10.839   9.537   7.038  0.0112  0.3892 -0.3305
  645MOL0     C86961  10.866   9.438   7.153 -0.7350  0.5498  0.1473
  645MOL0     C86962  11.010   9.419   7.197  0.8063 -0.3858 -0.4874
  645MOL0     C86963  11.096   9.343   7.097 -1.0806  0.6649  0.0232
  645MOL0     O86964  11.052   9.214   7.066  0.5665 -0.0878 -0.9717
  645MOL0     C86965  11.120   9.137   6.975  0.1575 -0.5878 -0.2274
  645MOL0     C86966  11.238   9.171   6.911 -0.1298  0.1654  0.1495
  645MOL0     C86967  11.297   9.099   6.800  0.1076 -0.3973  0.2845
  645MOL0     C86968  11.396   9.169   6.712  0.4360 -0.4704 -0.4874
  645MOL0     C86969  11.233   8.971   6.773 -0.2372 -0.1051 -0.1729
  645MOL0     C86970  11.270   8.879   6.659  0.5431  0.3002  0.5224
  645MOL0     O86971  11.181   8.785   6.631 -0.0879  0.5956 -0.2887
  645MOL0     C86972  11.193   8.712   6.513  0.5273 -0.5562  0.1253
  645MOL0     C86973  11.112   8.757   6.400  0.9021 -1.2338  0.7878
  645MOL0     C86974  11.096   8.674   6.288 -0.4504 -0.4479 -0.9776
  645MOL0     C86975  11.173   8.557   6.281  0.3513 -0.5147  0.3324
  645MOL0     O86976  11.145   8.485   6.169 -0.0982  0.4611 -0.5293
  645MOL0     C86977  11.219   8.358   6.156  1.1733  0.0487 -0.0481
  645MOL0     C86978  11.165   8.310   6.022 -0.4053 -0.1308  0.3001
  645MOL0     C86979  11.008   8.288   6.019 -1.1161  0.0594  0.0331
  645MOL0     C86980  10.958   8.241   5.875  0.3017 -0.2002  0.1585
  645MOL0     C86981  10.822   8.173   5.875 -0.4069  0.8325 -0.3075
  645MOL0     C86982  10.788   8.137   5.735 -0.2832  0.5137 -0.0943
  645MOL0     C86983  10.655   8.055   5.730  0.0362 -0.3909 -0.8913
  645MOL0     C86984  10.617   8.030   5.589 -0.5537  0.5881  0.3846
  645MOL0    Cl86985  10.471   7.937   5.575  0.1576 -0.3345 -0.1827
  645MOL0     C86986  11.256   8.516   6.383 -1.0050 -0.2174  0.1844
  645MOL0     C86987  11.270   8.597   6.492 -0.4144  0.0022 -0.0666
  645MOL0     O86988  11.369   8.898   6.595  0.4036 -0.5372 -0.2554
  645MOL0     C86989  11.133   8.923   6.863 -0.6959 -0.0450  0.5211
  645MOL0     C86990  11.075   9.010   6.956  0.0849 -0.0855 -0.3582
  645MOL0     N86991  10.921   9.570   6.814  0.2407 -0.1380  0.3906
  645MOL0     N86992  10.956   9.508   6.705 -0.0850  0.4813 -0.1512
  645MOL0     C86993  10.396   8.626   6.151  1.0294 -1.4794  0.1073
  645MOL0     C86994  10.349   8.498   6.113  0.4602  0.0830  1.0736
  645MOL0     C86995  10.124   8.171   5.889 -0.5775  0.8771  0.2230
  645MOL0     C86996  10.233   8.083   5.870 -0.0288  0.3821  0.5725
  645MOL0     C86997  10.211   7.953   5.818 -0.1217  0.7090 -0.9649
  645MOL0     C86998  10.083   7.895   5.810 -0.6015  0.5604  0.4508
  645MOL0     O86999  10.067   7.758   5.782  0.9501 -1.3498 -0.3408
  645MOL0     C87000  10.174   7.674   5.750 -0.6049  0.7620  0.8850
  645MOL0     C87001  10.141   7.528   5.791  0.5672 -0.4618 -0.3871
  645MOL0     C87002  10.199   7.414   5.702 -0.8865 -0.4346  0.4667
  645MOL0     C87003  10.349   7.417   5.672  0.2443 -0.0031 -0.6922
  645MOL0     C87004  10.382   7.324   5.561 -0.1980  0.6636 -0.1516
  645MOL0     C87005  10.415   7.243   5.475  0.5452  0.1949  0.0803
  645MOL0     C87006   9.970   7.973   5.845  0.2867  0.0519  0.1530
  645MOL0     C87007   9.995   8.116   5.874 -1.0874  1.0473  0.6206
  645MOL0     H87008  10.243   8.586   5.803 -1.9769 -3.4492  0.5599
  645MOL0     H87009  10.327   8.797   5.867 -0.1171 -0.3528  0.0918
  645MOL0     H87010  10.557   8.830   6.223  0.6918 -1.4835 -1.8710
  645MOL0     H87011  10.596   8.874   6.058  3.6336 -0.2521  3.0219
  645MOL0     H87012  10.531   9.098   6.076 -0.9633  1.1531  1.3273
  645MOL0     H87013  10.489   9.080   6.245 -2.8024  1.8192 -2.2285
  645MOL0     H87014  10.761   8.970   6.173  1.1326 -0.4418 -0.0400
  645MOL0     H87015  10.729   9.143   6.155 -3.4176  1.0001 -2.0126
  645MOL0     H87016  10.659   9.167   6.394 -3.0853 -2.0323  0.3989
  645MOL0     H87017  10.678   8.995   6.411 -0.9441  0.1487  0.6885
  645MOL0     H87018  10.920   9.022   6.316 -0.5351  1.9998 -1.4205
  645MOL0     H87019  10.920   9.187   6.355 -0.2804 -0.2325  0.1416
  645MOL0     H87020  10.860   8.959   6.536  1.3335 -1.0623  0.9443
  645MOL0     H87021  11.018   9.038   6.528 -0.0485  0.6382 -0.2827
  645MOL0     H87022  10.751   9.190   6.593 -0.9424  0.9121  2.7641
  645MOL0     H87023  10.849   9.127   6.726  0.3791 -0.5628 -0.0515
  645MOL0     H87024  10.931   9.324   6.512  0.1027 -0.3077 -0.8117
  645MOL0     H87025  11.052   9.259   6.612 -0.7140 -3.0596  1.0316
  645MOL0     H87026  10.850   9.256   6.883  0.7033 -0.1393 -1.3996
  645MOL0     H87027  10.903   9.623   7.062  2.3661 -2.0508  3.1610
  645MOL0     H87028  10.734   9.561   7.056 -0.3024 -2.6012  3.0305
  645MOL0     H87029  10.812   9.346   7.130  0.6073 -0.9593  2.5175
  645MOL0     H87030  10.815   9.475   7.243  2.1522  1.7446  1.4283
  645MOL0     H87031  10.999   9.353   7.283 -2.6631  0.2088 -0.2917
  645MOL0     H87032  11.056   9.516   7.218  0.8775 -0.7163  0.9978
  645MOL0     H87033  11.199   9.339   7.135 -0.1762  1.4335 -2.1807
  645MOL0     H87034  11.101   9.404   7.006  0.8523  0.7289  0.1258
  645MOL0     H87035  11.272   9.272   6.931  0.4149 -0.0473  0.3438
  645MOL0     H87036  11.380   9.167   6.604  2.3313 -0.4967 -0.8019
  645MOL0     H87037  11.406   9.276   6.732  2.5393  0.3800 -4.8688
  645MOL0     H87038  11.497   9.135   6.735 -0.5354 -0.2389  6.1835
  645MOL0     H87039  11.049   8.845   6.401  0.7168 -1.3468  0.0412
  645MOL0     H87040  11.030   8.703   6.208 -1.8271  2.7801  1.1136
  645MOL0     H87041  11.328   8.366   6.155  1.4490 -2.3622 -2.9938
  645MOL0     H87042  11.194   8.282   6.231  1.1508  1.7558  1.7721
  645MOL0     H87043  11.198   8.382   5.946 -0.2803  0.7942  1.2049
  645MOL0     H87044  11.210   8.213   6.001 -2.8995 -1.1973 -0.5122
  645MOL0     H87045  10.963   8.385   6.043  1.3444  0.9705  1.3119
  645MOL0     H87046  10.971   8.223   6.100 -1.2471  1.8624  1.4848
  645MOL0     H87047  10.956   8.329   5.810  1.0003 -0.8811 -0.8142
  645MOL0     H87048  11.020   8.166   5.826 -1.8243  0.0812 -3.2228
  645MOL0     H87049  10.740   8.228   5.921 -0.8241 -1.5396  2.0185
  645MOL0     H87050  10.842   8.095   5.949  2.9446  3.4147  1.7484
  645MOL0     H87051  10.778   8.226   5.673 -1.7431  0.8101  0.5234
  645MOL0     H87052  10.868   8.072   5.697  0.9061  0.9749  1.5025
  645MOL0     H87053  10.591   8.124   5.785  1.9549 -2.5106  4.6971
  645MOL0     H87054  10.649   7.964   5.790  0.2681  0.9911  1.3090
  645MOL0     H87055  10.691   7.968   5.538 -0.6212  1.8228 -1.2902
  645MOL0     H87056  10.603   8.124   5.533 -0.1205 -0.6353 -1.8923
  645MOL0     H87057  11.314   8.425   6.371 -0.1948  0.2012  0.8126
  645MOL0     H87058  11.337   8.580   6.575 -1.9978  2.0595  1.7848
  645MOL0     H87059  11.085   8.828   6.844  4.9106 -3.0544 -0.8239
  645MOL0     H87060  10.994   8.979   7.020 -0.7152 -0.9321 -1.7330
  645MOL0     H87061  10.432   8.636   6.253 -0.3738  0.8665  0.4416
  645MOL0     H87062  10.370   8.409   6.172  0.3132 -1.2276 -0.7837
  645MOL0     H87063  10.336   8.116   5.873  0.4339 -1.0405  1.4283
  645MOL0     H87064  10.295   7.889   5.793  0.2083  0.1364  1.3449
  645MOL0     H87065  10.201   7.680   5.644  3.9337 -0.8174  1.7177
  645MOL0     H87066  10.268   7.690   5.804  0.7579 -0.2627 -1.0361
  645MOL0     H87067  10.032   7.524   5.781  0.7380 -0.2659 -3.2550
  645MOL0     H87068  10.173   7.509   5.893  0.9249 -5.2986 -1.1620
  645MOL0     H87069  10.154   7.436   5.605 -1.0595 -2.4101  0.0564
  645MOL0     H87070  10.169   7.311   5.720  1.2504 -1.4499 -1.2791
  645MOL0     H87071  10.409   7.384   5.758  0.2813  0.6095 -0.4738
  645MOL0     H87072  10.371   7.519   5.637 -0.0073  0.0116 -0.8039
  645MOL0     H87073  10.447   7.179   5.394  1.1797  0.9656 -0.2889
  645MOL0     H87074   9.874   7.922   5.854  0.9494 -1.1470  0.7982
  645MOL0     H87075   9.922   8.188   5.908 -1.1413  0.6155  1.4422
  646MOL0     O87076   4.697  11.018   4.950 -0.6464  0.3266 -0.4644
  646MOL0     C87077   4.811  10.975   4.940  0.3756 -0.7742 -0.1188
  646MOL0     O87078   4.889  10.964   4.824 -0.1399  1.0611 -0.9990
  646MOL0     C87079   4.843  10.994   4.701 -0.7360  0.0214 -0.0871
  646MOL0     C87080   4.778  11.121   4.681 -0.3315 -0.5376 -0.3589
  646MOL0     C87081   4.750  11.160   4.553 -0.0592  0.0082 -0.1705
  646MOL0     C87082   4.799  11.084   4.440  0.9532  0.2041 -0.1252
  646MOL0     O87083   4.756  11.122   4.315 -0.4892 -0.3557 -0.5258
  646MOL0     C87084   4.724  11.015   4.224 -1.4695  0.5005 -0.0254
  646MOL0     C87085   4.632  11.081   4.115 -0.8134  0.0111 -0.3284
  646MOL0     C87086   4.487  11.063   4.153 -0.5338  0.2319 -0.6916
  646MOL0     C87087   4.457  11.154   4.276 -0.3027  0.7508  0.0936
  646MOL0     C87088   4.303  11.139   4.308 -0.0291 -0.0522 -1.2624
  646MOL0     C87089   4.261  11.192   4.439  0.2577 -0.2977 -0.3460
  646MOL0     C87090   4.318  11.121   4.562  1.0201  0.0989  0.1738
  646MOL0     C87091   4.305  10.974   4.560 -0.0104  0.9144 -0.3281
  646MOL0     N87092   4.360  10.914   4.686 -0.2062 -0.2459  0.2781
  646MOL0     C87093   4.483  10.860   4.698 -0.1146  0.2305 -0.2455
  646MOL0     C87094   4.475  10.774   4.802  0.2563  0.2933  0.0178
  646MOL0     C87095   4.589  10.684   4.845 -0.1541 -0.5828  0.2794
  646MOL0     C87096   4.551  10.533   4.832  0.5267  0.6246 -0.4305
  646MOL0     C87097   4.666  10.433   4.862 -0.2631  0.1753  0.2169
  646MOL0     C87098   4.640  10.309   4.780 -0.3000  0.2924 -0.5220
  646MOL0     O87099   4.740  10.288   4.674 -0.2089  1.4083  0.0098
  646MOL0     C87100   4.706  10.291   4.539 -0.8591 -0.0148  0.1702
  646MOL0     C87101   4.583  10.308   4.492 -0.0730  0.6362 -0.7861
  646MOL0     C87102   4.539  10.290   4.360  0.4859 -0.4329 -0.8425
  646MOL0     C87103   4.399  10.330   4.325 -0.0847  0.4897  0.1108
  646MOL0     C87104   4.627  10.244   4.264 -0.1576  0.2592  0.0101
  646MOL0     C87105   4.593  10.220   4.119  0.0379  0.2966  0.1512
  646MOL0     O87106   4.671  10.133   4.055  0.4862  0.0834 -0.2500
  646MOL0     C87107   4.659  10.096   3.931  1.1730 -0.4748  1.0582
  646MOL0     C87108   4.531  10.057   3.874  0.3514 -0.9892 -0.2693
  646MOL0     C87109   4.519  10.010   3.742  0.9386 -0.0298 -0.6451
  646MOL0     C87110   4.634   9.987   3.669 -0.5507  0.2058 -0.1528
  646MOL0     O87111   4.628   9.919   3.554 -0.4840  0.5489  0.1872
  646MOL0     C87112   4.515   9.898   3.483 -0.3497 -0.1567  0.0547
  646MOL0     C87113   4.542   9.806   3.361  0.3530  0.3184 -0.0862
  646MOL0     C87114   4.446   9.818   3.248 -0.4499  0.1048 -0.5080
  646MOL0     C87115   4.480   9.717   3.132 -0.4061  0.9443 -0.0288
  646MOL0     C87116   4.452   9.564   3.153  0.4543 -1.3336  0.2819
  646MOL0     C87117   4.452   9.470   3.023 -0.6093  0.7521  0.3246
  646MOL0     C87118   4.344   9.536   2.930  0.7082  0.2841  0.3483
  646MOL0     C87119   4.284   9.430   2.848  0.4360  0.1854  0.4308
  646MOL0    Cl87120   4.193   9.492   2.706  0.2601 -0.4028  0.1292
  646MOL0     C87121   4.757  10.037   3.720  0.2760  0.3963  0.6617
  646MOL0     C87122   4.770  10.080   3.849 -0.6729  0.0066 -0.5863
  646MOL0     O87123   4.499  10.277   4.067  0.6691 -0.5402  0.0770
  646MOL0     C87124   4.759  10.227   4.303  0.0544  0.6613 -0.4024
  646MOL0     C87125   4.803  10.244   4.443  0.9239 -1.7399  0.4916
  646MOL0     N87126   4.347  10.785   4.854 -0.4576  0.2653 -0.5828
  646MOL0     N87127   4.280  10.872   4.789 -0.1420  0.3507  0.2945
  646MOL0     C87128   4.861  10.957   4.472 -0.5722 -1.5052 -1.1100
  646MOL0     C87129   4.877  10.911   4.599 -0.0336  0.1770  0.3245
  646MOL0     C87130   4.867  10.922   5.061 -0.2461 -0.1848  0.2272
  646MOL0     C87131   4.797  10.885   5.178  0.5106 -0.5784  0.5648
  646MOL0     C87132   4.862  10.835   5.284  0.0236  1.0518  0.1705
  646MOL0     C87133   4.997  10.841   5.292 -0.8704  0.1161  0.0090
  646MOL0     O87134   5.031  10.788   5.412 -0.0958 -0.3494 -0.2681
  646MOL0     C87135   5.171  10.783   5.442  0.6903 -0.0311  0.2490
  646MOL0     C87136   5.225  10.924   5.480  0.9233 -0.2105  0.4280
  646MOL0     C87137   5.199  10.975   5.619  0.5454  1.2248  0.7055
  646MOL0     C87138   5.142  11.119   5.614  0.2893  0.0155 -0.8368
  646MOL0     C87139   5.094  11.155   5.743  0.2238  0.5151 -0.2073
  646MOL0     C87140   5.043  11.188   5.851  0.2676  0.4549 -0.1040
  646MOL0     C87141   5.073  10.867   5.188  0.2043 -0.3913 -0.3129
  646MOL0     C87142   5.009  10.907   5.074 -0.3926  0.4527 -0.5539
  646MOL0     H87143   4.742  11.178   4.765  1.1887  1.0456 -0.7249
  646MOL0     H87144   4.686  11.244   4.528  0.5217 -0.2088 -2.6932
  646MOL0     H87145   4.816  10.972   4.184  0.4647  2.9039  1.5431
  646MOL0     H87146   4.677  10.928   4.268  2.0892 -1.0574  1.0496
  646MOL0     H87147   4.664  11.186   4.117 -2.9149  0.6872  0.8933
  646MOL0     H87148   4.661  11.026   4.025 -0.4147 -3.0809  1.5481
  646MOL0     H87149   4.430  11.098   4.066  0.8026  0.6059 -1.4466
  646MOL0     H87150   4.465  10.958   4.171 -0.9930  0.0065 -2.3742
  646MOL0     H87151   4.514  11.141   4.368 -1.2145 -1.0924  0.4472
  646MOL0     H87152   4.473  11.260   4.257  0.5009  0.4284 -1.1082
  646MOL0     H87153   4.253  11.201   4.233 -1.0803  0.9603  0.2282
  646MOL0     H87154   4.264  11.036   4.303 -0.9424  0.2437 -0.5856
  646MOL0     H87155   4.280  11.300   4.439  2.5419 -0.6472 -1.1102
  646MOL0     H87156   4.152  11.184   4.443  0.0769  2.1620  2.2721
  646MOL0     H87157   4.425  11.145   4.564  0.9564  0.4771 -0.5999
  646MOL0     H87158   4.260  11.158   4.647 -2.8340  0.1073 -2.2477
  646MOL0     H87159   4.365  10.940   4.476  0.5373  1.1269 -0.0290
  646MOL0     H87160   4.200  10.948   4.546 -0.5242  2.6862  0.0202
  646MOL0     H87161   4.572  10.880   4.640  1.4076  0.5316  2.0684
  646MOL0     H87162   4.679  10.699   4.786 -1.4656  2.7505 -1.1080
  646MOL0     H87163   4.621  10.720   4.943  0.0366 -0.9279  0.3476
  646MOL0     H87164   4.511  10.516   4.732  1.0821  2.3495 -0.9725
  646MOL0     H87165   4.478  10.496   4.905  2.4989 -2.3541  0.2095
  646MOL0     H87166   4.679  10.401   4.966 -0.3185 -0.6262 -0.0123
  646MOL0     H87167   4.760  10.480   4.833  1.2756 -1.4812  2.1975
  646MOL0     H87168   4.534  10.285   4.764  0.0989 -2.9137  0.8647
  646MOL0     H87169   4.656  10.223   4.845 -0.5180  1.0484  0.5583
  646MOL0     H87170   4.503  10.320   4.565 -0.4157 -5.0631  0.2587
  646MOL0     H87171   4.340  10.362   4.412  0.1102  1.3809 -0.0759
  646MOL0     H87172   4.403  10.422   4.266 -0.4160 -0.5621 -1.5980
  646MOL0     H87173   4.352  10.258   4.258 -0.0960  1.2721 -0.7377
  646MOL0     H87174   4.442  10.082   3.930  1.8450  0.3275  1.6382
  646MOL0     H87175   4.416   9.982   3.724  1.0111 -0.3984 -0.5052
  646MOL0     H87176   4.432   9.862   3.544 -0.9236 -0.6529 -0.9948
  646MOL0     H87177   4.498   9.995   3.435  0.8736  2.2209  4.0021
  646MOL0     H87178   4.642   9.832   3.326  1.1794  1.4046  2.7945
  646MOL0     H87179   4.552   9.701   3.389  0.3898  0.3773  0.1268
  646MOL0     H87180   4.462   9.921   3.213 -0.9927  0.2153 -0.4352
  646MOL0     H87181   4.340   9.814   3.275 -0.2178  1.5365  0.7338
  646MOL0     H87182   4.419   9.742   3.045 -0.8290 -2.7270 -0.9347
  646MOL0     H87183   4.584   9.725   3.101 -0.1888 -1.0612  0.0881
  646MOL0     H87184   4.353   9.565   3.199 -0.9820 -1.5122 -2.6001
  646MOL0     H87185   4.531   9.526   3.218  1.2607 -0.0608  0.0879
  646MOL0     H87186   4.541   9.449   2.964 -1.4986  0.8124 -1.0829
  646MOL0     H87187   4.428   9.369   3.057  3.8063 -0.0346  1.6904
  646MOL0     H87188   4.389   9.614   2.868  0.0052 -0.3606 -1.0213
  646MOL0     H87189   4.270   9.584   2.994  0.9174 -2.5213  2.9174
  646MOL0     H87190   4.214   9.359   2.893 -0.4780 -1.6685 -3.4802
  646MOL0     H87191   4.371   9.376   2.811  1.7437  0.8276  2.3886
  646MOL0     H87192   4.850  10.029   3.666  0.1010  0.2116  0.3830
  646MOL0     H87193   4.862  10.100   3.903 -1.7528  0.1420  1.3159
  646MOL0     H87194   4.834  10.194   4.232 -2.8355 -2.9341 -2.1045
  646MOL0     H87195   4.906  10.232   4.477  1.1826 -0.6702  0.1403
  646MOL0     H87196   4.895  10.896   4.389 -1.3598 -2.9907 -0.3697
  646MOL0     H87197   4.939  10.823   4.613  1.7271  1.4005  0.5881
  646MOL0     H87198   4.689  10.876   5.164  0.1459  0.8793  2.0758
  646MOL0     H87199   4.796  10.813   5.367  0.8273  0.3679  0.6429
  646MOL0     H87200   5.194  10.711   5.522 -1.1805 -1.7029 -0.6310
  646MOL0     H87201   5.219  10.742   5.353  2.7990  0.0409  1.2957
  646MOL0     H87202   5.183  10.997   5.411  0.2487 -2.9854 -2.3393
  646MOL0     H87203   5.332  10.919   5.460  0.8581  1.2005 -0.3936
  646MOL0     H87204   5.296  10.970   5.669  0.8173  3.2242  0.4451
  646MOL0     H87205   5.124  10.913   5.668 -0.3195  0.8019 -1.0742
  646MOL0     H87206   5.069  11.131   5.534 -1.1292 -2.8733 -0.0982
  646MOL0     H87207   5.226  11.187   5.599  0.0061  1.8718  4.2938
  646MOL0     H87208   5.003  11.234   5.939  2.0269 -0.5666  1.2910
  646MOL0     H87209   5.181  10.852   5.189  0.2426 -0.7750 -3.1565
  646MOL0     H87210   5.066  10.939   4.988 -0.6509 -1.2498 -1.4078
  647MOL0     O87211   1.727   4.198   4.411 -0.7945 -0.0673 -0.1729
  647MOL0     C87212   1.700   4.299   4.479  0.0657 -0.1470  0.0077
  647MOL0     O87213   1.736   4.423   4.449 -0.0797  0.3398 -0.7665
  647MOL0     C87214   1.836   4.441   4.362  0.3787 -0.5555 -0.0220
  647MOL0     C87215   1.832   4.566   4.301 -0.6434 -0.9096 -0.5519
  647MOL0     C87216   1.937   4.616   4.218 -0.6041  0.1496  0.1052
  647MOL0     C87217   2.055   4.540   4.201 -0.2617  0.0136 -0.1326
  647MOL0     O87218   2.162   4.574   4.114  1.1243 -0.2941 -0.3637
  647MOL0     C87219   2.173   4.490   3.998  0.3845  0.3128 -0.3436
  647MOL0     C87220   2.248   4.588   3.898  0.4717 -1.1288  0.9750
  647MOL0     C87221   2.162   4.699   3.833  0.0622  0.0220  1.0486
  647MOL0     C87222   2.239   4.802   3.751 -0.1693 -0.2666 -0.7921
  647MOL0     C87223   2.227   4.798   3.603  0.5215 -0.1726 -0.5996
  647MOL0     C87224   2.098   4.853   3.569  0.6043  0.4855 -0.6789
  647MOL0     C87225   2.106   4.884   3.426  0.3190  0.3034  0.0402
  647MOL0     C87226   1.987   4.852   3.329  0.4547  0.3289  0.5645
  647MOL0     N87227   1.865   4.929   3.369 -0.3927  0.4536 -0.0521
  647MOL0     C87228   1.865   5.060   3.404  0.0015 -0.0199 -0.8493
  647MOL0     C87229   1.746   5.107   3.437  0.3875  0.3862  0.4962
  647MOL0     C87230   1.718   5.253   3.465  0.2874  0.1499 -0.2490
  647MOL0     C87231   1.785   5.302   3.595 -0.5216  0.1048 -0.3949
  647MOL0     C87232   1.754   5.219   3.728 -0.2476  0.2395  0.2876
  647MOL0     C87233   1.827   5.271   3.850  0.6304 -0.6085 -0.6829
  647MOL0     O87234   1.730   5.318   3.945 -0.1580 -0.1055  0.1294
  647MOL0     C87235   1.767   5.438   3.996  1.0665  0.0571 -0.0017
  647MOL0     C87236   1.832   5.429   4.118 -0.5422 -1.0380 -0.4344
  647MOL0     C87237   1.858   5.545   4.194  0.8678 -0.3784  0.0435
  647MOL0     C87238   1.929   5.518   4.323  0.1274 -0.8414 -0.0447
  647MOL0     C87239   1.815   5.668   4.143  0.0535  0.2855  0.7787
  647MOL0     C87240   1.840   5.797   4.219  0.1772 -0.9996  0.3977
  647MOL0     O87241   1.756   5.904   4.196  0.8873 -0.1207 -0.4493
  647MOL0     C87242   1.775   6.014   4.270 -0.3163 -0.8951 -1.0944
  647MOL0     C87243   1.882   6.105   4.257 -0.0804  0.6124  0.8980
  647MOL0     C87244   1.874   6.232   4.322  0.9368  0.4941  0.5365
  647MOL0     C87245   1.778   6.271   4.410 -1.0005 -0.7674  0.1788
  647MOL0     O87246   1.782   6.403   4.454 -0.9908  0.3490 -0.0669
  647MOL0     C87247   1.676   6.482   4.399 -0.5353 -0.1509  0.5694
  647MOL0     C87248   1.712   6.623   4.447 -0.0149 -0.4208 -0.2578
  647MOL0     C87249   1.596   6.714   4.401  0.1311 -0.5538 -0.5953
  647MOL0     C87250   1.578   6.721   4.246  0.8322 -1.2726 -1.1474
  647MOL0     C87251   1.534   6.861   4.206  0.5853  0.4060  0.6511
  647MOL0     C87252   1.513   6.888   4.055  0.0852  0.1459  0.0640
  647MOL0     C87253   1.402   6.802   3.991  0.2559 -0.1187  0.0251
  647MOL0     C87254   1.259   6.843   4.056  0.4837  0.8237  0.2107
  647MOL0    Cl87255   1.223   7.018   4.057  0.2318  0.1696 -0.0863
  647MOL0     C87256   1.676   6.184   4.423  0.7698  1.1030 -0.2968
  647MOL0     C87257   1.667   6.060   4.349  0.0030 -0.4695 -0.3296
  647MOL0     O87258   1.946   5.804   4.279 -0.0298 -0.2548 -0.7717
  647MOL0     C87259   1.751   5.674   4.017 -0.2691 -0.3885  0.5064
  647MOL0     C87260   1.724   5.558   3.943 -0.6088  0.3153  0.6534
  647MOL0     N87261   1.661   4.995   3.425  0.0468 -0.6556  0.2936
  647MOL0     N87262   1.733   4.893   3.377  0.2724 -0.5675  0.1681
  647MOL0     C87263   2.061   4.415   4.263 -0.3040  0.9329  0.6010
  647MOL0     C87264   1.946   4.365   4.340  0.0703 -0.2110 -0.2323
  647MOL0     C87265   1.636   4.281   4.611  0.5270  1.0539 -0.8090
  647MOL0     C87266   1.654   4.168   4.695 -0.6907  0.2783 -0.3686
  647MOL0     C87267   1.602   4.168   4.824 -0.0027  0.1616 -0.4366
  647MOL0     C87268   1.525   4.275   4.872 -0.6111 -1.0797 -1.0240
  647MOL0     O87269   1.467   4.264   5.004 -0.1955  0.0356  0.7360
  647MOL0     C87270   1.383   4.378   5.046  0.3580  0.3656 -0.2797
  647MOL0     C87271   1.300   4.314   5.161  0.0515 -0.5457 -0.4868
  647MOL0     C87272   1.384   4.319   5.289  0.0812  0.1394  0.2777
  647MOL0     C87273   1.476   4.439   5.313 -0.3420 -0.1048  0.0316
  647MOL0     C87274   1.415   4.569   5.297  0.2327  0.2841  0.6902
  647MOL0     C87275   1.388   4.693   5.279 -0.1113 -0.3290  1.1341
  647MOL0     C87276   1.502   4.380   4.790  0.1957 -1.0404  1.0659
  647MOL0     C87277   1.558   4.387   4.660  0.2553 -0.9501 -1.2000
  647MOL0     H87278   1.759   4.638   4.337 -0.5446 -1.4835  0.8878
  647MOL0     H87279   1.947   4.719   4.187 -1.3278  1.2036  3.0550
  647MOL0     H87280   2.241   4.409   4.026 -0.5017 -0.2220  0.3232
  647MOL0     H87281   2.072   4.457   3.975  0.7822 -0.2422 -1.3588
  647MOL0     H87282   2.343   4.625   3.938  1.7011  0.0355 -2.6228
  647MOL0     H87283   2.291   4.529   3.816  1.1710  1.5321 -0.6930
  647MOL0     H87284   2.094   4.641   3.769  1.6477  0.6946 -1.3906
  647MOL0     H87285   2.102   4.748   3.910  1.0831  0.3673  1.6345
  647MOL0     H87286   2.227   4.905   3.785  5.3593  0.0963  0.9343
  647MOL0     H87287   2.342   4.789   3.784 -1.1112 -0.3005  2.4625
  647MOL0     H87288   2.307   4.862   3.565 -0.8919  1.5886 -0.6941
  647MOL0     H87289   2.254   4.702   3.557  3.2741  0.3282 -0.2185
  647MOL0     H87290   2.009   4.795   3.592 -0.3328  2.0349 -0.2273
  647MOL0     H87291   2.086   4.942   3.632 -0.4429 -0.2913  0.2664
  647MOL0     H87292   2.126   4.991   3.427 -4.5171  1.4254  0.2434
  647MOL0     H87293   2.183   4.817   3.386 -1.6428 -0.9466 -1.8668
  647MOL0     H87294   1.954   4.748   3.324 -2.3472  1.1592 -1.7500
  647MOL0     H87295   2.027   4.887   3.233  2.8002 -0.3221  1.2472
  647MOL0     H87296   1.950   5.127   3.398  0.3429 -0.2245  1.1230
  647MOL0     H87297   1.746   5.307   3.374 -0.0937  2.2523  0.8179
  647MOL0     H87298   1.610   5.271   3.478  0.5037  0.0560  2.1784
  647MOL0     H87299   1.743   5.401   3.613  0.4202  0.6913 -1.3429
  647MOL0     H87300   1.893   5.310   3.583 -0.4088 -1.3117 -0.4827
  647MOL0     H87301   1.788   5.116   3.716 -0.2228  0.4352 -1.5923
  647MOL0     H87302   1.647   5.233   3.748  0.0183  5.7163 -0.5626
  647MOL0     H87303   1.898   5.348   3.816  1.5819 -0.7853  0.8149
  647MOL0     H87304   1.888   5.197   3.903 -2.8388 -1.4846  2.4158
  647MOL0     H87305   1.856   5.338   4.171 -4.9539 -0.5878  2.8475
  647MOL0     H87306   1.957   5.413   4.339  1.9292 -0.2241  1.2081
  647MOL0     H87307   2.021   5.577   4.321 -1.1826  1.3275  0.7824
  647MOL0     H87308   1.860   5.553   4.400  0.9982 -2.1260  1.3856
  647MOL0     H87309   1.964   6.070   4.195  0.3108 -0.7684  2.1295
  647MOL0     H87310   1.946   6.311   4.301  1.3055 -0.3518 -1.5442
  647MOL0     H87311   1.685   6.483   4.290  1.1572 -0.1071  0.6766
  647MOL0     H87312   1.579   6.444   4.432 -0.2665  0.2746  1.9295
  647MOL0     H87313   1.708   6.619   4.556 -3.2412 -1.0592 -0.2770
  647MOL0     H87314   1.813   6.648   4.416  1.1451 -4.2455  0.0113
  647MOL0     H87315   1.623   6.811   4.443 -0.7325  0.0966 -1.5212
  647MOL0     H87316   1.515   6.678   4.465  0.3273 -2.0472 -1.1412
  647MOL0     H87317   1.678   6.712   4.203  3.6242  3.6159  3.0221
  647MOL0     H87318   1.507   6.644   4.215 -0.5568 -0.7408  0.5344
  647MOL0     H87319   1.620   6.919   4.241  3.1186 -2.7731  0.2477
  647MOL0     H87320   1.441   6.892   4.253 -0.4968  0.1832 -1.2484
  647MOL0     H87321   1.487   6.993   4.037 -2.0485 -0.4159 -0.4308
  647MOL0     H87322   1.605   6.857   4.004  1.2267 -0.6722  2.4854
  647MOL0     H87323   1.420   6.694   3.993  0.8615 -0.0412 -1.0089
  647MOL0     H87324   1.395   6.829   3.885  2.5173 -0.8839 -0.3625
  647MOL0     H87325   1.250   6.799   4.155 -2.0152  0.3570 -0.1720
  647MOL0     H87326   1.179   6.804   3.992  2.1316  1.0635 -2.1348
  647MOL0     H87327   1.596   6.226   4.483  0.1527 -1.0358  0.4568
  647MOL0     H87328   1.589   5.989   4.373 -0.9368  0.1779 -1.4017
  647MOL0     H87329   1.704   5.767   3.986  1.2809 -0.2503 -1.7141
  647MOL0     H87330   1.667   5.563   3.850 -3.2518 -0.9393  2.0935
  647MOL0     H87331   2.141   4.346   4.239 -2.0678 -0.2091 -2.5750
  647MOL0     H87332   1.966   4.274   4.396  5.4944 -0.7371 -2.4111
  647MOL0     H87333   1.714   4.084   4.661  0.4648  0.9432 -0.0463
  647MOL0     H87334   1.646   4.095   4.891  0.1842  1.2580  0.6695
  647MOL0     H87335   1.442   4.464   5.079 -0.0509 -1.2994  5.9697
  647MOL0     H87336   1.304   4.401   4.973 -1.0666 -0.0996  1.0702
  647MOL0     H87337   1.263   4.213   5.141  0.4301 -1.0654  1.3090
  647MOL0     H87338   1.202   4.361   5.172 -0.7880 -2.4148  0.5107
  647MOL0     H87339   1.436   4.223   5.291 -1.1357 -0.6057 -1.3112
  647MOL0     H87340   1.305   4.313   5.365 -0.6968  1.9957 -0.3430
  647MOL0     H87341   1.567   4.435   5.252  2.0949  0.0168  3.3734
  647MOL0     H87342   1.512   4.436   5.416  2.8537  2.0086 -0.8542
  647MOL0     H87343   1.355   4.792   5.256  0.3603 -0.7727 -1.8788
  647MOL0     H87344   1.446   4.466   4.824  1.5236 -0.4763  1.8966
  647MOL0     H87345   1.548   4.480   4.605  0.3690 -1.5083 -2.1815
  648MOL0     O87346   0.923   5.647   0.090 -0.4008  0.6114  0.3000
  648MOL0     C87347   0.955   5.740   0.159  0.3321  0.0094 -0.7565
  648MOL0     O87348   0.947   5.872   0.128  0.0995  0.2297 -0.0599
  648MOL0     C87349   0.910   5.896   0.002 -0.1230 -0.4929  0.4429
  648MOL0     C87350   0.986   5.863  -0.116  0.6348  0.3746  0.3329
  648MOL0     C87351   0.945   5.904  -0.245  0.3108 -0.1112  0.4030
  648MOL0     C87352   0.818   5.963  -0.257 -0.3452  0.9104 -0.2350
  648MOL0     O87353   0.778   6.004  -0.379  0.1016 -0.3521 -0.3552
  648MOL0     C87354   0.679   6.110  -0.390  0.4350 -0.6085 -0.3434
  648MOL0     C87355   0.695   6.179  -0.526 -0.3550 -0.3856 -1.3204
  648MOL0     C87356   0.635   6.316  -0.517  0.6233  0.0938 -0.3343
  648MOL0     C87357   0.642   6.383  -0.649  0.5751  0.1960 -1.2636
  648MOL0     C87358   0.639   6.537  -0.648  0.6443 -0.0226  0.0418
  648MOL0     C87359   0.771   6.602  -0.606  0.7651  0.4916 -0.3011
  648MOL0     C87360   0.890   6.589  -0.697 -0.1284  0.3093  0.0489
  648MOL0     C87361   1.017   6.651  -0.642  0.5356  0.1524  0.8343
  648MOL0     N87362   1.078   6.596  -0.517 -0.3859  0.5943 -0.1287
  648MOL0     C87363   1.110   6.469  -0.482  0.6375  0.9429  0.2715
  648MOL0     C87364   1.125   6.466  -0.345 -0.4077 -0.1576  0.1458
  648MOL0     C87365   1.152   6.329  -0.271  0.4944 -0.0139 -0.1938
  648MOL0     C87366   1.116   6.343  -0.121  1.1497  0.8633  0.1432
  648MOL0     C87367   1.081   6.202  -0.067  1.1806 -0.3730 -0.3062
  648MOL0     C87368   1.203   6.128  -0.003  0.4883  1.0952  0.7137
  648MOL0     O87369   1.248   6.187   0.116  0.2379  0.2378  0.6125
  648MOL0     C87370   1.295   6.120   0.225 -0.0091 -0.0972  0.5624
  648MOL0     C87371   1.304   6.176   0.365  0.0375  0.9017  0.4587
  648MOL0     C87372   1.343   6.093   0.472 -0.0762 -1.2793 -0.7828
  648MOL0     C87373   1.320   6.148   0.606  0.4516  0.7476 -0.1707
  648MOL0     C87374   1.394   5.963   0.455  0.0175  0.1306  0.6692
  648MOL0     C87375   1.441   5.878   0.563  0.0405  0.8935 -0.6507
  648MOL0     O87376   1.461   5.746   0.522 -1.0219  0.5544 -0.1623
  648MOL0     C87377   1.573   5.683   0.577 -0.5703  0.0716 -0.0748
  648MOL0     C87378   1.543   5.558   0.629  0.6916  0.3172  0.6952
  648MOL0     C87379   1.643   5.481   0.681  0.5201  0.2618 -0.1684
  648MOL0     C87380   1.776   5.537   0.696 -0.3830  0.4959 -0.3588
  648MOL0     O87381   1.884   5.457   0.737 -0.1786 -0.3618 -0.2770
  648MOL0     C87382   1.852   5.327   0.802 -0.2539 -0.6603  0.4151
  648MOL0     C87383   1.980   5.259   0.848 -0.7812 -0.0323 -0.9019
  648MOL0     C87384   2.041   5.328   0.974  0.2602  0.4278  0.2263
  648MOL0     C87385   2.149   5.231   1.037  0.2675 -0.9475  0.0213
  648MOL0     C87386   2.124   5.222   1.187  0.1237  0.7136  0.1394
  648MOL0     C87387   2.244   5.148   1.246  0.7268 -0.5879  0.4996
  648MOL0     C87388   2.382   5.204   1.236  0.0745  0.8022 -0.1451
  648MOL0     C87389   2.389   5.343   1.306  0.3602 -0.4127 -0.7321
  648MOL0    Cl87390   2.546   5.377   1.381  0.4198 -0.1856 -0.2354
  648MOL0     C87391   1.799   5.670   0.656  0.5059 -0.1355 -0.2726
  648MOL0     C87392   1.703   5.736   0.578  0.0838  0.4550 -0.4331
  648MOL0     O87393   1.483   5.929   0.668 -0.8451 -0.4902  1.2379
  648MOL0     C87394   1.400   5.910   0.315  0.3164 -0.1717 -0.3939
  648MOL0     C87395   1.353   5.987   0.208 -0.0512 -0.0020  0.6435
  648MOL0     N87396   1.121   6.596  -0.302  0.3381 -0.1478 -0.8605
  648MOL0     N87397   1.091   6.668  -0.398  0.0500 -0.8678  0.3344
  648MOL0     C87398   0.734   5.978  -0.142  0.3961  0.5775 -0.7607
  648MOL0     C87399   0.781   5.953  -0.011  0.0085 -0.3130 -0.0458
  648MOL0     C87400   1.014   5.706   0.295 -0.1761 -0.1238  0.6364
  648MOL0     C87401   1.038   5.574   0.341  0.8833 -0.3980 -0.8785
  648MOL0     C87402   1.095   5.545   0.462  0.2645  0.0470 -0.9265
  648MOL0     C87403   1.131   5.647   0.543 -0.4499 -0.9209 -0.3010
  648MOL0     O87404   1.170   5.617   0.670  0.8939 -0.1328  0.1637
  648MOL0     C87405   1.186   5.719   0.767 -0.4642  0.1837 -0.3294
  648MOL0     C87406   1.195   5.655   0.904 -0.0655 -0.7231 -0.6206
  648MOL0     C87407   1.215   5.752   1.025 -0.3293 -0.7877 -0.3710
  648MOL0     C87408   1.195   5.697   1.158  0.8428 -0.2541  0.0613
  648MOL0     C87409   1.054   5.649   1.167 -0.7111 -0.2924 -0.8144
  648MOL0     C87410   0.941   5.637   1.194  0.7504 -0.6735  0.2831
  648MOL0     C87411   1.122   5.780   0.495  0.0955 -0.2267  0.4245
  648MOL0     C87412   1.063   5.813   0.378 -0.7331 -0.8276 -0.5299
  648MOL0     H87413   1.082   5.813  -0.104  0.2204 -0.5717 -0.1352
  648MOL0     H87414   1.006   5.894  -0.335 -2.1721  0.5455 -1.4590
  648MOL0     H87415   0.575   6.075  -0.386 -1.1707  3.6736  0.1175
  648MOL0     H87416   0.685   6.186  -0.312 -1.1196 -1.6187  0.8396
  648MOL0     H87417   0.802   6.187  -0.548  0.3859 -1.7676  1.3875
  648MOL0     H87418   0.642   6.132  -0.610 -2.6258  1.4686 -1.0420
  648MOL0     H87419   0.533   6.320  -0.479  1.1880 -0.0749  1.2805
  648MOL0     H87420   0.682   6.378  -0.440 -1.8036 -0.1431  1.4595
  648MOL0     H87421   0.732   6.351  -0.701  1.0996  1.1472 -0.9549
  648MOL0     H87422   0.551   6.358  -0.705 -1.1252 -0.1509  1.4608
  648MOL0     H87423   0.606   6.583  -0.741 -5.3895 -1.0709  1.2956
  648MOL0     H87424   0.561   6.565  -0.577  2.1902  0.1341  1.7633
  648MOL0     H87425   0.749   6.709  -0.611  0.3685  0.6567  2.8345
  648MOL0     H87426   0.800   6.566  -0.507 -0.2049 -1.1705 -0.5736
  648MOL0     H87427   0.912   6.484  -0.722 -3.9918 -1.3407  2.5165
  648MOL0     H87428   0.862   6.645  -0.786 -0.4771  1.3023  0.7723
  648MOL0     H87429   1.004   6.758  -0.621 -0.9198  0.3237 -0.7262
  648MOL0     H87430   1.088   6.641  -0.724  0.9979 -1.6820  1.4051
  648MOL0     H87431   1.100   6.383  -0.548 -2.4627 -0.4174  2.2922
  648MOL0     H87432   1.094   6.247  -0.314 -4.4330  1.3563  2.9867
  648MOL0     H87433   1.258   6.305  -0.281  1.2513  3.4314 -2.0239
  648MOL0     H87434   1.029   6.407  -0.108  0.8310  1.2638 -3.0473
  648MOL0     H87435   1.209   6.383  -0.079  2.3872 -2.3922  0.8125
  648MOL0     H87436   1.022   6.149  -0.143 -3.0264 -1.2661  3.1585
  648MOL0     H87437   1.003   6.219   0.008  0.6694 -0.0132 -0.8982
  648MOL0     H87438   1.283   6.127  -0.078 -0.9921  0.1542 -0.9335
  648MOL0     H87439   1.165   6.030   0.027 -2.9032  2.1100  0.1778
  648MOL0     H87440   1.275   6.279   0.380 -1.0379  0.6496  0.1910
  648MOL0     H87441   1.412   6.188   0.649  0.5062  0.9757 -0.4987
  648MOL0     H87442   1.251   6.233   0.600 -1.8935 -1.1225 -1.5272
  648MOL0     H87443   1.281   6.075   0.678  0.2438 -1.7385 -2.6414
  648MOL0     H87444   1.436   5.542   0.621  1.0649 -1.6131 -1.1553
  648MOL0     H87445   1.616   5.383   0.719 -3.0283  0.8869 -0.7660
  648MOL0     H87446   1.794   5.342   0.894  2.9578 -0.9053  2.6094
  648MOL0     H87447   1.794   5.257   0.741 -1.8927  0.6635  0.3748
  648MOL0     H87448   1.945   5.158   0.870 -1.6911  0.8476  2.2118
  648MOL0     H87449   2.057   5.258   0.770  1.1417 -0.7863  0.9063
  648MOL0     H87450   1.956   5.335   1.043  1.7663  0.5372  2.1483
  648MOL0     H87451   2.077   5.431   0.960 -1.5109  1.0028 -0.3864
  648MOL0     H87452   2.158   5.133   0.990 -1.4165 -1.3575  0.4787
  648MOL0     H87453   2.246   5.275   1.016 -1.3522  3.1525  0.1707
  648MOL0     H87454   2.037   5.160   1.209  1.0030 -0.7218 -0.2889
  648MOL0     H87455   2.120   5.325   1.224 -0.8099  0.4671  0.7551
  648MOL0     H87456   2.225   5.151   1.354 -0.1811  1.8927  0.3334
  648MOL0     H87457   2.254   5.044   1.212  2.2162 -0.2661 -0.1258
  648MOL0     H87458   2.430   5.220   1.139  3.2413  1.1398  1.3292
  648MOL0     H87459   2.449   5.137   1.291 -0.1719 -0.9685 -1.9087
  648MOL0     H87460   2.320   5.349   1.391 -0.8597  2.1676 -1.8131
  648MOL0     H87461   2.364   5.423   1.237 -0.7661 -1.1216 -1.1792
  648MOL0     H87462   1.894   5.711   0.689  1.0182 -2.5242  1.4745
  648MOL0     H87463   1.734   5.832   0.540 -1.5837  2.3908  2.6495
  648MOL0     H87464   1.448   5.819   0.282  0.8906 -1.6299  3.9064
  648MOL0     H87465   1.366   5.957   0.105  0.4473 -1.1751  1.0311
  648MOL0     H87466   0.634   6.021  -0.145 -0.0759  0.0786  2.7429
  648MOL0     H87467   0.728   5.972   0.081  0.5218  2.7301 -0.2685
  648MOL0     H87468   1.017   5.497   0.268  0.2047 -0.6942 -0.3765
  648MOL0     H87469   1.106   5.444   0.499  1.8735 -0.3441 -2.3172
  648MOL0     H87470   1.278   5.770   0.736  2.5407 -2.4237  3.4038
  648MOL0     H87471   1.104   5.791   0.766 -0.8821 -0.2771 -1.8020
  648MOL0     H87472   1.279   5.584   0.901 -1.2635 -2.1705 -1.4771
  648MOL0     H87473   1.097   5.607   0.905 -0.4023 -0.0836 -1.4870
  648MOL0     H87474   1.155   5.842   1.011  2.9477  2.7917  4.9753
  648MOL0     H87475   1.316   5.793   1.022 -0.3484 -0.3534  2.2311
  648MOL0     H87476   1.216   5.778   1.229 -0.4773  1.3378 -1.2604
  648MOL0     H87477   1.269   5.621   1.185  1.2488 -0.1610 -0.7729
  648MOL0     H87478   0.834   5.626   1.200  0.8134 -0.5592  2.5129
  648MOL0     H87479   1.157   5.860   0.559  1.2344 -1.4049  1.3252
  648MOL0     H87480   1.060   5.917   0.348  1.2318 -0.5721  0.0683
  649MOL0     O87481   2.785   7.391   1.332 -0.2468  0.8987 -0.1642
  649MOL0     C87482   2.910   7.386   1.317  1.2229 -0.2543 -0.5553
  649MOL0     O87483   2.975   7.427   1.205  0.1370 -0.8734  0.4204
  649MOL0     C87484   2.904   7.435   1.088 -0.2300  0.6250  0.1903
  649MOL0     C87485   2.948   7.539   1.002  0.4235 -0.9471 -0.6118
  649MOL0     C87486   2.877   7.564   0.885 -0.6220 -1.1361 -0.1724
  649MOL0     C87487   2.764   7.501   0.841 -0.4096 -0.0108  0.3593
  649MOL0     O87488   2.722   7.523   0.710  0.4001  0.2896  0.7202
  649MOL0     C87489   2.602   7.465   0.668  0.2230 -0.1820 -0.1148
  649MOL0     C87490   2.559   7.525   0.534  0.7185  0.6986  0.0581
  649MOL0     C87491   2.490   7.666   0.539 -0.8493  0.5261 -0.6174
  649MOL0     C87492   2.539   7.750   0.423  0.7222 -0.9605  0.1279
  649MOL0     C87493   2.455   7.881   0.427  0.3506 -0.8172 -0.1968
  649MOL0     C87494   2.538   8.000   0.366 -0.2496 -0.0767 -0.8119
  649MOL0     C87495   2.449   8.125   0.361  0.2251 -0.5902 -0.1861
  649MOL0     C87496   2.338   8.097   0.258 -0.5549 -0.5460 -0.2703
  649MOL0     N87497   2.358   8.155   0.122 -0.0039 -0.0122 -0.1730
  649MOL0     C87498   2.326   8.276   0.078  0.6566 -0.6834 -0.4437
  649MOL0     C87499   2.361   8.275  -0.051  0.7447  0.2348  0.5181
  649MOL0     C87500   2.371   8.396  -0.153  0.8052 -0.5303 -0.1677
  649MOL0     C87501   2.339   8.363  -0.296  0.6430 -0.3321  0.6580
  649MOL0     C87502   2.355   8.479  -0.389  0.0968  0.3619  0.5258
  649MOL0     C87503   2.432   8.444  -0.505  0.9998  0.4808  0.3742
  649MOL0     O87504   2.397   8.546  -0.603  0.7937 -0.0693 -0.3418
  649MOL0     C87505   2.458   8.538  -0.724  0.5022 -0.2598  0.1195
  649MOL0     C87506   2.555   8.446  -0.756  0.4943  0.6351  0.3614
  649MOL0     C87507   2.615   8.441  -0.883  0.7355  0.7094 -0.2966
  649MOL0     C87508   2.711   8.329  -0.920  0.0647  0.2787 -0.2227
  649MOL0     C87509   2.596   8.552  -0.967  0.8491 -0.3115 -0.7948
  649MOL0     C87510   2.676   8.560  -1.093  0.1584 -0.5727  0.3078
  649MOL0     O87511   2.789   8.485  -1.117 -0.0686  0.0168 -0.4076
  649MOL0     C87512   2.862   8.492  -1.228  0.7830 -0.8909 -0.3124
  649MOL0     C87513   2.990   8.545  -1.224  0.5039 -0.5444 -1.0077
  649MOL0     C87514   3.074   8.546  -1.335  0.8102 -0.0238 -0.4192
  649MOL0     C87515   3.039   8.486  -1.453 -0.3225 -0.8421  0.1920
  649MOL0     O87516   3.134   8.505  -1.553  0.5741  0.5145 -0.2408
  649MOL0     C87517   3.101   8.450  -1.681  0.1237  0.1354  0.4256
  649MOL0     C87518   3.222   8.450  -1.771  0.2339 -0.0811  0.6776
  649MOL0     C87519   3.320   8.343  -1.740  0.2817 -0.1101 -0.9368
  649MOL0     C87520   3.441   8.370  -1.805 -0.6274  0.2100 -0.0916
  649MOL0     C87521   3.514   8.235  -1.818  0.6739 -0.3912  0.6714
  649MOL0     C87522   3.496   8.177  -1.960 -0.1405 -0.1670  0.9153
  649MOL0     C87523   3.585   8.047  -1.979 -0.2430  0.6679  0.4788
  649MOL0     C87524   3.540   7.966  -2.103 -0.1114 -0.3365 -0.0923
  649MOL0    Cl87525   3.631   7.820  -2.120  0.5652  0.0266  0.0678
  649MOL0     C87526   2.909   8.440  -1.463  0.8852 -0.2421 -0.1050
  649MOL0     C87527   2.827   8.439  -1.351 -0.4047 -0.4169  0.7238
  649MOL0     O87528   2.639   8.652  -1.168  0.3142  0.3195  0.0529
  649MOL0     C87529   2.502   8.654  -0.934 -0.3004  0.8885 -0.6004
  649MOL0     C87530   2.434   8.645  -0.815 -0.1948 -0.3597  0.6222
  649MOL0     N87531   2.416   8.153  -0.082  0.0516  0.1536  0.2314
  649MOL0     N87532   2.394   8.077   0.015  1.3995 -0.2582 -0.1827
  649MOL0     C87533   2.720   7.397   0.919  0.2347  0.1776 -0.7382
  649MOL0     C87534   2.795   7.358   1.037  0.2433 -0.0938  0.1519
  649MOL0     C87535   2.979   7.322   1.428  0.5884 -0.0671  0.4765
  649MOL0     C87536   2.934   7.326   1.557 -0.8555 -0.7584  0.3840
  649MOL0     C87537   2.997   7.245   1.658 -0.8344 -0.1010  0.0083
  649MOL0     C87538   3.113   7.172   1.631 -0.5638 -0.8888 -0.0612
  649MOL0     O87539   3.178   7.110   1.736  0.0630  0.2438 -0.7846
  649MOL0     C87540   3.297   7.039   1.717  0.0481 -0.0176  0.8394
  649MOL0     C87541   3.321   6.936   1.826 -0.5123  0.5299  0.7076
  649MOL0     C87542   3.396   6.806   1.771  0.6372  0.0047  0.2875
  649MOL0     C87543   3.466   6.742   1.888 -0.4100 -0.5204  0.4104
  649MOL0     C87544   3.535   6.620   1.845  0.4124 -0.5277 -0.4145
  649MOL0     C87545   3.588   6.528   1.793  0.0413 -0.2780  0.4701
  649MOL0     C87546   3.163   7.177   1.498 -0.1549  0.2151 -0.4451
  649MOL0     C87547   3.100   7.258   1.399  0.0577 -0.7401 -0.7897
  649MOL0     H87548   3.033   7.601   1.029  0.5311 -0.2883 -2.3228
  649MOL0     H87549   2.928   7.634   0.820  1.1198 -1.4746  0.7729
  649MOL0     H87550   2.624   7.358   0.664  3.6150  0.3986  0.5386
  649MOL0     H87551   2.521   7.495   0.735 -0.5804  0.7668 -1.4583
  649MOL0     H87552   2.644   7.528   0.465  0.0075 -3.7455 -1.3629
  649MOL0     H87553   2.491   7.449   0.493  2.1485 -1.0120  0.7416
  649MOL0     H87554   2.383   7.646   0.527 -1.3420  1.0010  2.2306
  649MOL0     H87555   2.499   7.716   0.636 -0.9910 -1.0459  0.2272
  649MOL0     H87556   2.643   7.762   0.458 -0.1682  1.2225  2.3640
  649MOL0     H87557   2.536   7.717   0.319 -3.2543 -1.0528  0.1462
  649MOL0     H87558   2.369   7.850   0.367  0.4293 -1.3758 -0.0293
  649MOL0     H87559   2.418   7.908   0.526 -2.4624 -0.4930 -1.2610
  649MOL0     H87560   2.620   8.008   0.437 -0.8576 -2.3007  0.2206
  649MOL0     H87561   2.577   7.970   0.268  1.4804  1.5373 -0.6519
  649MOL0     H87562   2.403   8.136   0.459 -0.8511  0.8402 -0.8012
  649MOL0     H87563   2.499   8.221   0.341 -1.9945  1.0550  1.6358
  649MOL0     H87564   2.241   8.127   0.299 -0.7465 -4.1430  2.4243
  649MOL0     H87565   2.314   7.993   0.232 -4.1761  0.5581 -1.9575
  649MOL0     H87566   2.284   8.359   0.135  1.1403 -0.0402 -1.0006
  649MOL0     H87567   2.300   8.475  -0.122  0.9596 -0.3283 -0.3274
  649MOL0     H87568   2.475   8.430  -0.151  0.2870  1.2757 -1.5811
  649MOL0     H87569   2.235   8.333  -0.309  0.1963  1.1446  0.7204
  649MOL0     H87570   2.397   8.274  -0.324 -0.8770 -1.5506  1.2151
  649MOL0     H87571   2.414   8.558  -0.339  1.1444 -0.5601  0.7924
  649MOL0     H87572   2.258   8.519  -0.419  1.6842  0.7616 -5.3814
  649MOL0     H87573   2.418   8.344  -0.548 -2.2571  1.6586 -1.6977
  649MOL0     H87574   2.537   8.460  -0.478  0.8751  4.1100 -0.6744
  649MOL0     H87575   2.579   8.366  -0.687 -0.5717  1.4509  1.7345
  649MOL0     H87576   2.690   8.297  -1.022  1.9389  1.1823 -0.9401
  649MOL0     H87577   2.815   8.363  -0.915 -0.4335  1.6817  1.0467
  649MOL0     H87578   2.706   8.249  -0.845 -3.0661 -0.1543 -0.7779
  649MOL0     H87579   3.023   8.582  -1.127  2.4796  2.7947 -2.7650
  649MOL0     H87580   3.161   8.610  -1.321  0.9673 -0.6164  1.6011
  649MOL0     H87581   3.050   8.354  -1.681  0.1775 -0.0213 -2.7894
  649MOL0     H87582   3.027   8.523  -1.716 -1.9302 -0.7469  2.6430
  649MOL0     H87583   3.194   8.440  -1.876 -1.5100  4.9087  0.3897
  649MOL0     H87584   3.267   8.548  -1.750 -1.0566  0.4420  1.1400
  649MOL0     H87585   3.282   8.247  -1.777 -1.2721  0.4834 -0.9737
  649MOL0     H87586   3.336   8.329  -1.633 -3.5224 -1.2153 -0.3487
  649MOL0     H87587   3.420   8.413  -1.903 -1.6747 -0.3608 -0.1274
  649MOL0     H87588   3.506   8.435  -1.745 -0.8219  0.7031 -0.4117
  649MOL0     H87589   3.472   8.167  -1.744 -2.6061 -0.6436 -1.2121
  649MOL0     H87590   3.615   8.235  -1.776  0.5095 -1.9346  1.1091
  649MOL0     H87591   3.392   8.164  -1.992 -0.0055  4.1426 -2.3149
  649MOL0     H87592   3.536   8.235  -2.045  0.2372  0.6155  1.6088
  649MOL0     H87593   3.573   7.982  -1.891 -3.1190 -0.3494 -0.5479
  649MOL0     H87594   3.691   8.072  -1.986 -0.2771  0.4753 -0.9521
  649MOL0     H87595   3.547   8.026  -2.194 -1.9386  0.7741  0.4382
  649MOL0     H87596   3.434   7.941  -2.092 -1.8349  4.0991 -3.5125
  649MOL0     H87597   2.880   8.398  -1.559  1.2641 -1.7842  0.4348
  649MOL0     H87598   2.734   8.385  -1.360 -1.0327  0.8291 -0.7308
  649MOL0     H87599   2.478   8.744  -0.990  1.3587 -0.4780 -3.7996
  649MOL0     H87600   2.361   8.723  -0.793 -0.3468 -0.7090  1.3823
  649MOL0     H87601   2.634   7.335   0.895 -0.6832  1.8478 -2.0380
  649MOL0     H87602   2.737   7.287   1.096  2.7856 -1.5532  1.0557
  649MOL0     H87603   2.845   7.385   1.575  0.6257  2.1272 -1.0629
  649MOL0     H87604   2.951   7.259   1.756  0.5707  3.7855  0.2923
  649MOL0     H87605   3.290   6.984   1.623  0.1473 -0.4402  1.0769
  649MOL0     H87606   3.381   7.108   1.702  0.9826 -0.3991  3.7556
  649MOL0     H87607   3.236   6.904   1.887 -0.3639  2.1313  1.8010
  649MOL0     H87608   3.394   6.989   1.887 -1.2611  2.5117 -0.0577
  649MOL0     H87609   3.471   6.831   1.695 -1.3653  0.9865 -1.4544
  649MOL0     H87610   3.315   6.744   1.732  0.9858 -1.4073  1.6868
  649MOL0     H87611   3.396   6.721   1.969 -0.2977  1.7188  1.1465
  649MOL0     H87612   3.540   6.804   1.939 -1.2435  2.5462 -1.8411
  649MOL0     H87613   3.645   6.446   1.755  0.3151  0.6880 -1.3374
  649MOL0     H87614   3.263   7.154   1.461  0.7903  3.6047 -0.3484
  649MOL0     H87615   3.140   7.262   1.298 -0.1343 -3.4768 -1.0633
  650MOL0     O87616  10.894   2.389   0.328 -0.0847 -0.4204  0.2534
  650MOL0     C87617  11.000   2.334   0.318 -0.1634  0.7561 -0.7498
  650MOL0     O87618  11.105   2.382   0.250  0.1047 -0.5631 -1.0241
  650MOL0     C87619  11.102   2.505   0.195  0.4003  0.4471  0.1395
  650MOL0     C87620  11.222   2.519   0.130 -0.6149 -0.1103  0.4473
  650MOL0     C87621  11.253   2.638   0.065 -0.6959 -0.1146  0.1124
  650MOL0     C87622  11.166   2.752   0.075 -0.2491  0.1261 -0.1233
  650MOL0     O87623  11.189   2.881   0.027  0.5104 -0.4254  0.4425
  650MOL0     C87624  11.315   2.910  -0.037 -1.2369 -0.0564  0.4070
  650MOL0     C87625  11.439   2.917   0.050 -0.6172  0.1658  0.4694
  650MOL0     C87626  11.438   3.049   0.125  0.1126  0.5786 -0.0626
  650MOL0     C87627  11.535   3.145   0.047 -0.6084 -0.9191 -0.4703
  650MOL0     C87628  11.569   3.256   0.129 -0.4063 -0.6041 -1.2540
  650MOL0     C87629  11.674   3.229   0.240  0.2156  0.3750 -0.2281
  650MOL0     C87630  11.803   3.167   0.191  0.9713  0.2963 -0.0145
  650MOL0     C87631  11.917   3.171   0.301 -0.1229  0.3694  0.7081
  650MOL0     N87632  12.036   3.098   0.259  0.4199 -0.0993 -0.2586
  650MOL0     C87633  12.049   2.966   0.250 -0.5765 -1.3565 -0.1738
  650MOL0     C87634  12.175   2.941   0.217  0.1132  0.4020  0.0790
  650MOL0     C87635  12.224   2.798   0.202 -0.3104 -0.8080  0.2649
  650MOL0     C87636  12.164   2.711   0.306  1.0949  0.1769 -1.1503
  650MOL0     C87637  12.224   2.568   0.333  1.0996 -0.5748  0.5820
  650MOL0     C87638  12.161   2.501   0.457 -0.2433  0.1356 -0.0583
  650MOL0     O87639  12.020   2.505   0.459 -0.5350 -0.8187 -0.0964
  650MOL0     C87640  11.957   2.421   0.543  0.3287  0.1506  0.1946
  650MOL0     C87641  11.867   2.465   0.643 -0.4981 -0.0260 -0.3367
  650MOL0     C87642  11.809   2.373   0.730  0.4719  0.4263  0.6174
  650MOL0     C87643  11.717   2.418   0.838  0.1459  0.1105 -0.1577
  650MOL0     C87644  11.868   2.237   0.726  0.3693 -0.0401  0.2649
  650MOL0     C87645  11.825   2.135   0.815  0.3575  0.3415 -0.7430
  650MOL0     O87646  11.713   2.151   0.888 -0.6782 -0.4542 -0.8907
  650MOL0     C87647  11.672   2.068   0.999  0.1299 -0.6053  0.0024
  650MOL0     C87648  11.763   2.005   1.085 -0.1485 -0.4384  0.0445
  650MOL0     C87649  11.711   1.930   1.190 -0.0010  0.5115 -0.4146
  650MOL0     C87650  11.569   1.898   1.205 -0.2740  0.1513 -0.3851
  650MOL0     O87651  11.545   1.816   1.309 -0.0195 -0.0352  0.2758
  650MOL0     C87652  11.415   1.764   1.334  0.3733 -0.5142 -0.5797
  650MOL0     C87653  11.424   1.624   1.288 -0.2253 -1.4146  0.1094
  650MOL0     C87654  11.519   1.540   1.375  0.2126  0.7141 -0.7409
  650MOL0     C87655  11.506   1.389   1.337 -0.0111  0.1466 -0.2817
  650MOL0     C87656  11.604   1.304   1.418  0.2167  0.2381  0.4554
  650MOL0     C87657  11.749   1.330   1.365 -0.5120  0.6041  0.2392
  650MOL0     C87658  11.845   1.215   1.405 -0.1258 -0.4098  0.7518
  650MOL0     C87659  11.970   1.221   1.320 -0.1277  1.0122 -1.2063
  650MOL0    Cl87660  12.083   1.088   1.392 -0.2620 -0.0182  0.6396
  650MOL0     C87661  11.475   1.963   1.123 -0.8833  0.8244  0.2003
  650MOL0     C87662  11.528   2.044   1.021 -0.5218 -0.5217 -0.1968
  650MOL0     O87663  11.891   2.035   0.818 -0.3286  0.6167  0.7203
  650MOL0     C87664  11.954   2.199   0.621 -0.8361 -0.3125 -0.0818
  650MOL0     C87665  11.994   2.289   0.528  0.4528  0.2199  0.7422
  650MOL0     N87666  12.243   3.058   0.208 -0.6733 -0.6310  0.4575
  650MOL0     N87667  12.159   3.150   0.238  0.6405 -0.7333  0.1185
  650MOL0     C87668  11.044   2.731   0.144 -0.8539 -1.0955 -0.5578
  650MOL0     C87669  11.015   2.616   0.200  0.3306  0.3646 -0.1829
  650MOL0     C87670  11.014   2.211   0.395 -0.5932  0.2200 -0.2911
  650MOL0     C87671  10.908   2.170   0.483  1.0015 -0.0615 -0.0716
  650MOL0     C87672  10.910   2.056   0.552 -0.3428  0.6518 -0.8885
  650MOL0     C87673  11.027   1.974   0.562 -0.3108 -0.0718 -0.1437
  650MOL0     O87674  11.028   1.855   0.623 -0.1961 -0.0204  0.0529
  650MOL0     C87675  10.917   1.818   0.694  0.2597  0.7514  0.2629
  650MOL0     C87676  10.942   1.677   0.744  0.0102 -0.5244  0.7479
  650MOL0     C87677  11.010   1.686   0.890 -0.1831  0.4369 -0.3742
  650MOL0     C87678  11.020   1.545   0.949  0.5208  0.4789  0.2177
  650MOL0     C87679  11.091   1.453   0.859  0.0952  0.4037  0.4515
  650MOL0     C87680  11.147   1.375   0.781 -0.0772 -0.6671  0.5100
  650MOL0     C87681  11.131   2.002   0.477 -0.3767  0.4564  0.0016
  650MOL0     C87682  11.127   2.116   0.393  0.2565 -0.1297 -0.6839
  650MOL0     H87683  11.294   2.438   0.126  0.0867  0.5075  0.4851
  650MOL0     H87684  11.335   2.650  -0.005  0.3685 -1.1633  1.1133
  650MOL0     H87685  11.335   2.840  -0.119  2.0166 -4.1798  4.2331
  650MOL0     H87686  11.304   3.008  -0.085  1.9391  0.0160 -0.4269
  650MOL0     H87687  11.454   2.830   0.115  1.4465  0.7102  0.8046
  650MOL0     H87688  11.522   2.929  -0.020 -0.6232  3.9025  0.8899
  650MOL0     H87689  11.339   3.094   0.129 -1.1675 -2.1470  1.1085
  650MOL0     H87690  11.466   3.034   0.230 -0.9785  0.4185  0.2131
  650MOL0     H87691  11.630   3.098   0.019 -0.5327 -1.1452  0.1569
  650MOL0     H87692  11.485   3.179  -0.044 -0.6612  1.2396  0.3073
  650MOL0     H87693  11.612   3.336   0.068  2.9509 -0.9220  0.4808
  650MOL0     H87694  11.480   3.301   0.175  1.6990 -0.4303  3.2292
  650MOL0     H87695  11.701   3.325   0.285 -2.4219  1.3263 -0.5061
  650MOL0     H87696  11.634   3.172   0.324  0.6402  0.5098  0.0675
  650MOL0     H87697  11.778   3.061   0.182  1.1500  0.2780 -0.3191
  650MOL0     H87698  11.838   3.205   0.094  0.3045 -0.6119 -0.6275
  650MOL0     H87699  11.889   3.114   0.390  2.6953 -0.8873  0.9161
  650MOL0     H87700  11.949   3.271   0.329  1.6953  0.0536 -0.0645
  650MOL0     H87701  11.971   2.893   0.266 -0.3550 -1.6934 -0.6270
  650MOL0     H87702  12.209   2.748   0.105  0.5009 -3.6042  1.4864
  650MOL0     H87703  12.331   2.792   0.222 -0.4397 -1.1224  0.8765
  650MOL0     H87704  12.059   2.704   0.277  0.9647  0.6800 -0.8123
  650MOL0     H87705  12.157   2.765   0.401  2.1295 -1.9776  0.2255
  650MOL0     H87706  12.331   2.583   0.351  1.0568  1.8144 -0.7590
  650MOL0     H87707  12.208   2.506   0.245  1.0689 -2.5051  1.8821
  650MOL0     H87708  12.187   2.563   0.543 -2.5544 -0.6620  1.3101
  650MOL0     H87709  12.207   2.403   0.477  3.6177  2.2374  2.7916
  650MOL0     H87710  11.827   2.565   0.652 -0.2438  0.0628 -0.1806
  650MOL0     H87711  11.707   2.527   0.847  0.5509  0.1460 -0.1043
  650MOL0     H87712  11.612   2.392   0.824 -0.2900  0.2952  2.2846
  650MOL0     H87713  11.747   2.375   0.934 -2.0481 -1.3662 -0.0716
  650MOL0     H87714  11.871   2.003   1.077 -0.1619 -4.0262 -1.1799
  650MOL0     H87715  11.779   1.864   1.242 -0.9744 -1.7558 -1.8832
  650MOL0     H87716  11.389   1.773   1.440 -2.1297  1.2710 -1.2522
  650MOL0     H87717  11.339   1.807   1.268  1.7874  2.8055 -0.2326
  650MOL0     H87718  11.324   1.580   1.301 -0.5855 -0.3673  1.0757
  650MOL0     H87719  11.444   1.630   1.181  0.0312  1.2617  0.2498
  650MOL0     H87720  11.488   1.541   1.480 -3.8744 -3.5319 -1.6016
  650MOL0     H87721  11.624   1.569   1.371  0.8293 -0.3758  3.1767
  650MOL0     H87722  11.401   1.369   1.362 -0.3810  1.5271 -0.6176
  650MOL0     H87723  11.517   1.383   1.229  1.2663  1.6408 -0.2794
  650MOL0     H87724  11.589   1.195   1.419  2.0150 -0.0455  0.0549
  650MOL0     H87725  11.588   1.326   1.524 -1.6129 -0.2723  0.3166
  650MOL0     H87726  11.751   1.334   1.256 -5.9115 -0.8764 -0.2278
  650MOL0     H87727  11.775   1.426   1.409  0.7886  0.8746 -1.0497
  650MOL0     H87728  11.802   1.117   1.382  1.3918 -0.2816 -3.6021
  650MOL0     H87729  11.871   1.210   1.511  1.1367  0.4101  0.4930
  650MOL0     H87730  12.007   1.322   1.339  0.6973  0.4356  0.4584
  650MOL0     H87731  11.961   1.202   1.213  1.3832 -2.3113 -0.8790
  650MOL0     H87732  11.367   1.953   1.130 -1.0884 -0.6069 -2.9482
  650MOL0     H87733  11.462   2.101   0.957  0.6054  1.4178  0.2882
  650MOL0     H87734  11.994   2.099   0.608  2.2392  1.0490 -2.3322
  650MOL0     H87735  12.048   2.263   0.437 -1.2620  0.8361 -0.5020
  650MOL0     H87736  10.966   2.806   0.146 -2.0246 -2.1712 -2.6230
  650MOL0     H87737  10.916   2.613   0.244  0.4652  0.9340  0.1613
  650MOL0     H87738  10.820   2.234   0.480  0.4906 -0.6082  2.0378
  650MOL0     H87739  10.819   2.035   0.606 -0.2275 -0.5018 -1.1042
  650MOL0     H87740  10.894   1.887   0.776  2.4878  1.3926  0.4232
  650MOL0     H87741  10.826   1.829   0.634  1.2613  1.7912 -1.1220
  650MOL0     H87742  11.010   1.621   0.680  1.8188 -1.2054  3.1268
  650MOL0     H87743  10.843   1.632   0.756 -2.0976  3.0524 -1.2629
  650MOL0     H87744  10.955   1.749   0.961 -1.5891  0.1996 -1.2170
  650MOL0     H87745  11.103   1.744   0.882  0.9002 -1.4787 -2.7554
  650MOL0     H87746  10.914   1.519   0.949  0.3196  0.6509 -3.9675
  650MOL0     H87747  11.053   1.541   1.053  0.8393  0.8715  0.1386
  650MOL0     H87748  11.202   1.315   0.711 -1.9962 -2.1299  0.1698
  650MOL0     H87749  11.217   1.936   0.478 -1.0021 -0.4107  1.8123
  650MOL0     H87750  11.215   2.130   0.331  1.5670  1.9189  1.4687
  651MOL0     O87751   1.529   0.490   1.039  0.3097 -0.4530  0.0305
  651MOL0     C87752   1.590   0.399   1.088 -0.8231  0.3257 -0.0137
  651MOL0     O87753   1.547   0.267   1.090 -0.3220  0.3732 -0.8564
  651MOL0     C87754   1.419   0.227   1.076  0.6217 -0.1817 -0.2672
  651MOL0     C87755   1.297   0.301   1.076  0.0912 -0.6695 -0.5829
  651MOL0     C87756   1.178   0.246   1.027 -0.2459  0.0668  0.1457
  651MOL0     C87757   1.175   0.109   0.987  0.5771  0.1734  0.1559
  651MOL0     O87758   1.058   0.049   0.938  0.1287 -0.0936 -1.0199
  651MOL0     C87759   0.935   0.118   0.934  0.1002  0.1863  0.0147
  651MOL0     C87760   0.868   0.104   1.073  1.0795  0.3892 -0.8224
  651MOL0     C87761   0.843  -0.049   1.102  0.8903 -0.4042 -0.2411
  651MOL0     C87762   0.768  -0.079   1.228  0.5540  0.3083 -0.2255
  651MOL0     C87763   0.714  -0.235   1.235 -0.0347 -0.0535 -0.4929
  651MOL0     C87764   0.578  -0.238   1.162  0.2717  1.3148 -0.0504
  651MOL0     C87765   0.522  -0.376   1.145  0.7258  0.5156  0.2016
  651MOL0     C87766   0.386  -0.383   1.081 -0.7844  0.2364 -0.8343
  651MOL0     N87767   0.292  -0.310   1.170  0.1418  0.8007  0.2144
  651MOL0     C87768   0.249  -0.349   1.295 -0.1899 -0.3896 -0.3848
  651MOL0     C87769   0.136  -0.281   1.332  0.4147  0.4728  0.1944
  651MOL0     C87770   0.050  -0.291   1.443 -0.2872 -0.2212  0.3860
  651MOL0     C87771  -0.094  -0.337   1.420  0.3079  0.1325 -0.4345
  651MOL0     C87772  -0.189  -0.229   1.369 -0.3455  0.3766 -0.3220
  651MOL0     C87773  -0.203  -0.112   1.470 -0.1322  1.3456 -0.6355
  651MOL0     O87774  -0.303  -0.024   1.424 -0.2499  0.1878  0.6415
  651MOL0     C87775  -0.277   0.061   1.318  1.6660 -0.4196  0.2795
  651MOL0     C87776  -0.157   0.080   1.241 -0.2280 -0.3679 -0.8570
  651MOL0     C87777  -0.148   0.166   1.139  0.2717  1.1912  0.1847
  651MOL0     C87778  -0.018   0.180   1.062 -0.4069  0.4718  0.5015
  651MOL0     C87779  -0.269   0.236   1.095  0.5959  0.0853 -0.2760
  651MOL0     C87780  -0.277   0.351   1.003 -0.2460  0.1393 -0.5039
  651MOL0     O87781  -0.393   0.412   0.977  0.0202  0.2690 -0.5953
  651MOL0     C87782  -0.410   0.501   0.877 -0.3202 -0.0471  0.4679
  651MOL0     C87783  -0.480   0.456   0.760 -0.7448 -0.5152 -0.7499
  651MOL0     C87784  -0.499   0.559   0.665  0.1940 -0.4454 -0.0457
  651MOL0     C87785  -0.458   0.687   0.675  0.1077  0.0556 -0.4761
  651MOL0     O87786  -0.492   0.787   0.587 -0.8985  0.1059 -0.2820
  651MOL0     C87787  -0.487   0.751   0.449 -0.5409 -0.4054  0.2304
  651MOL0     C87788  -0.533   0.863   0.356  1.0349  0.5612 -0.2285
  651MOL0     C87789  -0.441   0.981   0.323 -0.2927 -0.1503 -0.4631
  651MOL0     C87790  -0.334   0.940   0.221 -0.3908 -0.7562  0.6276
  651MOL0     C87791  -0.250   1.060   0.162 -0.4346 -0.5590 -0.0078
  651MOL0     C87792  -0.127   1.014   0.081  1.5962 -0.0477  0.6644
  651MOL0     C87793  -0.152   1.018  -0.075 -1.3857  0.5275 -0.6173
  651MOL0     C87794  -0.028   0.985  -0.152 -0.6236  0.3358  0.5823
  651MOL0    Cl87795   0.005   0.818  -0.116 -0.1890  0.2111  0.6883
  651MOL0     C87796  -0.390   0.726   0.785 -0.2160 -0.0137 -1.0541
  651MOL0     C87797  -0.356   0.625   0.886  0.3215 -1.0057 -0.6153
  651MOL0     O87798  -0.169   0.394   0.963  0.7381  0.5116  0.1591
  651MOL0     C87799  -0.391   0.216   1.165 -1.1646  0.8646 -0.8689
  651MOL0     C87800  -0.394   0.133   1.280 -0.6568  0.3715  0.9957
  651MOL0     N87801   0.119  -0.192   1.224  0.4015 -1.4845 -0.3680
  651MOL0     N87802   0.206  -0.213   1.136  0.3765 -0.2610  0.1724
  651MOL0     C87803   1.290   0.036   0.998 -0.2756  0.0285  0.0339
  651MOL0     C87804   1.407   0.094   1.042 -0.2375 -0.4572 -0.5600
  651MOL0     C87805   1.731   0.426   1.120 -0.0729 -1.0968  0.4068
  651MOL0     C87806   1.782   0.560   1.128 -0.7277  0.7240  0.1143
  651MOL0     C87807   1.918   0.580   1.165 -0.1873  1.2571  0.2604
  651MOL0     C87808   2.006   0.470   1.190 -0.0236  0.5284  1.3301
  651MOL0     O87809   2.132   0.506   1.232 -0.3216  0.2327  0.0943
  651MOL0     C87810   2.234   0.403   1.270  0.7839 -0.2186  0.0104
  651MOL0     C87811   2.367   0.483   1.261 -0.9205 -0.3270  0.4226
  651MOL0     C87812   2.380   0.571   1.136  0.5825 -0.9203 -0.7477
  651MOL0     C87813   2.527   0.563   1.094 -0.4946 -0.3427  0.5396
  651MOL0     C87814   2.549   0.663   0.988  0.4564 -1.0054  0.6164
  651MOL0     C87815   2.566   0.743   0.897  0.0585 -0.9673 -1.0308
  651MOL0     C87816   1.962   0.340   1.160  0.4529 -0.5699 -0.3022
  651MOL0     C87817   1.832   0.322   1.129  0.8612 -0.4178 -0.6112
  651MOL0     H87818   1.287   0.403   1.112 -0.8350 -0.7782 -0.4938
  651MOL0     H87819   1.094   0.314   1.017 -0.9982 -0.6415  1.3177
  651MOL0     H87820   0.955   0.219   0.898  2.6619 -0.0099  0.6482
  651MOL0     H87821   0.873   0.056   0.869  1.0115 -1.4528  0.6316
  651MOL0     H87822   0.939   0.151   1.141  1.0902  1.6958 -1.7065
  651MOL0     H87823   0.774   0.159   1.084  1.3752  0.8264 -0.4322
  651MOL0     H87824   0.798  -0.092   1.012 -1.3512 -0.8993  1.0559
  651MOL0     H87825   0.935  -0.109   1.114  0.1272 -1.6879 -0.5968
  651MOL0     H87826   0.831  -0.045   1.310  3.2695 -0.1233 -1.9976
  651MOL0     H87827   0.681  -0.015   1.218  0.8682  0.5582 -1.6563
  651MOL0     H87828   0.781  -0.309   1.188 -0.4691 -1.1813  0.6110
  651MOL0     H87829   0.712  -0.262   1.341 -0.0707 -2.8139 -1.1095
  651MOL0     H87830   0.515  -0.179   1.229 -0.4362 -1.0185  1.4525
  651MOL0     H87831   0.582  -0.197   1.060 -1.3429 -0.9873 -1.1324
  651MOL0     H87832   0.588  -0.447   1.094 -1.2531  0.2105 -2.0981
  651MOL0     H87833   0.510  -0.418   1.246  1.9516  0.0195  0.1639
  651MOL0     H87834   0.359  -0.488   1.068 -0.3410 -0.6189  3.4848
  651MOL0     H87835   0.390  -0.332   0.985 -3.6535  0.9428 -0.6775
  651MOL0     H87836   0.305  -0.418   1.358  1.9513 -0.2087 -1.9641
  651MOL0     H87837   0.104  -0.362   1.508  3.0006  2.3457  0.7130
  651MOL0     H87838   0.041  -0.206   1.511 -3.9110 -0.5124  0.4492
  651MOL0     H87839  -0.132  -0.360   1.520  1.2676 -1.0539 -0.3243
  651MOL0     H87840  -0.109  -0.427   1.361  0.2326 -1.1550  1.4527
  651MOL0     H87841  -0.290  -0.267   1.349  0.6991 -2.1720 -1.1172
  651MOL0     H87842  -0.154  -0.191   1.273 -0.1375  0.8042 -0.0823
  651MOL0     H87843  -0.108  -0.060   1.483  0.6737 -0.3654  0.8144
  651MOL0     H87844  -0.227  -0.155   1.568  0.6363 -0.6977 -1.2694
  651MOL0     H87845  -0.075   0.015   1.270 -0.9669 -1.4517 -1.0993
  651MOL0     H87846  -0.029   0.199   0.955 -0.9851  1.3610  0.7071
  651MOL0     H87847   0.033   0.264   1.110 -1.1691  0.6738  0.9910
  651MOL0     H87848   0.048   0.093   1.073  0.5670  1.0571 -0.6280
  651MOL0     H87849  -0.523   0.356   0.758 -2.3804  0.0560  1.4387
  651MOL0     H87850  -0.551   0.530   0.574  0.4692 -1.2645  0.0505
  651MOL0     H87851  -0.384   0.721   0.428 -0.5601  1.0380 -2.3204
  651MOL0     H87852  -0.548   0.663   0.429  2.3396 -2.6863  0.7492
  651MOL0     H87853  -0.560   0.804   0.268 -0.8913 -1.8301  1.8269
  651MOL0     H87854  -0.625   0.891   0.408 -0.3532 -0.1893 -2.1585
  651MOL0     H87855  -0.389   0.985   0.420  0.9725 -0.0375 -1.1231
  651MOL0     H87856  -0.504   1.064   0.290 -0.6363 -1.1777 -2.5470
  651MOL0     H87857  -0.261   0.873   0.268 -1.9022 -2.2572  0.9167
  651MOL0     H87858  -0.379   0.885   0.138  1.5599  0.7921 -1.5831
  651MOL0     H87859  -0.218   1.125   0.244  1.5169 -0.2503 -0.9519
  651MOL0     H87860  -0.324   1.120   0.109 -1.9379 -0.2639  2.3151
  651MOL0     H87861  -0.042   1.075   0.110  1.4977 -0.4066  1.7344
  651MOL0     H87862  -0.104   0.912   0.111  0.1991 -1.8078 -3.5037
  651MOL0     H87863  -0.202   1.110  -0.105 -3.4849  0.4505  2.2219
  651MOL0     H87864  -0.223   0.940  -0.104 -0.5141 -0.6703  0.3279
  651MOL0     H87865   0.055   1.043  -0.111 -0.5597  1.2605 -0.8153
  651MOL0     H87866  -0.051   1.010  -0.256  1.9870  4.4148  0.7562
  651MOL0     H87867  -0.363   0.830   0.795 -0.8972  0.0149  1.3537
  651MOL0     H87868  -0.299   0.642   0.976 -0.9781  0.3885 -0.0108
  651MOL0     H87869  -0.492   0.254   1.156 -2.1993 -1.7611 -1.4068
  651MOL0     H87870  -0.483   0.116   1.340 -0.5412  0.5964  1.2342
  651MOL0     H87871   1.291  -0.066   0.962  2.5223 -1.0965  2.8693
  651MOL0     H87872   1.492   0.033   1.071 -0.2773 -0.9424 -1.4222
  651MOL0     H87873   1.719   0.647   1.109  0.3621  1.1987 -1.5068
  651MOL0     H87874   1.949   0.683   1.175 -1.5040  1.5685  1.4812
  651MOL0     H87875   2.226   0.367   1.373  1.4283  1.8743  0.8486
  651MOL0     H87876   2.228   0.326   1.192 -3.4559 -1.5989  1.4470
  651MOL0     H87877   2.450   0.413   1.275 -0.5736 -0.1483 -0.6670
  651MOL0     H87878   2.375   0.556   1.342  2.1483 -0.7491  0.6089
  651MOL0     H87879   2.337   0.669   1.159 -3.6100 -3.2241  2.7496
  651MOL0     H87880   2.332   0.546   1.041  2.5309  1.4793 -2.5168
  651MOL0     H87881   2.552   0.466   1.051 -1.7326 -1.3576  2.0069
  651MOL0     H87882   2.592   0.587   1.178 -1.0931 -0.5709  1.0749
  651MOL0     H87883   2.572   0.804   0.809 -1.1374 -0.4887 -0.7918
  651MOL0     H87884   2.030   0.256   1.153  1.3148 -0.1616  2.2050
  651MOL0     H87885   1.805   0.218   1.112  2.0896 -1.1268  1.4219
  652MOL0     O87886  10.401   1.664   4.283 -0.7617  0.3404  0.3534
  652MOL0     C87887  10.497   1.732   4.303  0.3736  0.3771 -0.2077
  652MOL0     O87888  10.605   1.705   4.385  0.5769 -0.0189 -0.8875
  652MOL0     C87889  10.605   1.588   4.462  0.0012  0.1699 -0.5430
  652MOL0     C87890  10.507   1.491   4.483  0.1890  0.0687  0.5873
  652MOL0     C87891  10.536   1.381   4.571  0.0063 -0.3913  1.4256
  652MOL0     C87892  10.656   1.374   4.639  0.6580 -0.1473 -0.0151
  652MOL0     O87893  10.690   1.273   4.730 -1.0118 -0.3533 -0.1649
  652MOL0     C87894  10.614   1.146   4.721 -0.4485 -0.2940 -0.4067
  652MOL0     C87895  10.695   1.056   4.812  0.0913  0.4277  0.5592
  652MOL0     C87896  10.598   0.936   4.826 -0.0772  0.4851 -0.6918
  652MOL0     C87897  10.670   0.825   4.893 -0.1308  0.1127  0.2458
  652MOL0     C87898  10.573   0.714   4.938  0.5843 -0.8110  0.1061
  652MOL0     C87899  10.624   0.605   5.024 -0.2032  0.5011  0.0264
  652MOL0     C87900  10.508   0.551   5.113 -0.1187 -0.6815 -0.6805
  652MOL0     C87901  10.535   0.420   5.177  0.6636  0.1000 -0.7395
  652MOL0     N87902  10.566   0.314   5.086 -0.7749 -0.4305  1.0098
  652MOL0     C87903  10.694   0.267   5.077  0.2942  2.4726  0.1051
  652MOL0     C87904  10.665   0.136   5.026 -0.6552 -0.4892 -0.3003
  652MOL0     C87905  10.771   0.027   5.002  0.3608 -0.2191 -0.0099
  652MOL0     C87906  10.725  -0.107   5.075 -0.8951  0.6476 -0.7866
  652MOL0     C87907  10.808  -0.125   5.207  0.5003 -0.7256 -0.0429
  652MOL0     C87908  10.943  -0.190   5.182 -0.1202 -1.3411 -0.0485
  652MOL0     O87909  10.925  -0.327   5.151 -0.3637  0.6166  0.1981
  652MOL0     C87910  11.028  -0.410   5.100  0.4579 -0.3392  0.5080
  652MOL0     C87911  11.004  -0.547   5.089  0.3945  0.9772  0.0550
  652MOL0     C87912  11.073  -0.639   5.017 -0.5876 -1.0091  1.2136
  652MOL0     C87913  11.045  -0.784   5.016 -0.5717  0.1073  0.3896
  652MOL0     C87914  11.190  -0.581   4.956  0.1365  0.4291  0.0343
  652MOL0     C87915  11.293  -0.670   4.884  0.2240  0.6522 -0.6780
  652MOL0     O87916  11.424  -0.618   4.904  0.7263  0.5035  0.1230
  652MOL0     C87917  11.535  -0.677   4.845  1.3245  0.1667 -0.5711
  652MOL0     C87918  11.653  -0.680   4.918 -0.1253 -0.3061  0.5677
  652MOL0     C87919  11.764  -0.748   4.863 -0.9252  0.6129 -0.2245
  652MOL0     C87920  11.762  -0.800   4.729 -0.2333 -0.5786  0.2788
  652MOL0     O87921  11.879  -0.850   4.677 -0.5961 -0.0243  0.1669
  652MOL0     C87922  11.875  -0.935   4.568 -0.7279  0.1673  0.1864
  652MOL0     C87923  12.018  -0.980   4.512 -1.2001 -1.0351 -0.4461
  652MOL0     C87924  12.006  -1.048   4.373 -0.1034 -0.2604  0.4670
  652MOL0     C87925  11.934  -1.184   4.380  0.6847 -1.0188  0.2741
  652MOL0     C87926  11.930  -1.254   4.239  0.1956  0.4690 -0.3219
  652MOL0     C87927  11.862  -1.170   4.126  0.4204  0.1042 -0.5849
  652MOL0     C87928  11.873  -1.249   3.997  0.1242  0.2182  1.1787
  652MOL0     C87929  11.903  -1.166   3.877  0.0435 -0.8458 -0.3287
  652MOL0    Cl87930  11.953  -1.267   3.740  0.0218 -0.3153 -0.1328
  652MOL0     C87931  11.643  -0.795   4.655 -0.1397 -0.4327 -0.1130
  652MOL0     C87932  11.530  -0.723   4.712  0.1620  0.0644  0.1839
  652MOL0     O87933  11.263  -0.785   4.844  0.0803  0.4593  0.4748
  652MOL0     C87934  11.217  -0.448   4.964  0.3690 -0.5941 -1.1084
  652MOL0     C87935  11.134  -0.358   5.035  0.5894  0.9974  0.1965
  652MOL0     N87936  10.536   0.133   4.978  0.1522 -0.1347  0.0922
  652MOL0     N87937  10.477   0.239   5.019  0.5442  0.2029  0.0876
  652MOL0     C87938  10.751   1.462   4.608 -0.6082  0.3223 -0.5571
  652MOL0     C87939  10.731   1.575   4.527  0.0259  0.1288 -1.1286
  652MOL0     C87940  10.500   1.875   4.248  0.1446  1.2592  0.9390
  652MOL0     C87941  10.597   1.961   4.289 -0.3509 -0.6901  0.3923
  652MOL0     C87942  10.608   2.083   4.217  0.7578 -0.0304 -0.2022
  652MOL0     C87943  10.507   2.131   4.136 -0.3582  0.6422  0.1653
  652MOL0     O87944  10.512   2.262   4.086  0.1556 -0.0783 -0.9067
  652MOL0     C87945  10.429   2.359   4.155 -0.3240  1.3183  0.3267
  652MOL0     C87946  10.341   2.442   4.057 -0.3581  0.3397 -0.3179
  652MOL0     C87947  10.250   2.548   4.132 -1.1042  0.4572 -0.1802
  652MOL0     C87948  10.184   2.507   4.260  0.5090 -0.5568 -1.3045
  652MOL0     C87949  10.081   2.406   4.231  0.8842  0.0576  0.1080
  652MOL0     C87950  10.017   2.306   4.197  0.1484 -0.9286 -0.4025
  652MOL0     C87951  10.399   2.046   4.092 -0.6716  0.7112  0.5874
  652MOL0     C87952  10.407   1.912   4.144  0.9744  0.3306  0.6815
  652MOL0     H87953  10.422   1.490   4.415  1.1498  1.7335 -0.7353
  652MOL0     H87954  10.460   1.304   4.585 -0.1174 -0.5258  0.1215
  652MOL0     H87955  10.509   1.160   4.746  0.1984  2.2201  1.3677
  652MOL0     H87956  10.631   1.122   4.616  0.1584  0.4005 -0.4763
  652MOL0     H87957  10.781   1.015   4.756 -0.9417  1.2421 -1.7470
  652MOL0     H87958  10.724   1.098   4.909  0.1382 -0.3722  0.9022
  652MOL0     H87959  10.511   0.967   4.884 -0.5093 -3.5518  1.1078
  652MOL0     H87960  10.566   0.910   4.725  0.1619  1.2281 -0.9632
  652MOL0     H87961  10.748   0.784   4.829  2.2387 -0.3967  3.2653
  652MOL0     H87962  10.709   0.860   4.989 -1.5380 -2.6274  1.9495
  652MOL0     H87963  10.494   0.766   4.992  2.4476  0.0108  2.2514
  652MOL0     H87964  10.525   0.690   4.843  2.1487  2.1058 -1.5637
  652MOL0     H87965  10.668   0.536   4.952  1.7530  0.2662  1.3781
  652MOL0     H87966  10.704   0.646   5.087 -2.4111  1.9016  2.1315
  652MOL0     H87967  10.513   0.631   5.188 -1.8095  2.2200 -3.4098
  652MOL0     H87968  10.410   0.563   5.065 -0.0852 -0.5539 -0.7176
  652MOL0     H87969  10.440   0.391   5.222  1.3376 -1.7902 -0.4618
  652MOL0     H87970  10.609   0.418   5.258  0.0107 -2.1747 -0.1524
  652MOL0     H87971  10.790   0.308   5.106  2.6868 -0.8798 -2.4052
  652MOL0     H87972  10.794  -0.003   4.899  0.9907 -0.7845  0.2934
  652MOL0     H87973  10.867   0.055   5.044  2.1949 -2.2520 -2.5256
  652MOL0     H87974  10.740  -0.197   5.013 -3.4996 -0.7729  0.4878
  652MOL0     H87975  10.617  -0.109   5.090 -1.0076 -1.4995 -1.4327
  652MOL0     H87976  10.749  -0.186   5.276 -1.4045  2.2592  1.1662
  652MOL0     H87977  10.827  -0.026   5.248  0.0837 -0.4585 -0.4854
  652MOL0     H87978  11.002  -0.182   5.274  2.3744  1.4579 -1.7222
  652MOL0     H87979  10.999  -0.119   5.122  2.1153 -1.4365  1.8057
  652MOL0     H87980  10.913  -0.580   5.139  2.0275  1.0962  3.4332
  652MOL0     H87981  11.132  -0.834   5.060 -0.9568  0.8449  2.0442
  652MOL0     H87982  10.954  -0.791   5.074  0.3286  4.3843  2.7345
  652MOL0     H87983  11.020  -0.822   4.916  2.6509  0.2733 -0.6056
  652MOL0     H87984  11.665  -0.650   5.021  1.2273  3.7240 -0.5725
  652MOL0     H87985  11.855  -0.756   4.921  1.0142  1.9379 -2.8593
  652MOL0     H87986  11.823  -1.021   4.609 -0.6032  0.7630  1.6754
  652MOL0     H87987  11.828  -0.885   4.483  3.2050  0.5233 -2.0439
  652MOL0     H87988  12.073  -0.889   4.488 -2.1293  0.7830  3.4132
  652MOL0     H87989  12.082  -1.032   4.584  1.6660  1.9190 -0.6241
  652MOL0     H87990  12.104  -1.066   4.330  0.2271 -0.6324  1.3475
  652MOL0     H87991  11.938  -0.981   4.319 -0.6921 -2.0631 -1.1213
  652MOL0     H87992  11.993  -1.253   4.441  0.9191 -0.7071  0.4070
  652MOL0     H87993  11.836  -1.174   4.428  0.2282  1.4519 -0.9693
  652MOL0     H87994  11.874  -1.348   4.249 -0.6048  1.1668  2.7684
  652MOL0     H87995  12.030  -1.283   4.207  1.1840  0.7239  2.3176
  652MOL0     H87996  11.755  -1.169   4.151  0.2109 -0.0117 -1.4405
  652MOL0     H87997  11.894  -1.066   4.116  0.8966 -0.0918 -1.1450
  652MOL0     H87998  11.781  -1.307   3.986  0.5242 -0.0588 -1.3269
  652MOL0     H87999  11.944  -1.332   4.004 -0.6698 -0.3511  3.0984
  652MOL0     H88000  11.979  -1.092   3.905  1.7271 -2.8988  0.8711
  652MOL0     H88001  11.814  -1.108   3.854  0.7611  0.1323 -0.7266
  652MOL0     H88002  11.641  -0.839   4.556  5.5221 -1.3948 -0.1281
  652MOL0     H88003  11.442  -0.714   4.651  1.4795 -1.8214 -2.1679
  652MOL0     H88004  11.313  -0.414   4.927  0.6116 -0.3091 -0.2556
  652MOL0     H88005  11.159  -0.253   5.026  0.9272  1.0950  1.9139
  652MOL0     H88006  10.848   1.442   4.652  0.4639 -4.0951 -4.1190
  652MOL0     H88007  10.808   1.651   4.522  2.9729 -2.1406  3.2464
  652MOL0     H88008  10.685   1.937   4.348  0.9118 -1.6473 -1.7285
  652MOL0     H88009  10.692   2.143   4.250  0.6110  0.4212 -0.6250
  652MOL0     H88010  10.368   2.296   4.220  3.1084 -2.6483  0.0877
  652MOL0     H88011  10.495   2.428   4.208  2.4466  1.5024 -2.9538
  652MOL0     H88012  10.279   2.370   4.003  1.2606 -2.0523  0.8563
  652MOL0     H88013  10.407   2.499   3.991  0.4561 -2.2650 -1.8833
  652MOL0     H88014  10.167   2.574   4.065 -1.8422 -0.0255  0.5315
  652MOL0     H88015  10.314   2.634   4.150  1.9086 -2.0527  2.4688
  652MOL0     H88016  10.144   2.602   4.296  0.0323 -0.7447 -1.3327
  652MOL0     H88017  10.252   2.477   4.341 -2.0243 -2.2763  0.3251
  652MOL0     H88018   9.966   2.214   4.174 -1.2294  0.1979 -2.1160
  652MOL0     H88019  10.327   2.083   4.020  2.7471  2.1207 -2.4222
  652MOL0     H88020  10.339   1.840   4.099  1.2245  0.9059 -0.6544
  653MOL0     O88021   9.556   6.626   4.296  0.1977  0.3887  0.3462
  653MOL0     C88022   9.610   6.584   4.400 -0.2112 -1.1062  1.8679
  653MOL0     O88023   9.546   6.561   4.519  0.3108 -0.3230 -0.1312
  653MOL0     C88024   9.412   6.591   4.535 -0.4395 -0.5437  0.2385
  653MOL0     C88025   9.358   6.716   4.509 -0.2822  0.3731 -0.0215
  653MOL0     C88026   9.228   6.730   4.520  0.1325 -1.1003  0.3490
  653MOL0     C88027   9.136   6.627   4.548 -0.2967 -0.0181  0.4327
  653MOL0     O88028   9.002   6.638   4.531  0.2607  0.2048 -0.3547
  653MOL0     C88029   8.945   6.764   4.566 -0.4994 -0.0396  0.0561
  653MOL0     C88030   8.796   6.751   4.586  0.4513  0.7891 -0.6925
  653MOL0     C88031   8.769   6.711   4.725  0.5501 -0.0247 -0.6762
  653MOL0     C88032   8.624   6.667   4.741 -0.5913 -0.0515  0.0605
  653MOL0     C88033   8.604   6.610   4.880  1.0084  1.3691  0.0081
  653MOL0     C88034   8.482   6.518   4.874 -0.2055  0.1632  0.8715
  653MOL0     C88035   8.440   6.477   5.023  0.1083  0.3444 -0.6323
  653MOL0     C88036   8.554   6.390   5.094 -0.1929  0.1623 -0.2028
  653MOL0     N88037   8.506   6.308   5.215 -0.2918  0.0557 -0.4909
  653MOL0     C88038   8.402   6.336   5.302  0.1117 -0.9098  0.6787
  653MOL0     C88039   8.401   6.233   5.381 -0.6249 -0.1404 -1.3004
  653MOL0     C88040   8.310   6.214   5.498  0.0455 -0.6551  0.2375
  653MOL0     C88041   8.301   6.336   5.584 -0.1856 -0.9158 -0.2512
  653MOL0     C88042   8.159   6.351   5.645 -0.1581 -0.7242 -0.0630
  653MOL0     C88043   8.132   6.240   5.740  0.6453  0.1888  0.5360
  653MOL0     O88044   8.030   6.277   5.832  0.4304  0.0581  0.4409
  653MOL0     C88045   8.011   6.199   5.940  0.7175  0.5373  0.3312
  653MOL0     C88046   8.008   6.066   5.957 -0.3141 -0.7595  0.5713
  653MOL0     C88047   7.994   6.005   6.079  0.4007 -0.1364  0.0682
  653MOL0     C88048   8.011   5.855   6.100 -0.2304 -0.5524  0.5760
  653MOL0     C88049   7.968   6.082   6.197 -0.3582 -0.1073 -0.4680
  653MOL0     C88050   7.950   6.028   6.338 -1.1099 -1.1278  0.4435
  653MOL0     O88051   7.986   6.115   6.435 -0.3465 -0.0953 -0.4775
  653MOL0     C88052   7.982   6.071   6.566  0.7857 -0.3311 -0.2373
  653MOL0     C88053   7.860   6.084   6.642  0.1623 -0.0806 -0.1011
  653MOL0     C88054   7.852   6.043   6.779  0.1280  0.0911 -0.3551
  653MOL0     C88055   7.968   5.994   6.834  0.3581  0.6818 -0.4799
  653MOL0     O88056   7.979   5.948   6.961 -0.0401  0.1638  0.4151
  653MOL0     C88057   7.978   5.800   6.964 -0.3613 -0.1973 -1.2069
  653MOL0     C88058   7.943   5.752   7.105 -0.1948 -0.1064  0.6509
  653MOL0     C88059   7.789   5.768   7.122 -0.2252  0.1991 -0.9703
  653MOL0     C88060   7.735   5.736   7.266 -0.6735  0.3574 -0.2154
  653MOL0     C88061   7.584   5.743   7.287  0.3702  0.0456 -0.6457
  653MOL0     C88062   7.533   5.726   7.429  0.4802  0.2869 -0.3184
  653MOL0     C88063   7.374   5.733   7.452 -0.0729 -0.1144 -0.2271
  653MOL0     C88064   7.343   5.650   7.583  0.0152 -0.8233 -0.0629
  653MOL0    Cl88065   7.437   5.701   7.728 -0.4499  0.0216  0.3311
  653MOL0     C88066   8.088   5.999   6.773  0.3445 -0.0619  0.6877
  653MOL0     C88067   8.094   6.024   6.635 -0.0673 -0.8696  0.4974
  653MOL0     O88068   7.900   5.918   6.359  0.3791  0.0302 -0.1372
  653MOL0     C88069   7.969   6.219   6.179 -0.2280 -1.7908 -0.2483
  653MOL0     C88070   7.983   6.277   6.052 -0.2335  0.0980 -1.0422
  653MOL0     N88071   8.513   6.156   5.366 -0.0372 -0.0640 -0.0380
  653MOL0     N88072   8.570   6.203   5.266  0.0326  0.1369  0.7601
  653MOL0     C88073   9.190   6.505   4.567 -0.0149 -0.2995  0.1821
  653MOL0     C88074   9.327   6.485   4.570  0.6329 -1.0001 -0.2011
  653MOL0     C88075   9.761   6.596   4.403 -0.2925  0.3925 -0.2433
  653MOL0     C88076   9.835   6.555   4.524  0.5248  0.9294 -0.0374
  653MOL0     C88077   9.970   6.565   4.523  0.2184  0.1212 -0.7130
  653MOL0     C88078  10.042   6.595   4.415 -0.2562 -0.2793 -0.6760
  653MOL0     O88079  10.180   6.577   4.440 -0.0473  0.5377 -0.6610
  653MOL0     C88080  10.270   6.634   4.342  0.8326 -0.5553  0.7250
  653MOL0     C88081  10.297   6.558   4.211  0.4445  0.3420  0.1623
  653MOL0     C88082  10.372   6.441   4.238 -1.0656  0.8227 -1.1988
  653MOL0     C88083  10.437   6.401   4.102  0.3719 -0.0101 -0.7506
  653MOL0     C88084  10.509   6.278   4.111 -1.1166  0.8695  0.2616
  653MOL0     C88085  10.582   6.178   4.094 -1.4963 -0.0761 -0.4765
  653MOL0     C88086   9.974   6.644   4.297 -0.4017 -0.7316 -0.3400
  653MOL0     C88087   9.840   6.644   4.295 -0.5704  0.2343  0.1092
  653MOL0     H88088   9.426   6.798   4.486 -0.0209  0.7891  2.0416
  653MOL0     H88089   9.192   6.831   4.506  3.6620  0.1940 -0.2871
  653MOL0     H88090   8.993   6.813   4.650 -1.3704  0.9772 -0.0142
  653MOL0     H88091   8.956   6.827   4.478  0.2869 -0.1654  0.0583
  653MOL0     H88092   8.743   6.843   4.560  0.1395  0.0178 -3.0442
  653MOL0     H88093   8.758   6.676   4.516 -0.5645  1.2350 -0.6390
  653MOL0     H88094   8.827   6.621   4.744 -2.2881 -1.7735  0.2736
  653MOL0     H88095   8.802   6.780   4.803  0.8143 -0.4931 -0.3690
  653MOL0     H88096   8.561   6.757   4.739  0.3149  0.6473  1.2182
  653MOL0     H88097   8.578   6.602   4.666  0.7040 -2.7129  1.4540
  653MOL0     H88098   8.687   6.546   4.911 -1.1802 -0.9993  1.3566
  653MOL0     H88099   8.597   6.691   4.952 -0.0822 -0.6039  2.2754
  653MOL0     H88100   8.398   6.576   4.833  0.6639  3.1221  2.8717
  653MOL0     H88101   8.499   6.438   4.803 -1.5324  0.6795 -0.0866
  653MOL0     H88102   8.414   6.564   5.084 -2.6190 -0.5054 -0.4336
  653MOL0     H88103   8.347   6.421   5.010  0.4579 -0.3049 -0.3759
  653MOL0     H88104   8.630   6.460   5.129  2.2307 -2.3772 -0.0544
  653MOL0     H88105   8.602   6.318   5.028 -2.1066 -1.7072  0.3314
  653MOL0     H88106   8.336   6.422   5.314 -1.7606 -2.2687  0.6671
  653MOL0     H88107   8.207   6.192   5.470 -0.9958  1.3357  2.1992
  653MOL0     H88108   8.341   6.127   5.557  2.0221 -1.0187 -1.2333
  653MOL0     H88109   8.311   6.424   5.519 -2.1845  0.4225  1.1328
  653MOL0     H88110   8.388   6.328   5.651 -0.2037 -0.7693 -0.2108
  653MOL0     H88111   8.085   6.353   5.564 -0.1306 -0.5315 -0.0833
  653MOL0     H88112   8.153   6.448   5.695  2.5232 -1.6908  2.4094
  653MOL0     H88113   8.223   6.195   5.780 -0.7868 -2.8261  0.7435
  653MOL0     H88114   8.077   6.165   5.682 -2.3744  2.6743 -0.1057
  653MOL0     H88115   8.002   6.004   5.868  0.8397 -0.1519  0.0530
  653MOL0     H88116   7.914   5.808   6.113 -2.3449  1.8933 -3.9308
  653MOL0     H88117   8.050   5.813   6.007  1.2403  1.4055  0.2333
  653MOL0     H88118   8.085   5.832   6.178  1.5188 -0.6595 -1.0339
  653MOL0     H88119   7.777   6.126   6.585  0.2458 -0.2387 -0.3391
  653MOL0     H88120   7.766   6.061   6.843 -0.8890  1.6105 -2.0588
  653MOL0     H88121   7.913   5.750   6.891 -1.0182 -0.9612 -0.1267
  653MOL0     H88122   8.077   5.758   6.943  0.7206 -0.6101  3.5843
  653MOL0     H88123   7.964   5.650   7.138 -0.1896  0.2055  1.6554
  653MOL0     H88124   7.986   5.820   7.178  0.4733  0.6357 -0.4029
  653MOL0     H88125   7.732   5.702   7.055 -1.0520 -2.1583  1.8344
  653MOL0     H88126   7.764   5.873   7.107  2.3721  1.1315  0.6672
  653MOL0     H88127   7.770   5.636   7.292 -1.6962  0.3987  1.4698
  653MOL0     H88128   7.794   5.807   7.326 -0.0544  1.0264 -1.5517
  653MOL0     H88129   7.537   5.662   7.231 -1.1908  1.0509 -0.8660
  653MOL0     H88130   7.536   5.832   7.246  1.6951  0.8768 -0.4460
  653MOL0     H88131   7.579   5.636   7.471  0.9346  0.9547  0.6443
  653MOL0     H88132   7.577   5.807   7.489 -3.6501  3.5119 -1.1936
  653MOL0     H88133   7.318   5.677   7.376  1.3580 -3.0274  0.7264
  653MOL0     H88134   7.331   5.833   7.461 -1.1852 -0.7169  2.0907
  653MOL0     H88135   7.371   5.548   7.554 -0.1214 -1.0920  0.7350
  653MOL0     H88136   7.236   5.658   7.604 -0.0490 -1.7140 -0.0183
  653MOL0     H88137   8.175   5.966   6.830  0.7355  1.3788  0.9787
  653MOL0     H88138   8.185   6.026   6.576 -1.6322  1.8505 -2.0992
  653MOL0     H88139   7.950   6.286   6.262  0.1953 -0.9072 -0.8438
  653MOL0     H88140   7.981   6.383   6.029  3.5267  1.3033  2.8765
  653MOL0     H88141   9.116   6.431   4.594  0.9930 -2.1562 -1.7884
  653MOL0     H88142   9.367   6.387   4.597  2.9206  0.3272  1.5586
  653MOL0     H88143   9.780   6.515   4.608 -0.8662 -0.5868 -1.5911
  653MOL0     H88144  10.010   6.528   4.617 -1.6398  1.0477  0.5039
  653MOL0     H88145  10.230   6.733   4.319  1.4424  0.5086  3.7150
  653MOL0     H88146  10.370   6.656   4.380  2.7163  0.1990 -4.0372
  653MOL0     H88147  10.351   6.624   4.142 -0.6042  0.9828 -0.0684
  653MOL0     H88148  10.204   6.519   4.171 -0.5226  0.7101  1.9581
  653MOL0     H88149  10.315   6.355   4.277  1.2218 -0.0120  0.5341
  653MOL0     H88150  10.448   6.444   4.316 -0.2985 -1.0996 -1.7993
  653MOL0     H88151  10.505   6.479   4.066  2.0129 -1.9414 -2.0551
  653MOL0     H88152  10.350   6.388   4.038  0.7161 -2.0615 -0.8678
  653MOL0     H88153  10.644   6.093   4.115 -0.6863  0.4263 -0.7975
  653MOL0     H88154  10.029   6.666   4.206  1.1728 -0.1975  0.6884
  653MOL0     H88155   9.802   6.670   4.197  1.5958  2.3475 -0.2836
  654MOL0     O88156   9.535   7.703   2.069 -0.3248 -0.0585  0.4291
  654MOL0     C88157   9.424   7.649   2.089  0.1532 -0.2165 -0.1028
  654MOL0     O88158   9.401   7.510   2.105 -0.6927  0.1763 -0.7343
  654MOL0     C88159   9.498   7.412   2.075 -0.0463  0.2225  0.2592
  654MOL0     C88160   9.620   7.420   2.133 -1.7001  0.5078  0.2284
  654MOL0     C88161   9.714   7.311   2.116  0.5269 -0.7900  0.7292
  654MOL0     C88162   9.678   7.192   2.058 -0.4067 -0.9076 -0.1649
  654MOL0     O88163   9.755   7.081   2.057 -0.1236  0.7909 -0.2141
  654MOL0     C88164   9.839   7.049   2.177 -0.6977 -0.0881  0.4529
  654MOL0     C88165   9.879   6.903   2.185 -0.3703 -0.0977 -1.0689
  654MOL0     C88166   9.979   6.867   2.076 -0.9141  0.2346 -0.6019
  654MOL0     C88167  10.017   6.718   2.091  0.0198 -0.4946 -0.1056
  654MOL0     C88168  10.041   6.649   1.951 -0.3210  0.1115  0.2964
  654MOL0     C88169  10.126   6.515   1.942 -0.4109 -0.9916  0.3214
  654MOL0     C88170  10.114   6.464   1.798 -0.0993  0.0963  0.4692
  654MOL0     C88171  10.237   6.376   1.774  0.5122 -0.4783 -0.0256
  654MOL0     N88172  10.205   6.260   1.683  0.0142 -0.3886 -0.2376
  654MOL0     C88173  10.111   6.268   1.582 -0.1754  0.8104 -0.0527
  654MOL0     C88174  10.102   6.140   1.536 -0.5222  0.5148 -0.4609
  654MOL0     C88175  10.011   6.066   1.435  0.2114 -0.9918  1.1703
  654MOL0     C88176  10.086   6.082   1.309 -0.0208  0.4630  0.7407
  654MOL0     C88177  10.000   6.066   1.180 -0.2053  0.8706 -0.3602
  654MOL0     C88178  10.087   6.035   1.058  0.6156  1.4525 -0.3303
  654MOL0     O88179  10.182   6.143   1.036 -0.7811  0.5980 -0.5271
  654MOL0     C88180  10.250   6.133   0.915 -0.7503  0.0900  0.0753
  654MOL0     C88181  10.250   6.243   0.836 -1.3255  0.5938  0.1410
  654MOL0     C88182  10.322   6.256   0.722 -0.1255 -0.0466  0.4043
  654MOL0     C88183  10.313   6.394   0.656 -0.4311  0.0665 -0.1772
  654MOL0     C88184  10.386   6.144   0.665  0.0807  0.1412  0.1506
  654MOL0     C88185  10.455   6.150   0.529 -0.3659  0.3346 -0.0813
  654MOL0     O88186  10.516   6.034   0.497 -0.5087 -0.9371 -0.1472
  654MOL0     C88187  10.614   6.031   0.407  0.0346  0.0253 -0.6940
  654MOL0     C88188  10.620   5.926   0.317 -0.3696  0.3239 -0.2659
  654MOL0     C88189  10.729   5.933   0.229 -0.1165  0.0743 -0.2263
  654MOL0     C88190  10.837   6.022   0.242 -0.0404  0.5246 -0.3318
  654MOL0     O88191  10.946   6.004   0.160  0.4666  0.2531  0.7041
  654MOL0     C88192  11.035   5.892   0.197  0.5995  0.5413 -0.8623
  654MOL0     C88193  11.183   5.919   0.171 -0.0381  0.0908  0.4710
  654MOL0     C88194  11.247   6.038   0.246  0.1258  0.2771  0.5604
  654MOL0     C88195  11.246   6.012   0.400 -0.4861 -0.3318 -0.0096
  654MOL0     C88196  11.293   6.142   0.464 -0.0712  0.1477  0.2917
  654MOL0     C88197  11.303   6.129   0.621  0.2428 -0.0866  0.1013
  654MOL0     C88198  11.167   6.111   0.687  1.0641 -0.5159 -0.3005
  654MOL0     C88199  11.174   6.101   0.838 -0.0477 -0.0135 -0.3509
  654MOL0    Cl88200  11.011   6.111   0.904  0.3378 -0.2352 -0.1181
  654MOL0     C88201  10.841   6.112   0.349  0.6530 -0.3765 -0.0194
  654MOL0     C88202  10.725   6.121   0.425 -1.4004  0.3384  0.0221
  654MOL0     O88203  10.486   6.259   0.485  0.4186  0.4579 -0.1450
  654MOL0     C88204  10.381   6.022   0.744 -0.4224  0.6124 -0.9894
  654MOL0     C88205  10.320   6.018   0.874 -0.6056 -0.0043  0.6287
  654MOL0     N88206  10.205   6.068   1.601 -0.3131 -0.2430 -0.5188
  654MOL0     N88207  10.267   6.136   1.685  0.9819 -0.0776  0.0787
  654MOL0     C88208   9.549   7.187   2.000 -0.0358 -1.0802 -0.4064
  654MOL0     C88209   9.461   7.300   2.007 -0.1274  0.5774 -0.1974
  654MOL0     C88210   9.302   7.736   2.090  0.1668  0.1169  0.0943
  654MOL0     C88211   9.172   7.679   2.082 -0.6107  0.3222  1.1507
  654MOL0     C88212   9.056   7.755   2.095  0.4056 -0.6321  0.9436
  654MOL0     C88213   9.059   7.892   2.124 -0.4280  0.2389 -0.1118
  654MOL0     O88214   8.942   7.954   2.136  0.2020  0.1487  0.3123
  654MOL0     C88215   8.898   7.960   2.266  0.9491 -0.5259 -1.0105
  654MOL0     C88216   8.742   7.993   2.245  0.7457  0.1230  0.1528
  654MOL0     C88217   8.663   7.860   2.245 -0.0329 -0.1245 -0.8213
  654MOL0     C88218   8.578   7.838   2.119  0.2635  0.2509 -0.2652
  654MOL0     C88219   8.476   7.937   2.106  0.2306  0.5168  1.7831
  654MOL0     C88220   8.395   8.026   2.095  0.8176 -0.4585  0.0985
  654MOL0     C88221   9.189   7.948   2.123 -0.5065 -0.7897 -0.0838
  654MOL0     C88222   9.308   7.874   2.113  0.0147 -0.5444  1.0781
  654MOL0     H88223   9.651   7.500   2.200 -1.1914 -0.0024  0.6114
  654MOL0     H88224   9.812   7.322   2.160  0.5362 -0.7530  0.6997
  654MOL0     H88225   9.929   7.110   2.180 -0.2311 -0.7849  2.7576
  654MOL0     H88226   9.788   7.076   2.270  2.4634  3.7243  1.3125
  654MOL0     H88227   9.930   6.876   2.278  3.0930 -0.7164 -2.9720
  654MOL0     H88228   9.795   6.833   2.183 -0.2681 -0.4744  2.1213
  654MOL0     H88229   9.924   6.877   1.982 -3.0620  0.7339  0.6429
  654MOL0     H88230  10.064   6.934   2.092 -0.8852 -0.0322  0.4725
  654MOL0     H88231  10.105   6.708   2.155  1.0803  0.6996 -1.3223
  654MOL0     H88232   9.934   6.665   2.140 -2.8089  4.2450  0.8131
  654MOL0     H88233   9.941   6.630   1.911 -2.2076  1.7728  3.7982
  654MOL0     H88234  10.083   6.725   1.885 -2.4951 -0.4126 -1.8554
  654MOL0     H88235  10.227   6.543   1.973 -0.7253  1.8822 -0.9016
  654MOL0     H88236  10.091   6.445   2.017  0.7591  1.0952  3.0089
  654MOL0     H88237  10.023   6.406   1.784  1.4913 -2.5969  0.5974
  654MOL0     H88238  10.113   6.552   1.733  0.2311 -1.3561 -1.5739
  654MOL0     H88239  10.288   6.335   1.861  0.5603 -0.4490 -0.0399
  654MOL0     H88240  10.308   6.436   1.716 -0.6899 -0.9230 -2.0619
  654MOL0     H88241  10.057   6.353   1.541 -2.2606 -0.2715  0.2945
  654MOL0     H88242   9.996   5.964   1.473 -1.7724 -0.4878  1.8119
  654MOL0     H88243   9.911   6.106   1.416  0.7755  0.0222  0.2506
  654MOL0     H88244  10.157   5.999   1.313  1.0331  1.1409 -1.8284
  654MOL0     H88245  10.142   6.176   1.309  1.8478 -0.5643 -0.9734
  654MOL0     H88246   9.950   6.163   1.165 -0.8624  0.3182 -1.9944
  654MOL0     H88247   9.915   6.001   1.200 -0.5195  1.0952 -0.9285
  654MOL0     H88248  10.024   6.026   0.969 -1.6278 -4.1098  1.4052
  654MOL0     H88249  10.147   5.948   1.085  2.8544  3.5698  2.0973
  654MOL0     H88250  10.202   6.331   0.878  1.2565  3.1823 -1.9503
  654MOL0     H88251  10.273   6.372   0.557  1.2538  1.0600 -1.1153
  654MOL0     H88252  10.247   6.460   0.714  1.7386  1.8685  0.4013
  654MOL0     H88253  10.414   6.433   0.644  0.4448 -2.1905 -0.5864
  654MOL0     H88254  10.537   5.859   0.297 -0.2237 -0.4206  1.4860
  654MOL0     H88255  10.723   5.862   0.147 -0.0507 -1.1919  0.8260
  654MOL0     H88256  11.025   5.871   0.303 -1.6099 -0.8791 -1.2975
  654MOL0     H88257  10.991   5.804   0.149  1.2727 -0.5629  0.4782
  654MOL0     H88258  11.240   5.828   0.188  0.6632  0.2721 -0.8056
  654MOL0     H88259  11.183   5.942   0.064  1.2373 -0.0586  0.4300
  654MOL0     H88260  11.194   6.128   0.215 -0.1048 -0.0720 -0.0761
  654MOL0     H88261  11.349   6.059   0.211  0.0258 -0.6757 -0.3254
  654MOL0     H88262  11.142   5.992   0.430  0.3552 -2.9698  1.5396
  654MOL0     H88263  11.306   5.928   0.436  0.7498 -1.1233 -3.5713
  654MOL0     H88264  11.222   6.222   0.440 -0.1302  0.6628  2.0538
  654MOL0     H88265  11.391   6.168   0.425  0.1756  0.5897  1.1737
  654MOL0     H88266  11.367   6.045   0.648  1.2163  1.3730  2.6008
  654MOL0     H88267  11.347   6.219   0.664 -0.8670 -0.2999  1.7824
  654MOL0     H88268  11.104   6.027   0.657 -0.1876 -1.8628  5.0599
  654MOL0     H88269  11.122   6.207   0.659 -0.9302 -1.6668 -1.2314
  654MOL0     H88270  11.231   6.180   0.888 -3.9248  1.5386  2.0340
  654MOL0     H88271  11.215   6.003   0.868  3.5058  1.1199 -0.9565
  654MOL0     H88272  10.927   6.174   0.370  2.4302 -2.2937 -1.2711
  654MOL0     H88273  10.723   6.200   0.499  0.5432  0.4616  0.0079
  654MOL0     H88274  10.419   5.930   0.699  2.0156  2.0917 -2.1433
  654MOL0     H88275  10.327   5.935   0.943  0.2054 -0.0227  0.5272
  654MOL0     H88276   9.518   7.097   1.946  1.4012 -1.9692  0.1710
  654MOL0     H88277   9.363   7.288   1.962 -0.8247 -1.4703  1.6831
  654MOL0     H88278   9.170   7.575   2.050  1.4632  0.3177  0.9068
  654MOL0     H88279   8.955   7.722   2.070  0.4675  0.0115 -0.2646
  654MOL0     H88280   8.923   7.870   2.323 -0.6043 -1.3089 -1.4890
  654MOL0     H88281   8.937   8.041   2.328 -2.4523  0.2522  0.3365
  654MOL0     H88282   8.719   8.043   2.150  1.4191  0.0064 -0.0806
  654MOL0     H88283   8.699   8.050   2.328  1.6320 -0.3367  0.9464
  654MOL0     H88284   8.608   7.835   2.337  4.0126 -2.6555  1.1633
  654MOL0     H88285   8.737   7.780   2.241 -1.9091 -1.8936 -1.8182
  654MOL0     H88286   8.528   7.740   2.116  0.1835  0.2587  0.6941
  654MOL0     H88287   8.641   7.846   2.030  3.6398  2.2495  2.1098
  654MOL0     H88288   8.322   8.102   2.073  2.6823  0.8413 -1.9173
  654MOL0     H88289   9.203   8.052   2.150  0.5393 -1.2185  1.0991
  654MOL0     H88290   9.399   7.931   2.129 -0.9948  1.5731 -0.3787
  655MOL0     O88291   0.763   4.537   2.438  0.3462  0.4333 -0.1927
  655MOL0     C88292   0.732   4.591   2.541  0.0464  0.8820  0.2117
  655MOL0     O88293   0.649   4.694   2.558  0.0781  0.5483  0.3139
  655MOL0     C88294   0.621   4.764   2.445  0.3373  0.4288  0.2272
  655MOL0     C88295   0.531   4.715   2.346 -0.4602  0.2964 -0.3075
  655MOL0     C88296   0.505   4.794   2.235 -0.5536  0.4930 -0.8905
  655MOL0     C88297   0.572   4.923   2.228 -0.7172  0.4694  0.3127
  655MOL0     O88298   0.550   5.002   2.119  0.6200  0.3248  1.4742
  655MOL0     C88299   0.648   5.092   2.065 -0.0154  0.2021 -0.6206
  655MOL0     C88300   0.636   5.118   1.915  0.5097  0.5195 -0.3501
  655MOL0     C88301   0.686   5.255   1.873  1.2535 -0.7263  0.6635
  655MOL0     C88302   0.720   5.253   1.720  0.9157 -0.8879 -0.1455
  655MOL0     C88303   0.743   5.388   1.670 -0.3861  0.5863  0.2399
  655MOL0     C88304   0.627   5.483   1.631  0.0613 -0.3041 -0.2375
  655MOL0     C88305   0.666   5.593   1.529  0.1461 -0.5638 -0.6317
  655MOL0     C88306   0.544   5.679   1.491 -0.5942  0.3181 -0.0858
  655MOL0     N88307   0.573   5.762   1.373  0.6894 -0.0604  0.6146
  655MOL0     C88308   0.694   5.836   1.344  0.5688  0.2275 -0.1426
  655MOL0     C88309   0.678   5.892   1.221  0.2815  0.7043 -0.4138
  655MOL0     C88310   0.787   5.966   1.153  1.2164 -0.1390 -0.3404
  655MOL0     C88311   0.750   5.989   1.011 -0.5240  0.3917  0.1674
  655MOL0     C88312   0.863   6.055   0.932  0.8258  0.8085  0.1850
  655MOL0     C88313   0.876   5.980   0.792  0.3092 -0.9643  0.8169
  655MOL0     O88314   0.976   6.057   0.716  0.3456 -0.4456 -0.1700
  655MOL0     C88315   0.921   6.131   0.606 -0.6575  0.6555 -0.2048
  655MOL0     C88316   0.965   6.259   0.569  1.3152  0.2870 -0.1710
  655MOL0     C88317   0.918   6.328   0.452  0.6153 -0.0437  0.8050
  655MOL0     C88318   0.987   6.462   0.420 -0.0816  1.0847  0.3920
  655MOL0     C88319   0.837   6.261   0.354 -0.3508 -0.3485  0.5068
  655MOL0     C88320   0.781   6.325   0.229  0.1483  0.7096 -0.0054
  655MOL0     O88321   0.694   6.242   0.163  0.2022  0.3708  0.8198
  655MOL0     C88322   0.621   6.273   0.049  0.4217 -0.0875  0.1803
  655MOL0     C88323   0.517   6.183   0.018 -0.1436 -1.1827 -0.1975
  655MOL0     C88324   0.434   6.204  -0.093 -0.1853 -0.8152  0.4123
  655MOL0     C88325   0.456   6.317  -0.177  0.1406  0.2169 -0.2965
  655MOL0     O88326   0.383   6.328  -0.293 -0.5883  0.5578  0.1555
  655MOL0     C88327   0.266   6.405  -0.270  0.1461 -1.0961 -0.8662
  655MOL0     C88328   0.253   6.509  -0.374  0.3579 -0.0373 -0.7499
  655MOL0     C88329   0.352   6.624  -0.345  0.5586 -0.0917  0.5518
  655MOL0     C88330   0.314   6.759  -0.410  1.3699 -0.0704  0.3579
  655MOL0     C88331   0.188   6.822  -0.344 -0.5009 -0.9021  0.3644
  655MOL0     C88332   0.178   6.967  -0.387 -0.3589 -1.1268 -0.1560
  655MOL0     C88333   0.080   6.982  -0.511  0.0475  0.7841  0.7739
  655MOL0     C88334   0.079   7.123  -0.552 -0.3252 -0.0759 -0.5051
  655MOL0    Cl88335   0.006   7.218  -0.415  0.0885  0.1180 -0.0760
  655MOL0     C88336   0.559   6.404  -0.140  0.5422  0.2154 -0.1068
  655MOL0     C88337   0.644   6.385  -0.037  0.1798  0.5330 -0.1483
  655MOL0     O88338   0.796   6.438   0.220 -0.5287  0.5596  0.5694
  655MOL0     C88339   0.800   6.124   0.390  0.1908  0.1626 -0.8252
  655MOL0     C88340   0.847   6.061   0.506  0.3884  0.1868  0.6182
  655MOL0     N88341   0.558   5.849   1.168 -0.1269  0.4303  0.2567
  655MOL0     N88342   0.502   5.765   1.252  0.2230  0.1290  0.3784
  655MOL0     C88343   0.660   4.964   2.320  0.4964  0.5518  0.1421
  655MOL0     C88344   0.684   4.885   2.424  0.1310  0.6567 -0.7187
  655MOL0     C88345   0.777   4.529   2.660 -0.9293 -0.1266 -0.5799
  655MOL0     C88346   0.838   4.606   2.765  0.8181 -0.7998  0.7552
  655MOL0     C88347   0.871   4.533   2.881  0.0551  0.7995  0.0975
  655MOL0     C88348   0.875   4.397   2.892  1.0024 -0.5347 -0.6100
  655MOL0     O88349   0.910   4.329   3.002  0.6251  0.0955 -0.1459
  655MOL0     C88350   1.032   4.357   3.063 -0.4511 -0.1690  0.3854
  655MOL0     C88351   1.084   4.229   3.121 -0.4197  0.0430 -0.6702
  655MOL0     C88352   1.004   4.183   3.250  0.0819 -0.0727 -0.2632
  655MOL0     C88353   1.001   4.282   3.361 -0.2304 -0.4434 -0.5190
  655MOL0     C88354   0.958   4.235   3.494 -0.1952 -0.1328  0.0510
  655MOL0     C88355   0.913   4.204   3.600  0.0646 -0.3676 -0.7459
  655MOL0     C88356   0.822   4.324   2.791  0.4672  0.4897 -0.4992
  655MOL0     C88357   0.766   4.391   2.682 -0.5165 -0.0978  0.4081
  655MOL0     H88358   0.487   4.616   2.357  1.6791 -0.7168 -0.3675
  655MOL0     H88359   0.432   4.764   2.161  0.3289 -1.1720 -1.1443
  655MOL0     H88360   0.622   5.182   2.122 -0.5301 -0.6529  0.5438
  655MOL0     H88361   0.749   5.064   2.097  0.7726  3.2157 -0.1494
  655MOL0     H88362   0.687   5.040   1.857  0.8358  0.5670 -0.1259
  655MOL0     H88363   0.529   5.116   1.890  0.7751  1.9281 -1.7623
  655MOL0     H88364   0.619   5.340   1.889  0.5529 -1.5099  2.1125
  655MOL0     H88365   0.782   5.281   1.917  0.4110  1.9888  1.1104
  655MOL0     H88366   0.807   5.190   1.697  1.9769  0.3529  0.3196
  655MOL0     H88367   0.632   5.212   1.670  1.5441 -1.4014 -0.8566
  655MOL0     H88368   0.805   5.443   1.741  2.7293 -0.4909 -1.4691
  655MOL0     H88369   0.810   5.376   1.584  1.5126 -1.9921  1.9411
  655MOL0     H88370   0.545   5.423   1.592 -0.1717 -1.3912  1.7603
  655MOL0     H88371   0.595   5.534   1.722  1.2530  1.9952 -1.0194
  655MOL0     H88372   0.740   5.656   1.579  2.0414 -3.4141  0.4156
  655MOL0     H88373   0.707   5.540   1.443  0.8558 -1.5330  0.2739
  655MOL0     H88374   0.515   5.748   1.571  0.5320  1.4734 -0.6229
  655MOL0     H88375   0.453   5.622   1.473 -0.3199 -0.9725  2.1840
  655MOL0     H88376   0.787   5.833   1.401  0.8115 -2.7503 -0.5246
  655MOL0     H88377   0.801   6.059   1.209  0.8417 -1.2533  1.7513
  655MOL0     H88378   0.878   5.907   1.168  1.8612  1.0816  0.8559
  655MOL0     H88379   0.657   6.045   0.999 -0.4173  0.2375 -1.5834
  655MOL0     H88380   0.731   5.893   0.963 -0.7606  1.3501 -1.7869
  655MOL0     H88381   0.958   6.062   0.985  1.1059  0.2194 -0.2221
  655MOL0     H88382   0.838   6.160   0.914  0.7227  1.2340  2.5894
  655MOL0     H88383   0.780   5.993   0.741 -1.6210  2.1154  4.7399
  655MOL0     H88384   0.899   5.874   0.808 -0.9272 -1.8295 -2.4077
  655MOL0     H88385   1.033   6.309   0.637 -0.7051  0.4885  1.7833
  655MOL0     H88386   1.022   6.462   0.316  0.9097 -1.7300  0.6411
  655MOL0     H88387   0.933   6.555   0.438 -0.5275  0.9546 -0.2261
  655MOL0     H88388   1.083   6.469   0.472 -0.2407  0.7670  0.7332
  655MOL0     H88389   0.497   6.094   0.079  0.6366 -3.0937 -2.5833
  655MOL0     H88390   0.340   6.149  -0.100  0.6954 -2.1496 -2.0812
  655MOL0     H88391   0.180   6.338  -0.287 -1.8406  1.3306 -0.9724
  655MOL0     H88392   0.266   6.460  -0.175  0.0021  3.5756 -3.3161
  655MOL0     H88393   0.268   6.465  -0.473 -0.9057  0.5063 -1.1983
  655MOL0     H88394   0.157   6.561  -0.369  1.6218  2.5551 -1.4221
  655MOL0     H88395   0.447   6.583  -0.382  0.9051  1.0364  0.1250
  655MOL0     H88396   0.364   6.637  -0.237 -0.9716 -2.0596  1.0160
  655MOL0     H88397   0.392   6.835  -0.398  0.8100  0.5815 -0.0800
  655MOL0     H88398   0.285   6.742  -0.514 -4.8410 -0.6220  1.8246
  655MOL0     H88399   0.188   6.808  -0.235 -1.8123  1.2781  0.6985
  655MOL0     H88400   0.100   6.763  -0.370 -1.2901  0.0099  0.8830
  655MOL0     H88401   0.135   7.034  -0.313 -0.8843 -3.2483  1.5501
  655MOL0     H88402   0.277   7.003  -0.419 -1.1960  1.0914 -0.4540
  655MOL0     H88403  -0.023   6.964  -0.480 -0.7376  0.9752 -1.4951
  655MOL0     H88404   0.095   6.910  -0.592 -0.8856  0.3232  0.9980
  655MOL0     H88405   0.026   7.140  -0.646 -2.7064 -0.7089  0.6363
  655MOL0     H88406   0.184   7.145  -0.573  0.5751 -2.9871  0.3906
  655MOL0     H88407   0.588   6.487  -0.204 -0.3791  2.8005  2.5924
  655MOL0     H88408   0.734   6.444  -0.024  0.7559 -0.1793 -0.8426
  655MOL0     H88409   0.728   6.064   0.335 -3.1983  1.2781  2.0072
  655MOL0     H88410   0.823   5.958   0.530  1.3604 -0.0097  0.8101
  655MOL0     H88411   0.716   5.057   2.312  0.1541  0.8558  1.0869
  655MOL0     H88412   0.748   4.927   2.500  3.5559 -1.2319 -2.3182
  655MOL0     H88413   0.838   4.714   2.754  1.0537 -0.9369 -0.8255
  655MOL0     H88414   0.902   4.586   2.970 -0.5149 -1.0024  1.4508
  655MOL0     H88415   1.110   4.389   2.994  0.0807 -1.6063  0.2864
  655MOL0     H88416   1.011   4.440   3.132 -2.8124  0.7992 -1.3631
  655MOL0     H88417   1.191   4.235   3.143  0.1314 -3.6939 -1.5831
  655MOL0     H88418   1.063   4.149   3.048 -2.0340  0.7669 -1.0591
  655MOL0     H88419   1.049   4.091   3.285  2.1621  1.0103  0.0770
  655MOL0     H88420   0.898   4.164   3.230 -0.0704 -0.4916  0.8772
  655MOL0     H88421   0.939   4.366   3.328 -0.2067 -0.9838 -2.0260
  655MOL0     H88422   1.100   4.326   3.374 -0.0526 -1.2054  0.8776
  655MOL0     H88423   0.880   4.187   3.700 -0.2692  1.3284 -0.5239
  655MOL0     H88424   0.827   4.217   2.811  3.0771  1.0659  2.9240
  655MOL0     H88425   0.721   4.344   2.595 -1.8075  1.5170  0.1521
  656MOL0     O88426   8.982  11.086  11.297  0.4276 -0.1253 -0.1450
  656MOL0     C88427   8.999  11.055  11.413  0.4834 -0.8792 -0.3811
  656MOL0     O88428   9.021  11.149  11.514 -0.2542 -0.1167 -0.4285
  656MOL0     C88429   9.075  11.267  11.492  0.7148  0.5012 -0.7096
  656MOL0     C88430   9.188  11.271  11.401 -0.1828 -0.8540  0.5028
  656MOL0     C88431   9.257  11.398  11.380  1.0751  0.3696  0.8907
  656MOL0     C88432   9.214  11.514  11.452  1.1260  1.0861 -0.3426
  656MOL0     O88433   9.282  11.632  11.436 -0.4441 -0.6931 -0.7414
  656MOL0     C88434   9.431  11.631  11.462  0.0990 -0.8945 -0.0975
  656MOL0     C88435   9.503  11.775  11.473  0.3225  1.0366  1.0652
  656MOL0     C88436   9.431  11.867  11.577 -0.9238 -0.0293 -0.5423
  656MOL0     C88437   9.520  11.904  11.690  0.4038  0.2744 -0.5528
  656MOL0     C88438   9.453  12.010  11.776  0.7853 -0.9939 -0.3803
  656MOL0     C88439   9.397  12.137  11.697  0.0458 -0.3402  0.3000
  656MOL0     C88440   9.365  12.242  11.805 -0.1001  0.4405 -0.6442
  656MOL0     C88441   9.291  12.364  11.746  0.0249 -0.5952  0.4522
  656MOL0     N88442   9.170  12.345  11.658  0.1604  0.0411  0.6916
  656MOL0     C88443   9.065  12.264  11.682 -0.9900  0.7112 -0.0701
  656MOL0     C88444   8.994  12.286  11.574  0.3451 -0.2045  0.5116
  656MOL0     C88445   8.868  12.227  11.534 -0.3708  0.1791 -0.7748
  656MOL0     C88446   8.749  12.308  11.494 -0.2108 -0.0651 -0.6158
  656MOL0     C88447   8.669  12.263  11.369 -0.4700  0.0896 -0.2280
  656MOL0     C88448   8.703  12.346  11.242 -0.5197  0.1898 -0.6353
  656MOL0     O88449   8.595  12.342  11.158  0.2327  0.0010  0.0742
  656MOL0     C88450   8.595  12.410  11.045  0.3625  0.0715  0.5482
  656MOL0     C88451   8.704  12.473  10.974  0.1260  0.0608  0.6823
  656MOL0     C88452   8.690  12.543  10.852 -0.2760 -0.0428 -0.0626
  656MOL0     C88453   8.821  12.595  10.795 -0.1244  0.3121 -0.1402
  656MOL0     C88454   8.565  12.541  10.787 -0.4439  0.4216 -0.3243
  656MOL0     C88455   8.545  12.612  10.647 -0.2299  0.3817  0.4333
  656MOL0     O88456   8.644  12.593  10.554 -0.0727 -0.2505  0.0234
  656MOL0     C88457   8.629  12.652  10.428  0.9179  0.9001  0.4387
  656MOL0     C88458   8.517  12.626  10.339 -0.1391  0.0017 -0.0257
  656MOL0     C88459   8.510  12.678  10.208 -1.0530  0.0553  0.3909
  656MOL0     C88460   8.621  12.754  10.162 -0.0218 -0.4789  0.1604
  656MOL0     O88461   8.600  12.813  10.040  0.5272  0.2925 -0.1897
  656MOL0     C88462   8.710  12.888   9.989 -0.6064 -0.1873  0.3949
  656MOL0     C88463   8.652  12.975   9.878 -0.2220  0.2547 -0.2416
  656MOL0     C88464   8.616  12.883   9.760  1.0338  0.3993 -0.5056
  656MOL0     C88465   8.739  12.871   9.663 -0.0424 -0.0768 -0.5058
  656MOL0     C88466   8.767  12.986   9.566  0.5202 -1.0719  0.5315
  656MOL0     C88467   8.651  12.998   9.468 -0.0949 -0.8537 -0.0536
  656MOL0     C88468   8.680  13.125   9.387 -0.2885  0.1199  0.3022
  656MOL0     C88469   8.562  13.145   9.298 -0.1116 -0.5172 -0.5259
  656MOL0    Cl88470   8.559  13.022   9.177  0.5740 -0.1120  0.3362
  656MOL0     C88471   8.729  12.785  10.252 -0.5483  0.9133  0.3995
  656MOL0     C88472   8.735  12.735  10.380 -0.1988 -0.0161 -0.1425
  656MOL0     O88473   8.444  12.680  10.633 -0.3815  0.2298  0.4498
  656MOL0     C88474   8.447  12.494  10.861 -0.9313 -0.6659  0.0171
  656MOL0     C88475   8.471  12.432  10.985 -0.2551 -0.2420  0.5954
  656MOL0     N88476   9.055  12.380  11.491 -0.3060  0.0434  0.9759
  656MOL0     N88477   9.167  12.411  11.539  0.5567 -0.2739 -0.3135
  656MOL0     C88478   9.103  11.508  11.536  0.5052 -0.3013  0.1145
  656MOL0     C88479   9.042  11.389  11.560 -0.1478 -1.0914 -0.8699
  656MOL0     C88480   8.996  10.912  11.454 -0.4084  0.0685 -0.1414
  656MOL0     C88481   8.922  10.826  11.369 -0.2862 -0.0839  0.0137
  656MOL0     C88482   8.908  10.688  11.401 -0.0310 -0.0415 -0.4370
  656MOL0     C88483   8.963  10.645  11.526 -0.3972 -0.7482  0.2029
  656MOL0     O88484   8.940  10.520  11.560 -0.2681  0.0590 -0.7217
  656MOL0     C88485   9.044  10.436  11.625  0.0924  0.0675 -0.6199
  656MOL0     C88486   8.986  10.298  11.669  0.4366  0.8422 -0.0048
  656MOL0     C88487   9.109  10.201  11.654  0.4569  0.3397 -0.0491
  656MOL0     C88488   9.076  10.056  11.715 -0.1322 -0.2896  0.3195
  656MOL0     C88489   8.980   9.995  11.625  0.3648  0.8036 -0.6909
  656MOL0     C88490   8.904   9.944  11.536 -0.5358 -0.2703 -0.9863
  656MOL0     C88491   9.047  10.728  11.613 -0.3173 -0.2912 -0.2398
  656MOL0     C88492   9.058  10.864  11.569 -0.7020  0.5586 -0.4640
  656MOL0     H88493   9.214  11.183  11.343  3.4447  0.1756  0.2734
  656MOL0     H88494   9.338  11.407  11.308 -1.2112  0.0237 -1.9343
  656MOL0     H88495   9.450  11.593  11.563  0.5749 -0.7365 -0.1222
  656MOL0     H88496   9.490  11.565  11.397 -0.0059 -2.3216  1.1860
  656MOL0     H88497   9.611  11.765  11.484  0.7856 -2.7091 -3.3572
  656MOL0     H88498   9.490  11.820  11.374  2.1725  0.3675  0.4741
  656MOL0     H88499   9.414  11.956  11.517  1.1352  0.4163 -0.5386
  656MOL0     H88500   9.338  11.826  11.619  0.3020 -0.4610  1.9603
  656MOL0     H88501   9.520  11.817  11.758 -4.3562 -0.3323 -0.9950
  656MOL0     H88502   9.620  11.930  11.653  0.0468  4.0597  0.7243
  656MOL0     H88503   9.372  11.953  11.822 -0.1815 -0.8631 -1.8531
  656MOL0     H88504   9.517  12.055  11.853  0.2929  0.0215 -0.5466
  656MOL0     H88505   9.469  12.181  11.627  0.1755  2.2407  1.9114
  656MOL0     H88506   9.312  12.115  11.632  1.0803  0.5459 -1.4406
  656MOL0     H88507   9.295  12.199  11.877 -0.6207  0.2209 -1.2707
  656MOL0     H88508   9.455  12.259  11.865 -0.9535  0.1546  0.7557
  656MOL0     H88509   9.370  12.414  11.689 -1.0456  1.7859  0.9431
  656MOL0     H88510   9.252  12.440  11.815 -0.1724 -0.6492  0.4019
  656MOL0     H88511   9.037  12.185  11.751 -1.1037 -0.4926 -1.4385
  656MOL0     H88512   8.892  12.148  11.461  3.6464 -0.9890  1.4548
  656MOL0     H88513   8.834  12.188  11.630  1.6263  1.3242  0.4716
  656MOL0     H88514   8.767  12.416  11.497 -2.1443  0.3191  2.8962
  656MOL0     H88515   8.676  12.305  11.576  0.1073 -2.4111 -0.3382
  656MOL0     H88516   8.562  12.280  11.386  0.3736  4.1216  2.5713
  656MOL0     H88517   8.693  12.162  11.334  2.0015  1.0193 -1.4608
  656MOL0     H88518   8.804  12.335  11.202  0.9803 -1.1359  3.0290
  656MOL0     H88519   8.716  12.449  11.279 -1.7229  0.3745 -0.6796
  656MOL0     H88520   8.805  12.471  11.014  0.3842 -0.0991  0.0449
  656MOL0     H88521   8.845  12.529  10.712 -0.7571 -4.0645  2.7799
  656MOL0     H88522   8.812  12.700  10.766 -2.0788  0.4072  0.6203
  656MOL0     H88523   8.901  12.581  10.869  1.1680  1.2733 -1.3114
  656MOL0     H88524   8.439  12.577  10.396  0.2131 -1.8339 -1.0383
  656MOL0     H88525   8.431  12.645  10.141 -2.1563  3.9041 -0.4251
  656MOL0     H88526   8.761  12.956  10.057  0.6160 -2.5175  1.9387
  656MOL0     H88527   8.791  12.822   9.957 -0.1832  1.5581 -2.4556
  656MOL0     H88528   8.557  13.013   9.916 -1.0817 -0.5521 -1.5032
  656MOL0     H88529   8.729  13.047   9.845  0.3206  0.5413  1.5316
  656MOL0     H88530   8.522  12.920   9.718  0.1122  0.3818  1.4017
  656MOL0     H88531   8.589  12.779   9.781  4.5878 -0.6473 -0.4776
  656MOL0     H88532   8.829  12.855   9.722  0.0567 -0.1270 -0.6706
  656MOL0     H88533   8.729  12.784   9.598 -0.0000  0.6032 -1.4527
  656MOL0     H88534   8.846  12.973   9.492 -0.9947  0.4831 -1.4585
  656MOL0     H88535   8.784  13.078   9.623 -1.8186 -0.0661 -0.2908
  656MOL0     H88536   8.656  12.912   9.400 -0.2052 -0.6042 -0.3824
  656MOL0     H88537   8.559  13.003   9.526 -1.1896 -1.5164 -1.6457
  656MOL0     H88538   8.768  13.134   9.322 -0.4813  3.1542  0.2931
  656MOL0     H88539   8.688  13.205   9.461  0.5025  0.7843 -0.4797
  656MOL0     H88540   8.577  13.241   9.248  1.4443  1.7956  3.7883
  656MOL0     H88541   8.470  13.162   9.354  1.5311  3.6612  1.3991
  656MOL0     H88542   8.803  12.857  10.220 -1.1541  1.7149  0.7593
  656MOL0     H88543   8.822  12.753  10.443 -0.0041 -0.9408 -0.1282
  656MOL0     H88544   8.349  12.513  10.819 -0.5048 -0.0976 -0.7756
  656MOL0     H88545   8.381  12.395  11.034 -0.3784 -0.3070  0.3211
  656MOL0     H88546   9.059  11.589  11.593 -0.3644 -0.3359 -0.4858
  656MOL0     H88547   8.950  11.391  11.619  0.0510 -0.0897 -0.5601
  656MOL0     H88548   8.876  10.857  11.276 -1.0204  1.8468  0.9692
  656MOL0     H88549   8.857  10.622  11.332  1.0645 -0.8927 -0.4666
  656MOL0     H88550   9.131  10.426  11.559 -1.4376 -0.5441 -2.6441
  656MOL0     H88551   9.071  10.476  11.724 -3.4805 -1.8088  1.3456
  656MOL0     H88552   8.915  10.273  11.591  0.0676  0.0597  0.5661
  656MOL0     H88553   8.932  10.280  11.762  0.4802  0.4915 -0.0463
  656MOL0     H88554   9.187  10.250  11.714 -1.1364  3.8405 -0.5800
  656MOL0     H88555   9.147  10.189  11.553  0.6372  2.8203 -0.3334
  656MOL0     H88556   9.035  10.078  11.814  1.0148  2.3577  0.2917
  656MOL0     H88557   9.165   9.994  11.725  1.1240  1.2978 -0.6914
  656MOL0     H88558   8.829   9.911  11.467 -0.5096  2.3766 -2.4112
  656MOL0     H88559   9.070  10.707  11.717 -0.9499 -2.4871 -0.4943
  656MOL0     H88560   9.102  10.939  11.635 -3.2407  0.1374  1.8598
  657MOL0     O88561   5.748   8.276   9.099  0.3948  0.1464 -0.1954
  657MOL0     C88562   5.846   8.266   9.173 -0.4943 -0.2931 -0.4239
  657MOL0     O88563   5.903   8.147   9.218  0.0595 -0.4686  0.1591
  657MOL0     C88564   5.858   8.025   9.179  0.3297 -0.6931 -0.5140
  657MOL0     C88565   5.961   7.938   9.149 -0.2612 -1.0867  0.0355
  657MOL0     C88566   5.931   7.811   9.109 -0.5856  0.5052  0.5533
  657MOL0     C88567   5.800   7.761   9.084 -0.9292 -0.0027  0.2493
  657MOL0     O88568   5.787   7.629   9.044  0.8486  0.5809  0.0117
  657MOL0     C88569   5.664   7.576   8.988  0.2801 -0.0798  0.4184
  657MOL0     C88570   5.685   7.448   8.915  0.0633  0.8179 -0.6002
  657MOL0     C88571   5.766   7.468   8.781  0.2332 -0.2865  0.0745
  657MOL0     C88572   5.709   7.554   8.678  0.2743  0.1006 -0.0906
  657MOL0     C88573   5.575   7.492   8.631 -0.4896  0.9687 -0.5261
  657MOL0     C88574   5.519   7.556   8.506  0.6328 -0.0758  0.2061
  657MOL0     C88575   5.452   7.692   8.523  0.3517 -1.0721  0.0924
  657MOL0     C88576   5.401   7.740   8.388  0.4664  0.5468 -1.1644
  657MOL0     N88577   5.506   7.759   8.284 -0.7729 -0.3774  0.8443
  657MOL0     C88578   5.615   7.840   8.295  0.3379  0.7983 -0.4890
  657MOL0     C88579   5.701   7.794   8.209  0.6367 -0.5648 -0.1211
  657MOL0     C88580   5.842   7.856   8.180  0.2054 -0.4213  0.2284
  657MOL0     C88581   5.928   7.830   8.301 -0.2565 -0.2808 -0.0446
  657MOL0     C88582   6.031   7.712   8.287  0.3885  0.3929  0.7532
  657MOL0     C88583   5.965   7.576   8.318  0.6603 -0.2408  1.3429
  657MOL0     O88584   6.050   7.465   8.302 -0.2158 -0.0139 -0.5112
  657MOL0     C88585   6.026   7.340   8.344  0.5920 -0.8900 -1.5990
  657MOL0     C88586   5.904   7.299   8.392 -0.1447 -0.7002  0.2998
  657MOL0     C88587   5.879   7.169   8.445 -0.5750 -1.2231  0.2631
  657MOL0     C88588   5.735   7.138   8.472 -1.1340 -0.0766 -0.0706
  657MOL0     C88589   5.989   7.077   8.448  0.4282 -0.8331  0.4514
  657MOL0     C88590   5.984   6.938   8.504  0.2734  0.9626 -0.2161
  657MOL0     O88591   5.870   6.876   8.551  0.0436 -0.3433 -0.0713
  657MOL0     C88592   5.872   6.742   8.583  0.9024 -0.8452  0.7813
  657MOL0     C88593   5.801   6.652   8.499 -1.0233  0.5388 -0.2571
  657MOL0     C88594   5.792   6.518   8.536  0.3364  0.5271  0.1707
  657MOL0     C88595   5.870   6.464   8.649 -0.7325 -0.9221  0.9465
  657MOL0     O88596   5.877   6.332   8.670  0.0157 -0.7787  0.2479
  657MOL0     C88597   5.904   6.265   8.797  0.4263 -0.0254 -1.0733
  657MOL0     C88598   5.858   6.117   8.788 -0.5802  1.1230 -0.4475
  657MOL0     C88599   5.859   6.045   8.921 -0.0543 -0.1805 -0.3430
  657MOL0     C88600   5.825   5.894   8.902 -0.0550 -0.5118  0.2221
  657MOL0     C88601   5.797   5.821   9.025 -0.0617  0.0848 -0.7681
  657MOL0     C88602   5.787   5.670   8.994  0.1317  0.3861  0.5887
  657MOL0     C88603   5.652   5.632   8.935  0.8364 -1.2028  0.0156
  657MOL0     C88604   5.603   5.490   8.969 -0.1384  0.0425  1.0677
  657MOL0    Cl88605   5.717   5.367   8.915  0.4896  0.4756  0.5965
  657MOL0     C88606   5.927   6.558   8.734 -0.1471 -1.4748 -0.4548
  657MOL0     C88607   5.931   6.700   8.703  0.1311  0.2826  0.2848
  657MOL0     O88608   6.091   6.877   8.507 -0.6291  0.3616  0.0120
  657MOL0     C88609   6.113   7.124   8.398  0.3828 -0.4467 -0.1242
  657MOL0     C88610   6.132   7.251   8.360  0.2356 -0.6637 -0.5282
  657MOL0     N88611   5.640   7.693   8.134 -0.9541  0.4984  0.1466
  657MOL0     N88612   5.527   7.673   8.189  0.2050  1.1552  0.0754
  657MOL0     C88613   5.697   7.854   9.118 -0.0229  0.5594  1.0869
  657MOL0     C88614   5.723   7.985   9.171 -0.2654 -0.3686 -1.3836
  657MOL0     C88615   5.920   8.388   9.228  0.0170  0.5512  0.3692
  657MOL0     C88616   5.860   8.515   9.210  0.3784 -0.0220 -0.1931
  657MOL0     C88617   5.920   8.627   9.253  0.8788  0.3654 -0.0034
  657MOL0     C88618   6.052   8.631   9.299 -0.5763  1.4323 -0.7132
  657MOL0     O88619   6.104   8.754   9.342 -0.4037 -0.7451 -1.1081
  657MOL0     C88620   6.232   8.763   9.400 -1.1372 -0.0386  0.2052
  657MOL0     C88621   6.232   8.855   9.519  0.8117 -0.5469  0.2046
  657MOL0     C88622   6.119   8.849   9.626 -0.3219 -0.6390  0.9926
  657MOL0     C88623   6.133   8.732   9.724  0.4793  0.4397  0.1433
  657MOL0     C88624   6.126   8.778   9.861  0.3601  0.2184  0.8621
  657MOL0     C88625   6.136   8.829   9.971  0.1071 -1.0090 -0.6314
  657MOL0     C88626   6.122   8.503   9.299  0.7353 -0.5550 -0.2586
  657MOL0     C88627   6.049   8.389   9.265 -0.4484  0.4166 -0.1572
  657MOL0     H88628   6.066   7.963   9.151  0.6784 -4.4966  0.4573
  657MOL0     H88629   6.000   7.734   9.075 -3.1705 -0.9501 -1.8372
  657MOL0     H88630   5.588   7.560   9.064 -1.6808  0.8978 -1.2273
  657MOL0     H88631   5.621   7.655   8.925  0.2001  0.2115  0.8354
  657MOL0     H88632   5.730   7.376   8.984 -0.7230  1.4981  0.6612
  657MOL0     H88633   5.581   7.413   8.906 -1.3837  4.4081  0.4693
  657MOL0     H88634   5.860   7.511   8.817 -0.6366 -0.0464  2.2404
  657MOL0     H88635   5.786   7.366   8.746  0.0636 -0.2453 -0.1396
  657MOL0     H88636   5.690   7.654   8.719  2.0029 -0.6688  2.8136
  657MOL0     H88637   5.792   7.558   8.606  2.0979  0.6106  1.9282
  657MOL0     H88638   5.590   7.386   8.611  0.5433  0.8215  0.8409
  657MOL0     H88639   5.505   7.501   8.715 -0.7081 -3.6907  0.0511
  657MOL0     H88640   5.595   7.560   8.428  0.7595 -0.8323  0.2849
  657MOL0     H88641   5.437   7.493   8.469  0.1458  1.1128 -0.8023
  657MOL0     H88642   5.380   7.700   8.605 -0.4833 -0.4996 -0.6786
  657MOL0     H88643   5.527   7.765   8.554  1.6565 -2.3756  0.1370
  657MOL0     H88644   5.364   7.839   8.414  1.5683  0.7763 -0.3553
  657MOL0     H88645   5.322   7.666   8.374 -1.4631  2.0428  0.9448
  657MOL0     H88646   5.626   7.914   8.374 -3.6359  1.2829 -0.1962
  657MOL0     H88647   5.889   7.826   8.086 -2.0756 -0.3220 -1.0149
  657MOL0     H88648   5.840   7.966   8.187  1.6270 -0.2766 -1.0072
  657MOL0     H88649   5.873   7.810   8.393  0.5046  0.7435  0.6538
  657MOL0     H88650   5.983   7.921   8.325 -1.0473  0.2263 -0.0911
  657MOL0     H88651   6.120   7.724   8.350  1.6381  4.2575 -1.3613
  657MOL0     H88652   6.066   7.715   8.183  0.3266 -3.4996  0.4678
  657MOL0     H88653   5.876   7.557   8.257  1.7942 -1.7050  0.0434
  657MOL0     H88654   5.930   7.589   8.421 -1.3195 -1.3399  0.8630
  657MOL0     H88655   5.825   7.373   8.383  0.0038 -0.5492  0.2351
  657MOL0     H88656   5.715   7.122   8.578  3.7571 -1.2068  0.9370
  657MOL0     H88657   5.669   7.216   8.431 -1.8498  0.2568  1.6406
  657MOL0     H88658   5.705   7.048   8.418 -0.6193 -0.4129  0.1925
  657MOL0     H88659   5.758   6.679   8.403  1.7562  0.6063 -1.5922
  657MOL0     H88660   5.744   6.452   8.465 -0.3063 -0.4476  1.4836
  657MOL0     H88661   6.009   6.273   8.827  0.2975 -0.5147 -0.4577
  657MOL0     H88662   5.835   6.311   8.868  1.2561 -1.7382  0.9528
  657MOL0     H88663   5.757   6.101   8.750 -0.4676 -3.4093  0.6064
  657MOL0     H88664   5.936   6.065   8.732 -0.0640 -0.1093  1.3136
  657MOL0     H88665   5.777   6.086   8.980 -0.2968 -0.7776 -0.2602
  657MOL0     H88666   5.953   6.054   8.977  0.6729  0.1206 -1.5748
  657MOL0     H88667   5.733   5.880   8.844 -0.1832 -2.1718  0.7749
  657MOL0     H88668   5.905   5.842   8.848 -2.2093 -2.1305 -1.5979
  657MOL0     H88669   5.702   5.846   9.072 -0.4712 -1.3937 -0.7641
  657MOL0     H88670   5.878   5.852   9.091 -1.5517  1.5087  0.4704
  657MOL0     H88671   5.856   5.631   8.918  1.1322  1.4696  0.9223
  657MOL0     H88672   5.811   5.612   9.084  2.1929  1.1015  0.5532
  657MOL0     H88673   5.649   5.641   8.826  0.9614  0.0588  0.1103
  657MOL0     H88674   5.583   5.707   8.975  2.7020  0.3815  0.4283
  657MOL0     H88675   5.518   5.476   8.901 -0.2674 -0.1800  1.2741
  657MOL0     H88676   5.581   5.478   9.075  1.5378  0.8680  1.5505
  657MOL0     H88677   5.983   6.542   8.825  1.3264  4.3756  0.0632
  657MOL0     H88678   5.985   6.767   8.768  0.1380  1.1479 -0.5810
  657MOL0     H88679   6.205   7.069   8.415  1.4109  2.0999  3.5283
  657MOL0     H88680   6.236   7.274   8.339 -0.3781  3.1364 -0.0437
  657MOL0     H88681   5.594   7.820   9.123 -0.9288  2.0116 -3.3924
  657MOL0     H88682   5.655   8.063   9.205  0.7275  1.5516 -3.5497
  657MOL0     H88683   5.763   8.522   9.162  1.2011  1.5907 -1.7044
  657MOL0     H88684   5.871   8.720   9.227 -2.8287 -2.4738 -5.0174
  657MOL0     H88685   6.266   8.668   9.444 -1.8998  0.5905  2.2589
  657MOL0     H88686   6.308   8.786   9.324 -2.1224  1.6944 -0.3027
  657MOL0     H88687   6.229   8.952   9.469  0.4304 -0.1145  1.0584
  657MOL0     H88688   6.327   8.848   9.571  1.1084 -3.6437 -0.5376
  657MOL0     H88689   6.022   8.845   9.577  0.0005 -0.2676  0.3134
  657MOL0     H88690   6.134   8.946   9.676  0.1867 -0.7957  1.1537
  657MOL0     H88691   6.231   8.683   9.729  1.2467  2.0108  1.3283
  657MOL0     H88692   6.052   8.660   9.707 -0.2492  1.2462  0.1557
  657MOL0     H88693   6.147   8.882  10.064 -2.6363 -2.9305  0.9088
  657MOL0     H88694   6.228   8.498   9.321  1.0338  0.5824 -1.3291
  657MOL0     H88695   6.112   8.300   9.262 -0.1350  0.6275  0.1456
  658MOL0     O88696   9.806   1.434   0.667 -0.1071  0.3143 -0.3836
  658MOL0     C88697   9.868   1.437   0.771 -0.8785  0.1366  0.8096
  658MOL0     O88698   9.946   1.544   0.812  1.4968  0.7257 -0.0701
  658MOL0     C88699   9.968   1.653   0.741 -0.7861  0.1568 -0.5458
  658MOL0     C88700  10.023   1.661   0.614 -0.2459  1.0117 -0.5942
  658MOL0     C88701  10.069   1.779   0.555  0.0820  0.3514  0.4702
  658MOL0     C88702  10.072   1.898   0.622  0.0859 -0.0039 -0.6265
  658MOL0     O88703  10.148   2.007   0.577  0.4803 -0.7438 -0.1153
  658MOL0     C88704  10.072   2.121   0.529  1.4323 -0.9439  0.0907
  658MOL0     C88705  10.035   2.106   0.388 -0.0801  0.7005  0.8123
  658MOL0     C88706  10.154   2.075   0.294  0.5834 -0.1258 -0.5236
  658MOL0     C88707  10.105   2.057   0.147 -0.2214  0.6705 -0.2202
  658MOL0     C88708  10.233   2.049   0.059  0.0519  0.5328 -1.1372
  658MOL0     C88709  10.190   2.040  -0.087 -0.3606 -0.4168 -0.6133
  658MOL0     C88710  10.311   2.061  -0.178  0.0858 -0.9114 -0.5508
  658MOL0     C88711  10.277   2.035  -0.323  0.3178  0.9146  0.5923
  658MOL0     N88712  10.389   2.085  -0.406 -0.4488 -0.0950  0.7200
  658MOL0     C88713  10.504   2.030  -0.442 -0.3402 -0.1333 -0.0687
  658MOL0     C88714  10.579   2.126  -0.491 -0.4695 -0.4636  0.9781
  658MOL0     C88715  10.730   2.121  -0.507 -0.2319  0.6596  0.0558
  658MOL0     C88716  10.783   2.259  -0.465 -0.0540 -0.5312  0.5065
  658MOL0     C88717  10.754   2.300  -0.317  0.0297  0.5225 -0.1578
  658MOL0     C88718  10.756   2.454  -0.301 -0.8461  1.1486  0.4821
  658MOL0     O88719  10.876   2.507  -0.366  0.0476  0.4682 -0.0864
  658MOL0     C88720  10.891   2.635  -0.354 -0.3340 -0.0772  0.0390
  658MOL0     C88721  10.875   2.712  -0.236 -0.3138 -0.1448 -0.2500
  658MOL0     C88722  10.881   2.855  -0.244 -0.4727  0.2024 -0.6878
  658MOL0     C88723  10.845   2.941  -0.125  0.2485  0.3291  0.5112
  658MOL0     C88724  10.916   2.921  -0.358  0.7591 -0.3441  0.1941
  658MOL0     C88725  10.905   3.066  -0.376  0.1443  0.3596 -0.0460
  658MOL0     O88726  10.867   3.101  -0.502  0.3316  0.1702  0.4323
  658MOL0     C88727  10.793   3.216  -0.523  1.3562  0.4657 -1.1279
  658MOL0     C88728  10.860   3.339  -0.524  0.1592  0.7952  0.1721
  658MOL0     C88729  10.787   3.456  -0.526  0.9267 -0.6777 -0.3573
  658MOL0     C88730  10.648   3.450  -0.543 -0.2665  0.7860  0.1371
  658MOL0     O88731  10.568   3.562  -0.560  0.2460 -0.1161 -0.3558
  658MOL0     C88732  10.627   3.687  -0.598 -0.2687  0.2049  0.2557
  658MOL0     C88733  10.521   3.792  -0.612  0.5807 -0.4388 -0.2787
  658MOL0     C88734  10.400   3.743  -0.703  0.1384 -0.2263  0.2847
  658MOL0     C88735  10.287   3.842  -0.720  0.0113 -0.2604 -0.4870
  658MOL0     C88736  10.175   3.792  -0.807  1.0409 -0.2002  0.0872
  658MOL0     C88737  10.058   3.872  -0.821  0.5249  0.3723  0.4379
  658MOL0     C88738   9.961   3.806  -0.924  0.8183  0.3082 -0.1534
  658MOL0     C88739   9.820   3.848  -0.901  0.5741 -0.0866  0.3540
  658MOL0    Cl88740   9.718   3.715  -0.981  0.4650 -0.1352 -0.0017
  658MOL0     C88741  10.584   3.328  -0.547  0.2418  0.4202 -0.7171
  658MOL0     C88742  10.656   3.210  -0.528  0.6391  0.3366 -0.3192
  658MOL0     O88743  10.918   3.149  -0.288 -0.1696 -0.4805 -0.4741
  658MOL0     C88744  10.956   2.844  -0.467  0.3542  0.2789 -0.2312
  658MOL0     C88745  10.940   2.704  -0.466 -0.1006  0.4303 -0.9777
  658MOL0     N88746  10.506   2.241  -0.506  0.4233 -0.0642 -0.2367
  658MOL0     N88747  10.385   2.207  -0.464 -0.7778  0.0996 -0.1114
  658MOL0     C88748  10.007   1.898   0.751 -0.4822 -0.7829 -0.7873
  658MOL0     C88749   9.967   1.778   0.812  0.0564 -0.8423  0.5713
  658MOL0     C88750   9.844   1.323   0.862 -0.0675 -0.4243  0.4377
  658MOL0     C88751   9.928   1.287   0.968  1.0552  0.9957  0.7116
  658MOL0     C88752   9.899   1.176   1.049 -0.1316 -0.1641 -0.3259
  658MOL0     C88753   9.783   1.098   1.039  0.0165  0.1594  0.9398
  658MOL0     O88754   9.759   0.995   1.129 -0.1497 -0.6590  0.5099
  658MOL0     C88755   9.639   0.915   1.136 -0.1453  0.9354  0.4740
  658MOL0     C88756   9.671   0.787   1.049 -0.7245  0.1831 -0.8273
  658MOL0     C88757   9.743   0.683   1.124  0.5553  0.0489 -0.3410
  658MOL0     C88758   9.729   0.546   1.062 -0.2219 -1.0123 -0.1675
  658MOL0     C88759   9.797   0.451   1.152  0.5297  0.3080  0.2168
  658MOL0     C88760   9.849   0.353   1.207 -0.0539  0.2827 -0.0267
  658MOL0     C88761   9.699   1.141   0.932 -0.2772  0.7928 -0.3008
  658MOL0     C88762   9.727   1.249   0.847 -0.2221 -0.0901  0.6037
  658MOL0     H88763  10.044   1.565   0.569  2.8206  0.7526  1.1013
  658MOL0     H88764  10.120   1.759   0.461  1.9284  1.5508  1.1427
  658MOL0     H88765   9.982   2.142   0.587  1.9651  2.4679 -0.0920
  658MOL0     H88766  10.136   2.210   0.534 -1.0131  0.9065 -0.0928
  658MOL0     H88767   9.969   2.018   0.379 -0.2880  0.3538  4.1494
  658MOL0     H88768   9.987   2.198   0.356  0.8063  0.9282  0.1180
  658MOL0     H88769  10.227   2.156   0.301 -1.5263  1.7870  0.4357
  658MOL0     H88770  10.210   1.985   0.319 -1.9451 -1.4504  0.7784
  658MOL0     H88771  10.056   1.959   0.145  0.7506  0.1691 -0.0690
  658MOL0     H88772  10.036   2.135   0.115 -0.9329 -0.1050 -0.6248
  658MOL0     H88773  10.282   2.145   0.077  0.1096  0.5423 -1.3368
  658MOL0     H88774  10.299   1.967   0.087 -0.5630  0.6769  0.8654
  658MOL0     H88775  10.145   1.940  -0.096 -1.2993 -0.3529  2.4282
  658MOL0     H88776  10.118   2.112  -0.127  1.1417  1.7225  0.3511
  658MOL0     H88777  10.347   2.163  -0.167 -2.6147  0.3869 -2.4538
  658MOL0     H88778  10.397   2.002  -0.144  0.6610 -0.2789 -0.9050
  658MOL0     H88779  10.177   2.072  -0.349  0.6490  1.2055 -0.3038
  658MOL0     H88780  10.273   1.927  -0.334  3.2061  0.6522  1.4125
  658MOL0     H88781  10.538   1.929  -0.421  0.3487  0.0497 -0.2698
  658MOL0     H88782  10.783   2.058  -0.435  0.4305  0.3299 -0.7185
  658MOL0     H88783  10.762   2.092  -0.607 -1.2198 -0.1374 -0.0477
  658MOL0     H88784  10.729   2.330  -0.529  3.4426  2.5349  0.6703
  658MOL0     H88785  10.890   2.276  -0.477 -0.3662  2.4204  1.0766
  658MOL0     H88786  10.831   2.261  -0.250  0.3641  0.1001 -0.7865
  658MOL0     H88787  10.660   2.263  -0.276  1.4508 -0.9542  2.0005
  658MOL0     H88788  10.772   2.470  -0.194 -1.3142  1.3079  0.5312
  658MOL0     H88789  10.666   2.500  -0.343 -0.3642  1.0894 -0.6325
  658MOL0     H88790  10.850   2.664  -0.142 -0.0864  1.8185  0.8897
  658MOL0     H88791  10.811   2.873  -0.046 -0.2863  0.3034  0.2612
  658MOL0     H88792  10.930   2.999  -0.086  0.2367 -0.1807  1.3261
  658MOL0     H88793  10.757   3.005  -0.134 -0.5393 -0.5199  1.8026
  658MOL0     H88794  10.968   3.332  -0.529  0.2015  0.7678  1.0415
  658MOL0     H88795  10.845   3.548  -0.530  2.8016 -1.6504  1.7256
  658MOL0     H88796  10.694   3.724  -0.519  1.9793 -0.6468 -1.1425
  658MOL0     H88797  10.684   3.676  -0.691 -2.4369 -3.1595 -0.8408
  658MOL0     H88798  10.478   3.800  -0.512  1.5004 -0.3064  0.1128
  658MOL0     H88799  10.564   3.882  -0.657  0.9311 -0.3143  0.3049
  658MOL0     H88800  10.355   3.656  -0.655  1.0414 -1.5389 -1.1624
  658MOL0     H88801  10.437   3.718  -0.803  0.6278 -0.3778  0.5005
  658MOL0     H88802  10.260   3.892  -0.627  1.5874  1.6071 -0.9482
  658MOL0     H88803  10.323   3.927  -0.780 -0.1138  0.5770  0.5894
  658MOL0     H88804  10.150   3.693  -0.767  1.2261  0.1164  1.0087
  658MOL0     H88805  10.220   3.786  -0.907 -0.0459  2.7772 -0.6939
  658MOL0     H88806  10.012   3.875  -0.722  0.7567 -0.7003  0.5975
  658MOL0     H88807  10.104   3.963  -0.860  1.3165 -0.7239 -1.3472
  658MOL0     H88808   9.968   3.697  -0.916  2.6450  0.0832 -3.3048
  658MOL0     H88809   9.992   3.826  -1.026 -1.1542 -2.5880 -1.4625
  658MOL0     H88810   9.793   3.941  -0.951  1.9427 -0.4260 -1.0893
  658MOL0     H88811   9.800   3.852  -0.793  0.4967 -3.1762  0.5546
  658MOL0     H88812  10.477   3.336  -0.562  0.2787  3.1652 -0.0223
  658MOL0     H88813  10.610   3.111  -0.530 -2.1456  1.4822  1.1482
  658MOL0     H88814  10.995   2.885  -0.560  3.7746  0.6694  1.2424
  658MOL0     H88815  10.969   2.646  -0.552  1.4920  0.2713 -0.3573
  658MOL0     H88816   9.998   1.989   0.810 -3.5124 -1.7392  0.4122
  658MOL0     H88817   9.939   1.755   0.914  0.8319  0.0167  0.9877
  658MOL0     H88818  10.022   1.341   0.979  1.9404 -0.0603 -1.1381
  658MOL0     H88819   9.962   1.161   1.137 -3.4185 -2.6583  1.8412
  658MOL0     H88820   9.632   0.878   1.239 -0.2966  0.8111  0.4192
  658MOL0     H88821   9.544   0.963   1.108  0.5273  1.7943 -0.4279
  658MOL0     H88822   9.711   0.809   0.949 -0.9975  1.3312 -0.6963
  658MOL0     H88823   9.576   0.741   1.017 -0.9827  1.6755 -2.3701
  658MOL0     H88824   9.707   0.682   1.227  1.0105 -1.4234 -0.1603
  658MOL0     H88825   9.850   0.704   1.134  1.0569 -1.6341 -1.7172
  658MOL0     H88826   9.758   0.544   0.957 -0.7964  0.8731 -0.3988
  658MOL0     H88827   9.627   0.507   1.061  0.0680 -1.7684 -1.2534
  658MOL0     H88828   9.886   0.263   1.251 -2.5996 -0.2728  1.1707
  658MOL0     H88829   9.607   1.087   0.914  0.7932 -0.5595 -1.9338
  658MOL0     H88830   9.651   1.278   0.775 -0.3068  0.6032  0.9648
  659MOL0     O88831   2.958  11.369   6.629  0.4425  0.0257 -0.6731
  659MOL0     C88832   2.844  11.410   6.662 -0.5445 -0.2919 -0.7251
  659MOL0     O88833   2.743  11.330   6.711  0.2375  1.1777 -0.4045
  659MOL0     C88834   2.766  11.190   6.727 -0.6333 -0.1295  0.2159
  659MOL0     C88835   2.737  11.126   6.847 -0.2546 -0.5629 -0.2957
  659MOL0     C88836   2.747  10.987   6.858 -0.4426 -0.4045  0.3742
  659MOL0     C88837   2.792  10.903   6.759  0.1047  0.5595  0.7478
  659MOL0     O88838   2.807  10.764   6.772 -0.2970 -0.3101 -0.0241
  659MOL0     C88839   2.734  10.706   6.876  0.3976  0.2623 -0.4539
  659MOL0     C88840   2.792  10.572   6.891 -0.7177 -1.0681  0.2017
  659MOL0     C88841   2.711  10.456   6.952 -0.1411  0.3321  0.2209
  659MOL0     C88842   2.703  10.472   7.100 -0.2337  0.2206  0.8357
  659MOL0     C88843   2.603  10.379   7.170 -0.2028  0.1798  0.0424
  659MOL0     C88844   2.654  10.236   7.206  0.9459 -0.0652  0.1283
  659MOL0     C88845   2.570  10.173   7.325 -0.5744  0.8517 -0.6718
  659MOL0     C88846   2.598  10.027   7.353 -0.3970 -0.1623 -0.2256
  659MOL0     N88847   2.694  10.008   7.466 -0.0034  0.4023  0.6382
  659MOL0     C88848   2.672   9.924   7.573  0.5146 -0.0488 -1.0872
  659MOL0     C88849   2.782   9.913   7.647 -0.7362 -0.3219  0.3433
  659MOL0     C88850   2.805   9.841   7.776 -0.0040 -0.3549  0.6490
  659MOL0     C88851   2.839   9.692   7.750  0.2249  0.3621  0.2302
  659MOL0     C88852   2.824   9.599   7.869 -0.9122  0.3818  0.0261
  659MOL0     C88853   2.674   9.554   7.870 -0.1162 -0.6093 -0.6392
  659MOL0     O88854   2.682   9.410   7.855 -0.8385  0.6896  0.2910
  659MOL0     C88855   2.588   9.347   7.920 -0.1123  0.6209 -0.6298
  659MOL0     C88856   2.448   9.358   7.910  0.3219 -0.6572 -0.2624
  659MOL0     C88857   2.353   9.280   7.979  0.8987  0.6899  0.2585
  659MOL0     C88858   2.210   9.317   7.947  0.2429  0.1647  0.0377
  659MOL0     C88859   2.397   9.185   8.070 -0.5214  0.0427 -0.2896
  659MOL0     C88860   2.312   9.094   8.143  0.2132  0.1500 -0.4163
  659MOL0     O88861   2.345   9.067   8.271 -1.3329 -0.0961 -0.3324
  659MOL0     C88862   2.257   9.014   8.368  0.1346 -0.1194  0.8132
  659MOL0     C88863   2.147   8.935   8.335 -0.6905  0.6980  0.5994
  659MOL0     C88864   2.058   8.911   8.443 -0.7799  0.6427  0.1394
  659MOL0     C88865   2.081   8.958   8.574 -0.4320 -0.2163  0.9523
  659MOL0     O88866   1.989   8.919   8.666  0.1315 -0.1774  0.2545
  659MOL0     C88867   1.931   9.026   8.728 -1.1806  0.2888 -0.4190
  659MOL0     C88868   1.824   8.979   8.819 -0.3054 -0.7794  0.5208
  659MOL0     C88869   1.878   8.932   8.958 -0.2895  0.0150  0.4132
  659MOL0     C88870   1.841   9.021   9.080  0.0646  0.5832 -0.1813
  659MOL0     C88871   1.699   9.013   9.127 -0.8418  0.7582  0.1078
  659MOL0     C88872   1.681   9.136   9.219 -0.1348  0.2033 -0.8539
  659MOL0     C88873   1.563   9.098   9.316 -0.7999  0.5556 -0.3212
  659MOL0     C88874   1.530   9.199   9.423  0.6911 -0.1178  0.4245
  659MOL0    Cl88875   1.385   9.137   9.505  0.1690  0.1779  0.2161
  659MOL0     C88876   2.197   9.026   8.611 -0.3783 -0.1201 -0.0527
  659MOL0     C88877   2.282   9.054   8.505  0.1278  0.1314 -0.2755
  659MOL0     O88878   2.214   9.056   8.084  0.7826 -0.1475 -0.4076
  659MOL0     C88879   2.537   9.171   8.077  1.0145  0.6144  0.1730
  659MOL0     C88880   2.628   9.239   7.996 -0.2145 -1.2387 -0.1138
  659MOL0     N88881   2.878   9.991   7.583 -0.1703  0.3143  0.1878
  659MOL0     N88882   2.825  10.041   7.475  0.7345 -0.2012 -0.1798
  659MOL0     C88883   2.835  10.964   6.640  0.2586 -0.1059  0.0764
  659MOL0     C88884   2.810  11.108   6.619  0.1324 -0.2606 -0.2084
  659MOL0     C88885   2.837  11.552   6.667 -0.0278 -1.0693 -0.1070
  659MOL0     C88886   2.938  11.636   6.616  0.0418 -0.2057  0.1443
  659MOL0     C88887   2.920  11.774   6.643  0.2865 -0.0591  0.5433
  659MOL0     C88888   2.805  11.819   6.714  0.0160 -1.3475  0.0867
  659MOL0     O88889   2.788  11.947   6.751  0.0904  0.5591 -0.0835
  659MOL0     C88890   2.837  12.053   6.663  0.4562 -0.3416 -0.9073
  659MOL0     C88891   2.803  12.186   6.736  0.4031  0.1922  0.0726
  659MOL0     C88892   2.642  12.192   6.731 -0.7156 -0.7025 -0.1609
  659MOL0     C88893   2.593  12.294   6.843  0.0217  0.4090  0.4637
  659MOL0     C88894   2.453  12.316   6.848  0.6680  0.3236  0.3059
  659MOL0     C88895   2.334  12.345   6.848 -0.1920  0.3057 -0.5322
  659MOL0     C88896   2.711  11.731   6.754  0.7617  0.4003 -0.3522
  659MOL0     C88897   2.721  11.597   6.725 -0.8172  0.0126  0.4299
  659MOL0     H88898   2.694  11.186   6.926 -3.3275  0.3051 -2.4265
  659MOL0     H88899   2.725  10.942   6.955  0.4409 -0.7968  0.3981
  659MOL0     H88900   2.743  10.752   6.975  0.2640  0.1695 -0.3992
  659MOL0     H88901   2.628  10.696   6.854  0.3977  0.1379 -0.3994
  659MOL0     H88902   2.822  10.541   6.790  1.8731  1.3141  0.1443
  659MOL0     H88903   2.888  10.587   6.941 -1.1866  0.1973  0.7639
  659MOL0     H88904   2.610  10.457   6.909 -0.7783  0.4625  1.6636
  659MOL0     H88905   2.761  10.360   6.932 -2.0973 -0.6872  0.0139
  659MOL0     H88906   2.806  10.443   7.123  0.7344  2.5838 -0.1898
  659MOL0     H88907   2.683  10.576   7.127  2.4697  0.4114  2.4649
  659MOL0     H88908   2.572  10.427   7.263  2.4154 -0.6921  1.4575
  659MOL0     H88909   2.510  10.377   7.112 -2.0230  1.4241  2.6988
  659MOL0     H88910   2.642  10.183   7.111  2.4570  0.7248 -0.5413
  659MOL0     H88911   2.762  10.238   7.227  0.8461  0.0104  0.6564
  659MOL0     H88912   2.604  10.234   7.410  1.5156 -0.1913 -0.6920
  659MOL0     H88913   2.462  10.184   7.311 -0.8926  0.8986  1.4280
  659MOL0     H88914   2.648   9.983   7.267  1.7399  0.1888  0.7637
  659MOL0     H88915   2.498   9.984   7.370 -0.7044  0.0525 -1.4298
  659MOL0     H88916   2.576   9.880   7.601 -1.0003  2.6340 -1.6656
  659MOL0     H88917   2.876   9.886   7.845 -0.6215  1.9225 -0.1154
  659MOL0     H88918   2.705   9.838   7.821 -0.1006  0.0472  0.4691
  659MOL0     H88919   2.940   9.691   7.708  0.7136  1.8759  1.2872
  659MOL0     H88920   2.770   9.668   7.669  0.7594  1.1676 -0.4729
  659MOL0     H88921   2.855   9.640   7.966 -0.9986 -1.8942  1.0807
  659MOL0     H88922   2.893   9.515   7.855  1.2673  1.8770  1.1294
  659MOL0     H88923   2.622   9.606   7.789  0.9446  0.9794 -0.3317
  659MOL0     H88924   2.633   9.581   7.967  0.2250  0.5581 -0.8132
  659MOL0     H88925   2.409   9.440   7.851 -1.1608 -1.4903 -0.4876
  659MOL0     H88926   2.165   9.362   8.036  1.3596  0.3028  0.5473
  659MOL0     H88927   2.201   9.381   7.858  1.8417 -0.4334 -0.5963
  659MOL0     H88928   2.158   9.225   7.921  0.8449 -1.5536  4.1876
  659MOL0     H88929   2.149   8.899   8.232  0.1510  0.8153  0.5632
  659MOL0     H88930   1.970   8.849   8.431 -1.8103  2.2000 -0.6740
  659MOL0     H88931   2.001   9.088   8.785  0.0433 -0.5901 -0.9272
  659MOL0     H88932   1.884   9.085   8.648  0.2123 -2.0962 -3.1569
  659MOL0     H88933   1.766   9.070   8.837  0.9198  0.4948 -1.5100
  659MOL0     H88934   1.755   8.911   8.768  1.0963  0.0366 -2.7284
  659MOL0     H88935   1.987   8.929   8.942 -0.7882 -2.6650 -4.4951
  659MOL0     H88936   1.846   8.829   8.975  0.4474 -0.0862  1.2784
  659MOL0     H88937   1.909   8.986   9.158  1.7244 -0.8695 -2.1683
  659MOL0     H88938   1.858   9.125   9.053 -0.9569 -0.1088 -4.1114
  659MOL0     H88939   1.679   8.926   9.191 -0.9396  0.9983  0.4080
  659MOL0     H88940   1.630   9.002   9.043  1.9757  0.6229 -2.3555
  659MOL0     H88941   1.767   9.141   9.287  0.8564  0.5117 -2.0951
  659MOL0     H88942   1.673   9.236   9.176 -0.9723  2.0604  3.1456
  659MOL0     H88943   1.586   8.998   9.355  0.2724  1.4790  1.5213
  659MOL0     H88944   1.478   9.087   9.248  2.2367 -0.8545 -4.3198
  659MOL0     H88945   1.505   9.295   9.377  1.0356 -0.9396 -1.5952
  659MOL0     H88946   1.607   9.203   9.500 -0.5517  0.6501  1.6691
  659MOL0     H88947   2.218   9.063   8.711 -3.4751  1.4638  0.1368
  659MOL0     H88948   2.345   9.140   8.527 -2.6368  1.7604  2.0888
  659MOL0     H88949   2.567   9.098   8.151 -1.4395 -2.4057 -1.5649
  659MOL0     H88950   2.736   9.234   8.001  0.4524  4.1073 -2.8352
  659MOL0     H88951   2.867  10.906   6.555 -0.9604  2.4105 -2.2405
  659MOL0     H88952   2.810  11.154   6.521  0.8699 -0.9040 -0.5235
  659MOL0     H88953   3.021  11.599   6.556 -0.0561  1.0571 -0.7929
  659MOL0     H88954   2.993  11.838   6.594  1.4264 -3.1129 -2.1739
  659MOL0     H88955   2.945  12.051   6.648  1.1974 -0.1682  3.2205
  659MOL0     H88956   2.776  12.048   6.573 -0.8243  0.1733 -0.1092
  659MOL0     H88957   2.843  12.270   6.680 -0.8896  1.5895  1.1415
  659MOL0     H88958   2.841  12.203   6.837  0.3169 -1.9646  0.5097
  659MOL0     H88959   2.598  12.094   6.751 -3.6272  0.0279 -2.3531
  659MOL0     H88960   2.600  12.223   6.635 -3.3050 -1.9516  0.4753
  659MOL0     H88961   2.643  12.389   6.821  0.6391  0.0064  0.0819
  659MOL0     H88962   2.625  12.257   6.941 -1.3668  0.6650  1.0302
  659MOL0     H88963   2.228  12.349   6.839 -0.4073 -3.8610 -2.1416
  659MOL0     H88964   2.634  11.780   6.812  0.1207  0.0967 -0.9300
  659MOL0     H88965   2.642  11.528   6.751  0.1962 -1.1573  0.5122
  660MOL0     O88966   6.587   4.961   8.817  0.4672  0.4149 -0.1374
  660MOL0     C88967   6.654   4.883   8.748  0.4854 -0.6671  0.1671
  660MOL0     O88968   6.691   4.905   8.612 -0.1296 -0.2013  0.1106
  660MOL0     C88969   6.643   5.022   8.567 -0.2653  1.4463 -0.5793
  660MOL0     C88970   6.729   5.130   8.579  0.8967 -0.5665  0.4001
  660MOL0     C88971   6.691   5.253   8.529  0.0605  0.2118  0.3738
  660MOL0     C88972   6.569   5.268   8.468  0.8897  0.2311 -0.7981
  660MOL0     O88973   6.534   5.393   8.419  0.2661 -0.1598  0.2860
  660MOL0     C88974   6.406   5.439   8.465  0.3458 -0.2059 -1.2273
  660MOL0     C88975   6.312   5.456   8.347 -0.4824  1.0642  0.9200
  660MOL0     C88976   6.320   5.599   8.290  0.5175  0.3609  0.8007
  660MOL0     C88977   6.218   5.606   8.175  0.7693  0.3880 -0.0570
  660MOL0     C88978   6.189   5.756   8.137 -0.0012 -0.5182  0.1701
  660MOL0     C88979   6.100   5.838   8.237  0.6584 -0.0576  0.3480
  660MOL0     C88980   6.072   5.981   8.192  0.2472  0.3242  0.9101
  660MOL0     C88981   5.943   6.027   8.250  0.8795  0.8945  0.3088
  660MOL0     N88982   5.924   6.174   8.237  0.2559  0.0855  0.1099
  660MOL0     C88983   6.021   6.268   8.256  0.1614 -0.7308  0.9157
  660MOL0     C88984   5.956   6.384   8.235  0.7163 -0.2146  0.4280
  660MOL0     C88985   6.008   6.522   8.229  0.5217  0.3077  0.7880
  660MOL0     C88986   6.041   6.571   8.079 -0.4676 -0.3136 -0.0987
  660MOL0     C88987   6.072   6.723   8.073  0.3455 -0.1418  0.1463
  660MOL0     C88988   6.201   6.773   8.150 -0.6588  0.1641  0.6512
  660MOL0     O88989   6.252   6.895   8.094 -0.1386  0.0163  0.2028
  660MOL0     C88990   6.347   6.957   8.171 -0.4370 -0.4373 -0.1621
  660MOL0     C88991   6.378   7.080   8.119 -0.4226  0.2968  0.7775
  660MOL0     C88992   6.456   7.172   8.185 -0.6411  0.8798  0.0319
  660MOL0     C88993   6.491   7.302   8.109  0.5290 -0.0077  0.6376
  660MOL0     C88994   6.516   7.135   8.316 -0.4974  1.3700 -0.4088
  660MOL0     C88995   6.590   7.232   8.410 -0.2458  0.1215  0.2970
  660MOL0     O88996   6.621   7.174   8.525  0.6626  0.5819 -0.1745
  660MOL0     C88997   6.707   7.232   8.614 -0.4016 -0.3190  0.9564
  660MOL0     C88998   6.792   7.146   8.677 -0.0965 -0.2581  0.1714
  660MOL0     C88999   6.884   7.198   8.768 -1.1405 -0.6276  1.4591
  660MOL0     C89000   6.889   7.334   8.812 -0.5710 -0.7771  0.5810
  660MOL0     O89001   6.962   7.382   8.915  0.1433 -0.2579 -0.0279
  660MOL0     C89002   7.042   7.280   9.000 -0.3603 -0.7465 -0.6081
  660MOL0     C89003   7.179   7.249   8.942  0.3773  0.0779 -0.0517
  660MOL0     C89004   7.273   7.356   8.970  0.1624 -0.8277  0.2437
  660MOL0     C89005   7.233   7.487   8.900  0.2353 -0.5422 -0.5513
  660MOL0     C89006   7.346   7.572   8.849 -0.7185  0.4832  0.2242
  660MOL0     C89007   7.313   7.702   8.783  0.5182 -0.8684 -0.0451
  660MOL0     C89008   7.428   7.783   8.728  0.1049 -0.5929  0.5436
  660MOL0     C89009   7.393   7.875   8.623 -0.3318 -0.0950 -0.0980
  660MOL0    Cl89010   7.524   8.001   8.619 -0.0663  0.0386 -0.1553
  660MOL0     C89011   6.805   7.428   8.744 -0.5921  0.0667 -0.1631
  660MOL0     C89012   6.727   7.377   8.632 -0.8312 -0.9365  0.0068
  660MOL0     O89013   6.610   7.349   8.377 -0.0971  0.0500  0.2228
  660MOL0     C89014   6.494   7.001   8.366  0.5671 -0.0508 -0.2377
  660MOL0     C89015   6.414   6.917   8.287  1.5881 -0.3534 -0.2063
  660MOL0     N89016   5.824   6.362   8.197  0.3759  0.0607 -0.5017
  660MOL0     N89017   5.802   6.237   8.209 -0.7263  0.0656 -0.3249
  660MOL0     C89018   6.485   5.160   8.452  0.5975  0.4082 -0.2601
  660MOL0     C89019   6.515   5.034   8.503 -0.0666  0.0312 -0.1107
  660MOL0     C89020   6.697   4.754   8.814 -0.2720  0.0442  0.8082
  660MOL0     C89021   6.790   4.668   8.749  0.0531  0.6565 -0.9716
  660MOL0     C89022   6.848   4.561   8.821 -0.1759 -0.0457  0.3952
  660MOL0     C89023   6.816   4.540   8.951  0.8354  0.3848  1.2267
  660MOL0     O89024   6.870   4.439   9.021  0.5430 -0.3521 -0.4668
  660MOL0     C89025   6.790   4.320   9.017 -0.3927  0.7122  0.2656
  660MOL0     C89026   6.873   4.191   9.066 -0.0885  0.2240 -1.0420
  660MOL0     C89027   6.885   4.216   9.221 -0.1322  0.1818  0.0485
  660MOL0     C89028   6.990   4.130   9.299 -0.0050 -0.3823 -0.5030
  660MOL0     C89029   6.992   3.987   9.261 -0.2937 -1.3581 -0.1190
  660MOL0     C89030   6.993   3.872   9.229  0.2028 -0.1911 -0.0826
  660MOL0     C89031   6.723   4.620   9.017 -0.1072  0.6561  0.4479
  660MOL0     C89032   6.662   4.726   8.949 -0.3324  0.3459 -0.6707
  660MOL0     H89033   6.822   5.132   8.634  0.0242  1.0352  1.8946
  660MOL0     H89034   6.763   5.332   8.549 -0.5934  0.4830  1.7130
  660MOL0     H89035   6.360   5.367   8.533  2.8280  0.6004  1.5207
  660MOL0     H89036   6.432   5.537   8.505  1.9753  0.0045 -2.6541
  660MOL0     H89037   6.347   5.384   8.273  0.1490  0.8929  1.3793
  660MOL0     H89038   6.210   5.429   8.375  0.1905 -1.5184  1.1402
  660MOL0     H89039   6.300   5.683   8.358  3.2817  0.1004  2.0798
  660MOL0     H89040   6.420   5.616   8.249  0.9161  0.6780  1.8497
  660MOL0     H89041   6.267   5.558   8.089  0.5715  0.5132 -0.2401
  660MOL0     H89042   6.127   5.554   8.205  0.4346  0.0609 -1.5447
  660MOL0     H89043   6.281   5.809   8.113 -0.8830  0.8111 -0.3985
  660MOL0     H89044   6.135   5.759   8.042  1.2485 -1.1679 -0.5818
  660MOL0     H89045   6.000   5.792   8.241  0.9509 -0.8664 -0.9470
  660MOL0     H89046   6.148   5.828   8.335 -1.0200 -0.3204  1.1905
  660MOL0     H89047   6.146   6.045   8.241 -0.6574  1.5938  0.6676
  660MOL0     H89048   6.080   6.003   8.086 -1.5555  1.4370  0.9640
  660MOL0     H89049   5.944   6.011   8.359  4.5941  1.2448  0.4622
  660MOL0     H89050   5.865   5.974   8.196 -1.7028  0.7321  3.8244
  660MOL0     H89051   6.126   6.258   8.282  0.1378 -1.1017  0.8698
  660MOL0     H89052   5.940   6.598   8.266 -1.8971 -1.1169 -0.5079
  660MOL0     H89053   6.092   6.528   8.299  1.2543 -1.3833  0.1036
  660MOL0     H89054   5.949   6.557   8.022 -1.2807 -2.3612  1.5894
  660MOL0     H89055   6.123   6.507   8.045 -0.8688 -1.7008  1.4390
  660MOL0     H89056   5.979   6.765   8.112 -0.7350 -1.3978 -1.0055
  660MOL0     H89057   6.079   6.758   7.970 -0.4390  2.1954  0.8238
  660MOL0     H89058   6.290   6.713   8.129  1.2953  3.1150 -0.2158
  660MOL0     H89059   6.179   6.788   8.256 -1.1902 -1.9349  0.8773
  660MOL0     H89060   6.320   7.109   8.031 -0.5254  0.5624  0.9323
  660MOL0     H89061   6.598   7.318   8.129  1.5361 -1.8844 -2.3761
  660MOL0     H89062   6.482   7.298   8.000 -2.8228  1.5413  0.7615
  660MOL0     H89063   6.432   7.388   8.140 -0.1017 -0.6904  1.3621
  660MOL0     H89064   6.796   7.040   8.655  3.8720  0.2644 -2.7687
  660MOL0     H89065   6.950   7.124   8.812  2.9517  0.7683 -1.7036
  660MOL0     H89066   7.056   7.326   9.098 -1.4318  1.9166 -1.5871
  660MOL0     H89067   6.996   7.181   9.004 -0.6536 -0.6457  4.3885
  660MOL0     H89068   7.216   7.155   8.983  3.7060  0.9865 -0.7372
  660MOL0     H89069   7.155   7.239   8.836 -1.7628  3.7319 -0.0868
  660MOL0     H89070   7.374   7.333   8.935  0.6725  1.0604  0.3781
  660MOL0     H89071   7.280   7.366   9.079 -2.4862  0.2429  0.3791
  660MOL0     H89072   7.176   7.451   8.814  0.5992 -0.2883 -0.9001
  660MOL0     H89073   7.170   7.552   8.961 -0.9926  0.0580 -2.3770
  660MOL0     H89074   7.380   7.496   8.778 -1.7642 -1.3917  1.6290
  660MOL0     H89075   7.424   7.584   8.924 -0.8324 -1.1742  0.6519
  660MOL0     H89076   7.256   7.679   8.693  1.1108 -0.0546 -0.6475
  660MOL0     H89077   7.253   7.766   8.849  1.1795  2.1182 -2.1530
  660MOL0     H89078   7.503   7.719   8.681  1.8153  0.6878  1.4333
  660MOL0     H89079   7.475   7.842   8.807  1.7755 -0.1077 -0.7604
  660MOL0     H89080   7.308   7.938   8.650 -1.6765 -0.1397 -3.7325
  660MOL0     H89081   7.371   7.830   8.526 -1.4406  2.0691 -0.9100
  660MOL0     H89082   6.796   7.536   8.752 -2.4556 -0.2097  2.6907
  660MOL0     H89083   6.674   7.452   8.573 -1.3090  1.2098  2.9322
  660MOL0     H89084   6.538   6.976   8.462  1.5255  5.1335  0.9395
  660MOL0     H89085   6.403   6.814   8.319  3.2649 -0.3759  0.3862
  660MOL0     H89086   6.388   5.170   8.405 -0.7054  2.1303  2.5227
  660MOL0     H89087   6.436   4.961   8.486  0.9335 -0.7858 -1.5712
  660MOL0     H89088   6.819   4.685   8.646 -1.1729 -0.6581 -1.5727
  660MOL0     H89089   6.918   4.497   8.768 -0.5186  0.9031 -1.2721
  660MOL0     H89090   6.700   4.326   9.078  1.2938 -0.4216  3.0883
  660MOL0     H89091   6.765   4.296   8.913 -1.4457  2.7413 -0.0001
  660MOL0     H89092   6.968   4.174   9.012  0.8474 -1.3480  0.9484
  660MOL0     H89093   6.812   4.100   9.059 -2.2349  1.1147  3.0955
  660MOL0     H89094   6.783   4.199   9.259  0.5072 -1.6947  1.0641
  660MOL0     H89095   6.911   4.321   9.237 -1.0638  0.7005 -1.6364
  660MOL0     H89096   6.963   4.134   9.405  3.6039 -2.0398  0.6395
  660MOL0     H89097   7.094   4.163   9.299 -0.2632  0.4356 -0.6567
  660MOL0     H89098   7.021   3.770   9.206  1.2569 -0.8533  3.4854
  660MOL0     H89099   6.715   4.605   9.124 -0.4189 -1.0438  0.2078
  660MOL0     H89100   6.587   4.779   9.007  1.8949 -1.5830  4.6931
  661MOL0     O89101   7.910   9.539   7.507 -0.6547  0.2494 -0.0214
  661MOL0     C89102   7.966   9.513   7.405  0.2689 -0.3846  0.2635
  661MOL0     O89103   8.070   9.584   7.345  0.2569 -0.7415  0.4595
  661MOL0     C89104   8.132   9.691   7.387 -0.4814 -0.8383  0.6091
  661MOL0     C89105   8.091   9.785   7.480  0.5998  0.3067 -1.2087
  661MOL0     C89106   8.154   9.908   7.501  0.7409  0.5378 -0.1479
  661MOL0     C89107   8.263   9.951   7.425 -0.1387  0.0048  0.6804
  661MOL0     O89108   8.322  10.082   7.427 -0.1163 -0.1170 -0.5796
  661MOL0     C89109   8.272  10.181   7.521  0.8211  0.2419 -0.0449
  661MOL0     C89110   8.361  10.301   7.524  0.0825  1.3293  0.3128
  661MOL0     C89111   8.311  10.387   7.642 -0.0465  1.2599  0.3597
  661MOL0     C89112   8.423  10.482   7.673  0.0369 -0.7370  0.7293
  661MOL0     C89113   8.410  10.558   7.802  0.2220 -0.6840 -0.3083
  661MOL0     C89114   8.542  10.634   7.826 -0.0412 -0.6125  0.2471
  661MOL0     C89115   8.550  10.784   7.773  0.0101  1.0320  1.1076
  661MOL0     C89116   8.441  10.886   7.820 -0.4838  0.7361  0.7222
  661MOL0     N89117   8.461  10.924   7.954  0.3606 -0.2347 -0.3156
  661MOL0     C89118   8.552  11.012   8.003 -0.1125  0.7596  0.3978
  661MOL0     C89119   8.519  11.039   8.130  0.2691  0.1001  0.3362
  661MOL0     C89120   8.593  11.128   8.223  0.3239 -0.0662 -0.4205
  661MOL0     C89121   8.583  11.272   8.171  0.4301 -0.0263 -0.1868
  661MOL0     C89122   8.441  11.335   8.196  0.1112 -1.3823 -0.1871
  661MOL0     C89123   8.412  11.319   8.352  0.4814  0.9748  0.1054
  661MOL0     O89124   8.516  11.392   8.425 -0.0361 -0.5315  0.0685
  661MOL0     C89125   8.541  11.529   8.402  1.1839 -0.3290 -0.6244
  661MOL0     C89126   8.446  11.625   8.354  0.0224  0.2794  0.3741
  661MOL0     C89127   8.468  11.769   8.351  1.2847  0.5184 -0.6820
  661MOL0     C89128   8.365  11.858   8.287 -0.2444  0.6723  0.8236
  661MOL0     C89129   8.588  11.819   8.412 -0.1087  0.2014 -0.0129
  661MOL0     C89130   8.608  11.958   8.434 -0.0541 -0.7348 -0.9370
  661MOL0     O89131   8.563  12.049   8.344 -0.3699 -0.1347  0.3943
  661MOL0     C89132   8.576  12.190   8.380 -0.0594  0.3411  0.0785
  661MOL0     C89133   8.688  12.252   8.436  0.0336  0.4896 -1.0166
  661MOL0     C89134   8.685  12.390   8.474 -0.0077  0.3773 -0.3968
  661MOL0     C89135   8.560  12.463   8.462 -0.0646 -0.5488 -0.1119
  661MOL0     O89136   8.541  12.593   8.496  0.1668  0.9376  0.9135
  661MOL0     C89137   8.655  12.662   8.540 -0.0100  0.1021  0.7848
  661MOL0     C89138   8.631  12.806   8.582  0.3618 -0.1092  1.0731
  661MOL0     C89139   8.764  12.877   8.635 -0.5997  1.2255 -0.0130
  661MOL0     C89140   8.751  13.012   8.710  1.1400  0.2849  0.4526
  661MOL0     C89141   8.870  13.063   8.790 -0.3844  0.4899 -0.4002
  661MOL0     C89142   8.846  13.209   8.835 -0.1377 -0.0869  0.4045
  661MOL0     C89143   8.964  13.278   8.907  0.1477  0.6550  0.3748
  661MOL0     C89144   8.929  13.425   8.915  0.5443 -0.0034 -0.3302
  661MOL0    Cl89145   9.051  13.529   9.009  0.1781 -0.1664  0.0606
  661MOL0     C89146   8.448  12.397   8.399 -0.5700  0.2787  0.1252
  661MOL0     C89147   8.458  12.259   8.364 -0.0878 -0.0726  0.6844
  661MOL0     O89148   8.654  11.987   8.549  0.5885  0.2143 -0.5153
  661MOL0     C89149   8.680  11.725   8.477  0.0880 -0.0267 -0.7559
  661MOL0     C89150   8.661  11.579   8.457  0.3618 -0.6916 -0.4328
  661MOL0     N89151   8.407  10.970   8.152 -0.1385  0.4173 -0.1029
  661MOL0     N89152   8.379  10.893   8.056 -0.3877 -0.5738 -0.3878
  661MOL0     C89153   8.316   9.859   7.334  0.1971  0.1380 -0.8470
  661MOL0     C89154   8.251   9.734   7.316 -0.3538 -1.0217  0.3776
  661MOL0     C89155   7.933   9.384   7.349 -0.2369 -0.0605 -0.0307
  661MOL0     C89156   7.894   9.269   7.424 -0.2880 -0.0921  0.8930
  661MOL0     C89157   7.857   9.152   7.360  0.7596  0.9315  0.8697
  661MOL0     C89158   7.839   9.135   7.215 -0.6501 -1.3403 -0.1325
  661MOL0     O89159   7.796   9.020   7.165 -0.0208  0.5594  0.5463
  661MOL0     C89160   7.810   8.996   7.029  0.0348  0.4315  1.1381
  661MOL0     C89161   7.723   8.872   7.004 -0.7321  0.2720 -0.4958
  661MOL0     C89162   7.792   8.747   7.068 -0.3539  0.1731 -0.1290
  661MOL0     C89163   7.911   8.697   6.993 -0.5354  0.0318 -0.6418
  661MOL0     C89164   7.879   8.609   6.890  0.3368 -0.4928 -0.4768
  661MOL0     C89165   7.853   8.537   6.798  0.2124  1.4720 -1.1880
  661MOL0     C89166   7.882   9.249   7.149 -0.6234 -0.2204  0.2761
  661MOL0     C89167   7.934   9.369   7.210  0.1805  0.8084  0.6664
  661MOL0     H89168   8.008   9.753   7.542  0.7704 -0.0521 -1.1636
  661MOL0     H89169   8.111   9.972   7.577 -0.3303 -1.7496  1.2481
  661MOL0     H89170   8.167  10.208   7.506  0.0850 -0.5200  3.0473
  661MOL0     H89171   8.276  10.141   7.622 -0.3051  1.0254  0.3314
  661MOL0     H89172   8.460  10.255   7.538  0.0974 -0.0846 -3.4197
  661MOL0     H89173   8.356  10.357   7.430 -0.7325 -0.4753 -0.7709
  661MOL0     H89174   8.218  10.443   7.627 -0.7002 -0.2464 -1.6588
  661MOL0     H89175   8.322  10.319   7.727  0.7466  2.2641  1.0753
  661MOL0     H89176   8.520  10.430   7.672  1.2575  1.4291 -1.4872
  661MOL0     H89177   8.432  10.544   7.584 -0.0580  1.1632  2.0039
  661MOL0     H89178   8.325  10.625   7.786  0.4442 -0.4074 -0.3551
  661MOL0     H89179   8.382  10.498   7.889 -0.0931 -2.1971 -1.4135
  661MOL0     H89180   8.573  10.651   7.929  0.7149  0.1426 -0.0916
  661MOL0     H89181   8.622  10.578   7.777  2.5254  2.4934  0.5499
  661MOL0     H89182   8.642  10.831   7.810  1.5585 -2.5302  2.2007
  661MOL0     H89183   8.542  10.773   7.664  0.5108 -0.6687  1.2163
  661MOL0     H89184   8.339  10.860   7.789 -1.6863  3.9587  1.5948
  661MOL0     H89185   8.462  10.979   7.766  2.0846 -0.1724  0.0304
  661MOL0     H89186   8.652  11.029   7.963  0.6254  0.1839  1.8980
  661MOL0     H89187   8.555  11.112   8.324 -1.8146  0.5844 -1.0606
  661MOL0     H89188   8.700  11.110   8.213 -0.0565 -1.9255 -1.7399
  661MOL0     H89189   8.607  11.289   8.065  0.6671  5.2709  0.4250
  661MOL0     H89190   8.656  11.339   8.218 -1.5102  1.2655  1.1215
  661MOL0     H89191   8.375  11.279   8.129 -2.3645  0.7406  0.3216
  661MOL0     H89192   8.435  11.440   8.166  1.2849 -0.6701  1.8371
  661MOL0     H89193   8.414  11.216   8.389 -2.1188  1.3178  1.4312
  661MOL0     H89194   8.315  11.361   8.383 -0.4249 -1.1863  0.3475
  661MOL0     H89195   8.358  11.590   8.300 -0.5423  1.0589  0.7689
  661MOL0     H89196   8.331  11.945   8.343  1.2969  1.9730 -0.1572
  661MOL0     H89197   8.412  11.896   8.195 -0.2902 -0.7915  0.1654
  661MOL0     H89198   8.280  11.800   8.252  0.4553 -0.9356  1.6861
  661MOL0     H89199   8.785  12.205   8.445  1.3145  2.9697 -0.8084
  661MOL0     H89200   8.772  12.447   8.503 -2.1389  3.0446  1.1155
  661MOL0     H89201   8.690  12.601   8.624  1.3423  0.0825  0.2264
  661MOL0     H89202   8.738  12.678   8.470 -0.2040 -2.2131 -0.0809
  661MOL0     H89203   8.581  12.860   8.501 -0.8383  0.8918  2.4056
  661MOL0     H89204   8.561  12.803   8.666 -0.8557  0.5206  0.1189
  661MOL0     H89205   8.827  12.879   8.545 -3.1576  4.0576 -1.9342
  661MOL0     H89206   8.801  12.798   8.701  0.3946  1.8637  0.2270
  661MOL0     H89207   8.715  13.084   8.635 -0.4520 -0.8866  0.0548
  661MOL0     H89208   8.669  12.994   8.779 -0.9649  0.5145 -1.8559
  661MOL0     H89209   8.967  13.061   8.739  0.0378 -1.4007  0.3902
  661MOL0     H89210   8.892  12.998   8.875  1.3841 -2.7417 -3.1190
  661MOL0     H89211   8.804  13.270   8.755 -0.2417  1.8715  1.8790
  661MOL0     H89212   8.767  13.197   8.911  0.9853 -1.6201  1.4106
  661MOL0     H89213   9.048  13.259   8.839  2.8265  2.1938  3.0510
  661MOL0     H89214   8.983  13.230   9.003  0.4041  0.6246  0.3104
  661MOL0     H89215   8.833  13.446   8.964 -0.3835  0.2481 -2.1743
  661MOL0     H89216   8.928  13.470   8.815  1.2991  1.1753  0.1665
  661MOL0     H89217   8.354  12.450   8.382 -0.7342 -0.7284 -2.6467
  661MOL0     H89218   8.361  12.220   8.335 -0.8794  2.3271 -0.1692
  661MOL0     H89219   8.775  11.759   8.519  0.4990 -0.3882 -1.3738
  661MOL0     H89220   8.733  11.515   8.508  0.9834  1.5908  1.7563
  661MOL0     H89221   8.405   9.885   7.278  0.7557 -1.4811 -0.7674
  661MOL0     H89222   8.280   9.672   7.231  2.7200  0.9193 -0.1652
  661MOL0     H89223   7.883   9.264   7.532  1.5655  0.9276  1.1746
  661MOL0     H89224   7.829   9.061   7.412  0.2401  0.0522 -0.8589
  661MOL0     H89225   7.771   9.081   6.972  0.0875 -0.2983 -0.0237
  661MOL0     H89226   7.915   8.998   6.996  0.0441  2.2631  1.1767
  661MOL0     H89227   7.710   8.864   6.895 -0.3988  0.3916 -0.5442
  661MOL0     H89228   7.628   8.881   7.058  0.2970  2.8784  1.0296
  661MOL0     H89229   7.716   8.670   7.081 -0.7536 -0.1004 -3.2357
  661MOL0     H89230   7.822   8.775   7.169 -0.3604 -0.4638  0.0496
  661MOL0     H89231   7.972   8.639   7.063  0.8784 -1.1522 -2.7250
  661MOL0     H89232   7.970   8.786   6.970  0.6653 -0.3747  0.7074
  661MOL0     H89233   7.827   8.507   6.698  0.9364  4.1624 -2.2774
  661MOL0     H89234   7.878   9.254   7.041 -3.5801  0.7947  0.3623
  661MOL0     H89235   7.981   9.444   7.147 -0.3613  0.9968  0.4892
  662MOL0     O89236  10.078  10.287   6.398  0.6385  0.4933  0.4712
  662MOL0     C89237  10.202  10.309   6.393 -1.0427 -0.8608  0.4525
  662MOL0     O89238  10.298  10.253   6.300 -0.1075  0.2140 -0.0824
  662MOL0     C89239  10.253  10.161   6.205 -0.5065  0.0089 -0.6429
  662MOL0     C89240  10.180  10.050   6.247 -0.0110  0.7308  0.0710
  662MOL0     C89241  10.166   9.944   6.152 -0.3546  0.0245  0.2763
  662MOL0     C89242  10.224   9.946   6.019  0.1523 -0.4065 -1.2058
  662MOL0     O89243  10.181   9.847   5.926  1.2933  0.8004  0.3681
  662MOL0     C89244  10.240   9.846   5.796  0.4736  0.1054 -0.4500
  662MOL0     C89245  10.359   9.750   5.801  0.3345  0.3411  0.3062
  662MOL0     C89246  10.459   9.751   5.689 -0.6480 -0.9560  2.2867
  662MOL0     C89247  10.502   9.894   5.651 -0.2978  0.1622 -0.0889
  662MOL0     C89248  10.622   9.891   5.544  1.2044  0.4121  0.2433
  662MOL0     C89249  10.655  10.036   5.506  0.1968  0.0533  0.0668
  662MOL0     C89250  10.773  10.037   5.406 -0.0873 -0.2287 -0.2468
  662MOL0     C89251  10.811  10.182   5.372 -0.5767 -0.1900  0.3710
  662MOL0     N89252  10.923  10.185   5.273 -0.4684 -1.2146 -0.4021
  662MOL0     C89253  10.897  10.212   5.132 -0.8067  0.3236 -0.2347
  662MOL0     C89254  11.018  10.214   5.081 -0.5955 -0.4352 -0.0034
  662MOL0     C89255  11.058  10.241   4.939 -0.7055 -0.3859  0.3896
  662MOL0     C89256  11.192  10.176   4.902 -0.1409  0.7008 -0.4585
  662MOL0     C89257  11.182  10.024   4.860  0.6353  0.8563  0.1497
  662MOL0     C89258  11.166   9.925   4.980  0.5489  0.3581 -0.2720
  662MOL0     O89259  11.179   9.784   4.941  0.2044 -0.0875 -0.0178
  662MOL0     C89260  11.305   9.740   4.901  0.7025  0.6062  0.6310
  662MOL0     C89261  11.429   9.804   4.925  0.7463 -0.0120  0.1076
  662MOL0     C89262  11.557   9.747   4.917  0.4551 -0.1383  0.6054
  662MOL0     C89263  11.678   9.837   4.949  0.6739  0.7633  0.2624
  662MOL0     C89264  11.566   9.616   4.868 -0.6633  0.8352  0.1489
  662MOL0     C89265  11.695   9.539   4.844  1.2241 -0.5447  0.9225
  662MOL0     O89266  11.665   9.407   4.821 -0.0454  0.7082 -0.1008
  662MOL0     C89267  11.768   9.333   4.766  0.7080  0.0903 -0.1075
  662MOL0     C89268  11.840   9.257   4.848 -0.2521  0.2254  0.7420
  662MOL0     C89269  11.947   9.188   4.790 -0.0473 -0.8678 -0.5416
  662MOL0     C89270  11.985   9.201   4.655  0.6182  0.0738  0.0064
  662MOL0     O89271  12.098   9.134   4.610  0.3766  0.4828  0.7298
  662MOL0     C89272  12.072   8.990   4.598  0.1318 -0.8758  0.2228
  662MOL0     C89273  12.204   8.926   4.564 -0.2633  0.2035  0.3866
  662MOL0     C89274  12.191   8.771   4.534  0.6626 -0.5687  0.5528
  662MOL0     C89275  12.333   8.722   4.513  0.1515 -0.0091 -0.6220
  662MOL0     C89276  12.386   8.777   4.374  0.1639 -0.4965 -0.6415
  662MOL0     C89277  12.488   8.680   4.312 -0.5274 -0.0427 -0.1082
  662MOL0     C89278  12.436   8.554   4.251  0.3816  0.6003 -1.2159
  662MOL0     C89279  12.536   8.448   4.210  0.2967 -0.5312 -0.2745
  662MOL0    Cl89280  12.633   8.521   4.080  0.2938  0.1175 -0.6960
  662MOL0     C89281  11.914   9.288   4.577 -0.7285 -0.1687  0.2424
  662MOL0     C89282  11.800   9.344   4.633  0.4651 -0.3462  0.8564
  662MOL0     O89283  11.799   9.602   4.809  1.0325  0.1525  0.4771
  662MOL0     C89284  11.440   9.554   4.832  0.2649 -0.7648 -0.2584
  662MOL0     C89285  11.312   9.610   4.848 -0.3331 -1.6617 -0.7745
  662MOL0     N89286  11.112  10.191   5.182 -0.1374  0.3350 -0.0058
  662MOL0     N89287  11.055  10.172   5.292 -0.1444  0.0798  0.0259
  662MOL0     C89288  10.299  10.057   5.986 -0.3274 -1.0177 -0.3812
  662MOL0     C89289  10.321  10.161   6.081  0.1610  0.7704  0.2678
  662MOL0     C89290  10.264  10.402   6.486 -0.6792  0.0309 -0.5515
  662MOL0     C89291  10.189  10.497   6.562  0.5070  0.0686  0.6148
  662MOL0     C89292  10.251  10.586   6.657 -0.1699 -0.1594 -0.2908
  662MOL0     C89293  10.383  10.576   6.684  0.2791 -0.1415 -0.2992
  662MOL0     O89294  10.441  10.647   6.787 -0.5774 -0.0309  0.3881
  662MOL0     C89295  10.576  10.620   6.816 -0.3010 -0.1811 -0.2134
  662MOL0     C89296  10.627  10.709   6.933 -0.7916  0.0539 -0.3524
  662MOL0     C89297  10.586  10.657   7.069  0.1682  0.0027 -0.7904
  662MOL0     C89298  10.604  10.771   7.166 -0.9865  0.0592  0.0104
  662MOL0     C89299  10.479  10.844   7.164 -0.1412 -0.6601  1.0097
  662MOL0     C89300  10.394  10.931   7.145 -0.3734 -0.0526 -0.0863
  662MOL0     C89301  10.453  10.475   6.611  0.1946  0.3094 -0.0819
  662MOL0     C89302  10.397  10.389   6.511 -0.1654  0.2522  0.1197
  662MOL0     H89303  10.142  10.048   6.349  0.7544  0.6976  0.3665
  662MOL0     H89304  10.112   9.858   6.189 -0.3834 -1.0225 -2.0414
  662MOL0     H89305  10.174   9.799   5.723  0.1765  0.0678 -0.1627
  662MOL0     H89306  10.255   9.945   5.752 -2.5484  1.9110  2.1013
  662MOL0     H89307  10.411   9.763   5.896 -0.4976 -1.5219  1.0806
  662MOL0     H89308  10.317   9.649   5.802  3.0487 -0.8636  0.8146
  662MOL0     H89309  10.555   9.701   5.706  1.1440  1.5278  0.1909
  662MOL0     H89310  10.424   9.692   5.604  0.7152 -1.2691  1.9124
  662MOL0     H89311  10.420   9.958   5.617 -1.0839  1.5447  3.9115
  662MOL0     H89312  10.535   9.935   5.746 -0.3011  2.7951 -1.1278
  662MOL0     H89313  10.711   9.840   5.583  0.1708 -1.4325  0.2965
  662MOL0     H89314  10.588   9.833   5.458  0.4702 -2.2226  2.1841
  662MOL0     H89315  10.574  10.098   5.466  2.7479  2.4615 -1.8208
  662MOL0     H89316  10.694  10.088   5.594 -0.9616 -1.7682  1.7352
  662MOL0     H89317  10.857   9.994   5.463  0.3453 -2.1672 -2.2167
  662MOL0     H89318  10.749   9.973   5.321 -4.0727 -0.2687  0.7146
  662MOL0     H89319  10.860  10.228   5.459  1.5015 -1.3688 -0.1098
  662MOL0     H89320  10.732  10.250   5.339  0.6207  1.8096  1.3572
  662MOL0     H89321  10.808  10.225   5.072 -3.2328 -2.6775  2.3843
  662MOL0     H89322  10.979  10.205   4.872  0.7436 -1.1336 -0.9909
  662MOL0     H89323  11.068  10.350   4.929  1.0613 -0.6905 -2.1525
  662MOL0     H89324  11.272  10.203   4.971  1.1781 -1.8664 -0.8259
  662MOL0     H89325  11.235  10.218   4.810  3.0419 -0.4561  0.3506
  662MOL0     H89326  11.279   9.987   4.824 -0.0184 -0.2565 -0.5194
  662MOL0     H89327  11.106  10.007   4.783 -0.2068 -0.6907  1.2725
  662MOL0     H89328  11.074   9.944   5.036  1.1513  3.2328 -0.1207
  662MOL0     H89329  11.241   9.951   5.055  1.3073 -0.0850 -0.8614
  662MOL0     H89330  11.428   9.903   4.970  0.1099  0.3620 -0.7050
  662MOL0     H89331  11.759   9.771   4.984 -0.8284 -3.5105 -3.3459
  662MOL0     H89332  11.712   9.887   4.857  2.7478  0.0221  0.5642
  662MOL0     H89333  11.655   9.914   5.023 -1.6018  0.5552 -0.1720
  662MOL0     H89334  11.816   9.268   4.954  0.7317  1.3683  0.8691
  662MOL0     H89335  11.998   9.120   4.858 -1.8767 -1.7857  0.0016
  662MOL0     H89336  12.049   8.949   4.697 -2.6190  1.1408  0.5093
  662MOL0     H89337  11.985   8.980   4.534  1.5583  1.5104 -2.3000
  662MOL0     H89338  12.252   8.984   4.485 -0.7016  0.7538  0.5171
  662MOL0     H89339  12.271   8.932   4.650  1.3227 -1.5891 -0.6334
  662MOL0     H89340  12.139   8.751   4.439 -0.8992  1.4739  0.9072
  662MOL0     H89341  12.150   8.716   4.619  0.6488 -3.4827 -1.1848
  662MOL0     H89342  12.390   8.752   4.601 -0.3328 -0.6509 -0.0765
  662MOL0     H89343  12.329   8.613   4.508 -2.1896 -0.0197  0.1349
  662MOL0     H89344  12.419   8.880   4.390 -2.4984  0.2749  0.4419
  662MOL0     H89345  12.301   8.780   4.305 -0.4888  2.9315  0.1231
  662MOL0     H89346  12.545   8.738   4.239  0.8807  0.1260  1.0900
  662MOL0     H89347  12.550   8.642   4.394  1.2600 -2.2288 -2.3187
  662MOL0     H89348  12.377   8.580   4.163  2.0864  2.0849 -1.9745
  662MOL0     H89349  12.377   8.511   4.333 -0.2796  2.6202 -0.5645
  662MOL0     H89350  12.477   8.365   4.169  0.7179 -1.8778  1.7140
  662MOL0     H89351  12.603   8.413   4.290 -0.4127 -1.7430 -0.1820
  662MOL0     H89352  11.940   9.305   4.473  0.1463 -1.5650  0.2042
  662MOL0     H89353  11.729   9.393   4.568 -0.4118 -3.8362 -1.0919
  662MOL0     H89354  11.442   9.454   4.790  2.1459 -0.6711 -0.4419
  662MOL0     H89355  11.228   9.541   4.845 -0.2934 -1.8475  1.0211
  662MOL0     H89356  10.331  10.070   5.883 -1.9547 -1.7962 -1.0227
  662MOL0     H89357  10.378  10.248   6.053 -0.2369  0.1476 -2.9103
  662MOL0     H89358  10.082  10.507   6.568  0.7006  2.1078  1.5660
  662MOL0     H89359  10.195  10.662   6.711 -0.3014 -1.3554  1.3382
  662MOL0     H89360  10.584  10.516   6.850 -0.6331 -0.2828 -0.4404
  662MOL0     H89361  10.640  10.628   6.728 -1.1888 -3.3407 -1.2612
  662MOL0     H89362  10.583  10.809   6.919 -0.7984  0.1323  0.2230
  662MOL0     H89363  10.735  10.719   6.922 -1.0407 -0.0079 -4.1934
  662MOL0     H89364  10.647  10.573   7.100 -0.4847  0.8634  3.3726
  662MOL0     H89365  10.484  10.617   7.062  0.8839 -1.8458 -1.0287
  662MOL0     H89366  10.691  10.832   7.144  0.2119 -1.2394  0.9613
  662MOL0     H89367  10.612  10.713   7.258  2.6448  0.2053 -0.0960
  662MOL0     H89368  10.307  10.994   7.133 -1.8260 -1.5058  1.9628
  662MOL0     H89369  10.559  10.458   6.624  0.0159  0.4460  1.8695
  662MOL0     H89370  10.465  10.314   6.472 -0.7113  0.0134 -0.3805
  663MOL0     O89371   5.167  10.092   0.363 -0.3634 -0.2706 -0.0364
  663MOL0     C89372   5.124  10.100   0.249  0.2158 -0.5967 -0.0627
  663MOL0     O89373   4.989  10.129   0.220 -0.0651  0.2118 -0.0244
  663MOL0     C89374   4.882  10.087   0.297 -0.6206  0.6009 -0.1692
  663MOL0     C89375   4.887   9.971   0.375  0.2866  0.1163 -0.1298
  663MOL0     C89376   4.779   9.936   0.464  0.0823 -0.8442 -0.8243
  663MOL0     C89377   4.672  10.028   0.479 -0.9788 -0.7452 -0.1257
  663MOL0     O89378   4.579  10.010   0.575 -0.6760  0.7975 -0.0880
  663MOL0     C89379   4.570  10.122   0.670  0.1747  0.1725 -0.1149
  663MOL0     C89380   4.416  10.168   0.668  1.0362  0.0820  0.3714
  663MOL0     C89381   4.395  10.321   0.668 -0.3226  0.0223  0.9754
  663MOL0     C89382   4.252  10.372   0.668  0.3961  0.3995  0.0091
  663MOL0     C89383   4.253  10.526   0.672 -0.1680  0.8600 -0.1293
  663MOL0     C89384   4.120  10.570   0.718 -0.1953  1.3580 -1.0615
  663MOL0     C89385   4.126  10.716   0.741 -0.7845  0.0478  0.6882
  663MOL0     C89386   4.122  10.797   0.597  0.3704  0.4806 -0.3832
  663MOL0     N89387   4.092  10.940   0.613  0.0453  0.8769  1.2178
  663MOL0     C89388   4.160  11.017   0.700 -0.6673 -0.6257  0.1420
  663MOL0     C89389   4.111  11.142   0.684 -0.4912 -0.3759 -0.0314
  663MOL0     C89390   4.159  11.277   0.744  0.2865  0.9472 -0.0599
  663MOL0     C89391   4.209  11.366   0.631 -0.3615  0.3062 -0.1396
  663MOL0     C89392   4.258  11.515   0.683  0.7126  0.1648  0.6017
  663MOL0     C89393   4.379  11.558   0.599  0.2087  0.4872 -0.6264
  663MOL0     O89394   4.334  11.668   0.513 -0.1940 -0.3224 -0.2725
  663MOL0     C89395   4.415  11.706   0.399 -0.2169  0.1120 -0.6415
  663MOL0     C89396   4.353  11.804   0.315  0.5777 -0.0047 -0.2961
  663MOL0     C89397   4.414  11.843   0.199  0.2605 -0.3906  1.1345
  663MOL0     C89398   4.338  11.937   0.097  0.5612  0.1554 -0.8847
  663MOL0     C89399   4.540  11.794   0.171  0.0823  0.7871  0.7365
  663MOL0     C89400   4.617  11.823   0.051  0.4518 -0.0635  0.4580
  663MOL0     O89401   4.654  11.958   0.036 -0.0947 -0.1303  0.6449
  663MOL0     C89402   4.687  12.022  -0.088 -0.4997  0.7268 -1.5168
  663MOL0     C89403   4.627  11.975  -0.207  0.1226 -0.3416 -0.0042
  663MOL0     C89404   4.649  12.046  -0.327 -0.3053  0.1087  0.4151
  663MOL0     C89405   4.726  12.164  -0.327  0.2151  0.3651 -0.7656
  663MOL0     O89406   4.747  12.225  -0.445 -0.1853 -0.9399 -0.5041
  663MOL0     C89407   4.849  12.322  -0.464  0.5454  0.0794  0.5472
  663MOL0     C89408   4.979  12.249  -0.483  0.1581 -0.0110 -0.4816
  663MOL0     C89409   5.095  12.339  -0.537 -0.2273  0.1258 -0.0458
  663MOL0     C89410   5.139  12.443  -0.434  0.7104  0.2377  0.9669
  663MOL0     C89411   5.236  12.545  -0.500 -0.1236  1.2994 -0.0461
  663MOL0     C89412   5.263  12.667  -0.420  0.2735 -0.3542 -0.1869
  663MOL0     C89413   5.385  12.735  -0.487  0.3085 -0.2304 -0.4552
  663MOL0     C89414   5.441  12.842  -0.387  0.3274  0.5524 -0.0480
  663MOL0    Cl89415   5.555  12.931  -0.487  0.1525 -0.3086  0.4720
  663MOL0     C89416   4.775  12.211  -0.206 -0.1076 -1.0410 -0.3894
  663MOL0     C89417   4.756  12.142  -0.086 -0.0681 -0.0745  0.0498
  663MOL0     O89418   4.650  11.729  -0.020  1.2807 -0.3100 -0.7126
  663MOL0     C89419   4.603  11.705   0.255  0.5573  0.8407  0.4055
  663MOL0     C89420   4.541  11.655   0.366  0.3406  0.5656  0.4577
  663MOL0     N89421   4.027  11.138   0.576 -0.8824  0.8905  1.5696
  663MOL0     N89422   4.009  11.017   0.528 -0.5908 -0.5311 -0.7507
  663MOL0     C89423   4.666  10.138   0.395  0.0664 -0.7726  0.0947
  663MOL0     C89424   4.774  10.167   0.307 -0.0772  0.4356  0.7220
  663MOL0     C89425   5.209  10.050   0.131  0.3075  0.8144  0.1147
  663MOL0     C89426   5.344  10.027   0.152 -0.7927 -0.0546 -0.1131
  663MOL0     C89427   5.427   9.989   0.046 -0.3921  0.3668  0.2005
  663MOL0     C89428   5.380   9.955  -0.077 -0.3374 -0.2282 -0.1626
  663MOL0     O89429   5.467   9.914  -0.174 -0.5153  0.0149  0.2949
  663MOL0     C89430   5.428   9.811  -0.264 -0.2960 -0.8171  0.2835
  663MOL0     C89431   5.499   9.681  -0.234  0.4978 -0.5386 -0.7407
  663MOL0     C89432   5.449   9.564  -0.328  0.5476 -0.2059 -0.3060
  663MOL0     C89433   5.450   9.579  -0.484 -0.5915  0.5154 -0.2995
  663MOL0     C89434   5.344   9.655  -0.538 -0.6249  0.0095 -0.2289
  663MOL0     C89435   5.247   9.701  -0.593 -0.1242  1.3517 -0.1094
  663MOL0     C89436   5.245   9.976  -0.110 -0.0632 -1.0305 -0.0352
  663MOL0     C89437   5.164  10.020  -0.004  0.5701 -0.9683 -0.8907
  663MOL0     H89438   4.981   9.917   0.369 -0.2621 -0.8007 -0.7084
  663MOL0     H89439   4.790   9.849   0.527 -0.1240  0.5358  1.2166
  663MOL0     H89440   4.597  10.093   0.772  2.4955 -0.2614 -0.7897
  663MOL0     H89441   4.646  10.195   0.641  1.1391 -1.2746 -1.3598
  663MOL0     H89442   4.368  10.116   0.585  3.0302  0.2567 -0.9467
  663MOL0     H89443   4.362  10.126   0.753 -1.5219  0.3009 -1.0399
  663MOL0     H89444   4.454  10.365   0.749 -0.8979  0.0710  1.3764
  663MOL0     H89445   4.437  10.374   0.581 -2.9485  1.7648  0.6291
  663MOL0     H89446   4.194  10.342   0.580 -0.6677  2.1369  0.0718
  663MOL0     H89447   4.208  10.327   0.758 -2.1344  1.1132 -0.7888
  663MOL0     H89448   4.325  10.566   0.744  1.2790 -1.2045 -0.3273
  663MOL0     H89449   4.279  10.557   0.570 -0.3690 -1.5867 -1.0010
  663MOL0     H89450   4.051  10.540   0.639 -1.5392 -2.9916  1.4356
  663MOL0     H89451   4.093  10.525   0.814  0.3174  4.9915  0.9886
  663MOL0     H89452   4.033  10.742   0.793 -1.3691  0.9647 -0.7444
  663MOL0     H89453   4.213  10.744   0.801  1.4328 -1.4111 -1.6536
  663MOL0     H89454   4.042  10.751   0.538  1.0170  0.2153 -1.0673
  663MOL0     H89455   4.218  10.787   0.545  0.7736  0.5593  0.3393
  663MOL0     H89456   4.245  10.989   0.762 -0.6100  0.5703  0.6325
  663MOL0     H89457   4.081  11.328   0.801  0.2063  1.1231 -0.3235
  663MOL0     H89458   4.234  11.252   0.819 -0.9691 -0.6570  0.7279
  663MOL0     H89459   4.132  11.373   0.554 -1.0340  0.5089  0.5384
  663MOL0     H89460   4.286  11.304   0.584 -0.2663 -0.2409  0.7216
  663MOL0     H89461   4.293  11.496   0.785 -0.0449 -1.9785  0.5160
  663MOL0     H89462   4.182  11.592   0.667  0.2118 -0.7687 -2.0456
  663MOL0     H89463   4.413  11.479   0.531  0.4581  2.2078 -2.5773
  663MOL0     H89464   4.455  11.594   0.669  0.5482 -0.8662 -0.2713
  663MOL0     H89465   4.250  11.836   0.322 -0.8827 -4.3913  2.5125
  663MOL0     H89466   4.408  11.997   0.037 -0.4254 -0.1561 -2.4001
  663MOL0     H89467   4.279  11.875   0.030 -1.9319 -0.2948  1.5562
  663MOL0     H89468   4.271  12.000   0.156  3.5931  1.0006  1.9709
  663MOL0     H89469   4.555  11.894  -0.204  2.5063 -2.5780  0.5363
  663MOL0     H89470   4.612  12.007  -0.421 -1.0286  0.6596  0.4722
  663MOL0     H89471   4.826  12.374  -0.558 -0.2437 -2.3203 -0.6604
  663MOL0     H89472   4.847  12.397  -0.384 -0.8944  0.4049  0.2378
  663MOL0     H89473   5.001  12.191  -0.393  0.9321  2.5822  1.0959
  663MOL0     H89474   4.958  12.175  -0.561 -0.1740  0.7187 -1.0906
  663MOL0     H89475   5.063  12.375  -0.635 -0.9553  0.2487  0.2316
  663MOL0     H89476   5.181  12.272  -0.540  0.1096  0.5717 -0.4762
  663MOL0     H89477   5.049  12.496  -0.401  1.9406  2.7700  0.5679
  663MOL0     H89478   5.171  12.405  -0.337 -2.7125 -2.8435  1.1005
  663MOL0     H89479   5.188  12.576  -0.594 -0.3076  3.4256  0.6834
  663MOL0     H89480   5.329  12.492  -0.521 -0.5713  1.6943 -3.7372
  663MOL0     H89481   5.177  12.734  -0.416 -0.5609 -1.3678 -0.8637
  663MOL0     H89482   5.289  12.645  -0.316 -3.4633  2.6052  1.5949
  663MOL0     H89483   5.357  12.787  -0.579 -0.3432  4.6216  2.1299
  663MOL0     H89484   5.465  12.664  -0.510  2.9371  1.4676  2.5092
  663MOL0     H89485   5.488  12.790  -0.303 -0.7962  1.9558  1.5249
  663MOL0     H89486   5.363  12.913  -0.357 -2.0683  0.2552 -4.7906
  663MOL0     H89487   4.838  12.299  -0.204 -3.7539  1.8110  0.0179
  663MOL0     H89488   4.777  12.194   0.007 -0.1416  3.4291 -1.6980
  663MOL0     H89489   4.689  11.659   0.207  0.9802  2.2816 -0.2921
  663MOL0     H89490   4.591  11.579   0.426 -0.6336 -0.6364 -0.1960
  663MOL0     H89491   4.576  10.199   0.399 -1.7352 -3.0730 -2.2369
  663MOL0     H89492   4.772  10.260   0.251  2.1946  1.0456  1.5428
  663MOL0     H89493   5.387  10.037   0.251  0.3827 -2.8206 -0.2421
  663MOL0     H89494   5.534   9.977   0.052 -0.4173  0.0275  0.0394
  663MOL0     H89495   5.322   9.789  -0.248 -0.7827  1.6933  0.9885
  663MOL0     H89496   5.458   9.839  -0.366  1.7229 -2.5623  0.3352
  663MOL0     H89497   5.484   9.653  -0.129  0.2345 -3.7584 -1.5259
  663MOL0     H89498   5.605   9.701  -0.252 -0.0252  1.5848 -1.8256
  663MOL0     H89499   5.347   9.530  -0.309  1.2553 -3.0495 -1.1260
  663MOL0     H89500   5.508   9.475  -0.301  0.7870 -0.1334 -0.5802
  663MOL0     H89501   5.453   9.477  -0.521  2.7993  0.0434  0.8554
  663MOL0     H89502   5.544   9.631  -0.506  0.3501 -1.2609 -0.6438
  663MOL0     H89503   5.164   9.751  -0.639 -1.5893  0.2541  1.2703
  663MOL0     H89504   5.213   9.951  -0.211  1.7004 -0.2600 -0.8298
  663MOL0     H89505   5.061  10.044  -0.028  1.4726  3.0142 -1.6502
  664MOL0     O89506   4.343   5.646   3.888  0.4701 -0.0118 -0.1135
  664MOL0     C89507   4.422   5.719   3.953  0.1742  0.1935  0.1279
  664MOL0     O89508   4.520   5.804   3.903 -0.5469  0.3266 -0.1327
  664MOL0     C89509   4.518   5.835   3.772 -0.3211 -0.6187  0.1528
  664MOL0     C89510   4.544   5.732   3.688 -0.4636 -0.0867 -0.1167
  664MOL0     C89511   4.525   5.748   3.546  0.3726 -0.5866  0.3798
  664MOL0     C89512   4.492   5.879   3.493 -0.6931 -0.0797  0.1244
  664MOL0     O89513   4.478   5.874   3.358  0.3261 -0.3843  0.6793
  664MOL0     C89514   4.472   5.999   3.290  0.7546  0.1127  0.0081
  664MOL0     C89515   4.480   5.979   3.140 -0.5157 -0.9280  0.4114
  664MOL0     C89516   4.567   6.079   3.059 -0.9165 -0.3887 -0.3350
  664MOL0     C89517   4.485   6.205   3.034 -0.6472  0.2507 -0.5658
  664MOL0     C89518   4.580   6.329   3.000  0.6210  0.3070 -0.4617
  664MOL0     C89519   4.492   6.464   2.994 -0.2001 -0.3651 -0.3428
  664MOL0     C89520   4.576   6.583   2.940  0.6641 -0.1102 -0.1433
  664MOL0     C89521   4.623   6.552   2.799  0.3624  0.0257 -0.0413
  664MOL0     N89522   4.682   6.673   2.751 -0.5460 -0.0066  0.3849
  664MOL0     C89523   4.704   6.692   2.618  0.1591 -0.7923 -0.0827
  664MOL0     C89524   4.755   6.818   2.615  0.6377  1.1891 -0.9344
  664MOL0     C89525   4.785   6.913   2.497 -0.7381  0.3214  0.2730
  664MOL0     C89526   4.871   6.844   2.380  0.5465  0.1241 -0.1408
  664MOL0     C89527   5.020   6.822   2.421  0.2290 -0.3209 -0.1541
  664MOL0     C89528   5.117   6.800   2.305 -0.0272 -0.1037 -0.1472
  664MOL0     O89529   5.118   6.912   2.220 -0.2538  0.5440  0.2473
  664MOL0     C89530   5.137   6.886   2.089  0.2299  0.2679  0.5135
  664MOL0     C89531   5.206   6.767   2.036 -0.9181  0.4218  1.0434
  664MOL0     C89532   5.258   6.747   1.907 -0.4759  0.2135 -0.7188
  664MOL0     C89533   5.332   6.621   1.871 -0.6612 -0.1805  0.3028
  664MOL0     C89534   5.226   6.854   1.812 -1.1269  0.7166 -0.0606
  664MOL0     C89535   5.265   6.843   1.671 -0.3173  0.3416 -0.1892
  664MOL0     O89536   5.179   6.921   1.594  0.1146 -0.1212  0.1977
  664MOL0     C89537   5.186   6.907   1.458 -0.0518  0.3527 -0.0162
  664MOL0     C89538   5.127   7.007   1.386  0.3286  0.1009 -1.0135
  664MOL0     C89539   5.094   6.993   1.256  0.3518  1.1750 -0.2100
  664MOL0     C89540   5.121   6.873   1.183 -0.7526  0.5707 -0.0510
  664MOL0     O89541   5.075   6.864   1.057 -0.1062 -0.2002 -0.7752
  664MOL0     C89542   5.124   6.757   0.977 -0.0519  0.1251  0.5502
  664MOL0     C89543   5.067   6.758   0.830  0.1560  0.5006 -0.4346
  664MOL0     C89544   5.075   6.638   0.744  0.3111  0.3498  0.2557
  664MOL0     C89545   5.212   6.573   0.754  0.0434  0.4319  0.7620
  664MOL0     C89546   5.322   6.643   0.675  0.4134 -0.0407 -0.8314
  664MOL0     C89547   5.451   6.571   0.663  0.6222 -0.1690 -0.1592
  664MOL0     C89548   5.430   6.437   0.584  0.6297  0.2515  0.1039
  664MOL0     C89549   5.507   6.437   0.453 -0.4028 -0.6353  0.2808
  664MOL0    Cl89550   5.674   6.458   0.483 -0.5132 -0.1477 -0.3033
  664MOL0     C89551   5.182   6.771   1.252 -1.2626 -0.8679  0.1461
  664MOL0     C89552   5.224   6.784   1.385  0.4567 -0.3896 -0.6723
  664MOL0     O89553   5.368   6.795   1.636 -0.2776 -1.0428  0.6700
  664MOL0     C89554   5.153   6.958   1.856 -0.5770 -0.7948 -0.1260
  664MOL0     C89555   5.121   6.982   1.995  0.4753  1.4618  0.0355
  664MOL0     N89556   4.776   6.861   2.741  0.5276  0.8645 -1.2812
  664MOL0     N89557   4.742   6.769   2.827  0.6058  0.1304  0.1595
  664MOL0     C89558   4.473   5.983   3.583  0.1875 -0.2861 -0.7679
  664MOL0     C89559   4.482   5.965   3.723 -1.0200 -0.3767 -0.1603
  664MOL0     C89560   4.420   5.702   4.104 -0.3399 -0.5839 -0.2999
  664MOL0     C89561   4.528   5.738   4.185 -0.3797 -0.2127 -0.4107
  664MOL0     C89562   4.523   5.731   4.323 -0.0082  0.1136 -0.1748
  664MOL0     C89563   4.411   5.680   4.391  0.4337 -0.3507  0.3937
  664MOL0     O89564   4.422   5.644   4.528  0.7928 -0.4405 -0.0010
  664MOL0     C89565   4.311   5.566   4.576 -0.7983  0.0922  0.2614
  664MOL0     C89566   4.347   5.513   4.716  0.0250 -0.2018 -0.5978
  664MOL0     C89567   4.322   5.628   4.811  0.8773 -1.2760  0.7063
  664MOL0     C89568   4.357   5.600   4.957  0.3040  0.7817  0.7021
  664MOL0     C89569   4.234   5.578   5.036  0.1408  0.5756  1.4064
  664MOL0     C89570   4.115   5.569   5.064 -0.3898  0.6935  0.0689
  664MOL0     C89571   4.300   5.664   4.314  0.3267  0.0238  0.1023
  664MOL0     C89572   4.299   5.658   4.178 -0.2941  0.0702  0.6764
  664MOL0     H89573   4.590   5.639   3.719  2.1798  0.7861 -1.1819
  664MOL0     H89574   4.562   5.666   3.485 -0.6383  0.2870 -1.4894
  664MOL0     H89575   4.378   6.048   3.317 -0.4444 -0.9504 -1.9763
  664MOL0     H89576   4.551   6.067   3.325  1.5719  0.3718 -2.1674
  664MOL0     H89577   4.528   5.883   3.120  1.2792  0.0817 -0.3276
  664MOL0     H89578   4.381   5.974   3.094 -0.9953  0.6702  1.1956
  664MOL0     H89579   4.669   6.096   3.094 -1.0618 -1.5922  0.7651
  664MOL0     H89580   4.590   6.038   2.960  2.9956 -3.1949  1.4832
  664MOL0     H89581   4.412   6.185   2.956 -1.9346  1.2671  0.3397
  664MOL0     H89582   4.427   6.218   3.126  1.4550 -0.7837  1.0253
  664MOL0     H89583   4.654   6.340   3.080  0.0318  1.2981 -0.0454
  664MOL0     H89584   4.627   6.314   2.902  1.9848  0.4513  0.1452
  664MOL0     H89585   4.410   6.444   2.925  0.6431 -0.5519 -1.3178
  664MOL0     H89586   4.462   6.492   3.095  1.5054  2.5780 -0.5530
  664MOL0     H89587   4.509   6.669   2.939  1.6704  0.7266  1.3127
  664MOL0     H89588   4.667   6.586   3.000  1.2874 -2.3411 -0.8924
  664MOL0     H89589   4.543   6.515   2.733  1.4535 -1.2653 -0.6942
  664MOL0     H89590   4.698   6.473   2.791 -1.9688 -2.3940  0.5657
  664MOL0     H89591   4.678   6.621   2.540  0.7993 -3.2750  1.8407
  664MOL0     H89592   4.689   6.954   2.465 -0.3176  1.7405  0.7449
  664MOL0     H89593   4.837   6.998   2.542 -2.2405  0.4893  1.8102
  664MOL0     H89594   4.855   6.910   2.294  0.6887 -0.8070 -0.8931
  664MOL0     H89595   4.837   6.747   2.345 -0.9056  1.0840 -1.5219
  664MOL0     H89596   5.015   6.734   2.486  0.5730 -1.8113 -2.0708
  664MOL0     H89597   5.050   6.904   2.487  3.1001 -1.5206  0.1701
  664MOL0     H89598   5.085   6.712   2.249  0.5307  0.9939 -2.2941
  664MOL0     H89599   5.215   6.780   2.349 -0.6941  1.8007  2.4674
  664MOL0     H89600   5.222   6.685   2.106 -0.2006 -2.1364 -1.8988
  664MOL0     H89601   5.276   6.567   1.794 -1.9940 -3.6359  3.4125
  664MOL0     H89602   5.432   6.644   1.834 -1.3169  1.8679 -0.3570
  664MOL0     H89603   5.353   6.558   1.958  2.5433 -1.5600 -1.3145
  664MOL0     H89604   5.099   7.095   1.444 -0.2729  0.1008 -1.2930
  664MOL0     H89605   5.041   7.079   1.216 -0.4978  0.1704 -1.3083
  664MOL0     H89606   5.233   6.754   0.968  0.0103 -4.2170  0.7090
  664MOL0     H89607   5.102   6.659   1.021  0.4987 -1.9849 -3.4437
  664MOL0     H89608   4.962   6.789   0.838  0.6404  2.1241 -0.1066
  664MOL0     H89609   5.123   6.836   0.777  0.3056  0.9250  0.3426
  664MOL0     H89610   5.042   6.680   0.648 -2.5325  0.5563  1.2441
  664MOL0     H89611   5.000   6.566   0.778 -2.5080  1.8839 -2.1995
  664MOL0     H89612   5.251   6.567   0.855  5.2092  2.8023 -0.7691
  664MOL0     H89613   5.204   6.471   0.714 -0.9230  1.1518 -1.0278
  664MOL0     H89614   5.340   6.743   0.716 -1.9603  1.1503 -2.4253
  664MOL0     H89615   5.291   6.672   0.574 -0.1160 -0.0241 -0.6669
  664MOL0     H89616   5.510   6.639   0.600 -0.8615 -0.1616 -1.6092
  664MOL0     H89617   5.489   6.562   0.765 -0.9696  2.3427  0.7420
  664MOL0     H89618   5.325   6.414   0.563  0.4504  0.9740  0.1975
  664MOL0     H89619   5.483   6.358   0.638  0.1551 -0.8773 -1.0354
  664MOL0     H89620   5.474   6.517   0.386 -2.6557 -1.5480  0.2464
  664MOL0     H89621   5.483   6.344   0.400 -0.9469 -0.7179  0.6718
  664MOL0     H89622   5.205   6.682   1.194 -0.5124  0.2720 -1.3980
  664MOL0     H89623   5.263   6.696   1.436  1.2775  1.3454  1.8574
  664MOL0     H89624   5.129   7.032   1.780 -2.2101 -2.2928 -1.1732
  664MOL0     H89625   5.065   7.066   2.033  1.0716  1.6303  0.5577
  664MOL0     H89626   4.457   6.080   3.537 -1.5397 -0.1499  0.0699
  664MOL0     H89627   4.460   6.049   3.789 -1.4727  0.3705 -1.2377
  664MOL0     H89628   4.621   5.776   4.144  0.8230 -1.4688  1.0293
  664MOL0     H89629   4.610   5.748   4.386  0.9855 -3.5280 -0.3320
  664MOL0     H89630   4.223   5.630   4.567 -1.0483 -0.2279  0.4486
  664MOL0     H89631   4.299   5.478   4.513 -0.1811 -0.8910  1.4878
  664MOL0     H89632   4.454   5.493   4.714  0.1286  0.3442 -0.6811
  664MOL0     H89633   4.278   5.432   4.742  0.9343 -0.6440  0.5127
  664MOL0     H89634   4.226   5.680   4.802  2.6701  2.0644 -1.8489
  664MOL0     H89635   4.392   5.709   4.788 -0.6999  0.0431  0.3885
  664MOL0     H89636   4.408   5.687   5.000  2.6820  1.3626 -2.8121
  664MOL0     H89637   4.425   5.515   4.954 -0.0046  0.4786  1.8828
  664MOL0     H89638   4.015   5.555   5.099 -0.1922  1.1650  0.8430
  664MOL0     H89639   4.206   5.646   4.366  0.2055  2.8910  1.0428
  664MOL0     H89640   4.215   5.622   4.119 -1.2228  2.5789  0.3310
  665MOL0     O89641   3.622   4.712   1.890  0.3846 -0.8665 -0.1164
  665MOL0     C89642   3.688   4.663   1.808 -1.5188  1.2539 -0.3046
  665MOL0     O89643   3.801   4.716   1.759  0.1153  0.5640 -0.5279
  665MOL0     C89644   3.817   4.850   1.739  0.7449 -0.4867 -1.2844
  665MOL0     C89645   3.949   4.888   1.696 -0.3385 -0.8059 -0.5471
  665MOL0     C89646   3.993   5.023   1.672  0.5763  0.1325  0.1535
  665MOL0     C89647   3.893   5.125   1.690  0.7374 -0.0330 -0.1512
  665MOL0     O89648   3.932   5.259   1.671 -0.4447  0.4870  0.4808
  665MOL0     C89649   3.887   5.302   1.539  0.9441 -0.1211 -0.0204
  665MOL0     C89650   3.965   5.431   1.501 -0.3032  0.8293  0.2986
  665MOL0     C89651   3.925   5.559   1.583 -0.9003 -0.3355  0.6147
  665MOL0     C89652   3.806   5.627   1.518  0.1640  0.8748  0.2643
  665MOL0     C89653   3.719   5.722   1.596  0.4767  0.4170  0.5543
  665MOL0     C89654   3.779   5.863   1.615 -0.0757 -0.0167  0.1796
  665MOL0     C89655   3.687   5.955   1.703 -0.0873  0.4402 -1.0737
  665MOL0     C89656   3.702   5.915   1.848 -0.0164  0.3705  0.6130
  665MOL0     N89657   3.808   5.992   1.914 -0.6483 -0.9371 -0.6440
  665MOL0     C89658   3.937   5.937   1.943 -0.1206 -0.5885 -0.2591
  665MOL0     C89659   3.967   6.007   2.062 -0.2072 -0.2677  0.2671
  665MOL0     C89660   4.085   5.982   2.144 -0.5837  0.0804  0.1903
  665MOL0     C89661   4.093   5.834   2.178  0.4210 -0.8258 -0.1973
  665MOL0     C89662   4.190   5.798   2.302 -0.6259  0.1157 -0.1321
  665MOL0     C89663   4.341   5.788   2.272  0.2815 -0.2003  0.6833
  665MOL0     O89664   4.378   5.914   2.203  0.1279 -0.1169  0.2056
  665MOL0     C89665   4.499   5.950   2.161 -0.6837 -0.2588  0.2614
  665MOL0     C89666   4.598   5.857   2.135 -0.0581 -0.9314 -0.4884
  665MOL0     C89667   4.717   5.899   2.089  0.4769 -1.3101  0.7434
  665MOL0     C89668   4.813   5.786   2.060  0.4774  0.8453  0.0675
  665MOL0     C89669   4.745   6.035   2.064  0.3057  0.0262  0.0540
  665MOL0     C89670   4.874   6.082   2.010 -0.0021  0.2192 -0.5413
  665MOL0     O89671   4.876   6.203   1.939 -0.4357  0.4365  0.2464
  665MOL0     C89672   4.990   6.228   1.858  0.1489  0.3510  0.7384
  665MOL0     C89673   4.983   6.360   1.809 -0.8471  0.0762 -0.0626
  665MOL0     C89674   5.072   6.405   1.714 -0.0296  0.8012  0.1316
  665MOL0     C89675   5.172   6.319   1.660  0.2841 -0.3082 -0.1896
  665MOL0     O89676   5.254   6.383   1.567  0.0754  0.0847  0.2913
  665MOL0     C89677   5.370   6.304   1.536  0.1177  0.0715  0.2394
  665MOL0     C89678   5.472   6.402   1.482 -0.2740  0.5357  0.5063
  665MOL0     C89679   5.432   6.442   1.341 -0.4836  0.2719  0.9519
  665MOL0     C89680   5.544   6.516   1.260  0.5319  0.3783  0.1193
  665MOL0     C89681   5.501   6.561   1.124 -0.2646  0.7249 -0.1584
  665MOL0     C89682   5.618   6.636   1.040 -0.0113 -0.0548  0.8036
  665MOL0     C89683   5.732   6.543   1.032  0.3473  0.0350  0.1347
  665MOL0     C89684   5.821   6.587   0.919  0.0518  0.1125 -0.6888
  665MOL0    Cl89685   5.952   6.483   0.899 -0.1020 -0.5890 -0.5216
  665MOL0     C89686   5.169   6.183   1.699 -0.3775 -0.8300  0.0761
  665MOL0     C89687   5.074   6.137   1.792 -0.0683 -0.0347 -0.0155
  665MOL0     O89688   4.974   6.020   2.037  0.2955  0.6179 -0.5066
  665MOL0     C89689   4.645   6.129   2.090  0.2481 -0.2461 -0.6675
  665MOL0     C89690   4.516   6.083   2.119  0.2177 -0.2139  0.2535
  665MOL0     N89691   3.868   6.096   2.096 -0.6141  0.1999 -0.4421
  665MOL0     N89692   3.782   6.101   2.000 -0.1145  0.6655 -0.0842
  665MOL0     C89693   3.761   5.090   1.736 -0.7279 -0.1712 -0.7480
  665MOL0     C89694   3.724   4.951   1.766  0.5678  0.1459 -0.2479
  665MOL0     C89695   3.654   4.528   1.765 -0.2516 -0.0421 -0.4214
  665MOL0     C89696   3.737   4.461   1.673  0.3393 -0.1167 -1.1075
  665MOL0     C89697   3.709   4.330   1.643  0.2302  0.3648 -0.5479
  665MOL0     C89698   3.615   4.252   1.710  0.6546 -0.1366  0.4734
  665MOL0     O89699   3.569   4.123   1.678  0.8380 -0.7916  0.2221
  665MOL0     C89700   3.624   4.067   1.567 -0.1366  0.0609 -1.6012
  665MOL0     C89701   3.554   3.933   1.551 -0.2864 -0.2927  0.7443
  665MOL0     C89702   3.588   3.863   1.421 -0.0268 -0.2508 -0.3975
  665MOL0     C89703   3.480   3.762   1.380 -0.6145  0.2494  0.0754
  665MOL0     C89704   3.358   3.815   1.317  0.0937  0.0968  0.3351
  665MOL0     C89705   3.255   3.859   1.276 -0.8135 -0.0761  0.2612
  665MOL0     C89706   3.528   4.321   1.786  0.4791  0.6629  0.0391
  665MOL0     C89707   3.550   4.454   1.820 -0.2750  0.0963 -0.5642
  665MOL0     H89708   4.024   4.814   1.671  0.3271  0.4293 -2.3997
  665MOL0     H89709   4.096   5.043   1.645 -0.4084  1.2506 -3.2291
  665MOL0     H89710   3.892   5.232   1.455  0.7842  2.2728 -2.1525
  665MOL0     H89711   3.787   5.337   1.565  1.4831  0.6985  1.0296
  665MOL0     H89712   4.074   5.424   1.511  0.0012 -0.3061 -2.6815
  665MOL0     H89713   3.944   5.445   1.395 -0.4171  0.2332  0.2385
  665MOL0     H89714   3.915   5.546   1.692 -0.4380 -1.3148  0.5579
  665MOL0     H89715   3.996   5.642   1.584 -3.3889  1.9343 -0.5260
  665MOL0     H89716   3.845   5.666   1.423  5.2595 -1.6235  0.9824
  665MOL0     H89717   3.733   5.552   1.485  0.1337  0.4897  1.1982
  665MOL0     H89718   3.629   5.744   1.539  1.1977 -0.6511 -1.0809
  665MOL0     H89719   3.698   5.671   1.690  3.8451 -2.4458 -0.0262
  665MOL0     H89720   3.874   5.842   1.663 -0.7290 -0.5041  1.2975
  665MOL0     H89721   3.798   5.898   1.513  0.4461 -1.3193 -0.1904
  665MOL0     H89722   3.716   6.058   1.681  1.9207  0.0473 -0.5283
  665MOL0     H89723   3.583   5.948   1.670  0.1765 -1.8727 -1.5849
  665MOL0     H89724   3.710   5.809   1.872  0.2753  0.7263  2.1682
  665MOL0     H89725   3.612   5.948   1.901 -0.9538 -0.0927 -0.6431
  665MOL0     H89726   3.986   5.844   1.917  1.2224 -0.1083  0.4793
  665MOL0     H89727   4.169   6.021   2.085 -0.2807  0.1324  0.6501
  665MOL0     H89728   4.099   6.043   2.234  0.4069 -2.7572  2.0952
  665MOL0     H89729   4.140   5.788   2.091  3.3257  3.2469 -1.0514
  665MOL0     H89730   3.998   5.792   2.211  0.1287  1.7540  2.7388
  665MOL0     H89731   4.160   5.695   2.323  0.7471 -1.1708 -3.7485
  665MOL0     H89732   4.171   5.866   2.386  3.1570  0.5656  0.5392
  665MOL0     H89733   4.356   5.703   2.206  2.2089 -0.8629  1.8758
  665MOL0     H89734   4.398   5.757   2.360 -1.0983 -1.5062  1.1538
  665MOL0     H89735   4.586   5.751   2.152  3.5951 -1.2970  0.6745
  665MOL0     H89736   4.872   5.802   1.969  1.0362 -2.9276 -0.3743
  665MOL0     H89737   4.883   5.781   2.144  0.2659  0.3011  0.2139
  665MOL0     H89738   4.766   5.689   2.042  2.2678  0.2952 -2.1314
  665MOL0     H89739   4.912   6.431   1.853 -2.9689 -1.8403 -0.2008
  665MOL0     H89740   5.060   6.500   1.663  1.8471  0.8788 -0.2251
  665MOL0     H89741   5.400   6.252   1.628 -5.6300 -1.5572  1.6038
  665MOL0     H89742   5.352   6.217   1.473  0.3538 -0.4770  0.9052
  665MOL0     H89743   5.470   6.500   1.531  1.6494  1.6462 -1.4756
  665MOL0     H89744   5.565   6.345   1.486 -1.5318 -1.5886  1.2160
  665MOL0     H89745   5.349   6.514   1.339 -0.1114  0.7322 -1.7004
  665MOL0     H89746   5.384   6.363   1.281 -1.6144  0.9473  0.9299
  665MOL0     H89747   5.562   6.607   1.318  1.7018  0.5082 -0.4301
  665MOL0     H89748   5.636   6.457   1.259  1.2701  1.4646  0.8713
  665MOL0     H89749   5.414   6.628   1.128 -1.4608 -0.7476 -0.5104
  665MOL0     H89750   5.475   6.475   1.061 -0.9028 -0.1087  1.1939
  665MOL0     H89751   5.576   6.660   0.942  0.1939 -0.4521  0.6153
  665MOL0     H89752   5.647   6.730   1.089 -0.7982  2.6725 -3.4170
  665MOL0     H89753   5.690   6.443   1.015  0.2322  0.0578  0.2821
  665MOL0     H89754   5.790   6.543   1.124  0.8945  2.0033 -0.1769
  665MOL0     H89755   5.858   6.690   0.925 -0.0483  0.0766  1.6894
  665MOL0     H89756   5.762   6.574   0.828 -1.6875 -2.5815  0.6934
  665MOL0     H89757   5.233   6.106   1.656 -0.2480 -2.5964  3.1539
  665MOL0     H89758   5.087   6.031   1.812  1.2064 -0.3610 -2.2224
  665MOL0     H89759   4.661   6.233   2.065  1.1427 -0.0404  0.6868
  665MOL0     H89760   4.445   6.165   2.123 -0.2668 -0.2190 -4.1964
  665MOL0     H89761   3.694   5.174   1.756 -0.1306  0.5718 -1.8048
  665MOL0     H89762   3.624   4.925   1.797  0.5805  0.7717  0.3395
  665MOL0     H89763   3.824   4.498   1.621  0.5010  0.1280 -0.6613
  665MOL0     H89764   3.770   4.279   1.568  0.3266 -1.4292  0.7011
  665MOL0     H89765   3.603   4.120   1.474 -0.5775 -0.7602 -1.9844
  665MOL0     H89766   3.730   4.050   1.587 -0.2656  0.7807 -0.1924
  665MOL0     H89767   3.445   3.937   1.561 -0.7677 -3.5184 -1.5882
  665MOL0     H89768   3.591   3.873   1.634 -1.8932 -4.5030 -1.3066
  665MOL0     H89769   3.680   3.804   1.427 -1.8646 -3.2419  0.6658
  665MOL0     H89770   3.586   3.936   1.339  1.0467 -1.1941 -1.2977
  665MOL0     H89771   3.466   3.703   1.472  3.1035  1.5551  1.6954
  665MOL0     H89772   3.532   3.703   1.304  3.9158  3.2296  0.4572
  665MOL0     H89773   3.166   3.898   1.231 -1.6944 -2.0291  0.2376
  665MOL0     H89774   3.447   4.263   1.827 -0.9207  2.2720 -0.3435
  665MOL0     H89775   3.491   4.507   1.894  0.8727  0.5533  0.0387
  666MOL0     O89776  10.402  11.102   0.781 -0.3901  0.6845  0.2126
  666MOL0     C89777  10.424  11.130   0.664  0.0271  0.3768  0.0785
  666MOL0     O89778  10.507  11.066   0.579  0.2400 -0.6877  0.9789
  666MOL0     C89779  10.565  10.944   0.626 -0.3782 -0.4161  0.5502
  666MOL0     C89780  10.502  10.822   0.595 -0.3479 -1.0099 -0.1066
  666MOL0     C89781  10.560  10.705   0.645 -0.0449 -0.3876 -0.2560
  666MOL0     C89782  10.682  10.711   0.708  0.6655 -0.5674  0.0429
  666MOL0     O89783  10.727  10.593   0.750 -0.0769  0.3696 -0.4280
  666MOL0     C89784  10.782  10.502   0.646 -0.7827  0.7223  0.3096
  666MOL0     C89785  10.829  10.381   0.732  0.6508 -0.4479  0.0836
  666MOL0     C89786  10.714  10.301   0.801  0.8910  0.3371  0.2371
  666MOL0     C89787  10.791  10.206   0.901  0.5044 -0.3565  0.5971
  666MOL0     C89788  10.692  10.107   0.966 -0.0750  0.0174  0.2423
  666MOL0     C89789  10.645  10.004   0.873 -0.0020  1.2721  0.0198
  666MOL0     C89790  10.590   9.868   0.941  0.2099  0.0058  0.2747
  666MOL0     C89791  10.562   9.754   0.840 -0.3146  1.2705 -0.6320
  666MOL0     N89792  10.516   9.638   0.920 -0.3970 -0.0119  0.1408
  666MOL0     C89793  10.593   9.568   1.007 -0.6615  0.3884 -1.0693
  666MOL0     C89794  10.538   9.448   1.019  0.7178  0.0425  0.3792
  666MOL0     C89795  10.590   9.337   1.097 -0.4727 -0.6973  0.9143
  666MOL0     C89796  10.602   9.381   1.235  0.6067 -0.5153 -0.9148
  666MOL0     C89797  10.465   9.407   1.306  0.1809 -0.5792 -0.8117
  666MOL0     C89798  10.423   9.552   1.297 -0.7651  0.1196 -0.5253
  666MOL0     O89799  10.539   9.633   1.347 -0.1380  0.0036 -0.0566
  666MOL0     C89800  10.533   9.764   1.346 -0.6674 -0.4412  0.1985
  666MOL0     C89801  10.653   9.820   1.399 -0.0151  0.3318 -0.7125
  666MOL0     C89802  10.686   9.960   1.387  0.0652  0.5198 -0.2291
  666MOL0     C89803  10.817  10.006   1.453 -1.4783 -0.2352  0.2959
  666MOL0     C89804  10.591  10.047   1.317 -0.4521 -0.0283  0.0019
  666MOL0     C89805  10.601  10.197   1.307 -0.4615 -0.6959 -0.2581
  666MOL0     O89806  10.485  10.252   1.255  0.4226 -0.2377 -0.2040
  666MOL0     C89807  10.482  10.387   1.224  0.6799  0.0393 -0.4484
  666MOL0     C89808  10.564  10.440   1.131  0.6693 -0.3327 -0.2953
  666MOL0     C89809  10.531  10.572   1.089 -0.6416 -0.2586 -0.8714
  666MOL0     C89810  10.425  10.652   1.144 -1.1032  0.3083 -0.3245
  666MOL0     O89811  10.394  10.770   1.078 -0.0914  0.0283 -0.3343
  666MOL0     C89812  10.261  10.821   1.089 -0.0017  0.2154 -0.2715
  666MOL0     C89813  10.259  10.958   1.037  0.0841 -0.4843  0.0421
  666MOL0     C89814  10.295  11.066   1.148 -0.4096 -0.7894 -0.4162
  666MOL0     C89815  10.187  11.072   1.260 -0.1217 -0.3165 -0.4184
  666MOL0     C89816  10.209  11.174   1.370  0.4549 -0.7553  0.3767
  666MOL0     C89817  10.195  11.323   1.325  0.6617 -0.1145  0.4038
  666MOL0     C89818  10.213  11.414   1.439  0.1512 -0.8453  0.2725
  666MOL0     C89819  10.165  11.551   1.382  0.0043 -0.3375  0.5948
  666MOL0    Cl89820  10.186  11.678   1.503 -0.3995  0.0837 -0.2456
  666MOL0     C89821  10.344  10.586   1.230  0.6105 -0.6503 -1.4571
  666MOL0     C89822  10.373  10.460   1.274 -0.0023  0.1938  0.4924
  666MOL0     O89823  10.705  10.261   1.330  0.2078  0.5255  0.1233
  666MOL0     C89824  10.466   9.988   1.268  0.6778  0.4002  0.7599
  666MOL0     C89825  10.448   9.853   1.273  0.3323  0.9253  0.6757
  666MOL0     N89826  10.416   9.454   0.949  0.3389 -0.1877  0.2576
  666MOL0     N89827  10.402   9.567   0.885  0.3609  0.0562 -0.0679
  666MOL0     C89828  10.748  10.833   0.737  0.2893 -0.8156  0.4867
  666MOL0     C89829  10.685  10.951   0.698  0.0716 -0.4389 -0.2657
  666MOL0     C89830  10.374  11.258   0.606 -0.1512  0.0570  0.4390
  666MOL0     C89831  10.381  11.297   0.476 -0.0424 -0.3710  0.3261
  666MOL0     C89832  10.331  11.416   0.423  0.4867 -0.1239 -0.5604
  666MOL0     C89833  10.283  11.516   0.511 -0.1023  0.2064 -0.0761
  666MOL0     O89834  10.268  11.641   0.454  0.8678  0.3977 -0.7779
  666MOL0     C89835  10.207  11.736   0.531 -0.1631  0.0881  0.4100
  666MOL0     C89836  10.172  11.851   0.435  0.9880 -0.3507  0.6266
  666MOL0     C89837  10.099  11.808   0.302  0.5002 -0.5346 -0.3116
  666MOL0     C89838   9.949  11.774   0.333 -0.8153  0.3693  0.2715
  666MOL0     C89839   9.876  11.890   0.397  0.4264 -0.2473  0.4559
  666MOL0     C89840   9.830  11.965   0.479  0.6357  0.5248 -0.3795
  666MOL0     C89841  10.283  11.486   0.652  0.3589  0.2992 -0.0144
  666MOL0     C89842  10.327  11.356   0.696  0.1294  0.2849 -0.6244
  666MOL0     H89843  10.399  10.830   0.562 -0.4597  3.5476  0.7466
  666MOL0     H89844  10.515  10.607   0.656  0.7884 -0.8731 -1.1096
  666MOL0     H89845  10.714  10.475   0.564 -0.6103 -0.5225  0.5532
  666MOL0     H89846  10.870  10.554   0.608 -0.2632  0.7648  1.5418
  666MOL0     H89847  10.889  10.312   0.673 -2.6784 -1.3245 -2.6160
  666MOL0     H89848  10.892  10.418   0.813 -0.2467  0.3616  0.4462
  666MOL0     H89849  10.649  10.370   0.856  2.2893  2.0676 -0.1549
  666MOL0     H89850  10.651  10.245   0.733  1.1883 -2.2267  1.9380
  666MOL0     H89851  10.883  10.156   0.869  1.1021  1.0699 -0.0262
  666MOL0     H89852  10.844  10.266   0.977  0.3947  2.1251 -1.1543
  666MOL0     H89853  10.748  10.059   1.046 -2.2637 -2.8633  0.1838
  666MOL0     H89854  10.606  10.154   1.014  0.7711 -0.0479  1.8836
  666MOL0     H89855  10.567  10.050   0.811 -0.1058 -2.0705 -2.6796
  666MOL0     H89856  10.738   9.970   0.826  0.6634 -0.7842  2.6120
  666MOL0     H89857  10.667   9.830   1.010 -0.1453 -0.6406  0.3220
  666MOL0     H89858  10.504   9.900   1.001  1.8911 -0.9238  3.4447
  666MOL0     H89859  10.657   9.726   0.793  0.2502 -1.5785  1.8644
  666MOL0     H89860  10.490   9.789   0.766  1.3469  2.5430 -1.7095
  666MOL0     H89861  10.692   9.588   1.046 -1.0856  0.3687  0.0758
  666MOL0     H89862  10.519   9.254   1.086  1.8722 -2.9282  1.5759
  666MOL0     H89863  10.686   9.308   1.054 -0.0909 -1.0273  1.9708
  666MOL0     H89864  10.666   9.468   1.252 -1.5688  1.0155 -0.1172
  666MOL0     H89865  10.647   9.299   1.291  3.5909  0.6772 -1.3525
  666MOL0     H89866  10.476   9.400   1.415  0.5434 -0.6874 -0.8553
  666MOL0     H89867  10.387   9.344   1.263 -0.7119 -0.2234  0.2255
  666MOL0     H89868  10.341   9.564   1.368 -2.0699 -3.2901 -1.2487
  666MOL0     H89869  10.371   9.584   1.206 -1.6580  1.1781  0.3336
  666MOL0     H89870  10.722   9.745   1.435  0.2426 -0.6019 -3.0235
  666MOL0     H89871  10.811  10.091   1.522  1.2732  0.2450  0.0745
  666MOL0     H89872  10.869   9.923   1.501 -1.0243 -0.3517 -0.3824
  666MOL0     H89873  10.888  10.044   1.378 -2.4585 -1.1967 -1.1750
  666MOL0     H89874  10.646  10.395   1.076  2.0656  1.6621  0.0114
  666MOL0     H89875  10.583  10.621   1.008  0.3935  0.2150  0.0503
  666MOL0     H89876  10.199  10.762   1.021 -0.9956  2.9959 -1.9484
  666MOL0     H89877  10.220  10.815   1.190  1.4258  1.5364  0.4269
  666MOL0     H89878  10.320  10.959   0.947  0.7965  0.1488  0.5220
  666MOL0     H89879  10.164  10.998   0.999  1.3048  0.3016 -2.3421
  666MOL0     H89880  10.295  11.161   1.095 -1.5454  1.0422  2.5688
  666MOL0     H89881  10.391  11.058   1.198 -0.5199  3.9016  1.0711
  666MOL0     H89882  10.092  11.095   1.210 -0.6087  0.9012  1.0143
  666MOL0     H89883  10.186  10.970   1.300  1.0883 -0.7331 -1.3552
  666MOL0     H89884  10.310  11.146   1.402  0.3246 -1.5688  0.0794
  666MOL0     H89885  10.135  11.160   1.449 -0.6068 -0.1902 -0.4904
  666MOL0     H89886  10.266  11.335   1.242  0.2617 -1.4487 -0.1460
  666MOL0     H89887  10.099  11.347   1.279  1.7988 -0.5739 -2.4284
  666MOL0     H89888  10.312  11.425   1.485 -0.0387  1.8338  0.1624
  666MOL0     H89889  10.148  11.392   1.524  0.3342  3.1627  1.6553
  666MOL0     H89890  10.061  11.533   1.352 -0.1588 -0.8436  1.4277
  666MOL0     H89891  10.222  11.572   1.291 -5.3050  0.3894 -2.9846
  666MOL0     H89892  10.247  10.627   1.256  0.8908 -0.5697 -0.5061
  666MOL0     H89893  10.303  10.413   1.342  1.5713  0.1093  2.1327
  666MOL0     H89894  10.391  10.044   1.215  0.1349 -2.0100 -1.1692
  666MOL0     H89895  10.367   9.809   1.215  0.3567  2.2098 -0.3819
  666MOL0     H89896  10.853  10.838   0.765  0.6999  2.5121 -1.2080
  666MOL0     H89897  10.725  11.050   0.716  1.5487 -0.5234 -2.6682
  666MOL0     H89898  10.417  11.222   0.407  1.9198 -1.1256  2.0850
  666MOL0     H89899  10.326  11.449   0.320 -0.3378 -0.2195 -0.5572
  666MOL0     H89900  10.112  11.693   0.566 -0.7678  1.1453  0.1260
  666MOL0     H89901  10.264  11.768   0.619 -0.7508  1.4132  0.3291
  666MOL0     H89902  10.270  11.890   0.405  0.7110  0.6773  1.0171
  666MOL0     H89903  10.119  11.931   0.488  1.5023  0.9942 -0.8455
  666MOL0     H89904  10.153  11.724   0.257  1.9178  0.3446 -0.2978
  666MOL0     H89905  10.086  11.890   0.231 -4.4718 -0.9155 -0.2298
  666MOL0     H89906   9.946  11.681   0.389  3.3740  0.2486  0.6437
  666MOL0     H89907   9.905  11.749   0.236  0.5116  0.7046 -0.4521
  666MOL0     H89908   9.778  12.034   0.543 -0.9500 -0.3529 -0.6764
  666MOL0     H89909  10.259  11.562   0.726 -0.1969 -0.2537  0.3853
  666MOL0     H89910  10.307  11.331   0.799  0.8374 -2.5573 -1.1054
  667MOL0     O89911   5.273   0.635   4.665 -0.1212  0.2884 -0.0262
  667MOL0     C89912   5.200   0.540   4.701 -0.6083  0.0948 -0.2273
  667MOL0     O89913   5.167   0.436   4.624  0.4048 -0.1959 -0.4538
  667MOL0     C89914   5.243   0.412   4.501 -0.2623 -0.3852 -0.0755
  667MOL0     C89915   5.383   0.426   4.492  0.3650 -0.2868  0.5748
  667MOL0     C89916   5.464   0.372   4.387  0.3020 -0.3140  0.2150
  667MOL0     C89917   5.390   0.323   4.276  0.6034  0.5698 -1.4057
  667MOL0     O89918   5.463   0.256   4.192 -0.4042  0.5354  0.2373
  667MOL0     C89919   5.522   0.335   4.092  0.6005 -0.1074 -0.2854
  667MOL0     C89920   5.654   0.272   4.039  0.2842 -0.4115  0.1606
  667MOL0     C89921   5.741   0.219   4.154 -1.1618 -0.1759 -0.4381
  667MOL0     C89922   5.840   0.123   4.088  0.4984 -0.7822  0.1874
  667MOL0     C89923   5.917   0.032   4.180 -0.6994  0.1745  0.6699
  667MOL0     C89924   6.070   0.020   4.152  0.1578  0.5208 -0.1218
  667MOL0     C89925   6.092  -0.062   4.015  0.5714 -0.2462 -0.1644
  667MOL0     C89926   6.066  -0.216   4.032 -0.0260 -0.6307 -0.2273
  667MOL0     N89927   6.176  -0.291   4.093 -0.0590  1.0007 -0.5301
  667MOL0     C89928   6.309  -0.303   4.038 -0.3591 -0.3304 -0.8027
  667MOL0     C89929   6.376  -0.365   4.140 -0.2779  0.4907 -0.2850
  667MOL0     C89930   6.522  -0.391   4.143 -0.1239  0.3864 -0.3514
  667MOL0     C89931   6.562  -0.545   4.150  0.3144  0.2871  0.8530
  667MOL0     C89932   6.714  -0.559   4.176  0.0322  0.4495  0.6594
  667MOL0     C89933   6.743  -0.710   4.200 -0.0038 -1.0193  0.1027
  667MOL0     O89934   6.679  -0.796   4.114  0.1643 -0.1990  0.1086
  667MOL0     C89935   6.658  -0.925   4.151  0.5208  0.3568  0.6470
  667MOL0     C89936   6.561  -0.997   4.068  0.1152 -0.2991 -0.6780
  667MOL0     C89937   6.545  -1.135   4.085  0.5947 -0.3213  0.5510
  667MOL0     C89938   6.443  -1.194   4.000  0.0679  0.0326 -0.3620
  667MOL0     C89939   6.620  -1.215   4.180  0.2462 -0.3627  0.4952
  667MOL0     C89940   6.612  -1.358   4.202  0.5211 -0.0912 -1.1955
  667MOL0     O89941   6.686  -1.419   4.301  0.2398 -0.0375 -0.3763
  667MOL0     C89942   6.708  -1.555   4.297 -0.5932 -0.5327  0.3547
  667MOL0     C89943   6.817  -1.606   4.221  0.1917 -0.3668  0.1146
  667MOL0     C89944   6.846  -1.745   4.220  0.3761 -0.0949  1.2835
  667MOL0     C89945   6.772  -1.837   4.295 -0.5056 -0.6769  0.4387
  667MOL0     O89946   6.780  -1.968   4.287 -0.0449 -0.4869  1.3200
  667MOL0     C89947   6.886  -2.036   4.221 -0.2024 -0.5053 -0.5626
  667MOL0     C89948   7.020  -2.061   4.300  0.1864 -0.1068  0.2925
  667MOL0     C89949   7.101  -1.929   4.313 -0.0541  0.8814  0.8999
  667MOL0     C89950   7.185  -1.910   4.191 -0.1828 -0.0574  0.3930
  667MOL0     C89951   7.311  -1.991   4.194 -0.2830  0.5864 -0.0817
  667MOL0     C89952   7.413  -1.968   4.313  0.7051  0.2959  0.2622
  667MOL0     C89953   7.532  -2.048   4.279  0.6375 -0.4730 -0.3874
  667MOL0     C89954   7.600  -2.106   4.402 -0.4235  0.1535 -0.3264
  667MOL0    Cl89955   7.707  -1.979   4.479 -0.2188 -0.3848 -0.7898
  667MOL0     C89956   6.657  -1.788   4.354 -0.5367  0.8781 -0.4401
  667MOL0     C89957   6.628  -1.647   4.348 -0.6991  1.2522 -1.7675
  667MOL0     O89958   6.544  -1.426   4.127  0.3347  0.1248  0.0728
  667MOL0     C89959   6.704  -1.129   4.269 -0.2374 -1.2209 -0.1338
  667MOL0     C89960   6.720  -0.987   4.252 -0.1728 -0.5473  0.4540
  667MOL0     N89961   6.292  -0.387   4.244 -0.0156 -0.6408  0.0286
  667MOL0     N89962   6.173  -0.344   4.217 -0.2664  0.4411 -0.4788
  667MOL0     C89963   5.255   0.314   4.277  0.1707  0.5856  0.1025
  667MOL0     C89964   5.179   0.359   4.382 -0.1751  0.2479 -0.4870
  667MOL0     C89965   5.129   0.548   4.831 -0.0351  0.0455  0.1248
  667MOL0     C89966   5.075   0.438   4.891  0.2819  0.3594  0.4381
  667MOL0     C89967   5.011   0.451   5.010  0.2863  0.2960 -0.9939
  667MOL0     C89968   4.989   0.572   5.078  0.2380 -0.8881 -0.0838
  667MOL0     O89969   4.907   0.576   5.180  0.0986  0.2682  0.1487
  667MOL0     C89970   4.856   0.688   5.252 -0.6638  0.1962 -0.0776
  667MOL0     C89971   4.881   0.655   5.403  0.1248  0.1112  0.4274
  667MOL0     C89972   4.835   0.762   5.501  0.0280 -0.3678  0.6286
  667MOL0     C89973   4.853   0.716   5.647 -0.2143  0.2119 -0.0767
  667MOL0     C89974   4.981   0.646   5.677 -0.0986  0.7851 -0.0162
  667MOL0     C89975   5.083   0.580   5.698  1.1952  0.1415 -0.1337
  667MOL0     C89976   5.071   0.679   5.030  0.2228 -0.9423  0.1109
  667MOL0     C89977   5.126   0.669   4.901 -0.0341 -0.3241 -0.4004
  667MOL0     H89978   5.439   0.467   4.575  1.6329  1.8055 -1.2141
  667MOL0     H89979   5.572   0.381   4.390  0.1567  2.3901 -0.4605
  667MOL0     H89980   5.451   0.346   4.010  0.3092  2.8543  0.2434
  667MOL0     H89981   5.545   0.436   4.127  2.8762  0.6790 -3.6432
  667MOL0     H89982   5.631   0.191   3.969 -0.4318  0.6851 -0.9020
  667MOL0     H89983   5.702   0.342   3.971 -1.0455 -0.7092 -1.1334
  667MOL0     H89984   5.784   0.306   4.204 -0.9535 -0.6186  0.1717
  667MOL0     H89985   5.677   0.173   4.229  0.4352  1.0056  1.7457
  667MOL0     H89986   5.783   0.059   4.020  2.2015  0.7958 -2.9184
  667MOL0     H89987   5.907   0.190   4.033  0.3015 -0.3876  0.4273
  667MOL0     H89988   5.910   0.085   4.275 -2.0202  2.2636 -0.5080
  667MOL0     H89989   5.867  -0.064   4.197  1.0295 -0.4471  2.5886
  667MOL0     H89990   6.101   0.120   4.123 -1.1030  0.0542 -3.6714
  667MOL0     H89991   6.131  -0.027   4.229  1.4947 -0.7183 -1.8380
  667MOL0     H89992   6.025  -0.020   3.939 -0.3646  2.6031  2.0508
  667MOL0     H89993   6.195  -0.050   3.980 -0.9301 -0.6074 -5.6595
  667MOL0     H89994   6.038  -0.270   3.941 -0.1893 -6.0733  2.6073
  667MOL0     H89995   5.978  -0.225   4.096  0.5981  0.2273  0.7946
  667MOL0     H89996   6.349  -0.288   3.938 -2.8970 -1.5638 -2.0926
  667MOL0     H89997   6.566  -0.335   4.061  1.9276  2.3641  1.9522
  667MOL0     H89998   6.568  -0.346   4.232 -1.9058  1.7369 -0.0550
  667MOL0     H89999   6.538  -0.586   4.052 -2.6722  0.5269  1.3940
  667MOL0     H90000   6.504  -0.594   4.229 -1.5031 -0.1827 -0.6996
  667MOL0     H90001   6.741  -0.502   4.266  1.7845  0.2899  0.2752
  667MOL0     H90002   6.779  -0.522   4.096 -1.8182  1.0176 -0.6361
  667MOL0     H90003   6.697  -0.721   4.299 -2.2597  2.2024 -0.4386
  667MOL0     H90004   6.852  -0.716   4.200  0.1395 -0.2977 -3.1053
  667MOL0     H90005   6.510  -0.945   3.987 -4.4612 -1.2360  1.3151
  667MOL0     H90006   6.364  -1.247   4.053 -0.8819  1.2346 -0.5445
  667MOL0     H90007   6.403  -1.120   3.930  3.7185  2.0757 -0.5617
  667MOL0     H90008   6.498  -1.274   3.950  2.0350 -0.8157  2.8069
  667MOL0     H90009   6.874  -1.532   4.167 -0.0886 -1.2653 -1.4723
  667MOL0     H90010   6.916  -1.773   4.142  0.1895 -2.1031  1.7567
  667MOL0     H90011   6.859  -2.138   4.196  0.5000 -1.0649  0.8413
  667MOL0     H90012   6.910  -1.985   4.128 -0.1777  0.1932 -0.1846
  667MOL0     H90013   6.986  -2.083   4.402 -1.6526  0.1943 -0.2201
  667MOL0     H90014   7.083  -2.144   4.266 -2.3794 -3.3070  2.6723
  667MOL0     H90015   7.168  -1.932   4.400  1.9684  2.3629 -0.5061
  667MOL0     H90016   7.029  -1.849   4.328 -1.5805  0.1440 -1.7679
  667MOL0     H90017   7.133  -1.936   4.098  0.7163  0.8155 -0.3819
  667MOL0     H90018   7.204  -1.802   4.183 -2.2187  0.2544 -1.2861
  667MOL0     H90019   7.356  -1.969   4.097 -0.3522  1.5590  0.0975
  667MOL0     H90020   7.290  -2.098   4.181  1.9021  0.1214 -0.2049
  667MOL0     H90021   7.439  -1.862   4.314 -0.9128  0.7515 -1.0406
  667MOL0     H90022   7.367  -1.998   4.408 -0.3823  5.3970  1.6415
  667MOL0     H90023   7.590  -1.989   4.207  1.3675  2.4944  2.4036
  667MOL0     H90024   7.498  -2.143   4.237 -1.7302  0.5005 -0.8036
  667MOL0     H90025   7.665  -2.189   4.373 -1.8007 -0.5347 -1.5567
  667MOL0     H90026   7.534  -2.144   4.480  1.1687  0.6692  1.3527
  667MOL0     H90027   6.575  -1.850   4.390  2.0983 -2.0414  1.0040
  667MOL0     H90028   6.534  -1.621   4.395 -0.8976  0.1266 -1.5333
  667MOL0     H90029   6.756  -1.173   4.354  2.0724  0.1553 -0.7503
  667MOL0     H90030   6.770  -0.937   4.335 -0.2313  3.4165 -1.6761
  667MOL0     H90031   5.190   0.257   4.212 -0.7831  3.5555 -1.7781
  667MOL0     H90032   5.075   0.332   4.390  0.6667 -3.4700 -0.5716
  667MOL0     H90033   5.070   0.337   4.851  2.4268  0.4563 -0.2276
  667MOL0     H90034   4.958   0.367   5.054 -2.5404 -0.9639 -6.0103
  667MOL0     H90035   4.911   0.779   5.227  0.9017 -1.2057 -2.0020
  667MOL0     H90036   4.751   0.704   5.223 -0.3006 -0.6997 -2.0811
  667MOL0     H90037   4.985   0.626   5.424 -0.3945 -0.2258  2.9254
  667MOL0     H90038   4.824   0.565   5.428 -1.5448  0.4304 -1.9537
  667MOL0     H90039   4.730   0.779   5.478  0.4190 -2.0764 -3.0468
  667MOL0     H90040   4.901   0.847   5.479  2.5158 -2.0407  1.1424
  667MOL0     H90041   4.768   0.658   5.682  0.4360 -0.1836  0.8783
  667MOL0     H90042   4.872   0.805   5.708  1.6087  0.7551 -1.3217
  667MOL0     H90043   5.164   0.511   5.712  0.2430 -0.6617  1.9543
  667MOL0     H90044   5.083   0.768   5.091 -1.6400  0.9647 -2.1420
  667MOL0     H90045   5.170   0.762   4.865  0.3786  0.1655  1.2651
  668MOL0     O90046   4.025   4.417   4.131  0.6422 -0.5609  0.2360
  668MOL0     C90047   4.066   4.331   4.202 -0.1795  0.7126  0.0821
  668MOL0     O90048   4.195   4.326   4.237  0.0459  0.0616  0.1111
  668MOL0     C90049   4.281   4.427   4.198  0.1060 -0.7684  0.3238
  668MOL0     C90050   4.252   4.562   4.200  0.5013 -0.4866 -0.5458
  668MOL0     C90051   4.366   4.651   4.179 -0.1574  0.1885  1.3624
  668MOL0     C90052   4.492   4.611   4.128 -0.1275  0.2567  0.8593
  668MOL0     O90053   4.596   4.689   4.090 -0.3912  0.1340  0.1549
  668MOL0     C90054   4.604   4.815   4.160  0.4506  0.0483  0.1053
  668MOL0     C90055   4.733   4.881   4.128  0.7260  0.1177 -0.1631
  668MOL0     C90056   4.752   4.872   3.970 -0.3531 -0.7160 -0.3039
  668MOL0     C90057   4.820   5.000   3.915  1.4770  0.4200  0.0295
  668MOL0     C90058   4.971   5.008   3.927  0.2048 -0.5776  0.1379
  668MOL0     C90059   5.040   4.885   3.853 -0.5004 -0.5204 -0.3499
  668MOL0     C90060   5.184   4.923   3.804 -0.5900 -0.2449  0.4909
  668MOL0     C90061   5.160   5.006   3.672  0.6757  0.3463 -0.3260
  668MOL0     N90062   5.220   5.138   3.677 -1.1466 -0.3315 -1.2256
  668MOL0     C90063   5.353   5.172   3.649 -0.1861  0.7805 -0.6289
  668MOL0     C90064   5.365   5.301   3.677 -0.6985 -0.7444 -0.8205
  668MOL0     C90065   5.481   5.389   3.668 -0.4270 -0.7904 -0.4485
  668MOL0     C90066   5.593   5.346   3.761  0.0338 -0.3829  0.6092
  668MOL0     C90067   5.607   5.400   3.903 -0.5016 -0.6706  0.3935
  668MOL0     C90068   5.466   5.460   3.960  0.3109  0.5005 -0.4207
  668MOL0     O90069   5.458   5.462   4.103  0.0195 -0.1672  0.3027
  668MOL0     C90070   5.449   5.345   4.168  0.6587 -0.8403 -0.0876
  668MOL0     C90071   5.451   5.355   4.306 -0.1438 -0.4040 -0.0297
  668MOL0     C90072   5.454   5.244   4.395 -0.4403 -0.5394 -0.0711
  668MOL0     C90073   5.469   5.266   4.549 -0.0375  0.2147 -0.8640
  668MOL0     C90074   5.464   5.117   4.340  0.4500 -0.1085  0.6556
  668MOL0     C90075   5.479   4.991   4.417 -0.4729  0.2309 -0.4933
  668MOL0     O90076   5.457   4.878   4.350 -0.4119  0.8066 -0.0054
  668MOL0     C90077   5.492   4.763   4.416  0.8440 -0.7871  0.5815
  668MOL0     C90078   5.626   4.729   4.433  0.5777 -0.3940 -1.1219
  668MOL0     C90079   5.671   4.622   4.514 -0.5587  0.5240  0.3325
  668MOL0     C90080   5.577   4.557   4.593  0.9467 -0.7158  0.1130
  668MOL0     O90081   5.626   4.458   4.667  0.5809  0.2638  0.2444
  668MOL0     C90082   5.731   4.497   4.758 -0.0643 -0.0033 -0.3534
  668MOL0     C90083   5.681   4.505   4.907 -0.5350  0.0919 -0.2315
  668MOL0     C90084   5.755   4.391   4.989  0.2186  0.0464 -0.1382
  668MOL0     C90085   5.694   4.345   5.113  1.2139  0.5635 -1.0251
  668MOL0     C90086   5.774   4.235   5.196  0.5473  0.4713  0.1874
  668MOL0     C90087   5.899   4.298   5.248 -0.0635  0.4889  0.8595
  668MOL0     C90088   5.881   4.425   5.333  0.1245 -0.4601  0.3940
  668MOL0     C90089   5.773   4.410   5.436  0.8813 -0.1418  0.6847
  668MOL0    Cl90090   5.767   4.570   5.530 -0.0741 -0.1732  0.1435
  668MOL0     C90091   5.444   4.597   4.594 -1.0037  1.0907  0.3862
  668MOL0     C90092   5.400   4.695   4.505 -0.1427 -1.2028  0.3518
  668MOL0     O90093   5.520   4.988   4.533  0.0266 -0.5641  0.1476
  668MOL0     C90094   5.439   5.098   4.202  0.7780  0.3255  0.0184
  668MOL0     C90095   5.422   5.209   4.118  0.2972 -1.4527 -0.5501
  668MOL0     N90096   5.239   5.342   3.724  0.3607 -0.1976  0.4302
  668MOL0     N90097   5.153   5.250   3.718  0.2471 -0.1536  0.0444
  668MOL0     C90098   4.500   4.473   4.111  0.7155 -0.8999  0.0991
  668MOL0     C90099   4.402   4.382   4.155 -0.4284  0.3326 -0.5822
  668MOL0     C90100   3.983   4.230   4.259  0.9261  0.8469 -0.0445
  668MOL0     C90101   3.849   4.243   4.258  0.5727  0.6462  0.4085
  668MOL0     C90102   3.769   4.135   4.303  0.1255 -0.6267 -0.0350
  668MOL0     C90103   3.826   4.017   4.358  0.6020 -0.3319 -0.5638
  668MOL0     O90104   3.745   3.916   4.395  0.2911  0.2015  0.0142
  668MOL0     C90105   3.636   3.880   4.302 -0.3926  0.2094 -0.4103
  668MOL0     C90106   3.574   3.737   4.330 -0.4449  1.0356  0.0313
  668MOL0     C90107   3.477   3.733   4.447 -0.0634 -0.5779  0.2059
  668MOL0     C90108   3.539   3.699   4.571 -0.4366 -0.6128  0.0064
  668MOL0     C90109   3.581   3.555   4.590 -0.7700  0.1286 -0.0169
  668MOL0     C90110   3.617   3.443   4.626 -1.0297  0.5000  0.0294
  668MOL0     C90111   3.970   4.006   4.366 -0.2447  0.0361  0.3210
  668MOL0     C90112   4.047   4.110   4.309  0.0818 -0.6771 -0.3167
  668MOL0     H90113   4.157   4.599   4.238  0.0909 -2.7205  0.7741
  668MOL0     H90114   4.349   4.758   4.186 -0.4228  0.2174  0.3684
  668MOL0     H90115   4.521   4.879   4.127  0.4425  1.0159  1.9101
  668MOL0     H90116   4.590   4.799   4.267 -2.2261 -0.5181 -0.2514
  668MOL0     H90117   4.727   4.982   4.169 -2.4283  0.1593 -0.4430
  668MOL0     H90118   4.825   4.834   4.164  0.3908 -0.4999 -0.1150
  668MOL0     H90119   4.798   4.776   3.944 -1.0045 -0.9433 -0.6292
  668MOL0     H90120   4.650   4.874   3.932 -0.1436 -0.6255 -0.8741
  668MOL0     H90121   4.782   5.000   3.812  0.0161 -1.9024  0.4898
  668MOL0     H90122   4.769   5.080   3.970 -3.2313 -2.0494 -0.2137
  668MOL0     H90123   4.996   5.102   3.878 -3.8100 -0.0177 -1.2032
  668MOL0     H90124   5.000   5.011   4.032 -0.2920 -3.0072  0.4079
  668MOL0     H90125   5.047   4.804   3.927 -0.3643 -2.6260 -2.5331
  668MOL0     H90126   4.999   4.848   3.759  1.7225 -3.0078 -0.4782
  668MOL0     H90127   5.233   4.983   3.881 -2.3603  1.6148  0.2350
  668MOL0     H90128   5.244   4.835   3.778 -0.6946  0.5849 -3.1040
  668MOL0     H90129   5.057   5.028   3.645  1.3401  0.0559 -3.5973
  668MOL0     H90130   5.204   4.943   3.593 -1.2000 -1.8946  0.3004
  668MOL0     H90131   5.433   5.121   3.595 -0.0882  2.2786 -1.9683
  668MOL0     H90132   5.521   5.391   3.566 -2.2098  0.6506 -1.1895
  668MOL0     H90133   5.453   5.490   3.701  1.4660 -0.4451  0.2110
  668MOL0     H90134   5.681   5.374   3.702 -0.7355  1.5884  0.2966
  668MOL0     H90135   5.583   5.238   3.746 -1.6614 -0.1945  0.1604
  668MOL0     H90136   5.682   5.479   3.918 -2.5131  1.5005 -0.2970
  668MOL0     H90137   5.633   5.319   3.971 -1.1665 -0.7210  0.6001
  668MOL0     H90138   5.384   5.400   3.920  1.3773 -1.7535  0.6440
  668MOL0     H90139   5.446   5.564   3.931 -2.3337  0.3102  0.4802
  668MOL0     H90140   5.463   5.454   4.348  2.3080 -0.8864  0.5495
  668MOL0     H90141   5.405   5.199   4.607 -0.2009 -1.5788 -3.0050
  668MOL0     H90142   5.574   5.243   4.568  0.2039  0.1730 -2.1299
  668MOL0     H90143   5.449   5.371   4.576  1.3241  0.0475  1.0098
  668MOL0     H90144   5.704   4.784   4.381  0.7984 -2.7304 -3.4913
  668MOL0     H90145   5.775   4.592   4.522 -1.1092 -1.1992  1.7890
  668MOL0     H90146   5.801   4.415   4.740 -1.2779 -1.4803  1.3380
  668MOL0     H90147   5.776   4.596   4.743  0.5239  0.2169  2.2387
  668MOL0     H90148   5.703   4.598   4.960  2.2545  0.4353 -1.7925
  668MOL0     H90149   5.574   4.486   4.909  0.0063 -4.0097 -0.2124
  668MOL0     H90150   5.854   4.435   5.003 -1.0899  2.6685  1.8723
  668MOL0     H90151   5.786   4.311   4.921  3.4761  2.0567 -1.2439
  668MOL0     H90152   5.668   4.431   5.175 -1.8894 -0.5447 -0.5833
  668MOL0     H90153   5.593   4.308   5.092  1.1456  1.5606 -2.6295
  668MOL0     H90154   5.796   4.156   5.124 -2.1471  1.5794 -2.0347
  668MOL0     H90155   5.707   4.201   5.276 -0.2529  5.3042  1.9213
  668MOL0     H90156   5.969   4.228   5.294  1.7003  2.1049  0.7799
  668MOL0     H90157   5.961   4.323   5.161  1.8893 -0.0301  2.0290
  668MOL0     H90158   5.870   4.506   5.260  1.8421 -0.0273  0.5712
  668MOL0     H90159   5.978   4.444   5.382  0.2890  1.1288 -0.4799
  668MOL0     H90160   5.792   4.320   5.495 -2.0061 -1.7630 -0.6367
  668MOL0     H90161   5.677   4.384   5.390  0.5043  3.9490 -1.3222
  668MOL0     H90162   5.388   4.549   4.674  1.4281  0.2198  1.6657
  668MOL0     H90163   5.298   4.732   4.509  0.6583  1.8134 -2.4108
  668MOL0     H90164   5.416   5.005   4.150 -0.2436  0.0329  0.9733
  668MOL0     H90165   5.409   5.178   4.015 -2.2582 -3.0222  0.1456
  668MOL0     H90166   4.589   4.430   4.066  0.3467  1.0668 -2.7805
  668MOL0     H90167   4.423   4.276   4.160  3.6150  1.0157  0.6865
  668MOL0     H90168   3.790   4.323   4.214 -0.5576 -1.4262 -2.0877
  668MOL0     H90169   3.663   4.157   4.301  0.6275  2.2393  0.6916
  668MOL0     H90170   3.561   3.959   4.312  0.2975  0.8471 -0.2031
  668MOL0     H90171   3.680   3.880   4.202  1.0848 -1.4997  0.1932
  668MOL0     H90172   3.648   3.659   4.350 -0.2076  1.4540  0.8486
  668MOL0     H90173   3.515   3.714   4.242  0.8406  0.7637 -0.7875
  668MOL0     H90174   3.397   3.660   4.430 -0.5299  0.2266 -1.3010
  668MOL0     H90175   3.428   3.829   4.466 -1.1100 -0.8062 -1.1616
  668MOL0     H90176   3.466   3.728   4.647  1.6058  0.5296  1.6376
  668MOL0     H90177   3.632   3.757   4.572 -0.2763 -0.5385 -4.1163
  668MOL0     H90178   3.667   3.352   4.651 -3.6726 -0.2689  3.0750
  668MOL0     H90179   4.017   3.920   4.412 -0.8458 -0.4570  0.0244
  668MOL0     H90180   4.155   4.106   4.298  0.2773  1.7413  0.2521
  669MOL0     O90181  11.079   4.726   5.428  0.2198  0.1491 -0.5727
  669MOL0     C90182  11.126   4.613   5.436 -0.9741  0.6942  0.5022
  669MOL0     O90183  11.068   4.502   5.406  0.5950  0.6643 -0.2527
  669MOL0     C90184  10.944   4.506   5.351 -0.1927 -0.2576  1.0126
  669MOL0     C90185  10.924   4.563   5.224 -0.7471  0.4330 -0.3626
  669MOL0     C90186  10.798   4.570   5.168  1.4957  0.5150 -0.4560
  669MOL0     C90187  10.683   4.510   5.227 -0.9440  0.2576  0.4442
  669MOL0     O90188  10.558   4.510   5.174  0.8123 -0.3281  0.3550
  669MOL0     C90189  10.528   4.582   5.052 -0.0495  0.0959  0.1013
  669MOL0     C90190  10.380   4.605   5.042 -0.6903 -0.0816  0.3792
  669MOL0     C90191  10.340   4.682   4.906  0.0624  0.2509 -0.7016
  669MOL0     C90192  10.206   4.761   4.934  0.3720 -0.1212  0.4175
  669MOL0     C90193  10.149   4.826   4.803 -0.6842  0.2221 -0.0227
  669MOL0     C90194  10.004   4.870   4.821  0.0853  0.0653 -0.0316
  669MOL0     C90195   9.943   4.939   4.693  0.0253 -0.3132  0.9034
  669MOL0     C90196   9.790   4.973   4.703 -0.0325 -0.7880 -0.1132
  669MOL0     N90197   9.710   4.855   4.661 -0.3295  0.8752  0.1822
  669MOL0     C90198   9.636   4.837   4.545  0.2655 -0.0939 -0.6460
  669MOL0     C90199   9.588   4.705   4.558  1.1420 -0.9848 -0.4284
  669MOL0     C90200   9.514   4.642   4.446 -0.1616 -0.3196  1.0056
  669MOL0     C90201   9.414   4.744   4.380  1.3233  0.4848  0.7545
  669MOL0     C90202   9.295   4.760   4.469  0.7481 -0.0571 -0.6903
  669MOL0     C90203   9.182   4.845   4.406  0.4239  0.0573 -0.0918
  669MOL0     O90204   9.153   4.794   4.274  0.4081 -0.7159  0.6020
  669MOL0     C90205   9.068   4.859   4.186  0.5048 -0.5320  0.3497
  669MOL0     C90206   9.040   4.997   4.205  0.4117 -0.6763  0.7129
  669MOL0     C90207   8.975   5.074   4.115  0.2152 -1.0653  0.2512
  669MOL0     C90208   8.956   5.217   4.163 -1.0408  0.1870  0.8933
  669MOL0     C90209   8.922   5.011   4.002  0.3048 -0.6350  0.8709
  669MOL0     C90210   8.825   5.075   3.905 -0.4392 -0.4163 -1.5837
  669MOL0     O90211   8.760   5.194   3.948 -0.2622  0.6913  0.2498
  669MOL0     C90212   8.680   5.264   3.856 -0.5526 -0.6439  0.1437
  669MOL0     C90213   8.662   5.399   3.890  0.5668  0.7438 -0.0060
  669MOL0     C90214   8.597   5.489   3.798  0.5664  0.2881 -0.3934
  669MOL0     C90215   8.560   5.458   3.677  0.3073  1.7031  0.1204
  669MOL0     O90216   8.502   5.549   3.606 -0.6652  0.6145 -0.0393
  669MOL0     C90217   8.387   5.504   3.521 -0.2417 -0.4718  0.5949
  669MOL0     C90218   8.275   5.613   3.507  0.0317 -0.6384  0.1613
  669MOL0     C90219   8.210   5.634   3.652  1.5049  0.4436  0.2824
  669MOL0     C90220   8.100   5.535   3.687 -0.6321  0.1536  0.5939
  669MOL0     C90221   7.980   5.613   3.736  1.6857 -0.3249 -1.2518
  669MOL0     C90222   7.855   5.537   3.771  0.8487 -0.6880 -1.0280
  669MOL0     C90223   7.737   5.634   3.818 -0.4889  0.4446  0.5594
  669MOL0     C90224   7.604   5.618   3.741 -0.4855 -0.2079 -0.3395
  669MOL0    Cl90225   7.561   5.444   3.741 -0.4528 -0.1167  0.2480
  669MOL0     C90226   8.573   5.324   3.637 -0.1061  0.2272  0.0029
  669MOL0     C90227   8.630   5.230   3.729 -0.1320  1.2067  0.6065
  669MOL0     O90228   8.810   5.013   3.802 -0.1766 -0.1181 -0.2668
  669MOL0     C90229   8.943   4.874   3.982  0.0736 -0.7974 -0.5801
  669MOL0     C90230   9.025   4.809   4.072 -0.3613 -0.1396 -0.2314
  669MOL0     N90231   9.639   4.645   4.671 -0.1011 -0.2982  1.4333
  669MOL0     N90232   9.716   4.735   4.727  0.1158 -0.0916 -0.2852
  669MOL0     C90233  10.708   4.446   5.343 -1.1232 -0.8659 -0.5107
  669MOL0     C90234  10.833   4.448   5.411 -0.1564  0.6000  0.0557
  669MOL0     C90235  11.260   4.592   5.504 -0.4279  0.4555 -0.3356
  669MOL0     C90236  11.308   4.680   5.602  0.0513  0.2412  0.4734
  669MOL0     C90237  11.435   4.665   5.662  0.2946 -0.0910  0.5992
  669MOL0     C90238  11.531   4.576   5.606  0.2693  0.6112 -0.0364
  669MOL0     O90239  11.657   4.558   5.664 -0.2588 -0.3613  0.2821
  669MOL0     C90240  11.647   4.527   5.804 -0.2212 -0.0844 -0.1326
  669MOL0     C90241  11.759   4.444   5.868  0.1114 -0.4129  0.0130
  669MOL0     C90242  11.799   4.317   5.785  0.1241 -0.6349 -0.8324
  669MOL0     C90243  11.936   4.250   5.821  0.5378  0.3831 -1.4025
  669MOL0     C90244  11.916   4.161   5.933  0.0891 -0.3944 -0.1775
  669MOL0     C90245  11.903   4.078   6.025  0.1211 -0.2301  0.6959
  669MOL0     C90246  11.493   4.498   5.501 -0.3724 -0.2669  0.7701
  669MOL0     C90247  11.359   4.501   5.451  0.2737 -0.6705 -0.3351
  669MOL0     H90248  11.005   4.606   5.165  2.4522 -3.0469  1.0987
  669MOL0     H90249  10.805   4.605   5.065  2.3025  0.5935 -0.3818
  669MOL0     H90250  10.577   4.679   5.054 -3.0876  1.8927 -3.0433
  669MOL0     H90251  10.559   4.523   4.965  2.8465  1.4367  0.1172
  669MOL0     H90252  10.329   4.508   5.039  0.1511 -0.5216 -0.2591
  669MOL0     H90253  10.338   4.656   5.129  0.0910  1.2886 -0.0304
  669MOL0     H90254  10.413   4.757   4.873  0.1313  0.6467  0.3025
  669MOL0     H90255  10.320   4.611   4.826 -1.5318 -0.5501  0.3628
  669MOL0     H90256  10.147   4.675   4.968  1.4790 -0.7564  0.8016
  669MOL0     H90257  10.202   4.833   5.016 -2.6852 -1.8741  2.0118
  669MOL0     H90258  10.215   4.910   4.779  3.4835 -2.6713  0.2018
  669MOL0     H90259  10.167   4.766   4.712 -0.6446 -0.0989  0.1940
  669MOL0     H90260   9.939   4.785   4.843 -1.2737  1.5162  1.8833
  669MOL0     H90261   9.995   4.944   4.901 -0.9969 -2.2562  2.1572
  669MOL0     H90262   9.984   5.038   4.673 -2.1479  0.7770  1.4155
  669MOL0     H90263   9.968   4.881   4.605  2.0384  5.2728 -2.7458
  669MOL0     H90264   9.765   5.062   4.645 -1.2796 -2.0739 -1.6472
  669MOL0     H90265   9.771   4.992   4.808  0.9451  3.8030 -0.5432
  669MOL0     H90266   9.620   4.920   4.478 -1.9710  1.0377  1.1231
  669MOL0     H90267   9.589   4.606   4.374 -0.3312  0.7542  0.2762
  669MOL0     H90268   9.452   4.562   4.488 -1.6920  1.0025  1.3437
  669MOL0     H90269   9.392   4.691   4.287  0.9443  1.7218  0.1050
  669MOL0     H90270   9.461   4.838   4.347  2.2949 -0.4978 -0.8126
  669MOL0     H90271   9.330   4.803   4.563 -0.3071 -1.8973  0.5941
  669MOL0     H90272   9.263   4.659   4.496  1.8255 -0.5302 -1.1463
  669MOL0     H90273   9.222   4.946   4.394 -1.3800  0.7901 -0.3047
  669MOL0     H90274   9.098   4.854   4.475  1.1521  0.3133  0.7836
  669MOL0     H90275   9.070   5.045   4.297 -2.4804  2.2221  0.3084
  669MOL0     H90276   9.048   5.239   4.219  0.6860 -1.2569 -1.2363
  669MOL0     H90277   8.958   5.291   4.083 -0.1716  0.3672  1.0768
  669MOL0     H90278   8.866   5.234   4.224 -1.0464 -0.4894  1.0761
  669MOL0     H90279   8.704   5.428   3.986  0.9090  0.4390 -0.0608
  669MOL0     H90280   8.577   5.595   3.815  2.4757  1.0494 -2.3906
  669MOL0     H90281   8.410   5.488   3.415 -3.1914 -0.5271 -0.1225
  669MOL0     H90282   8.334   5.417   3.560  1.5493 -2.2616 -0.7603
  669MOL0     H90283   8.311   5.708   3.467 -1.2019  0.1807  0.9374
  669MOL0     H90284   8.202   5.578   3.433  0.9090 -3.0441  0.3272
  669MOL0     H90285   8.172   5.735   3.673  2.0377  0.1458  3.1175
  669MOL0     H90286   8.282   5.637   3.735 -0.7603  2.9302  2.3324
  669MOL0     H90287   8.066   5.480   3.599 -0.7896 -0.9313  1.3042
  669MOL0     H90288   8.139   5.456   3.753  0.0427  1.7842  2.2276
  669MOL0     H90289   7.952   5.679   3.652  0.4485  1.9104  0.7834
  669MOL0     H90290   7.989   5.668   3.830  1.1071 -0.1849 -1.2715
  669MOL0     H90291   7.827   5.481   3.682 -0.4033 -1.6826 -0.0395
  669MOL0     H90292   7.871   5.458   3.845  2.9695  2.4296  2.2280
  669MOL0     H90293   7.771   5.734   3.791  3.1106 -1.2814 -2.1971
  669MOL0     H90294   7.734   5.623   3.927 -1.6504 -3.8384  0.2867
  669MOL0     H90295   7.611   5.662   3.641 -2.7649  1.9230  0.3517
  669MOL0     H90296   7.538   5.685   3.796  0.6214  0.7638 -0.1327
  669MOL0     H90297   8.533   5.277   3.548 -1.6244 -0.7968  1.1779
  669MOL0     H90298   8.631   5.128   3.692  0.5293  1.2615  0.4705
  669MOL0     H90299   8.911   4.821   3.893  0.3243  0.6761 -1.5820
  669MOL0     H90300   9.049   4.703   4.063 -1.0625 -0.6855  2.8773
  669MOL0     H90301  10.627   4.388   5.387  0.6339 -3.0247  0.0503
  669MOL0     H90302  10.835   4.392   5.504  1.1153 -0.6244 -0.6592
  669MOL0     H90303  11.239   4.761   5.622  1.6012  2.0430 -1.0159
  669MOL0     H90304  11.460   4.737   5.740  1.1689  2.1799 -1.6514
  669MOL0     H90305  11.635   4.616   5.867  5.3087  0.3005  0.9066
  669MOL0     H90306  11.557   4.466   5.819 -1.2797  1.6387  0.8337
  669MOL0     H90307  11.741   4.408   5.970  0.3075 -0.9572 -0.1385
  669MOL0     H90308  11.852   4.501   5.874 -1.0526  1.9844 -2.6475
  669MOL0     H90309  11.794   4.342   5.678 -1.8861 -0.8236 -0.8250
  669MOL0     H90310  11.722   4.242   5.806 -3.0556  3.0489  2.2006
  669MOL0     H90311  12.016   4.315   5.857  1.4489 -1.6939  0.5638
  669MOL0     H90312  11.971   4.190   5.737 -0.7966  1.3589 -2.7208
  669MOL0     H90313  11.903   4.003   6.101 -1.9941 -2.5423 -1.4225
  669MOL0     H90314  11.572   4.446   5.448 -0.2564  3.0194 -2.6698
  669MOL0     H90315  11.331   4.440   5.366 -0.4627 -0.3479 -0.3288
  670MOL0     O90316   6.561   3.235  10.472  0.0516 -1.0101 -0.6417
  670MOL0     C90317   6.675   3.256  10.525 -0.5531  0.2257  0.2935
  670MOL0     O90318   6.744   3.376  10.530 -0.4526  1.4419 -0.8670
  670MOL0     C90319   6.699   3.487  10.470 -0.1655 -0.1283  1.1794
  670MOL0     C90320   6.790   3.589  10.487 -0.4080 -0.6353 -0.3268
  670MOL0     C90321   6.768   3.713  10.427  0.6482  0.0167  0.3312
  670MOL0     C90322   6.644   3.745  10.359 -0.3219  1.0618  0.6690
  670MOL0     O90323   6.634   3.873  10.320 -0.5969  0.2975 -0.1378
  670MOL0     C90324   6.507   3.942  10.320  0.4138  0.4932 -1.0065
  670MOL0     C90325   6.462   3.959  10.472  0.3964 -0.3940  0.3432
  670MOL0     C90326   6.541   4.080  10.532 -0.0156 -1.0312 -0.3841
  670MOL0     C90327   6.435   4.181  10.586 -0.6481 -0.2068  0.5848
  670MOL0     C90328   6.395   4.279  10.474 -0.1081  0.1425  0.5768
  670MOL0     C90329   6.488   4.398  10.445  0.3505 -0.9106 -0.2420
  670MOL0     C90330   6.479   4.517  10.551  0.0166 -0.2074  1.0482
  670MOL0     C90331   6.547   4.648  10.527  0.3464 -0.6394  1.0512
  670MOL0     N90332   6.692   4.634  10.557  0.3449  0.3446  0.4590
  670MOL0     C90333   6.791   4.614  10.466  0.4129  0.7659  0.1272
  670MOL0     C90334   6.898   4.606  10.541  0.2037 -0.1044 -0.2956
  670MOL0     C90335   7.036   4.614  10.484 -0.4984  0.0817 -0.3407
  670MOL0     C90336   7.145   4.657  10.574 -0.5944 -0.8819  0.2712
  670MOL0     C90337   7.143   4.804  10.614  0.8322 -1.0741  0.6300
  670MOL0     C90338   7.253   4.832  10.700 -0.0877 -0.1193  0.1862
  670MOL0     O90339   7.256   4.973  10.746  0.2070 -0.4203 -0.1412
  670MOL0     C90340   7.329   5.004  10.856  0.1796  0.1156 -0.4684
  670MOL0     C90341   7.263   5.032  10.972 -0.5929 -1.3704 -0.3630
  670MOL0     C90342   7.332   5.070  11.087 -0.1267  1.1428 -0.8607
  670MOL0     C90343   7.246   5.053  11.215  0.4149  0.3130  1.6509
  670MOL0     C90344   7.476   5.071  11.083 -0.9947 -0.4183 -0.2347
  670MOL0     C90345   7.556   5.102  11.210 -0.5737 -0.0701 -0.1563
  670MOL0     O90346   7.701   5.103  11.191  0.4479  0.2523  0.1214
  670MOL0     C90347   7.780   5.152  11.292  0.0516 -0.1796 -0.6710
  670MOL0     C90348   7.864   5.073  11.369 -0.6866 -0.3547  0.4188
  670MOL0     C90349   7.950   5.130  11.461 -0.8011 -0.4478 -0.8941
  670MOL0     C90350   7.954   5.270  11.469  0.4797  1.4183 -0.6404
  670MOL0     O90351   8.046   5.328  11.551 -0.0355 -0.0982 -0.2832
  670MOL0     C90352   7.983   5.392  11.657 -0.3450 -0.1402  0.6759
  670MOL0     C90353   8.064   5.503  11.731  0.4086  0.6398  0.0215
  670MOL0     C90354   7.971   5.586  11.837 -0.1684  0.1722  0.7121
  670MOL0     C90355   8.058   5.663  11.942  0.2370  0.7464  0.6081
  670MOL0     C90356   7.972   5.753  12.032  1.0984  0.5009 -0.0546
  670MOL0     C90357   7.940   5.684  12.167  0.7470 -0.0003  0.9299
  670MOL0     C90358   7.838   5.776  12.238  0.5508 -0.1012 -0.4357
  670MOL0     C90359   7.806   5.739  12.383 -0.0321 -0.1281 -0.2560
  670MOL0    Cl90360   7.954   5.725  12.486  0.0304  0.0641  0.2717
  670MOL0     C90361   7.870   5.352  11.396  0.0377  0.4129 -0.5148
  670MOL0     C90362   7.773   5.292  11.309  0.2160 -0.6279  0.1550
  670MOL0     O90363   7.499   5.156  11.306 -0.5346  0.4186  0.8594
  670MOL0     C90364   7.541   5.047  10.957 -0.1878 -0.5414  0.3604
  670MOL0     C90365   7.465   5.005  10.843  0.7676 -0.3299 -0.4554
  670MOL0     N90366   6.865   4.590  10.673 -0.7899  0.0560 -0.1443
  670MOL0     N90367   6.733   4.617  10.685  0.7927  0.4168  0.7296
  670MOL0     C90368   6.542   3.650  10.365 -0.4717 -0.7494 -0.3933
  670MOL0     C90369   6.576   3.520  10.405  0.3021  0.7818 -0.3486
  670MOL0     C90370   6.747   3.148  10.598 -0.8230  0.6260 -1.0274
  670MOL0     C90371   6.846   3.167  10.700 -0.3939 -0.4484  0.3866
  670MOL0     C90372   6.906   3.064  10.762 -0.8816  0.2310 -0.6992
  670MOL0     C90373   6.863   2.941  10.742 -0.1810  0.5418  0.2262
  670MOL0     O90374   6.925   2.845  10.806  0.0088 -0.4109 -0.2697
  670MOL0     C90375   6.975   2.733  10.731 -0.2034 -0.3023 -0.7164
  670MOL0     C90376   7.118   2.746  10.680 -0.5389  0.0872 -0.3938
  670MOL0     C90377   7.203   2.794  10.803 -0.0786 -0.2745  0.4284
  670MOL0     C90378   7.351   2.782  10.796 -0.3309  0.1231 -0.0936
  670MOL0     C90379   7.410   2.799  10.932 -0.4098 -0.1627  0.0759
  670MOL0     C90380   7.445   2.811  11.053 -0.2583  1.3039  0.3932
  670MOL0     C90381   6.767   2.916  10.642  0.2203 -0.1722  1.4700
  670MOL0     C90382   6.711   3.018  10.570  0.2463  0.2743 -0.4026
  670MOL0     H90383   6.877   3.568  10.547 -1.6065 -0.3108  1.6066
  670MOL0     H90384   6.847   3.787  10.434  1.1719 -0.6743  2.8044
  670MOL0     H90385   6.505   4.039  10.271 -2.6465  1.6040  1.0304
  670MOL0     H90386   6.427   3.890  10.266  1.4351 -1.8386 -0.4271
  670MOL0     H90387   6.353   3.972  10.466  0.3366 -0.3500  1.4506
  670MOL0     H90388   6.478   3.864  10.523  0.9650 -1.1316 -1.1667
  670MOL0     H90389   6.597   4.031  10.612  0.9281  1.5538  0.6593
  670MOL0     H90390   6.610   4.127  10.462  1.6322 -0.1893  1.6851
  670MOL0     H90391   6.347   4.124  10.617 -1.3041  0.7868  0.5862
  670MOL0     H90392   6.468   4.234  10.675 -1.9212  2.0338 -0.2071
  670MOL0     H90393   6.384   4.214  10.387  2.0463  0.1771  0.2227
  670MOL0     H90394   6.299   4.321  10.503 -0.0990 -0.5695  1.7262
  670MOL0     H90395   6.591   4.364  10.432  0.4099 -0.9688  0.3699
  670MOL0     H90396   6.438   4.440  10.357 -0.2043 -0.6464  0.1948
  670MOL0     H90397   6.371   4.532  10.557 -0.5253 -2.3159 -1.5601
  670MOL0     H90398   6.506   4.481  10.651 -6.0304 -2.4071  2.3519
  670MOL0     H90399   6.500   4.723  10.591  0.0723  0.9899 -0.9627
  670MOL0     H90400   6.535   4.682  10.424  0.3542  0.7426  1.4920
  670MOL0     H90401   6.792   4.613  10.358  5.5245 -1.2577 -0.0408
  670MOL0     H90402   7.065   4.517  10.443 -3.9585 -2.1793  2.0431
  670MOL0     H90403   7.038   4.687  10.403 -1.4659  2.2054  1.4310
  670MOL0     H90404   7.244   4.637  10.532  0.0977 -0.1966  1.5073
  670MOL0     H90405   7.149   4.597  10.666  2.9936  0.0134  0.8592
  670MOL0     H90406   7.050   4.824  10.667  0.9269  1.7825 -0.1267
  670MOL0     H90407   7.147   4.881  10.537 -1.6199  1.5420  2.9279
  670MOL0     H90408   7.341   4.828  10.636 -1.4599  1.8041 -1.9858
  670MOL0     H90409   7.250   4.767  10.788 -3.2999 -0.6472 -0.1978
  670MOL0     H90410   7.154   5.028  10.979 -0.6915  1.3867  0.7691
  670MOL0     H90411   7.153   4.999  11.201 -0.1368  1.7051 -0.4821
  670MOL0     H90412   7.307   5.003  11.291 -0.7619 -1.2627  1.5948
  670MOL0     H90413   7.212   5.143  11.266 -3.4838 -0.1214  0.1718
  670MOL0     H90414   7.858   4.967  11.346 -0.6232 -0.3092  0.1907
  670MOL0     H90415   8.011   5.071  11.528 -2.8478 -2.4950 -0.6971
  670MOL0     H90416   7.900   5.453  11.623 -2.2126 -1.9069  1.8224
  670MOL0     H90417   7.952   5.330  11.742  0.5410 -1.1372  0.3024
  670MOL0     H90418   8.149   5.456  11.782  0.0946  1.2171  1.0992
  670MOL0     H90419   8.101   5.573  11.656  1.7788  0.4502  0.4898
  670MOL0     H90420   7.913   5.515  11.898  1.5845 -0.1076  2.1561
  670MOL0     H90421   7.906   5.659  11.790  0.0312  0.3141  0.6544
  670MOL0     H90422   8.118   5.588  11.994 -0.4765 -2.0397 -2.3450
  670MOL0     H90423   8.127   5.725  11.885  1.3193  0.3599  1.4636
  670MOL0     H90424   7.876   5.780  11.986 -1.0269 -2.7188  2.0356
  670MOL0     H90425   8.030   5.840  12.064  1.9476  1.7413 -4.3077
  670MOL0     H90426   7.904   5.581  12.156  2.7173 -0.6506 -0.0166
  670MOL0     H90427   8.035   5.673  12.221  1.3896 -0.0337 -0.1741
  670MOL0     H90428   7.743   5.789  12.185  0.6370  1.0876 -0.3355
  670MOL0     H90429   7.889   5.872  12.251 -0.7033  0.2185  3.3090
  670MOL0     H90430   7.745   5.648  12.389 -2.6287  1.6029  1.1061
  670MOL0     H90431   7.746   5.818  12.427  3.7325  1.5375  2.4516
  670MOL0     H90432   7.891   5.458  11.402 -2.3206  0.8375  3.1824
  670MOL0     H90433   7.700   5.359  11.265  0.2047  1.4818  3.0749
  670MOL0     H90434   7.648   5.039  10.939 -0.3564  0.3691 -1.3573
  670MOL0     H90435   7.515   4.982  10.749  2.5799  1.9871 -0.1416
  670MOL0     H90436   6.442   3.663  10.326 -0.5288  0.3072  0.0770
  670MOL0     H90437   6.507   3.436  10.402  0.1793  0.7811  1.6011
  670MOL0     H90438   6.902   3.256  10.728  0.3804 -0.7003 -0.3162
  670MOL0     H90439   6.985   3.081  10.834 -1.1504  1.3832 -0.6663
  670MOL0     H90440   6.967   2.653  10.805 -2.5288 -0.9183 -1.5439
  670MOL0     H90441   6.908   2.699  10.651 -0.1641 -2.0089 -0.0501
  670MOL0     H90442   7.129   2.835  10.616  1.0422 -0.1034 -0.4394
  670MOL0     H90443   7.156   2.666  10.616  2.7551  0.2090  1.1982
  670MOL0     H90444   7.175   2.735  10.891  1.9796 -0.3357  1.1091
  670MOL0     H90445   7.175   2.898  10.825  1.1361  0.0555  0.4987
  670MOL0     H90446   7.381   2.861  10.726 -0.0704 -0.5120 -0.7115
  670MOL0     H90447   7.372   2.679  10.766  0.7394 -0.9860  3.9170
  670MOL0     H90448   7.485   2.846  11.146 -0.2641  1.3908  0.3635
  670MOL0     H90449   6.737   2.815  10.613 -1.3555  0.4814  0.7288
  670MOL0     H90450   6.627   2.995  10.506 -0.9936 -0.7572  1.5169
  671MOL0     O90451   5.999   1.979   0.342  0.0670  0.0731  0.0972
  671MOL0     C90452   5.924   2.074   0.316 -0.0665 -0.5910  0.1847
  671MOL0     O90453   5.954   2.206   0.338 -0.3034  0.3458 -0.4913
  671MOL0     C90454   6.084   2.234   0.364  0.0219  0.1606 -0.7213
  671MOL0     C90455   6.144   2.326   0.280  0.4472 -0.2402  0.1736
  671MOL0     C90456   6.272   2.373   0.310 -0.6939 -0.1477  0.6773
  671MOL0     C90457   6.323   2.324   0.428 -1.5731 -0.7097 -0.0464
  671MOL0     O90458   6.445   2.358   0.471 -0.4897  0.0688 -0.7173
  671MOL0     C90459   6.507   2.483   0.432 -0.5630 -0.4146 -0.0872
  671MOL0     C90460   6.594   2.519   0.555 -1.3028 -0.0903  0.5666
  671MOL0     C90461   6.513   2.535   0.679  0.0057 -0.1562  0.2037
  671MOL0     C90462   6.600   2.525   0.809  0.5915 -0.5865  0.0084
  671MOL0     C90463   6.502   2.563   0.930  0.0168  0.2513  0.1598
  671MOL0     C90464   6.583   2.577   1.056 -0.7226  0.2851  0.5526
  671MOL0     C90465   6.510   2.573   1.187  0.0671  0.3633 -0.7189
  671MOL0     C90466   6.566   2.673   1.282  0.0264 -0.2709 -0.7701
  671MOL0     N90467   6.498   2.672   1.410 -0.3683 -0.4748 -0.0768
  671MOL0     C90468   6.391   2.752   1.448 -0.4448  0.4261 -0.1710
  671MOL0     C90469   6.369   2.700   1.578  0.2565  0.3130  0.2114
  671MOL0     C90470   6.284   2.746   1.685 -0.7941  0.5834 -0.0485
  671MOL0     C90471   6.368   2.830   1.794 -0.6099  0.8140  0.3182
  671MOL0     C90472   6.282   2.887   1.910 -0.5084 -0.5361  1.2179
  671MOL0     C90473   6.217   3.013   1.861 -0.2232  0.2061 -0.1151
  671MOL0     O90474   6.115   3.066   1.951 -0.8666  0.3873  0.0833
  671MOL0     C90475   6.141   3.177   2.034  0.0153 -0.4737 -0.1955
  671MOL0     C90476   6.271   3.204   2.079 -0.2934 -0.7457 -0.4142
  671MOL0     C90477   6.298   3.323   2.154  0.3504  0.8071 -0.1763
  671MOL0     C90478   6.430   3.317   2.234 -0.7517 -0.5024 -0.1099
  671MOL0     C90479   6.205   3.426   2.166 -0.4037 -0.1599  0.5098
  671MOL0     C90480   6.228   3.557   2.235 -0.7995 -0.2777 -0.0454
  671MOL0     O90481   6.120   3.631   2.281 -0.0004  0.0881 -0.1655
  671MOL0     C90482   6.127   3.760   2.325  0.6522  0.0141 -0.0230
  671MOL0     C90483   6.208   3.855   2.266  0.2452  0.0361 -0.4610
  671MOL0     C90484   6.206   3.992   2.304 -0.4030  0.0525  1.0647
  671MOL0     C90485   6.115   4.032   2.397 -0.5679  0.0790  0.2697
  671MOL0     O90486   6.092   4.157   2.447  0.4737 -0.5252  0.0246
  671MOL0     C90487   6.202   4.244   2.464  0.0034  0.2792 -1.1899
  671MOL0     C90488   6.162   4.394   2.472  1.1437 -0.6526  0.7584
  671MOL0     C90489   6.043   4.412   2.562  1.1987 -0.3846 -0.1018
  671MOL0     C90490   6.040   4.553   2.627 -0.0318  0.0860  0.5262
  671MOL0     C90491   5.967   4.669   2.557  0.3431 -0.6489  0.5767
  671MOL0     C90492   5.930   4.777   2.656  0.1731  0.3582  0.0355
  671MOL0     C90493   5.849   4.896   2.600  0.9345  0.0202 -0.7253
  671MOL0     C90494   5.812   4.995   2.714  0.7317 -0.4533  0.1125
  671MOL0    Cl90495   5.969   5.058   2.777  0.3960 -0.2709  0.1666
  671MOL0     C90496   6.041   3.935   2.460 -0.0169  0.1653 -0.2504
  671MOL0     C90497   6.039   3.804   2.431 -0.7554  0.1572  0.0618
  671MOL0     O90498   6.345   3.601   2.219 -0.1669  0.0259  0.1414
  671MOL0     C90499   6.072   3.393   2.122 -0.3082  0.1283  0.2731
  671MOL0     C90500   6.039   3.271   2.062  1.1163 -0.8777  0.1489
  671MOL0     N90501   6.455   2.593   1.595  0.1835  0.8610 -0.7053
  671MOL0     N90502   6.532   2.582   1.501 -0.6414  0.6871 -0.1447
  671MOL0     C90503   6.275   2.216   0.506 -0.0427  0.2723  0.3360
  671MOL0     C90504   6.151   2.175   0.462  0.2752  0.4937 -0.3645
  671MOL0     C90505   5.786   2.049   0.271  0.5179 -0.7444  0.7189
  671MOL0     C90506   5.733   1.918   0.297  0.0688  0.1278  0.1855
  671MOL0     C90507   5.610   1.891   0.249 -0.4182  0.1878  0.2532
  671MOL0     C90508   5.530   1.988   0.185 -0.0602  0.6986  0.7183
  671MOL0     O90509   5.399   1.967   0.139 -0.4902 -0.7582  0.7681
  671MOL0     C90510   5.310   1.941   0.243  0.3444  0.2640 -0.6411
  671MOL0     C90511   5.211   2.056   0.245  0.9164  0.9317 -0.2700
  671MOL0     C90512   5.245   2.172   0.346 -0.2256 -0.4646  0.4393
  671MOL0     C90513   5.179   2.315   0.302  0.1629 -0.3112 -0.5315
  671MOL0     C90514   5.218   2.366   0.167  0.9966  0.0043  0.2862
  671MOL0     C90515   5.252   2.422   0.062  0.3158  0.3298  0.1761
  671MOL0     C90516   5.582   2.117   0.162  0.4846 -0.0641 -0.5325
  671MOL0     C90517   5.708   2.147   0.204  0.0160 -0.4445 -0.1902
  671MOL0     H90518   6.102   2.387   0.201 -1.5467 -1.0279  0.5630
  671MOL0     H90519   6.323   2.457   0.264 -0.1759  1.8860  4.4996
  671MOL0     H90520   6.560   2.465   0.338  1.2708 -0.3340  0.8947
  671MOL0     H90521   6.441   2.570   0.429  0.9164  0.7772  0.8647
  671MOL0     H90522   6.677   2.449   0.569 -0.8570  0.2148 -0.4487
  671MOL0     H90523   6.642   2.616   0.537 -2.4454  0.5382  0.8340
  671MOL0     H90524   6.474   2.638   0.681 -1.4799 -0.5414 -3.3288
  671MOL0     H90525   6.426   2.470   0.672 -0.5837  0.8100 -4.4626
  671MOL0     H90526   6.629   2.420   0.812  2.6595 -0.2482 -3.2474
  671MOL0     H90527   6.695   2.579   0.806 -0.4737  1.3920 -0.2371
  671MOL0     H90528   6.447   2.656   0.909 -3.1435 -0.3613  4.4232
  671MOL0     H90529   6.430   2.481   0.933  0.6539 -0.3161  0.0688
  671MOL0     H90530   6.653   2.493   1.050 -2.8515 -1.5107 -1.3972
  671MOL0     H90531   6.639   2.671   1.053  0.5546 -0.4839 -1.2257
  671MOL0     H90532   6.402   2.589   1.177 -0.4258 -1.2574  1.2445
  671MOL0     H90533   6.526   2.481   1.244 -4.4559  0.9004  1.9200
  671MOL0     H90534   6.553   2.773   1.241  2.9288  1.2909  1.7043
  671MOL0     H90535   6.673   2.664   1.303  0.6377 -1.4462 -3.7522
  671MOL0     H90536   6.343   2.834   1.396 -0.7488  0.1981 -0.2555
  671MOL0     H90537   6.195   2.796   1.645  0.2103  0.0695 -3.1709
  671MOL0     H90538   6.252   2.661   1.747 -2.3199  1.8145  0.9374
  671MOL0     H90539   6.426   2.906   1.741  0.1297 -0.4521 -0.7582
  671MOL0     H90540   6.443   2.762   1.835  1.1224  1.2433 -1.9542
  671MOL0     H90541   6.339   2.915   1.999 -0.7078 -2.6197  2.0671
  671MOL0     H90542   6.208   2.816   1.947 -2.1582  0.5602  0.1791
  671MOL0     H90543   6.178   3.002   1.760  0.6638  3.8045 -0.9833
  671MOL0     H90544   6.303   3.081   1.851 -0.5239  0.7029  0.6048
  671MOL0     H90545   6.347   3.127   2.078  3.1167  2.1404  3.4779
  671MOL0     H90546   6.480   3.220   2.226 -0.9032 -0.4906 -1.3904
  671MOL0     H90547   6.495   3.392   2.187 -0.0939 -1.6850 -1.1430
  671MOL0     H90548   6.423   3.332   2.343 -0.1748  0.1686 -0.1593
  671MOL0     H90549   6.274   3.819   2.188 -2.1515  0.0309 -2.6318
  671MOL0     H90550   6.269   4.063   2.252 -2.7517  0.5990 -1.2307
  671MOL0     H90551   6.250   4.213   2.557 -2.0867 -1.9013 -0.7375
  671MOL0     H90552   6.280   4.244   2.387  0.5306  2.2537 -0.7245
  671MOL0     H90553   6.249   4.450   2.507 -0.6588  1.0047  2.9178
  671MOL0     H90554   6.141   4.432   2.371  1.7394  1.3636  1.3436
  671MOL0     H90555   6.026   4.329   2.631 -1.1650  1.6653  2.0273
  671MOL0     H90556   5.951   4.421   2.505  0.5029 -0.6179  0.9486
  671MOL0     H90557   5.984   4.549   2.720  0.8635  2.5258  1.2316
  671MOL0     H90558   6.142   4.586   2.649 -0.1015  0.6812 -0.0167
  671MOL0     H90559   5.868   4.629   2.533 -0.0429  0.3342  0.4717
  671MOL0     H90560   6.029   4.703   2.473  0.1764 -0.6924  0.4363
  671MOL0     H90561   5.864   4.728   2.728 -1.8931  0.1530 -1.9188
  671MOL0     H90562   6.014   4.811   2.719 -0.3363  2.3991 -0.3103
  671MOL0     H90563   5.749   4.866   2.570  0.2864  0.1663  1.1639
  671MOL0     H90564   5.899   4.944   2.515  0.5733 -0.5817 -1.2820
  671MOL0     H90565   5.765   4.940   2.796  0.9904 -0.9329 -0.0563
  671MOL0     H90566   5.745   5.069   2.668  0.1437 -2.1994 -1.9686
  671MOL0     H90567   5.982   3.966   2.546  0.8745 -0.9992  0.8066
  671MOL0     H90568   5.974   3.731   2.479 -2.7746  0.5586 -1.8939
  671MOL0     H90569   5.991   3.464   2.114  0.0555  0.7768  2.0023
  671MOL0     H90570   5.937   3.255   2.029  1.2967 -1.9495  0.0797
  671MOL0     H90571   6.310   2.183   0.604 -3.7754 -1.0824  1.3849
  671MOL0     H90572   6.105   2.095   0.519 -2.0281  0.0973 -2.6231
  671MOL0     H90573   5.801   1.845   0.340  0.0159 -0.5590 -0.8636
  671MOL0     H90574   5.577   1.788   0.260  0.2104 -0.1200 -0.6629
  671MOL0     H90575   5.259   1.847   0.219  1.7958  0.4539 -5.3488
  671MOL0     H90576   5.350   1.939   0.345 -1.2144  2.5161  0.0799
  671MOL0     H90577   5.118   2.016   0.286  0.2820  1.2647 -1.3478
  671MOL0     H90578   5.199   2.092   0.143 -1.0375 -2.0275 -1.2068
  671MOL0     H90579   5.354   2.180   0.354 -0.3115 -0.8939  2.7638
  671MOL0     H90580   5.197   2.147   0.441 -0.8560  1.1465  0.5703
  671MOL0     H90581   5.218   2.384   0.378 -1.7660 -0.1306  0.3366
  671MOL0     H90582   5.071   2.317   0.316  0.4246 -0.8909  2.1154
  671MOL0     H90583   5.271   2.489  -0.019 -0.9121  2.9219  1.9043
  671MOL0     H90584   5.520   2.196   0.123  0.4383 -0.0930 -0.5176
  671MOL0     H90585   5.749   2.247   0.199 -0.6969 -0.2043 -1.9590
  672MOL0     O90586   3.636   7.168   7.370  0.4457 -0.7166  0.3698
  672MOL0     C90587   3.701   7.245   7.302  0.6282 -0.2964  0.1086
  672MOL0     O90588   3.765   7.215   7.186  0.2971  0.2263 -0.2205
  672MOL0     C90589   3.723   7.122   7.095  0.5574  0.7787 -0.0415
  672MOL0     C90590   3.819   7.056   7.024 -0.6605  0.0853  0.1438
  672MOL0     C90591   3.787   6.960   6.929  0.3187  0.4195 -0.9782
  672MOL0     C90592   3.653   6.917   6.912  0.5438  0.3445  0.5943
  672MOL0     O90593   3.622   6.828   6.812  0.2616 -1.2252  0.3045
  672MOL0     C90594   3.702   6.810   6.693 -0.7349  0.6065  0.8126
  672MOL0     C90595   3.622   6.738   6.586 -0.4241 -0.1155 -0.5341
  672MOL0     C90596   3.705   6.714   6.461  0.0229  0.1800  0.2940
  672MOL0     C90597   3.627   6.651   6.357 -0.2511  0.4703 -0.2639
  672MOL0     C90598   3.720   6.592   6.248 -0.3789 -0.3722  0.6302
  672MOL0     C90599   3.656   6.494   6.135  0.4152 -0.2347  0.7018
  672MOL0     C90600   3.757   6.455   6.028  0.2297  0.3053  0.1418
  672MOL0     C90601   3.694   6.346   5.933 -0.4128  0.0159  0.1220
  672MOL0     N90602   3.782   6.327   5.817 -0.2966 -0.3788  1.3355
  672MOL0     C90603   3.909   6.377   5.797  0.2654  0.0619  0.3007
  672MOL0     C90604   3.944   6.325   5.684 -0.4483 -0.0634 -1.1858
  672MOL0     C90605   4.075   6.355   5.616 -0.1009 -0.3499  0.1939
  672MOL0     C90606   4.054   6.476   5.530 -0.3141  0.1320 -0.2683
  672MOL0     C90607   3.945   6.445   5.420  0.6412 -0.7480  0.7980
  672MOL0     C90608   3.968   6.503   5.281  0.3199 -0.4904 -0.0776
  672MOL0     O90609   4.086   6.423   5.239  0.5555 -0.2597  0.6040
  672MOL0     C90610   4.115   6.445   5.100 -0.4599 -0.2854 -0.7999
  672MOL0     C90611   4.106   6.567   5.040  0.8081 -0.2708 -0.3780
  672MOL0     C90612   4.134   6.587   4.904  0.1278 -1.4715 -0.4548
  672MOL0     C90613   4.095   6.716   4.836  0.2087  0.1157 -0.5045
  672MOL0     C90614   4.205   6.492   4.830 -0.4623  0.4661  0.9139
  672MOL0     C90615   4.265   6.514   4.694  0.7680 -0.4739  0.4543
  672MOL0     O90616   4.350   6.410   4.648 -0.8229  0.2564  0.7736
  672MOL0     C90617   4.418   6.434   4.530 -0.5601 -1.1972  0.1879
  672MOL0     C90618   4.351   6.449   4.407  0.2572  0.4276 -0.1320
  672MOL0     C90619   4.415   6.475   4.286 -0.8719  0.7068  0.8008
  672MOL0     C90620   4.556   6.485   4.280 -0.6839  0.2113 -0.4024
  672MOL0     O90621   4.620   6.502   4.155  0.2893 -0.8079  0.6076
  672MOL0     C90622   4.756   6.562   4.156 -0.0244  0.6360 -0.3824
  672MOL0     C90623   4.777   6.617   4.017 -0.3881  0.4578  0.5316
  672MOL0     C90624   4.715   6.751   4.001 -0.6182  0.1935  1.1619
  672MOL0     C90625   4.757   6.807   3.872  0.5341 -0.0055 -0.6856
  672MOL0     C90626   4.678   6.944   3.844 -0.4389  0.4878 -0.0780
  672MOL0     C90627   4.704   6.993   3.702 -0.0511 -0.3951 -0.8245
  672MOL0     C90628   4.649   7.136   3.675 -0.2425 -0.2774 -0.1414
  672MOL0     C90629   4.497   7.146   3.700 -0.0874 -0.0831  1.1928
  672MOL0    Cl90630   4.410   7.183   3.551  0.2230 -0.1784 -0.2148
  672MOL0     C90631   4.630   6.463   4.402 -0.7797  0.6900  0.6399
  672MOL0     C90632   4.561   6.433   4.520  0.3960  0.7867 -0.7901
  672MOL0     O90633   4.252   6.621   4.631 -0.0684 -0.1565 -0.2128
  672MOL0     C90634   4.233   6.370   4.896 -1.2434 -0.0175 -0.1121
  672MOL0     C90635   4.185   6.346   5.027  0.3026 -0.6834  0.1531
  672MOL0     N90636   3.858   6.225   5.649  0.0719 -0.4634 -0.3027
  672MOL0     N90637   3.758   6.222   5.735 -0.0738 -0.0529 -0.3676
  672MOL0     C90638   3.554   6.982   6.993 -0.3376 -0.4586 -0.8835
  672MOL0     C90639   3.594   7.080   7.085  0.2256  0.5776 -0.1862
  672MOL0     C90640   3.740   7.375   7.366  0.0414 -0.1220  0.2969
  672MOL0     C90641   3.789   7.468   7.274 -0.0976 -0.1226  0.2658
  672MOL0     C90642   3.819   7.592   7.321  0.5330 -0.3330  0.3581
  672MOL0     C90643   3.810   7.638   7.452  0.6779 -0.1990 -0.0024
  672MOL0     O90644   3.843   7.768   7.492 -0.3129 -0.2073 -0.5163
  672MOL0     C90645   3.784   7.813   7.614  0.2060 -0.2314 -0.1438
  672MOL0     C90646   3.885   7.807   7.722  0.7466 -0.4909 -0.3404
  672MOL0     C90647   3.992   7.911   7.708  0.3760 -0.9043 -0.6308
  672MOL0     C90648   4.080   7.927   7.833 -0.9383  0.2833 -0.6331
  672MOL0     C90649   4.014   7.979   7.956 -0.3674 -1.2321  0.1337
  672MOL0     C90650   3.951   8.016   8.053 -0.4506  0.5073 -0.5776
  672MOL0     C90651   3.778   7.531   7.547  0.6313 -0.4004  0.1357
  672MOL0     C90652   3.736   7.405   7.508 -0.0642  0.2766  0.9605
  672MOL0     H90653   3.920   7.091   7.044  0.0505  0.1706 -3.0009
  672MOL0     H90654   3.861   6.907   6.870 -0.6144  0.9727 -2.7264
  672MOL0     H90655   3.747   6.900   6.650  1.5266 -1.3369 -1.1786
  672MOL0     H90656   3.789   6.748   6.716  0.7778  0.5356 -3.9215
  672MOL0     H90657   3.575   6.649   6.630 -2.1277  0.6438 -0.7212
  672MOL0     H90658   3.542   6.809   6.563  0.3890  2.1104  2.7698
  672MOL0     H90659   3.729   6.812   6.420 -2.6477  0.7988  0.0139
  672MOL0     H90660   3.789   6.648   6.487 -0.6365 -0.2186  1.4809
  672MOL0     H90661   3.578   6.565   6.404 -1.3882  1.4139  0.3341
  672MOL0     H90662   3.543   6.713   6.326 -2.2653 -0.2842  3.1962
  672MOL0     H90663   3.748   6.680   6.189  1.6925 -2.2440 -1.4085
  672MOL0     H90664   3.808   6.547   6.295  1.0071  0.7369 -0.7991
  672MOL0     H90665   3.610   6.405   6.178 -0.4583  0.2829  0.8712
  672MOL0     H90666   3.576   6.553   6.089  2.4478  2.0675 -0.1604
  672MOL0     H90667   3.787   6.540   5.967 -1.3294 -0.4616 -1.7945
  672MOL0     H90668   3.847   6.415   6.076 -0.3249  1.0750  1.9156
  672MOL0     H90669   3.603   6.380   5.884 -0.1896  0.3647 -0.0535
  672MOL0     H90670   3.674   6.248   5.978  2.2855 -1.6780 -2.0604
  672MOL0     H90671   3.952   6.461   5.850 -2.2136  1.1660  0.7309
  672MOL0     H90672   4.150   6.365   5.695  0.5409  1.3351 -0.5881
  672MOL0     H90673   4.095   6.268   5.552  1.6402  0.7726 -0.8700
  672MOL0     H90674   4.149   6.490   5.477 -0.2131  0.7671  0.0634
  672MOL0     H90675   4.021   6.562   5.588  1.4798  1.2850 -0.8659
  672MOL0     H90676   3.855   6.486   5.468  1.9034  0.4364  2.2591
  672MOL0     H90677   3.929   6.337   5.423 -2.1304 -0.3793  2.5563
  672MOL0     H90678   3.987   6.610   5.281 -2.3638  0.1849  3.6568
  672MOL0     H90679   3.881   6.479   5.219 -1.2320  2.3023  0.8739
  672MOL0     H90680   4.056   6.647   5.093  2.3016 -0.8563  2.0831
  672MOL0     H90681   4.014   6.763   4.892  0.6779 -1.5874  1.6991
  672MOL0     H90682   4.179   6.784   4.817 -1.0010  1.0683 -3.0112
  672MOL0     H90683   4.052   6.701   4.736 -1.7708  1.6663  0.0458
  672MOL0     H90684   4.243   6.454   4.412  0.1815 -1.2944  0.7113
  672MOL0     H90685   4.344   6.499   4.208 -1.3678  1.0732  1.3551
  672MOL0     H90686   4.756   6.642   4.231 -1.3373  0.0955  0.2212
  672MOL0     H90687   4.831   6.489   4.188  0.7787  1.6655  0.1601
  672MOL0     H90688   4.885   6.619   3.997 -0.4648 -4.2156 -1.7880
  672MOL0     H90689   4.731   6.543   3.952  0.0872 -1.6255  2.4500
  672MOL0     H90690   4.753   6.816   4.081  2.1049 -0.8825  0.8334
  672MOL0     H90691   4.606   6.756   4.011 -0.8589  3.1953 -1.4939
  672MOL0     H90692   4.864   6.829   3.866  0.5997  0.7644  1.9846
  672MOL0     H90693   4.729   6.728   3.801  2.1065 -2.1189  0.8933
  672MOL0     H90694   4.726   7.013   3.914  1.7576 -0.8488 -0.1787
  672MOL0     H90695   4.572   6.930   3.868  0.1613  0.1913  2.8944
  672MOL0     H90696   4.811   6.992   3.676 -0.1453  0.9790 -1.3792
  672MOL0     H90697   4.653   6.924   3.634 -2.1562  1.5573 -1.3509
  672MOL0     H90698   4.676   7.155   3.571 -2.0733 -1.1156 -0.8279
  672MOL0     H90699   4.698   7.210   3.739 -1.1660 -1.4568  2.0511
  672MOL0     H90700   4.469   7.227   3.768 -0.4828  2.1391 -1.3906
  672MOL0     H90701   4.462   7.049   3.733 -3.3387  0.7633  0.5639
  672MOL0     H90702   4.738   6.459   4.408 -0.7038  1.8921  0.3418
  672MOL0     H90703   4.625   6.417   4.606 -1.5247 -0.9961  0.3804
  672MOL0     H90704   4.280   6.288   4.843 -1.5291 -0.3007  0.0691
  672MOL0     H90705   4.200   6.250   5.076  1.7229 -0.0870  0.9421
  672MOL0     H90706   3.449   6.962   6.971 -0.2355 -0.2239 -1.6165
  672MOL0     H90707   3.511   7.128   7.137  1.2268  0.4294  1.6285
  672MOL0     H90708   3.794   7.446   7.168 -0.6432  1.0556 -0.0121
  672MOL0     H90709   3.845   7.677   7.259 -1.4713  0.2351  0.2133
  672MOL0     H90710   3.765   7.919   7.595  1.6842  0.3728  1.4644
  672MOL0     H90711   3.683   7.774   7.633 -0.4294  2.2087  2.0334
  672MOL0     H90712   3.927   7.705   7.720  2.6934  0.2381 -3.4235
  672MOL0     H90713   3.825   7.823   7.812 -2.2939 -0.4986 -2.2654
  672MOL0     H90714   3.934   8.004   7.712 -0.2894 -1.3450  1.3209
  672MOL0     H90715   4.050   7.891   7.618  2.0855  0.3542  0.1294
  672MOL0     H90716   4.164   7.996   7.821 -1.6130  1.6305  1.7088
  672MOL0     H90717   4.124   7.829   7.854  1.2893  1.7311  2.0809
  672MOL0     H90718   3.896   8.069   8.128  0.1625 -2.2297  1.9810
  672MOL0     H90719   3.812   7.535   7.651 -1.5328 -0.6163  0.8908
  672MOL0     H90720   3.714   7.324   7.578 -1.6953 -2.9200 -2.8154
  673MOL0     O90721   2.384  10.329   9.883 -0.1492 -0.5827 -1.2359
  673MOL0     C90722   2.480  10.396   9.850 -0.2368 -0.4946 -0.0994
  673MOL0     O90723   2.553  10.369   9.741  0.0410  0.1412  0.3264
  673MOL0     C90724   2.518  10.258   9.661 -0.8490  0.5591 -0.0848
  673MOL0     C90725   2.635  10.183   9.637  0.4303 -0.7106  0.8252
  673MOL0     C90726   2.628  10.071   9.548  0.7624  0.1551  0.0234
  673MOL0     C90727   2.510  10.034   9.488  0.7550  0.3455  0.8725
  673MOL0     O90728   2.489   9.932   9.399 -0.0447  0.0031 -1.0497
  673MOL0     C90729   2.398   9.818   9.432 -0.2057 -1.2574 -0.0277
  673MOL0     C90730   2.454   9.751   9.555  0.1355  0.0551 -0.7417
  673MOL0     C90731   2.356   9.656   9.609  0.6337 -0.8594 -0.2926
  673MOL0     C90732   2.387   9.598   9.746 -0.5027  0.8647  0.4810
  673MOL0     C90733   2.266   9.519   9.802 -0.0852  0.2639  0.8119
  673MOL0     C90734   2.244   9.376   9.731 -0.7434  0.6286  0.4184
  673MOL0     C90735   2.146   9.286   9.800 -0.0085  0.9036  1.1442
  673MOL0     C90736   2.189   9.214   9.925 -0.5279 -0.3435 -0.3241
  673MOL0     N90737   2.095   9.106   9.969  0.5308  0.6265  0.6835
  673MOL0     C90738   2.085   8.976   9.916  0.6075  0.3366 -0.0420
  673MOL0     C90739   1.996   8.913   9.992  0.2485 -0.0577  0.0149
  673MOL0     C90740   1.948   8.774   9.971 -0.6780  0.8436 -0.4094
  673MOL0     C90741   1.973   8.690  10.093 -0.7991  0.2628 -0.3577
  673MOL0     C90742   1.910   8.554  10.078  0.9904  0.3738 -0.2810
  673MOL0     C90743   1.864   8.494  10.209 -0.8401 -0.1083  1.2439
  673MOL0     O90744   1.975   8.473  10.296  0.0652  0.3073 -0.9202
  673MOL0     C90745   1.957   8.464  10.438 -0.0084  0.1463  0.1115
  673MOL0     C90746   1.830   8.429  10.499  0.4238 -0.5649  0.0830
  673MOL0     C90747   1.828   8.419  10.637 -0.3903 -0.8734 -0.4029
  673MOL0     C90748   1.689   8.388  10.686 -0.1134 -0.0614  0.2126
  673MOL0     C90749   1.951   8.416  10.713  0.6354  0.6859 -0.3367
  673MOL0     C90750   1.953   8.389  10.858 -0.6634  0.1589 -0.3957
  673MOL0     O90751   1.837   8.335  10.913 -0.4163  0.2159  0.0764
  673MOL0     C90752   1.830   8.306  11.051  0.3737  0.2719 -0.0713
  673MOL0     C90753   1.739   8.196  11.079  0.3018  0.5665  0.2164
  673MOL0     C90754   1.720   8.153  11.204 -0.2523 -0.1454  0.7951
  673MOL0     C90755   1.780   8.225  11.313 -0.6153 -0.2630 -0.0394
  673MOL0     O90756   1.772   8.180  11.449 -0.1826 -0.2365  0.1016
  673MOL0     C90757   1.691   8.067  11.486 -0.6498 -0.6082 -0.8280
  673MOL0     C90758   1.683   8.089  11.642  0.3635  1.3185  0.3933
  673MOL0     C90759   1.825   8.061  11.699  0.6814 -0.3808  0.9356
  673MOL0     C90760   1.842   8.141  11.827  0.6454 -0.2612 -0.2700
  673MOL0     C90761   1.984   8.126  11.887 -0.4256  0.2803  0.1570
  673MOL0     C90762   1.985   8.152  12.036  0.4453  0.2598 -0.2654
  673MOL0     C90763   2.122   8.145  12.109 -0.4003  0.5515  0.6718
  673MOL0     C90764   2.219   8.261  12.080 -0.7558  0.9444 -0.0293
  673MOL0    Cl90765   2.368   8.217  12.167 -0.0799  0.5497  0.8684
  673MOL0     C90766   1.864   8.339  11.289 -0.1774  0.0067 -0.5593
  673MOL0     C90767   1.886   8.378  11.159 -0.1216  0.9010 -0.3950
  673MOL0     O90768   2.050   8.416  10.921 -0.0247  0.2500 -0.7302
  673MOL0     C90769   2.077   8.443  10.653 -0.0928 -0.2493  0.5490
  673MOL0     C90770   2.070   8.476  10.518 -0.3359 -1.1703  0.0967
  673MOL0     N90771   1.941   9.006  10.080  0.2302  0.9152 -0.5142
  673MOL0     N90772   1.998   9.122  10.067  0.6277 -0.2071  0.8281
  673MOL0     C90773   2.393  10.111   9.507 -0.0767 -0.6979  0.4927
  673MOL0     C90774   2.399  10.221   9.603  0.3269 -0.0269 -0.2576
  673MOL0     C90775   2.506  10.520   9.926 -1.2035  0.4238 -0.5228
  673MOL0     C90776   2.425  10.587  10.008 -0.1346 -0.4088 -0.1468
  673MOL0     C90777   2.473  10.684  10.090 -0.2948 -0.3291 -0.1228
  673MOL0     C90778   2.605  10.738  10.088 -0.0709  0.0961  0.7085
  673MOL0     O90779   2.646  10.827  10.190  0.4394  0.6906  0.7619
  673MOL0     C90780   2.786  10.855  10.212 -0.2820  0.2836  0.1919
  673MOL0     C90781   2.830  10.967  10.128 -0.1222 -0.4347 -0.1584
  673MOL0     C90782   2.751  11.093  10.159 -0.3256 -0.9053 -0.0778
  673MOL0     C90783   2.780  11.199  10.050  0.0621 -0.1167  0.5148
  673MOL0     C90784   2.909  11.268  10.067 -0.1192  0.3609 -0.3054
  673MOL0     C90785   3.013  11.330  10.085 -0.5854  0.3933  0.1905
  673MOL0     C90786   2.688  10.687   9.978  0.3547  0.4914 -0.1736
  673MOL0     C90787   2.640  10.570   9.908  0.7238  0.5484  0.8150
  673MOL0     H90788   2.734  10.208   9.674 -1.0657  0.8585  4.1957
  673MOL0     H90789   2.720  10.018   9.525  0.2878  0.2400 -2.2353
  673MOL0     H90790   2.296   9.857   9.444 -0.6079 -2.0296 -0.8485
  673MOL0     H90791   2.386   9.752   9.346 -0.8577 -0.8687 -0.2427
  673MOL0     H90792   2.552   9.707   9.532  0.7100  0.7972  0.2508
  673MOL0     H90793   2.456   9.816   9.642  0.9051  1.5595 -1.8302
  673MOL0     H90794   2.263   9.713   9.608  0.5961 -0.9214 -0.3521
  673MOL0     H90795   2.336   9.573   9.541 -0.2464 -0.6641 -0.2884
  673MOL0     H90796   2.469   9.526   9.749 -1.8463 -0.6829  1.1179
  673MOL0     H90797   2.419   9.673   9.819 -2.0623 -0.6292  2.8436
  673MOL0     H90798   2.292   9.494   9.905 -1.0100 -0.7309  0.8086
  673MOL0     H90799   2.174   9.577   9.793  1.4575  3.4346  3.1270
  673MOL0     H90800   2.209   9.400   9.630 -0.4780  0.5588  0.3078
  673MOL0     H90801   2.339   9.323   9.718 -0.1545  1.9138 -0.9289
  673MOL0     H90802   2.052   9.337   9.825 -1.3285 -1.6408  1.7579
  673MOL0     H90803   2.108   9.208   9.733 -2.6086  0.8897  2.4876
  673MOL0     H90804   2.183   9.287  10.007 -1.9027 -0.9267  0.1302
  673MOL0     H90805   2.289   9.173   9.908 -1.2295 -1.9250 -0.7992
  673MOL0     H90806   2.154   8.937   9.842  1.4363  2.2434 -0.3139
  673MOL0     H90807   1.841   8.784   9.949 -0.5906  4.0201  0.1590
  673MOL0     H90808   1.992   8.730   9.882  3.1593  1.8146  0.8297
  673MOL0     H90809   1.924   8.731  10.181 -2.8826 -1.7411 -0.4739
  673MOL0     H90810   2.080   8.686  10.115 -0.3707 -0.7113 -2.3805
  673MOL0     H90811   1.977   8.479  10.035  0.8258 -0.3328  0.6432
  673MOL0     H90812   1.819   8.568  10.018  3.2639  0.2309 -4.0889
  673MOL0     H90813   1.811   8.402  10.183  1.6868 -0.8492 -1.8621
  673MOL0     H90814   1.796   8.564  10.259 -1.9044 -1.1366  1.2835
  673MOL0     H90815   1.736   8.427  10.444  0.1767 -2.8655  0.4783
  673MOL0     H90816   1.675   8.461  10.767  1.8881  0.2092  0.3603
  673MOL0     H90817   1.612   8.393  10.609 -1.5137  0.7262  1.6070
  673MOL0     H90818   1.683   8.285  10.724  2.6261 -1.3931 -2.4751
  673MOL0     H90819   1.692   8.144  10.996  0.3975  1.8757 -0.7019
  673MOL0     H90820   1.662   8.063  11.224 -0.7738 -0.0453 -0.2417
  673MOL0     H90821   1.591   8.082  11.444 -1.2690  1.3832  1.1222
  673MOL0     H90822   1.737   7.968  11.474  1.3609  0.1219  0.3633
  673MOL0     H90823   1.652   8.191  11.668  0.4560  1.0623  1.5504
  673MOL0     H90824   1.604   8.024  11.680 -0.9022  0.8036 -2.8299
  673MOL0     H90825   1.908   8.087  11.631 -0.1573 -0.0253  0.0219
  673MOL0     H90826   1.839   7.960  11.737 -0.9085 -0.9922  0.0044
  673MOL0     H90827   1.810   8.243  11.803 -5.3487 -0.9813  2.7498
  673MOL0     H90828   1.758   8.106  11.888 -0.6749  0.6828 -1.4915
  673MOL0     H90829   2.048   8.196  11.832  1.9981 -0.1309  2.2568
  673MOL0     H90830   2.021   8.025  11.866 -0.5842  0.9114 -4.1281
  673MOL0     H90831   1.945   8.253  12.047 -1.4918  0.1838 -4.5179
  673MOL0     H90832   1.908   8.089  12.081 -1.5342  1.1048 -2.2493
  673MOL0     H90833   2.166   8.048  12.082  1.4188  1.3656  0.5253
  673MOL0     H90834   2.100   8.133  12.215 -0.8072  1.5916  0.7214
  673MOL0     H90835   2.179   8.358  12.109  0.7891  2.6510 -3.1386
  673MOL0     H90836   2.232   8.261  11.972  1.4391 -3.5194 -0.0239
  673MOL0     H90837   1.921   8.392  11.364  0.6478 -0.6936 -0.6797
  673MOL0     H90838   1.952   8.458  11.127 -0.2086  1.0346 -0.2424
  673MOL0     H90839   2.169   8.452  10.710 -0.8485 -2.4144  2.2262
  673MOL0     H90840   2.163   8.507  10.471 -2.2498  2.9037 -1.5101
  673MOL0     H90841   2.305  10.083   9.451 -0.3062  0.2257  0.3712
  673MOL0     H90842   2.311  10.285   9.611  1.3596  1.2957  0.9473
  673MOL0     H90843   2.327  10.544  10.024 -0.2682  0.5501  1.8959
  673MOL0     H90844   2.410  10.713  10.173  2.1605 -1.8498  2.4138
  673MOL0     H90845   2.796  10.870  10.320 -3.6029  0.0218  0.6508
  673MOL0     H90846   2.855  10.773  10.191  0.1857 -0.1336  2.9662
  673MOL0     H90847   2.823  10.942  10.022 -1.5661 -1.0172  0.0607
  673MOL0     H90848   2.936  10.990  10.147 -0.0895 -1.1395  0.5362
  673MOL0     H90849   2.775  11.135  10.257 -0.9419  1.0183 -0.6998
  673MOL0     H90850   2.644  11.073  10.168 -1.0557  2.6373  0.3703
  673MOL0     H90851   2.709  11.282  10.051  0.3118  0.1419 -0.8336
  673MOL0     H90852   2.785  11.153   9.950  3.0332 -2.7008  1.6644
  673MOL0     H90853   3.088  11.401  10.112 -0.9496  0.3609  1.3397
  673MOL0     H90854   2.793  10.712   9.964  0.5468  1.6829  2.8476
  673MOL0     H90855   2.706  10.530   9.831 -0.0823  2.3855 -0.9212
  674MOL0     O90856   3.204   5.072  10.531  0.1281  0.4283 -0.5430
  674MOL0     C90857   3.266   5.112  10.438 -0.3491 -0.1392 -0.0048
  674MOL0     O90858   3.295   5.245  10.421  0.2633  0.0654  0.0939
  674MOL0     C90859   3.253   5.347  10.491 -0.1527 -0.0457 -0.5366
  674MOL0     C90860   3.203   5.461  10.426  0.2549  0.0178 -0.6449
  674MOL0     C90861   3.173   5.577  10.495 -0.2156  0.1674  0.8894
  674MOL0     C90862   3.195   5.592  10.634 -0.1845  0.0060  0.7211
  674MOL0     O90863   3.200   5.706  10.706 -0.1639  0.0137  0.0148
  674MOL0     C90864   3.263   5.820  10.634 -0.9607 -0.4793  0.3997
  674MOL0     C90865   3.274   5.950  10.713 -1.2039 -1.1081 -0.3736
  674MOL0     C90866   3.162   6.043  10.691  0.1357 -0.4154 -0.4337
  674MOL0     C90867   3.180   6.170  10.772  0.7910 -0.1650 -0.1157
  674MOL0     C90868   3.179   6.151  10.920 -0.5467  0.3897  0.9909
  674MOL0     C90869   3.179   6.280  10.989 -0.8412 -0.5079 -0.7444
  674MOL0     C90870   3.203   6.267  11.142 -0.8785  0.1125  0.2516
  674MOL0     C90871   3.212   6.404  11.208 -0.3788 -0.2013 -0.5908
  674MOL0     N90872   3.330   6.483  11.173 -0.2837 -0.1271 -0.8344
  674MOL0     C90873   3.345   6.559  11.066  0.1944  0.1332 -0.2639
  674MOL0     C90874   3.474   6.588  11.074 -0.0271  0.1205 -0.4485
  674MOL0     C90875   3.552   6.656  10.965 -0.0214  0.5976  0.8513
  674MOL0     C90876   3.623   6.562  10.877 -0.8800  0.9748 -0.6793
  674MOL0     C90877   3.689   6.646  10.771 -0.6056 -0.1994  0.8029
  674MOL0     C90878   3.842   6.668  10.810 -0.2385  0.5050  0.0321
  674MOL0     O90879   3.901   6.763  10.715  0.2069 -0.6095 -0.0794
  674MOL0     C90880   3.960   6.868  10.770 -0.6876 -0.4528  0.1818
  674MOL0     C90881   3.883   6.970  10.828  1.1428  0.5459 -0.6891
  674MOL0     C90882   3.930   7.083  10.873 -0.6838 -0.0353 -0.1134
  674MOL0     C90883   3.833   7.190  10.926 -0.3403  0.0914 -0.8426
  674MOL0     C90884   4.073   7.097  10.865 -0.0056 -0.1577 -0.4117
  674MOL0     C90885   4.139   7.224  10.917 -0.0651  0.9393  0.2334
  674MOL0     O90886   4.271   7.232  10.893  0.1506  0.2521 -0.3449
  674MOL0     C90887   4.340   7.326  10.962  0.2886 -0.1804  0.1987
  674MOL0     C90888   4.338   7.335  11.106  0.7221 -0.3792  0.2301
  674MOL0     C90889   4.407   7.434  11.175 -0.2575 -0.3987 -0.1314
  674MOL0     C90890   4.481   7.530  11.108 -0.1954 -0.3590  0.3022
  674MOL0     O90891   4.547   7.631  11.178 -0.6036 -1.2715  0.5124
  674MOL0     C90892   4.631   7.725  11.108  0.4885  0.2586 -0.0346
  674MOL0     C90893   4.739   7.774  11.199 -0.0095 -0.2842 -0.0445
  674MOL0     C90894   4.858   7.843  11.133  0.0623  0.1433 -0.0980
  674MOL0     C90895   4.821   7.982  11.069  0.7482 -0.2609  0.6774
  674MOL0     C90896   4.943   8.040  10.988 -0.3858  0.1499  0.1349
  674MOL0     C90897   4.913   8.177  10.926 -1.2420  0.9097  0.3439
  674MOL0     C90898   5.035   8.229  10.860 -0.0340  0.4446  0.2720
  674MOL0     C90899   5.026   8.386  10.840 -0.3409  0.8859 -0.7756
  674MOL0    Cl90900   4.849   8.446  10.818 -0.0696  0.2166 -0.3543
  674MOL0     C90901   4.479   7.519  10.968 -0.0022  0.8574 -0.4865
  674MOL0     C90902   4.417   7.420  10.895 -0.4607  0.5485 -0.7610
  674MOL0     O90903   4.079   7.287  11.001 -0.3190 -0.1254  0.1154
  674MOL0     C90904   4.156   6.992  10.821 -1.3711 -0.0796 -0.8810
  674MOL0     C90905   4.098   6.882  10.756 -0.8985 -0.4948  1.4420
  674MOL0     N90906   3.529   6.550  11.192  0.1435 -0.4190 -0.0347
  674MOL0     N90907   3.437   6.492  11.252 -0.0440  0.5318 -0.4849
  674MOL0     C90908   3.231   5.478  10.703 -0.3037  0.4639  0.8464
  674MOL0     C90909   3.256   5.362  10.632  1.4337  0.1877 -0.7730
  674MOL0     C90910   3.336   5.006  10.358  0.2286 -0.4946  1.0618
  674MOL0     C90911   3.415   5.053  10.252 -0.1067  0.3611 -0.1901
  674MOL0     C90912   3.496   4.966  10.173 -1.1728  0.8235 -0.8613
  674MOL0     C90913   3.484   4.826  10.195  0.0809  0.8696 -0.2816
  674MOL0     O90914   3.545   4.753  10.095  0.2868 -0.2723 -0.3544
  674MOL0     C90915   3.460   4.637  10.047 -0.2956  0.2575  1.1002
  674MOL0     C90916   3.331   4.684   9.972 -0.6145  0.4680 -0.0355
  674MOL0     C90917   3.358   4.788   9.856 -0.0306  0.3273  0.2552
  674MOL0     C90918   3.231   4.803   9.769 -0.4402  0.0201 -0.3779
  674MOL0     C90919   3.277   4.858   9.644 -0.1565  0.7447  0.4798
  674MOL0     C90920   3.301   4.919   9.541 -0.0072  0.3108 -0.2597
  674MOL0     C90921   3.406   4.766  10.297  0.9277 -0.2073  0.2667
  674MOL0     C90922   3.326   4.864  10.372  0.5228  0.7220  0.3720
  674MOL0     H90923   3.208   5.452  10.318 -0.0853 -1.3449 -0.5642
  674MOL0     H90924   3.154   5.662  10.431 -2.1578  0.1607  1.3883
  674MOL0     H90925   3.368   5.794  10.618 -0.3012  0.6270  2.5873
  674MOL0     H90926   3.218   5.836  10.535  0.2425 -1.0423 -0.2703
  674MOL0     H90927   3.270   5.928  10.820 -0.1994  1.5771  0.2960
  674MOL0     H90928   3.363   6.006  10.680 -2.6273 -0.9879 -4.6142
  674MOL0     H90929   3.162   6.071  10.585  0.6788  0.4498 -0.2225
  674MOL0     H90930   3.069   5.990  10.712  0.2910 -0.5521 -0.0768
  674MOL0     H90931   3.264   6.237  10.750 -2.2136  4.2569  0.5380
  674MOL0     H90932   3.087   6.222  10.748  0.0970 -1.0316  0.6617
  674MOL0     H90933   3.085   6.097  10.940 -0.2942 -0.5919 -0.3515
  674MOL0     H90934   3.259   6.083  10.950 -0.6750 -0.7356 -1.0640
  674MOL0     H90935   3.253   6.346  10.944  2.0100 -3.0886 -0.1623
  674MOL0     H90936   3.076   6.315  10.978 -0.7134  0.1160 -0.1047
  674MOL0     H90937   3.132   6.198  11.187 -0.6089 -0.0419  0.4412
  674MOL0     H90938   3.293   6.206  11.150 -1.4075 -1.1683 -2.4162
  674MOL0     H90939   3.235   6.396  11.315 -0.0500 -0.6091 -0.6865
  674MOL0     H90940   3.120   6.456  11.182 -1.0015 -1.5116 -1.1254
  674MOL0     H90941   3.283   6.574  10.979  1.7934  0.1618 -1.4534
  674MOL0     H90942   3.484   6.717  10.905 -3.4593 -2.8518  0.8826
  674MOL0     H90943   3.618   6.724  11.021 -3.3680  2.2800  3.0604
  674MOL0     H90944   3.551   6.497  10.827  0.8606 -0.1777 -1.8413
  674MOL0     H90945   3.691   6.497  10.933 -0.6574  2.1839  0.5096
  674MOL0     H90946   3.639   6.740  10.747  0.7659  1.2640  3.2641
  674MOL0     H90947   3.687   6.576  10.687 -2.5983 -1.8946  2.1558
  674MOL0     H90948   3.901   6.576  10.807  0.8031  1.0003  2.5437
  674MOL0     H90949   3.864   6.697  10.913  3.9080 -0.2863 -0.4702
  674MOL0     H90950   3.775   6.963  10.844  1.4934  0.2713  1.9880
  674MOL0     H90951   3.830   7.184  11.035  1.5981  2.0425 -0.6173
  674MOL0     H90952   3.845   7.294  10.894  1.0750  0.8119  1.7100
  674MOL0     H90953   3.738   7.164  10.879 -0.4523 -2.6937  0.7443
  674MOL0     H90954   4.285   7.257  11.159 -1.9228  1.9664  1.3224
  674MOL0     H90955   4.408   7.431  11.284  0.8307 -1.3183 -0.1505
  674MOL0     H90956   4.678   7.683  11.019  1.1535 -0.2194  0.5249
  674MOL0     H90957   4.559   7.798  11.071  0.4882 -1.4953 -4.0543
  674MOL0     H90958   4.701   7.849  11.269 -0.3999  1.5080 -2.0673
  674MOL0     H90959   4.778   7.684  11.247  3.3660 -0.4680 -2.7652
  674MOL0     H90960   4.904   7.787  11.051  1.4657  0.1946  0.6371
  674MOL0     H90961   4.930   7.881  11.205  1.7797  0.5712 -1.9572
  674MOL0     H90962   4.737   7.979  10.999  0.4876  1.0149  0.9180
  674MOL0     H90963   4.794   8.050  11.150 -3.5323 -1.6137  0.6273
  674MOL0     H90964   4.969   7.976  10.904  0.1461  0.2469  0.2240
  674MOL0     H90965   5.028   8.048  11.056 -0.0379  2.3137 -0.4577
  674MOL0     H90966   4.833   8.168  10.851 -2.6895  0.1615  1.9176
  674MOL0     H90967   4.871   8.238  11.006  0.2576 -0.8658  2.6229
  674MOL0     H90968   5.050   8.170  10.770 -5.2258 -0.5361 -0.2443
  674MOL0     H90969   5.120   8.202  10.924 -0.2276 -1.0046 -0.0479
  674MOL0     H90970   5.086   8.402  10.750 -0.7056 -0.0943 -1.2131
  674MOL0     H90971   5.068   8.440  10.925 -1.3851  1.0326 -0.3415
  674MOL0     H90972   4.539   7.589  10.911  1.7420  1.4445  1.9229
  674MOL0     H90973   4.433   7.412  10.788  1.1928 -0.1604 -0.5010
  674MOL0     H90974   4.265   6.997  10.824 -1.4542  2.0843  0.3065
  674MOL0     H90975   4.162   6.799  10.726 -2.5033 -2.2617  2.6404
  674MOL0     H90976   3.254   5.468  10.809 -0.4695 -0.0426  0.8353
  674MOL0     H90977   3.293   5.276  10.687  0.6477  1.6043  2.1690
  674MOL0     H90978   3.409   5.157  10.222  1.3114  0.3405 -0.6243
  674MOL0     H90979   3.565   4.992  10.094  0.4871  0.6833  0.4983
  674MOL0     H90980   3.513   4.581   9.970 -0.6159  2.0551 -0.5144
  674MOL0     H90981   3.438   4.575  10.134  0.6912  0.6881  1.6748
  674MOL0     H90982   3.265   4.719  10.052  1.9070  1.1569  1.8822
  674MOL0     H90983   3.299   4.590   9.926  1.2791  0.5795 -1.6786
  674MOL0     H90984   3.448   4.764   9.799  1.7589  3.0833  1.6911
  674MOL0     H90985   3.379   4.878   9.916 -1.1454  0.5528  0.3227
  674MOL0     H90986   3.171   4.882   9.815  0.7512 -0.3024  1.8774
  674MOL0     H90987   3.165   4.717   9.762 -0.1642 -0.3948  1.5436
  674MOL0     H90988   3.310   4.983   9.455 -1.4814  0.0070 -0.6675
  674MOL0     H90989   3.392   4.660  10.315  1.1012 -0.4212 -0.7484
  674MOL0     H90990   3.264   4.822  10.451  0.7202  1.1454  0.7616
  675MOL0     O90991  11.233   4.311   8.032  0.4381 -0.0695  0.0904
  675MOL0     C90992  11.225   4.416   7.969 -0.2416 -0.2538 -0.4725
  675MOL0     O90993  11.236   4.541   8.029 -0.1735 -0.1490  0.2655
  675MOL0     C90994  11.294   4.545   8.152 -0.6795 -0.2506  0.6322
  675MOL0     C90995  11.429   4.501   8.167  0.2935 -1.2988  0.1780
  675MOL0     C90996  11.496   4.514   8.289 -0.5689 -1.1985  0.0622
  675MOL0     C90997  11.429   4.565   8.407 -0.0123  0.0744  0.0497
  675MOL0     O90998  11.506   4.572   8.518 -0.2230 -0.5354 -0.1693
  675MOL0     C90999  11.433   4.559   8.643 -0.4315  0.4264 -0.1358
  675MOL0     C91000  11.432   4.697   8.708 -0.4808  0.0949 -0.7528
  675MOL0     C91001  11.404   4.671   8.850 -0.4450 -0.3150 -0.5901
  675MOL0     C91002  11.368   4.788   8.947 -0.1777 -0.6079 -0.0581
  675MOL0     C91003  11.377   4.736   9.090 -0.2102  0.9555 -0.2144
  675MOL0     C91004  11.298   4.792   9.204  0.3548  0.7191 -0.2931
  675MOL0     C91005  11.317   4.936   9.231 -0.6013  0.0533  0.3507
  675MOL0     C91006  11.199   5.016   9.262 -0.1808  0.0541  0.1405
  675MOL0     N91007  11.161   4.998   9.397 -0.2700  0.6278  0.0649
  675MOL0     C91008  11.062   4.910   9.414 -0.2835  0.3723  0.5088
  675MOL0     C91009  11.031   4.927   9.545 -0.4266 -0.4392  0.4212
  675MOL0     C91010  10.932   4.853   9.631 -0.8090 -0.6105  0.4671
  675MOL0     C91011  10.859   4.734   9.571 -1.0346 -1.2013  0.6248
  675MOL0     C91012  10.732   4.783   9.493 -0.0723 -0.4661  0.8219
  675MOL0     C91013  10.680   4.673   9.399 -0.1999  0.8949  0.1577
  675MOL0     O91014  10.786   4.622   9.317 -0.3514 -0.3768  0.5972
  675MOL0     C91015  10.746   4.530   9.212  0.8601 -0.1230  0.7082
  675MOL0     C91016  10.607   4.519   9.169 -0.2428  0.6981 -0.0524
  675MOL0     C91017  10.563   4.435   9.061 -0.2981 -0.4469  0.2774
  675MOL0     C91018  10.420   4.433   9.023 -0.9816 -0.3979  0.5144
  675MOL0     C91019  10.663   4.353   8.992 -0.4800 -0.0972 -0.0685
  675MOL0     C91020  10.628   4.264   8.873  0.1410  0.1017  0.1595
  675MOL0     O91021  10.731   4.206   8.800  0.2198 -0.0902  0.2901
  675MOL0     C91022  10.711   4.149   8.675 -0.1483 -0.0345 -1.5153
  675MOL0     C91023  10.646   4.226   8.585  0.8967  0.1484 -0.0865
  675MOL0     C91024  10.620   4.178   8.463 -1.2838 -0.2859  1.6671
  675MOL0     C91025  10.653   4.049   8.420  0.7494  0.1988  0.0412
  675MOL0     O91026  10.624   4.013   8.286  0.0891  0.0184  0.7377
  675MOL0     C91027  10.647   3.872   8.253 -1.6559 -0.3939 -0.0921
  675MOL0     C91028  10.674   3.843   8.104 -0.7672 -0.9009  0.1399
  675MOL0     C91029  10.556   3.860   8.017 -0.5959 -0.1677 -0.1153
  675MOL0     C91030  10.584   3.834   7.871  0.7827  0.9283 -1.0752
  675MOL0     C91031  10.459   3.816   7.783  0.2586 -0.1984  0.1237
  675MOL0     C91032  10.493   3.782   7.640 -0.4558  0.3541 -0.3043
  675MOL0     C91033  10.394   3.832   7.536 -0.2314 -0.4691 -0.2662
  675MOL0     C91034  10.463   3.867   7.397  0.1447  1.0052 -0.1159
  675MOL0    Cl91035  10.533   3.711   7.335 -0.2787 -0.3386 -0.3803
  675MOL0     C91036  10.710   3.969   8.515  0.4214  0.7053  0.8362
  675MOL0     C91037  10.752   4.015   8.636 -0.6347 -0.4483 -0.2139
  675MOL0     O91038  10.505   4.241   8.857 -0.2295  0.8355 -0.5255
  675MOL0     C91039  10.798   4.366   9.031  0.3453  0.0252  0.6130
  675MOL0     C91040  10.833   4.455   9.142  0.9021 -1.1616 -0.1234
  675MOL0     N91041  11.122   5.022   9.600  1.0095  0.5179 -0.5186
  675MOL0     N91042  11.204   5.057   9.510 -0.2741 -0.7984  0.3767
  675MOL0     C91043  11.297   4.603   8.384 -0.3297 -0.6791 -0.2639
  675MOL0     C91044  11.234   4.603   8.261  0.0546 -1.0589  0.1698
  675MOL0     C91045  11.206   4.412   7.827 -1.1024 -0.7581  0.4088
  675MOL0     C91046  11.215   4.291   7.759  0.3828  0.0173 -0.4368
  675MOL0     C91047  11.190   4.282   7.621 -0.3131  0.9117  0.4432
  675MOL0     C91048  11.168   4.392   7.539 -0.0649 -0.6582  0.7733
  675MOL0     O91049  11.140   4.379   7.406  0.1149  0.3568  0.0708
  675MOL0     C91050  11.186   4.490   7.323 -0.7548 -1.2209 -0.1798
  675MOL0     C91051  11.185   4.454   7.179  0.8539 -0.2348  1.0795
  675MOL0     C91052  11.051   4.392   7.136  0.4023  0.3241  0.4317
  675MOL0     C91053  11.041   4.368   6.981  0.0436 -0.0368  0.1993
  675MOL0     C91054  10.965   4.479   6.920  0.4217 -0.2950  0.2111
  675MOL0     C91055  10.894   4.568   6.881 -0.4255  0.4780  0.1993
  675MOL0     C91056  11.155   4.516   7.607 -0.2534 -0.0324 -0.2597
  675MOL0     C91057  11.180   4.530   7.741  0.1587 -0.5026 -0.5245
  675MOL0     H91058  11.481   4.461   8.081  1.3624  1.7150 -0.6975
  675MOL0     H91059  11.598   4.484   8.307 -0.6557  0.3289  4.2075
  675MOL0     H91060  11.333   4.513   8.646 -0.1636 -0.3017  3.6471
  675MOL0     H91061  11.505   4.498   8.698  0.5125  0.7140 -1.0345
  675MOL0     H91062  11.525   4.753   8.692  0.0140 -0.6669 -0.6054
  675MOL0     H91063  11.351   4.752   8.659 -1.3803 -1.2172 -0.7785
  675MOL0     H91064  11.314   4.612   8.868  0.0132  0.0005  3.5794
  675MOL0     H91065  11.480   4.604   8.891 -1.8359 -0.5745  1.7518
  675MOL0     H91066  11.428   4.878   8.928 -1.6771  0.4036 -0.2297
  675MOL0     H91067  11.268   4.827   8.925  0.7683  1.5092 -0.9197
  675MOL0     H91068  11.355   4.629   9.087 -2.6957  1.4312 -1.1126
  675MOL0     H91069  11.478   4.746   9.130 -1.2879 -0.6769  3.4041
  675MOL0     H91070  11.191   4.780   9.184  0.4324  2.4553 -2.0885
  675MOL0     H91071  11.320   4.734   9.294 -3.3282  0.2819  0.4761
  675MOL0     H91072  11.386   4.938   9.316 -1.2937 -3.6242  1.1426
  675MOL0     H91073  11.366   4.975   9.141  0.9252 -0.8963  0.7424
  675MOL0     H91074  11.122   4.988   9.190 -0.8657  1.1274  0.4315
  675MOL0     H91075  11.238   5.117   9.242  0.6543 -0.1021  0.8654
  675MOL0     H91076  11.014   4.850   9.338 -0.2773  2.1232 -0.9451
  675MOL0     H91077  10.984   4.807   9.716  1.1283 -0.7626 -0.7375
  675MOL0     H91078  10.862   4.926   9.671  1.8078  2.8655 -0.8222
  675MOL0     H91079  10.824   4.671   9.653 -0.1864 -1.2268  0.9765
  675MOL0     H91080  10.928   4.674   9.511  1.1059  0.1606  1.6148
  675MOL0     H91081  10.753   4.880   9.446 -2.2687 -1.3643 -2.3996
  675MOL0     H91082  10.646   4.806   9.556 -1.6060 -0.0087 -1.2896
  675MOL0     H91083  10.611   4.726   9.332  0.0425  0.4036 -0.4885
  675MOL0     H91084  10.628   4.593   9.452  0.6797  1.2172  1.5555
  675MOL0     H91085  10.522   4.575   9.209  1.7076  4.4880 -0.7035
  675MOL0     H91086  10.406   4.451   8.916 -1.3551  1.4816  0.8430
  675MOL0     H91087  10.380   4.332   9.033 -0.4343 -0.5493  1.1695
  675MOL0     H91088  10.355   4.496   9.084 -2.6947 -1.4747 -0.1239
  675MOL0     H91089  10.632   4.328   8.621 -1.0425  0.1386 -0.6599
  675MOL0     H91090  10.572   4.245   8.393 -0.0501 -0.2146  0.8728
  675MOL0     H91091  10.742   3.841   8.297  0.0670 -0.0666 -3.3297
  675MOL0     H91092  10.567   3.806   8.289  0.2248 -1.4878  2.4702
  675MOL0     H91093  10.754   3.906   8.063  0.4467 -2.7047 -0.3772
  675MOL0     H91094  10.703   3.738   8.101 -4.5455 -2.1091  0.4836
  675MOL0     H91095  10.519   3.963   8.020  2.3815  1.0661 -1.7277
  675MOL0     H91096  10.475   3.792   8.048 -0.0349 -1.7263 -1.8522
  675MOL0     H91097  10.647   3.912   7.827  2.2252  1.2340  1.3375
  675MOL0     H91098  10.649   3.746   7.867  2.0055  1.6997  0.7049
  675MOL0     H91099  10.390   3.899   7.799 -0.4749 -0.2935 -2.1600
  675MOL0     H91100  10.402   3.728   7.816  0.4623 -2.0464 -3.7962
  675MOL0     H91101  10.593   3.823   7.620  0.4318 -0.1155  2.7561
  675MOL0     H91102  10.503   3.674   7.629  1.4200  0.0740  2.9169
  675MOL0     H91103  10.342   3.921   7.571  1.6795  0.9099 -0.7504
  675MOL0     H91104  10.325   3.748   7.526  0.2458 -1.3414  2.7397
  675MOL0     H91105  10.530   3.952   7.408  0.0558  1.0603  0.0049
  675MOL0     H91106  10.384   3.896   7.326 -1.2364  1.3186  1.5010
  675MOL0     H91107  10.719   3.861   8.516  1.4946  0.7418 -0.7521
  675MOL0     H91108  10.807   3.948   8.701  2.5486  0.2465 -1.9558
  675MOL0     H91109  10.875   4.308   8.981  1.0709 -0.5876  2.3318
  675MOL0     H91110  10.937   4.468   9.172  0.2316  2.4973  1.1325
  675MOL0     H91111  11.242   4.649   8.466 -0.9682  0.9549 -1.5613
  675MOL0     H91112  11.132   4.641   8.258  0.6703  0.6134 -0.7296
  675MOL0     H91113  11.209   4.196   7.812  1.2302 -0.1819 -0.6900
  675MOL0     H91114  11.186   4.179   7.586 -1.2746 -0.0341  3.0483
  675MOL0     H91115  11.113   4.571   7.337 -3.4381 -2.8004 -3.4812
  675MOL0     H91116  11.287   4.522   7.348 -0.0448  0.3882 -4.3946
  675MOL0     H91117  11.259   4.377   7.155 -1.0429 -2.0984  0.8498
  675MOL0     H91118  11.195   4.537   7.109 -2.8367 -0.0320  0.5834
  675MOL0     H91119  10.966   4.447   7.176  1.4527  2.1251  0.3158
  675MOL0     H91120  11.057   4.289   7.172  1.0300  0.0971 -0.2877
  675MOL0     H91121  10.986   4.277   6.955  1.1748 -0.7883  0.3936
  675MOL0     H91122  11.140   4.357   6.936 -0.4331 -5.1546 -0.2117
  675MOL0     H91123  10.834   4.652   6.850  0.6077  0.3905 -2.2440
  675MOL0     H91124  11.121   4.608   7.561 -0.5258  0.1303  0.2648
  675MOL0     H91125  11.184   4.629   7.785  4.0936 -0.7976  0.0808
  676MOL0     O91126  11.150   0.373   2.035  0.4657 -0.7044 -0.4901
  676MOL0     C91127  11.058   0.431   2.096  0.4683  0.5988  0.0995
  676MOL0     O91128  11.033   0.418   2.220  0.2648  0.2677  0.0160
  676MOL0     C91129  11.096   0.331   2.300 -0.6964  0.1295  0.4374
  676MOL0     C91130  11.108   0.193   2.268  1.0692  0.1310 -0.8958
  676MOL0     C91131  11.156   0.105   2.362  0.2360  0.6268 -0.4509
  676MOL0     C91132  11.212   0.154   2.478  0.3508  0.6480 -0.2055
  676MOL0     O91133  11.277   0.067   2.564 -0.6987 -0.5287 -0.2760
  676MOL0     C91134  11.412   0.094   2.601 -0.0607  0.4171 -0.4403
  676MOL0     C91135  11.482  -0.047   2.605  0.3429 -0.2188 -0.2364
  676MOL0     C91136  11.442  -0.165   2.516 -0.3290  0.8592 -0.4250
  676MOL0     C91137  11.553  -0.270   2.511  0.1970  0.1769 -0.1720
  676MOL0     C91138  11.521  -0.387   2.419  0.2082 -0.6709 -0.3583
  676MOL0     C91139  11.613  -0.508   2.415 -0.2528 -0.3227 -0.0698
  676MOL0     C91140  11.575  -0.597   2.310 -0.5887  0.3639  0.3687
  676MOL0     C91141  11.689  -0.689   2.267  0.2676 -0.8050 -0.5587
  676MOL0     N91142  11.636  -0.781   2.163 -0.2893  0.0328 -0.8067
  676MOL0     C91143  11.530  -0.861   2.192 -0.4804 -0.1381  0.3632
  676MOL0     C91144  11.509  -0.937   2.086 -0.6343 -0.2559 -0.8798
  676MOL0     C91145  11.402  -1.035   2.060  0.5585 -0.1004  0.4160
  676MOL0     C91146  11.265  -0.974   2.092  0.1227 -0.8915  0.0722
  676MOL0     C91147  11.145  -1.052   2.045  0.3921  0.3455  0.2479
  676MOL0     C91148  11.010  -1.006   2.096 -0.8396  0.2726  0.2901
  676MOL0     O91149  10.976  -0.871   2.059 -0.1270 -0.0782  0.1668
  676MOL0     C91150  10.846  -0.829   2.070  0.1677 -0.1593  0.0030
  676MOL0     C91151  10.736  -0.903   2.113  0.7287  0.8072 -0.4085
  676MOL0     C91152  10.602  -0.862   2.111  0.0410 -0.1519 -1.3023
  676MOL0     C91153  10.499  -0.972   2.156 -0.9727 -0.9606 -0.1277
  676MOL0     C91154  10.567  -0.736   2.072  0.3153 -0.3319 -0.5127
  676MOL0     C91155  10.438  -0.677   2.076  0.8620  0.3184  0.1128
  676MOL0     O91156  10.346  -0.721   2.170 -0.3363  0.3112 -0.2936
  676MOL0     C91157  10.221  -0.670   2.204 -0.7632  0.4443 -1.3383
  676MOL0     C91158  10.153  -0.752   2.308  0.7093  0.0987  0.0012
  676MOL0     C91159  10.021  -0.718   2.336 -0.0021  0.7920 -1.0103
  676MOL0     C91160   9.959  -0.609   2.281 -0.7592  1.1892 -0.3569
  676MOL0     O91161   9.835  -0.563   2.306 -0.8290  0.0351  0.8344
  676MOL0     C91162   9.720  -0.644   2.290  0.0151  0.2711 -0.0984
  676MOL0     C91163   9.685  -0.681   2.141  0.1323  0.7005 -0.4610
  676MOL0     C91164   9.696  -0.573   2.036  0.7164 -0.3185  0.1101
  676MOL0     C91165   9.597  -0.600   1.919 -0.1541 -0.1515 -0.7022
  676MOL0     C91166   9.576  -0.481   1.832 -0.6691 -0.2632 -0.4604
  676MOL0     C91167   9.713  -0.416   1.778  0.6580  0.0577 -1.1119
  676MOL0     C91168   9.712  -0.304   1.675  0.3284  0.4532  0.0001
  676MOL0     C91169   9.734  -0.344   1.529  0.1602  0.2095 -0.2048
  676MOL0    Cl91170   9.730  -0.199   1.427 -0.1231 -0.3051  0.2293
  676MOL0     C91171  10.023  -0.531   2.186 -0.5920  0.3162 -1.0053
  676MOL0     C91172  10.157  -0.557   2.157  0.2795 -0.4052  0.6361
  676MOL0     O91173  10.409  -0.596   2.000  0.0961  0.0572 -0.3686
  676MOL0     C91174  10.683  -0.659   2.036  1.0043  0.4276  0.7546
  676MOL0     C91175  10.814  -0.695   2.035  0.3816  0.9051 -0.4247
  676MOL0     N91176  11.599  -0.908   1.987 -0.1510  0.3856  0.8140
  676MOL0     N91177  11.678  -0.807   2.033  0.1490  0.4411  0.3158
  676MOL0     C91178  11.210   0.288   2.508  0.1106 -0.2937 -1.1647
  676MOL0     C91179  11.148   0.377   2.416 -0.3391 -0.3374 -0.3061
  676MOL0     C91180  10.982   0.529   2.019  0.6502  0.3728 -0.5972
  676MOL0     C91181  10.886   0.608   2.086 -0.6859 -0.5752  0.3407
  676MOL0     C91182  10.853   0.726   2.035  0.3744  0.3357  0.0762
  676MOL0     C91183  10.887   0.767   1.902 -0.3497  0.1953 -0.0257
  676MOL0     O91184  10.829   0.877   1.855 -0.2126  0.7954 -0.2483
  676MOL0     C91185  10.862   0.924   1.716  0.0255 -0.4635  0.5136
  676MOL0     C91186  10.775   1.037   1.675 -0.3090  0.4202 -0.5275
  676MOL0     C91187  10.764   1.041   1.521  0.5114 -0.6534 -0.1697
  676MOL0     C91188  10.721   1.173   1.457 -0.9992  0.5152  0.2343
  676MOL0     C91189  10.611   1.237   1.525 -0.5146 -0.4846 -0.4339
  676MOL0     C91190  10.517   1.287   1.592 -0.2418  0.8673 -0.5762
  676MOL0     C91191  10.975   0.687   1.832  1.8154 -0.0473 -1.1395
  676MOL0     C91192  11.026   0.571   1.892 -0.1605  0.3408  1.0651
  676MOL0     H91193  11.082   0.161   2.168  3.7352 -0.5953 -1.4386
  676MOL0     H91194  11.165  -0.002   2.351  3.5073  0.5817  1.5918
  676MOL0     H91195  11.458   0.167   2.534 -0.7255  0.8185 -0.4694
  676MOL0     H91196  11.417   0.127   2.705 -0.6181 -0.6145 -0.0753
  676MOL0     H91197  11.591  -0.037   2.612  0.0138  2.9828  2.5357
  676MOL0     H91198  11.476  -0.080   2.709  0.9222  0.4295  0.0128
  676MOL0     H91199  11.356  -0.210   2.567  1.0409  0.0244  1.2608
  676MOL0     H91200  11.418  -0.131   2.415 -3.8384 -2.5431 -0.9752
  676MOL0     H91201  11.643  -0.222   2.473  0.3050 -0.7846 -1.1975
  676MOL0     H91202  11.576  -0.305   2.612 -1.9947 -1.4725 -0.1645
  676MOL0     H91203  11.422  -0.427   2.443 -1.9896  3.1221 -2.1655
  676MOL0     H91204  11.508  -0.342   2.320 -2.0134 -0.6055 -0.0995
  676MOL0     H91205  11.716  -0.472   2.402 -0.5537  0.3196 -0.7624
  676MOL0     H91206  11.610  -0.558   2.512  1.4930  0.1683  0.2852
  676MOL0     H91207  11.495  -0.667   2.336  2.0537 -2.8285  0.6293
  676MOL0     H91208  11.536  -0.540   2.225 -0.8362  0.6710  0.6826
  676MOL0     H91209  11.720  -0.740   2.359 -0.3420  0.6808  0.5110
  676MOL0     H91210  11.773  -0.624   2.240  0.7678 -1.3888 -0.4380
  676MOL0     H91211  11.470  -0.866   2.282  0.5712  1.8889  1.2385
  676MOL0     H91212  11.398  -1.067   1.955  3.8060  0.6050 -0.0016
  676MOL0     H91213  11.409  -1.126   2.122 -0.2885  0.1180  0.8494
  676MOL0     H91214  11.254  -0.881   2.036  0.5023 -0.6477  0.4019
  676MOL0     H91215  11.258  -0.960   2.200 -3.5456  0.0529 -0.1554
  676MOL0     H91216  11.151  -1.158   2.071 -2.5567 -0.2130 -1.0035
  676MOL0     H91217  11.146  -1.049   1.935  2.2980  0.3987  0.2248
  676MOL0     H91218  11.021  -1.014   2.205  0.2814 -2.2077  0.0576
  676MOL0     H91219  10.933  -1.075   2.061 -4.9293  3.0865  2.7242
  676MOL0     H91220  10.743  -1.005   2.152  1.2703  1.4675  1.3039
  676MOL0     H91221  10.479  -1.051   2.083  0.1093 -2.4229  1.0852
  676MOL0     H91222  10.526  -1.023   2.249  0.5011  0.7991  0.4592
  676MOL0     H91223  10.399  -0.931   2.176 -0.3871  0.6288 -0.3202
  676MOL0     H91224  10.196  -0.835   2.362  0.9061  1.6870  2.4889
  676MOL0     H91225   9.964  -0.787   2.397  0.5441 -1.1509 -2.6163
  676MOL0     H91226   9.732  -0.731   2.355 -3.5513  0.2724  0.7509
  676MOL0     H91227   9.631  -0.593   2.328  0.4048  1.3870 -0.6295
  676MOL0     H91228   9.739  -0.771   2.112 -1.0707  0.4543 -2.0706
  676MOL0     H91229   9.579  -0.709   2.143  0.1655 -0.4006 -4.7375
  676MOL0     H91230   9.798  -0.545   2.009  0.8261 -0.1457  0.6845
  676MOL0     H91231   9.657  -0.480   2.079  2.3747  0.7457 -0.5648
  676MOL0     H91232   9.641  -0.684   1.865 -1.3913 -0.0586 -1.9261
  676MOL0     H91233   9.496  -0.624   1.953 -1.1968  1.3400 -2.5367
  676MOL0     H91234   9.527  -0.406   1.895  1.1779  1.4296 -0.9240
  676MOL0     H91235   9.510  -0.512   1.751 -2.1067 -0.8227  0.8694
  676MOL0     H91236   9.782  -0.382   1.855  0.9253  0.2825 -1.4476
  676MOL0     H91237   9.779  -0.491   1.735  2.4943  1.5494 -1.0099
  676MOL0     H91238   9.787  -0.227   1.694 -0.9140  2.2984 -2.0924
  676MOL0     H91239   9.616  -0.253   1.688 -0.2487 -0.5705 -0.1837
  676MOL0     H91240   9.658  -0.417   1.499  1.3574 -0.8507 -0.7162
  676MOL0     H91241   9.835  -0.385   1.528 -0.3814 -1.2457  0.8400
  676MOL0     H91242   9.969  -0.444   2.148 -2.3078  0.6079  1.8132
  676MOL0     H91243  10.205  -0.505   2.074 -2.9346  4.0930  1.2163
  676MOL0     H91244  10.667  -0.554   2.016  1.7192  0.3074 -0.5357
  676MOL0     H91245  10.898  -0.629   2.015 -0.4156  2.8724  2.1360
  676MOL0     H91246  11.261   0.317   2.599  2.2923 -0.8880 -2.1358
  676MOL0     H91247  11.122   0.480   2.438 -0.9122 -0.1419 -1.7750
  676MOL0     H91248  10.841   0.566   2.176  0.1525 -2.0310  0.1089
  676MOL0     H91249  10.794   0.790   2.099  0.8771  0.3440  0.5414
  676MOL0     H91250  10.966   0.956   1.711 -0.3203  0.8599  1.3934
  676MOL0     H91251  10.859   0.844   1.641  1.7358 -0.5425  0.4809
  676MOL0     H91252  10.807   1.136   1.709  0.8586  1.1545 -3.4567
  676MOL0     H91253  10.674   1.018   1.713  1.0613  0.0126  3.4357
  676MOL0     H91254  10.687   0.967   1.497 -1.6732  2.0128 -1.9658
  676MOL0     H91255  10.853   0.992   1.481 -0.1182 -2.0335  0.0649
  676MOL0     H91256  10.689   1.161   1.353 -1.7025  6.1172 -0.5313
  676MOL0     H91257  10.806   1.242   1.452  1.1917 -2.0073  0.4012
  676MOL0     H91258  10.439   1.332   1.651 -0.4497 -0.0190 -0.1453
  676MOL0     H91259  11.012   0.706   1.732  1.1317 -0.7627 -1.5382
  676MOL0     H91260  11.097   0.505   1.843 -2.0652 -1.0830  0.0961
  677MOL0     O91261   6.809   8.828  10.203  0.5971  0.4621 -0.6486
  677MOL0     C91262   6.704   8.826  10.145 -0.4142 -1.0076  0.4054
  677MOL0     O91263   6.684   8.878  10.022 -0.6305  0.0320  0.5746
  677MOL0     C91264   6.772   8.971   9.990 -0.3350  0.2776 -0.0343
  677MOL0     C91265   6.760   9.103  10.032 -0.4415 -0.2893 -0.0322
  677MOL0     C91266   6.854   9.202   9.986 -0.1523 -0.0847 -0.3912
  677MOL0     C91267   6.960   9.171   9.912 -0.3779  0.4264 -0.7697
  677MOL0     O91268   7.061   9.254   9.864 -0.2150 -0.0242 -0.2504
  677MOL0     C91269   7.006   9.351   9.783  0.2322 -0.3697 -0.2276
  677MOL0     C91270   7.120   9.447   9.740  0.2384  0.4403 -0.3483
  677MOL0     C91271   7.226   9.379   9.659 -0.1508 -0.4576  0.4127
  677MOL0     C91272   7.333   9.483   9.623 -0.1361  0.0572  0.7610
  677MOL0     C91273   7.454   9.472   9.726 -0.4685  0.3312 -0.1896
  677MOL0     C91274   7.551   9.592   9.742 -0.2125  0.2685 -0.6474
  677MOL0     C91275   7.587   9.654   9.601  0.1626  0.2202  0.4935
  677MOL0     C91276   7.531   9.799   9.588 -0.0210 -0.5253 -0.5755
  677MOL0     N91277   7.540   9.851   9.451 -0.4604  0.2728 -0.4605
  677MOL0     C91278   7.477   9.959   9.395 -0.2322  0.0055 -0.8346
  677MOL0     C91279   7.538   9.969   9.268 -0.0550  1.3171 -0.4322
  677MOL0     C91280   7.511  10.062   9.149 -0.0391  0.1289 -0.8104
  677MOL0     C91281   7.432  10.186   9.179 -0.3855 -0.1016 -0.0945
  677MOL0     C91282   7.380  10.257   9.051  0.1703  0.0926  0.5400
  677MOL0     C91283   7.236  10.319   9.060 -0.6485 -0.1656  0.5090
  677MOL0     O91284   7.234  10.416   9.167  0.1922 -0.1698 -1.0602
  677MOL0     C91285   7.277  10.542   9.142 -0.4547 -0.8862 -0.1414
  677MOL0     C91286   7.267  10.640   9.246  0.7188  0.1856  0.4735
  677MOL0     C91287   7.311  10.771   9.240 -0.3589 -0.4506  0.6803
  677MOL0     C91288   7.289  10.853   9.363 -0.0249  0.1446 -0.0745
  677MOL0     C91289   7.376  10.821   9.119  0.4473  0.4052 -0.3661
  677MOL0     C91290   7.456  10.951   9.105  0.1044  0.5923 -0.2034
  677MOL0     O91291   7.541  10.957   9.000 -0.4325  0.7890  0.1701
  677MOL0     C91292   7.590  11.071   8.944 -0.3075 -1.1473  0.9930
  677MOL0     C91293   7.539  11.205   8.962  0.1498  0.7048  0.1722
  677MOL0     C91294   7.583  11.323   8.891  0.7922  0.1366 -0.3723
  677MOL0     C91295   7.675  11.300   8.791  0.1558 -0.7056  0.3633
  677MOL0     O91296   7.733  11.401   8.715 -0.4048  0.6606 -1.3030
  677MOL0     C91297   7.749  11.530   8.764 -0.3952  0.4612  0.4374
  677MOL0     C91298   7.642  11.621   8.705  0.4128 -0.1282 -0.0059
  677MOL0     C91299   7.674  11.776   8.712  0.1129  0.4224 -0.3045
  677MOL0     C91300   7.764  11.814   8.590  0.5069 -0.5486 -0.6800
  677MOL0     C91301   7.838  11.949   8.612 -0.1586  0.6705  0.4095
  677MOL0     C91302   7.946  11.962   8.507  0.1237  0.7088  0.8630
  677MOL0     C91303   7.879  11.974   8.360 -0.4678  0.5134 -0.2011
  677MOL0     C91304   7.976  12.011   8.243  0.4549  1.4253  0.2901
  677MOL0    Cl91305   8.031  12.182   8.252  0.0954 -0.1398 -0.1202
  677MOL0     C91306   7.722  11.169   8.768 -0.6189 -0.5346  0.6955
  677MOL0     C91307   7.672  11.061   8.842  0.5772  0.1192 -0.6252
  677MOL0     O91308   7.443  11.039   9.187  0.1566  0.3991 -0.2357
  677MOL0     C91309   7.348  10.732   9.008 -0.4695 -0.4859 -0.4516
  677MOL0     C91310   7.312  10.602   9.020 -0.0496  0.1599 -0.3039
  677MOL0     N91311   7.627   9.861   9.253  0.3578 -0.5907  0.9620
  677MOL0     N91312   7.631   9.799   9.358  0.3859 -0.0872  0.0110
  677MOL0     C91313   6.984   9.041   9.875  0.4704  0.6447 -0.1645
  677MOL0     C91314   6.890   8.938   9.915 -0.1373  0.0334  0.3256
  677MOL0     C91315   6.596   8.739  10.193 -0.5922 -0.0537  0.4995
  677MOL0     C91316   6.490   8.709  10.106  0.3419  0.3622  0.3229
  677MOL0     C91317   6.381   8.620  10.140  0.2369 -0.3478 -0.1786
  677MOL0     C91318   6.383   8.543  10.255 -0.3376 -0.6662  0.2329
  677MOL0     O91319   6.288   8.457  10.279  0.4225  0.0007 -1.1821
  677MOL0     C91320   6.275   8.367  10.177  0.0636  0.6087 -0.0790
  677MOL0     C91321   6.248   8.232  10.257  0.7864 -0.2108 -0.4408
  677MOL0     C91322   6.311   8.113  10.186 -0.6876  0.3595 -0.2797
  677MOL0     C91323   6.288   7.980  10.267  1.3297 -0.5557 -0.2946
  677MOL0     C91324   6.392   7.962  10.364 -0.5613  0.5107 -0.3758
  677MOL0     C91325   6.471   7.958  10.459 -0.4014  0.1828  0.3989
  677MOL0     C91326   6.487   8.576  10.349 -0.1379 -0.8977 -0.3629
  677MOL0     C91327   6.595   8.666  10.315  0.2708 -0.2332  0.2659
  677MOL0     H91328   6.670   9.137  10.081 -2.2239  2.4518 -4.5440
  677MOL0     H91329   6.829   9.304  10.016  2.7694  0.7258 -0.4332
  677MOL0     H91330   6.973   9.322   9.683 -0.2432 -1.9474  0.3513
  677MOL0     H91331   6.920   9.396   9.832  0.0375 -2.8930  1.9588
  677MOL0     H91332   7.079   9.529   9.680 -2.1578 -0.2623  0.2485
  677MOL0     H91333   7.154   9.474   9.840  0.9880 -1.4735 -0.0390
  677MOL0     H91334   7.274   9.291   9.703  1.8820  0.1216 -0.5161
  677MOL0     H91335   7.175   9.350   9.567  0.8475  0.7020 -0.5412
  677MOL0     H91336   7.371   9.471   9.522 -1.0152  0.8297  0.3273
  677MOL0     H91337   7.295   9.585   9.618  1.2359  0.7063  2.4300
  677MOL0     H91338   7.417   9.452   9.827 -1.1621 -0.4251 -0.5711
  677MOL0     H91339   7.513   9.382   9.704  1.0458  0.3730  3.1125
  677MOL0     H91340   7.493   9.673   9.788 -0.6123  0.0464 -0.7594
  677MOL0     H91341   7.641   9.571   9.800  0.4937 -0.3053 -1.9075
  677MOL0     H91342   7.694   9.656   9.578 -0.1151  0.3754 -0.8541
  677MOL0     H91343   7.561   9.583   9.523 -0.4323  1.5496 -0.5661
  677MOL0     H91344   7.594   9.872   9.639 -1.8316  2.2427 -2.0767
  677MOL0     H91345   7.434   9.800   9.640  1.9734  2.6907  3.7359
  677MOL0     H91346   7.410  10.029   9.445  0.4386 -1.0850  1.7886
  677MOL0     H91347   7.602  10.101   9.102  0.3183  0.3075  0.0126
  677MOL0     H91348   7.456  10.009   9.071 -1.7771  1.3677 -0.4926
  677MOL0     H91349   7.488  10.253   9.244 -1.8466  0.0475  1.0795
  677MOL0     H91350   7.348  10.156   9.243  0.4190  0.6300  1.3454
  677MOL0     H91351   7.379  10.176   8.977  2.9163 -0.9169  1.4822
  677MOL0     H91352   7.454  10.332   9.024  2.8803 -2.1924  1.1729
  677MOL0     H91353   7.165  10.239   9.083  0.3174 -0.4608  2.7703
  677MOL0     H91354   7.198  10.363   8.968 -3.3264  0.7617  1.9774
  677MOL0     H91355   7.215  10.606   9.336  0.2439  3.3874  1.5574
  677MOL0     H91356   7.217  10.934   9.347 -0.3279 -0.0046  0.5486
  677MOL0     H91357   7.241  10.805   9.448  0.7461  1.5996  1.2384
  677MOL0     H91358   7.386  10.899   9.385  0.1569  0.5436 -1.5322
  677MOL0     H91359   7.464  11.233   9.036 -3.0253 -0.0969 -2.5129
  677MOL0     H91360   7.540  11.422   8.905  0.1554  0.0089 -1.2663
  677MOL0     H91361   7.734  11.529   8.872 -2.3660 -1.9604  0.2247
  677MOL0     H91362   7.847  11.573   8.743 -0.4705 -0.1296 -1.3355
  677MOL0     H91363   7.616  11.595   8.602 -2.6421 -0.2589  0.7069
  677MOL0     H91364   7.553  11.605   8.767 -0.6151  2.4588 -0.6699
  677MOL0     H91365   7.725  11.794   8.807 -2.2108  1.3859  0.8250
  677MOL0     H91366   7.588  11.844   8.707  0.9445  1.4383 -2.2204
  677MOL0     H91367   7.840  11.735   8.588 -0.8783 -1.9336 -1.6880
  677MOL0     H91368   7.699  11.803   8.503 -3.3436 -0.8833  1.9478
  677MOL0     H91369   7.873  11.971   8.713  0.2011  2.1841 -0.0102
  677MOL0     H91370   7.768  12.030   8.594  0.6689  1.0591 -1.3042
  677MOL0     H91371   7.995  12.057   8.530  0.8511  0.3150  0.9541
  677MOL0     H91372   8.028  11.890   8.511  0.4803  1.1531  1.7224
  677MOL0     H91373   7.795  12.044   8.356 -4.4475 -3.6365  1.8069
  677MOL0     H91374   7.835  11.876   8.338  1.1024 -0.5622  1.1966
  677MOL0     H91375   7.922  11.998   8.148  0.0424  1.1781  0.5575
  677MOL0     H91376   8.058  11.939   8.238 -0.7469  0.0696 -1.2828
  677MOL0     H91377   7.805  11.163   8.699 -1.9448  2.7096 -1.4145
  677MOL0     H91378   7.695  10.956   8.828  0.8695 -0.0805  1.1724
  677MOL0     H91379   7.383  10.770   8.913 -2.6416  1.2224 -0.6666
  677MOL0     H91380   7.303  10.538   8.932 -0.5375 -0.8989  0.4986
  677MOL0     H91381   7.079   9.008   9.833  0.9753 -2.1523  2.7856
  677MOL0     H91382   6.907   8.831   9.908 -3.4793 -0.5674 -0.2433
  677MOL0     H91383   6.468   8.775  10.022 -0.8928 -2.3214 -1.6374
  677MOL0     H91384   6.292   8.608  10.079 -1.2256 -0.9261  1.9870
  677MOL0     H91385   6.192   8.392  10.110  0.6218 -3.0384 -2.4025
  677MOL0     H91386   6.368   8.360  10.121  0.1553 -2.1860  0.2921
  677MOL0     H91387   6.139   8.222  10.265  0.8041  0.5175  0.9884
  677MOL0     H91388   6.294   8.251  10.354  0.5439  6.0546 -1.0867
  677MOL0     H91389   6.419   8.125  10.169 -0.4279  0.1917  1.1545
  677MOL0     H91390   6.272   8.101  10.085  0.4064 -0.7740 -0.6062
  677MOL0     H91391   6.279   7.888  10.208 -1.1317 -0.0357 -0.8347
  677MOL0     H91392   6.192   7.995  10.317  0.5010 -1.1081 -1.6809
  677MOL0     H91393   6.524   7.945  10.551 -2.1502  1.2669  1.6253
  677MOL0     H91394   6.483   8.513  10.437 -0.6301  0.3851  0.5565
  677MOL0     H91395   6.679   8.667  10.382 -0.8301 -1.6635  1.7416
  678MOL0     O91396   3.894   8.719  11.255 -0.2235 -0.5864  0.1690
  678MOL0     C91397   3.952   8.626  11.318  0.7510  0.3995  0.6547
  678MOL0     O91398   4.075   8.643  11.363 -0.2248  0.0622 -0.5163
  678MOL0     C91399   4.154   8.747  11.353  0.4327 -0.7822 -0.1319
  678MOL0     C91400   4.256   8.745  11.446  0.3484 -0.4032 -1.2379
  678MOL0     C91401   4.354   8.842  11.444  0.2127 -0.4462  0.5536
  678MOL0     C91402   4.352   8.935  11.346 -0.9334 -0.0674 -0.4719
  678MOL0     O91403   4.442   9.035  11.360  0.5153  0.4499  0.2969
  678MOL0     C91404   4.441   9.151  11.273 -0.1999  0.6538  0.2775
  678MOL0     C91405   4.547   9.246  11.325  0.2682 -0.6574 -0.6597
  678MOL0     C91406   4.597   9.347  11.226 -0.1899  0.3445  0.5107
  678MOL0     C91407   4.674   9.467  11.276 -0.4457  0.0226 -0.8554
  678MOL0     C91408   4.579   9.577  11.309 -0.9067 -0.3453 -1.1148
  678MOL0     C91409   4.657   9.700  11.366  0.4205 -0.4472  0.1024
  678MOL0     C91410   4.564   9.810  11.387 -0.4444 -1.2497  0.7736
  678MOL0     C91411   4.643   9.937  11.443 -0.2934 -0.3452 -0.5975
  678MOL0     N91412   4.542  10.027  11.497  0.0699  0.0303 -0.6124
  678MOL0     C91413   4.469   9.998  11.611 -0.5083  0.0840  0.0464
  678MOL0     C91414   4.358  10.076  11.608 -0.2854 -0.6844  0.3762
  678MOL0     C91415   4.254  10.079  11.713 -0.2569  0.0203 -0.2516
  678MOL0     C91416   4.195  10.216  11.739  0.5543 -0.7935 -0.5353
  678MOL0     C91417   4.129  10.270  11.610 -0.0792 -0.3622 -1.2035
  678MOL0     C91418   4.043  10.394  11.647  0.3038 -0.0229  0.9476
  678MOL0     O91419   4.018  10.443  11.510 -0.6370  0.5199  0.0015
  678MOL0     C91420   3.902  10.416  11.450 -0.1464 -0.5669  0.2619
  678MOL0     C91421   3.800  10.321  11.484 -1.0459  0.0394  0.6633
  678MOL0     C91422   3.681  10.309  11.407 -0.4321  0.1635 -0.8557
  678MOL0     C91423   3.579  10.208  11.459  1.1613  0.4901  0.0020
  678MOL0     C91424   3.663  10.396  11.301 -0.0950  0.0986  0.3225
  678MOL0     C91425   3.538  10.402  11.233  1.3293 -1.1208  0.9768
  678MOL0     O91426   3.450  10.509  11.255 -0.4677  0.4340  0.1481
  678MOL0     C91427   3.477  10.620  11.338  0.0278 -0.6421  0.1623
  678MOL0     C91428   3.484  10.615  11.478  0.2088  0.6282 -0.5361
  678MOL0     C91429   3.520  10.725  11.550  0.9123  0.0775  1.2002
  678MOL0     C91430   3.511  10.852  11.489  0.3252  1.3884  0.1767
  678MOL0     O91431   3.531  10.957  11.574 -0.2989  0.0340 -0.5581
  678MOL0     C91432   3.442  11.076  11.558 -0.9453  0.0571  0.2814
  678MOL0     C91433   3.547  11.197  11.580 -0.0072  0.6032  0.2971
  678MOL0     C91434   3.474  11.338  11.581 -0.8792  1.0865  0.0900
  678MOL0     C91435   3.497  11.403  11.719 -0.6652  0.4528 -0.2270
  678MOL0     C91436   3.425  11.534  11.749 -0.1435  0.2034  0.4987
  678MOL0     C91437   3.490  11.661  11.695  0.3344 -0.7164 -0.1852
  678MOL0     C91438   3.614  11.701  11.763 -0.3821  0.0695  0.3203
  678MOL0     C91439   3.598  11.775  11.907  0.5827 -0.1066  0.8318
  678MOL0    Cl91440   3.467  11.905  11.894 -0.0701 -0.1640  0.7320
  678MOL0     C91441   3.500  10.863  11.352 -0.0634 -0.1490  0.3947
  678MOL0     C91442   3.481  10.748  11.277  0.1300  0.8119  0.0071
  678MOL0     O91443   3.510  10.308  11.158 -0.5894 -0.0720 -0.2296
  678MOL0     C91444   3.766  10.490  11.263 -0.1183 -0.2111  0.7500
  678MOL0     C91445   3.871  10.507  11.344 -0.5410  0.0550 -0.2773
  678MOL0     N91446   4.371  10.150  11.487 -0.1364 -0.1571 -0.1211
  678MOL0     N91447   4.473  10.121  11.418  0.5579 -0.3654  0.4382
  678MOL0     C91448   4.248   8.949  11.251 -0.9172  0.0178 -0.1896
  678MOL0     C91449   4.150   8.851  11.253  0.5368  0.2206  0.1726
  678MOL0     C91450   3.897   8.484  11.328 -0.1022 -0.4646  0.7711
  678MOL0     C91451   3.764   8.457  11.301 -0.5691  0.3231 -0.7096
  678MOL0     C91452   3.707   8.329  11.309  0.0582 -0.2256 -0.3137
  678MOL0     C91453   3.789   8.217  11.345  0.2939 -0.2448 -0.0600
  678MOL0     O91454   3.730   8.090  11.348 -0.9315  0.3097 -0.1175
  678MOL0     C91455   3.810   7.989  11.416 -0.7636  0.2641 -0.8595
  678MOL0     C91456   3.723   7.868  11.445 -0.6124  0.1737 -0.7352
  678MOL0     C91457   3.610   7.897  11.545  0.5029 -0.0756  0.7043
  678MOL0     C91458   3.518   7.765  11.567 -0.6940  0.1966 -0.5577
  678MOL0     C91459   3.464   7.696  11.450  0.3900 -0.8174  0.4425
  678MOL0     C91460   3.418   7.629  11.352 -0.4710 -0.4223  0.1396
  678MOL0     C91461   3.926   8.247  11.370  0.2783  0.0635  1.4464
  678MOL0     C91462   3.981   8.373  11.352  0.3057  0.2465  0.2092
  678MOL0     H91463   4.270   8.660  11.512  3.4416 -1.5794 -3.1622
  678MOL0     H91464   4.439   8.829  11.510  0.4777  0.0713  0.3214
  678MOL0     H91465   4.472   9.115  11.174  0.7292 -0.1997  0.8601
  678MOL0     H91466   4.339   9.191  11.272  0.0373  1.2823 -1.1278
  678MOL0     H91467   4.506   9.299  11.412  3.1515 -2.2562  1.8843
  678MOL0     H91468   4.628   9.190  11.373 -1.1088 -1.5757  0.6955
  678MOL0     H91469   4.666   9.285  11.169 -0.4819  0.4011  0.0878
  678MOL0     H91470   4.516   9.376  11.158 -0.8600 -0.8881  0.7630
  678MOL0     H91471   4.729   9.455  11.370  0.9756  1.2733 -1.4855
  678MOL0     H91472   4.732   9.511  11.194 -0.2367  0.1460 -0.6427
  678MOL0     H91473   4.528   9.614  11.219 -1.2302 -1.8790 -1.5815
  678MOL0     H91474   4.504   9.554  11.385  0.1016  0.4048  0.1502
  678MOL0     H91475   4.711   9.677  11.458  0.3020 -0.0691  0.2693
  678MOL0     H91476   4.725   9.742  11.290 -1.0654  2.4005  0.1977
  678MOL0     H91477   4.525   9.845  11.291  2.3594  1.0097  0.3375
  678MOL0     H91478   4.480   9.777  11.449  2.3779 -3.1855  3.9593
  678MOL0     H91479   4.708   9.985  11.369  1.1654 -1.1027  0.1504
  678MOL0     H91480   4.708   9.898  11.522  1.5938 -0.5261 -2.1655
  678MOL0     H91481   4.498   9.924  11.684 -0.4156 -0.0888 -0.1634
  678MOL0     H91482   4.178  10.007  11.681  1.3959 -2.0758  0.2622
  678MOL0     H91483   4.300  10.045  11.807 -0.5963  0.5113  0.0965
  678MOL0     H91484   4.271  10.291  11.760 -0.0657  0.0929 -1.3542
  678MOL0     H91485   4.121  10.226  11.819  0.1087 -2.9769 -0.6070
  678MOL0     H91486   4.077  10.196  11.550 -1.7402  1.2327 -1.8333
  678MOL0     H91487   4.217  10.308  11.557  2.5711 -2.4721  1.3421
  678MOL0     H91488   4.104  10.458  11.711  1.8360 -0.8334  0.3491
  678MOL0     H91489   3.952  10.380  11.705  0.2931 -0.4105  0.8400
  678MOL0     H91490   3.815  10.255  11.569  2.5104 -0.3367 -0.1032
  678MOL0     H91491   3.535  10.237  11.554 -0.4262  1.4452 -0.9716
  678MOL0     H91492   3.490  10.209  11.395 -1.6819 -1.8412  3.5559
  678MOL0     H91493   3.618  10.106  11.453  0.1933  0.0910  0.4032
  678MOL0     H91494   3.461  10.521  11.528  2.1535 -0.2227 -1.1467
  678MOL0     H91495   3.541  10.728  11.657 -1.5821 -0.3638  1.7686
  678MOL0     H91496   3.416  11.094  11.453  1.4278  4.9861  0.2053
  678MOL0     H91497   3.358  11.069  11.628 -1.4740 -2.0875 -0.4897
  678MOL0     H91498   3.612  11.178  11.666  2.9705 -3.1802 -2.4263
  678MOL0     H91499   3.616  11.200  11.496  1.3624  0.6817  1.3951
  678MOL0     H91500   3.366  11.329  11.561 -0.9145 -0.3287  0.8295
  678MOL0     H91501   3.513  11.407  11.506 -0.7721  1.6293  0.6319
  678MOL0     H91502   3.475  11.341  11.806 -2.8592 -0.6358 -1.4692
  678MOL0     H91503   3.605  11.418  11.714  0.3844 -2.0883  5.8250
  678MOL0     H91504   3.402  11.545  11.855 -1.5085  2.3442  0.0338
  678MOL0     H91505   3.324  11.536  11.705  0.7800  0.3440 -1.7492
  678MOL0     H91506   3.503  11.652  11.587  0.0887 -0.8823 -0.2017
  678MOL0     H91507   3.430  11.752  11.702 -0.8148 -1.5575  4.4864
  678MOL0     H91508   3.661  11.780  11.704 -0.3582 -0.0212  0.2186
  678MOL0     H91509   3.683  11.616  11.760 -1.9311 -1.2005 -1.6040
  678MOL0     H91510   3.694  11.810  11.945  1.8858 -1.3367 -1.1427
  678MOL0     H91511   3.560  11.698  11.975 -1.4325  2.3402  2.6774
  678MOL0     H91512   3.492  10.957  11.298 -0.4425 -0.6565 -0.4414
  678MOL0     H91513   3.464  10.756  11.170  0.8708 -0.9896 -0.2946
  678MOL0     H91514   3.752  10.578  11.201 -1.2605  1.8529  3.7105
  678MOL0     H91515   3.941  10.588  11.325 -0.3250 -0.0224  0.1902
  678MOL0     H91516   4.252   9.027  11.176  1.3309  1.6188  1.4399
  678MOL0     H91517   4.077   8.854  11.173  1.3092  0.8771 -0.5218
  678MOL0     H91518   3.696   8.541  11.292 -1.1635  0.3281  2.7633
  678MOL0     H91519   3.603   8.317  11.280 -0.3033 -2.1191  1.4671
  678MOL0     H91520   3.901   7.960  11.363  1.4809  3.4516  0.9339
  678MOL0     H91521   3.839   8.044  11.506 -1.0052  2.6734 -2.1580
  678MOL0     H91522   3.787   7.789  11.485 -0.7034 -0.6515 -2.1421
  678MOL0     H91523   3.693   7.822  11.350  1.3059 -1.7424 -0.4906
  678MOL0     H91524   3.531   7.965  11.510 -0.1364 -1.6089 -0.9937
  678MOL0     H91525   3.652   7.941  11.635 -0.7349  3.7318 -0.3890
  678MOL0     H91526   3.436   7.803  11.628 -2.1589  0.5211 -2.6025
  678MOL0     H91527   3.559   7.691  11.635 -0.9811 -0.4015 -1.0296
  678MOL0     H91528   3.376   7.564  11.278  0.7102 -1.0695  0.0265
  678MOL0     H91529   4.002   8.170  11.377  3.2706  2.6351 -0.2095
  678MOL0     H91530   4.086   8.401  11.358  0.1075  0.7930  1.4666
  679MOL0     O91531   6.176   3.700   1.315  0.2744 -1.4140  0.7064
  679MOL0     C91532   6.169   3.821   1.310 -0.6511 -0.6174  0.1301
  679MOL0     O91533   6.099   3.887   1.207  0.1938 -0.0008  0.0888
  679MOL0     C91534   6.074   3.823   1.086 -0.0878 -0.9223 -0.8440
  679MOL0     C91535   6.181   3.790   0.998  1.0206 -1.1746  0.1836
  679MOL0     C91536   6.151   3.721   0.874 -0.4974  0.5666  0.6018
  679MOL0     C91537   6.022   3.692   0.831 -0.9495 -0.2483  0.4738
  679MOL0     O91538   5.982   3.636   0.714 -0.7956  0.5537 -0.4019
  679MOL0     C91539   5.996   3.721   0.602 -0.4590  0.6445 -0.4110
  679MOL0     C91540   6.002   3.627   0.482 -0.6207 -0.5187  0.8023
  679MOL0     C91541   6.030   3.713   0.356 -0.6422  0.5855  0.1945
  679MOL0     C91542   6.180   3.764   0.349 -0.4044 -0.6462 -0.0872
  679MOL0     C91543   6.212   3.842   0.215 -0.5222  0.7726 -0.9170
  679MOL0     C91544   6.193   3.748   0.094  0.1265  0.1320  0.6096
  679MOL0     C91545   6.215   3.823  -0.038 -0.1690  1.0672  0.7648
  679MOL0     C91546   6.090   3.814  -0.114  0.2573  0.0712  0.2981
  679MOL0     N91547   6.100   3.880  -0.250 -0.0831 -0.4001 -0.2643
  679MOL0     C91548   6.118   3.810  -0.364 -0.9480  0.3580  0.3210
  679MOL0     C91549   6.161   3.903  -0.453 -0.0395 -0.2943  0.1494
  679MOL0     C91550   6.230   3.866  -0.577 -0.2618  0.1717  0.2025
  679MOL0     C91551   6.168   3.757  -0.660 -0.6132 -0.6549  0.1847
  679MOL0     C91552   6.249   3.751  -0.794 -1.1394 -0.5607 -1.0383
  679MOL0     C91553   6.233   3.623  -0.879 -0.6307 -0.2596  0.0716
  679MOL0     O91554   6.105   3.581  -0.921 -0.4403  0.3263 -0.0255
  679MOL0     C91555   6.095   3.485  -1.022  0.5624 -0.1124  0.0483
  679MOL0     C91556   5.985   3.496  -1.114  0.2595  0.2760  0.4561
  679MOL0     C91557   5.967   3.412  -1.227  0.2505 -0.0874 -0.4547
  679MOL0     C91558   5.852   3.426  -1.315 -1.2129 -0.4778  0.0703
  679MOL0     C91559   6.059   3.296  -1.234  0.8689  0.0045  0.7137
  679MOL0     C91560   6.045   3.193  -1.351  0.2390 -0.2913  0.7813
  679MOL0     O91561   5.984   3.215  -1.475  0.4882 -0.3873  0.1419
  679MOL0     C91562   5.981   3.098  -1.546 -0.8365  0.0658  0.5139
  679MOL0     C91563   6.053   3.088  -1.662 -0.5766  0.2488  0.1662
  679MOL0     C91564   6.049   2.974  -1.742 -0.5094  0.1325 -0.5276
  679MOL0     C91565   5.973   2.864  -1.708  0.0719  0.2938  0.1838
  679MOL0     O91566   5.950   2.752  -1.782  0.4066  0.4395  0.3279
  679MOL0     C91567   6.054   2.685  -1.849 -0.1569  0.6962  0.5047
  679MOL0     C91568   6.014   2.609  -1.976  0.1829 -0.5458 -0.1567
  679MOL0     C91569   6.136   2.521  -2.023 -0.7466 -0.1147 -0.1978
  679MOL0     C91570   6.141   2.512  -2.180  0.4153 -0.0378 -1.1119
  679MOL0     C91571   6.247   2.431  -2.261 -0.6856  0.0819 -1.1701
  679MOL0     C91572   6.200   2.281  -2.276 -1.5408  0.1620  0.3172
  679MOL0     C91573   6.162   2.224  -2.146  1.1375  0.5475 -0.6755
  679MOL0     C91574   6.131   2.072  -2.155 -0.9332  0.5299 -0.5161
  679MOL0    Cl91575   6.258   1.986  -2.247  0.1846 -0.4225 -0.0941
  679MOL0     C91576   5.906   2.871  -1.586 -0.2643  0.4060 -0.9701
  679MOL0     C91577   5.907   2.982  -1.502 -0.6737  0.7458 -0.3227
  679MOL0     O91578   6.091   3.090  -1.313 -0.1604  0.2322  0.3493
  679MOL0     C91579   6.154   3.282  -1.127  1.2865 -0.3263  0.5561
  679MOL0     C91580   6.179   3.375  -1.031  1.1379 -0.4080  0.4163
  679MOL0     N91581   6.166   4.025  -0.397  0.3813  0.2042 -0.9415
  679MOL0     N91582   6.131   4.010  -0.273 -0.2582  1.3924 -0.3305
  679MOL0     C91583   5.919   3.730   0.916 -0.1916  0.6943  0.0580
  679MOL0     C91584   5.942   3.786   1.044 -0.0284 -0.6055  0.1383
  679MOL0     C91585   6.251   3.905   1.396 -0.0677  1.5240  0.1060
  679MOL0     C91586   6.364   3.850   1.462 -0.1979 -0.6240  0.0245
  679MOL0     C91587   6.419   3.915   1.573  0.3819 -0.6990 -0.1258
  679MOL0     C91588   6.367   4.044   1.610 -0.9181  0.0659  0.7565
  679MOL0     O91589   6.412   4.087   1.732  0.1954  0.5972  0.2535
  679MOL0     C91590   6.347   4.197   1.795 -0.0705 -1.0064  0.3803
  679MOL0     C91591   6.222   4.155   1.882 -0.7203 -0.6687  0.4249
  679MOL0     C91592   6.177   4.271   1.978 -0.0909  0.1560 -0.4087
  679MOL0     C91593   6.147   4.398   1.900  0.5566  0.2033  0.1078
  679MOL0     C91594   6.042   4.372   1.800 -1.0067 -0.2452 -0.0614
  679MOL0     C91595   5.960   4.349   1.712 -0.0552 -0.8802 -0.3282
  679MOL0     C91596   6.272   4.101   1.531  0.2788  0.5597  0.3345
  679MOL0     C91597   6.203   4.033   1.436  0.1024 -0.6012 -0.3737
  679MOL0     H91598   6.283   3.807   1.032  0.3574  1.6497  1.0220
  679MOL0     H91599   6.230   3.700   0.802  1.1634  0.4309  2.3740
  679MOL0     H91600   5.912   3.789   0.584 -0.4597  1.5570  2.5572
  679MOL0     H91601   6.083   3.785   0.616  0.2469 -0.4778  0.6065
  679MOL0     H91602   6.089   3.562   0.495 -0.6120 -0.2841  2.0446
  679MOL0     H91603   5.915   3.565   0.463  0.7486 -2.4860  0.7110
  679MOL0     H91604   6.017   3.643   0.272 -0.3841  1.5756 -0.6980
  679MOL0     H91605   5.963   3.798   0.340 -4.5745 -2.4822 -1.4870
  679MOL0     H91606   6.187   3.837   0.430 -2.9702  0.8344 -1.0780
  679MOL0     H91607   6.257   3.687   0.362  1.4535  0.0633 -4.9806
  679MOL0     H91608   6.136   3.920   0.206 -1.8296 -0.6276 -2.7357
  679MOL0     H91609   6.305   3.898   0.206  0.6016 -1.0764 -1.3872
  679MOL0     H91610   6.276   3.678   0.102 -0.4018 -0.8013 -1.3674
  679MOL0     H91611   6.096   3.696   0.090 -1.9756  3.7656 -2.0107
  679MOL0     H91612   6.257   3.924  -0.027  1.2294  0.5503  0.3537
  679MOL0     H91613   6.283   3.766  -0.102 -2.1111 -3.1092  2.0782
  679MOL0     H91614   5.999   3.850  -0.067 -2.0919  0.2073 -3.8633
  679MOL0     H91615   6.084   3.711  -0.151  1.4103  0.0816  0.0351
  679MOL0     H91616   6.118   3.706  -0.394  1.9110  0.6456 -0.9295
  679MOL0     H91617   6.242   3.952  -0.643 -2.3744 -0.5209 -1.1618
  679MOL0     H91618   6.330   3.832  -0.547 -0.7027  1.6193  3.9250
  679MOL0     H91619   6.064   3.776  -0.689 -0.4244 -0.2850 -0.2677
  679MOL0     H91620   6.182   3.661  -0.611  0.4751 -1.5337 -1.7364
  679MOL0     H91621   6.355   3.747  -0.768 -0.3872  1.7370 -3.2579
  679MOL0     H91622   6.217   3.844  -0.843 -0.6505 -0.2999 -0.8784
  679MOL0     H91623   6.279   3.545  -0.817  2.7467  0.6439 -1.0741
  679MOL0     H91624   6.293   3.622  -0.971  0.6615  0.6722  0.8638
  679MOL0     H91625   5.902   3.563  -1.094 -0.8497 -0.7007 -0.7102
  679MOL0     H91626   5.888   3.419  -1.418  0.0785  0.1318  0.4546
  679MOL0     H91627   5.769   3.357  -1.298 -1.6392  0.0151 -0.0088
  679MOL0     H91628   5.808   3.526  -1.314  0.4945  0.3172  1.5762
  679MOL0     H91629   6.118   3.173  -1.686  0.7405 -0.1466  2.1027
  679MOL0     H91630   6.094   2.975  -1.841  1.2249  2.8155  0.1984
  679MOL0     H91631   6.130   2.756  -1.881  0.1788 -0.0986 -0.5256
  679MOL0     H91632   6.089   2.616  -1.771 -1.9542 -0.8638 -0.0048
  679MOL0     H91633   5.933   2.543  -1.944  3.0747 -3.4755  1.7335
  679MOL0     H91634   5.994   2.680  -2.057  0.7901 -2.4230 -2.0515
  679MOL0     H91635   6.119   2.424  -1.976 -2.4350  1.3801  2.5434
  679MOL0     H91636   6.229   2.568  -1.989 -1.8537  3.2774 -1.4578
  679MOL0     H91637   6.043   2.475  -2.212  0.8072 -2.0691 -0.0734
  679MOL0     H91638   6.156   2.615  -2.215  1.6799 -0.8268 -3.0920
  679MOL0     H91639   6.339   2.437  -2.202 -0.7185 -3.2954 -0.5993
  679MOL0     H91640   6.265   2.487  -2.353  0.0734  2.0469  0.1041
  679MOL0     H91641   6.121   2.293  -2.350 -1.6646 -0.1669  0.3928
  679MOL0     H91642   6.287   2.231  -2.320 -0.5070  2.4814 -0.4122
  679MOL0     H91643   6.077   2.276  -2.100  0.1851 -0.5014 -1.1902
  679MOL0     H91644   6.246   2.241  -2.077  0.0180 -2.6695  1.7501
  679MOL0     H91645   6.032   2.070  -2.200 -1.7516  0.1770  1.2091
  679MOL0     H91646   6.128   2.031  -2.054 -0.6963 -2.7689 -1.7362
  679MOL0     H91647   5.842   2.785  -1.568 -0.8076  1.0637  0.3651
  679MOL0     H91648   5.852   2.991  -1.409  0.3802 -1.3499  0.5539
  679MOL0     H91649   6.223   3.200  -1.144 -1.2606 -2.2976 -1.0453
  679MOL0     H91650   6.257   3.374  -0.955  0.5501  3.7733  1.2869
  679MOL0     H91651   5.818   3.705   0.887  0.5930 -1.9908 -0.6453
  679MOL0     H91652   5.861   3.802   1.114 -0.0409 -0.5719  0.1160
  679MOL0     H91653   6.404   3.751   1.441 -1.5370 -0.6188 -3.0987
  679MOL0     H91654   6.475   3.856   1.645 -1.8251 -2.2707  0.3971
  679MOL0     H91655   6.426   4.243   1.855 -1.7039  4.1985 -0.9133
  679MOL0     H91656   6.314   4.274   1.724  1.5057  0.4027  1.1028
  679MOL0     H91657   6.244   4.072   1.950 -2.2252 -1.4824 -0.0343
  679MOL0     H91658   6.140   4.119   1.819  0.4481 -1.1682 -0.8706
  679MOL0     H91659   6.251   4.290   2.057 -0.6983  0.3202  0.1286
  679MOL0     H91660   6.091   4.247   2.041  0.6133  0.6672  0.7917
  679MOL0     H91661   6.237   4.431   1.847  0.4580 -1.6800 -1.3452
  679MOL0     H91662   6.119   4.481   1.967  2.1359  1.2378 -0.4605
  679MOL0     H91663   5.891   4.324   1.634  0.7318  0.3363 -1.4719
  679MOL0     H91664   6.227   4.197   1.556  0.0319  0.1375  1.6089
  679MOL0     H91665   6.118   4.077   1.386  0.4551  1.9391  1.1173
  680MOL0     O91666   6.218   8.556   8.687  0.6309  0.0572  0.3338
  680MOL0     C91667   6.185   8.570   8.803  0.6091  0.7669  0.1024
  680MOL0     O91668   6.141   8.476   8.885 -0.1888  0.2557  0.1667
  680MOL0     C91669   6.157   8.350   8.840 -0.3588  0.4999 -0.1268
  680MOL0     C91670   6.039   8.265   8.829 -1.4461 -0.1067 -0.2047
  680MOL0     C91671   6.045   8.133   8.802  0.1903 -0.5833 -0.0911
  680MOL0     C91672   6.166   8.069   8.793  0.2367  0.2019  0.2370
  680MOL0     O91673   6.164   7.933   8.802 -0.0325  0.6388  0.1522
  680MOL0     C91674   6.267   7.854   8.735 -0.1520  0.2732  0.4402
  680MOL0     C91675   6.258   7.713   8.803 -0.4432  0.8763 -0.5214
  680MOL0     C91676   6.404   7.646   8.825  0.7313  0.9136 -0.0205
  680MOL0     C91677   6.402   7.493   8.857 -0.8570  1.0535 -0.2347
  680MOL0     C91678   6.325   7.408   8.755 -0.2095 -0.1550  0.2139
  680MOL0     C91679   6.348   7.264   8.791 -0.5446 -0.2926  0.7036
  680MOL0     C91680   6.302   7.167   8.678 -0.2945 -0.3983 -0.5741
  680MOL0     C91681   6.338   7.013   8.698 -0.6868 -0.3924 -0.2088
  680MOL0     N91682   6.302   6.947   8.825  0.2443 -0.1871  0.7049
  680MOL0     C91683   6.328   6.984   8.956 -0.6851  0.0074 -0.1203
  680MOL0     C91684   6.286   6.880   9.030  1.0852 -0.7717  0.1207
  680MOL0     C91685   6.304   6.885   9.177  0.3663  0.3678 -0.7279
  680MOL0     C91686   6.234   7.001   9.253 -0.1139  0.7975 -0.6488
  680MOL0     C91687   6.266   6.989   9.404  0.7988  0.0030  0.1832
  680MOL0     C91688   6.213   7.109   9.490  0.6179 -0.3731 -1.1695
  680MOL0     O91689   6.231   7.107   9.640  0.6963  0.0097  0.2371
  680MOL0     C91690   6.214   7.225   9.709  0.5374 -0.5659 -0.2369
  680MOL0     C91691   6.134   7.212   9.828  0.2473  0.2708  0.7186
  680MOL0     C91692   6.070   7.328   9.889 -1.2246  0.2033  0.4672
  680MOL0     C91693   6.004   7.319  10.029 -0.8148 -0.7628 -0.0369
  680MOL0     C91694   6.102   7.460   9.839  0.5321  0.0449 -0.1517
  680MOL0     C91695   6.049   7.587   9.883  0.0426 -0.4704 -0.2082
  680MOL0     O91696   6.133   7.690   9.883 -0.0754 -0.0479  0.4084
  680MOL0     C91697   6.075   7.810   9.903  0.5730  0.1903 -0.5448
  680MOL0     C91698   6.066   7.880  10.020  0.2849  0.0379  0.2748
  680MOL0     C91699   6.013   8.009  10.029  0.8099 -0.4389  0.6057
  680MOL0     C91700   5.959   8.083   9.917  0.2692  0.4940 -0.1730
  680MOL0     O91701   5.920   8.212   9.914 -0.0646  0.1454 -0.7019
  680MOL0     C91702   5.887   8.270  10.045  0.7625  0.4940  0.3443
  680MOL0     C91703   5.903   8.420  10.046 -0.5259 -0.2035  0.1965
  680MOL0     C91704   5.781   8.475   9.970  0.4169 -0.6620 -0.2316
  680MOL0     C91705   5.807   8.620   9.932  0.2496  0.0469  0.7648
  680MOL0     C91706   5.685   8.675   9.857  0.2039  0.3934 -0.5579
  680MOL0     C91707   5.624   8.598   9.737 -0.2671  0.2188 -0.3053
  680MOL0     C91708   5.731   8.560   9.627  0.0058  0.7725  0.3705
  680MOL0     C91709   5.692   8.456   9.524  1.0094  0.3613  0.1250
  680MOL0    Cl91710   5.518   8.491   9.474 -1.0521  0.0259 -0.0205
  680MOL0     C91711   5.969   8.019   9.788 -0.5202 -0.2201 -0.4863
  680MOL0     C91712   6.027   7.893   9.789 -0.1175 -0.5362 -0.3372
  680MOL0     O91713   5.929   7.596   9.916 -0.0438 -0.5216  0.0267
  680MOL0     C91714   6.183   7.466   9.728  0.7942  0.0429 -0.3170
  680MOL0     C91715   6.230   7.357   9.657  0.2717 -0.1891 -0.6470
  680MOL0     N91716   6.222   6.788   8.945 -0.3081  0.2850  0.2626
  680MOL0     N91717   6.239   6.832   8.827  0.2908  0.0588  0.7902
  680MOL0     C91718   6.282   8.147   8.779  0.4350 -0.0634 -0.0594
  680MOL0     C91719   6.276   8.285   8.807 -0.7917  0.2768 -0.2391
  680MOL0     C91720   6.180   8.710   8.850 -0.6058 -0.5226  0.5491
  680MOL0     C91721   6.221   8.819   8.761 -0.0110 -0.1204 -0.2145
  680MOL0     C91722   6.218   8.950   8.809 -0.1773 -0.0183 -0.2681
  680MOL0     C91723   6.181   8.977   8.942 -0.2043 -0.1726  0.1209
  680MOL0     O91724   6.189   9.111   8.971  0.5127  0.4258  0.5583
  680MOL0     C91725   6.163   9.175   9.096  0.3717  0.4739  0.6044
  680MOL0     C91726   6.270   9.154   9.208 -0.0748 -0.0488 -0.9291
  680MOL0     C91727   6.268   9.264   9.318  0.4696 -0.2340 -0.1761
  680MOL0     C91728   6.331   9.400   9.274 -0.6901  0.1423 -0.7891
  680MOL0     C91729   6.300   9.510   9.367 -0.4212 -1.6659 -0.5674
  680MOL0     C91730   6.266   9.597   9.450 -0.3258  0.1062  0.1464
  680MOL0     C91731   6.140   8.875   9.029  1.0163  0.9592  0.2150
  680MOL0     C91732   6.131   8.747   8.976 -0.6554  0.0840 -0.1981
  680MOL0     H91733   5.951   8.325   8.849  0.2209  2.4396 -0.0354
  680MOL0     H91734   5.955   8.074   8.819 -0.3560 -0.3856 -2.0294
  680MOL0     H91735   6.254   7.840   8.628 -0.2025 -0.0085  0.4811
  680MOL0     H91736   6.361   7.905   8.760 -1.9522  2.6707  2.9705
  680MOL0     H91737   6.202   7.703   8.896 -0.7799  1.4701 -0.6587
  680MOL0     H91738   6.213   7.652   8.724  4.5348  0.2034 -3.2193
  680MOL0     H91739   6.461   7.662   8.733 -1.7945 -0.9692 -2.0834
  680MOL0     H91740   6.463   7.699   8.900  3.3340 -1.8599  0.1017
  680MOL0     H91741   6.509   7.469   8.850  0.0548  4.8945 -1.7049
  680MOL0     H91742   6.363   7.470   8.956  0.7147  2.9752  0.8836
  680MOL0     H91743   6.220   7.435   8.747 -0.2647 -0.6432 -0.7548
  680MOL0     H91744   6.361   7.424   8.653  0.4854  0.6541  0.5698
  680MOL0     H91745   6.457   7.255   8.802 -0.4330  1.9677  2.3009
  680MOL0     H91746   6.300   7.239   8.886  0.2552 -3.2662  0.4317
  680MOL0     H91747   6.193   7.178   8.672 -0.2679 -1.0619 -5.1681
  680MOL0     H91748   6.337   7.200   8.580  0.4702  2.0778  0.4374
  680MOL0     H91749   6.447   7.011   8.704 -0.7572  0.0086  2.5559
  680MOL0     H91750   6.309   6.956   8.609  1.5823  0.7368 -1.7653
  680MOL0     H91751   6.375   7.072   9.001 -1.4331  0.9447 -1.1230
  680MOL0     H91752   6.284   6.790   9.226  2.6817  0.0488 -0.2931
  680MOL0     H91753   6.411   6.898   9.197  0.2619 -0.1677  0.2109
  680MOL0     H91754   6.125   6.998   9.240 -0.5532  2.0458  2.0271
  680MOL0     H91755   6.263   7.098   9.211 -0.5123  1.0501 -0.3588
  680MOL0     H91756   6.373   6.972   9.418  0.7432 -0.7309 -0.2268
  680MOL0     H91757   6.209   6.905   9.445 -0.2522  0.6640  0.1009
  680MOL0     H91758   6.106   7.110   9.469  0.3303 -0.4212  0.2261
  680MOL0     H91759   6.248   7.203   9.445  4.0823  0.3640  2.5043
  680MOL0     H91760   6.118   7.111   9.864  2.4844 -0.5437 -0.3944
  680MOL0     H91761   5.909   7.264  10.021 -1.2620  0.2099 -2.0483
  680MOL0     H91762   6.062   7.269  10.108  1.1395  1.2611 -0.1057
  680MOL0     H91763   5.992   7.418  10.074 -0.1623 -1.8295  2.6529
  680MOL0     H91764   6.077   7.829  10.115 -1.8587 -0.1990  0.4511
  680MOL0     H91765   6.011   8.042  10.132 -1.3751 -3.4688  1.6791
  680MOL0     H91766   5.797   8.230  10.091  1.0022 -1.4159 -0.7504
  680MOL0     H91767   5.968   8.238  10.111  1.5101 -0.1075 -0.8336
  680MOL0     H91768   5.912   8.456  10.149  4.2922  2.5669 -0.9246
  680MOL0     H91769   5.998   8.442   9.997 -1.2623 -0.4613 -1.4140
  680MOL0     H91770   5.695   8.485  10.036  1.8422  3.0060  1.3658
  680MOL0     H91771   5.748   8.423   9.880  2.8650 -1.0354 -0.9847
  680MOL0     H91772   5.833   8.673  10.024 -0.6793 -3.1406  3.0317
  680MOL0     H91773   5.887   8.632   9.858 -0.0938  1.2775  0.5734
  680MOL0     H91774   5.719   8.772   9.821 -0.2494  1.5202  1.8652
  680MOL0     H91775   5.611   8.696   9.934 -0.2372  0.6318 -1.0375
  680MOL0     H91776   5.580   8.501   9.764  2.0001 -1.2213 -1.4572
  680MOL0     H91777   5.537   8.652   9.701 -1.9431 -1.8663  0.3913
  680MOL0     H91778   5.817   8.516   9.678 -1.3008  0.5037  2.4844
  680MOL0     H91779   5.770   8.651   9.581  0.0184 -1.0963 -3.8194
  680MOL0     H91780   5.701   8.359   9.574  2.4186  1.7498  2.7600
  680MOL0     H91781   5.763   8.466   9.441 -0.7911  2.5204 -1.2583
  680MOL0     H91782   5.942   8.050   9.688  1.1994 -2.1245 -1.6472
  680MOL0     H91783   6.019   7.837   9.697 -2.9145  1.1092 -1.2060
  680MOL0     H91784   6.203   7.564   9.684 -1.0748 -0.6271 -2.9143
  680MOL0     H91785   6.275   7.388   9.564 -2.0683  1.7759 -1.2540
  680MOL0     H91786   6.379   8.103   8.757  0.7132  0.6796 -0.3395
  680MOL0     H91787   6.367   8.344   8.806  0.4701 -1.4943 -2.9846
  680MOL0     H91788   6.266   8.799   8.665 -0.8546  0.3977 -0.7354
  680MOL0     H91789   6.259   9.034   8.753 -0.3639  1.3196  1.4846
  680MOL0     H91790   6.147   9.280   9.067 -1.9803 -0.2018 -0.8656
  680MOL0     H91791   6.059   9.153   9.123  0.1822 -0.5750 -0.8977
  680MOL0     H91792   6.370   9.141   9.166  0.1802  1.5127 -0.8423
  680MOL0     H91793   6.256   9.054   9.251  2.7587  0.0477  0.4519
  680MOL0     H91794   6.313   9.238   9.415  0.4294  1.2835  0.2747
  680MOL0     H91795   6.169   9.294   9.351  0.2302 -1.0407 -0.1292
  680MOL0     H91796   6.304   9.423   9.171  0.7788  0.1918 -1.1947
  680MOL0     H91797   6.440   9.392   9.283 -0.5033  3.2506  0.7031
  680MOL0     H91798   6.226   9.651   9.534 -2.0869 -0.9097 -0.0085
  680MOL0     H91799   6.097   8.907   9.124 -0.5405  3.1766 -1.1197
  680MOL0     H91800   6.099   8.660   9.033 -0.3055  0.6861  0.9592
  681MOL0     O91801   8.979   3.420   4.326  0.1087  0.0581  0.6565
  681MOL0     C91802   9.068   3.353   4.284 -0.4362 -0.6302  1.0316
  681MOL0     O91803   9.181   3.400   4.220  0.4648  0.2714  0.4807
  681MOL0     C91804   9.192   3.528   4.184  0.7664 -0.5803 -0.1497
  681MOL0     C91805   9.194   3.629   4.279 -0.8576  0.0329  0.2499
  681MOL0     C91806   9.226   3.763   4.250  0.6048 -0.2007 -0.2613
  681MOL0     C91807   9.240   3.801   4.121 -0.0972  0.1628  0.6014
  681MOL0     O91808   9.250   3.930   4.074 -0.8667 -0.6112 -0.5006
  681MOL0     C91809   9.201   4.035   4.153  0.0462  0.8040  0.2513
  681MOL0     C91810   9.225   4.171   4.078 -0.5867  0.0036  0.5874
  681MOL0     C91811   9.120   4.288   4.095  0.0370  0.5614 -0.2180
  681MOL0     C91812   9.078   4.308   4.242 -0.6947  0.6417 -0.1883
  681MOL0     C91813   8.972   4.409   4.262  0.2167  0.4044 -0.1293
  681MOL0     C91814   8.953   4.440   4.403 -0.6726  0.0084  0.1836
  681MOL0     C91815   8.901   4.320   4.472  0.0929  0.6840 -0.0716
  681MOL0     C91816   8.797   4.364   4.578  0.2599 -0.8741 -0.2164
  681MOL0     N91817   8.858   4.463   4.664  0.2573 -0.7756  0.2468
  681MOL0     C91818   8.969   4.462   4.724 -0.0089  0.3673  0.3614
  681MOL0     C91819   8.998   4.582   4.781 -0.3463  0.1813 -0.2667
  681MOL0     C91820   9.116   4.598   4.878  0.4167  0.8335  0.9225
  681MOL0     C91821   9.198   4.714   4.827 -0.2959  0.0569 -1.4522
  681MOL0     C91822   9.333   4.710   4.905  0.3178  0.6118 -0.3358
  681MOL0     C91823   9.399   4.846   4.930  0.6768  0.6901 -0.2821
  681MOL0     O91824   9.424   4.922   4.814 -0.5048 -0.1563  0.4609
  681MOL0     C91825   9.488   5.045   4.824 -0.2844 -0.5149 -0.4000
  681MOL0     C91826   9.485   5.125   4.705 -0.5058  0.3996 -0.8527
  681MOL0     C91827   9.558   5.245   4.701 -0.4620  0.1675 -0.0171
  681MOL0     C91828   9.552   5.332   4.578  0.8692  0.1493  0.5667
  681MOL0     C91829   9.628   5.290   4.813  0.0929  0.4990  0.4081
  681MOL0     C91830   9.710   5.411   4.815  0.2332  0.0579 -0.2702
  681MOL0     O91831   9.680   5.502   4.914  0.2217 -0.5723 -0.7270
  681MOL0     C91832   9.685   5.640   4.899  0.1989  0.2282  0.1190
  681MOL0     C91833   9.709   5.705   4.785  0.8036 -0.5174 -1.0397
  681MOL0     C91834   9.689   5.845   4.775 -0.7655 -0.8214 -0.3100
  681MOL0     C91835   9.635   5.916   4.893 -0.1535  0.4994 -0.1101
  681MOL0     O91836   9.601   6.051   4.886  0.1115  1.0736  0.2307
  681MOL0     C91837   9.566   6.127   5.005 -0.2307  0.9054  0.6925
  681MOL0     C91838   9.546   6.269   4.955 -0.1723 -0.6742  0.6842
  681MOL0     C91839   9.484   6.350   5.075 -0.0314  0.4776 -1.0616
  681MOL0     C91840   9.502   6.502   5.052 -0.6046  0.4458 -0.2371
  681MOL0     C91841   9.435   6.595   5.156 -0.0358 -0.1375  1.0378
  681MOL0     C91842   9.438   6.741   5.107 -0.3674 -0.1701  0.1636
  681MOL0     C91843   9.370   6.827   5.207 -0.5331 -0.7648 -0.5025
  681MOL0     C91844   9.409   6.811   5.360  0.0540  0.6563 -0.5466
  681MOL0    Cl91845   9.318   6.673   5.438  0.3960 -0.1651  0.3770
  681MOL0     C91846   9.600   5.837   5.008 -0.4687  0.5764  1.0980
  681MOL0     C91847   9.634   5.705   5.010 -0.2257 -0.2906 -0.8636
  681MOL0     O91848   9.796   5.421   4.735 -0.3914  0.5638  0.0486
  681MOL0     C91849   9.603   5.223   4.939 -0.1833 -0.4439  0.3608
  681MOL0     C91850   9.534   5.100   4.942  0.8682 -0.5124 -0.8509
  681MOL0     N91851   8.885   4.656   4.749 -0.3418  0.1464  0.4744
  681MOL0     N91852   8.809   4.585   4.680  0.3132 -0.1699 -0.6328
  681MOL0     C91853   9.245   3.695   4.022  0.2869 -0.1262 -0.3194
  681MOL0     C91854   9.225   3.566   4.054 -0.1273  0.2654 -0.4908
  681MOL0     C91855   9.057   3.200   4.291 -0.3925  0.4252  0.2289
  681MOL0     C91856   9.176   3.116   4.270 -0.5475 -0.4335  0.0707
  681MOL0     C91857   9.162   2.976   4.307 -0.4021 -0.3013 -0.8955
  681MOL0     C91858   9.038   2.919   4.343 -0.3100  1.3831  0.2433
  681MOL0     O91859   9.058   2.803   4.417  0.6361 -1.2297 -0.0079
  681MOL0     C91860   8.947   2.742   4.477 -0.0711  0.3786 -1.0469
  681MOL0     C91861   8.997   2.626   4.558 -0.2599  0.5162 -0.9139
  681MOL0     C91862   8.877   2.561   4.646  0.6360 -0.0712 -0.2346
  681MOL0     C91863   8.900   2.409   4.700 -0.9420 -0.7745  1.4201
  681MOL0     C91864   8.777   2.359   4.749 -0.0771 -0.2953  0.0829
  681MOL0     C91865   8.678   2.298   4.780  0.7634 -0.9034 -0.3519
  681MOL0     C91866   8.922   2.996   4.344 -0.7734  0.8704 -0.2221
  681MOL0     C91867   8.935   3.126   4.330  0.1931 -0.1477 -0.0705
  681MOL0     H91868   9.192   3.586   4.379 -0.0476 -3.1170 -0.9656
  681MOL0     H91869   9.241   3.835   4.330 -0.7894 -0.7682  0.5480
  681MOL0     H91870   9.095   4.012   4.171 -0.7788  2.1543 -2.4493
  681MOL0     H91871   9.260   4.028   4.245 -1.0377  0.9494  0.9826
  681MOL0     H91872   9.326   4.204   4.103 -0.5462  1.6625 -1.4676
  681MOL0     H91873   9.216   4.145   3.972 -1.4343  1.9259  0.1337
  681MOL0     H91874   9.138   4.381   4.040 -3.4269 -1.6949 -6.0281
  681MOL0     H91875   9.025   4.268   4.045  2.0268 -1.6861 -3.4316
  681MOL0     H91876   9.030   4.216   4.278  2.6034 -1.9955 -1.9296
  681MOL0     H91877   9.164   4.327   4.307 -0.3776  2.2110 -1.0163
  681MOL0     H91878   8.989   4.503   4.209 -2.2935 -0.4433 -2.6881
  681MOL0     H91879   8.880   4.377   4.212  0.6524  1.3383 -1.5996
  681MOL0     H91880   9.047   4.473   4.449 -0.4074  1.3988 -1.2375
  681MOL0     H91881   8.880   4.521   4.415 -0.3729  0.6651 -1.9601
  681MOL0     H91882   8.846   4.246   4.413 -1.3200  1.8108 -0.2274
  681MOL0     H91883   8.980   4.258   4.514  0.0689 -2.3136 -3.8581
  681MOL0     H91884   8.768   4.277   4.638  1.4733  0.1992  2.0045
  681MOL0     H91885   8.712   4.401   4.519 -0.6049  0.1233  1.6032
  681MOL0     H91886   9.034   4.375   4.728 -0.5918 -0.1616 -1.1435
  681MOL0     H91887   9.067   4.618   4.974 -3.6889  0.9645 -0.9824
  681MOL0     H91888   9.183   4.512   4.872  4.2882  3.6732 -0.5055
  681MOL0     H91889   9.148   4.808   4.852 -0.0818  0.6078 -2.9495
  681MOL0     H91890   9.215   4.709   4.719 -0.6444 -2.0533 -1.4427
  681MOL0     H91891   9.398   4.642   4.851  0.2701  1.6705 -1.7874
  681MOL0     H91892   9.314   4.669   5.005  0.1786  0.0038 -0.6133
  681MOL0     H91893   9.499   4.836   4.973  0.5411  2.0153  0.4034
  681MOL0     H91894   9.332   4.898   4.999 -3.9871 -1.7473 -2.5523
  681MOL0     H91895   9.442   5.092   4.611 -0.2665 -1.2093 -0.4318
  681MOL0     H91896   9.461   5.311   4.521  1.1342  2.2195 -0.7308
  681MOL0     H91897   9.543   5.438   4.605 -1.8480  0.9810 -2.8943
  681MOL0     H91898   9.640   5.329   4.513 -0.4024  3.0137 -1.5121
  681MOL0     H91899   9.743   5.660   4.692  1.2487 -0.7838 -0.7504
  681MOL0     H91900   9.712   5.909   4.690  1.3328  2.2925  2.3499
  681MOL0     H91901   9.473   6.099   5.054 -0.5774  0.5503 -0.1717
  681MOL0     H91902   9.654   6.135   5.070  0.7135 -1.0409 -0.2649
  681MOL0     H91903   9.640   6.305   4.912 -0.7896  1.4133  0.9573
  681MOL0     H91904   9.474   6.268   4.873 -0.4285 -1.7764  0.9088
  681MOL0     H91905   9.536   6.325   5.168 -0.3108 -1.7710 -1.4656
  681MOL0     H91906   9.382   6.319   5.099  0.3483  1.0146  1.6077
  681MOL0     H91907   9.606   6.522   5.024  0.0263  1.3124  2.4172
  681MOL0     H91908   9.441   6.512   4.962 -0.9587 -3.1380 -0.5590
  681MOL0     H91909   9.482   6.581   5.254  2.8871  0.1790 -0.2484
  681MOL0     H91910   9.329   6.568   5.163  0.0804 -1.7143 -1.9022
  681MOL0     H91911   9.542   6.770   5.089 -0.2487 -0.3200  0.6146
  681MOL0     H91912   9.399   6.760   5.006  3.0533  2.7821 -0.8355
  681MOL0     H91913   9.262   6.824   5.191 -0.9595  1.0227  1.5891
  681MOL0     H91914   9.401   6.928   5.181 -2.6474 -0.7205 -3.2318
  681MOL0     H91915   9.371   6.904   5.402  0.4686  0.4893  0.2206
  681MOL0     H91916   9.515   6.803   5.388 -1.0890 -0.4548  4.5126
  681MOL0     H91917   9.555   5.870   5.101  2.4544 -0.6224  3.0810
  681MOL0     H91918   9.607   5.645   5.096 -2.9055 -0.2159 -1.5532
  681MOL0     H91919   9.638   5.268   5.031 -2.0362  4.3214 -0.9364
  681MOL0     H91920   9.531   5.052   5.040 -1.5677  1.1710  0.0095
  681MOL0     H91921   9.277   3.735   3.926  1.7193 -0.7858 -0.1338
  681MOL0     H91922   9.241   3.496   3.972 -2.1406 -1.3973  0.4267
  681MOL0     H91923   9.277   3.155   4.262  0.4385 -1.8420  3.6440
  681MOL0     H91924   9.254   2.920   4.325 -1.0952 -0.5743  2.3346
  681MOL0     H91925   8.909   2.804   4.559 -0.1252 -0.5507 -0.3508
  681MOL0     H91926   8.866   2.703   4.415  0.4505 -3.5949  0.4584
  681MOL0     H91927   9.078   2.648   4.628  0.6549 -1.8945 -1.1571
  681MOL0     H91928   9.028   2.550   4.486 -5.1290 -0.4350 -2.4257
  681MOL0     H91929   8.784   2.551   4.590 -1.0584  1.4036  2.1189
  681MOL0     H91930   8.844   2.627   4.727 -1.1937 -1.7440  0.4526
  681MOL0     H91931   8.968   2.424   4.785  0.3074 -0.5701  0.4259
  681MOL0     H91932   8.943   2.342   4.624  2.2930  0.8895  1.5811
  681MOL0     H91933   8.585   2.254   4.810 -1.6490  1.1044 -4.1087
  681MOL0     H91934   8.833   2.950   4.387  0.8685 -1.4982  0.8512
  681MOL0     H91935   8.842   3.179   4.349 -0.8788 -1.5105 -1.3089
  682MOL0     O91936   5.403   3.376  10.853 -0.1612  0.1803 -0.4527
  682MOL0     C91937   5.466   3.355  10.749  0.3703  0.0474  0.1312
  682MOL0     O91938   5.583   3.414  10.711  0.2427 -0.0631 -0.1512
  682MOL0     C91939   5.618   3.534  10.763  0.0994  0.2453  0.4444
  682MOL0     C91940   5.754   3.551  10.783  0.3321  0.0580  0.6451
  682MOL0     C91941   5.793   3.663  10.855 -0.0806 -0.3602 -0.2963
  682MOL0     C91942   5.708   3.762  10.900 -0.2317  1.0790 -0.3392
  682MOL0     O91943   5.781   3.857  10.966  1.1095 -0.7963 -0.4780
  682MOL0     C91944   5.715   3.985  10.979 -0.0731  0.6044  0.1343
  682MOL0     C91945   5.622   3.998  11.092  0.4284  0.2434 -0.1569
  682MOL0     C91946   5.715   3.963  11.216  0.2284 -0.3376  0.5031
  682MOL0     C91947   5.632   4.002  11.335 -0.4216 -0.7910 -0.5766
  682MOL0     C91948   5.698   3.931  11.463  1.1753  0.5491 -0.6376
  682MOL0     C91949   5.591   3.924  11.573  0.0041  0.4527 -0.2702
  682MOL0     C91950   5.630   3.832  11.694 -0.2370 -0.5074  0.3718
  682MOL0     C91951   5.573   3.876  11.820  0.1760  0.3340 -0.4597
  682MOL0     N91952   5.591   3.787  11.936 -0.7207 -0.4664 -0.2990
  682MOL0     C91953   5.545   3.663  11.948  0.8263  0.0470  0.2630
  682MOL0     C91954   5.563   3.627  12.075  0.4005  0.3767 -0.2951
  682MOL0     C91955   5.539   3.494  12.136  0.7227  0.7747 -0.3758
  682MOL0     C91956   5.670   3.430  12.169  0.1450 -0.3830 -0.3546
  682MOL0     C91957   5.692   3.419  12.317  0.5760 -0.5236  0.2642
  682MOL0     C91958   5.828   3.365  12.346  0.3334 -0.1415 -0.9671
  682MOL0     O91959   5.841   3.294  12.471  0.1944  1.2686  0.3125
  682MOL0     C91960   5.825   3.349  12.596 -0.4757 -0.3107 -0.0899
  682MOL0     C91961   5.811   3.251  12.687 -0.1565 -0.4867  0.1185
  682MOL0     C91962   5.773   3.295  12.821 -0.3247 -0.3505  0.1198
  682MOL0     C91963   5.801   3.207  12.934 -0.3807  0.0301 -0.0987
  682MOL0     C91964   5.732   3.429  12.841 -0.3749 -1.0696 -0.6211
  682MOL0     C91965   5.685   3.483  12.968 -0.1067 -0.7948 -0.7274
  682MOL0     O91966   5.776   3.526  13.058  0.0977 -0.2171 -0.3791
  682MOL0     C91967   5.722   3.574  13.176 -0.2198  0.0200 -0.0599
  682MOL0     C91968   5.716   3.490  13.289  0.3317 -0.5283  0.0900
  682MOL0     C91969   5.665   3.527  13.414  1.0644 -0.7555 -0.4488
  682MOL0     C91970   5.610   3.656  13.433  1.1472  0.0122 -0.2583
  682MOL0     O91971   5.572   3.695  13.560  0.0019  0.2648 -0.4771
  682MOL0     C91972   5.597   3.831  13.593 -0.2369 -0.0575 -0.2924
  682MOL0     C91973   5.603   3.857  13.743  1.0008 -0.8122  0.3711
  682MOL0     C91974   5.679   3.752  13.831  0.2651  0.0353 -0.0410
  682MOL0     C91975   5.683   3.772  13.983  0.0124 -0.3036 -0.5129
  682MOL0     C91976   5.726   3.650  14.065 -0.2121 -0.7519 -0.5843
  682MOL0     C91977   5.666   3.639  14.206  0.0079 -0.8116 -0.6614
  682MOL0     C91978   5.727   3.744  14.300  0.7527  1.5050 -0.2274
  682MOL0     C91979   5.667   3.750  14.444  0.2448  0.4682 -0.1672
  682MOL0    Cl91980   5.675   3.585  14.509  0.3446  0.3419 -0.0152
  682MOL0     C91981   5.588   3.731  13.316  1.1555  1.3009 -1.1054
  682MOL0     C91982   5.652   3.696  13.198  0.5902 -1.1208  0.2170
  682MOL0     O91983   5.565   3.489  12.985 -0.1891  0.2943 -0.1729
  682MOL0     C91984   5.751   3.530  12.742 -0.0846 -0.1999 -0.3582
  682MOL0     C91985   5.797   3.481  12.612 -0.5777 -0.7910 -0.5129
  682MOL0     N91986   5.611   3.736  12.138 -0.1118  0.4627 -0.0296
  682MOL0     N91987   5.634   3.837  12.061  0.1497 -0.2121  0.1234
  682MOL0     C91988   5.580   3.750  10.868  0.5157 -1.3291 -0.1197
  682MOL0     C91989   5.531   3.636  10.800 -1.0257  0.7548  0.3400
  682MOL0     C91990   5.416   3.245  10.668  0.5565 -0.6379  0.0682
  682MOL0     C91991   5.294   3.183  10.701  0.5177 -0.0377 -0.8993
  682MOL0     C91992   5.248   3.078  10.634  0.5040  0.1295 -0.0670
  682MOL0     C91993   5.309   3.028  10.518  0.6590 -0.5072 -0.8798
  682MOL0     O91994   5.275   2.921  10.445  0.1873  1.3105 -0.2736
  682MOL0     C91995   5.156   2.845  10.475 -0.1193  0.2221  0.7092
  682MOL0     C91996   5.131   2.746  10.357 -0.2554  0.3571 -0.9999
  682MOL0     C91997   5.167   2.792  10.213 -0.3785 -0.2544 -0.0300
  682MOL0     C91998   5.131   2.665  10.118  1.1740 -0.8535  0.7676
  682MOL0     C91999   5.226   2.545  10.144  0.1016 -0.0365  0.1147
  682MOL0     C92000   5.282   2.442  10.170 -0.6598  0.5057  0.2671
  682MOL0     C92001   5.426   3.089  10.476 -0.1266 -0.3655 -0.3941
  682MOL0     C92002   5.483   3.199  10.552 -0.2608  0.6083 -0.3736
  682MOL0     H92003   5.817   3.469  10.749  2.4696  0.6558  2.8334
  682MOL0     H92004   5.899   3.681  10.871 -0.0458  0.5583 -1.4656
  682MOL0     H92005   5.790   4.063  10.995  2.0252 -1.3019  0.0386
  682MOL0     H92006   5.657   4.016  10.891  0.7399 -0.0955 -0.6747
  682MOL0     H92007   5.583   4.099  11.100 -0.4458 -0.1221  0.3798
  682MOL0     H92008   5.537   3.930  11.083  2.9048 -3.1708  0.1306
  682MOL0     H92009   5.737   3.856  11.215 -1.9231 -0.8430  0.4670
  682MOL0     H92010   5.811   4.015  11.221 -1.9200  4.2069  0.1014
  682MOL0     H92011   5.623   4.109  11.356 -1.0539 -0.9661  0.0906
  682MOL0     H92012   5.528   3.974  11.317 -1.4163  1.3928  1.2572
  682MOL0     H92013   5.734   3.830  11.440 -0.1633  0.3662 -2.0842
  682MOL0     H92014   5.795   3.972  11.493  1.8999 -1.3871 -0.2094
  682MOL0     H92015   5.572   4.026  11.608  3.9466  0.3613  2.8681
  682MOL0     H92016   5.495   3.887  11.535  1.6438 -1.5938 -2.7046
  682MOL0     H92017   5.616   3.727  11.666  1.8741 -1.2456  1.8320
  682MOL0     H92018   5.738   3.842  11.714  0.4496 -1.0655 -2.6605
  682MOL0     H92019   5.466   3.884  11.798  0.3164 -1.7692 -2.1707
  682MOL0     H92020   5.608   3.974  11.855 -1.6479  0.8890 -0.0859
  682MOL0     H92021   5.507   3.601  11.867  2.5151 -1.7267  0.7300
  682MOL0     H92022   5.481   3.506  12.228  0.4591 -0.7037 -0.3253
  682MOL0     H92023   5.477   3.437  12.066  2.8253 -2.2845  0.0287
  682MOL0     H92024   5.759   3.477  12.128  0.8837 -0.7607  0.7667
  682MOL0     H92025   5.650   3.327  12.138 -5.5831 -0.3319  1.8746
  682MOL0     H92026   5.617   3.346  12.350 -2.3292  1.5801 -1.1947
  682MOL0     H92027   5.671   3.516  12.363  0.4441  1.9575 -4.4054
  682MOL0     H92028   5.904   3.443  12.351 -1.4087  1.6720 -1.2308
  682MOL0     H92029   5.864   3.297  12.268 -0.9180 -2.1975  0.1500
  682MOL0     H92030   5.816   3.147  12.656  0.6415 -0.1476 -0.9427
  682MOL0     H92031   5.866   3.123  12.910 -0.6299 -0.2120  0.0728
  682MOL0     H92032   5.857   3.258  13.013  0.2556 -0.1535 -0.4200
  682MOL0     H92033   5.706   3.167  12.970  0.0388  1.2116  2.5365
  682MOL0     H92034   5.760   3.392  13.279 -0.3846 -0.6882 -2.0138
  682MOL0     H92035   5.661   3.446  13.487  2.7023  1.8677  2.7887
  682MOL0     H92036   5.690   3.874  13.555 -0.3843 -0.0643 -0.6592
  682MOL0     H92037   5.513   3.884  13.547 -0.6894 -0.6947 -0.2197
  682MOL0     H92038   5.633   3.961  13.757  0.1613 -0.6032  0.7297
  682MOL0     H92039   5.498   3.856  13.775 -0.3097 -1.5542 -3.4245
  682MOL0     H92040   5.780   3.746  13.790 -0.2598  1.7027 -1.7192
  682MOL0     H92041   5.630   3.654  13.821  3.0593 -1.3398 -1.6413
  682MOL0     H92042   5.753   3.852  14.011  1.5081 -1.1426 -1.6850
  682MOL0     H92043   5.579   3.792  14.011  0.3578 -1.0576  1.4564
  682MOL0     H92044   5.836   3.650  14.067 -0.2026  0.6867  0.6429
  682MOL0     H92045   5.699   3.566  14.000 -0.8060 -0.3439 -0.8685
  682MOL0     H92046   5.557   3.633  14.197  0.1854 -1.8422 -2.6767
  682MOL0     H92047   5.699   3.542  14.247 -0.6703 -0.5228  0.6292
  682MOL0     H92048   5.713   3.845  14.259  2.3264 -0.1446 -5.6532
  682MOL0     H92049   5.833   3.716  14.295  0.2138 -0.4015 -3.0029
  682MOL0     H92050   5.565   3.786  14.436 -1.9331 -5.0773 -3.1686
  682MOL0     H92051   5.720   3.814  14.515  0.7529 -0.4810  0.3366
  682MOL0     H92052   5.541   3.828  13.317 -3.9517 -0.8831  0.7269
  682MOL0     H92053   5.637   3.772  13.123  0.3723  0.0199  1.3902
  682MOL0     H92054   5.739   3.636  12.760  0.7406 -0.0702 -0.5415
  682MOL0     H92055   5.813   3.551  12.531  0.1195 -2.1348 -1.5777
  682MOL0     H92056   5.509   3.820  10.910  2.3903  1.1846 -0.9151
  682MOL0     H92057   5.424   3.624  10.783 -1.2827  0.0754  2.2172
  682MOL0     H92058   5.215   3.223  10.763  0.5824  0.7258 -1.2889
  682MOL0     H92059   5.150   3.047  10.669  0.9240 -0.9915  0.1571
  682MOL0     H92060   5.167   2.785  10.567 -1.4514  0.3674  0.9818
  682MOL0     H92061   5.073   2.916  10.483  1.9726  2.6374  3.0329
  682MOL0     H92062   5.022   2.742  10.362 -0.2897 -3.7016 -1.9351
  682MOL0     H92063   5.168   2.644  10.371 -3.9955 -1.0120 -0.1087
  682MOL0     H92064   5.276   2.795  10.205 -0.0996  0.7850  3.0054
  682MOL0     H92065   5.124   2.889  10.186 -1.0685  0.0761  2.1302
  682MOL0     H92066   5.143   2.693  10.013  1.5834 -0.0418  1.0250
  682MOL0     H92067   5.028   2.636  10.142  0.1942  2.3963  0.8713
  682MOL0     H92068   5.327   2.345  10.180 -3.0051 -0.6741 -0.0896
  682MOL0     H92069   5.485   3.046  10.396  3.0424 -2.6990  2.8781
  682MOL0     H92070   5.575   3.250  10.528  1.2505 -0.6827  2.2196
  683MOL0     O92071   3.593   4.790   3.406 -0.0164  0.1156  0.0906
  683MOL0     C92072   3.575   4.797   3.525  0.4501  0.0869  0.5202
  683MOL0     O92073   3.610   4.698   3.611  0.1612  0.5248 -0.0544
  683MOL0     C92074   3.660   4.568   3.584  0.3571  0.2442  0.1880
  683MOL0     C92075   3.703   4.494   3.697  0.6877 -0.2169  0.1545
  683MOL0     C92076   3.772   4.371   3.686 -0.0223  0.1699  0.1543
  683MOL0     C92077   3.784   4.310   3.562  0.1761 -0.2315 -0.4313
  683MOL0     O92078   3.825   4.173   3.567 -0.5133  0.3876  0.1001
  683MOL0     C92079   3.892   4.117   3.456 -0.8151 -0.1360 -0.0720
  683MOL0     C92080   3.927   3.977   3.488  0.1571 -0.2714 -0.5540
  683MOL0     C92081   3.809   3.885   3.506  0.4937 -0.2497 -0.4352
  683MOL0     C92082   3.848   3.740   3.506  0.0679  0.1527  0.4233
  683MOL0     C92083   3.854   3.697   3.655 -0.4418 -0.0375  0.6744
  683MOL0     C92084   3.949   3.583   3.677  0.0667 -0.7363 -0.6041
  683MOL0     C92085   3.910   3.489   3.794 -0.1397 -0.4476 -0.3093
  683MOL0     C92086   4.036   3.415   3.840  0.2998  0.9207  0.1537
  683MOL0     N92087   4.119   3.357   3.740  0.0775  0.1298  0.2100
  683MOL0     C92088   4.107   3.245   3.665 -0.4045 -0.6486 -0.2855
  683MOL0     C92089   4.226   3.220   3.599  0.2029  0.6348 -0.0448
  683MOL0     C92090   4.241   3.111   3.496 -0.6318  0.6980  0.3549
  683MOL0     C92091   4.396   3.083   3.476  0.5631 -0.7300 -0.1908
  683MOL0     C92092   4.415   2.979   3.376 -0.3357 -0.0325 -0.0908
  683MOL0     C92093   4.570   2.953   3.360 -0.1536 -0.3632 -0.2779
  683MOL0     O92094   4.605   2.873   3.476 -0.5082 -0.7657  0.1093
  683MOL0     C92095   4.720   2.904   3.548 -0.4557 -1.2695  0.4200
  683MOL0     C92096   4.749   3.032   3.587  0.2112 -0.7185  1.2124
  683MOL0     C92097   4.873   3.079   3.633 -0.0718  0.3983 -0.0216
  683MOL0     C92098   4.891   3.226   3.652 -0.5885  0.3592  0.2024
  683MOL0     C92099   4.977   2.980   3.653 -0.1350  0.0952 -0.5455
  683MOL0     C92100   5.114   3.021   3.690 -0.2520  0.1362 -0.2927
  683MOL0     O92101   5.185   2.956   3.786  0.6686  0.2548 -0.0183
  683MOL0     C92102   5.299   2.998   3.840  0.0043 -0.1462  0.5929
  683MOL0     C92103   5.407   3.011   3.757 -0.0349  0.9228  0.1969
  683MOL0     C92104   5.527   3.062   3.809 -0.6736  0.6121  0.3540
  683MOL0     C92105   5.541   3.096   3.945  0.1676 -0.2953 -0.4126
  683MOL0     O92106   5.664   3.139   3.993  0.2690  0.5755 -0.2897
  683MOL0     C92107   5.668   3.222   4.110  0.0953 -0.4583  0.0862
  683MOL0     C92108   5.812   3.268   4.132  0.2812 -0.1054 -1.0288
  683MOL0     C92109   5.924   3.154   4.141 -0.2815 -0.0447 -0.2263
  683MOL0     C92110   5.902   3.049   4.237 -0.8484  0.6616  0.3002
  683MOL0     C92111   5.989   2.926   4.220 -1.1519 -0.0668  0.0501
  683MOL0     C92112   6.144   2.957   4.200 -0.9782 -0.6698  0.9608
  683MOL0     C92113   6.222   2.824   4.184 -0.0412 -1.3382 -0.3802
  683MOL0     C92114   6.370   2.832   4.209  0.1113 -0.2227 -0.1884
  683MOL0    Cl92115   6.399   2.871   4.375 -0.2069 -0.7278 -0.3220
  683MOL0     C92116   5.430   3.061   4.025  0.4440  0.3717  0.1614
  683MOL0     C92117   5.306   3.017   3.977  0.4642  0.6460 -0.4564
  683MOL0     O92118   5.151   3.122   3.630 -0.0340 -0.2867 -0.4112
  683MOL0     C92119   4.940   2.848   3.637 -0.6790 -0.7816  0.6413
  683MOL0     C92120   4.818   2.811   3.584 -0.8392 -0.6359 -0.3303
  683MOL0     N92121   4.311   3.320   3.634  0.4802 -0.5091  0.5691
  683MOL0     N92122   4.239   3.402   3.702 -0.4048 -0.0281  0.1245
  683MOL0     C92123   3.739   4.376   3.451  0.0285 -1.3044  0.3507
  683MOL0     C92124   3.663   4.502   3.459  0.1769 -0.0124 -0.1569
  683MOL0     C92125   3.539   4.934   3.573  0.3739 -0.2218 -0.5534
  683MOL0     C92126   3.514   5.048   3.487  0.5614  0.2110 -0.2552
  683MOL0     C92127   3.442   5.157   3.537  0.3176  0.2497 -0.0095
  683MOL0     C92128   3.410   5.172   3.665 -0.4391 -0.8584  0.9470
  683MOL0     O92129   3.333   5.284   3.695 -0.4083  0.1663 -0.1147
  683MOL0     C92130   3.287   5.292   3.837 -0.2664  0.4613 -1.1085
  683MOL0     C92131   3.180   5.190   3.874  0.5734  0.6606  0.1071
  683MOL0     C92132   3.132   5.222   4.016 -0.4668 -1.1466  0.2951
  683MOL0     C92133   3.013   5.130   4.044 -0.3348  0.0672 -0.6246
  683MOL0     C92134   3.010   5.062   4.171 -0.1370  0.0898  0.0845
  683MOL0     C92135   2.997   5.013   4.279  0.3392 -0.0836  0.4050
  683MOL0     C92136   3.458   5.080   3.753 -0.6785 -0.0767 -0.0748
  683MOL0     C92137   3.508   4.954   3.710 -0.2872 -0.2798 -0.3465
  683MOL0     H92138   3.711   4.533   3.798  0.4535  1.6498 -0.4921
  683MOL0     H92139   3.814   4.311   3.766  0.3204  0.0502 -0.1113
  683MOL0     H92140   3.823   4.115   3.371 -3.4411  2.7426  1.7930
  683MOL0     H92141   3.972   4.184   3.423 -3.0623  1.5138 -2.6287
  683MOL0     H92142   3.993   3.930   3.415  0.9445 -1.2460  0.7263
  683MOL0     H92143   3.992   3.984   3.576  0.2802  0.7267 -0.7068
  683MOL0     H92144   3.737   3.913   3.585 -1.7265 -1.4337 -1.9265
  683MOL0     H92145   3.748   3.901   3.417 -0.4715 -0.7685  0.1056
  683MOL0     H92146   3.768   3.676   3.465  0.4902 -2.6259  3.4793
  683MOL0     H92147   3.927   3.717   3.434 -0.1436 -1.2293  0.5942
  683MOL0     H92148   3.881   3.788   3.710  1.2374 -0.5243  0.7123
  683MOL0     H92149   3.755   3.659   3.681 -0.8330 -0.5874 -1.4353
  683MOL0     H92150   3.958   3.527   3.584 -1.8653 -3.7995  0.8864
  683MOL0     H92151   4.048   3.625   3.697 -0.4657  0.3157 -0.0410
  683MOL0     H92152   3.875   3.552   3.877 -0.0094  1.0679 -1.3581
  683MOL0     H92153   3.836   3.418   3.755 -0.7994 -0.0095  0.1090
  683MOL0     H92154   4.007   3.341   3.915 -0.2678  1.9434  0.9638
  683MOL0     H92155   4.097   3.487   3.895 -0.0898  0.8783  0.6440
  683MOL0     H92156   4.016   3.185   3.663 -0.2735 -0.9082  0.9467
  683MOL0     H92157   4.198   3.018   3.534 -0.0797  0.4574  0.4086
  683MOL0     H92158   4.196   3.141   3.401  0.5634 -1.9998 -1.1948
  683MOL0     H92159   4.444   3.056   3.569 -0.7246 -2.0778  0.1251
  683MOL0     H92160   4.443   3.177   3.443 -2.9917  0.7684 -1.6006
  683MOL0     H92161   4.383   3.011   3.276  0.8703  1.2669 -0.0848
  683MOL0     H92162   4.360   2.886   3.395 -3.0974  1.0033 -2.2520
  683MOL0     H92163   4.626   3.044   3.339 -1.2904  0.5488  0.5209
  683MOL0     H92164   4.587   2.888   3.273 -0.0567 -0.8744  0.1143
  683MOL0     H92165   4.667   3.103   3.582  2.9739  2.8751  2.5681
  683MOL0     H92166   4.928   3.257   3.750  2.4643  1.2851 -1.1301
  683MOL0     H92167   4.948   3.278   3.575  0.5958 -1.4418 -0.1990
  683MOL0     H92168   4.800   3.282   3.628  0.1677  0.4932 -2.7679
  683MOL0     H92169   5.377   2.991   3.654 -0.7025 -2.5528  0.9471
  683MOL0     H92170   5.615   3.073   3.746 -0.3337  2.4301  1.1119
  683MOL0     H92171   5.603   3.304   4.080  1.1378  0.0663 -0.8038
  683MOL0     H92172   5.630   3.168   4.197  0.8739 -0.5869  0.3578
  683MOL0     H92173   5.846   3.315   4.040 -0.5873 -1.0118 -1.8349
  683MOL0     H92174   5.812   3.335   4.219  1.0199  1.6181 -2.3191
  683MOL0     H92175   6.015   3.210   4.164 -0.1361  1.3102 -3.4613
  683MOL0     H92176   5.947   3.115   4.041  0.0165  1.9725 -1.0012
  683MOL0     H92177   5.917   3.095   4.335 -0.8517  0.0885  0.5691
  683MOL0     H92178   5.799   3.013   4.231  0.6513 -3.9525 -1.9822
  683MOL0     H92179   5.954   2.875   4.129  0.9076  0.3965 -1.0709
  683MOL0     H92180   5.980   2.850   4.299  1.5215 -0.1011  0.4417
  683MOL0     H92181   6.168   3.014   4.110  3.4659 -3.6534 -0.0974
  683MOL0     H92182   6.192   3.009   4.284  1.9099 -2.9263  0.8648
  683MOL0     H92183   6.209   2.792   4.080  1.7927  0.7423 -1.3239
  683MOL0     H92184   6.170   2.753   4.249 -0.8577  0.3635  0.9204
  683MOL0     H92185   6.413   2.916   4.154 -0.6663 -0.1668 -0.7291
  683MOL0     H92186   6.405   2.734   4.175 -4.6455 -2.8318  1.4450
  683MOL0     H92187   5.425   3.091   4.129 -4.5337  0.2617  0.2003
  683MOL0     H92188   5.212   3.012   4.032  1.1287  2.9459  1.0060
  683MOL0     H92189   5.012   2.771   3.661 -0.1914 -1.1471 -1.7039
  683MOL0     H92190   4.801   2.704   3.573  0.2224 -0.7883 -0.5975
  683MOL0     H92191   3.740   4.325   3.356 -4.1504 -2.2339  0.5982
  683MOL0     H92192   3.617   4.544   3.370 -0.1123 -0.7176 -0.3440
  683MOL0     H92193   3.532   5.049   3.380 -0.5968  0.3758 -0.4685
  683MOL0     H92194   3.431   5.244   3.473 -0.1199  0.0929 -0.1508
  683MOL0     H92195   3.370   5.275   3.907 -0.0869 -0.8803 -1.6292
  683MOL0     H92196   3.250   5.392   3.862  0.3628  0.5368 -0.4275
  683MOL0     H92197   3.220   5.089   3.874 -3.4211 -1.1485 -1.2863
  683MOL0     H92198   3.093   5.207   3.809  0.0104  1.8554  1.1413
  683MOL0     H92199   3.099   5.325   4.029 -2.2302 -1.9777  3.7623
  683MOL0     H92200   3.219   5.201   4.080  1.1627  0.0595 -1.4301
  683MOL0     H92201   3.032   5.043   3.980  3.6317  0.4421 -0.2475
  683MOL0     H92202   2.918   5.181   4.028 -0.4214 -0.2876 -1.2978
  683MOL0     H92203   2.988   4.975   4.379 -0.2766  2.0486  1.2223
  683MOL0     H92204   3.446   5.098   3.860  0.0418  0.5994 -0.0949
  683MOL0     H92205   3.549   4.887   3.785 -0.3201 -0.9562 -0.9187
  684MOL0     O92206   9.458   3.980   0.970  0.3527  0.2509 -0.1390
  684MOL0     C92207   9.464   4.068   1.058  0.3569 -0.2205  0.6573
  684MOL0     O92208   9.414   4.192   1.040  0.0196 -0.1808  0.1071
  684MOL0     C92209   9.352   4.221   0.923  0.2675  0.7574 -0.3821
  684MOL0     C92210   9.425   4.295   0.830 -0.3719 -0.4444  1.0349
  684MOL0     C92211   9.355   4.336   0.713  0.2946 -0.5520 -0.4789
  684MOL0     C92212   9.229   4.291   0.693  0.5878  0.2128 -0.0846
  684MOL0     O92213   9.166   4.320   0.577  0.0594 -0.1659  0.0419
  684MOL0     C92214   9.235   4.302   0.451 -0.1631  0.6226  0.4298
  684MOL0     C92215   9.131   4.287   0.335 -0.1465  0.8087 -0.0247
  684MOL0     C92216   9.066   4.146   0.329  0.0333 -0.2845  0.8674
  684MOL0     C92217   9.147   4.031   0.272  1.0831 -0.2280 -0.6991
  684MOL0     C92218   9.081   3.895   0.311  0.3044  0.5772 -0.5672
  684MOL0     C92219   8.932   3.870   0.280  0.7191  0.1311 -0.1357
  684MOL0     C92220   8.869   3.729   0.295  0.3772  0.0836  0.1620
  684MOL0     C92221   8.854   3.692   0.444  0.8060  0.7633 -0.6263
  684MOL0     N92222   8.775   3.574   0.460  0.1096  0.6489 -0.0338
  684MOL0     C92223   8.822   3.447   0.436 -0.1512 -0.8010  0.0398
  684MOL0     C92224   8.720   3.360   0.474  0.4275  0.2071 -0.0392
  684MOL0     C92225   8.724   3.209   0.473  0.0549 -0.7231 -0.0727
  684MOL0     C92226   8.661   3.156   0.349 -0.2263  0.4333 -0.3465
  684MOL0     C92227   8.511   3.146   0.352 -0.2861  0.1346  0.0736
  684MOL0     C92228   8.442   3.139   0.209 -0.1076  0.4959 -0.8592
  684MOL0     O92229   8.410   3.001   0.183 -0.7523 -0.3121  0.6832
  684MOL0     C92230   8.436   2.938   0.063  0.1925 -0.5573  1.5787
  684MOL0     C92231   8.478   2.812   0.052 -0.2854  0.3155  0.0411
  684MOL0     C92232   8.502   2.739  -0.073 -0.0609  0.4014 -1.2642
  684MOL0     C92233   8.535   2.596  -0.075  0.7808  0.9776 -0.5191
  684MOL0     C92234   8.481   2.815  -0.196 -0.1516 -0.6050  0.0194
  684MOL0     C92235   8.514   2.767  -0.327 -0.4128 -0.4470  0.1690
  684MOL0     O92236   8.484   2.854  -0.421 -0.6481 -0.0595 -0.2357
  684MOL0     C92237   8.497   2.823  -0.554  0.2773  0.0350  0.8127
  684MOL0     C92238   8.549   2.915  -0.652  0.3486 -0.6136  0.1307
  684MOL0     C92239   8.577   2.886  -0.782 -0.5486  0.4432  0.1062
  684MOL0     C92240   8.542   2.756  -0.822 -0.6083  0.3666 -0.4617
  684MOL0     O92241   8.564   2.711  -0.953 -0.2686  0.3348  0.0639
  684MOL0     C92242   8.702   2.672  -0.976 -0.3712  1.3754 -1.0667
  684MOL0     C92243   8.744   2.733  -1.109 -0.4089 -0.1612  0.6468
  684MOL0     C92244   8.742   2.882  -1.121  0.6808 -0.3215  0.3021
  684MOL0     C92245   8.814   2.932  -1.235  0.4821  0.0990 -0.2788
  684MOL0     C92246   8.782   3.085  -1.248 -0.7943 -0.4052 -0.0926
  684MOL0     C92247   8.840   3.187  -1.150 -0.6988  0.1155 -0.9540
  684MOL0     C92248   8.791   3.328  -1.188  0.6385  0.4336  1.2164
  684MOL0     C92249   8.865   3.444  -1.105 -0.5525  0.1561  0.2961
  684MOL0    Cl92250   8.818   3.597  -1.181  0.1064  0.1566  0.3372
  684MOL0     C92251   8.472   2.669  -0.733 -0.1525  1.1852  0.1333
  684MOL0     C92252   8.459   2.691  -0.596 -0.6215  0.0765 -0.2738
  684MOL0     O92253   8.589   2.665  -0.348  0.1431 -0.6113  0.0751
  684MOL0     C92254   8.439   2.949  -0.178  0.6419  0.0643  0.2424
  684MOL0     C92255   8.423   3.017  -0.060 -0.3312  0.2788  0.1921
  684MOL0     N92256   8.617   3.441   0.521  0.7240 -0.4946  0.0504
  684MOL0     N92257   8.648   3.565   0.502  0.0707  0.3454 -0.2226
  684MOL0     C92258   9.166   4.209   0.781  0.1172 -0.2486 -0.6834
  684MOL0     C92259   9.229   4.166   0.900  0.7179  0.1683 -0.6551
  684MOL0     C92260   9.539   4.042   1.193 -0.3426  0.0530 -0.6742
  684MOL0     C92261   9.578   3.916   1.231 -0.3416 -0.6608  0.5482
  684MOL0     C92262   9.654   3.899   1.352  0.0006  0.6242  0.0575
  684MOL0     C92263   9.687   4.004   1.437  0.2743  0.2227 -0.2693
  684MOL0     O92264   9.763   3.980   1.551 -0.0384  0.3710 -0.8624
  684MOL0     C92265   9.802   4.087   1.629  0.0792  0.5804 -0.1082
  684MOL0     C92266   9.910   4.184   1.584 -0.4749  0.1774  0.4281
  684MOL0     C92267  10.045   4.129   1.548 -0.2378  0.5006  0.1351
  684MOL0     C92268  10.136   4.220   1.467  0.3954 -1.2917 -0.2884
  684MOL0     C92269  10.164   4.351   1.535 -0.5189 -0.1346  0.2940
  684MOL0     C92270  10.191   4.453   1.592  0.2247 -0.6156 -0.1348
  684MOL0     C92271   9.640   4.128   1.395 -0.4906 -0.2351 -0.3812
  684MOL0     C92272   9.574   4.152   1.273  0.6069  0.8526  0.2099
  684MOL0     H92273   9.530   4.316   0.850  1.2937 -5.2146 -1.3355
  684MOL0     H92274   9.403   4.417   0.658  0.5060  0.2067  0.7787
  684MOL0     H92275   9.305   4.386   0.439  0.2382  0.2422  0.0818
  684MOL0     H92276   9.291   4.209   0.453 -0.2572  0.5536 -0.0633
  684MOL0     H92277   9.045   4.354   0.339 -0.9918  0.1379 -3.5385
  684MOL0     H92278   9.191   4.306   0.245  2.7648  2.0188  2.0028
  684MOL0     H92279   9.039   4.117   0.431  1.8190  0.1844  1.5168
  684MOL0     H92280   8.973   4.144   0.271  1.0857 -0.2513 -0.9086
  684MOL0     H92281   9.157   4.040   0.164  1.4024 -0.2973 -0.6772
  684MOL0     H92282   9.248   4.042   0.313  0.6373  1.1870  0.0705
  684MOL0     H92283   9.138   3.809   0.274 -1.5853 -0.9862 -0.0663
  684MOL0     H92284   9.085   3.886   0.420 -0.4127 -1.0430 -0.6354
  684MOL0     H92285   8.869   3.936   0.341 -1.8809 -0.5147 -2.0004
  684MOL0     H92286   8.916   3.910   0.179  0.7041 -0.8199 -0.5195
  684MOL0     H92287   8.773   3.713   0.245  0.8588 -2.1357 -0.1625
  684MOL0     H92288   8.940   3.660   0.250  0.0497  1.0137 -1.8995
  684MOL0     H92289   8.799   3.771   0.494  1.6943 -0.6447  2.8595
  684MOL0     H92290   8.953   3.687   0.491  0.3613  3.4005  0.7641
  684MOL0     H92291   8.918   3.408   0.403  0.8550  0.4457  1.3674
  684MOL0     H92292   8.830   3.186   0.467  0.7026  1.2733  2.2254
  684MOL0     H92293   8.669   3.171   0.560 -0.7071  3.7302  1.6641
  684MOL0     H92294   8.708   3.057   0.347 -2.4445 -0.7082  0.5252
  684MOL0     H92295   8.703   3.215   0.267  1.9398  0.6877  0.8483
  684MOL0     H92296   8.470   3.237   0.397  2.6936  1.6308 -0.0177
  684MOL0     H92297   8.489   3.051   0.402 -1.3804  0.2596 -0.1449
  684MOL0     H92298   8.509   3.180   0.133  1.0146  2.7562  1.2153
  684MOL0     H92299   8.354   3.204   0.212 -1.6763 -1.5156 -0.9446
  684MOL0     H92300   8.482   2.772   0.152  0.7169 -0.5709 -0.3379
  684MOL0     H92301   8.535   2.551   0.025 -1.4026  1.4471 -0.2390
  684MOL0     H92302   8.479   2.534  -0.146 -2.7456  3.2244  0.0050
  684MOL0     H92303   8.640   2.601  -0.104 -0.1580  2.0913 -4.3038
  684MOL0     H92304   8.582   3.015  -0.625  0.3243 -0.8490  1.0576
  684MOL0     H92305   8.621   2.957  -0.851 -2.5194  0.8629 -0.8126
  684MOL0     H92306   8.764   2.714  -0.896 -0.6661 -1.4704  0.7626
  684MOL0     H92307   8.733   2.568  -0.978 -3.0495  0.4874 -0.5998
  684MOL0     H92308   8.846   2.703  -1.134  0.0570 -0.6226  2.8908
  684MOL0     H92309   8.679   2.692  -1.186 -2.4731  1.0987  1.6071
  684MOL0     H92310   8.782   2.919  -1.027 -0.6972  0.0020  0.7804
  684MOL0     H92311   8.642   2.927  -1.119  0.6194 -0.2659 -1.5923
  684MOL0     H92312   8.920   2.918  -1.213  0.4757 -0.5605 -0.6405
  684MOL0     H92313   8.797   2.879  -1.330 -1.5365 -0.2138  0.2066
  684MOL0     H92314   8.674   3.098  -1.238 -0.7243 -0.4793  0.8120
  684MOL0     H92315   8.813   3.100  -1.352 -1.9639 -1.5339 -0.6156
  684MOL0     H92316   8.798   3.144  -1.059  2.9125 -2.9724 -0.4562
  684MOL0     H92317   8.949   3.180  -1.142 -0.3398  0.0733 -4.3889
  684MOL0     H92318   8.686   3.337  -1.158  0.0875  1.7452 -0.9043
  684MOL0     H92319   8.799   3.343  -1.296  1.6063  2.7103  1.5449
  684MOL0     H92320   8.973   3.428  -1.117 -0.6596  0.2402 -0.8336
  684MOL0     H92321   8.841   3.441  -0.998  1.4700  1.4446  0.8378
  684MOL0     H92322   8.468   2.567  -0.769  2.7071  1.8640 -2.5428
  684MOL0     H92323   8.405   2.621  -0.534 -2.6025  1.1715 -0.6473
  684MOL0     H92324   8.428   3.014  -0.264 -2.2881  2.6621  2.3414
  684MOL0     H92325   8.394   3.120  -0.042  1.3288  0.7198  0.5226
  684MOL0     H92326   9.069   4.169   0.754 -0.8003  1.1103  0.4542
  684MOL0     H92327   9.182   4.105   0.976  3.7075  1.4248  2.4749
  684MOL0     H92328   9.550   3.827   1.174 -0.5040 -1.8693  2.4414
  684MOL0     H92329   9.683   3.800   1.387 -2.6815 -0.2886 -0.0081
  684MOL0     H92330   9.714   4.148   1.648 -1.3055 -1.0812 -0.9301
  684MOL0     H92331   9.837   4.046   1.725 -1.3854  1.0189  0.6312
  684MOL0     H92332   9.927   4.253   1.667  2.4476 -1.8352  1.6949
  684MOL0     H92333   9.869   4.243   1.501  2.0113  1.3351 -0.0621
  684MOL0     H92334  10.042   4.032   1.498  0.3623 -0.0305  1.1018
  684MOL0     H92335  10.099   4.106   1.640 -0.3207  2.6284  0.7824
  684MOL0     H92336  10.087   4.237   1.371 -1.9692 -0.2624  1.0176
  684MOL0     H92337  10.238   4.180   1.464  1.2462  0.6929  0.4969
  684MOL0     H92338  10.212   4.540   1.650 -2.5292 -0.0961  0.2354
  684MOL0     H92339   9.656   4.216   1.457 -3.1162 -0.8357  1.3133
  684MOL0     H92340   9.551   4.254   1.244  0.7434  0.4203 -1.5424
  685MOL0     O92341   6.620   3.766   1.878 -0.7285  0.8520  1.2090
  685MOL0     C92342   6.616   3.744   1.999 -0.1087  0.1685  0.1959
  685MOL0     O92343   6.636   3.625   2.059 -0.5266  0.3808  0.4562
  685MOL0     C92344   6.634   3.519   1.973  0.4863  0.1457  0.4589
  685MOL0     C92345   6.514   3.452   1.927 -0.4979  0.0752 -0.7768
  685MOL0     C92346   6.506   3.350   1.827  0.3939  0.5363 -0.3345
  685MOL0     C92347   6.623   3.307   1.775 -0.2728  0.0642  0.2199
  685MOL0     O92348   6.629   3.187   1.706 -0.1652  0.0895  0.2395
  685MOL0     C92349   6.533   3.159   1.606  0.3185 -0.3593 -0.6590
  685MOL0     C92350   6.595   3.111   1.484  0.2897  0.2210  0.6327
  685MOL0     C92351   6.507   3.126   1.360  0.0623 -0.7568  0.9999
  685MOL0     C92352   6.571   3.099   1.223 -1.3309  0.0920  0.3935
  685MOL0     C92353   6.472   3.127   1.111  0.3617  0.2693 -0.8005
  685MOL0     C92354   6.398   2.997   1.078 -0.5982 -0.4078 -1.0237
  685MOL0     C92355   6.264   3.013   1.002 -0.4492  0.0251  0.0545
  685MOL0     C92356   6.136   2.984   1.084 -1.0071 -1.6710 -0.7740
  685MOL0     N92357   6.131   3.048   1.219 -0.4387 -0.0319  0.4944
  685MOL0     C92358   6.117   3.187   1.243 -0.3669 -0.6529 -0.1317
  685MOL0     C92359   6.134   3.205   1.376 -0.3437  0.5765  0.4222
  685MOL0     C92360   6.128   3.342   1.440  0.1436 -1.0798 -0.5189
  685MOL0     C92361   6.139   3.330   1.593  0.1276  0.5728  0.4834
  685MOL0     C92362   6.126   3.447   1.675  0.9020 -0.6500 -0.9454
  685MOL0     C92363   6.209   3.571   1.653 -0.2359  1.1998  0.3387
  685MOL0     O92364   6.213   3.656   1.772  0.0407  0.3251 -0.8866
  685MOL0     C92365   6.108   3.741   1.797  0.6556 -0.4071 -0.4779
  685MOL0     C92366   6.033   3.808   1.694 -0.6769  0.0262  0.5638
  685MOL0     C92367   5.940   3.900   1.733 -0.7965  0.8530  0.4502
  685MOL0     C92368   5.896   3.987   1.614 -0.9930 -0.7174 -1.0409
  685MOL0     C92369   5.904   3.928   1.872 -1.0162 -0.0644  0.5889
  685MOL0     C92370   5.822   4.043   1.912  0.2930 -0.7343 -0.6284
  685MOL0     O92371   5.848   4.091   2.042  0.3933  0.1353  0.0160
  685MOL0     C92372   5.788   4.206   2.095 -1.0710  0.2271 -0.1629
  685MOL0     C92373   5.715   4.308   2.029 -1.2906  0.7284 -0.2613
  685MOL0     C92374   5.650   4.411   2.112  0.1229 -0.5498  0.2860
  685MOL0     C92375   5.671   4.406   2.253 -0.5844  0.7732  0.8654
  685MOL0     O92376   5.617   4.505   2.334  0.2132  0.0747 -0.5627
  685MOL0     C92377   5.629   4.637   2.281  0.8465  0.2014  0.2491
  685MOL0     C92378   5.776   4.682   2.241  0.0398  0.5089  0.0884
  685MOL0     C92379   5.792   4.826   2.269 -0.3866 -0.0924 -1.0606
  685MOL0     C92380   5.753   4.901   2.144  0.2051  0.3140  0.4948
  685MOL0     C92381   5.781   5.049   2.169 -0.1460  0.1926 -0.3411
  685MOL0     C92382   5.771   5.122   2.041  0.1057  0.2861 -0.2263
  685MOL0     C92383   5.627   5.102   1.981 -0.7895  0.1869 -0.0220
  685MOL0     C92384   5.619   5.205   1.882 -0.2487 -0.1509  1.0102
  685MOL0    Cl92385   5.730   5.197   1.741  0.0339  0.2807 -0.1596
  685MOL0     C92386   5.749   4.308   2.310  0.4664  0.5500 -0.3143
  685MOL0     C92387   5.805   4.214   2.236  0.2433 -0.3281  0.3268
  685MOL0     O92388   5.744   4.091   1.832 -0.2972 -0.2150  0.0977
  685MOL0     C92389   5.975   3.852   1.967  0.1839 -0.3743 -0.5194
  685MOL0     C92390   6.083   3.766   1.932  0.2649 -0.4388  0.2617
  685MOL0     N92391   6.167   3.085   1.437  0.1957 -0.0822  0.1616
  685MOL0     N92392   6.173   2.993   1.342  0.4008  0.1035  1.0935
  685MOL0     C92393   6.744   3.364   1.817  0.7138 -1.1798  0.3686
  685MOL0     C92394   6.749   3.482   1.909  0.7300 -0.1019 -0.4866
  685MOL0     C92395   6.601   3.874   2.080 -0.3249  0.8902 -0.9818
  685MOL0     C92396   6.579   3.997   2.024 -0.0643  0.2795  0.4721
  685MOL0     C92397   6.547   4.102   2.112  0.3600 -0.1760 -0.0536
  685MOL0     C92398   6.549   4.094   2.253 -0.0745 -0.3560  0.1527
  685MOL0     O92399   6.508   4.196   2.330 -0.7952 -0.1298 -0.5769
  685MOL0     C92400   6.556   4.224   2.460 -0.7209  0.2471 -0.4815
  685MOL0     C92401   6.715   4.216   2.472 -0.1099 -0.3492 -0.0374
  685MOL0     C92402   6.755   4.292   2.600  0.4654 -0.3026 -0.1022
  685MOL0     C92403   6.909   4.293   2.626  0.4527 -0.1373 -0.7396
  685MOL0     C92404   6.955   4.165   2.679  0.3915  1.1503  1.1161
  685MOL0     C92405   6.991   4.052   2.710 -0.2398 -0.9736 -0.2449
  685MOL0     C92406   6.576   3.966   2.303  0.1400  1.6477  0.1706
  685MOL0     C92407   6.591   3.854   2.217 -0.8168 -0.3190  0.5272
  685MOL0     H92408   6.419   3.488   1.966 -1.4557 -1.0649 -1.9488
  685MOL0     H92409   6.411   3.304   1.805  1.0773 -0.3823 -1.4878
  685MOL0     H92410   6.468   3.075   1.631 -1.1486 -0.5351 -4.3602
  685MOL0     H92411   6.457   3.237   1.600 -0.8747 -1.2980  1.2862
  685MOL0     H92412   6.680   3.179   1.471  0.4054 -0.1664 -0.8731
  685MOL0     H92413   6.625   3.006   1.491 -0.5379  0.0288  1.3807
  685MOL0     H92414   6.424   3.055   1.365 -1.3466  0.8264  0.9368
  685MOL0     H92415   6.472   3.229   1.363 -1.0615 -1.1358  2.4232
  685MOL0     H92416   6.669   3.143   1.205 -0.3162 -1.2531  2.3177
  685MOL0     H92417   6.591   2.991   1.221 -2.7525 -0.1986  0.7344
  685MOL0     H92418   6.403   3.206   1.142  0.4012  0.1513 -0.4075
  685MOL0     H92419   6.511   3.172   1.019 -0.2671 -0.8257 -1.6300
  685MOL0     H92420   6.466   2.929   1.026  1.0480  0.2129  0.2183
  685MOL0     H92421   6.375   2.944   1.171 -0.8016 -2.1788 -2.0439
  685MOL0     H92422   6.265   3.113   0.957  2.2425 -0.5718 -1.4315
  685MOL0     H92423   6.258   2.945   0.916 -1.0544  0.1272  0.0130
  685MOL0     H92424   6.138   2.876   1.105  1.5471 -1.6003 -0.3272
  685MOL0     H92425   6.045   3.000   1.026 -1.1222 -2.4163 -0.8107
  685MOL0     H92426   6.084   3.261   1.171 -3.2051 -0.9697  0.7353
  685MOL0     H92427   6.209   3.409   1.411 -0.0369 -0.5337  0.1987
  685MOL0     H92428   6.029   3.379   1.413  0.0446 -2.1054 -1.6673
  685MOL0     H92429   6.231   3.277   1.622 -1.7576 -3.1849  0.1824
  685MOL0     H92430   6.066   3.256   1.625  0.0428  1.0386  1.4033
  685MOL0     H92431   6.116   3.407   1.776  0.9570 -1.1560 -1.1329
  685MOL0     H92432   6.022   3.476   1.659  0.9674 -0.2241 -0.6100
  685MOL0     H92433   6.170   3.611   1.560 -0.4692 -2.2241 -1.2052
  685MOL0     H92434   6.311   3.543   1.624 -0.0817  1.1907  0.8740
  685MOL0     H92435   6.071   3.802   1.593  1.7690  1.5033  1.2850
  685MOL0     H92436   5.918   3.938   1.519  2.0999 -1.7937  0.1233
  685MOL0     H92437   5.787   3.998   1.611 -0.7202  2.8671 -3.0688
  685MOL0     H92438   5.946   4.083   1.624 -2.1091 -0.2487  0.3956
  685MOL0     H92439   5.711   4.308   1.921  1.6772  0.5888 -0.4729
  685MOL0     H92440   5.597   4.489   2.059  1.1665  1.0515  1.5077
  685MOL0     H92441   5.559   4.654   2.198  1.8425  0.6838 -0.5206
  685MOL0     H92442   5.594   4.695   2.367 -2.9257  1.8629 -2.1129
  685MOL0     H92443   5.849   4.631   2.305  0.4591  3.2878  2.0476
  685MOL0     H92444   5.794   4.657   2.136  0.3095  1.4048 -0.0819
  685MOL0     H92445   5.893   4.840   2.310 -1.2397 -2.3115  2.1518
  685MOL0     H92446   5.729   4.859   2.353 -1.5716 -0.5477 -1.7569
  685MOL0     H92447   5.821   4.858   2.070 -1.0180  0.6320 -0.8539
  685MOL0     H92448   5.647   4.887   2.125 -0.1133  1.2074  1.5032
  685MOL0     H92449   5.879   5.074   2.212  0.3395 -0.6134 -0.9566
  685MOL0     H92450   5.711   5.087   2.244 -1.5445 -2.5604 -0.1642
  685MOL0     H92451   5.800   5.225   2.062  2.5054 -0.5686  1.1749
  685MOL0     H92452   5.841   5.077   1.970  0.2731 -0.4881  0.4067
  685MOL0     H92453   5.553   5.107   2.061  0.2012 -3.3362  1.3405
  685MOL0     H92454   5.623   5.007   1.926  2.7094  0.2944 -0.6772
  685MOL0     H92455   5.643   5.301   1.927 -1.8163  0.5673  0.4139
  685MOL0     H92456   5.518   5.210   1.839 -0.1151 -5.0555 -0.4764
  685MOL0     H92457   5.742   4.287   2.416  1.8465 -1.8855 -0.6356
  685MOL0     H92458   5.859   4.138   2.291 -0.7299 -0.7467  0.7240
  685MOL0     H92459   5.957   3.874   2.072 -1.1631  0.0503 -0.8187
  685MOL0     H92460   6.142   3.718   2.009  2.9610  0.4576 -1.1165
  685MOL0     H92461   6.840   3.319   1.796  0.6096 -2.0183  1.5525
  685MOL0     H92462   6.846   3.522   1.937  2.0113 -2.7654 -0.8088
  685MOL0     H92463   6.588   4.017   1.918 -0.7222 -0.0205  0.3522
  685MOL0     H92464   6.530   4.200   2.069  1.0313 -1.3238 -3.2103
  685MOL0     H92465   6.507   4.315   2.495 -2.4476 -1.7896  2.8769
  685MOL0     H92466   6.513   4.153   2.531  2.5732  2.2196  3.9789
  685MOL0     H92467   6.759   4.259   2.382  0.7081 -1.2430 -0.0813
  685MOL0     H92468   6.757   4.115   2.475 -2.4542 -1.4644 -1.3215
  685MOL0     H92469   6.710   4.239   2.684  2.1368  0.5903  1.4100
  685MOL0     H92470   6.715   4.393   2.603 -2.3353 -1.3490  1.3218
  685MOL0     H92471   6.939   4.358   2.709  2.2601  0.6699 -1.9847
  685MOL0     H92472   6.957   4.334   2.537 -3.6400  1.2734 -2.5737
  685MOL0     H92473   7.028   3.952   2.712  0.6384 -0.8431 -3.7366
  685MOL0     H92474   6.587   3.946   2.408  4.1627  0.5810 -0.3077
  685MOL0     H92475   6.598   3.760   2.270  2.3502 -0.2171  0.5028
  686MOL0     O92476  10.191   8.108   9.382 -0.2212 -0.8970  0.5285
  686MOL0     C92477  10.135   8.060   9.485 -0.1991  0.3896  1.1307
  686MOL0     O92478  10.099   8.131   9.591  0.3888  0.3822  0.0688
  686MOL0     C92479  10.136   8.262   9.596  0.6173  0.4415  0.0787
  686MOL0     C92480  10.270   8.289   9.630  0.5312  0.1111  0.0160
  686MOL0     C92481  10.313   8.422   9.655 -0.2587  0.3470 -0.7320
  686MOL0     C92482  10.222   8.528   9.640 -0.6492  0.0336  0.1856
  686MOL0     O92483  10.255   8.657   9.662  0.0652  0.2337 -0.2872
  686MOL0     C92484  10.395   8.701   9.686 -0.5340  0.2259  0.6445
  686MOL0     C92485  10.388   8.854   9.719 -0.0017  0.8182  0.2122
  686MOL0     C92486  10.364   8.871   9.874 -0.3223 -0.0996 -0.3245
  686MOL0     C92487  10.337   9.017   9.905 -0.2493 -0.0183  0.0684
  686MOL0     C92488  10.237   9.047  10.021  0.3052 -0.6982  0.6255
  686MOL0     C92489  10.295   9.001  10.142 -0.3975  0.3522 -0.0562
  686MOL0     C92490  10.225   9.058  10.266  0.0979 -0.1877 -0.8289
  686MOL0     C92491  10.259   8.981  10.399  0.2779 -0.6759 -0.4685
  686MOL0     N92492  10.228   9.064  10.519 -0.0558  1.1359 -0.4525
  686MOL0     C92493  10.114   9.052  10.575  0.7575  0.0866 -0.5080
  686MOL0     C92494  10.105   9.135  10.681  0.2618  0.2172 -1.0178
  686MOL0     C92495   9.987   9.143  10.775 -0.8897  0.5161 -0.0518
  686MOL0     C92496   9.922   9.277  10.760  0.3855 -0.2115 -0.6717
  686MOL0     C92497   9.823   9.279  10.642  1.1223  0.5115 -0.5362
  686MOL0     C92498   9.886   9.340  10.516 -0.8764 -0.4626 -0.9386
  686MOL0     O92499   9.844   9.271  10.401 -0.0840  0.1385  0.8207
  686MOL0     C92500   9.896   9.313  10.277 -0.0565 -0.1659  0.5247
  686MOL0     C92501  10.000   9.402  10.265 -0.0361  0.3738 -0.0351
  686MOL0     C92502  10.054   9.436  10.145 -0.0051  0.5034  0.2713
  686MOL0     C92503  10.180   9.526  10.152  0.6105 -0.1696  0.3923
  686MOL0     C92504   9.996   9.384  10.028  0.1269 -0.3644  0.2400
  686MOL0     C92505  10.055   9.407   9.894 -0.9176 -0.4955  0.2073
  686MOL0     O92506  10.045   9.305   9.802  0.2315 -0.2246  0.0980
  686MOL0     C92507  10.026   9.328   9.666 -0.3611 -0.4424 -0.2840
  686MOL0     C92508  10.120   9.269   9.573 -0.0498  0.6519 -0.4637
  686MOL0     C92509  10.089   9.308   9.440 -0.3620  0.3465 -0.2179
  686MOL0     C92510   9.980   9.381   9.391  0.7439 -0.3104 -0.1935
  686MOL0     O92511   9.975   9.410   9.255 -0.1208 -0.8914  0.3137
  686MOL0     C92512   9.912   9.532   9.207 -0.2888  0.1749  0.6625
  686MOL0     C92513   9.884   9.525   9.050 -1.5696 -0.3611 -1.4034
  686MOL0     C92514   9.998   9.587   8.965 -0.7676  0.0633 -0.2947
  686MOL0     C92515  10.053   9.721   9.020 -0.5084 -0.2896 -0.6858
  686MOL0     C92516  10.138   9.781   8.901  0.1934 -0.7358  0.0810
  686MOL0     C92517  10.284   9.727   8.880 -0.0047  0.0034  0.0974
  686MOL0     C92518  10.392   9.765   8.977  0.5435 -1.3980  0.1445
  686MOL0     C92519  10.417   9.916   8.973 -0.9217  0.2613 -0.2202
  686MOL0    Cl92520  10.436   9.971   8.805 -0.3097  0.0253 -0.0459
  686MOL0     C92521   9.889   9.444   9.488 -0.7321 -0.1957  0.5361
  686MOL0     C92522   9.915   9.414   9.621 -0.5412  0.4574  0.7700
  686MOL0     O92523  10.100   9.517   9.869 -0.6661 -0.5376 -0.2838
  686MOL0     C92524   9.887   9.294  10.036  0.4892 -0.1661 -0.7816
  686MOL0     C92525   9.834   9.260  10.163 -0.8179 -0.7623 -0.2315
  686MOL0     N92526  10.226   9.198  10.691  0.6220 -0.1922  0.5553
  686MOL0     N92527  10.303   9.141  10.600  0.2917 -0.8970 -0.9868
  686MOL0     C92528  10.091   8.497   9.614  1.0345 -1.3230 -0.1786
  686MOL0     C92529  10.052   8.370   9.585  0.5793  1.0934 -0.2141
  686MOL0     C92530  10.120   7.911   9.475  0.4045  0.2642 -1.3219
  686MOL0     C92531  10.122   7.836   9.585 -0.1101 -1.6899 -0.7171
  686MOL0     C92532  10.114   7.704   9.573  0.1824 -0.2360 -0.7054
  686MOL0     C92533  10.107   7.639   9.454 -0.0076  0.7042  0.3280
  686MOL0     O92534  10.099   7.499   9.454  0.7763 -0.1617  0.2761
  686MOL0     C92535  10.036   7.424   9.560 -0.6533  1.0083  0.6179
  686MOL0     C92536   9.925   7.335   9.493 -0.5040 -0.1588 -0.5392
  686MOL0     C92537   9.831   7.407   9.393 -0.5998  0.0940 -0.3972
  686MOL0     C92538   9.709   7.327   9.364  0.5626  0.1425 -0.4599
  686MOL0     C92539   9.606   7.346   9.472  0.4717 -0.3091 -0.3946
  686MOL0     C92540   9.509   7.340   9.552  0.2051  0.0596 -0.0407
  686MOL0     C92541  10.102   7.711   9.338 -0.6050  0.2705  0.2819
  686MOL0     C92542  10.116   7.851   9.344 -0.1610  0.3503 -1.0271
  686MOL0     H92543  10.328   8.204   9.665 -4.0121 -2.7681  1.3732
  686MOL0     H92544  10.414   8.437   9.690 -0.9818  0.9099  1.2105
  686MOL0     H92545  10.434   8.653   9.776 -0.6798  0.2937  0.7432
  686MOL0     H92546  10.467   8.691   9.605  1.4070 -0.8764  2.4203
  686MOL0     H92547  10.487   8.888   9.689 -0.1396  2.0423  1.0748
  686MOL0     H92548  10.303   8.893   9.662  0.1698 -1.3717 -1.6848
  686MOL0     H92549  10.292   8.792   9.899  2.4057 -2.9745 -0.8489
  686MOL0     H92550  10.455   8.837   9.925  1.9051  0.6819 -3.4944
  686MOL0     H92551  10.431   9.070   9.922 -1.0816  0.8430  2.3915
  686MOL0     H92552  10.286   9.059   9.818  0.1881 -0.3193 -0.3365
  686MOL0     H92553  10.231   9.156  10.018  5.2099 -0.2214 -0.3408
  686MOL0     H92554  10.138   9.004  10.003 -1.8503  4.1971 -0.8538
  686MOL0     H92555  10.294   8.891  10.145 -0.2665  0.2738 -1.6868
  686MOL0     H92556  10.402   9.021  10.152 -0.6792  2.0822 -0.2911
  686MOL0     H92557  10.262   9.159  10.284 -0.1665 -0.2147 -0.1023
  686MOL0     H92558  10.117   9.070  10.252  0.0195  2.9462  1.4357
  686MOL0     H92559  10.366   8.961  10.403  1.5386  4.8623  2.4514
  686MOL0     H92560  10.209   8.883  10.400  1.5722 -1.4582  2.9337
  686MOL0     H92561  10.034   8.991  10.534 -2.7195  2.5713  1.9843
  686MOL0     H92562   9.926   9.059  10.741  0.1982  0.8070 -2.9460
  686MOL0     H92563  10.030   9.116  10.873  0.1964  1.8021 -0.1317
  686MOL0     H92564   9.996   9.358  10.753 -0.2115  0.5133  0.8867
  686MOL0     H92565   9.857   9.303  10.844 -1.0206 -1.5716 -1.2917
  686MOL0     H92566   9.731   9.333  10.666 -0.8857  0.0307 -5.8627
  686MOL0     H92567   9.792   9.176  10.624 -0.5438  0.8490  0.1609
  686MOL0     H92568   9.995   9.336  10.526 -0.5148  2.3293 -2.7319
  686MOL0     H92569   9.855   9.444  10.503 -1.2992 -0.8336 -3.3527
  686MOL0     H92570  10.045   9.447  10.353 -0.3459 -1.8729  1.3353
  686MOL0     H92571  10.265   9.481  10.100  2.1148  2.3357  0.4857
  686MOL0     H92572  10.163   9.621  10.100  0.1480  0.7581  2.1694
  686MOL0     H92573  10.215   9.551  10.252 -0.5628  3.5167  0.0507
  686MOL0     H92574  10.205   9.207   9.601  0.7428  0.2243 -3.4599
  686MOL0     H92575  10.156   9.266   9.366 -2.1658  0.0533 -1.7632
  686MOL0     H92576   9.811   9.548   9.247 -0.3336  0.2708  0.5069
  686MOL0     H92577   9.967   9.618   9.244 -2.7768  0.6552  3.7505
  686MOL0     H92578   9.863   9.421   9.023 -1.2419 -0.7575 -0.1996
  686MOL0     H92579   9.793   9.585   9.037 -1.7912  0.9437  4.0431
  686MOL0     H92580   9.965   9.611   8.864  4.2831  2.3006 -1.7134
  686MOL0     H92581  10.072   9.507   8.956 -0.9822 -0.9030  4.2305
  686MOL0     H92582   9.972   9.794   9.033  1.6584  1.7194  3.2851
  686MOL0     H92583  10.099   9.720   9.119  0.6713 -1.3150 -1.2119
  686MOL0     H92584  10.147   9.885   8.933 -1.2281 -0.3019 -0.8150
  686MOL0     H92585  10.083   9.777   8.806  1.8458  1.1214 -1.0163
  686MOL0     H92586  10.257   9.621   8.870 -0.5983  0.3189 -2.1699
  686MOL0     H92587  10.313   9.763   8.781  1.5603  0.1682  0.5950
  686MOL0     H92588  10.481   9.703   8.973  0.2889 -2.4493  4.7143
  686MOL0     H92589  10.362   9.743   9.080 -0.5677  0.8641  0.3782
  686MOL0     H92590  10.505   9.940   9.032 -1.0714 -3.3108  1.7664
  686MOL0     H92591  10.335   9.980   9.006 -1.1915  0.8176 -1.8622
  686MOL0     H92592   9.802   9.502   9.458 -0.0741  0.1107 -0.8414
  686MOL0     H92593   9.852   9.450   9.701 -3.8163 -0.2124 -1.3252
  686MOL0     H92594   9.842   9.250   9.948 -0.6897 -0.2658 -0.1397
  686MOL0     H92595   9.746   9.197  10.176 -1.4754  0.5760  2.5812
  686MOL0     H92596  10.031   8.587   9.606  2.4287 -0.3796 -0.4314
  686MOL0     H92597   9.948   8.353   9.558  0.9604  0.3681 -1.3163
  686MOL0     H92598  10.136   7.871   9.686 -3.3732  0.2364 -0.7911
  686MOL0     H92599  10.125   7.642   9.661 -2.4934 -0.5433 -0.5338
  686MOL0     H92600  10.107   7.369   9.622  0.1798 -1.3428 -2.2053
  686MOL0     H92601   9.981   7.488   9.630 -0.1111  1.2043  0.8666
  686MOL0     H92602   9.858   7.284   9.563 -1.8146  1.3610 -0.6381
  686MOL0     H92603   9.975   7.251   9.445  0.3131  0.2303 -0.3847
  686MOL0     H92604   9.882   7.416   9.297 -1.8579 -1.1521 -1.2158
  686MOL0     H92605   9.810   7.511   9.423  0.9760  0.8382 -1.7242
  686MOL0     H92606   9.726   7.219   9.354 -0.4324 -0.0935  0.1807
  686MOL0     H92607   9.661   7.374   9.278  1.7801  1.5270 -0.4090
  686MOL0     H92608   9.423   7.328   9.614 -1.0049  0.8488 -1.5079
  686MOL0     H92609  10.116   7.661   9.243 -0.3295 -0.3644  0.6492
  686MOL0     H92610  10.149   7.907   9.257  1.4301  0.0009 -0.6740
  687MOL0     O92611   2.695   8.846   0.618 -0.1926 -0.0962 -0.1793
  687MOL0     C92612   2.634   8.823   0.722 -0.4061  0.1500  0.2731
  687MOL0     O92613   2.503   8.775   0.736  0.2335 -0.4053  0.3750
  687MOL0     C92614   2.438   8.728   0.634  1.2412  0.4667 -0.4092
  687MOL0     C92615   2.341   8.812   0.571 -0.0286  0.1561 -0.2204
  687MOL0     C92616   2.286   8.762   0.449 -0.7614 -0.1187  0.0426
  687MOL0     C92617   2.317   8.631   0.404 -0.3043  0.6397  0.5736
  687MOL0     O92618   2.250   8.567   0.300  0.2593 -0.2789  0.0760
  687MOL0     C92619   2.228   8.636   0.174 -1.2148  0.5733  0.7338
  687MOL0     C92620   2.103   8.609   0.094  0.3402 -0.1804  0.2747
  687MOL0     C92621   1.967   8.636   0.162 -0.7030 -0.5871  1.1006
  687MOL0     C92622   1.916   8.513   0.225 -0.4639 -0.3737 -1.1454
  687MOL0     C92623   1.767   8.544   0.261  0.4003  0.8101 -0.0523
  687MOL0     C92624   1.671   8.533   0.142  0.6114 -0.4837  0.6411
  687MOL0     C92625   1.525   8.514   0.188  0.9805 -0.3537 -0.5137
  687MOL0     C92626   1.415   8.473   0.073  0.2558 -0.5476 -1.1239
  687MOL0     N92627   1.289   8.427   0.135 -0.6569  0.1159 -0.6042
  687MOL0     C92628   1.188   8.503   0.191 -0.2650 -0.4326 -1.4344
  687MOL0     C92629   1.108   8.404   0.229  0.4420 -1.3059 -1.1588
  687MOL0     C92630   0.995   8.448   0.305  0.1238 -0.1840  0.2234
  687MOL0     C92631   0.876   8.357   0.287 -0.2717  0.4069  0.3231
  687MOL0     C92632   0.851   8.269   0.413 -1.2530  0.9931 -0.8297
  687MOL0     C92633   0.960   8.180   0.466 -0.5369 -0.4360 -0.3057
  687MOL0     O92634   0.934   8.108   0.592  0.0251  0.5108  0.5454
  687MOL0     C92635   0.852   7.995   0.582 -0.8474 -0.1960 -1.2924
  687MOL0     C92636   0.860   7.906   0.477  0.4610 -0.1761  0.3988
  687MOL0     C92637   0.766   7.796   0.477  0.6183 -0.8236  0.5310
  687MOL0     C92638   0.758   7.724   0.341 -0.1181 -0.1736  0.2969
  687MOL0     C92639   0.675   7.774   0.585 -0.1990 -1.0960 -0.8929
  687MOL0     C92640   0.586   7.661   0.599  0.1419  0.5028  0.7240
  687MOL0     O92641   0.493   7.660   0.688 -0.2203  0.5185 -0.6530
  687MOL0     C92642   0.403   7.555   0.698  0.4092 -0.2603 -1.3705
  687MOL0     C92643   0.389   7.498   0.834  0.6580  0.2234  0.1252
  687MOL0     C92644   0.296   7.387   0.855  0.0412 -0.2864 -0.4926
  687MOL0     C92645   0.220   7.348   0.747 -0.7519  0.5855  0.3403
  687MOL0     O92646   0.152   7.231   0.747  0.2739  0.9322  0.4655
  687MOL0     C92647   0.105   7.170   0.870  0.9851 -0.4239  0.5401
  687MOL0     C92648   0.001   7.066   0.836  0.4867 -0.4103 -0.9528
  687MOL0     C92649  -0.071   6.993   0.952  0.2172 -0.0607 -0.6306
  687MOL0     C92650   0.027   6.933   1.053 -0.7504  1.1879  0.4082
  687MOL0     C92651  -0.039   6.885   1.177 -0.0615  0.2665  0.8265
  687MOL0     C92652   0.043   6.775   1.250  1.5528 -0.5408  0.2481
  687MOL0     C92653  -0.024   6.749   1.385  0.4152  0.1538 -1.0698
  687MOL0     C92654   0.067   6.651   1.472  0.6441 -0.8442  0.0650
  687MOL0    Cl92655  -0.014   6.622   1.630  0.0374  0.5477 -0.2217
  687MOL0     C92656   0.218   7.408   0.618 -0.0587 -0.4911  0.0468
  687MOL0     C92657   0.312   7.516   0.600 -0.2955  0.3024 -0.2353
  687MOL0     O92658   0.620   7.560   0.535  0.3943  0.4190  0.2657
  687MOL0     C92659   0.688   7.859   0.703 -0.6611 -0.4882 -0.0309
  687MOL0     C92660   0.782   7.962   0.693  0.3482 -0.0854 -0.5294
  687MOL0     N92661   1.142   8.274   0.194  0.2396 -0.1940  0.3629
  687MOL0     N92662   1.255   8.294   0.145 -0.1569 -0.5082  0.5713
  687MOL0     C92663   2.410   8.554   0.468 -0.1496  0.6792 -0.4281
  687MOL0     C92664   2.472   8.599   0.585  0.2339  0.5953 -0.2438
  687MOL0     C92665   2.711   8.854   0.846 -1.5967  0.3185  0.2121
  687MOL0     C92666   2.646   8.888   0.966 -0.3650  0.0967  0.8117
  687MOL0     C92667   2.719   8.891   1.087  0.4411  0.5975 -0.2080
  687MOL0     C92668   2.857   8.872   1.095 -0.1500 -0.2274 -0.0382
  687MOL0     O92669   2.910   8.892   1.219  0.5695  1.0863  0.2053
  687MOL0     C92670   3.051   8.900   1.236  0.2556 -0.0285 -0.3233
  687MOL0     C92671   3.093   8.899   1.388  1.2501 -0.6952  0.8418
  687MOL0     C92672   3.237   8.885   1.420 -0.4725 -0.0832  1.1603
  687MOL0     C92673   3.271   8.909   1.562  0.3096 -0.6973  0.1441
  687MOL0     C92674   3.193   8.838   1.654 -0.4126  0.1727 -0.0065
  687MOL0     C92675   3.117   8.797   1.737 -0.3282  1.0451 -0.3466
  687MOL0     C92676   2.921   8.876   0.975 -0.5879 -0.5514  0.1351
  687MOL0     C92677   2.854   8.865   0.852  0.3032  0.3606 -0.0351
  687MOL0     H92678   2.308   8.912   0.599  2.6691  1.4088 -1.2236
  687MOL0     H92679   2.196   8.808   0.412 -1.3601 -1.0798  0.2687
  687MOL0     H92680   2.222   8.745   0.185 -2.0019  0.5725  0.3826
  687MOL0     H92681   2.311   8.604   0.109 -3.0452 -0.3234 -1.2838
  687MOL0     H92682   2.103   8.660  -0.003 -0.9863 -1.2165 -0.3052
  687MOL0     H92683   2.111   8.503   0.068  1.6611  0.1983 -0.9957
  687MOL0     H92684   1.982   8.704   0.246 -1.1343  0.7509  0.1309
  687MOL0     H92685   1.890   8.678   0.096 -1.8890 -0.0054  2.8043
  687MOL0     H92686   1.935   8.434   0.152  0.0278  0.4862 -1.9658
  687MOL0     H92687   1.980   8.493   0.312  1.6774  1.3574 -2.2234
  687MOL0     H92688   1.742   8.466   0.334  4.7613 -2.0973 -1.3274
  687MOL0     H92689   1.760   8.647   0.296  0.4857  1.7139 -2.4777
  687MOL0     H92690   1.687   8.619   0.076  0.8233 -0.8804  0.1608
  687MOL0     H92691   1.708   8.447   0.084  1.1140  0.8871 -1.1613
  687MOL0     H92692   1.538   8.433   0.260  3.7954 -0.6899 -1.2835
  687MOL0     H92693   1.480   8.606   0.227 -2.9857 -2.5676  0.7557
  687MOL0     H92694   1.464   8.401   0.007 -0.4731  0.0118 -2.3032
  687MOL0     H92695   1.401   8.564   0.014  0.4875  0.2079 -0.0570
  687MOL0     H92696   1.181   8.611   0.200  0.7896 -0.4845  0.9877
  687MOL0     H92697   1.034   8.451   0.407 -0.7213 -0.6516  0.5690
  687MOL0     H92698   0.954   8.548   0.286  0.8064  0.3285  1.3610
  687MOL0     H92699   0.897   8.288   0.206 -2.5234  2.4890 -2.2147
  687MOL0     H92700   0.781   8.406   0.263 -1.1875 -0.2490  2.3298
  687MOL0     H92701   0.776   8.193   0.389  1.9690 -2.4895 -0.6795
  687MOL0     H92702   0.818   8.332   0.497  0.7249 -2.5389  2.9418
  687MOL0     H92703   1.047   8.243   0.487 -1.2126  0.6947 -0.8167
  687MOL0     H92704   1.001   8.114   0.389  1.2741 -0.4800  0.6177
  687MOL0     H92705   0.917   7.942   0.391 -3.7000 -0.0588 -2.5911
  687MOL0     H92706   0.772   7.617   0.357 -3.8554 -0.6015  1.8259
  687MOL0     H92707   0.660   7.729   0.291  1.4384 -1.0500 -3.1263
  687MOL0     H92708   0.836   7.766   0.277 -0.2709  0.2105  0.3539
  687MOL0     H92709   0.461   7.513   0.913  0.8536  1.2187 -0.2325
  687MOL0     H92710   0.301   7.333   0.949  2.9676  2.4163  1.1162
  687MOL0     H92711   0.200   7.147   0.920  2.5688  1.4247 -1.3435
  687MOL0     H92712   0.062   7.255   0.925  3.3897  1.9582 -0.9691
  687MOL0     H92713  -0.079   7.118   0.783  2.3756  2.2831 -1.3507
  687MOL0     H92714   0.059   6.986   0.787  1.7990 -0.3238  0.3801
  687MOL0     H92715  -0.134   6.915   0.907 -1.0292  1.5933 -1.8889
  687MOL0     H92716  -0.140   7.072   0.984 -0.9261  0.1344 -3.2585
  687MOL0     H92717   0.090   6.853   1.014  0.6207  1.9178  1.0249
  687MOL0     H92718   0.094   7.012   1.088  1.0015 -0.2053  0.3457
  687MOL0     H92719  -0.142   6.858   1.152 -0.7243  3.5168 -0.3659
  687MOL0     H92720  -0.041   6.969   1.247  4.2842  0.4398  1.0194
  687MOL0     H92721   0.029   6.681   1.195 -1.5957 -1.0784  1.7552
  687MOL0     H92722   0.147   6.803   1.269  0.1804  3.7767  2.7617
  687MOL0     H92723  -0.125   6.706   1.384  0.8298 -0.9982  0.9099
  687MOL0     H92724  -0.036   6.847   1.433 -0.9228  0.1759 -1.3975
  687MOL0     H92725   0.162   6.703   1.486 -0.1329  0.3572  1.1199
  687MOL0     H92726   0.081   6.554   1.424 -1.6013 -0.6667 -1.0639
  687MOL0     H92727   0.181   7.364   0.526 -0.0697  0.2749 -0.3293
  687MOL0     H92728   0.327   7.556   0.500  0.5879 -0.9103 -0.6115
  687MOL0     H92729   0.630   7.849   0.794 -0.2769  1.6145  0.5061
  687MOL0     H92730   0.785   8.015   0.788  2.1383  0.5530 -0.8981
  687MOL0     H92731   2.420   8.447   0.454 -1.7150 -0.0357  2.8402
  687MOL0     H92732   2.545   8.547   0.646  0.0301 -1.0450 -1.3502
  687MOL0     H92733   2.539   8.902   0.959 -0.0125  2.8794 -0.3782
  687MOL0     H92734   2.670   8.913   1.181  2.8144  3.8522  0.4502
  687MOL0     H92735   3.098   8.814   1.189 -1.3869 -0.7721 -0.6681
  687MOL0     H92736   3.080   8.995   1.190 -1.7254  1.5464  1.4575
  687MOL0     H92737   3.048   8.813   1.439 -1.9926  1.1813  1.3686
  687MOL0     H92738   3.049   8.989   1.431 -1.6803 -1.5183 -0.2026
  687MOL0     H92739   3.297   8.957   1.363 -0.5792  0.9713  2.3468
  687MOL0     H92740   3.279   8.785   1.403  2.0782  1.2900 -1.6397
  687MOL0     H92741   3.255   9.014   1.588 -0.9116 -1.2787  1.9477
  687MOL0     H92742   3.376   8.887   1.583 -0.3978 -1.8873  2.9425
  687MOL0     H92743   3.041   8.759   1.801 -0.8880 -2.7932 -2.9702
  687MOL0     H92744   3.030   8.881   0.978 -0.6063 -0.0123  0.0735
  687MOL0     H92745   2.905   8.869   0.756  0.6778  0.3715  0.1666
  688MOL0     O92746   6.647  10.040   2.522 -0.6676 -0.2093 -0.7615
  688MOL0     C92747   6.760  10.072   2.567  0.7640  0.4236  0.3651
  688MOL0     O92748   6.811  10.044   2.688 -0.0464  0.1146 -0.3870
  688MOL0     C92749   6.714   9.999   2.786  0.3446 -0.1156  0.8804
  688MOL0     C92750   6.573  10.024   2.793 -0.1746 -0.9937 -0.7180
  688MOL0     C92751   6.490   9.974   2.896  0.6307 -0.1379  0.6187
  688MOL0     C92752   6.545   9.886   2.984 -0.1062 -0.5311 -0.1371
  688MOL0     O92753   6.467   9.827   3.081  0.0575 -0.1908 -0.2023
  688MOL0     C92754   6.436   9.694   3.066 -1.6303 -0.0544  0.3511
  688MOL0     C92755   6.303   9.661   3.124  0.3479 -0.9185 -0.1431
  688MOL0     C92756   6.287   9.703   3.270 -0.0325  0.1867 -0.6563
  688MOL0     C92757   6.142   9.672   3.323  0.0715  0.0105  1.0063
  688MOL0     C92758   6.152   9.672   3.477  0.5822 -0.2426 -0.0412
  688MOL0     C92759   6.025   9.630   3.544 -0.8566 -0.3336  0.2756
  688MOL0     C92760   6.032   9.691   3.689  0.3472 -0.7641  0.0904
  688MOL0     C92761   5.968   9.829   3.686  0.4069  0.0155  0.8468
  688MOL0     N92762   6.032   9.941   3.605 -0.6343 -0.4872  0.1558
  688MOL0     C92763   5.992   9.982   3.479  0.3608  0.0478 -0.9426
  688MOL0     C92764   6.069  10.087   3.449  0.0428  0.2177  0.7847
  688MOL0     C92765   6.060  10.167   3.314  0.3367  0.3564 -0.1342
  688MOL0     C92766   6.201  10.227   3.275  0.8314  0.2781  0.6310
  688MOL0     C92767   6.302  10.118   3.249 -0.0815  0.6414  0.1665
  688MOL0     C92768   6.443  10.184   3.216 -0.4457  0.2398 -0.0645
  688MOL0     O92769   6.444  10.249   3.083  0.2682  0.4867 -0.3663
  688MOL0     C92770   6.565  10.315   3.046  0.5745 -0.9578  0.1186
  688MOL0     C92771   6.666  10.364   3.132 -0.4511  0.3015 -0.3862
  688MOL0     C92772   6.782  10.417   3.079  0.3593  0.9691 -0.5528
  688MOL0     C92773   6.882  10.453   3.185 -0.5695  0.4775 -0.3516
  688MOL0     C92774   6.810  10.429   2.939  1.1427 -1.1740  0.1650
  688MOL0     C92775   6.932  10.477   2.880 -0.3510 -0.5200 -0.1255
  688MOL0     O92776   7.003  10.400   2.790  0.1879 -0.2505  0.6689
  688MOL0     C92777   7.105  10.469   2.713  0.3747  0.2228 -1.7600
  688MOL0     C92778   7.062  10.582   2.639 -0.5460  0.0943  0.1865
  688MOL0     C92779   7.158  10.647   2.557 -1.2215 -0.1814 -0.4801
  688MOL0     C92780   7.295  10.604   2.564 -0.0187  0.0746  1.7629
  688MOL0     O92781   7.378  10.673   2.479  0.1206  0.2233 -0.1066
  688MOL0     C92782   7.489  10.605   2.420  0.1645 -0.3841 -0.5723
  688MOL0     C92783   7.623  10.609   2.491  0.8687  0.7907  0.1722
  688MOL0     C92784   7.711  10.487   2.456  0.2367 -0.2154 -0.7293
  688MOL0     C92785   7.828  10.498   2.355  0.8263 -0.1540 -0.3664
  688MOL0     C92786   7.919  10.375   2.362  0.1736  0.1129  0.1155
  688MOL0     C92787   8.036  10.367   2.251  0.9720  0.9889  0.7189
  688MOL0     C92788   8.128  10.241   2.273  0.0389 -1.1352  0.4230
  688MOL0     C92789   8.253  10.238   2.182 -0.5188 -0.3411  1.2578
  688MOL0    Cl92790   8.194  10.234   2.004  0.5725  0.1120  0.3382
  688MOL0     C92791   7.330  10.488   2.626  0.1252  0.7775 -0.8521
  688MOL0     C92792   7.234  10.418   2.704  0.4239 -0.5313  0.2364
  688MOL0     O92793   6.964  10.588   2.924 -0.2268 -0.0856  0.0097
  688MOL0     C92794   6.716  10.382   2.858 -0.0390  0.5911  0.3398
  688MOL0     C92795   6.586  10.342   2.901  0.6311  0.6249 -1.0404
  688MOL0     N92796   6.152  10.115   3.559  0.2092 -0.8805 -0.1966
  688MOL0     N92797   6.131  10.031   3.651  0.4848  0.7498  1.3357
  688MOL0     C92798   6.687   9.863   2.985  0.5345  0.8294  0.8329
  688MOL0     C92799   6.771   9.912   2.879  0.5567 -0.3080  0.0834
  688MOL0     C92800   6.853  10.134   2.464  0.0393  0.5321 -0.8321
  688MOL0     C92801   6.986  10.157   2.496  0.1859  0.2187  0.3962
  688MOL0     C92802   7.078  10.191   2.398 -0.7471 -0.1013  0.3850
  688MOL0     C92803   7.045  10.196   2.267  0.8741 -1.0945 -0.1844
  688MOL0     O92804   7.143  10.183   2.175 -0.0685 -0.2771  0.3222
  688MOL0     C92805   7.150  10.277   2.074 -0.1032  0.7076  0.2375
  688MOL0     C92806   7.239  10.398   2.112  0.2974  0.6949  0.4191
  688MOL0     C92807   7.259  10.479   1.984 -0.5692 -0.5551 -0.1380
  688MOL0     C92808   7.348  10.605   2.013  0.0835 -0.1159  0.2469
  688MOL0     C92809   7.497  10.579   2.022 -0.6398 -0.4211 -0.4793
  688MOL0     C92810   7.620  10.547   2.005 -1.2624 -0.7208 -0.0653
  688MOL0     C92811   6.913  10.164   2.230  0.2029 -0.3141  0.3583
  688MOL0     C92812   6.822  10.131   2.329  0.4269  0.3446  1.0482
  688MOL0     H92813   6.530  10.098   2.726 -0.8711  0.8905  1.6787
  688MOL0     H92814   6.391  10.016   2.907  0.4416 -0.5473  0.4929
  688MOL0     H92815   6.434   9.670   2.959  2.1483  3.0074 -0.6427
  688MOL0     H92816   6.516   9.636   3.111 -1.8794 -0.0674  0.7770
  688MOL0     H92817   6.231   9.710   3.058 -1.3757 -1.6235  1.1637
  688MOL0     H92818   6.297   9.552   3.121  0.4952 -0.9194 -1.8455
  688MOL0     H92819   6.365   9.646   3.321 -2.2372 -1.8317  0.6560
  688MOL0     H92820   6.305   9.811   3.278  2.5513 -0.1632 -0.7901
  688MOL0     H92821   6.077   9.750   3.282 -0.5944 -2.0512 -2.2046
  688MOL0     H92822   6.101   9.580   3.280 -2.5950  2.0428 -1.1626
  688MOL0     H92823   6.238   9.614   3.513  1.8088  0.5731 -1.5544
  688MOL0     H92824   6.176   9.774   3.509  0.8385 -0.0293 -0.8859
  688MOL0     H92825   5.930   9.656   3.497  0.2054  1.1200 -1.1781
  688MOL0     H92826   6.036   9.521   3.541 -2.7366 -0.5414 -2.8872
  688MOL0     H92827   5.976   9.624   3.755 -2.5886  2.2882  0.9843
  688MOL0     H92828   6.131   9.702   3.732  0.0673  0.2268  0.5045
  688MOL0     H92829   5.946   9.875   3.783  4.8463 -2.4934  3.4110
  688MOL0     H92830   5.870   9.800   3.648  0.2609 -1.2958  2.1056
  688MOL0     H92831   5.916   9.944   3.411  1.1718  2.3143 -3.2350
  688MOL0     H92832   6.014  10.105   3.237  0.1769  0.2004  0.0846
  688MOL0     H92833   5.996  10.253   3.335 -1.3031 -0.6003 -1.0067
  688MOL0     H92834   6.245  10.293   3.350  0.4005  1.2016  0.0908
  688MOL0     H92835   6.186  10.293   3.190  2.6070  0.2486  0.2658
  688MOL0     H92836   6.266  10.066   3.160  0.5139  3.8099 -2.0764
  688MOL0     H92837   6.314  10.052   3.336  1.4949 -2.0994 -1.9545
  688MOL0     H92838   6.522  10.109   3.215 -2.1909 -1.6890  0.6382
  688MOL0     H92839   6.465  10.265   3.286 -0.0629 -0.5278  0.7197
  688MOL0     H92840   6.655  10.350   3.239  2.4612 -1.4072 -0.1923
  688MOL0     H92841   6.884  10.561   3.203 -0.4749  0.4446 -0.1619
  688MOL0     H92842   6.870  10.410   3.285  1.6709  0.6557  0.0560
  688MOL0     H92843   6.975  10.411   3.145 -0.2379  2.0351 -1.3360
  688MOL0     H92844   6.959  10.613   2.634 -1.0521 -1.6787 -1.5711
  688MOL0     H92845   7.122  10.728   2.495  1.1748  1.1326 -0.2661
  688MOL0     H92846   7.458  10.502   2.401  0.3977 -0.4225 -0.7479
  688MOL0     H92847   7.511  10.657   2.327  1.1246 -0.2806 -0.2965
  688MOL0     H92848   7.674  10.704   2.474  0.1023  1.4406  1.3487
  688MOL0     H92849   7.587  10.610   2.594  0.7885  1.5767  0.1417
  688MOL0     H92850   7.652  10.404   2.417 -1.2853 -0.2168  1.3808
  688MOL0     H92851   7.759  10.457   2.550  1.4105 -0.7125 -1.4588
  688MOL0     H92852   7.791  10.516   2.254 -0.9792  1.1728  0.4708
  688MOL0     H92853   7.886  10.587   2.382 -0.3557  0.5478 -0.0864
  688MOL0     H92854   7.858  10.285   2.351  2.9336 -2.1553  1.9724
  688MOL0     H92855   7.962  10.374   2.463  2.4114 -1.3468 -0.7818
  688MOL0     H92856   7.983  10.371   2.155  1.8012 -1.7659  0.0624
  688MOL0     H92857   8.098  10.456   2.263 -1.8106  3.3215 -0.9532
  688MOL0     H92858   8.069  10.149   2.260 -0.5957 -0.4791 -1.7802
  688MOL0     H92859   8.165  10.241   2.376  1.3305 -4.4198  0.0808
  688MOL0     H92860   8.301  10.141   2.196  3.2306  1.4848  2.1861
  688MOL0     H92861   8.308  10.332   2.191  2.7196 -1.3259 -3.8154
  688MOL0     H92862   7.427  10.443   2.607  1.7464  4.1987 -1.4121
  688MOL0     H92863   7.265  10.340   2.773  0.4400  1.2847  2.3848
  688MOL0     H92864   6.751  10.384   2.755  2.5535 -1.8904  1.0581
  688MOL0     H92865   6.504  10.324   2.833 -2.0393  2.1700  1.4920
  688MOL0     H92866   6.729   9.803   3.066 -1.4031 -0.2267  1.1403
  688MOL0     H92867   6.875   9.887   2.860  0.8922 -0.5671  2.0140
  688MOL0     H92868   7.039  10.153   2.590  4.3212 -0.5150 -1.7502
  688MOL0     H92869   7.180  10.204   2.434 -0.9544 -0.9370  1.3235
  688MOL0     H92870   7.201  10.216   1.999  0.5252  0.0885  1.1401
  688MOL0     H92871   7.049  10.305   2.042  0.2002  2.6778  0.8686
  688MOL0     H92872   7.337  10.362   2.143  0.5757  2.2315  1.4320
  688MOL0     H92873   7.208  10.462   2.195  0.4781 -1.4421  2.2390
  688MOL0     H92874   7.167  10.519   1.939 -0.3954 -2.1862 -2.1306
  688MOL0     H92875   7.307  10.410   1.914  2.6805  1.0674  0.3428
  688MOL0     H92876   7.311  10.652   2.105  0.3752 -0.7988  0.7172
  688MOL0     H92877   7.331  10.673   1.929 -1.3216 -2.0105 -1.0704
  688MOL0     H92878   7.721  10.531   1.976  0.0813  3.1767  1.7146
  688MOL0     H92879   6.891  10.158   2.123 -0.8756  1.1781  0.4668
  688MOL0     H92880   6.723  10.102   2.294  1.2284 -0.8319 -0.3765
  689MOL0     O92881   7.030   8.291   0.191 -0.1917  0.0514  0.5708
  689MOL0     C92882   7.087   8.187   0.161  0.1168 -0.5810  0.0126
  689MOL0     O92883   7.068   8.066   0.234 -0.1724  0.4043  0.6834
  689MOL0     C92884   7.003   8.060   0.354  0.8116  0.6645 -0.4342
  689MOL0     C92885   6.897   7.971   0.382  0.4895  0.6870  0.1484
  689MOL0     C92886   6.837   7.957   0.508  0.2934 -0.6581  0.9740
  689MOL0     C92887   6.881   8.048   0.608  0.5951  0.8343 -0.5406
  689MOL0     O92888   6.826   8.032   0.731  0.5345 -0.2636  0.3272
  689MOL0     C92889   6.799   8.153   0.806  0.5660  0.1631 -0.2665
  689MOL0     C92890   6.717   8.111   0.924  0.8833  0.9626  0.3114
  689MOL0     C92891   6.717   8.225   1.023 -0.1410 -0.2985 -0.0888
  689MOL0     C92892   6.589   8.230   1.111  0.6823  0.0903  0.3180
  689MOL0     C92893   6.556   8.348   1.202  0.2735  0.1175  0.4961
  689MOL0     C92894   6.673   8.374   1.300 -0.0945  0.2855  0.2191
  689MOL0     C92895   6.660   8.514   1.363 -0.7680 -0.1043  0.9072
  689MOL0     C92896   6.785   8.552   1.451  0.3854 -0.9219  0.2544
  689MOL0     N92897   6.896   8.590   1.361 -0.8865 -0.1828 -0.0702
  689MOL0     C92898   6.987   8.495   1.317 -1.4597 -0.2716  0.1469
  689MOL0     C92899   7.068   8.564   1.227 -0.5907  0.7507 -0.2860
  689MOL0     C92900   7.185   8.525   1.139 -0.1100  0.2819 -0.4857
  689MOL0     C92901   7.159   8.404   1.055  0.0300 -0.8116  0.0736
  689MOL0     C92902   7.069   8.425   0.936  0.2683  0.1850 -0.1219
  689MOL0     C92903   7.120   8.519   0.830  0.0547  0.5621 -0.1239
  689MOL0     O92904   7.066   8.471   0.697  0.4527 -0.2393 -0.5026
  689MOL0     C92905   7.105   8.537   0.585 -0.2756 -0.3281  0.1689
  689MOL0     C92906   7.211   8.625   0.582 -0.7513  0.7696  0.2868
  689MOL0     C92907   7.261   8.677   0.457  0.2560 -0.4797 -0.7035
  689MOL0     C92908   7.395   8.751   0.482  0.2989  0.7927  0.0556
  689MOL0     C92909   7.180   8.653   0.339 -0.0902  0.3402  0.2018
  689MOL0     C92910   7.236   8.712   0.210  2.2337 -0.3746 -0.5770
  689MOL0     O92911   7.170   8.669   0.098 -0.4824 -0.3312  0.1874
  689MOL0     C92912   7.227   8.696  -0.019  0.1634  0.4603  0.4865
  689MOL0     C92913   7.150   8.728  -0.133  0.3265  0.0101  0.9859
  689MOL0     C92914   7.199   8.760  -0.258 -0.1163  0.2227 -0.8226
  689MOL0     C92915   7.342   8.742  -0.276  0.3460 -0.2640  0.5117
  689MOL0     O92916   7.408   8.766  -0.389  0.4967  0.0562  0.2543
  689MOL0     C92917   7.340   8.848  -0.486  0.7832 -0.8232  0.9177
  689MOL0     C92918   7.444   8.917  -0.569  0.0320 -0.7773 -0.1786
  689MOL0     C92919   7.515   8.820  -0.665  0.8187  0.8944  0.1394
  689MOL0     C92920   7.584   8.882  -0.782  0.1021 -0.1458  0.4207
  689MOL0     C92921   7.496   8.920  -0.900 -0.0103 -0.6022 -1.1240
  689MOL0     C92922   7.562   9.008  -1.005 -0.0685  0.1202  0.5375
  689MOL0     C92923   7.690   8.948  -1.062 -0.1346 -1.0483 -0.2248
  689MOL0     C92924   7.739   9.010  -1.194  1.4547  0.7232 -1.2315
  689MOL0    Cl92925   7.883   8.921  -1.249 -0.1320 -0.5974  0.5116
  689MOL0     C92926   7.423   8.704  -0.163  0.1502 -0.2171  0.5582
  689MOL0     C92927   7.366   8.679  -0.042 -0.3698  0.1706 -0.8364
  689MOL0     O92928   7.303   8.813   0.212  0.1757  0.1357 -0.0602
  689MOL0     C92929   7.070   8.571   0.352 -0.2790 -0.3611 -0.1300
  689MOL0     C92930   7.032   8.516   0.477 -0.2046 -0.1520 -0.2311
  689MOL0     N92931   7.028   8.701   1.230  0.2539  0.2014  0.2667
  689MOL0     N92932   6.925   8.712   1.309  0.0588 -0.2457  0.5181
  689MOL0     C92933   6.974   8.145   0.579 -0.3776  0.4838 -0.1947
  689MOL0     C92934   7.040   8.146   0.457  0.4186  0.0025 -0.3151
  689MOL0     C92935   7.176   8.182   0.048 -0.6131 -0.0365 -0.9243
  689MOL0     C92936   7.215   8.303  -0.011  0.9603  0.5043 -0.5430
  689MOL0     C92937   7.311   8.305  -0.110 -0.8168  0.2337  0.5402
  689MOL0     C92938   7.370   8.181  -0.144 -0.4364 -0.1548  0.7058
  689MOL0     O92939   7.467   8.182  -0.240 -0.3694 -0.2701  0.2980
  689MOL0     C92940   7.504   8.070  -0.321 -0.7815  0.0672  0.0259
  689MOL0     C92941   7.640   8.015  -0.289  0.4386 -0.2417  0.1997
  689MOL0     C92942   7.758   8.110  -0.297  0.1261  0.1602 -0.0308
  689MOL0     C92943   7.883   8.053  -0.236  0.5706 -0.3739 -0.4545
  689MOL0     C92944   7.974   7.989  -0.337  0.2619 -0.0928  0.0579
  689MOL0     C92945   8.041   7.960  -0.428  1.1106 -0.2131 -0.1677
  689MOL0     C92946   7.328   8.061  -0.091 -0.0502 -0.9706 -1.3613
  689MOL0     C92947   7.231   8.063   0.006 -0.1461 -0.1481  0.3639
  689MOL0     H92948   6.862   7.919   0.293  3.0477 -0.5328 -0.2409
  689MOL0     H92949   6.755   7.887   0.524 -1.6480  0.9974 -1.0931
  689MOL0     H92950   6.901   8.189   0.823  0.8420  0.6314 -2.6633
  689MOL0     H92951   6.738   8.207   0.733  0.3322 -0.4979 -0.5721
  689MOL0     H92952   6.621   8.084   0.878  3.5674 -1.7113 -4.5261
  689MOL0     H92953   6.772   8.028   0.969 -0.2762  0.2144  0.4065
  689MOL0     H92954   6.805   8.223   1.088  0.0103  2.1112 -0.1371
  689MOL0     H92955   6.716   8.324   0.976 -1.2783  0.6102  1.7321
  689MOL0     H92956   6.502   8.209   1.049 -0.5457 -0.0133  1.9966
  689MOL0     H92957   6.595   8.151   1.186 -1.0178  0.9624  1.4217
  689MOL0     H92958   6.531   8.432   1.137 -2.3760 -0.6796  0.3821
  689MOL0     H92959   6.468   8.316   1.259 -1.7862 -0.4063 -2.7620
  689MOL0     H92960   6.690   8.296   1.375  0.9543  1.8390  1.6649
  689MOL0     H92961   6.755   8.385   1.229  0.4352 -1.7001  0.4564
  689MOL0     H92962   6.651   8.586   1.281  1.1585 -1.5565 -0.6722
  689MOL0     H92963   6.564   8.524   1.416 -1.0244  1.7560  0.1595
  689MOL0     H92964   6.821   8.474   1.518  0.5270  0.0475  1.3274
  689MOL0     H92965   6.744   8.636   1.508 -0.4964 -1.6851  0.7628
  689MOL0     H92966   6.978   8.390   1.342 -2.9380 -0.0755  0.5534
  689MOL0     H92967   7.219   8.615   1.085  2.8965  1.4140  2.8805
  689MOL0     H92968   7.274   8.510   1.201  0.8102 -0.8268 -2.0027
  689MOL0     H92969   7.103   8.334   1.117 -1.1353  2.4795  2.9923
  689MOL0     H92970   7.253   8.351   1.035 -0.0662 -0.3056 -2.0378
  689MOL0     H92971   6.972   8.460   0.971  0.1363  1.1630 -1.3906
  689MOL0     H92972   7.066   8.329   0.883  1.6721  0.4117 -0.6738
  689MOL0     H92973   7.229   8.524   0.839 -0.1007  2.0127  1.2749
  689MOL0     H92974   7.081   8.620   0.845 -2.0374 -0.2961  0.5890
  689MOL0     H92975   7.269   8.651   0.670  2.1340 -3.7274  0.0414
  689MOL0     H92976   7.377   8.859   0.475 -1.7971  0.7982  3.3030
  689MOL0     H92977   7.439   8.732   0.581 -1.3590  0.0677  0.6828
  689MOL0     H92978   7.475   8.726   0.411 -1.9410 -4.7465 -1.0128
  689MOL0     H92979   7.042   8.728  -0.121  0.4164 -0.7598  1.8379
  689MOL0     H92980   7.140   8.797  -0.341  0.1076  1.6208 -0.3916
  689MOL0     H92981   7.276   8.791  -0.553 -0.0868 -3.6658  3.9176
  689MOL0     H92982   7.291   8.932  -0.436  0.4260 -0.8602  0.6288
  689MOL0     H92983   7.404   8.998  -0.630  0.0219 -0.6454  0.0014
  689MOL0     H92984   7.520   8.961  -0.504 -0.3751  0.4141 -0.4983
  689MOL0     H92985   7.450   8.740  -0.699  1.6826  0.2482 -0.0270
  689MOL0     H92986   7.593   8.769  -0.607  0.8906  1.1193  0.2417
  689MOL0     H92987   7.635   8.973  -0.751 -2.9994  1.9990 -0.3304
  689MOL0     H92988   7.653   8.807  -0.823 -0.6758  0.2812 -1.8487
  689MOL0     H92989   7.406   8.970  -0.861  0.6993 -2.3912  3.3694
  689MOL0     H92990   7.462   8.828  -0.948  1.9367 -0.9056 -2.0225
  689MOL0     H92991   7.496   9.017  -1.092 -0.2141  1.7699  0.7777
  689MOL0     H92992   7.585   9.110  -0.971  2.6128  0.4640 -1.8888
  689MOL0     H92993   7.689   8.840  -1.078  0.2825 -0.6367 -4.0497
  689MOL0     H92994   7.766   8.973  -0.987 -0.9547  2.0038 -0.2654
  689MOL0     H92995   7.756   9.118  -1.191 -3.7410  1.8129  0.4925
  689MOL0     H92996   7.652   9.014  -1.261 -2.2173  4.2016  3.1031
  689MOL0     H92997   7.531   8.705  -0.176  0.4986 -1.7352  2.8264
  689MOL0     H92998   7.423   8.645   0.044 -0.8461  2.5657  0.5254
  689MOL0     H92999   7.000   8.546   0.273 -0.3646 -0.2945 -0.0761
  689MOL0     H93000   6.940   8.460   0.488 -0.5612  0.1274 -1.6090
  689MOL0     H93001   7.008   8.215   0.655  0.4491  0.8855 -0.9232
  689MOL0     H93002   7.121   8.219   0.455 -0.8856  1.9470  4.0841
  689MOL0     H93003   7.171   8.397   0.023  2.1509  0.6775  0.6223
  689MOL0     H93004   7.337   8.397  -0.163 -1.7291  0.3593  0.2918
  689MOL0     H93005   7.424   7.997  -0.305  1.2435 -1.9849  1.4558
  689MOL0     H93006   7.510   8.106  -0.424  3.6061  1.0985  0.4346
  689MOL0     H93007   7.662   7.938  -0.362 -0.4988 -0.3711  0.0435
  689MOL0     H93008   7.633   7.974  -0.187 -0.3581 -2.4666 -0.6963
  689MOL0     H93009   7.728   8.197  -0.238 -1.2597 -1.3620  1.6471
  689MOL0     H93010   7.777   8.133  -0.402  1.4130  2.2270  0.5980
  689MOL0     H93011   7.857   7.971  -0.168  3.2764  0.8386  2.3141
  689MOL0     H93012   7.933   8.125  -0.170  0.4665  0.6348 -1.4477
  689MOL0     H93013   8.087   7.929  -0.520  2.1820 -2.5607  1.0617
  689MOL0     H93014   7.368   7.965  -0.122  1.0069 -1.6583  1.8172
  689MOL0     H93015   7.202   7.971   0.056 -3.9663  1.8255  2.2713
  690MOL0     O93016   6.378   2.525  11.269  0.1406  0.7762  0.4417
  690MOL0     C93017   6.329   2.537  11.374  0.0392  0.6165  0.1644
  690MOL0     O93018   6.204   2.496  11.419  0.2166 -0.0739  0.1757
  690MOL0     C93019   6.132   2.396  11.357 -1.5188  0.0088  0.2072
  690MOL0     C93020   6.178   2.301  11.260  0.1242 -0.6235  0.5654
  690MOL0     C93021   6.078   2.213  11.199 -0.2918 -0.2342  0.3794
  690MOL0     C93022   5.939   2.232  11.231 -0.3106 -0.4530 -0.4302
  690MOL0     O93023   5.830   2.154  11.190 -0.3666  1.0542  0.2765
  690MOL0     C93024   5.848   2.103  11.058 -0.2453  0.2302  0.5291
  690MOL0     C93025   5.724   2.025  11.009 -0.0813  0.5709  0.5207
  690MOL0     C93026   5.741   1.992  10.856 -0.6369  0.7725  0.4088
  690MOL0     C93027   5.622   1.926  10.778 -0.1933 -0.4571 -0.6140
  690MOL0     C93028   5.637   1.893  10.628  0.3243  0.6934  0.1120
  690MOL0     C93029   5.501   1.882  10.552 -0.3169  1.2604 -0.0282
  690MOL0     C93030   5.455   1.732  10.526  0.1486  0.2331  0.1655
  690MOL0     C93031   5.365   1.722  10.399  0.2384  0.7717  1.0381
  690MOL0     N93032   5.351   1.586  10.360 -0.1721  0.2325  0.8027
  690MOL0     C93033   5.285   1.487  10.433 -0.2637 -0.2571 -0.2199
  690MOL0     C93034   5.334   1.366  10.395 -0.4886  0.6453  0.6582
  690MOL0     C93035   5.305   1.227  10.462  0.1891  0.5990 -0.0113
  690MOL0     C93036   5.424   1.171  10.527  0.0370 -0.3274 -0.3705
  690MOL0     C93037   5.386   1.050  10.622  0.7981  0.4066 -0.1968
  690MOL0     C93038   5.384   0.929  10.533 -0.0516 -0.0414 -0.7938
  690MOL0     O93039   5.247   0.892  10.497 -0.7215 -1.1258 -0.2263
  690MOL0     C93040   5.194   0.784  10.564  0.5771 -0.7515  0.1146
  690MOL0     C93041   5.262   0.681  10.629 -0.1669  0.0068 -0.1252
  690MOL0     C93042   5.212   0.572  10.699 -0.6657 -0.3140 -0.0132
  690MOL0     C93043   5.317   0.472  10.762 -1.3420  0.0528  0.0954
  690MOL0     C93044   5.078   0.563  10.710  0.3838  0.6182  0.7534
  690MOL0     C93045   5.010   0.464  10.795  0.2521 -0.0571 -0.9518
  690MOL0     O93046   4.870   0.467  10.793 -0.2641  0.3420  0.5369
  690MOL0     C93047   4.799   0.358  10.852 -0.3187 -0.1054 -0.4852
  690MOL0     C93048   4.798   0.351  10.996 -0.0712  0.3237 -0.1811
  690MOL0     C93049   4.719   0.250  11.060  0.5710 -0.0910  0.2070
  690MOL0     C93050   4.638   0.174  10.986 -0.1920  0.3197  0.5543
  690MOL0     O93051   4.554   0.075  11.032  0.4471  0.3447  0.5878
  690MOL0     C93052   4.511   0.084  11.173 -0.6078  0.8474  0.7234
  690MOL0     C93053   4.411  -0.037  11.191  0.4904 -0.9625  0.3657
  690MOL0     C93054   4.309  -0.026  11.303 -0.7525  0.4660 -0.8666
  690MOL0     C93055   4.361   0.004  11.439  0.8028  0.0908 -0.7505
  690MOL0     C93056   4.255   0.075  11.527 -0.8753 -0.6614 -0.5901
  690MOL0     C93057   4.121   0.006  11.542 -0.7738  0.2239  0.4243
  690MOL0     C93058   4.041   0.054  11.664  1.1466  1.1473 -0.1113
  690MOL0     C93059   3.895   0.013  11.652 -0.0825 -0.7363  0.0550
  690MOL0    Cl93060   3.804   0.078  11.504 -0.3834  0.4393  0.3568
  690MOL0     C93061   4.627   0.194  10.848  0.0409  0.5050  0.3617
  690MOL0     C93062   4.714   0.281  10.777 -0.1681  0.2778  0.5961
  690MOL0     O93063   5.074   0.381  10.857 -0.0861 -0.0996  0.7719
  690MOL0     C93064   4.994   0.657  10.640 -0.3544  0.2703  0.4665
  690MOL0     C93065   5.049   0.771  10.576  0.2939 -1.2561  0.8444
  690MOL0     N93066   5.415   1.391  10.291 -0.0128 -0.4239  0.4586
  690MOL0     N93067   5.423   1.523  10.261  0.4007  0.1245  0.3712
  690MOL0     C93068   5.902   2.325  11.321  0.0110 -0.2632 -0.5918
  690MOL0     C93069   5.999   2.411  11.373 -0.2124 -0.5545  0.2782
  690MOL0     C93070   6.400   2.618  11.471 -0.0671  0.0773 -0.1030
  690MOL0     C93071   6.327   2.718  11.541  0.3127  0.1052 -0.6890
  690MOL0     C93072   6.392   2.802  11.634 -0.9400 -0.7019  0.6358
  690MOL0     C93073   6.529   2.804  11.660  0.0462 -0.8938 -0.2419
  690MOL0     O93074   6.583   2.874  11.764 -0.0364 -0.5595  1.5774
  690MOL0     C93075   6.492   2.896  11.874 -0.0159  0.0453  0.9157
  690MOL0     C93076   6.583   2.916  11.997  0.0742 -0.4364  0.7363
  690MOL0     C93077   6.606   3.060  12.049 -0.9011  0.2453 -0.0759
  690MOL0     C93078   6.560   3.083  12.188  0.6250  0.0341 -0.0267
  690MOL0     C93079   6.662   3.020  12.276  0.1654  0.3069 -0.5646
  690MOL0     C93080   6.744   2.981  12.353 -0.2736 -0.7146 -1.2941
  690MOL0     C93081   6.604   2.704  11.593 -0.4940  0.3804 -0.2610
  690MOL0     C93082   6.543   2.614  11.495  0.2605  0.3857  0.0797
  690MOL0     H93083   6.281   2.298  11.225  1.2101  3.0181  2.8402
  690MOL0     H93084   6.120   2.131  11.143 -0.3602  0.6705 -1.0281
  690MOL0     H93085   5.859   2.189  10.991 -1.1995 -1.9606 -2.6910
  690MOL0     H93086   5.930   2.032  11.046  1.2515  1.8669  0.6134
  690MOL0     H93087   5.713   1.930  11.063 -0.6722 -0.6430 -1.6036
  690MOL0     H93088   5.631   2.080  11.022 -0.5065 -0.4200  2.0163
  690MOL0     H93089   5.768   2.084  10.803 -0.4806 -0.6105 -2.0720
  690MOL0     H93090   5.824   1.921  10.852 -1.1744  0.0491  1.5261
  690MOL0     H93091   5.613   1.829  10.828 -0.3608 -0.7312 -1.1730
  690MOL0     H93092   5.535   1.991  10.793  0.3107  0.3153 -0.9593
  690MOL0     H93093   5.696   1.975  10.585 -0.2036  1.5390  0.9686
  690MOL0     H93094   5.692   1.799  10.618  1.7098  1.5872 -1.1515
  690MOL0     H93095   5.418   1.928  10.605 -0.2297  0.3956  0.8810
  690MOL0     H93096   5.509   1.941  10.460 -0.5982  0.9162 -0.2748
  690MOL0     H93097   5.544   1.670  10.510 -0.3695 -1.0129  1.7589
  690MOL0     H93098   5.400   1.691  10.611 -1.5778  0.2853 -0.8930
  690MOL0     H93099   5.401   1.786  10.318  0.4293  1.5470  1.7263
  690MOL0     H93100   5.266   1.759  10.425 -1.0798 -2.1547  0.6092
  690MOL0     H93101   5.217   1.495  10.517 -0.3945  0.3286 -0.3800
  690MOL0     H93102   5.224   1.243  10.534  0.5231  2.3992  0.0186
  690MOL0     H93103   5.271   1.149  10.393  2.2529 -0.3109 -0.0591
  690MOL0     H93104   5.474   1.253  10.580 -1.5800  0.1338  0.5189
  690MOL0     H93105   5.489   1.152  10.441 -2.1506 -0.1946 -2.1560
  690MOL0     H93106   5.289   1.064  10.671  0.9133 -0.6134  0.3536
  690MOL0     H93107   5.455   1.041  10.706 -0.1794 -1.6733  0.4641
  690MOL0     H93108   5.436   0.844  10.578 -1.9382 -0.4121  0.8273
  690MOL0     H93109   5.431   0.948  10.436 -1.6300 -2.5665 -2.1853
  690MOL0     H93110   5.369   0.665  10.618 -0.3900 -2.3613  0.8039
  690MOL0     H93111   5.322   0.485  10.870 -2.1591  1.0213  0.0332
  690MOL0     H93112   5.284   0.372  10.734  0.2050 -0.9847  1.7528
  690MOL0     H93113   5.420   0.481  10.725 -1.9719 -0.9057 -2.0570
  690MOL0     H93114   4.867   0.410  11.055 -0.5185  0.2005  0.4686
  690MOL0     H93115   4.718   0.243  11.168  0.1225 -1.5479  0.1295
  690MOL0     H93116   4.596   0.085  11.243  2.2712  0.1208 -2.4774
  690MOL0     H93117   4.457   0.179  11.177 -0.9746  0.6625  0.1766
  690MOL0     H93118   4.342  -0.052  11.108 -1.0752  0.4334  1.3545
  690MOL0     H93119   4.478  -0.120  11.213  0.8729 -0.6732  0.3097
  690MOL0     H93120   4.250  -0.117  11.313 -2.3231  1.6385  1.1663
  690MOL0     H93121   4.247   0.057  11.267 -1.8570 -0.1484 -0.4127
  690MOL0     H93122   4.374  -0.089  11.493 -3.1151 -0.5126 -0.5156
  690MOL0     H93123   4.459   0.053  11.443  1.1484 -0.6849  0.6257
  690MOL0     H93124   4.239   0.176  11.488  2.5164 -0.1754 -1.0665
  690MOL0     H93125   4.301   0.092  11.625  1.6519  0.2876 -1.8356
  690MOL0     H93126   4.071   0.020  11.445  0.5779 -1.8767 -0.6574
  690MOL0     H93127   4.137  -0.102  11.550 -3.6527 -0.1724  2.5144
  690MOL0     H93128   4.045   0.164  11.668 -1.8127  1.3045  0.7853
  690MOL0     H93129   4.089   0.007  11.750  1.7545  0.1983 -0.9619
  690MOL0     H93130   3.837   0.034  11.743  0.7857 -0.5867  0.5815
  690MOL0     H93131   3.887  -0.096  11.642  0.2915 -0.9167  1.4207
  690MOL0     H93132   4.572   0.120  10.791  3.2628 -0.4092 -1.8436
  690MOL0     H93133   4.707   0.283  10.669  0.8688 -1.0789  0.4769
  690MOL0     H93134   4.887   0.642  10.647 -0.5303  1.3713  0.2773
  690MOL0     H93135   4.989   0.845  10.525  2.3933 -0.1392 -0.1469
  690MOL0     H93136   5.802   2.329  11.363  0.2504 -0.8763  0.0602
  690MOL0     H93137   5.965   2.486  11.444  0.6149 -0.7946  0.9426
  690MOL0     H93138   6.220   2.728  11.525  0.1448 -1.0241 -0.3583
  690MOL0     H93139   6.328   2.880  11.674  0.2774  0.8165 -0.2734
  690MOL0     H93140   6.428   2.984  11.868 -1.3732 -0.9106  0.7394
  690MOL0     H93141   6.422   2.812  11.887 -2.4493  2.0512  1.4252
  690MOL0     H93142   6.682   2.878  11.967 -0.6940 -0.8424 -1.4780
  690MOL0     H93143   6.541   2.862  12.083 -1.1387  2.0774  1.8292
  690MOL0     H93144   6.568   3.129  11.974 -0.6859 -1.7609 -2.1332
  690MOL0     H93145   6.712   3.082  12.042  0.2235 -3.9777  0.5250
  690MOL0     H93146   6.461   3.040  12.206  0.6765  0.5933  1.8399
  690MOL0     H93147   6.552   3.191  12.205  2.0798  0.1359  0.1540
  690MOL0     H93148   6.821   2.948  12.420 -0.2615  2.0318  0.2327
  690MOL0     H93149   6.710   2.690  11.611 -0.6801  0.1521  0.7017
  690MOL0     H93150   6.599   2.534  11.447  1.2955  0.1319  1.6558
  691MOL0     O93151   0.015   4.788   2.713 -0.4187 -0.3835 -0.3283
  691MOL0     C93152   0.109   4.820   2.644 -0.5304 -0.1508  0.5626
  691MOL0     O93153   0.237   4.781   2.665 -0.2386 -0.3371  0.4756
  691MOL0     C93154   0.282   4.718   2.777  0.5219  0.3568 -0.3365
  691MOL0     C93155   0.404   4.647   2.765 -0.0360 -0.3333  0.0376
  691MOL0     C93156   0.471   4.599   2.880  0.3882 -1.1766  0.0721
  691MOL0     C93157   0.416   4.617   3.007  0.1203  0.6582  0.4499
  691MOL0     O93158   0.470   4.567   3.124  0.5211 -0.7006 -0.3397
  691MOL0     C93159   0.614   4.553   3.116 -0.1399 -0.7097 -0.0317
  691MOL0     C93160   0.679   4.488   3.244 -0.6191  0.0612  0.4375
  691MOL0     C93161   0.635   4.550   3.378  0.1661  0.2885 -0.1569
  691MOL0     C93162   0.572   4.441   3.482  0.6440 -0.2886 -0.7119
  691MOL0     C93163   0.543   4.501   3.622 -0.8306  0.4453  0.4397
  691MOL0     C93164   0.496   4.395   3.715 -0.3548  0.7295 -0.0483
  691MOL0     C93165   0.493   4.419   3.864 -0.0435  0.2767 -0.0739
  691MOL0     C93166   0.410   4.540   3.916 -0.3230  0.4301 -0.1259
  691MOL0     N93167   0.267   4.501   3.926  0.2369  0.4445 -0.8888
  691MOL0     C93168   0.221   4.432   4.034 -0.4191  1.0095  0.3863
  691MOL0     C93169   0.105   4.390   3.991  0.3239 -0.3963  0.1740
  691MOL0     C93170   0.008   4.301   4.064 -0.5148 -0.4501 -0.6544
  691MOL0     C93171   0.071   4.230   4.189 -0.2496 -0.1537  0.5250
  691MOL0     C93172  -0.036   4.130   4.246 -0.9419  0.5230  1.0764
  691MOL0     C93173  -0.041   3.997   4.168 -0.0059  0.1260  0.0713
  691MOL0     O93174   0.085   3.930   4.177 -0.0833  0.4801  0.4299
  691MOL0     C93175   0.128   3.881   4.296  0.4636 -0.0359 -0.9462
  691MOL0     C93176   0.037   3.828   4.393  0.2754 -0.9959  0.0311
  691MOL0     C93177   0.069   3.759   4.505 -0.2310  1.0211 -0.5180
  691MOL0     C93178  -0.047   3.737   4.597  0.3532  0.5022  0.4686
  691MOL0     C93179   0.206   3.734   4.537  0.1545  0.1555 -0.4025
  691MOL0     C93180   0.254   3.658   4.659 -0.3533 -0.5411 -0.4555
  691MOL0     O93181   0.383   3.677   4.694  0.1372 -0.2161  0.5745
  691MOL0     C93182   0.411   3.650   4.826 -0.5996 -0.9160 -0.3345
  691MOL0     C93183   0.490   3.541   4.845  0.1951  0.3648 -0.3274
  691MOL0     C93184   0.531   3.511   4.973  0.0217 -1.0129 -0.4281
  691MOL0     C93185   0.496   3.588   5.086  0.0177  0.1279  0.0778
  691MOL0     O93186   0.536   3.546   5.210 -0.0042  0.5094  0.5524
  691MOL0     C93187   0.481   3.601   5.332 -1.2219 -0.0141  0.0204
  691MOL0     C93188   0.563   3.545   5.452  0.0052 -0.1268 -0.5295
  691MOL0     C93189   0.649   3.652   5.516  0.5940 -0.1612 -0.0139
  691MOL0     C93190   0.691   3.613   5.661 -0.2746  0.0146  0.1862
  691MOL0     C93191   0.770   3.729   5.725 -0.5588 -0.0198 -0.0843
  691MOL0     C93192   0.681   3.836   5.791  0.8147  0.1044 -0.1067
  691MOL0     C93193   0.778   3.943   5.848  0.0565 -1.0746  0.0141
  691MOL0     C93194   0.820   3.902   5.993 -0.1035 -0.6150 -0.1773
  691MOL0    Cl93195   0.696   3.872   6.108  0.1940  0.2116 -0.4813
  691MOL0     C93196   0.414   3.704   5.059 -0.2890  0.3933 -1.0780
  691MOL0     C93197   0.373   3.735   4.932 -0.0368  0.1742  0.4954
  691MOL0     O93198   0.171   3.584   4.716 -0.3089  0.7241 -0.2110
  691MOL0     C93199   0.304   3.777   4.445 -0.3245 -0.0954 -0.0836
  691MOL0     C93200   0.262   3.851   4.326  0.4775 -0.2153  0.1115
  691MOL0     N93201   0.078   4.437   3.863 -0.1827 -0.4774 -0.1405
  691MOL0     N93202   0.178   4.513   3.829  0.2437 -0.4921 -0.0682
  691MOL0     C93203   0.297   4.692   3.021 -0.0890  0.0158 -0.3149
  691MOL0     C93204   0.232   4.745   2.909 -0.4618  0.3937 -0.6801
  691MOL0     C93205   0.089   4.906   2.522 -0.3217  0.1825  0.7738
  691MOL0     C93206   0.194   4.941   2.433  0.5658  0.4455  0.0240
  691MOL0     C93207   0.164   5.010   2.319  0.0555 -0.5031  0.6318
  691MOL0     C93208   0.033   5.043   2.291 -0.6483  0.9042 -0.2873
  691MOL0     O93209  -0.020   5.115   2.192 -0.2255 -0.0424  0.1022
  691MOL0     C93210   0.073   5.160   2.088  0.8716  0.7549 -0.2733
  691MOL0     C93211  -0.001   5.271   2.017 -0.0807 -0.7286  0.6545
  691MOL0     C93212   0.061   5.323   1.882 -0.9526  1.1376  0.5028
  691MOL0     C93213   0.205   5.384   1.871  0.7464  0.0159 -0.8927
  691MOL0     C93214   0.244   5.399   1.727 -0.4105 -0.2736 -0.0180
  691MOL0     C93215   0.279   5.409   1.616  0.0473 -0.3445  0.1308
  691MOL0     C93216  -0.073   4.996   2.368 -1.0088 -0.2900  0.2529
  691MOL0     C93217  -0.046   4.927   2.488  0.5817  0.9348 -0.9179
  691MOL0     H93218   0.440   4.635   2.663  0.0897 -0.2514  0.0715
  691MOL0     H93219   0.562   4.542   2.860  2.6642  2.0271  0.4688
  691MOL0     H93220   0.635   4.481   3.037  1.2064 -0.7909  0.3749
  691MOL0     H93221   0.663   4.648   3.092 -0.3470 -0.4075  0.7236
  691MOL0     H93222   0.666   4.380   3.232 -0.4637  0.0932 -0.0425
  691MOL0     H93223   0.787   4.505   3.240 -0.6026 -0.1832 -0.4172
  691MOL0     H93224   0.723   4.596   3.423  0.6699 -0.5933 -0.2123
  691MOL0     H93225   0.550   4.619   3.378  0.0240  0.1608  1.8128
  691MOL0     H93226   0.479   4.404   3.439  0.4006 -0.2004 -0.2766
  691MOL0     H93227   0.651   4.365   3.493  0.6953 -0.1742 -0.2669
  691MOL0     H93228   0.639   4.544   3.652  0.0394 -0.2143 -1.2753
  691MOL0     H93229   0.469   4.581   3.612  0.7809  2.1302  1.3781
  691MOL0     H93230   0.393   4.380   3.681 -0.5932  0.0394  0.9298
  691MOL0     H93231   0.548   4.299   3.707 -0.5476  0.6254 -0.0881
  691MOL0     H93232   0.482   4.327   3.922 -0.9182 -2.1184 -3.6734
  691MOL0     H93233   0.598   4.437   3.889  1.2798 -1.7017 -3.5155
  691MOL0     H93234   0.431   4.629   3.856  1.1291 -1.2741 -2.3141
  691MOL0     H93235   0.434   4.565   4.019 -1.6108 -2.2276  0.8977
  691MOL0     H93236   0.283   4.427   4.123  2.7900  3.0872 -1.5260
  691MOL0     H93237  -0.076   4.363   4.097  1.5632  1.2837  1.7753
  691MOL0     H93238  -0.034   4.227   3.995 -2.7319  0.0294  0.0756
  691MOL0     H93239   0.084   4.309   4.264 -0.1350 -0.3368  0.7000
  691MOL0     H93240   0.166   4.180   4.170  0.9353  2.8254 -2.3398
  691MOL0     H93241  -0.132   4.177   4.265 -0.1573  1.9456  1.6351
  691MOL0     H93242  -0.006   4.097   4.346  0.5083 -0.4942  0.3565
  691MOL0     H93243  -0.057   4.009   4.061 -1.2276 -1.2848  0.0590
  691MOL0     H93244  -0.134   3.952   4.206 -0.7621  2.3585  1.0905
  691MOL0     H93245  -0.069   3.849   4.377  0.8209  1.6910 -0.6271
  691MOL0     H93246  -0.094   3.643   4.567  1.6482 -0.3593  1.0446
  691MOL0     H93247  -0.012   3.745   4.700 -0.0175 -2.4838  0.9136
  691MOL0     H93248  -0.119   3.817   4.582 -2.6145 -2.1847 -0.7519
  691MOL0     H93249   0.525   3.494   4.755  0.6166 -2.1120  1.0573
  691MOL0     H93250   0.601   3.429   4.983  0.7345 -0.3964 -0.2055
  691MOL0     H93251   0.508   3.707   5.327  1.8836 -0.7653 -2.8079
  691MOL0     H93252   0.373   3.591   5.347 -1.1910  2.8889  3.6081
  691MOL0     H93253   0.494   3.508   5.528 -0.2828  2.2898  0.4894
  691MOL0     H93254   0.622   3.457   5.425  0.9269  0.7104 -1.3228
  691MOL0     H93255   0.595   3.747   5.518  0.0544 -0.4710  2.0162
  691MOL0     H93256   0.743   3.650   5.460  0.8197  2.1557  0.2105
  691MOL0     H93257   0.601   3.604   5.723 -1.3304  1.8260 -0.9917
  691MOL0     H93258   0.753   3.523   5.656 -1.2884 -0.6589 -0.4363
  691MOL0     H93259   0.830   3.782   5.651  0.1830  2.2310  1.9999
  691MOL0     H93260   0.837   3.697   5.805 -1.9142  2.6486  2.2811
  691MOL0     H93261   0.615   3.881   5.715  0.0894 -1.3090 -0.3513
  691MOL0     H93262   0.630   3.789   5.875  2.5802  0.8441  1.4353
  691MOL0     H93263   0.729   4.041   5.855  0.0857 -0.8857 -1.9571
  691MOL0     H93264   0.867   3.968   5.790  0.4808 -0.1616  1.0134
  691MOL0     H93265   0.892   3.971   6.038 -3.0050  1.2542  1.9060
  691MOL0     H93266   0.882   3.812   5.993  0.9609  0.0753  1.1473
  691MOL0     H93267   0.405   3.779   5.137 -0.4331  1.4454 -2.0844
  691MOL0     H93268   0.321   3.826   4.905 -3.6430 -1.5192  1.2005
  691MOL0     H93269   0.407   3.748   4.458  1.9004  6.1245 -0.3070
  691MOL0     H93270   0.315   3.888   4.239 -0.5725  2.4345  0.4923
  691MOL0     H93271   0.266   4.724   3.120 -2.5347 -2.2403 -0.2549
  691MOL0     H93272   0.156   4.819   2.934  0.1054  1.1082 -1.0333
  691MOL0     H93273   0.299   4.913   2.439  0.4609  0.3035  1.5786
  691MOL0     H93274   0.242   5.040   2.250  1.4277 -2.3024  1.3109
  691MOL0     H93275   0.161   5.201   2.140  0.1180 -0.8071  2.4224
  691MOL0     H93276   0.103   5.090   2.010  0.2049  1.0116 -0.7665
  691MOL0     H93277  -0.023   5.355   2.083 -0.8900  1.6815 -2.4440
  691MOL0     H93278  -0.100   5.230   1.996  1.2963 -4.2647  0.3535
  691MOL0     H93279  -0.011   5.395   1.843 -1.3054 -0.6265 -2.3555
  691MOL0     H93280   0.061   5.233   1.820 -3.7382  0.8823  0.7342
  691MOL0     H93281   0.275   5.320   1.924 -1.1242 -2.1594 -0.8868
  691MOL0     H93282   0.180   5.476   1.926 -0.8971 -0.9486  0.0590
  691MOL0     H93283   0.311   5.399   1.514 -1.8431 -4.4216 -0.2801
  691MOL0     H93284  -0.170   5.044   2.360 -0.1756  2.2918  3.3605
  691MOL0     H93285  -0.128   4.892   2.550 -0.4683  1.9493 -1.7004
  692MOL0     O93286   4.043   5.038   3.501 -0.6713  0.1247  0.1587
  692MOL0     C93287   3.940   5.055   3.566 -0.4220 -0.4105 -0.3688
  692MOL0     O93288   3.888   4.978   3.665 -0.4762  1.2166  0.1832
  692MOL0     C93289   3.971   4.873   3.701  0.3061 -1.4248  1.7800
  692MOL0     C93290   3.949   4.753   3.639  1.3043  0.7004 -0.5949
  692MOL0     C93291   4.045   4.653   3.645  0.7692  0.5856 -0.8569
  692MOL0     C93292   4.163   4.667   3.725 -1.1969 -0.1844 -0.0418
  692MOL0     O93293   4.247   4.558   3.718  0.4924  0.7966 -0.0118
  692MOL0     C93294   4.377   4.571   3.776 -0.7574 -0.2507  0.4496
  692MOL0     C93295   4.469   4.682   3.719  0.2747  0.0300 -1.1720
  692MOL0     C93296   4.440   4.689   3.567  0.3699  0.1320 -0.7532
  692MOL0     C93297   4.509   4.801   3.498 -0.4349  0.2680 -0.0981
  692MOL0     C93298   4.435   4.854   3.373 -0.6931 -0.2478 -0.2203
  692MOL0     C93299   4.505   4.954   3.277 -0.0775 -0.7782  0.5106
  692MOL0     C93300   4.413   4.986   3.158 -0.4612 -0.0168  0.3364
  692MOL0     C93301   4.299   5.077   3.200 -0.1323 -0.1190 -0.9296
  692MOL0     N93302   4.337   5.213   3.247 -0.2341 -0.1826 -0.3706
  692MOL0     C93303   4.264   5.283   3.342  0.3019  0.2770 -1.0468
  692MOL0     C93304   4.320   5.398   3.341 -0.4897  0.4010  0.6444
  692MOL0     C93305   4.263   5.517   3.412 -0.8424 -0.2977  0.1653
  692MOL0     C93306   4.237   5.508   3.565 -1.1297  0.5126  0.2726
  692MOL0     C93307   4.102   5.429   3.602 -0.0163  0.2459  0.4860
  692MOL0     C93308   4.052   5.475   3.741 -0.0854 -0.4915 -0.0780
  692MOL0     O93309   4.081   5.383   3.851 -0.1464 -0.8449  0.3474
  692MOL0     C93310   4.052   5.420   3.976  0.0604  0.2440  0.4265
  692MOL0     C93311   4.051   5.322   4.065 -0.6633  0.5554 -0.3049
  692MOL0     C93312   4.019   5.340   4.207  0.1529 -0.0703  0.1416
  692MOL0     C93313   4.043   5.234   4.311  0.5013 -0.1497  0.7066
  692MOL0     C93314   3.969   5.470   4.240  0.0593 -0.3908 -0.2735
  692MOL0     C93315   3.928   5.510   4.384  0.3689 -0.0476 -0.6929
  692MOL0     O93316   3.874   5.635   4.398 -0.1422  0.0977  0.1576
  692MOL0     C93317   3.863   5.690   4.522 -0.9056 -0.0172  0.6252
  692MOL0     C93318   3.949   5.678   4.634  0.9758  0.3117 -0.2775
  692MOL0     C93319   3.925   5.769   4.742  0.0966 -0.2310  0.3797
  692MOL0     C93320   3.831   5.880   4.737  0.7583  0.0056 -0.1974
  692MOL0     O93321   3.793   5.950   4.852  0.3355 -0.4734  0.2906
  692MOL0     C93322   3.758   6.089   4.849 -0.5299 -0.2473 -0.6791
  692MOL0     C93323   3.861   6.165   4.930  0.2782  0.2652  1.2200
  692MOL0     C93324   3.836   6.320   4.912 -0.3842  0.0686  0.0659
  692MOL0     C93325   3.730   6.377   4.999  1.3286 -0.2622  0.5922
  692MOL0     C93326   3.713   6.535   4.987 -0.4632  0.4313  0.4030
  692MOL0     C93327   3.570   6.582   4.951 -0.3776 -0.5099 -0.6528
  692MOL0     C93328   3.572   6.733   4.932 -0.2354  0.3715 -0.5954
  692MOL0     C93329   3.425   6.776   4.941 -0.2687  0.5013 -0.5203
  692MOL0    Cl93330   3.329   6.699   4.811 -0.2376 -0.1321  0.0058
  692MOL0     C93331   3.746   5.884   4.620  0.6258 -0.3507  0.3888
  692MOL0     C93332   3.773   5.792   4.517  0.0744 -0.4641 -0.0403
  692MOL0     O93333   3.943   5.432   4.477 -0.2609 -0.2212  0.3558
  692MOL0     C93334   3.958   5.568   4.142  0.6083 -0.2306  1.1271
  692MOL0     C93335   4.002   5.542   4.014  0.3940  0.4377 -0.0063
  692MOL0     N93336   4.423   5.414   3.245  0.1379 -0.1595  0.1033
  692MOL0     N93337   4.417   5.302   3.182 -0.6658  0.9547  0.3012
  692MOL0     C93338   4.175   4.782   3.807 -0.2903 -0.7197  0.0315
  692MOL0     C93339   4.075   4.888   3.784 -0.9039  0.4790  0.0279
  692MOL0     C93340   3.866   5.176   3.532  0.0534  1.0394 -0.3496
  692MOL0     C93341   3.844   5.213   3.404  0.5105  0.8962 -0.1286
  692MOL0     C93342   3.771   5.326   3.379 -0.1836  0.5711  0.5540
  692MOL0     C93343   3.709   5.391   3.485 -0.2328  0.2704  1.3593
  692MOL0     O93344   3.619   5.494   3.459  0.1859  0.5455 -0.5201
  692MOL0     C93345   3.656   5.612   3.382  0.8298  0.2336 -1.3226
  692MOL0     C93346   3.692   5.727   3.471  1.5557 -0.3051 -0.5163
  692MOL0     C93347   3.571   5.789   3.545  0.2245 -0.8099 -0.8668
  692MOL0     C93348   3.508   5.718   3.670 -0.0585 -0.3791  0.1367
  692MOL0     C93349   3.397   5.797   3.717  0.2976 -0.6124  0.7745
  692MOL0     C93350   3.319   5.872   3.772  0.3704  0.0962 -0.2609
  692MOL0     C93351   3.712   5.339   3.614  0.8017  0.8061 -0.5139
  692MOL0     C93352   3.800   5.233   3.638 -0.5048 -0.6632  0.9530
  692MOL0     H93353   3.854   4.734   3.590  2.5433  2.1665 -3.7954
  692MOL0     H93354   4.024   4.565   3.585  1.5473  0.4558 -0.9497
  692MOL0     H93355   4.375   4.588   3.884 -1.2786  0.9046  0.2725
  692MOL0     H93356   4.418   4.474   3.745 -1.8329 -0.9686  1.1912
  692MOL0     H93357   4.434   4.774   3.767 -1.2230 -0.9864 -0.2273
  692MOL0     H93358   4.573   4.669   3.749 -0.2278  1.5775  1.5700
  692MOL0     H93359   4.472   4.595   3.520  0.9053 -0.3755  0.5733
  692MOL0     H93360   4.332   4.702   3.559  0.2473  0.3020  0.8483
  692MOL0     H93361   4.527   4.887   3.563  3.9270  0.6312 -1.4745
  692MOL0     H93362   4.608   4.771   3.463 -0.5260  1.4691 -1.4781
  692MOL0     H93363   4.420   4.769   3.306  3.3494  0.0269 -1.7886
  692MOL0     H93364   4.344   4.889   3.421  0.3473 -0.4285  2.0272
  692MOL0     H93365   4.540   5.049   3.318  2.8606 -0.8953 -1.4337
  692MOL0     H93366   4.601   4.910   3.249  0.6774 -0.9195  3.0490
  692MOL0     H93367   4.481   5.038   3.090 -1.0760  1.6090  0.9208
  692MOL0     H93368   4.385   4.888   3.117  3.2289 -1.6066  1.2381
  692MOL0     H93369   4.227   5.029   3.266 -0.4731 -0.9297 -1.8797
  692MOL0     H93370   4.234   5.097   3.115 -1.4377  0.9985  0.2750
  692MOL0     H93371   4.187   5.240   3.406  0.6246  2.3232  0.8276
  692MOL0     H93372   4.331   5.602   3.397 -0.8036 -0.6957 -2.3752
  692MOL0     H93373   4.177   5.544   3.350  0.4850  1.2095 -1.0988
  692MOL0     H93374   4.225   5.612   3.598 -0.4801  0.6337  0.1319
  692MOL0     H93375   4.327   5.476   3.618 -1.0443 -0.3724 -0.4013
  692MOL0     H93376   4.127   5.322   3.605  0.8079  0.0506 -4.5896
  692MOL0     H93377   4.011   5.432   3.541  1.2466 -2.5281 -1.7793
  692MOL0     H93378   3.950   5.510   3.722  0.9670  1.1943 -3.4796
  692MOL0     H93379   4.118   5.557   3.773 -1.8031  0.6588  0.6447
  692MOL0     H93380   4.106   5.233   4.038  0.8912  0.1921  3.4982
  692MOL0     H93381   4.125   5.260   4.378  2.3502 -1.4773 -0.8849
  692MOL0     H93382   3.954   5.202   4.366 -1.1095  0.7088 -1.2842
  692MOL0     H93383   4.077   5.147   4.253  2.2961  1.4199 -0.7364
  692MOL0     H93384   4.021   5.598   4.646 -0.9014 -1.0822  2.9900
  692MOL0     H93385   3.982   5.779   4.834 -2.8100  1.0702  2.1700
  692MOL0     H93386   3.752   6.134   4.749 -0.4073  4.4434  1.1908
  692MOL0     H93387   3.664   6.102   4.904  0.1064  3.5637 -0.2404
  692MOL0     H93388   3.870   6.139   5.036 -2.6283  2.4819  2.1235
  692MOL0     H93389   3.960   6.137   4.892  0.2178 -0.8442  1.8300
  692MOL0     H93390   3.810   6.347   4.809 -1.0559 -0.5378  0.0666
  692MOL0     H93391   3.926   6.376   4.936 -0.8587  1.5066 -1.3415
  692MOL0     H93392   3.631   6.339   4.972  0.4857  0.2698  2.6885
  692MOL0     H93393   3.733   6.343   5.103  0.7965  1.6764  1.2889
  692MOL0     H93394   3.784   6.560   4.907  0.6401 -4.4999 -0.4723
  692MOL0     H93395   3.748   6.583   5.079  2.8599 -0.1486 -0.4240
  692MOL0     H93396   3.546   6.541   4.852  3.3925 -3.0417 -0.7160
  692MOL0     H93397   3.509   6.556   5.037 -1.6596  3.5283 -0.1211
  692MOL0     H93398   3.615   6.766   4.837 -1.0312  0.9037 -0.7834
  692MOL0     H93399   3.627   6.780   5.014 -2.4148  2.2258 -0.0779
  692MOL0     H93400   3.405   6.884   4.935 -0.8475  0.3292 -1.9594
  692MOL0     H93401   3.384   6.751   5.039  2.8993 -0.6350  0.6215
  692MOL0     H93402   3.681   5.969   4.602  0.3857 -0.8210 -1.1615
  692MOL0     H93403   3.707   5.795   4.431  2.5469  1.5332 -2.0321
  692MOL0     H93404   3.909   5.664   4.161  1.3304  0.3998 -0.0571
  692MOL0     H93405   3.987   5.618   3.938  0.9777 -2.7362 -3.6264
  692MOL0     H93406   4.259   4.797   3.874  1.1273 -1.4511 -1.4907
  692MOL0     H93407   4.087   4.985   3.833 -1.0636  0.6753 -0.3200
  692MOL0     H93408   3.889   5.157   3.322 -1.7625  2.2959 -2.4995
  692MOL0     H93409   3.751   5.370   3.281 -0.4027  0.4874  0.5594
  692MOL0     H93410   3.747   5.592   3.325  1.6636  0.8831 -0.2566
  692MOL0     H93411   3.570   5.644   3.321 -2.7141  0.6185  3.2988
  692MOL0     H93412   3.739   5.800   3.404  0.7069  0.0438 -0.7416
  692MOL0     H93413   3.759   5.702   3.553 -1.5460 -0.5565  2.1298
  692MOL0     H93414   3.492   5.799   3.470 -0.6910 -2.5746 -0.1896
  692MOL0     H93415   3.608   5.888   3.575 -1.9830 -0.2929  0.3221
  692MOL0     H93416   3.587   5.712   3.745 -1.7785  1.6033  2.2712
  692MOL0     H93417   3.476   5.619   3.635 -0.1920 -0.2649 -0.0628
  692MOL0     H93418   3.263   5.946   3.825  0.7970 -0.8123  1.5487
  692MOL0     H93419   3.655   5.381   3.697 -1.5031 -2.6047 -0.1801
  692MOL0     H93420   3.804   5.189   3.737 -3.5467 -1.7874  0.7017
  693MOL0     O93421   7.990   5.713   7.969  0.3676 -0.1865 -0.3979
  693MOL0     C93422   7.937   5.647   8.055  0.3096 -0.7039 -0.0699
  693MOL0     O93423   7.937   5.515   8.073 -0.0861 -0.4202  0.6829
  693MOL0     C93424   8.021   5.436   7.996  0.3101  0.6211  0.6089
  693MOL0     C93425   8.082   5.336   8.066  0.4905  0.4617  0.3687
  693MOL0     C93426   8.170   5.245   7.999 -0.4088 -0.5652 -0.3510
  693MOL0     C93427   8.178   5.254   7.858  0.5206 -0.6133  0.8668
  693MOL0     O93428   8.259   5.162   7.803  0.2350 -0.0439  0.9522
  693MOL0     C93429   8.193   5.064   7.727 -0.6313 -0.2967  0.5750
  693MOL0     C93430   8.299   4.975   7.665 -0.0946  0.4087 -0.4833
  693MOL0     C93431   8.356   4.872   7.773  0.1821 -0.3835 -0.5925
  693MOL0     C93432   8.487   4.808   7.718  0.2641 -0.9543 -0.2800
  693MOL0     C93433   8.582   4.772   7.833 -0.1140 -0.0788  0.3429
  693MOL0     C93434   8.540   4.662   7.927  0.8103 -0.9537 -0.1894
  693MOL0     C93435   8.644   4.653   8.041 -0.4263 -0.0078  0.0449
  693MOL0     C93436   8.645   4.509   8.110 -0.2978 -1.0341 -0.3577
  693MOL0     N93437   8.748   4.507   8.207 -1.1918 -0.7073 -1.1307
  693MOL0     C93438   8.881   4.518   8.175  0.6302 -0.8920 -0.1061
  693MOL0     C93439   8.949   4.494   8.292 -0.4159  0.6563 -0.0258
  693MOL0     C93440   9.091   4.454   8.314 -0.4740 -0.1026 -0.1114
  693MOL0     C93441   9.187   4.558   8.380 -0.4292  0.3870  0.2679
  693MOL0     C93442   9.157   4.593   8.517 -0.2635  0.0174 -0.3688
  693MOL0     C93443   9.262   4.678   8.584  0.1564  0.3971 -0.0527
  693MOL0     O93444   9.248   4.812   8.532 -0.3855 -0.5660  0.4407
  693MOL0     C93445   9.344   4.907   8.576  0.5982 -0.3969 -0.6094
  693MOL0     C93446   9.344   4.948   8.708 -0.6741 -0.3816  0.0365
  693MOL0     C93447   9.444   5.030   8.747  0.0842 -0.5134  0.4176
  693MOL0     C93448   9.447   5.050   8.901 -0.1633 -0.2133  0.4410
  693MOL0     C93449   9.532   5.095   8.658  0.4821 -0.8627  0.1651
  693MOL0     C93450   9.645   5.181   8.698 -0.4397  0.5633  0.3987
  693MOL0     O93451   9.719   5.235   8.594  0.1008  0.0589 -0.6397
  693MOL0     C93452   9.820   5.322   8.639 -0.1687  0.6132  0.5930
  693MOL0     C93453   9.796   5.463   8.652 -0.3192 -0.6403  0.3539
  693MOL0     C93454   9.893   5.548   8.710  0.2168 -0.6821  0.4480
  693MOL0     C93455  10.016   5.488   8.743 -1.2405 -0.0649 -0.1474
  693MOL0     O93456  10.131   5.556   8.799  0.2957 -0.7033 -0.1658
  693MOL0     C93457  10.119   5.700   8.810  0.3186  0.3070 -0.5078
  693MOL0     C93458  10.241   5.769   8.857 -0.5553  0.3325  0.0174
  693MOL0     C93459  10.345   5.801   8.743 -0.8666 -0.0124 -0.2658
  693MOL0     C93460  10.403   5.662   8.695 -0.0219 -0.6975 -0.7905
  693MOL0     C93461  10.548   5.681   8.643 -0.2296  0.9196 -1.0010
  693MOL0     C93462  10.619   5.555   8.579  0.9233 -0.5473 -0.1189
  693MOL0     C93463  10.760   5.572   8.529  0.6786 -0.1046 -0.3998
  693MOL0     C93464  10.863   5.580   8.640  1.0536 -0.3761  0.9281
  693MOL0    Cl93465  10.861   5.453   8.757  0.1797  0.1202  0.1065
  693MOL0     C93466  10.035   5.350   8.730 -0.1012 -0.4648  0.9121
  693MOL0     C93467   9.936   5.270   8.680 -0.0163  0.1154 -0.0047
  693MOL0     O93468   9.669   5.203   8.817 -0.0736 -0.0885 -0.1402
  693MOL0     C93469   9.526   5.054   8.524  0.8687 -0.3597  0.0878
  693MOL0     C93470   9.427   4.956   8.490 -0.0031 -0.4052 -0.0311
  693MOL0     N93471   8.855   4.476   8.393  0.5682 -0.1955  0.2585
  693MOL0     N93472   8.732   4.496   8.344  0.0467  0.0417 -0.2406
  693MOL0     C93473   8.118   5.353   7.787  0.7124  0.3545 -0.2429
  693MOL0     C93474   8.035   5.440   7.858 -0.2166 -0.7764 -0.1464
  693MOL0     C93475   7.856   5.732   8.148 -0.0361  0.7164 -0.1338
  693MOL0     C93476   7.775   5.671   8.244  0.4297 -0.5937 -0.0718
  693MOL0     C93477   7.683   5.746   8.325  0.4343 -0.2321 -0.3296
  693MOL0     C93478   7.678   5.885   8.301 -0.7057  0.2257 -0.7104
  693MOL0     O93479   7.595   5.952   8.382  0.3326 -0.5766  0.1882
  693MOL0     C93480   7.555   6.081   8.329  0.6787  0.3555  0.6563
  693MOL0     C93481   7.563   6.187   8.449 -0.3276  0.4327 -0.0020
  693MOL0     C93482   7.705   6.208   8.505 -0.1636  0.1799  0.8064
  693MOL0     C93483   7.752   6.354   8.499 -0.0985  0.0587  0.1254
  693MOL0     C93484   7.749   6.424   8.371  0.1404  0.0026 -0.5136
  693MOL0     C93485   7.738   6.492   8.266 -0.6217  1.3162  0.4905
  693MOL0     C93486   7.780   5.948   8.223  0.4874  0.5802  0.2048
  693MOL0     C93487   7.864   5.873   8.142  0.2376  0.1987 -0.4063
  693MOL0     H93488   8.064   5.318   8.172 -0.0564 -0.5609  0.1143
  693MOL0     H93489   8.224   5.168   8.054  0.3083  0.0058 -0.2561
  693MOL0     H93490   8.146   4.999   7.801  1.6864 -1.3911  1.1727
  693MOL0     H93491   8.125   5.116   7.658  1.4026  2.0724  0.2069
  693MOL0     H93492   8.259   4.921   7.579  0.7080  1.2838 -1.4242
  693MOL0     H93493   8.381   5.034   7.623  0.7344 -1.7978 -2.1427
  693MOL0     H93494   8.364   4.931   7.865 -2.2169 -1.7910  0.6171
  693MOL0     H93495   8.307   4.777   7.799  3.1547 -2.0810 -0.7287
  693MOL0     H93496   8.466   4.719   7.659 -1.9297  1.8745 -4.2220
  693MOL0     H93497   8.549   4.872   7.653  0.0218 -0.0679  0.3438
  693MOL0     H93498   8.671   4.741   7.777 -0.3624  0.6584 -0.4984
  693MOL0     H93499   8.612   4.864   7.885  1.0562 -0.9910  1.3286
  693MOL0     H93500   8.442   4.687   7.969  1.0194  1.2908 -0.9123
  693MOL0     H93501   8.521   4.565   7.880  0.5546 -0.3944 -1.2691
  693MOL0     H93502   8.742   4.658   7.992 -0.9722 -2.3595 -1.4388
  693MOL0     H93503   8.631   4.735   8.112  0.5208  1.9698 -1.9320
  693MOL0     H93504   8.672   4.435   8.034  4.9264 -2.2136  2.1838
  693MOL0     H93505   8.547   4.491   8.155 -0.4094 -0.7875 -0.5027
  693MOL0     H93506   8.929   4.515   8.077  4.2926 -1.2643  1.5092
  693MOL0     H93507   9.099   4.366   8.377 -2.2109 -1.8069 -2.1297
  693MOL0     H93508   9.125   4.439   8.211 -3.7070  1.9373 -1.6460
  693MOL0     H93509   9.180   4.648   8.318  3.0003  2.5558  2.6692
  693MOL0     H93510   9.287   4.511   8.378  0.1891  1.6078 -2.9748
  693MOL0     H93511   9.157   4.505   8.581  2.2341 -1.1775 -1.8553
  693MOL0     H93512   9.058   4.639   8.523 -0.6198 -0.6403 -1.0599
  693MOL0     H93513   9.366   4.657   8.557  0.2929 -0.0678  0.8230
  693MOL0     H93514   9.244   4.684   8.691  1.4158  4.1903  0.0823
  693MOL0     H93515   9.259   4.934   8.774 -1.7486 -1.9998 -1.5921
  693MOL0     H93516   9.517   4.981   8.948 -2.1259 -1.0726  2.2298
  693MOL0     H93517   9.470   5.152   8.935  0.9787 -0.5373  0.6781
  693MOL0     H93518   9.357   5.024   8.957  0.8362 -2.0507  1.2997
  693MOL0     H93519   9.701   5.500   8.614 -1.1577 -0.3921  2.5271
  693MOL0     H93520   9.864   5.651   8.722  0.0553 -0.8798  1.9439
  693MOL0     H93521  10.086   5.736   8.712 -2.6649  1.3341  0.7850
  693MOL0     H93522  10.034   5.711   8.877  0.1383 -2.1402 -0.2460
  693MOL0     H93523  10.219   5.870   8.891  0.4142  0.7531 -0.5633
  693MOL0     H93524  10.279   5.719   8.946 -1.4763  1.9548  1.3786
  693MOL0     H93525  10.424   5.868   8.779 -0.5246  0.4239 -1.7752
  693MOL0     H93526  10.293   5.862   8.669  0.9371  4.1477  1.5340
  693MOL0     H93527  10.422   5.581   8.767 -2.6717 -2.8671 -2.3214
  693MOL0     H93528  10.329   5.619   8.627 -1.5670 -2.2069  1.6871
  693MOL0     H93529  10.612   5.712   8.726  0.7602  0.5207 -1.5994
  693MOL0     H93530  10.550   5.753   8.560 -0.3195  0.5506 -1.3245
  693MOL0     H93531  10.610   5.476   8.655 -0.7633  0.3969  0.7317
  693MOL0     H93532  10.554   5.533   8.494 -2.2251 -1.0094  2.2098
  693MOL0     H93533  10.764   5.664   8.469 -4.2080  2.4641  2.5520
  693MOL0     H93534  10.774   5.486   8.462 -1.2654 -0.8256  0.0526
  693MOL0     H93535  10.855   5.677   8.688  0.4338 -0.9735  2.0766
  693MOL0     H93536  10.965   5.576   8.599  1.1764 -1.1082  1.2857
  693MOL0     H93537  10.122   5.290   8.757 -0.5679 -0.8733  1.5264
  693MOL0     H93538   9.946   5.164   8.660 -0.0328  0.5583 -2.7364
  693MOL0     H93539   9.577   5.091   8.436 -2.3240  2.1846 -0.9011
  693MOL0     H93540   9.412   4.923   8.388  0.3111 -1.4732  0.2494
  693MOL0     H93541   8.130   5.364   7.680  2.3103 -3.7895 -0.6820
  693MOL0     H93542   7.984   5.520   7.805 -0.0739  0.1973  1.1343
  693MOL0     H93543   7.777   5.564   8.261  1.3508 -0.6527 -0.5017
  693MOL0     H93544   7.625   5.699   8.404  2.9861  1.0174  2.4968
  693MOL0     H93545   7.608   6.113   8.239  1.3072 -2.3542 -0.0232
  693MOL0     H93546   7.454   6.088   8.287  0.1023 -0.1098  1.9195
  693MOL0     H93547   7.510   6.131   8.527  1.3006 -0.1881  0.6851
  693MOL0     H93548   7.519   6.282   8.417  1.8787  1.1484 -1.1002
  693MOL0     H93549   7.773   6.145   8.447 -0.7395 -0.0223  0.3426
  693MOL0     H93550   7.709   6.176   8.610 -0.1895 -1.3540  0.3669
  693MOL0     H93551   7.852   6.364   8.544 -0.1733  2.1911 -0.1177
  693MOL0     H93552   7.689   6.410   8.569 -0.9344 -1.4845  0.6582
  693MOL0     H93553   7.725   6.545   8.174 -0.9703  1.9164  0.8736
  693MOL0     H93554   7.806   6.053   8.227 -2.4206  1.3621  3.5847
  693MOL0     H93555   7.923   5.930   8.072  1.1731 -0.0920  0.1204
  694MOL0     O93556   1.646   6.469   7.980 -0.0440 -0.5559  0.3580
  694MOL0     C93557   1.725   6.451   7.888  0.0150  0.0529  0.6057
  694MOL0     O93558   1.866   6.470   7.889  0.5721  0.2734  0.4639
  694MOL0     C93559   1.914   6.525   8.010  0.3885  0.8391  0.2553
  694MOL0     C93560   1.885   6.473   8.137 -0.5325 -0.0251  0.5128
  694MOL0     C93561   1.953   6.519   8.255  0.9365  0.7220 -0.3428
  694MOL0     C93562   2.049   6.623   8.244  0.6246 -0.6434 -0.9246
  694MOL0     O93563   2.124   6.671   8.350  0.8609 -0.1796 -0.1464
  694MOL0     C93564   2.069   6.651   8.485 -0.5103 -0.1104  1.0881
  694MOL0     C93565   2.166   6.688   8.592 -0.5920 -0.1126  0.6862
  694MOL0     C93566   2.308   6.642   8.587 -0.2937 -0.1893 -0.0989
  694MOL0     C93567   2.377   6.693   8.711 -0.0092 -0.5124  0.1532
  694MOL0     C93568   2.526   6.665   8.719  0.5946 -0.0162  0.2900
  694MOL0     C93569   2.599   6.762   8.812  0.4599  0.1229 -0.1245
  694MOL0     C93570   2.546   6.766   8.961 -0.6155 -0.0980  0.0088
  694MOL0     C93571   2.525   6.617   9.022 -0.6030  0.2897  0.2773
  694MOL0     N93572   2.542   6.610   9.167  0.6890 -0.2510 -0.4544
  694MOL0     C93573   2.436   6.607   9.253 -0.6795  0.1179 -0.5688
  694MOL0     C93574   2.494   6.604   9.377  0.4698 -0.5033 -0.2444
  694MOL0     C93575   2.435   6.626   9.513  0.4646  0.2366 -0.2702
  694MOL0     C93576   2.516   6.718   9.607  0.3931 -0.0619  0.5679
  694MOL0     C93577   2.634   6.659   9.679  0.5763 -0.1774 -0.2541
  694MOL0     C93578   2.686   6.762   9.789  0.0347 -0.3239  0.5875
  694MOL0     O93579   2.827   6.740   9.796  0.1650 -0.1764 -0.0901
  694MOL0     C93580   2.893   6.821   9.884 -0.0612  0.4450  0.5460
  694MOL0     C93581   2.848   6.920   9.971  0.4757  1.5525 -0.9003
  694MOL0     C93582   2.921   6.981  10.069 -0.7977 -0.9879 -0.3280
  694MOL0     C93583   2.857   7.097  10.153 -0.0159  0.4031 -0.3387
  694MOL0     C93584   3.065   6.951  10.071  0.9705 -0.5239 -0.7672
  694MOL0     C93585   3.158   7.013  10.171  0.3360 -0.6098 -0.0736
  694MOL0     O93586   3.100   7.070  10.281 -0.5794 -0.4716 -0.4232
  694MOL0     C93587   3.186   7.126  10.366  0.4540 -1.8466 -0.0581
  694MOL0     C93588   3.194   7.269  10.370 -0.2245  0.1994 -0.0484
  694MOL0     C93589   3.281   7.328  10.470 -1.1775 -0.1216  0.2648
  694MOL0     C93590   3.358   7.248  10.560 -0.1967 -0.2751 -0.1960
  694MOL0     O93591   3.475   7.295  10.617 -0.3072  0.1974 -0.5854
  694MOL0     C93592   3.569   7.364  10.542 -0.3485 -0.5386  0.5253
  694MOL0     C93593   3.703   7.367  10.626  0.5124  0.5426  0.1610
  694MOL0     C93594   3.814   7.454  10.566 -0.4615  0.0675  0.4102
  694MOL0     C93595   3.942   7.448  10.645  0.5168  0.3213 -0.5856
  694MOL0     C93596   4.044   7.538  10.581  0.2859  0.8252 -0.3419
  694MOL0     C93597   4.178   7.565  10.646 -0.9148 -0.7499  0.0368
  694MOL0     C93598   4.177   7.613  10.796  0.1181 -0.5464  0.3461
  694MOL0     C93599   4.119   7.750  10.809  0.0654 -0.0383  0.4634
  694MOL0    Cl93600   3.946   7.756  10.783 -0.3153 -0.0173 -0.2750
  694MOL0     C93601   3.348   7.106  10.550  1.2728  1.1328  0.6100
  694MOL0     C93602   3.263   7.049  10.454  0.1227  0.0675 -0.4346
  694MOL0     O93603   3.278   7.001  10.158  0.2622 -0.4718  1.4030
  694MOL0     C93604   3.106   6.840   9.988 -0.9642  0.0591  1.0061
  694MOL0     C93605   3.023   6.776   9.901  0.1473 -0.4538 -0.7297
  694MOL0     N93606   2.629   6.605   9.348 -0.0220  0.1862  0.1271
  694MOL0     N93607   2.661   6.610   9.226  0.4425 -0.2295 -0.2940
  694MOL0     C93608   2.091   6.663   8.116  1.0042  0.4900 -0.2146
  694MOL0     C93609   2.018   6.611   8.002  0.4668 -0.4460  0.2016
  694MOL0     C93610   1.666   6.454   7.747 -0.3716 -0.9905 -0.5132
  694MOL0     C93611   1.538   6.502   7.723 -0.7260  0.6298 -0.2324
  694MOL0     C93612   1.485   6.501   7.590 -0.2700  0.6372 -0.5511
  694MOL0     C93613   1.562   6.453   7.484 -0.7321 -1.3189  0.9973
  694MOL0     O93614   1.494   6.465   7.359 -0.4363  1.4425 -0.0767
  694MOL0     C93615   1.512   6.358   7.258  0.0556  0.2586 -0.1049
  694MOL0     C93616   1.631   6.398   7.177 -0.0798  0.5384 -0.4173
  694MOL0     C93617   1.667   6.282   7.073 -0.1366  0.0189 -0.2135
  694MOL0     C93618   1.687   6.141   7.134  0.8654  0.0678  0.5265
  694MOL0     C93619   1.787   6.127   7.239  0.0142 -0.0209  0.2547
  694MOL0     C93620   1.861   6.110   7.340  0.8316  0.0827  0.3110
  694MOL0     C93621   1.690   6.401   7.511 -0.0447 -0.3314  0.7800
  694MOL0     C93622   1.739   6.400   7.639  0.2785 -0.1699 -1.0571
  694MOL0     H93623   1.810   6.396   8.149 -1.4661  0.9030  0.8689
  694MOL0     H93624   1.934   6.471   8.350  2.1404  0.2147 -0.3387
  694MOL0     H93625   1.975   6.705   8.495 -1.2666 -1.0413 -0.6675
  694MOL0     H93626   2.049   6.544   8.499 -0.4530 -0.0111  2.0335
  694MOL0     H93627   2.167   6.797   8.594 -2.4414 -0.0773  2.1404
  694MOL0     H93628   2.120   6.666   8.689  2.9020 -0.2745  2.4700
  694MOL0     H93629   2.308   6.533   8.574 -0.9244 -0.0780 -1.1510
  694MOL0     H93630   2.366   6.686   8.505 -1.8639 -0.3669 -1.3570
  694MOL0     H93631   2.356   6.800   8.719 -1.8198 -0.9324  2.3831
  694MOL0     H93632   2.332   6.647   8.800 -0.0940 -1.1146 -0.2005
  694MOL0     H93633   2.545   6.558   8.733  3.6310  0.0435 -2.2092
  694MOL0     H93634   2.567   6.690   8.620 -2.0472  1.8484 -0.4320
  694MOL0     H93635   2.705   6.734   8.809 -0.2146 -2.6967 -0.6346
  694MOL0     H93636   2.580   6.860   8.766 -4.3361 -0.6991 -0.4769
  694MOL0     H93637   2.623   6.820   9.018 -0.7853 -0.2436  0.3790
  694MOL0     H93638   2.449   6.816   8.965 -0.1586  0.8728 -0.6793
  694MOL0     H93639   2.597   6.552   8.971 -1.4957 -1.1485  0.7830
  694MOL0     H93640   2.424   6.580   9.002 -1.1822  0.0267  3.2409
  694MOL0     H93641   2.330   6.606   9.231 -1.1326 -2.7459  1.2655
  694MOL0     H93642   2.337   6.676   9.510  0.8164  1.3859  3.2366
  694MOL0     H93643   2.435   6.526   9.557  1.0861  0.5474  0.4568
  694MOL0     H93644   2.444   6.761   9.678  1.1555  0.8436  0.8160
  694MOL0     H93645   2.544   6.809   9.553 -0.0546 -0.4165 -0.2815
  694MOL0     H93646   2.714   6.642   9.607  3.0175  0.0806  2.2201
  694MOL0     H93647   2.610   6.564   9.729 -2.9392  1.7796  2.1975
  694MOL0     H93648   2.648   6.753   9.891  3.5761  1.4716  2.2536
  694MOL0     H93649   2.665   6.866   9.761  0.5850  0.7604  3.7608
  694MOL0     H93650   2.741   6.940   9.967  0.3075  0.5914 -1.4235
  694MOL0     H93651   2.860   7.061  10.256  0.4282 -3.6492 -1.5642
  694MOL0     H93652   2.914   7.190  10.152  0.0318  0.3891  0.3304
  694MOL0     H93653   2.753   7.108  10.119  0.5300  1.3867 -1.7372
  694MOL0     H93654   3.127   7.330  10.309 -2.3257 -1.7213  0.2271
  694MOL0     H93655   3.290   7.436  10.478 -1.0355 -0.2058  1.4187
  694MOL0     H93656   3.600   7.317  10.448  0.8035 -0.0308  0.6300
  694MOL0     H93657   3.532   7.465  10.520 -3.4303 -0.7299  3.9708
  694MOL0     H93658   3.671   7.407  10.723  1.2585 -1.1654  1.1557
  694MOL0     H93659   3.727   7.260  10.626 -0.8726  0.1206 -2.9193
  694MOL0     H93660   3.772   7.555  10.572 -1.1305 -0.2853  3.7956
  694MOL0     H93661   3.828   7.420  10.463 -1.3916  0.8582  0.0060
  694MOL0     H93662   3.934   7.477  10.751 -0.3738  0.2648 -0.6340
  694MOL0     H93663   3.979   7.345  10.642 -0.4066 -0.0269 -0.3898
  694MOL0     H93664   3.991   7.632  10.561 -3.4919 -1.2046 -0.8153
  694MOL0     H93665   4.069   7.497  10.483  0.8903  3.0022 -1.1464
  694MOL0     H93666   4.238   7.474  10.645 -0.6242 -0.7066  2.9245
  694MOL0     H93667   4.240   7.638  10.592  2.2904 -3.5598 -0.3819
  694MOL0     H93668   4.278   7.628  10.836  0.1765  0.3385 -0.1096
  694MOL0     H93669   4.132   7.533  10.855  1.6064 -3.9590 -2.7524
  694MOL0     H93670   4.172   7.827  10.753 -2.2678  0.8432 -0.6657
  694MOL0     H93671   4.144   7.776  10.912  1.7783 -0.9149  0.3001
  694MOL0     H93672   3.404   7.033  10.608 -1.4801 -1.6564 -0.0134
  694MOL0     H93673   3.264   6.941  10.457  0.2443  0.0965  1.5292
  694MOL0     H93674   3.213   6.820   9.984 -1.0121 -0.1337  0.6844
  694MOL0     H93675   3.072   6.707   9.833  1.7669  1.9106 -2.1113
  694MOL0     H93676   2.177   6.728   8.105  0.3834  1.4491  0.4206
  694MOL0     H93677   2.033   6.647   7.900  0.2764  0.9148  0.6317
  694MOL0     H93678   1.474   6.541   7.802 -1.8217 -1.1001 -0.2068
  694MOL0     H93679   1.388   6.546   7.575 -0.2660  1.8923  2.4886
  694MOL0     H93680   1.524   6.262   7.308 -0.0470 -2.1412 -4.2248
  694MOL0     H93681   1.428   6.349   7.189  1.5738 -2.2286 -1.7998
  694MOL0     H93682   1.713   6.429   7.243 -0.2896 -1.2081  0.7205
  694MOL0     H93683   1.608   6.485   7.114  1.3480  0.8909 -0.5030
  694MOL0     H93684   1.756   6.310   7.016 -0.8354  1.3823 -0.6578
  694MOL0     H93685   1.585   6.286   7.001  0.9193  1.4030 -1.3966
  694MOL0     H93686   1.714   6.080   7.047  2.2263  4.6802 -2.6738
  694MOL0     H93687   1.595   6.097   7.174  0.3220  0.3192 -0.4006
  694MOL0     H93688   1.923   6.103   7.427 -0.9008  0.3101  1.6274
  694MOL0     H93689   1.751   6.357   7.433  0.8240  1.6512  0.2898
  694MOL0     H93690   1.831   6.347   7.660 -0.5151 -0.9615  0.5932
  695MOL0     O93691   4.676   6.521   2.022  0.5281  0.6077  0.0124
  695MOL0     C93692   4.668   6.631   2.075  0.2727  0.1161  0.0358
  695MOL0     O93693   4.580   6.661   2.174  0.1499 -0.4856  0.0686
  695MOL0     C93694   4.525   6.557   2.241  0.0568 -0.1121  0.5253
  695MOL0     C93695   4.604   6.476   2.325  0.9056 -0.7291  0.9107
  695MOL0     C93696   4.556   6.378   2.404  0.0196 -0.4973  0.3132
  695MOL0     C93697   4.418   6.354   2.401  0.2808 -0.0589  0.4808
  695MOL0     O93698   4.366   6.271   2.496  0.2974 -0.6643 -0.0959
  695MOL0     C93699   4.421   6.136   2.510  0.5009 -0.5743  0.0974
  695MOL0     C93700   4.312   6.037   2.548 -0.6667 -0.0835  0.1128
  695MOL0     C93701   4.294   6.032   2.704 -0.5203 -0.9831  0.9905
  695MOL0     C93702   4.189   5.931   2.738  0.6684 -1.0195  0.3152
  695MOL0     C93703   4.240   5.788   2.732 -0.0684  0.7497  1.0459
  695MOL0     C93704   4.292   5.730   2.864 -0.5140 -0.3241  0.4398
  695MOL0     C93705   4.185   5.734   2.979 -0.3757 -0.7063  0.0765
  695MOL0     C93706   4.184   5.629   3.082  0.7068  0.9355 -0.3037
  695MOL0     N93707   4.120   5.503   3.044 -1.1118 -0.4338  0.7460
  695MOL0     C93708   4.143   5.424   2.934  1.0779  0.1334  0.5935
  695MOL0     C93709   4.049   5.318   2.938  0.4267 -1.2233  0.2040
  695MOL0     C93710   4.028   5.205   2.848 -0.3192  0.2304  0.9567
  695MOL0     C93711   4.153   5.114   2.826  0.2446 -0.1000  0.7502
  695MOL0     C93712   4.173   5.062   2.683 -0.0907  0.1385 -0.2021
  695MOL0     C93713   4.282   4.953   2.705  0.8492 -0.6463  0.8823
  695MOL0     O93714   4.405   4.998   2.748 -0.9100 -0.4123 -0.9753
  695MOL0     C93715   4.466   5.105   2.693  0.2356 -0.6145  0.5668
  695MOL0     C93716   4.478   5.129   2.558  0.2012 -0.3513 -0.1767
  695MOL0     C93717   4.519   5.250   2.510  0.9838 -0.4093  0.7511
  695MOL0     C93718   4.533   5.268   2.359 -0.2715 -0.5912  0.2185
  695MOL0     C93719   4.555   5.356   2.600  0.3819 -0.1332 -0.9248
  695MOL0     C93720   4.585   5.488   2.556  0.5104 -0.4176 -0.7609
  695MOL0     O93721   4.673   5.556   2.632 -0.4616 -0.2114  0.4322
  695MOL0     C93722   4.701   5.693   2.609  0.2538  0.4916  0.6263
  695MOL0     C93723   4.684   5.781   2.715 -0.6565 -0.3373  0.0778
  695MOL0     C93724   4.710   5.911   2.701 -0.2738 -0.2405  0.6260
  695MOL0     C93725   4.763   5.965   2.584 -1.2566 -0.3443  0.3192
  695MOL0     O93726   4.774   6.106   2.569  0.2536  0.6220  0.4348
  695MOL0     C93727   4.884   6.170   2.631  0.7243  0.2387 -0.2898
  695MOL0     C93728   5.019   6.141   2.563  0.3452  0.4538 -0.6059
  695MOL0     C93729   5.016   6.175   2.413 -0.8059  0.0377  0.2417
  695MOL0     C93730   4.969   6.321   2.391  0.4529  0.1625  0.7334
  695MOL0     C93731   4.988   6.371   2.252  0.8627 -0.7157 -0.2246
  695MOL0     C93732   5.114   6.332   2.166 -0.8369  0.0253  0.4560
  695MOL0     C93733   5.257   6.388   2.210 -1.1551 -0.4153  0.2059
  695MOL0     C93734   5.368   6.307   2.142  0.1003  0.0118 -0.6219
  695MOL0    Cl93735   5.534   6.374   2.163 -0.3290 -0.1075 -0.0796
  695MOL0     C93736   4.773   5.879   2.475 -0.2202  0.8143  0.5154
  695MOL0     C93737   4.747   5.746   2.483 -0.1445 -0.7679 -0.1811
  695MOL0     O93738   4.522   5.534   2.463 -0.1772 -0.2982  0.0938
  695MOL0     C93739   4.548   5.329   2.741  0.1537 -0.1720 -0.3526
  695MOL0     C93740   4.508   5.202   2.788  0.8722  0.0118  0.2261
  695MOL0     N93741   3.977   5.338   3.057  0.5885 -0.3272 -0.1821
  695MOL0     N93742   4.014   5.448   3.115  0.8758  0.4740  0.1796
  695MOL0     C93743   4.334   6.422   2.310  0.1226  0.0300 -0.5378
  695MOL0     C93744   4.396   6.530   2.232 -0.4180  0.3665 -1.2307
  695MOL0     C93745   4.731   6.748   2.004 -0.8561  0.9157 -0.1212
  695MOL0     C93746   4.791   6.723   1.873  0.5219 -0.0143 -0.3135
  695MOL0     C93747   4.820   6.836   1.797 -0.0830 -0.4885 -0.3571
  695MOL0     C93748   4.813   6.965   1.849  0.4380  1.1541  0.1520
  695MOL0     O93749   4.872   7.055   1.770 -0.3239 -0.4464  0.0600
  695MOL0     C93750   4.883   7.186   1.815  0.0332 -0.0167  0.0287
  695MOL0     C93751   4.973   7.283   1.740 -0.6801 -0.1460  0.1846
  695MOL0     C93752   4.969   7.431   1.785 -0.1145 -0.5955 -0.3658
  695MOL0     C93753   5.029   7.544   1.700 -0.0271 -0.5514 -0.6272
  695MOL0     C93754   5.008   7.680   1.762 -0.6849 -0.4046  0.3728
  695MOL0     C93755   5.005   7.782   1.829  0.0377 -0.2892 -0.9806
  695MOL0     C93756   4.769   6.982   1.984  0.4251  0.3589  0.0618
  695MOL0     C93757   4.727   6.874   2.055  0.2881 -0.3541  0.1407
  695MOL0     H93758   4.711   6.495   2.312  0.9644 -1.1989  0.7108
  695MOL0     H93759   4.627   6.321   2.462 -0.2007  0.9023  2.0427
  695MOL0     H93760   4.473   6.100   2.420  0.1977 -0.8085  0.0108
  695MOL0     H93761   4.496   6.141   2.588  0.6814 -1.4964 -0.0040
  695MOL0     H93762   4.217   6.066   2.502 -1.7395  0.1683  2.3865
  695MOL0     H93763   4.352   5.943   2.509  0.2950  0.0854  0.6502
  695MOL0     H93764   4.387   6.002   2.754 -0.8924 -1.6669  1.2893
  695MOL0     H93765   4.258   6.128   2.742 -0.6531 -0.2907 -0.7935
  695MOL0     H93766   4.148   5.966   2.833  1.8413 -0.5407  0.6681
  695MOL0     H93767   4.108   5.933   2.665 -0.4170  0.8257  1.4950
  695MOL0     H93768   4.157   5.728   2.694  2.5604 -1.4065 -1.8625
  695MOL0     H93769   4.317   5.775   2.655  0.6991 -1.2225  2.0627
  695MOL0     H93770   4.314   5.626   2.839  1.0026 -0.1351  0.8273
  695MOL0     H93771   4.385   5.779   2.896 -2.1579  2.7155  0.9319
  695MOL0     H93772   4.195   5.833   3.025 -4.8174  0.4615 -1.0328
  695MOL0     H93773   4.086   5.744   2.934  0.1949  4.3245 -0.6213
  695MOL0     H93774   4.138   5.671   3.172  1.6343  1.9599 -0.2813
  695MOL0     H93775   4.284   5.612   3.122 -0.0365 -2.0832  0.4911
  695MOL0     H93776   4.206   5.438   2.847  0.8070 -3.2176 -0.2705
  695MOL0     H93777   3.940   5.143   2.868 -0.8868 -0.3181 -2.5722
  695MOL0     H93778   4.015   5.258   2.753  1.4596  5.5598  3.3064
  695MOL0     H93779   4.130   5.032   2.895 -0.4366 -3.5781 -3.1798
  695MOL0     H93780   4.244   5.168   2.853 -2.0236  2.0352  5.0962
  695MOL0     H93781   4.218   5.143   2.624  3.8938  0.4308  2.7948
  695MOL0     H93782   4.083   5.019   2.637  0.2385 -0.6790 -0.1014
  695MOL0     H93783   4.284   4.895   2.612  1.8218  0.7812 -0.0260
  695MOL0     H93784   4.242   4.893   2.788 -2.0792 -0.2810 -0.1375
  695MOL0     H93785   4.433   5.055   2.493  0.3336  1.0808 -1.9787
  695MOL0     H93786   4.514   5.167   2.323 -2.1973 -0.0365 -0.4639
  695MOL0     H93787   4.449   5.330   2.324 -0.1913  0.6585  2.0718
  695MOL0     H93788   4.632   5.302   2.330 -0.4314  0.0117  0.3571
  695MOL0     H93789   4.646   5.729   2.802  0.6355 -1.9779 -0.2934
  695MOL0     H93790   4.682   5.973   2.786  0.3842 -2.2082  2.3879
  695MOL0     H93791   4.865   6.278   2.638 -1.0196 -0.0351 -0.5553
  695MOL0     H93792   4.876   6.134   2.734  2.3806 -3.1167 -1.2114
  695MOL0     H93793   5.082   6.208   2.622  0.3636 -0.3251  0.2863
  695MOL0     H93794   5.042   6.036   2.583 -3.1526 -0.1527  1.0363
  695MOL0     H93795   4.950   6.106   2.360 -0.3717  0.1194 -0.4216
  695MOL0     H93796   5.114   6.168   2.364 -1.2275  2.2119 -1.0572
  695MOL0     H93797   4.861   6.329   2.404  0.3312 -2.1852  1.6326
  695MOL0     H93798   5.025   6.387   2.457  1.7506 -1.8490  1.7601
  695MOL0     H93799   4.988   6.480   2.246  1.8623 -0.7657 -2.1958
  695MOL0     H93800   4.906   6.322   2.199  0.8736 -1.0470  0.0662
  695MOL0     H93801   5.114   6.224   2.154  0.3121  0.2882 -2.6893
  695MOL0     H93802   5.108   6.365   2.062 -2.9802  0.4436  0.6581
  695MOL0     H93803   5.269   6.372   2.318  0.8634 -0.8218 -0.0527
  695MOL0     H93804   5.264   6.497   2.207  1.1344 -0.3763  2.7150
  695MOL0     H93805   5.346   6.303   2.034  0.6565  1.9358 -0.8298
  695MOL0     H93806   5.361   6.203   2.175  1.6802 -0.6902 -2.3261
  695MOL0     H93807   4.784   5.917   2.374 -1.4349 -1.0203 -0.3716
  695MOL0     H93808   4.763   5.685   2.394  0.2963 -1.5222  0.3968
  695MOL0     H93809   4.586   5.408   2.805  0.0579  1.4478 -2.1910
  695MOL0     H93810   4.512   5.173   2.893 -1.8895  0.0402  0.4040
  695MOL0     H93811   4.230   6.391   2.308  0.4175 -0.9729 -1.3275
  695MOL0     H93812   4.338   6.603   2.176 -1.0940  1.5265  0.8651
  695MOL0     H93813   4.790   6.625   1.826  1.8447  1.0614 -2.7707
  695MOL0     H93814   4.878   6.821   1.707 -0.6034  2.6042 -1.3153
  695MOL0     H93815   4.785   7.234   1.820 -0.8267 -1.8135  3.3770
  695MOL0     H93816   4.928   7.198   1.914 -2.2387  1.6658  0.9476
  695MOL0     H93817   4.936   7.272   1.638  1.2557 -0.3957 -0.5135
  695MOL0     H93818   5.075   7.245   1.748  0.0947  2.0229  1.5755
  695MOL0     H93819   5.017   7.431   1.883 -1.1561  1.2657  0.1748
  695MOL0     H93820   4.867   7.466   1.800  0.2881  0.2714  0.4072
  695MOL0     H93821   4.973   7.543   1.606 -0.8409 -2.0239 -0.1574
  695MOL0     H93822   5.136   7.522   1.697 -0.0056 -0.8997  1.6512
  695MOL0     H93823   4.996   7.866   1.894  2.3594 -1.6900  1.3617
  695MOL0     H93824   4.777   7.081   2.028  1.5337  0.7695 -1.0147
  695MOL0     H93825   4.695   6.897   2.156  1.8630 -1.2761  0.8832
  696MOL0     O93826   1.777   0.808   9.867  0.3127  0.5151 -1.2942
  696MOL0     C93827   1.682   0.859   9.812 -1.5214 -0.4618  0.5025
  696MOL0     O93828   1.596   0.953   9.850 -0.0269 -0.1564  0.1740
  696MOL0     C93829   1.599   1.030   9.963  0.2755 -0.1971 -0.0189
  696MOL0     C93830   1.691   1.014  10.074  0.0772  1.0112  0.7013
  696MOL0     C93831   1.700   1.120  10.158 -0.0346 -0.3282 -0.8133
  696MOL0     C93832   1.604   1.217  10.175  0.2512 -0.5522  0.0849
  696MOL0     O93833   1.609   1.321  10.280  0.4220  0.7464  1.1649
  696MOL0     C93834   1.503   1.419  10.283  0.2763  0.4093 -0.6204
  696MOL0     C93835   1.538   1.540  10.380 -0.3053  0.3817  0.3312
  696MOL0     C93836   1.498   1.514  10.533 -0.3619 -0.4422 -0.0511
  696MOL0     C93837   1.546   1.380  10.603 -1.0453 -0.7483 -0.1226
  696MOL0     C93838   1.484   1.364  10.746  0.8088 -0.3491  0.1090
  696MOL0     C93839   1.514   1.478  10.845  0.6245 -0.5558 -0.4761
  696MOL0     C93840   1.656   1.518  10.870  0.1061 -0.3537  0.2847
  696MOL0     C93841   1.677   1.622  10.988 -1.0749  0.3842 -0.3756
  696MOL0     N93842   1.628   1.755  10.944  0.1189  0.0125 -0.0999
  696MOL0     C93843   1.714   1.843  10.883  0.4482 -1.2663  0.8714
  696MOL0     C93844   1.633   1.947  10.854  0.2517 -0.2475 -0.6958
  696MOL0     C93845   1.675   2.084  10.805 -0.1151 -1.1238 -0.4264
  696MOL0     C93846   1.725   2.077  10.658  0.1377 -0.3167  0.6522
  696MOL0     C93847   1.614   2.011  10.568  0.2463 -0.4587  0.2390
  696MOL0     C93848   1.635   2.059  10.427 -0.1588  0.1058  0.6939
  696MOL0     O93849   1.550   1.983  10.332 -0.1820  0.0076  0.7543
  696MOL0     C93850   1.609   1.932  10.217  0.0682 -0.0507  0.6527
  696MOL0     C93851   1.718   1.984  10.142 -0.3808 -0.3690  0.7998
  696MOL0     C93852   1.791   1.920  10.041  1.1176  0.3513 -0.1888
  696MOL0     C93853   1.919   1.994   9.991 -0.5985  0.4079 -0.3935
  696MOL0     C93854   1.736   1.789   9.992  0.0092 -0.5153  0.1500
  696MOL0     C93855   1.811   1.718   9.880  0.8666 -0.6128 -0.2976
  696MOL0     O93856   1.938   1.758   9.849  0.1497 -0.9304  0.0605
  696MOL0     C93857   2.028   1.679   9.774  0.7001 -0.1187 -0.9405
  696MOL0     C93858   2.163   1.724   9.762  0.3673  0.1578 -0.6585
  696MOL0     C93859   2.260   1.639   9.710 -0.3043 -0.0341 -0.2506
  696MOL0     C93860   2.235   1.513   9.652  0.2783  0.0971  0.5108
  696MOL0     O93861   2.338   1.436   9.588 -0.6466  0.0044 -0.7432
  696MOL0     C93862   2.311   1.337   9.494 -0.0375  0.6575 -0.1832
  696MOL0     C93863   2.435   1.289   9.417 -0.5173 -0.7394 -0.1480
  696MOL0     C93864   2.397   1.193   9.298  0.7504 -0.2449 -0.7969
  696MOL0     C93865   2.510   1.215   9.191  0.3935 -0.1888  0.0395
  696MOL0     C93866   2.479   1.144   9.058 -0.5074  0.2760  0.3096
  696MOL0     C93867   2.364   1.182   8.965 -0.6809 -0.2324 -0.0587
  696MOL0     C93868   2.311   1.062   8.879 -0.2898  0.0070 -0.3031
  696MOL0     C93869   2.417   0.993   8.800  0.4655  0.0206 -0.2280
  696MOL0    Cl93870   2.349   0.902   8.652 -0.3876  0.0474 -0.0128
  696MOL0     C93871   2.102   1.462   9.664  0.3503  0.4551  0.7826
  696MOL0     C93872   2.003   1.543   9.728  0.3060  0.2028 -0.5001
  696MOL0     O93873   1.753   1.616   9.846  0.6098 -0.4382  0.0962
  696MOL0     C93874   1.632   1.734  10.060  0.8149 -0.0432 -0.4143
  696MOL0     C93875   1.572   1.808  10.165  0.6916  0.3827  0.2005
  696MOL0     N93876   1.503   1.922  10.903  0.3937  0.1467  0.2705
  696MOL0     N93877   1.505   1.800  10.947  0.4207  0.3317  0.7051
  696MOL0     C93878   1.496   1.206  10.083 -0.2756 -0.3768 -0.2040
  696MOL0     C93879   1.504   1.122   9.974 -0.2851  0.4679  0.5055
  696MOL0     C93880   1.656   0.819   9.675 -0.1184 -0.0101  0.7803
  696MOL0     C93881   1.520   0.811   9.631  0.2032 -0.1048 -0.4703
  696MOL0     C93882   1.486   0.761   9.507 -0.5707 -0.1856  0.3867
  696MOL0     C93883   1.584   0.712   9.426  0.1741 -0.9118 -0.6219
  696MOL0     O93884   1.561   0.641   9.309 -0.0431 -0.8843 -0.1728
  696MOL0     C93885   1.477   0.708   9.219  0.3806 -1.4702  0.8424
  696MOL0     C93886   1.475   0.651   9.076 -0.3891  0.4601 -0.0424
  696MOL0     C93887   1.469   0.493   9.067  0.4386 -0.0154  0.0944
  696MOL0     C93888   1.346   0.440   9.132 -0.0477  0.4332  0.7592
  696MOL0     C93889   1.303   0.302   9.090 -0.0333 -0.4597  0.4053
  696MOL0     C93890   1.269   0.193   9.041 -0.0974  0.4534  0.0066
  696MOL0     C93891   1.714   0.718   9.472 -0.6743 -0.1596 -0.6890
  696MOL0     C93892   1.751   0.780   9.589  0.5240  0.7688  0.4428
  696MOL0     H93893   1.766   0.936  10.069  0.7481  1.5442  2.0649
  696MOL0     H93894   1.790   1.113  10.218  2.2263  0.2782 -3.8676
  696MOL0     H93895   1.489   1.459  10.182  0.8849  0.0151 -0.8685
  696MOL0     H93896   1.411   1.374  10.320  1.1088 -1.6103 -0.8785
  696MOL0     H93897   1.643   1.566  10.360 -0.9713  1.6654 -1.9419
  696MOL0     H93898   1.473   1.621  10.347 -2.5550 -0.5879  2.1185
  696MOL0     H93899   1.545   1.604  10.574  0.2693  0.0948 -1.8648
  696MOL0     H93900   1.389   1.527  10.539 -0.1839  0.7626  1.2025
  696MOL0     H93901   1.502   1.303  10.540 -1.3472 -0.8202  0.1736
  696MOL0     H93902   1.654   1.366  10.593 -0.9043  1.3624 -2.1909
  696MOL0     H93903   1.379   1.348  10.719  0.7828  2.9380 -2.3586
  696MOL0     H93904   1.498   1.278  10.812  0.1164  0.7942  1.8310
  696MOL0     H93905   1.459   1.567  10.815 -0.7912 -1.2909 -0.1339
  696MOL0     H93906   1.477   1.463  10.947 -1.4384 -2.1406 -1.3764
  696MOL0     H93907   1.722   1.432  10.882  0.7559 -0.2077 -1.8072
  696MOL0     H93908   1.690   1.572  10.781 -1.6137 -1.6428 -1.2484
  696MOL0     H93909   1.784   1.642  11.000 -0.7287 -1.0767 -0.8572
  696MOL0     H93910   1.631   1.580  11.078  1.9649  0.1163  1.1877
  696MOL0     H93911   1.821   1.843  10.865  0.6322 -0.2789  1.9078
  696MOL0     H93912   1.590   2.152  10.800 -1.9270 -3.2232 -0.0573
  696MOL0     H93913   1.748   2.129  10.872  2.1130 -2.7919 -1.5745
  696MOL0     H93914   1.827   2.039  10.652  0.4689  0.7018 -0.4613
  696MOL0     H93915   1.742   2.181  10.630  2.1177 -0.6417  0.4976
  696MOL0     H93916   1.518   2.042  10.610 -0.6431  1.1152 -2.7120
  696MOL0     H93917   1.616   1.902  10.570  0.5649 -0.4933 -1.1388
  696MOL0     H93918   1.736   2.040  10.389 -0.6315  0.1497 -0.6102
  696MOL0     H93919   1.618   2.166  10.418  0.0513 -0.0107 -1.6096
  696MOL0     H93920   1.749   2.084  10.169  0.8170 -0.3618 -0.4710
  696MOL0     H93921   1.940   1.990   9.884  0.6766 -0.0321 -0.1455
  696MOL0     H93922   1.924   2.095  10.032 -2.2765  1.0224 -1.5518
  696MOL0     H93923   2.001   1.942  10.040  0.8957  0.5547 -2.6137
  696MOL0     H93924   2.197   1.818   9.804 -1.3580  1.1383 -1.3764
  696MOL0     H93925   2.360   1.682   9.706 -1.6012  3.6335  1.9796
  696MOL0     H93926   2.272   1.241   9.527 -2.0737  1.2260 -0.8001
  696MOL0     H93927   2.240   1.378   9.422 -2.9988 -2.4829  0.6600
  696MOL0     H93928   2.494   1.373   9.379  2.3901 -3.9202 -3.3901
  696MOL0     H93929   2.501   1.240   9.489  3.3926  2.1791 -1.3236
  696MOL0     H93930   2.293   1.218   9.275  0.3226  1.0680  2.0611
  696MOL0     H93931   2.409   1.093   9.341  0.5949  0.9820  2.4390
  696MOL0     H93932   2.516   1.321   9.166 -2.2644  0.1237  0.4047
  696MOL0     H93933   2.605   1.182   9.235  0.7745  1.5692  0.5988
  696MOL0     H93934   2.458   1.043   9.093 -2.7645  0.5680 -0.0458
  696MOL0     H93935   2.572   1.137   9.001 -0.4163  1.9914  0.1848
  696MOL0     H93936   2.281   1.224   9.022  0.4904  2.2003 -0.0190
  696MOL0     H93937   2.397   1.258   8.894  2.8023 -0.8821  0.6569
  696MOL0     H93938   2.234   1.106   8.814 -2.8494 -1.2039  1.7669
  696MOL0     H93939   2.251   0.983   8.923  0.8391 -1.6791 -1.6625
  696MOL0     H93940   2.457   0.915   8.864 -1.8965 -0.3366  0.9144
  696MOL0     H93941   2.491   1.072   8.782 -1.7469  2.2195 -0.2591
  696MOL0     H93942   2.081   1.361   9.632 -1.4344  0.9111  0.4002
  696MOL0     H93943   1.908   1.492   9.739  0.1109 -0.0208 -2.7358
  696MOL0     H93944   1.597   1.632  10.060  0.0447  0.1860  1.2405
  696MOL0     H93945   1.478   1.772  10.205  2.6816 -2.3290  2.9329
  696MOL0     H93946   1.401   1.259  10.085 -0.8242 -1.3298 -0.7129
  696MOL0     H93947   1.426   1.104   9.900  3.5269  0.5759 -4.0021
  696MOL0     H93948   1.445   0.852   9.698 -0.8061  4.2557 -3.7626
  696MOL0     H93949   1.382   0.744   9.481 -0.7295 -0.8416  1.3922
  696MOL0     H93950   1.374   0.706   9.255  1.1058 -1.0708  3.0347
  696MOL0     H93951   1.508   0.813   9.213 -1.9785 -0.7717 -0.7436
  696MOL0     H93952   1.565   0.694   9.031 -0.7275 -0.7620 -2.0129
  696MOL0     H93953   1.399   0.713   9.026 -1.1383  0.3769  0.9693
  696MOL0     H93954   1.556   0.447   9.114  0.3061  0.1211  0.4737
  696MOL0     H93955   1.470   0.474   8.959 -2.0601  1.3278 -0.2447
  696MOL0     H93956   1.258   0.496   9.098 -2.0130 -3.1403 -0.6193
  696MOL0     H93957   1.362   0.443   9.240  0.4618 -1.6401  0.7903
  696MOL0     H93958   1.241   0.107   8.983 -0.8655 -0.2101  1.3045
  696MOL0     H93959   1.793   0.676   9.410  1.9462  0.8844  1.6831
  696MOL0     H93960   1.856   0.783   9.618  1.1731 -0.2449 -1.6531
  697MOL0     O93961   4.264  10.025  10.080  0.2985 -0.0617 -0.8731
  697MOL0     C93962   4.202  10.110  10.141 -0.2045 -0.8979 -0.0855
  697MOL0     O93963   4.064  10.131  10.140  0.5955 -0.0333 -0.8181
  697MOL0     C93964   3.997  10.053  10.054  0.5983 -0.1844  0.2505
  697MOL0     C93965   3.935  10.126   9.950  0.4058 -0.2990 -0.1883
  697MOL0     C93966   3.841  10.056   9.871 -0.2686  1.0133 -0.1079
  697MOL0     C93967   3.827   9.913   9.888 -0.3235 -0.0725  0.0532
  697MOL0     O93968   3.751   9.843   9.802 -0.3849 -0.1543  0.7107
  697MOL0     C93969   3.687   9.902   9.683  0.4580 -0.7413  0.2454
  697MOL0     C93970   3.623   9.780   9.605 -0.0011  0.3680 -0.7755
  697MOL0     C93971   3.509   9.718   9.687  0.0919  0.2205  0.0260
  697MOL0     C93972   3.486   9.576   9.641 -0.9391  0.3299  0.5685
  697MOL0     C93973   3.375   9.508   9.702  0.0854 -0.4465  0.1389
  697MOL0     C93974   3.384   9.464   9.844  0.0489  0.0238  0.2157
  697MOL0     C93975   3.263   9.380   9.906 -0.3160  0.4970  0.8400
  697MOL0     C93976   3.127   9.449   9.892  0.6317  0.1446 -0.7416
  697MOL0     N93977   3.098   9.582   9.951  0.4179  1.1654 -0.1844
  697MOL0     C93978   3.096   9.599  10.084 -0.1579  0.4456  0.9712
  697MOL0     C93979   3.052   9.732  10.097 -0.3196  0.8080  0.5297
  697MOL0     C93980   3.041   9.800  10.225 -0.2116  0.2807  0.0351
  697MOL0     C93981   2.897   9.800  10.284 -0.9726 -0.3084 -0.8404
  697MOL0     C93982   2.881   9.885  10.396  0.1271  0.2162 -0.2002
  697MOL0     C93983   2.730   9.898  10.436  0.0371  0.4826 -0.9034
  697MOL0     O93984   2.702   9.934  10.573 -0.4080  0.3362 -0.3298
  697MOL0     C93985   2.763   9.859  10.669  0.3460 -0.6913 -1.7717
  697MOL0     C93986   2.815   9.925  10.780  0.6024  0.8321  0.1100
  697MOL0     C93987   2.865   9.858  10.888  0.5344  0.4075  0.5402
  697MOL0     C93988   2.932   9.960  10.979 -0.2543 -0.2117 -0.0350
  697MOL0     C93989   2.869   9.714  10.890 -0.3608  0.5748 -0.3619
  697MOL0     C93990   2.924   9.627  10.999  0.6771 -0.4549 -0.2508
  697MOL0     O93991   2.973   9.683  11.114  0.1043  0.2621 -0.9220
  697MOL0     C93992   3.003   9.596  11.213  0.1637  0.2323  0.4667
  697MOL0     C93993   2.907   9.518  11.280 -0.1111 -0.4345 -0.3337
  697MOL0     C93994   2.941   9.446  11.399 -0.0491 -1.0554 -0.0290
  697MOL0     C93995   3.068   9.462  11.450  0.6084 -0.1376  0.3332
  697MOL0     O93996   3.123   9.416  11.576 -0.1933 -0.2741 -0.2794
  697MOL0     C93997   3.138   9.515  11.679  0.7885  1.1523  0.1004
  697MOL0     C93998   3.211   9.463  11.800 -1.5180 -0.7629 -0.4406
  697MOL0     C93999   3.175   9.557  11.918  0.3075 -0.7221 -0.2522
  697MOL0     C94000   3.300   9.562  12.009 -0.2909  0.1810 -0.5714
  697MOL0     C94001   3.315   9.431  12.085 -0.0186 -0.8566  0.2914
  697MOL0     C94002   3.420   9.442  12.200  0.1195  0.4160  0.0718
  697MOL0     C94003   3.564   9.455  12.143 -0.0340 -0.5312  0.1195
  697MOL0     C94004   3.678   9.415  12.243  0.4797  0.5842  1.0045
  697MOL0    Cl94005   3.733   9.563  12.331 -0.7061 -0.4792  0.1410
  697MOL0     C94006   3.160   9.548  11.381 -0.3503 -1.0566  0.5930
  697MOL0     C94007   3.128   9.616  11.268 -1.0422  0.2941  1.0091
  697MOL0     O94008   2.948   9.510  10.964 -0.2348  0.2527  0.2644
  697MOL0     C94009   2.814   9.651  10.775 -0.8427  1.2282 -0.8304
  697MOL0     C94010   2.766   9.719  10.665 -0.2141 -0.4527 -0.1207
  697MOL0     N94011   3.037   9.787   9.967 -0.7418  0.1558 -0.4915
  697MOL0     N94012   3.055   9.687   9.884 -0.0790  0.2854 -0.1442
  697MOL0     C94013   3.886   9.841   9.989 -1.2403  0.3877 -0.3311
  697MOL0     C94014   3.970   9.918  10.082  0.5254  0.1590  0.1406
  697MOL0     C94015   4.279  10.223  10.191 -0.7338  0.4257  1.7367
  697MOL0     C94016   4.417  10.230  10.154  0.3916  0.0654 -0.0565
  697MOL0     C94017   4.483  10.351  10.174  0.0504  0.2593  0.4894
  697MOL0     C94018   4.419  10.460  10.233 -0.1431  0.4919  0.5481
  697MOL0     O94019   4.521  10.559  10.247 -0.3339 -0.4154 -0.1989
  697MOL0     C94020   4.479  10.683  10.288  0.6081 -0.2120 -0.4555
  697MOL0     C94021   4.592  10.765  10.340 -0.4303  0.3405 -0.4206
  697MOL0     C94022   4.577  10.925  10.338 -0.3044  0.4538  0.3614
  697MOL0     C94023   4.465  10.986  10.425  0.6210 -0.0361  0.0204
  697MOL0     C94024   4.330  10.960  10.374 -0.7348 -0.2775  0.6878
  697MOL0     C94025   4.227  10.925  10.327 -0.2114  0.5013  0.1674
  697MOL0     C94026   4.283  10.461  10.266  0.1709  0.4302  0.2669
  697MOL0     C94027   4.212  10.349  10.241  0.2544 -0.6851 -0.1501
  697MOL0     H94028   3.970  10.228   9.937  0.7699 -0.1699  1.6131
  697MOL0     H94029   3.798  10.106   9.785 -2.9094 -0.2642  0.3486
  697MOL0     H94030   3.601   9.958   9.720 -0.6805 -2.0992 -0.2427
  697MOL0     H94031   3.759   9.951   9.618  0.2171 -2.9489 -1.8408
  697MOL0     H94032   3.601   9.807   9.501 -0.9905 -0.8922 -0.9199
  697MOL0     H94033   3.698   9.700   9.595 -0.4213 -0.1893  0.3703
  697MOL0     H94034   3.514   9.715   9.797  1.9915 -3.0720 -0.0088
  697MOL0     H94035   3.417   9.772   9.663 -0.5249 -0.8421 -0.0435
  697MOL0     H94036   3.457   9.570   9.536 -2.9879 -2.1378  1.1502
  697MOL0     H94037   3.578   9.518   9.652 -1.1754 -1.2828 -3.8627
  697MOL0     H94038   3.283   9.565   9.682  0.4137 -1.0187 -3.7271
  697MOL0     H94039   3.360   9.418   9.642 -2.1274 -0.4486  0.6050
  697MOL0     H94040   3.466   9.392   9.843  1.3716  1.2700 -4.0071
  697MOL0     H94041   3.416   9.549   9.905 -0.2057 -2.7551  4.7072
  697MOL0     H94042   3.254   9.289   9.846  1.3327  2.1812 -2.2184
  697MOL0     H94043   3.280   9.351  10.010 -4.7090 -2.1288  1.0689
  697MOL0     H94044   3.064   9.373   9.939  0.7709 -0.2319 -1.1530
  697MOL0     H94045   3.097   9.454   9.787  0.5550  1.2832 -0.6775
  697MOL0     H94046   3.128   9.529  10.160  0.7563 -0.0106  0.1842
  697MOL0     H94047   3.099   9.748  10.302 -3.7514 -2.7224  0.9848
  697MOL0     H94048   3.077   9.902  10.212 -0.1958 -0.0451 -3.2276
  697MOL0     H94049   2.870   9.702  10.327  0.1716  0.7999  2.8038
  697MOL0     H94050   2.822   9.827  10.209 -3.2712 -0.1697  1.3745
  697MOL0     H94051   2.914   9.989  10.382  1.2111 -0.0637  0.1383
  697MOL0     H94052   2.954   9.852  10.471  2.5407  0.5576 -2.2659
  697MOL0     H94053   2.670   9.810  10.408  0.1103  0.7833 -2.0833
  697MOL0     H94054   2.685   9.977  10.375  1.8987  2.3299 -0.0054
  697MOL0     H94055   2.794  10.032  10.780  0.8218  0.8883 -1.1576
  697MOL0     H94056   2.903  10.064  10.960 -1.0039 -0.6659 -1.5746
  697MOL0     H94057   2.908   9.944  11.084  1.4751  1.1418  0.6143
  697MOL0     H94058   3.040   9.960  10.962 -0.4867  0.9536 -1.8031
  697MOL0     H94059   2.803   9.516  11.249 -0.5593  4.7910 -0.1108
  697MOL0     H94060   2.877   9.380  11.457 -0.9881  1.5349  2.0644
  697MOL0     H94061   3.203   9.596  11.644  1.3261  1.9530  2.7678
  697MOL0     H94062   3.036   9.551  11.699  0.3889 -0.5228  1.2022
  697MOL0     H94063   3.173   9.365  11.827 -1.9046 -0.8465 -1.2550
  697MOL0     H94064   3.318   9.452  11.780 -1.2197 -1.5529  1.3974
  697MOL0     H94065   3.087   9.531  11.979 -0.0052 -1.1037 -0.8561
  697MOL0     H94066   3.158   9.661  11.890  0.3440 -0.4533  0.6707
  697MOL0     H94067   3.382   9.591  11.944 -0.9145  1.2575 -0.8998
  697MOL0     H94068   3.276   9.647  12.074 -0.7398  1.9354 -2.8904
  697MOL0     H94069   3.342   9.348  12.018  4.7429 -0.1847  1.0172
  697MOL0     H94070   3.214   9.409  12.122 -0.0251 -0.1305  0.7348
  697MOL0     H94071   3.393   9.522  12.269 -1.3416 -0.6132  0.7438
  697MOL0     H94072   3.421   9.345  12.250  0.3524  0.9268  1.0758
  697MOL0     H94073   3.581   9.556  12.106 -2.7201  0.7702  2.1095
  697MOL0     H94074   3.559   9.383  12.060 -0.3268  1.7153 -1.9307
  697MOL0     H94075   3.757   9.362  12.188 -0.3110 -0.7100  1.0706
  697MOL0     H94076   3.635   9.345  12.315 -0.8172  1.0154  0.6806
  697MOL0     H94077   3.258   9.557  11.426 -0.0209  0.3122 -0.3324
  697MOL0     H94078   3.204   9.670  11.212 -0.3679 -0.9572  0.6746
  697MOL0     H94079   2.821   9.543  10.772 -1.2385  1.2166 -1.9778
  697MOL0     H94080   2.749   9.665  10.573  1.2147  3.4205 -2.9235
  697MOL0     H94081   3.870   9.737  10.016  0.3538 -0.2431 -1.6476
  697MOL0     H94082   4.011   9.875  10.173 -3.1552  1.9271  2.9254
  697MOL0     H94083   4.464  10.142  10.111 -1.2972 -0.5411 -0.7446
  697MOL0     H94084   4.588  10.356  10.150 -0.0947 -0.0613 -0.2276
  697MOL0     H94085   4.436  10.744  10.208  0.7602  0.6977  0.1408
  697MOL0     H94086   4.391  10.680  10.353  0.7281 -2.1653 -0.3071
  697MOL0     H94087   4.681  10.738  10.283 -1.4420 -2.3652 -0.8930
  697MOL0     H94088   4.604  10.743  10.447 -0.4629  0.6469 -0.3526
  697MOL0     H94089   4.575  10.954  10.233  1.9225 -0.6001 -0.0497
  697MOL0     H94090   4.673  10.970  10.367  0.7314 -1.4265  0.0171
  697MOL0     H94091   4.477  11.095  10.422 -2.5469  0.5010  1.8882
  697MOL0     H94092   4.482  10.957  10.529 -0.1489 -0.3725  0.0613
  697MOL0     H94093   4.140  10.887  10.277 -0.1525 -0.3981  0.7202
  697MOL0     H94094   4.234  10.547  10.309 -1.6753 -1.1665  1.5368
  697MOL0     H94095   4.105  10.341  10.257 -0.3352  2.2213 -1.8161
  698MOL0     O94096   8.800  10.888   5.579  0.6533 -0.3352 -0.0712
  698MOL0     C94097   8.775  10.958   5.678  0.8118 -0.6721  0.1907
  698MOL0     O94098   8.748  11.095   5.676 -0.7684 -0.1092 -0.3813
  698MOL0     C94099   8.766  11.162   5.560  0.9804 -0.1919 -0.8440
  698MOL0     C94100   8.885  11.238   5.539  1.0264 -0.3971  0.1711
  698MOL0     C94101   8.896  11.313   5.413  0.4450 -0.0538  0.4796
  698MOL0     C94102   8.804  11.312   5.313  0.8947 -0.1260  0.1940
  698MOL0     O94103   8.811  11.381   5.193 -0.2072 -0.8379  0.2853
  698MOL0     C94104   8.692  11.429   5.127 -0.1712  0.4152 -0.4491
  698MOL0     C94105   8.738  11.499   4.995  0.7143  0.0818  0.2111
  698MOL0     C94106   8.619  11.580   4.943  0.4359  0.3298  0.0676
  698MOL0     C94107   8.653  11.667   4.836 -0.9354  0.2298  0.0873
  698MOL0     C94108   8.527  11.746   4.768 -0.5878 -0.2145 -1.0247
  698MOL0     C94109   8.410  11.646   4.739  0.7498 -0.3131  0.7131
  698MOL0     C94110   8.444  11.545   4.642  0.3951  0.8819  0.8169
  698MOL0     C94111   8.459  11.604   4.503  0.1402 -0.2363  0.3952
  698MOL0     N94112   8.557  11.529   4.426 -0.1954  0.1558  0.3192
  698MOL0     C94113   8.554  11.479   4.293 -0.0750  0.5776  0.2427
  698MOL0     C94114   8.670  11.416   4.288 -0.0108  0.2926  1.0195
  698MOL0     C94115   8.702  11.321   4.180  0.7523 -0.0475 -0.0859
  698MOL0     C94116   8.675  11.368   4.036  0.6160 -0.1571 -0.8049
  698MOL0     C94117   8.725  11.251   3.941 -0.1242  0.8720  1.0879
  698MOL0     C94118   8.643  11.121   3.952 -0.1949  0.5792  0.9129
  698MOL0     O94119   8.653  11.056   3.824 -0.0003  0.6855  0.2869
  698MOL0     C94120   8.609  10.927   3.818 -0.2086 -0.4117  0.0061
  698MOL0     C94121   8.647  10.842   3.715 -0.5359  0.5447  0.1881
  698MOL0     C94122   8.601  10.712   3.692 -0.1844  0.1311 -0.5335
  698MOL0     C94123   8.641  10.636   3.567 -0.2438 -0.4775 -0.2304
  698MOL0     C94124   8.507  10.660   3.787 -0.1402 -0.5496 -0.0415
  698MOL0     C94125   8.466  10.519   3.780 -1.0025 -0.5692 -0.5136
  698MOL0     O94126   8.455  10.468   3.897  0.1639 -0.0856 -0.1983
  698MOL0     C94127   8.414  10.337   3.909 -0.2067 -0.0277  0.0047
  698MOL0     C94128   8.287  10.292   3.870  0.5462  0.3468 -0.4780
  698MOL0     C94129   8.246  10.159   3.905 -0.4319  0.4699  0.6666
  698MOL0     C94130   8.325  10.077   3.983  0.0936  0.1692 -0.5505
  698MOL0     O94131   8.266   9.960   4.026  0.4727 -0.4268  0.1051
  698MOL0     C94132   8.308   9.899   4.145 -1.1894  0.3293 -0.7445
  698MOL0     C94133   8.210   9.776   4.166  0.0340 -0.1427  0.3322
  698MOL0     C94134   8.222   9.748   4.311 -0.1280  0.1629  0.4378
  698MOL0     C94135   8.127   9.628   4.344  0.6601  0.0761 -0.9438
  698MOL0     C94136   8.157   9.571   4.485 -0.4871  0.7106  1.2823
  698MOL0     C94137   8.100   9.641   4.602  0.1751  0.2110 -0.3632
  698MOL0     C94138   8.144   9.578   4.737  0.0753 -0.0221 -0.0463
  698MOL0     C94139   8.064   9.452   4.777 -1.4079  0.2024 -0.1669
  698MOL0    Cl94140   8.126   9.406   4.939  0.3509 -0.3157  0.0005
  698MOL0     C94141   8.454  10.120   4.014  0.3383 -0.5119 -0.5714
  698MOL0     C94142   8.500  10.251   3.984  0.6939 -0.0817  0.2913
  698MOL0     O94143   8.449  10.461   3.678  0.1663  0.1476 -0.2847
  698MOL0     C94144   8.475  10.735   3.900 -0.4999 -0.0184  0.0365
  698MOL0     C94145   8.521  10.868   3.911  0.6082  0.3857  0.5147
  698MOL0     N94146   8.742  11.435   4.396 -0.0778 -0.3702 -0.3054
  698MOL0     N94147   8.680  11.513   4.477  0.9779  0.3797  0.7987
  698MOL0     C94148   8.687  11.239   5.347  1.1052 -0.4789 -0.0258
  698MOL0     C94149   8.664  11.163   5.462 -0.2757 -0.0549  1.0487
  698MOL0     C94150   8.760  10.886   5.803  0.1124  0.4675 -0.1028
  698MOL0     C94151   8.799  10.950   5.925 -0.1615  0.5231 -0.0042
  698MOL0     C94152   8.804  10.878   6.044  0.2590 -0.3114  0.1729
  698MOL0     C94153   8.771  10.744   6.051  0.1091 -0.7052 -0.4742
  698MOL0     O94154   8.796  10.677   6.170  0.7161  0.1092 -0.0449
  698MOL0     C94155   8.750  10.729   6.291  0.1142 -0.8760 -0.0462
  698MOL0     C94156   8.862  10.711   6.387  0.4950 -0.1058  0.2265
  698MOL0     C94157   8.983  10.805   6.361 -0.5966 -0.2778  0.5303
  698MOL0     C94158   8.963  10.954   6.399 -0.0061 -0.7536  0.6319
  698MOL0     C94159   8.961  10.958   6.547  0.1934  0.0835  0.4487
  698MOL0     C94160   8.931  10.959   6.664  0.5256 -0.1154  0.5577
  698MOL0     C94161   8.733  10.681   5.938  0.9109 -0.0400  0.2155
  698MOL0     C94162   8.737  10.748   5.814 -0.4052  0.1806 -0.3479
  698MOL0     H94163   8.963  11.241   5.615 -1.2758 -0.6788  2.7037
  698MOL0     H94164   8.995  11.357   5.402  0.4924 -0.5889 -1.6475
  698MOL0     H94165   8.617  11.349   5.117 -4.4181  3.9257  0.3267
  698MOL0     H94166   8.640  11.486   5.205 -0.7504 -2.4766  1.4909
  698MOL0     H94167   8.817  11.569   5.020 -0.8882  1.9966  0.1567
  698MOL0     H94168   8.770  11.430   4.916 -1.6474 -3.5255  2.0984
  698MOL0     H94169   8.542  11.508   4.912  1.0862 -0.1029 -0.5934
  698MOL0     H94170   8.580  11.633   5.030  0.8687  1.7132 -0.5602
  698MOL0     H94171   8.719  11.746   4.873 -0.7473 -0.2600  0.8148
  698MOL0     H94172   8.707  11.606   4.763 -0.7442 -0.6461  0.9506
  698MOL0     H94173   8.489  11.824   4.836 -0.5202 -2.5977  1.9716
  698MOL0     H94174   8.564  11.799   4.680 -1.3989  2.0442 -0.0815
  698MOL0     H94175   8.377  11.596   4.830 -1.7945  1.2284  0.7319
  698MOL0     H94176   8.323  11.705   4.710  1.7542  0.2498 -1.3835
  698MOL0     H94177   8.527  11.479   4.669  0.9494  1.3618  0.2927
  698MOL0     H94178   8.355  11.482   4.634  1.0360 -0.0115  0.4593
  698MOL0     H94179   8.502  11.704   4.503 -0.3172  0.0031 -1.8767
  698MOL0     H94180   8.365  11.603   4.447  0.4967 -0.1450 -0.2037
  698MOL0     H94181   8.471  11.470   4.224  1.5433 -2.5599 -1.5516
  698MOL0     H94182   8.810  11.312   4.192  0.4646 -2.0994  1.3996
  698MOL0     H94183   8.652  11.230   4.215  2.4191  0.7149  5.1294
  698MOL0     H94184   8.727  11.461   4.015 -1.3376  0.2658 -4.6002
  698MOL0     H94185   8.567  11.383   4.027  0.2305 -1.3968  1.0619
  698MOL0     H94186   8.826  11.221   3.969  0.4638  0.0463 -1.6509
  698MOL0     H94187   8.708  11.275   3.835  2.1182  1.2523  0.7703
  698MOL0     H94188   8.537  11.140   3.972 -0.0453 -0.0446  2.3811
  698MOL0     H94189   8.681  11.056   4.031 -1.3698 -1.1001  0.1537
  698MOL0     H94190   8.725  10.870   3.645 -0.1618 -3.0197 -1.0181
  698MOL0     H94191   8.658  10.529   3.584 -0.3295 -0.0993  2.6977
  698MOL0     H94192   8.550  10.637   3.506 -0.8096 -1.2211  0.5649
  698MOL0     H94193   8.716  10.685   3.504 -1.2368 -1.8274 -2.5996
  698MOL0     H94194   8.220  10.359   3.816  0.6413 -0.0967 -1.1552
  698MOL0     H94195   8.151  10.120   3.870  0.0027  0.1814 -0.2173
  698MOL0     H94196   8.405   9.850   4.127 -1.0074 -0.2891  1.6056
  698MOL0     H94197   8.305   9.976   4.223  3.9841  0.0425  0.0946
  698MOL0     H94198   8.106   9.800   4.144 -0.3459 -1.2565  0.8474
  698MOL0     H94199   8.242   9.686   4.112 -4.1935 -0.8275 -1.3878
  698MOL0     H94200   8.200   9.838   4.371 -0.8160 -1.0780  2.1396
  698MOL0     H94201   8.323   9.715   4.334 -1.5763 -4.0997  1.5840
  698MOL0     H94202   8.021   9.653   4.334  0.7373  0.8399  0.0222
  698MOL0     H94203   8.145   9.549   4.271 -3.5878 -2.5436  0.5085
  698MOL0     H94204   8.265   9.567   4.499 -0.6311 -1.4524  2.1586
  698MOL0     H94205   8.128   9.465   4.477  0.2112  0.6593 -2.9889
  698MOL0     H94206   8.124   9.747   4.602 -1.0249  0.5021 -1.0488
  698MOL0     H94207   7.992   9.636   4.590  0.1475  1.5963 -0.8598
  698MOL0     H94208   8.127   9.652   4.816 -0.2001  0.5236 -0.5951
  698MOL0     H94209   8.251   9.555   4.736  0.9058  3.2542  0.8264
  698MOL0     H94210   8.090   9.371   4.708  0.2914  1.9676 -1.6953
  698MOL0     H94211   7.955   9.457   4.790 -1.4459  0.1360 -0.4503
  698MOL0     H94212   8.517  10.058   4.078 -2.3194 -1.7574  1.0271
  698MOL0     H94213   8.586  10.292   4.036  1.8969  0.7836 -2.2207
  698MOL0     H94214   8.412  10.697   3.979 -2.3390 -0.7820 -1.7157
  698MOL0     H94215   8.491  10.906   4.008  1.1302 -1.1245  1.3073
  698MOL0     H94216   8.605  11.225   5.277 -0.2652 -2.0700  1.7720
  698MOL0     H94217   8.574  11.103   5.471 -0.4846  0.3467  1.6568
  698MOL0     H94218   8.801  11.058   5.917 -2.5452  0.7236  1.2251
  698MOL0     H94219   8.830  10.942   6.129  0.7655 -1.4433  0.8916
  698MOL0     H94220   8.727  10.836   6.286 -0.5962 -1.0534 -0.7858
  698MOL0     H94221   8.660  10.678   6.328 -1.8879  0.2861 -2.9698
  698MOL0     H94222   8.914  10.617   6.369  2.0560  0.6762  0.4412
  698MOL0     H94223   8.828  10.720   6.491  0.8239 -0.9510  0.4186
  698MOL0     H94224   9.011  10.799   6.256 -0.2489 -1.6355  0.6891
  698MOL0     H94225   9.071  10.766   6.412  0.7950 -0.7943 -2.1322
  698MOL0     H94226   8.869  10.991   6.359 -2.2567 -2.9358  3.4374
  698MOL0     H94227   9.047  11.015   6.365 -0.3034 -0.7784 -0.1702
  698MOL0     H94228   8.882  10.968   6.759  3.1520 -2.7111  2.3098
  698MOL0     H94229   8.724  10.573   5.942 -0.2397 -0.0675 -1.6022
  698MOL0     H94230   8.707  10.687   5.730  0.8312 -1.6461  0.4602
  699MOL0     O94231   6.919  10.458   0.035  0.7234  0.1818 -0.0677
  699MOL0     C94232   7.032  10.472  -0.019 -0.7687  0.5310 -0.3461
  699MOL0     O94233   7.125  10.376  -0.015  0.6944 -0.2206  0.8428
  699MOL0     C94234   7.090  10.252   0.035  0.3195  0.7207  0.6900
  699MOL0     C94235   6.983  10.179  -0.029  1.0682  0.6807  0.7705
  699MOL0     C94236   6.948  10.057   0.017  0.4051 -0.1224  0.1645
  699MOL0     C94237   7.008  10.007   0.139 -0.7061 -0.2502 -0.0904
  699MOL0     O94238   6.977   9.904   0.217  0.8585  0.5637  0.2398
  699MOL0     C94239   6.851   9.931   0.291  0.4279 -0.0257 -0.0308
  699MOL0     C94240   6.766   9.813   0.327  0.1314  0.2870  0.7992
  699MOL0     C94241   6.647   9.852   0.404 -0.6583 -0.9002 -0.8874
  699MOL0     C94242   6.558   9.735   0.439  0.0912  0.2182 -0.7221
  699MOL0     C94243   6.626   9.622   0.522  0.8416  0.1391  0.4510
  699MOL0     C94244   6.533   9.504   0.556 -0.8545  1.1159  0.8695
  699MOL0     C94245   6.607   9.390   0.640  0.8051  0.7086 -0.3081
  699MOL0     C94246   6.621   9.432   0.789 -0.2516  0.1311 -0.3451
  699MOL0     N94247   6.657   9.320   0.869  0.1836  0.1144  0.1081
  699MOL0     C94248   6.783   9.265   0.843 -0.1009  0.2498  0.3643
  699MOL0     C94249   6.816   9.219   0.965  0.1972  0.0801  0.3614
  699MOL0     C94250   6.953   9.168   1.015 -0.2704 -1.3364  0.4835
  699MOL0     C94251   6.955   9.035   0.956  1.0778 -0.6933 -0.0193
  699MOL0     C94252   7.076   8.964   0.983  0.3965  0.2999  0.2233
  699MOL0     C94253   7.200   9.031   0.926  0.0785  0.1025 -0.0046
  699MOL0     O94254   7.199   9.041   0.786  0.0664 -0.1985  0.2804
  699MOL0     C94255   7.288   9.123   0.725 -0.0030 -1.0901  0.4575
  699MOL0     C94256   7.401   9.182   0.787  0.6626 -0.1953  0.3891
  699MOL0     C94257   7.477   9.285   0.727  0.4473  1.0634 -0.0796
  699MOL0     C94258   7.584   9.350   0.816  1.2421 -0.4594 -0.5680
  699MOL0     C94259   7.445   9.313   0.590  0.4964 -0.1321 -0.7369
  699MOL0     C94260   7.514   9.410   0.506  0.0417 -0.2932  1.2086
  699MOL0     O94261   7.504   9.379   0.369 -0.5054 -0.1496 -0.9869
  699MOL0     C94262   7.580   9.459   0.286 -0.7126  0.5044 -0.7978
  699MOL0     C94263   7.683   9.392   0.212  0.1435  0.0912 -0.4719
  699MOL0     C94264   7.760   9.472   0.133 -0.7710 -0.7862  0.3860
  699MOL0     C94265   7.722   9.606   0.102  0.6379  0.4226  0.0788
  699MOL0     O94266   7.800   9.679   0.016 -0.3281 -0.5006  0.6070
  699MOL0     C94267   7.756   9.799  -0.048 -0.9300 -0.0870  0.0651
  699MOL0     C94268   7.866   9.838  -0.145  0.1614  0.4755  0.5560
  699MOL0     C94269   7.880   9.736  -0.266  0.4971  0.4895 -0.6805
  699MOL0     C94270   7.777   9.730  -0.371 -0.2282  0.6488  0.1894
  699MOL0     C94271   7.778   9.848  -0.467  0.2533 -0.1984 -0.4787
  699MOL0     C94272   7.909   9.889  -0.530 -0.2755  0.1079  0.4593
  699MOL0     C94273   7.917  10.011  -0.621 -0.6541  0.7270 -0.4242
  699MOL0     C94274   7.974  10.132  -0.544  0.0437 -0.4169 -1.0703
  699MOL0    Cl94275   7.909  10.274  -0.643 -0.0531 -0.3942  0.1409
  699MOL0     C94276   7.607   9.665   0.161 -0.0135 -0.3339 -0.3847
  699MOL0     C94277   7.548   9.595   0.261 -0.4484  0.9498 -0.3329
  699MOL0     O94278   7.567   9.510   0.556  0.5091  0.2396 -0.4395
  699MOL0     C94279   7.336   9.240   0.530  0.4496  0.1419  0.3616
  699MOL0     C94280   7.260   9.150   0.595  0.7050  0.1653  0.3259
  699MOL0     N94281   6.727   9.264   1.064  0.0676 -0.2071  0.3340
  699MOL0     N94282   6.625   9.308   1.001 -0.2404  0.1439 -0.4831
  699MOL0     C94283   7.118  10.080   0.198 -0.8805 -0.5254 -0.4255
  699MOL0     C94284   7.157  10.202   0.140 -0.0701  0.0046 -0.0676
  699MOL0     C94285   7.047  10.590  -0.102 -0.6673  0.4879  0.2859
  699MOL0     C94286   7.174  10.627  -0.143 -0.1705  0.5472  0.0684
  699MOL0     C94287   7.189  10.743  -0.217 -0.5398  1.3140  0.4761
  699MOL0     C94288   7.076  10.816  -0.248 -0.1998  0.0844  0.0662
  699MOL0     O94289   7.075  10.924  -0.334 -0.3728 -0.2911 -0.1738
  699MOL0     C94290   7.150  11.036  -0.279  0.0550  0.3517 -0.2324
  699MOL0     C94291   7.082  11.155  -0.341 -0.0083  0.2182 -0.5165
  699MOL0     C94292   7.143  11.296  -0.302 -0.0001  0.4725 -0.1171
  699MOL0     C94293   7.278  11.326  -0.364  0.5336  0.3679 -0.5109
  699MOL0     C94294   7.331  11.463  -0.320 -0.5131 -0.0792 -0.3907
  699MOL0     C94295   7.375  11.567  -0.285 -0.5472  1.1421 -0.0010
  699MOL0     C94296   6.946  10.774  -0.198 -0.8169  0.0627  0.4734
  699MOL0     C94297   6.933  10.664  -0.128 -0.1920  0.1946  0.2482
  699MOL0     H94298   6.940  10.209  -0.124  0.0752 -2.6230  0.0215
  699MOL0     H94299   6.875   9.992  -0.031  1.3933 -2.2431  1.4128
  699MOL0     H94300   6.893   9.988   0.375 -1.7116  0.5281  0.7369
  699MOL0     H94301   6.798  10.009   0.234  0.5888 -0.4063 -0.6998
  699MOL0     H94302   6.733   9.783   0.227  1.2208  2.5336 -0.2917
  699MOL0     H94303   6.827   9.738   0.378  1.9974  1.0776 -0.1726
  699MOL0     H94304   6.675   9.895   0.501  0.0290 -1.4872 -0.8128
  699MOL0     H94305   6.589   9.930   0.354  1.2484  1.3514  0.1832
  699MOL0     H94306   6.476   9.780   0.494 -2.5776 -0.1058 -4.0786
  699MOL0     H94307   6.512   9.690   0.350 -0.2138  0.2782 -0.5951
  699MOL0     H94308   6.713   9.585   0.467  1.5946  2.2694  0.1059
  699MOL0     H94309   6.672   9.674   0.607 -2.1819  2.7229  0.6915
  699MOL0     H94310   6.440   9.522   0.610 -0.7567 -1.1271  1.9390
  699MOL0     H94311   6.499   9.464   0.460  1.0500 -1.6471  1.2016
  699MOL0     H94312   6.559   9.292   0.643  3.0963 -0.5336 -2.0270
  699MOL0     H94313   6.702   9.378   0.587  1.3950 -1.5534  1.1191
  699MOL0     H94314   6.523   9.466   0.824 -0.1738 -0.8625  0.9126
  699MOL0     H94315   6.692   9.515   0.800 -1.5535  1.1314  0.8364
  699MOL0     H94316   6.848   9.247   0.757 -0.5779 -0.7090  0.1931
  699MOL0     H94317   7.029   9.233   0.971  0.2617 -2.4205 -0.2522
  699MOL0     H94318   6.964   9.168   1.124 -0.3472  2.4493  0.6391
  699MOL0     H94319   6.931   9.044   0.849  0.1298 -0.9596  0.1649
  699MOL0     H94320   6.871   8.984   1.003  1.6584  2.6729  5.5631
  699MOL0     H94321   7.064   8.868   0.931 -0.4178 -0.0765  1.0917
  699MOL0     H94322   7.073   8.936   1.088 -2.5772 -0.1116  0.1047
  699MOL0     H94323   7.286   8.980   0.969 -0.6704 -1.1450  0.0555
  699MOL0     H94324   7.214   9.132   0.967  1.1385  0.2047 -0.5837
  699MOL0     H94325   7.434   9.147   0.883  1.1184  0.2979  0.4185
  699MOL0     H94326   7.548   9.439   0.868 -0.4567 -1.8729  0.8113
  699MOL0     H94327   7.610   9.277   0.894  1.2828  0.2684  0.1056
  699MOL0     H94328   7.668   9.366   0.748 -0.4823  3.2241 -2.0708
  699MOL0     H94329   7.699   9.284   0.215  2.1812  0.3655  0.0539
  699MOL0     H94330   7.849   9.437   0.082 -0.9139 -1.5500  0.6474
  699MOL0     H94331   7.663   9.786  -0.104 -0.0208  2.4937 -2.3274
  699MOL0     H94332   7.740   9.877   0.027  0.8196 -1.4259  1.9146
  699MOL0     H94333   7.865   9.941  -0.181  2.2398 -0.5574 -2.9813
  699MOL0     H94334   7.964   9.835  -0.095  0.6430  3.9126  0.0510
  699MOL0     H94335   7.876   9.631  -0.236 -0.0580  0.4329 -0.9479
  699MOL0     H94336   7.981   9.744  -0.308 -0.0398 -0.5534 -2.2532
  699MOL0     H94337   7.801   9.644  -0.434  0.5669  0.8441  0.2244
  699MOL0     H94338   7.674   9.716  -0.336 -0.6075  2.8228  0.0271
  699MOL0     H94339   7.729   9.939  -0.430 -3.8031 -1.5702 -1.8880
  699MOL0     H94340   7.715   9.823  -0.553 -1.2318  1.8488 -0.0645
  699MOL0     H94341   7.986   9.890  -0.453 -0.6041  1.3621  0.8073
  699MOL0     H94342   7.920   9.804  -0.598  0.0917  3.5910 -4.4136
  699MOL0     H94343   7.827  10.036  -0.676  0.4377  0.3345 -2.4923
  699MOL0     H94344   7.992   9.990  -0.699  0.4137  1.1108  0.4705
  699MOL0     H94345   8.082  10.131  -0.555  0.3319  2.9642  0.2619
  699MOL0     H94346   7.945  10.148  -0.440  0.1545 -2.3509 -0.7026
  699MOL0     H94347   7.569   9.763   0.134 -0.3938 -0.4197 -0.1655
  699MOL0     H94348   7.468   9.648   0.311  1.2538  2.3603  1.0512
  699MOL0     H94349   7.300   9.254   0.429 -1.6980 -0.2794  0.9974
  699MOL0     H94350   7.170   9.108   0.550  0.0670  2.9950 -1.3261
  699MOL0     H94351   7.156  10.053   0.296 -3.4138  1.6248  1.2964
  699MOL0     H94352   7.245  10.253   0.177 -0.9550  0.7000  1.1604
  699MOL0     H94353   7.250  10.555  -0.118 -3.0965 -2.8485 -0.0599
  699MOL0     H94354   7.287  10.776  -0.251  0.5262  2.2687  4.0616
  699MOL0     H94355   7.152  11.039  -0.169  1.2750 -1.0703 -0.1924
  699MOL0     H94356   7.253  11.030  -0.315 -1.0043 -3.4864 -3.2639
  699MOL0     H94357   6.975  11.156  -0.319 -0.1647 -2.2990 -0.8447
  699MOL0     H94358   7.098  11.138  -0.448 -2.0046 -3.2185 -0.4356
  699MOL0     H94359   7.156  11.313  -0.194 -0.6864 -0.0781  0.0601
  699MOL0     H94360   7.077  11.376  -0.338 -0.1007  2.3165  3.6758
  699MOL0     H94361   7.254  11.334  -0.470  1.4824 -3.2178 -1.1249
  699MOL0     H94362   7.342  11.240  -0.342 -2.0083 -1.5612 -0.2791
  699MOL0     H94363   7.427  11.658  -0.262 -1.6801  1.8525 -0.1449
  699MOL0     H94364   6.865  10.843  -0.219 -1.9003 -0.9255  1.2041
  699MOL0     H94365   6.839  10.618  -0.097  0.9589 -2.6700 -0.2756
  700MOL0     O94366   2.276   6.280  11.003 -0.2217  0.5488  0.8319
  700MOL0     C94367   2.254   6.236  10.890 -0.1362  0.3611 -0.1144
  700MOL0     O94368   2.212   6.106  10.858  1.0792  0.3493 -0.2294
  700MOL0     C94369   2.207   6.011  10.963  0.2004  0.1429  0.4383
  700MOL0     C94370   2.109   5.908  10.949 -0.3777 -0.1542 -0.0390
  700MOL0     C94371   2.103   5.802  11.041  0.5559  0.0836 -0.2911
  700MOL0     C94372   2.190   5.796  11.149  0.2804  0.3624  0.3465
  700MOL0     O94373   2.191   5.695  11.244  0.0037 -0.1175  0.5518
  700MOL0     C94374   2.076   5.604  11.258  0.8694  0.1760  0.4964
  700MOL0     C94375   2.117   5.458  11.223 -0.1248 -0.6762  0.3257
  700MOL0     C94376   2.174   5.376  11.334 -0.8350 -1.0108  0.9510
  700MOL0     C94377   2.311   5.432  11.384 -0.6840 -0.3885  0.2798
  700MOL0     C94378   2.340   5.374  11.528  0.4224  0.1359 -0.0968
  700MOL0     C94379   2.317   5.229  11.544 -0.3592  0.6522 -1.1017
  700MOL0     C94380   2.395   5.164  11.664  0.7935  0.6468  0.4082
  700MOL0     C94381   2.545   5.153  11.641  0.0208  0.1947  0.1254
  700MOL0     N94382   2.599   5.064  11.740 -1.3630 -0.7033 -0.1827
  700MOL0     C94383   2.635   5.098  11.867  0.2655  0.4315  0.1066
  700MOL0     C94384   2.699   4.987  11.912 -0.2894  0.6712 -0.6714
  700MOL0     C94385   2.780   4.958  12.042  1.0558  0.2374 -1.4807
  700MOL0     C94386   2.909   4.906  12.003 -0.1883 -0.6071  0.0386
  700MOL0     C94387   3.004   4.879  12.125 -0.8061 -0.0554 -0.8382
  700MOL0     C94388   2.966   4.763  12.205 -0.3607  0.3543 -0.6383
  700MOL0     O94389   3.000   4.633  12.149 -1.0402  0.2804 -0.1845
  700MOL0     C94390   2.975   4.516  12.225 -0.3400  0.2317 -0.0214
  700MOL0     C94391   2.923   4.511  12.349  0.4301  1.3866 -0.8443
  700MOL0     C94392   2.893   4.394  12.428  0.2281  0.3107  0.1155
  700MOL0     C94393   2.852   4.409  12.567 -0.0957  0.4462  0.4839
  700MOL0     C94394   2.912   4.268  12.367  0.0676 -0.1663  0.1207
  700MOL0     C94395   2.880   4.139  12.434  0.0900  0.7349 -0.0238
  700MOL0     O94396   2.919   4.036  12.349  0.3537  0.3733  0.3904
  700MOL0     C94397   2.911   3.906  12.388 -1.3546  0.6296 -0.2760
  700MOL0     C94398   2.799   3.847  12.450  0.3889 -0.2225 -0.3183
  700MOL0     C94399   2.805   3.710  12.478  0.4963  0.1447  0.0465
  700MOL0     C94400   2.919   3.634  12.455  0.1166  0.3406  0.8118
  700MOL0     O94401   2.940   3.502  12.484  0.5420 -0.2185  0.1232
  700MOL0     C94402   2.835   3.419  12.539 -0.1786 -0.7962  0.5515
  700MOL0     C94403   2.699   3.407  12.463  0.0341 -0.6091  0.1125
  700MOL0     C94404   2.731   3.363  12.314 -1.1601  0.3693 -0.2002
  700MOL0     C94405   2.602   3.339  12.232  0.1265 -0.1259 -0.6768
  700MOL0     C94406   2.647   3.335  12.086  0.1938  0.6792 -0.6585
  700MOL0     C94407   2.537   3.283  11.986 -0.2878 -0.4166 -0.2367
  700MOL0     C94408   2.482   3.141  12.023  0.0570 -0.5817 -0.8864
  700MOL0     C94409   2.399   3.067  11.916 -0.5403 -0.4539 -0.7673
  700MOL0    Cl94410   2.487   3.035  11.767  0.1412  0.2029  0.0777
  700MOL0     C94411   3.019   3.696  12.397 -0.4483  0.5807  0.9064
  700MOL0     C94412   3.024   3.830  12.370 -0.7478 -0.1282 -0.5851
  700MOL0     O94413   2.818   4.122  12.542 -0.2957  0.1389  0.5704
  700MOL0     C94414   2.966   4.276  12.238 -0.1377 -0.2814  0.0506
  700MOL0     C94415   2.996   4.395  12.164 -0.5516  0.8189 -0.8052
  700MOL0     N94416   2.699   4.897  11.806  0.7346 -0.8589  0.2777
  700MOL0     N94417   2.630   4.937  11.710  0.1957 -0.2393 -0.1303
  700MOL0     C94418   2.284   5.897  11.161 -0.3209 -0.6140  0.3505
  700MOL0     C94419   2.288   6.008  11.075 -0.4931  1.0536 -0.3315
  700MOL0     C94420   2.270   6.338  10.778  0.1583 -0.3323  1.0383
  700MOL0     C94421   2.343   6.459  10.806  0.1992 -0.8161 -0.7837
  700MOL0     C94422   2.365   6.547  10.703 -0.0957 -0.0312 -0.6877
  700MOL0     C94423   2.302   6.526  10.580  0.3737  0.9452  0.4568
  700MOL0     O94424   2.337   6.622  10.491 -0.5883 -0.3324 -0.2661
  700MOL0     C94425   2.295   6.614  10.348 -0.1494 -0.9858  1.1156
  700MOL0     C94426   2.320   6.761  10.301  0.1389 -0.3612  0.2825
  700MOL0     C94427   2.467   6.781  10.258 -1.0097  0.2471 -0.9794
  700MOL0     C94428   2.495   6.902  10.171 -0.1729  0.4107  0.3940
  700MOL0     C94429   2.447   6.880  10.034  0.1436  0.9471 -0.4539
  700MOL0     C94430   2.397   6.861   9.919  0.0604 -0.8797  0.4726
  700MOL0     C94431   2.236   6.408  10.548 -0.6130  1.1248 -0.1911
  700MOL0     C94432   2.218   6.312  10.648  0.2649 -0.4455  0.4496
  700MOL0     H94433   2.047   5.917  10.860 -0.0169  2.7809 -0.1230
  700MOL0     H94434   2.055   5.706  11.024  0.3694  0.4936 -2.3636
  700MOL0     H94435   2.066   5.606  11.367  5.1260 -0.7575  1.0870
  700MOL0     H94436   1.987   5.628  11.199  1.5969  1.5269 -0.0902
  700MOL0     H94437   2.034   5.394  11.190 -1.5704  1.8454 -1.1957
  700MOL0     H94438   2.183   5.451  11.136 -0.8255  1.5749 -0.4536
  700MOL0     H94439   2.103   5.375  11.418 -0.0799 -0.4111  1.6179
  700MOL0     H94440   2.183   5.273  11.299 -1.8097 -0.7924  0.0143
  700MOL0     H94441   2.393   5.402  11.317  0.2763  2.6762 -0.0396
  700MOL0     H94442   2.316   5.540  11.396  2.1759 -0.2239 -1.4119
  700MOL0     H94443   2.447   5.386  11.549 -0.2085  2.0268  2.4983
  700MOL0     H94444   2.280   5.429  11.601 -2.5109  0.8625 -2.8470
  700MOL0     H94445   2.209   5.212  11.548 -0.3302 -0.5271 -3.5979
  700MOL0     H94446   2.347   5.175  11.454 -1.6802  0.3350 -1.3720
  700MOL0     H94447   2.373   5.202  11.764 -2.8984 -0.5716  0.2017
  700MOL0     H94448   2.352   5.064  11.668 -2.1718  1.5429 -3.0768
  700MOL0     H94449   2.589   5.252  11.651 -1.6661  1.0809 -0.9133
  700MOL0     H94450   2.569   5.121  11.539  2.7570  0.6488  0.5376
  700MOL0     H94451   2.628   5.194  11.917 -1.7769  0.1646  0.4241
  700MOL0     H94452   2.789   5.045  12.108 -0.6515  0.8991 -2.0799
  700MOL0     H94453   2.734   4.873  12.094  2.8409 -0.8955 -1.6378
  700MOL0     H94454   2.961   4.986  11.949  2.6052 -2.4617 -0.2450
  700MOL0     H94455   2.883   4.817  11.944 -2.4096  2.0640 -3.5021
  700MOL0     H94456   3.024   4.969  12.184 -0.7550 -0.3662 -0.3756
  700MOL0     H94457   3.101   4.856  12.080 -1.0506  0.2557 -1.5403
  700MOL0     H94458   2.861   4.772  12.234 -0.5542 -0.3287 -1.1011
  700MOL0     H94459   3.017   4.781  12.300 -1.8355  0.0643  0.2458
  700MOL0     H94460   2.906   4.608  12.395 -3.7602 -0.3616  1.8976
  700MOL0     H94461   2.850   4.516  12.592 -4.2799  0.8943 -0.8635
  700MOL0     H94462   2.747   4.383  12.583 -0.1779 -1.7707 -2.7930
  700MOL0     H94463   2.923   4.362  12.635 -0.8623 -1.2142  0.2057
  700MOL0     H94464   2.717   3.912  12.479  2.2653  2.6665 -1.0957
  700MOL0     H94465   2.730   3.681  12.551  0.8057 -0.4478  0.1388
  700MOL0     H94466   2.884   3.321  12.533  5.5395  1.6630  0.0394
  700MOL0     H94467   2.810   3.437  12.644  1.2929 -1.7121  1.0890
  700MOL0     H94468   2.631   3.335  12.511 -3.8974  2.2044 -0.6969
  700MOL0     H94469   2.642   3.500  12.461  0.5885 -0.2459 -2.3330
  700MOL0     H94470   2.785   3.268  12.315 -2.3719 -0.3478  0.4538
  700MOL0     H94471   2.783   3.441  12.259 -1.0787  0.5145  0.0793
  700MOL0     H94472   2.555   3.245  12.261 -1.5129  0.8593 -0.0177
  700MOL0     H94473   2.530   3.418  12.257 -2.0300 -2.6246  1.6601
  700MOL0     H94474   2.740   3.279  12.082 -0.3990 -0.8864  2.9905
  700MOL0     H94475   2.671   3.437  12.056 -1.9112  2.1362  2.1007
  700MOL0     H94476   2.451   3.349  11.999  0.7154  0.8674  0.0875
  700MOL0     H94477   2.582   3.281  11.886  0.2134 -3.4036 -0.0411
  700MOL0     H94478   2.424   3.151  12.116  2.3657 -0.3209  0.5952
  700MOL0     H94479   2.572   3.080  12.037  0.2036 -0.8054 -2.6346
  700MOL0     H94480   2.308   3.125  11.896  0.2739  0.6800 -1.2682
  700MOL0     H94481   2.363   2.975  11.964  0.3315 -0.9390 -1.0349
  700MOL0     H94482   3.112   3.642  12.382  0.7833  2.0234  2.8004
  700MOL0     H94483   3.110   3.884  12.332 -1.8881  2.3087  0.1177
  700MOL0     H94484   2.987   4.191  12.173 -0.9048 -0.5925  0.1988
  700MOL0     H94485   3.037   4.397  12.064  0.0285  0.7406 -0.5733
  700MOL0     H94486   2.355   5.897  11.244  0.6812 -1.5381 -0.4646
  700MOL0     H94487   2.368   6.079  11.097  0.9743  0.0763 -2.2226
  700MOL0     H94488   2.401   6.479  10.896  0.5240 -0.8688 -0.9785
  700MOL0     H94489   2.424   6.637  10.717  1.4293 -0.8139 -1.7706
  700MOL0     H94490   2.347   6.550  10.275  2.2019  2.0142 -0.0259
  700MOL0     H94491   2.186   6.600  10.348 -0.3052  0.0656  0.1626
  700MOL0     H94492   2.296   6.827  10.385  1.3096  0.5437 -0.0620
  700MOL0     H94493   2.247   6.787  10.224 -0.0556  1.6954  1.0934
  700MOL0     H94494   2.501   6.692  10.205 -0.7531 -0.2465 -0.0080
  700MOL0     H94495   2.529   6.795  10.347  1.5235  0.0376 -2.6176
  700MOL0     H94496   2.604   6.899  10.165 -0.0740 -1.1540  2.0474
  700MOL0     H94497   2.471   7.001  10.210 -1.0258  0.4504 -0.1995
  700MOL0     H94498   2.342   6.847   9.829  0.4492 -1.5347  0.3370
  700MOL0     H94499   2.178   6.407  10.456 -0.9306  0.6298  0.0077
  700MOL0     H94500   2.160   6.222  10.629 -0.6766  0.6139 -2.1360
  701MOL0     O94501   2.908   1.701   7.451  0.1965  0.0651 -0.2679
  701MOL0     C94502   2.965   1.602   7.416 -0.3774  0.1561  0.3203
  701MOL0     O94503   2.985   1.558   7.283  0.4629 -0.4596  0.3782
  701MOL0     C94504   2.930   1.616   7.170  0.1388  0.3564  0.5286
  701MOL0     C94505   2.923   1.531   7.059  0.2674 -0.2771  0.8905
  701MOL0     C94506   2.876   1.579   6.930 -0.5581  1.1139  0.6532
  701MOL0     C94507   2.837   1.714   6.918  0.1427  0.6584  0.5998
  701MOL0     O94508   2.776   1.778   6.814  1.0263 -0.4577  0.3729
  701MOL0     C94509   2.804   1.727   6.682  0.4537  0.1181 -1.2178
  701MOL0     C94510   2.698   1.755   6.580  0.7261  0.0550  1.3456
  701MOL0     C94511   2.586   1.848   6.630 -0.1228 -0.6100  0.4985
  701MOL0     C94512   2.462   1.872   6.540  0.0983  0.0591  0.1796
  701MOL0     C94513   2.490   1.944   6.406  0.2125 -0.2937 -1.0724
  701MOL0     C94514   2.523   2.095   6.431 -0.1657  0.8074  1.0922
  701MOL0     C94515   2.399   2.181   6.415  0.1167  0.7734 -0.2347
  701MOL0     C94516   2.435   2.325   6.406  0.3680 -0.7427 -0.2172
  701MOL0     N94517   2.350   2.398   6.493 -0.6663  0.6889 -0.5874
  701MOL0     C94518   2.216   2.434   6.482 -1.2037  0.5572  0.2002
  701MOL0     C94519   2.187   2.476   6.603  0.5910  1.2218  0.4036
  701MOL0     C94520   2.051   2.494   6.653 -0.2123  0.7823  0.9535
  701MOL0     C94521   2.000   2.642   6.637 -0.8841 -0.2939 -0.0497
  701MOL0     C94522   2.098   2.733   6.722 -0.2908 -0.1426 -0.3341
  701MOL0     C94523   2.033   2.868   6.740 -0.4557  0.1635 -0.6739
  701MOL0     O94524   2.124   2.953   6.816  0.4192 -0.3355 -0.0170
  701MOL0     C94525   2.084   3.084   6.844  0.9123  0.3373  0.7622
  701MOL0     C94526   1.970   3.152   6.792  0.1831 -0.5689 -0.8576
  701MOL0     C94527   1.937   3.282   6.833 -0.7948  0.2766 -0.6258
  701MOL0     C94528   1.825   3.350   6.754  0.2870 -0.0641 -0.0836
  701MOL0     C94529   2.012   3.346   6.930  0.0655  0.6495  0.0749
  701MOL0     C94530   1.975   3.477   6.987 -0.3901  0.0483 -0.3267
  701MOL0     O94531   1.873   3.483   7.080  0.0690  0.6662  0.2977
  701MOL0     C94532   1.821   3.601   7.122  0.4812  0.1035 -0.8416
  701MOL0     C94533   1.705   3.654   7.048 -0.4303 -0.6881 -0.3026
  701MOL0     C94534   1.647   3.777   7.067  0.2999 -0.1885  1.5472
  701MOL0     C94535   1.710   3.856   7.154 -0.6306  0.4728  0.6842
  701MOL0     O94536   1.647   3.982   7.173  0.2579 -0.6039 -0.9096
  701MOL0     C94537   1.656   4.047   7.298  0.0940  0.0452  0.3328
  701MOL0     C94538   1.555   4.158   7.311  0.5201  0.5541  0.7498
  701MOL0     C94539   1.588   4.276   7.228 -0.0569  0.6614  0.3855
  701MOL0     C94540   1.475   4.381   7.233  0.1494 -0.0792  0.0487
  701MOL0     C94541   1.476   4.481   7.108 -0.0365 -0.2888  0.1002
  701MOL0     C94542   1.372   4.595   7.117 -0.2220 -0.0199  0.2875
  701MOL0     C94543   1.371   4.671   7.257  0.3620 -0.0012  0.6310
  701MOL0     C94544   1.319   4.812   7.238  0.5469  0.4269  0.9121
  701MOL0    Cl94545   1.429   4.913   7.128 -0.3374  0.1014  0.2341
  701MOL0     C94546   1.824   3.817   7.222 -0.1616  0.2894 -0.9690
  701MOL0     C94547   1.881   3.687   7.211 -0.9597  0.6307  0.2229
  701MOL0     O94548   2.048   3.580   6.962  0.2097  1.0115  0.3639
  701MOL0     C94549   2.123   3.280   6.980  0.0248 -0.4703 -0.3388
  701MOL0     C94550   2.158   3.145   6.947 -0.2336 -0.1857 -0.3414
  701MOL0     N94551   2.294   2.467   6.690 -0.5772  0.1847  0.4701
  701MOL0     N94552   2.386   2.398   6.625  0.0924 -0.1196 -0.5982
  701MOL0     C94553   2.842   1.791   7.028  0.1553 -0.7276 -0.0499
  701MOL0     C94554   2.881   1.744   7.152 -1.1315 -0.9291  0.4535
  701MOL0     C94555   3.039   1.509   7.509 -0.1365 -0.2137 -0.0209
  701MOL0     C94556   3.021   1.520   7.651 -0.4873 -0.1474 -0.2273
  701MOL0     C94557   3.094   1.436   7.730 -0.2672  0.1167  0.0377
  701MOL0     C94558   3.186   1.350   7.682  0.4933  0.8039 -0.5081
  701MOL0     O94559   3.252   1.281   7.775  0.3966  0.1396  0.3297
  701MOL0     C94560   3.352   1.188   7.728  0.7898  0.2364  0.0418
  701MOL0     C94561   3.432   1.142   7.851  0.0210  0.4618  0.1035
  701MOL0     C94562   3.515   1.027   7.829 -0.1389  0.3458  1.0930
  701MOL0     C94563   3.636   1.027   7.919 -0.8230  0.7760 -0.6038
  701MOL0     C94564   3.604   1.029   8.063  0.6371  0.2498 -0.8857
  701MOL0     C94565   3.555   1.051   8.176 -1.2938 -0.1040 -0.3730
  701MOL0     C94566   3.204   1.336   7.546  0.0901 -0.4587  0.2776
  701MOL0     C94567   3.131   1.414   7.459 -0.5249  0.0624  0.1653
  701MOL0     H94568   2.939   1.423   7.063  2.8283 -0.0309 -0.4468
  701MOL0     H94569   2.865   1.510   6.847 -0.3590  1.1340  0.6093
  701MOL0     H94570   2.904   1.761   6.653  1.3044  1.6852  2.8252
  701MOL0     H94571   2.808   1.617   6.680 -0.6951  0.0378 -0.1528
  701MOL0     H94572   2.747   1.802   6.494 -0.6600  1.1954  1.1413
  701MOL0     H94573   2.656   1.662   6.543  1.2653 -0.3801  1.8092
  701MOL0     H94574   2.537   1.794   6.712 -0.1042 -0.2972  0.7146
  701MOL0     H94575   2.628   1.945   6.658 -0.7712  0.5959 -2.3583
  701MOL0     H94576   2.416   1.776   6.516 -0.9038  0.4337  0.5666
  701MOL0     H94577   2.393   1.933   6.600 -1.8555 -0.9827 -0.9091
  701MOL0     H94578   2.571   1.888   6.358  0.3374 -2.7576  1.7671
  701MOL0     H94579   2.398   1.948   6.347 -0.1547 -0.1008 -0.4983
  701MOL0     H94580   2.568   2.109   6.530  1.3361 -2.4283  0.9930
  701MOL0     H94581   2.594   2.116   6.351 -0.9689 -1.1581 -0.1952
  701MOL0     H94582   2.342   2.133   6.335  3.2273  0.3230 -2.3732
  701MOL0     H94583   2.336   2.167   6.503 -0.1275 -3.6917 -0.9144
  701MOL0     H94584   2.405   2.354   6.304 -1.9482 -3.6006 -0.4906
  701MOL0     H94585   2.542   2.339   6.420  0.2831 -0.5134  0.1911
  701MOL0     H94586   2.159   2.450   6.391 -2.0176  1.0199  0.7789
  701MOL0     H94587   1.984   2.431   6.593  3.0944 -1.8819 -0.2901
  701MOL0     H94588   2.047   2.457   6.755  3.2419 -2.9928 -0.0306
  701MOL0     H94589   1.896   2.654   6.667 -0.2087  1.5321  1.7253
  701MOL0     H94590   2.000   2.680   6.534 -1.3713  2.1018  0.7822
  701MOL0     H94591   2.191   2.741   6.666 -1.7643 -1.5645 -3.2573
  701MOL0     H94592   2.114   2.685   6.819 -1.9634 -1.6589 -0.7447
  701MOL0     H94593   1.943   2.852   6.800  1.4791  2.3305  3.1287
  701MOL0     H94594   2.007   2.915   6.645  0.4321  1.6498 -0.2115
  701MOL0     H94595   1.903   3.105   6.720 -3.9226  2.1781  0.8066
  701MOL0     H94596   1.772   3.433   6.803 -1.7551 -1.9704  1.0973
  701MOL0     H94597   1.865   3.384   6.658  0.8061 -1.4477 -0.3688
  701MOL0     H94598   1.747   3.277   6.734  0.8472 -0.9338  0.7776
  701MOL0     H94599   1.655   3.584   6.982 -0.7561 -0.8009  0.0561
  701MOL0     H94600   1.554   3.804   7.018  2.4753  4.1482 -0.7792
  701MOL0     H94601   1.632   3.975   7.376  1.2337  2.5180  3.1931
  701MOL0     H94602   1.758   4.086   7.300  0.8652 -1.5831 -2.0873
  701MOL0     H94603   1.458   4.119   7.281  1.1742  0.7394 -1.9009
  701MOL0     H94604   1.547   4.184   7.417  2.6534 -0.2654  1.1734
  701MOL0     H94605   1.595   4.252   7.122  2.4379 -1.7407  0.9890
  701MOL0     H94606   1.687   4.312   7.257 -0.2525  1.1920  0.4134
  701MOL0     H94607   1.375   4.339   7.229  0.6505 -1.4089  0.8445
  701MOL0     H94608   1.485   4.433   7.329  0.7149  1.9630 -1.0457
  701MOL0     H94609   1.451   4.432   7.013 -0.4241  1.4729 -0.7571
  701MOL0     H94610   1.579   4.518   7.107 -0.9266  2.5512  1.4856
  701MOL0     H94611   1.394   4.664   7.035 -0.7822  0.8360  0.8361
  701MOL0     H94612   1.273   4.548   7.116 -1.2393  2.0186  0.0809
  701MOL0     H94613   1.472   4.669   7.298 -0.0788 -4.2182  2.0048
  701MOL0     H94614   1.306   4.622   7.330 -2.5173  1.6496 -0.6220
  701MOL0     H94615   1.313   4.860   7.335  0.7775  0.2918  0.9947
  701MOL0     H94616   1.219   4.795   7.197  2.2249 -1.2270 -3.0531
  701MOL0     H94617   1.868   3.884   7.296 -1.3069 -0.3472  0.3533
  701MOL0     H94618   1.964   3.648   7.268  2.1493  2.8703 -2.4241
  701MOL0     H94619   2.175   3.335   7.058 -1.7653  1.5289 -0.4867
  701MOL0     H94620   2.243   3.093   6.991 -0.2409 -0.4068 -0.5846
  701MOL0     H94621   2.812   1.895   7.022 -1.7712 -1.3170 -1.4602
  701MOL0     H94622   2.895   1.824   7.224  1.1933 -0.3257 -0.5673
  701MOL0     H94623   2.957   1.600   7.688 -0.3485  1.3107 -2.8459
  701MOL0     H94624   3.076   1.440   7.837 -0.8428 -0.2164 -0.0427
  701MOL0     H94625   3.298   1.099   7.694 -0.2309  0.6728  0.4850
  701MOL0     H94626   3.421   1.219   7.649  0.8651  0.5091  0.2146
  701MOL0     H94627   3.356   1.113   7.924 -2.2820 -2.1458 -3.0144
  701MOL0     H94628   3.496   1.224   7.886  0.4369 -0.0570  0.5980
  701MOL0     H94629   3.543   1.021   7.723 -1.9201 -1.6293  0.6842
  701MOL0     H94630   3.452   0.941   7.850 -1.4951  0.6586 -1.3086
  701MOL0     H94631   3.696   1.117   7.906  0.2996 -0.1307 -1.9269
  701MOL0     H94632   3.694   0.938   7.891 -0.4092 -0.5923  3.7933
  701MOL0     H94633   3.498   1.076   8.263  0.5692  2.0287  0.3450
  701MOL0     H94634   3.268   1.257   7.507  0.3218  0.0145 -0.3288
  701MOL0     H94635   3.152   1.414   7.352 -4.2730  0.2470 -0.7173
  702MOL0     O94636   8.391   0.222   9.106  0.6330  0.4525  0.3068
  702MOL0     C94637   8.414   0.327   9.164 -0.5214  0.6774  0.8364
  702MOL0     O94638   8.361   0.374   9.272 -0.1175  0.5293 -0.4363
  702MOL0     C94639   8.284   0.281   9.336  0.9692 -0.1867 -0.4822
  702MOL0     C94640   8.156   0.256   9.290  0.5258  0.2640  0.8632
  702MOL0     C94641   8.068   0.172   9.362  0.2922 -0.1353  0.2097
  702MOL0     C94642   8.112   0.103   9.477  0.2110 -0.4424 -0.7412
  702MOL0     O94643   8.021   0.025   9.543  1.0273  0.0435  0.1078
  702MOL0     C94644   7.889  -0.009   9.501 -0.9638 -1.1508  0.4872
  702MOL0     C94645   7.821  -0.119   9.588  0.4247 -0.8375 -0.4178
  702MOL0     C94646   7.690  -0.163   9.513 -0.9288 -0.6198  0.2311
  702MOL0     C94647   7.561  -0.114   9.584 -0.3115 -0.6091 -0.2200
  702MOL0     C94648   7.457  -0.215   9.545  0.3842 -0.7137  0.0788
  702MOL0     C94649   7.326  -0.166   9.587 -0.6466 -0.1978 -0.1047
  702MOL0     C94650   7.221  -0.276   9.554 -0.0073 -0.5164  0.1719
  702MOL0     C94651   7.073  -0.228   9.581  0.0761 -1.1031  0.3805
  702MOL0     N94652   6.977  -0.332   9.554 -0.2599 -0.6823 -0.4085
  702MOL0     C94653   6.992  -0.465   9.592  0.7363  0.3168  0.3817
  702MOL0     C94654   6.875  -0.526   9.554  0.3257  0.6506  0.7470
  702MOL0     C94655   6.851  -0.677   9.540 -0.1173 -1.4575 -0.0895
  702MOL0     C94656   6.887  -0.732   9.405 -0.2095 -0.5460  0.0247
  702MOL0     C94657   6.905  -0.896   9.416  0.4325 -0.7331 -0.0808
  702MOL0     C94658   6.765  -0.949   9.371 -0.9117  0.6300 -0.3296
  702MOL0     O94659   6.766  -1.094   9.363  0.1033 -0.0544  0.5155
  702MOL0     C94660   6.722  -1.151   9.239 -0.8620 -0.0643 -0.9383
  702MOL0     C94661   6.772  -1.271   9.201  0.4948  0.9658 -0.6618
  702MOL0     C94662   6.740  -1.334   9.083  0.3142 -0.5267  0.2529
  702MOL0     C94663   6.802  -1.471   9.042  0.1991 -0.6722 -0.2979
  702MOL0     C94664   6.646  -1.273   8.998  1.2812  0.2076  0.3598
  702MOL0     C94665   6.624  -1.320   8.853 -0.0206  0.3416  0.5894
  702MOL0     O94666   6.717  -1.390   8.777  0.4141  0.8676 -0.5075
  702MOL0     C94667   6.666  -1.451   8.661 -0.5856  0.5496  0.3642
  702MOL0     C94668   6.572  -1.551   8.654  0.4466 -0.3829 -0.4660
  702MOL0     C94669   6.537  -1.610   8.532 -0.3511  0.0665 -0.0625
  702MOL0     C94670   6.598  -1.569   8.416  0.1578  0.0125 -0.0254
  702MOL0     O94671   6.554  -1.624   8.302 -0.0287  0.4681  0.3341
  702MOL0     C94672   6.547  -1.531   8.191 -0.3395  0.2024 -0.1131
  702MOL0     C94673   6.404  -1.496   8.177 -0.2444 -0.7284 -0.1475
  702MOL0     C94674   6.394  -1.398   8.067 -0.3941  0.5531 -0.2657
  702MOL0     C94675   6.244  -1.345   8.076 -0.1780 -0.4057 -0.6584
  702MOL0     C94676   6.213  -1.229   7.974  0.1397 -0.6733 -0.1020
  702MOL0     C94677   6.061  -1.218   7.960 -0.5762 -0.2774 -0.3642
  702MOL0     C94678   6.037  -1.105   7.864 -0.4748 -1.1707  0.2757
  702MOL0     C94679   5.891  -1.062   7.878  0.9279  0.7202  0.5491
  702MOL0    Cl94680   5.773  -1.183   7.794 -0.0954 -0.3042  0.0601
  702MOL0     C94681   6.708  -1.470   8.432 -0.1588 -0.2626 -0.3519
  702MOL0     C94682   6.731  -1.409   8.552  1.5689 -0.2440  0.3844
  702MOL0     O94683   6.519  -1.267   8.805 -0.8696 -0.2051  0.6859
  702MOL0     C94684   6.577  -1.157   9.045 -0.6865 -0.3172 -0.4004
  702MOL0     C94685   6.612  -1.100   9.177 -0.1513  0.1495 -0.2539
  702MOL0     N94686   6.796  -0.430   9.492  0.3095  0.1270 -0.0457
  702MOL0     N94687   6.859  -0.316   9.500  0.5898 -0.0700 -0.2691
  702MOL0     C94688   8.244   0.132   9.525  0.7683  0.4455 -0.6481
  702MOL0     C94689   8.328   0.217   9.456 -0.9093 -0.0351  1.0691
  702MOL0     C94690   8.507   0.420   9.099 -0.0620  0.3843 -0.4662
  702MOL0     C94691   8.560   0.382   8.972  0.2056 -0.2960 -0.0540
  702MOL0     C94692   8.655   0.461   8.912  0.5074  0.8815  0.0541
  702MOL0     C94693   8.700   0.585   8.969  0.5881  0.1825  0.3701
  702MOL0     O94694   8.794   0.655   8.907 -0.2381 -0.2446 -0.6423
  702MOL0     C94695   8.755   0.715   8.787 -0.7755 -0.0365  0.0491
  702MOL0     C94696   8.786   0.867   8.807 -0.2245  0.2646 -0.0992
  702MOL0     C94697   8.727   0.931   8.939 -0.3077  1.6341 -1.1815
  702MOL0     C94698   8.744   1.079   8.943 -0.3405  0.1807 -0.8631
  702MOL0     C94699   8.876   1.133   8.912 -0.3549 -0.9694 -1.0782
  702MOL0     C94700   8.980   1.181   8.892 -0.4003  0.4009 -0.7770
  702MOL0     C94701   8.629   0.623   9.092  0.3755 -0.0727  0.3624
  702MOL0     C94702   8.533   0.542   9.155  1.0962  0.0923  0.7018
  702MOL0     H94703   8.108   0.323   9.219 -0.8493  0.6014  2.0712
  702MOL0     H94704   7.960   0.175   9.351 -0.0462  0.2520  2.7850
  702MOL0     H94705   7.822   0.075   9.518  2.1150  1.8585 -1.0580
  702MOL0     H94706   7.887  -0.041   9.396  2.4784 -0.7401  0.1694
  702MOL0     H94707   7.892  -0.201   9.583  2.0468  0.4855  0.0325
  702MOL0     H94708   7.804  -0.095   9.694 -1.9043 -0.6584 -0.7719
  702MOL0     H94709   7.694  -0.136   9.407 -2.2672  3.0865  0.9854
  702MOL0     H94710   7.686  -0.271   9.530  0.7994 -1.0504 -1.7086
  702MOL0     H94711   7.573  -0.105   9.692  0.6301  2.3625 -0.5019
  702MOL0     H94712   7.527  -0.015   9.554  0.8251 -0.1053  0.1139
  702MOL0     H94713   7.444  -0.228   9.437 -0.8990  2.1561 -0.1832
  702MOL0     H94714   7.474  -0.307   9.603  0.0371 -0.1687  1.0722
  702MOL0     H94715   7.327  -0.147   9.695  0.9856  1.5880 -0.3954
  702MOL0     H94716   7.296  -0.073   9.538 -0.3047 -0.2848 -0.4850
  702MOL0     H94717   7.228  -0.307   9.449 -0.5870 -1.1115  0.3019
  702MOL0     H94718   7.243  -0.354   9.628 -1.0204  0.3458  1.4150
  702MOL0     H94719   7.052  -0.136   9.527 -1.7368 -0.3765  2.1778
  702MOL0     H94720   7.060  -0.198   9.686 -0.5176 -0.9463  0.2635
  702MOL0     H94721   7.074  -0.519   9.639 -0.4940 -1.9619  0.0602
  702MOL0     H94722   6.911  -0.727   9.617 -0.8943 -2.3339 -0.0446
  702MOL0     H94723   6.747  -0.699   9.562 -0.9667  0.5908 -1.6704
  702MOL0     H94724   6.989  -0.702   9.382 -0.0504  0.5502  1.9671
  702MOL0     H94725   6.826  -0.692   9.323  3.3982  3.4569 -1.0651
  702MOL0     H94726   6.928  -0.946   9.510  0.8504 -1.5333 -0.6044
  702MOL0     H94727   6.977  -0.944   9.349  0.5490 -1.9389  0.8789
  702MOL0     H94728   6.758  -0.920   9.266  0.1609 -0.1890 -0.6457
  702MOL0     H94729   6.691  -0.899   9.434 -1.6354 -1.0393  0.1934
  702MOL0     H94730   6.834  -1.322   9.274  1.3469  4.1584  1.0254
  702MOL0     H94731   6.891  -1.458   8.980  1.8897  1.3020  2.2706
  702MOL0     H94732   6.843  -1.520   9.132  2.0230 -0.2382 -0.8401
  702MOL0     H94733   6.726  -1.527   8.988  0.1864  2.1379 -3.5211
  702MOL0     H94734   6.527  -1.600   8.739  1.7642 -1.3735 -0.2995
  702MOL0     H94735   6.458  -1.684   8.520 -0.5558  0.4168 -1.0147
  702MOL0     H94736   6.595  -1.437   8.220 -2.2865  1.1382  0.2192
  702MOL0     H94737   6.590  -1.583   8.105 -0.7291 -3.2369  1.5631
  702MOL0     H94738   6.338  -1.578   8.149 -1.6840 -0.2945  1.7926
  702MOL0     H94739   6.356  -1.455   8.266  1.2304 -0.2173  0.4411
  702MOL0     H94740   6.405  -1.459   7.977  0.5422  0.3016  0.0009
  702MOL0     H94741   6.464  -1.316   8.086  3.2856 -2.4284  0.2301
  702MOL0     H94742   6.178  -1.427   8.044  1.0172 -0.9574 -1.8570
  702MOL0     H94743   6.227  -1.313   8.178 -0.4909 -2.5701  0.0286
  702MOL0     H94744   6.266  -1.264   7.886 -0.2369  0.3226 -0.7439
  702MOL0     H94745   6.253  -1.132   8.007  0.8503 -1.0670  0.2153
  702MOL0     H94746   6.007  -1.305   7.922  0.2385 -1.0139  0.1069
  702MOL0     H94747   6.018  -1.191   8.057 -2.6781 -0.7205 -1.1362
  702MOL0     H94748   6.042  -1.133   7.758 -4.7880  0.8017 -0.6839
  702MOL0     H94749   6.105  -1.025   7.897  1.2783 -2.1742 -0.7343
  702MOL0     H94750   5.878  -0.964   7.831  0.3469  1.3628  1.9754
  702MOL0     H94751   5.859  -1.067   7.983 -1.3248 -0.7129 -0.1359
  702MOL0     H94752   6.771  -1.451   8.345  0.2922  3.4512  0.6230
  702MOL0     H94753   6.806  -1.331   8.547  2.2255 -0.8098  1.2921
  702MOL0     H94754   6.511  -1.099   8.982 -2.4744 -1.6068  0.2053
  702MOL0     H94755   6.558  -1.017   9.222 -0.0128 -0.4075  0.9786
  702MOL0     H94756   8.277   0.075   9.612 -2.5211 -0.5338  0.0852
  702MOL0     H94757   8.428   0.245   9.488 -0.1145 -0.1664 -1.1454
  702MOL0     H94758   8.533   0.286   8.929  0.3270  1.1098 -3.6029
  702MOL0     H94759   8.689   0.419   8.818 -1.7113  0.2586 -0.5379
  702MOL0     H94760   8.820   0.681   8.705 -0.1876 -1.3270  1.0147
  702MOL0     H94761   8.649   0.706   8.763 -0.2739 -3.2947 -1.3814
  702MOL0     H94762   8.750   0.925   8.722 -1.9395  0.5152  0.7576
  702MOL0     H94763   8.893   0.858   8.827 -0.7180 -1.9822  2.1824
  702MOL0     H94764   8.787   0.898   9.025 -4.1148  0.1744  1.1832
  702MOL0     H94765   8.626   0.889   8.942  0.6830 -1.0506 -2.1112
  702MOL0     H94766   8.721   1.102   9.048  2.1831 -1.8384  0.2333
  702MOL0     H94767   8.664   1.120   8.880 -1.0650  1.5271  0.8550
  702MOL0     H94768   9.083   1.212   8.885  0.5332 -1.8602  1.3465
  702MOL0     H94769   8.666   0.714   9.138  1.8835  0.4519 -1.7475
  702MOL0     H94770   8.468   0.573   9.236 -3.6029  2.5274 -3.4782
  703MOL0     O94771   1.902   5.748   0.140 -0.2656  0.3488 -0.5797
  703MOL0     C94772   1.969   5.847   0.113  0.7651  0.2427  0.5589
  703MOL0     O94773   2.079   5.878   0.175 -0.2577 -0.3500 -0.4263
  703MOL0     C94774   2.129   5.789   0.273 -0.3525  0.1099  0.5339
  703MOL0     C94775   2.245   5.718   0.240  0.2761 -0.6355  0.8205
  703MOL0     C94776   2.305   5.637   0.338 -1.1742  0.2151  0.9429
  703MOL0     C94777   2.249   5.617   0.461  0.6400 -0.0522 -0.3296
  703MOL0     O94778   2.318   5.523   0.536  0.0884 -0.4091 -0.0088
  703MOL0     C94779   2.304   5.532   0.683 -0.9671  0.6270  0.8333
  703MOL0     C94780   2.417   5.439   0.735  0.6691 -1.2009 -0.0841
  703MOL0     C94781   2.413   5.299   0.691  0.4838  1.0756  0.1324
  703MOL0     C94782   2.518   5.221   0.771  0.3426  0.5035 -0.2154
  703MOL0     C94783   2.470   5.096   0.841  0.3808 -0.1779  0.1304
  703MOL0     C94784   2.587   5.025   0.902  0.4826 -0.5345 -0.7148
  703MOL0     C94785   2.524   4.921   0.996 -0.7316 -0.9436 -0.4902
  703MOL0     C94786   2.615   4.811   1.054 -0.6421  0.7157  0.0866
  703MOL0     N94787   2.561   4.748   1.178 -0.0321  0.1126 -0.0699
  703MOL0     C94788   2.550   4.617   1.201 -0.1394  0.9516 -0.7821
  703MOL0     C94789   2.515   4.601   1.333  0.0761 -0.7486 -0.3605
  703MOL0     C94790   2.485   4.479   1.424 -0.8544  0.3789  0.1862
  703MOL0     C94791   2.576   4.360   1.376 -0.1005  0.5812  0.4253
  703MOL0     C94792   2.560   4.225   1.443 -0.8739  0.4373  0.3717
  703MOL0     C94793   2.671   4.115   1.403 -0.0777  1.0336  0.2481
  703MOL0     O94794   2.648   3.987   1.478 -0.7568 -0.2774  1.0356
  703MOL0     C94795   2.736   3.880   1.472 -1.0606 -0.4169  0.4360
  703MOL0     C94796   2.693   3.760   1.537 -0.0592 -0.4821 -0.3129
  703MOL0     C94797   2.749   3.637   1.534  0.3700 -0.6673 -0.3662
  703MOL0     C94798   2.684   3.532   1.622  0.5932 -0.3243  0.4154
  703MOL0     C94799   2.860   3.621   1.446  0.3629 -0.7025 -0.6499
  703MOL0     C94800   2.935   3.489   1.441  0.3163 -0.5131 -0.4320
  703MOL0     O94801   3.027   3.499   1.344 -0.1663  0.2363 -0.2684
  703MOL0     C94802   3.128   3.406   1.351  0.3564 -0.3352 -0.1541
  703MOL0     C94803   3.253   3.436   1.408 -0.2328 -0.0013  0.1298
  703MOL0     C94804   3.346   3.330   1.424 -0.1993  0.4720 -0.6328
  703MOL0     C94805   3.329   3.211   1.365  0.0165  0.3265 -0.3340
  703MOL0     O94806   3.433   3.120   1.386  0.7315 -0.7246 -0.4762
  703MOL0     C94807   3.507   3.060   1.273  0.3736 -1.3419 -0.7556
  703MOL0     C94808   3.575   2.935   1.332  0.3879  1.0145  0.5821
  703MOL0     C94809   3.705   2.886   1.261 -0.3505  0.0629 -0.0940
  703MOL0     C94810   3.688   2.887   1.112 -0.1999  0.5349  1.0157
  703MOL0     C94811   3.586   2.768   1.061 -0.5989 -0.0300 -0.1725
  703MOL0     C94812   3.620   2.707   0.927  0.2509 -0.2656  0.5883
  703MOL0     C94813   3.647   2.807   0.815 -0.0856 -0.3941 -0.3763
  703MOL0     C94814   3.654   2.734   0.688 -0.3404 -0.7554  1.5305
  703MOL0    Cl94815   3.739   2.846   0.569  0.0725  0.0405 -0.4827
  703MOL0     C94816   3.200   3.185   1.298 -0.6448 -0.3938 -0.6435
  703MOL0     C94817   3.099   3.285   1.294 -0.9995 -0.3640  0.5044
  703MOL0     O94818   2.914   3.394   1.515 -0.8343  0.1118  0.1045
  703MOL0     C94819   2.898   3.732   1.365  0.2801 -0.1685  0.1458
  703MOL0     C94820   2.842   3.861   1.376 -0.2723 -0.3777  0.3516
  703MOL0     N94821   2.497   4.732   1.377  0.5046 -0.1725 -0.8796
  703MOL0     N94822   2.531   4.818   1.291 -0.3010 -0.2484 -0.1089
  703MOL0     C94823   2.143   5.701   0.498  0.5347 -0.5680 -0.6420
  703MOL0     C94824   2.082   5.788   0.407  0.1446  0.1564 -0.8752
  703MOL0     C94825   1.929   5.918  -0.010  0.2504  0.3639  0.2329
  703MOL0     C94826   1.804   5.896  -0.071  0.7050 -0.1515 -0.2121
  703MOL0     C94827   1.790   5.951  -0.196  0.5725  0.5732  0.8186
  703MOL0     C94828   1.885   6.029  -0.267  0.2173  0.8202 -0.4001
  703MOL0     O94829   1.832   6.097  -0.371  0.0734  0.1780 -0.5831
  703MOL0     C94830   1.918   6.200  -0.424  0.1568 -1.1572 -0.5320
  703MOL0     C94831   1.852   6.270  -0.546 -0.3816  0.4189  0.5102
  703MOL0     C94832   1.912   6.407  -0.598  0.7682 -0.4091 -0.8979
  703MOL0     C94833   1.865   6.428  -0.747  0.4133  0.4908  0.2998
  703MOL0     C94834   1.924   6.545  -0.798  0.2219  0.5314  0.2904
  703MOL0     C94835   1.956   6.653  -0.844  1.1141  0.3521 -0.0572
  703MOL0     C94836   2.004   6.055  -0.197 -0.4921 -0.3894 -0.1348
  703MOL0     C94837   2.024   6.007  -0.068 -0.0856  0.0430  0.8385
  703MOL0     H94838   2.289   5.736   0.142  3.0734 -1.2870  1.8803
  703MOL0     H94839   2.405   5.596   0.335 -0.1724  2.4443  1.4508
  703MOL0     H94840   2.321   5.634   0.718  1.0444  1.4112 -2.0909
  703MOL0     H94841   2.214   5.481   0.718 -0.5908 -1.2173 -0.7530
  703MOL0     H94842   2.508   5.490   0.704 -2.7617  3.6635 -3.5853
  703MOL0     H94843   2.414   5.463   0.842  4.5872  2.6993 -0.5877
  703MOL0     H94844   2.311   5.259   0.699  1.0611 -1.0612 -1.9068
  703MOL0     H94845   2.434   5.287   0.584  1.8804 -2.2455  0.6436
  703MOL0     H94846   2.599   5.186   0.707  0.0605  1.6982 -1.2655
  703MOL0     H94847   2.558   5.276   0.857  0.6297 -0.8463  0.5537
  703MOL0     H94848   2.401   5.135   0.917 -0.0698  0.8185 -0.7571
  703MOL0     H94849   2.418   5.030   0.772  0.2670  0.2845 -0.2282
  703MOL0     H94850   2.661   4.960   0.854  0.9366 -0.5712  0.0023
  703MOL0     H94851   2.648   5.092   0.964 -0.8005 -1.0903  1.2628
  703MOL0     H94852   2.471   4.975   1.074 -1.2269  2.0265 -2.7322
  703MOL0     H94853   2.448   4.874   0.932  0.2608 -0.4087 -2.1268
  703MOL0     H94854   2.717   4.844   1.077  1.7691 -5.1833 -0.5249
  703MOL0     H94855   2.631   4.738   0.975 -1.7847 -0.7593  1.1588
  703MOL0     H94856   2.571   4.540   1.128  3.3942  1.2966 -0.3011
  703MOL0     H94857   2.516   4.521   1.520  2.8063  0.6889 -0.9541
  703MOL0     H94858   2.379   4.453   1.431 -1.5444  2.7027 -0.6383
  703MOL0     H94859   2.677   4.391   1.404  1.1283 -1.7783 -1.0767
  703MOL0     H94860   2.565   4.341   1.268 -0.9020  2.0734  0.2194
  703MOL0     H94861   2.456   4.194   1.430 -0.5631  0.1160 -1.7774
  703MOL0     H94862   2.566   4.240   1.551 -0.8704  1.4423  0.2385
  703MOL0     H94863   2.774   4.144   1.425  0.2474  2.9442 -3.1241
  703MOL0     H94864   2.661   4.102   1.295 -2.2050  3.2618  0.0895
  703MOL0     H94865   2.598   3.767   1.590  0.3081  1.4523  0.1829
  703MOL0     H94866   2.597   3.561   1.680  0.3930  0.1629 -0.1243
  703MOL0     H94867   2.640   3.461   1.551  1.9536 -0.7936 -0.0078
  703MOL0     H94868   2.763   3.482   1.679 -1.5905 -3.9425  0.6353
  703MOL0     H94869   3.271   3.538   1.442 -1.8261  0.9708 -1.7475
  703MOL0     H94870   3.435   3.343   1.484 -0.2421 -1.6978 -0.0118
  703MOL0     H94871   3.441   3.026   1.192  0.1169  0.0668 -1.1623
  703MOL0     H94872   3.581   3.129   1.233 -0.3023 -1.1032 -1.6389
  703MOL0     H94873   3.596   2.951   1.438  2.6970 -1.0622  0.5129
  703MOL0     H94874   3.512   2.848   1.311  0.9480  0.5211  0.9295
  703MOL0     H94875   3.723   2.787   1.304  2.1152  0.3153 -0.4429
  703MOL0     H94876   3.783   2.950   1.304 -0.0827  1.7967 -2.9430
  703MOL0     H94877   3.658   2.977   1.059  2.2818 -0.2699 -2.1110
  703MOL0     H94878   3.791   2.874   1.075  1.0610  6.3714  1.5656
  703MOL0     H94879   3.479   2.786   1.053 -0.3102  1.3615 -1.2098
  703MOL0     H94880   3.581   2.685   1.132 -4.7292 -1.4155 -1.8321
  703MOL0     H94881   3.704   2.643   0.958  0.0453  0.8501  3.8991
  703MOL0     H94882   3.550   2.631   0.893  2.6600 -2.6327  0.5890
  703MOL0     H94883   3.745   2.853   0.826  0.1822 -1.2146  0.8575
  703MOL0     H94884   3.571   2.885   0.809 -2.5523 -2.5500  0.6631
  703MOL0     H94885   3.553   2.715   0.650 -0.6038  0.5623  1.5078
  703MOL0     H94886   3.714   2.643   0.683  1.5177  0.4064 -3.2941
  703MOL0     H94887   3.186   3.084   1.259 -0.4731 -0.6689 -0.0097
  703MOL0     H94888   3.007   3.264   1.241 -1.2912 -0.0002  0.8636
  703MOL0     H94889   2.980   3.713   1.296 -0.9381 -3.2961 -0.5719
  703MOL0     H94890   2.885   3.936   1.309 -0.4753 -0.9600 -0.4484
  703MOL0     H94891   2.098   5.686   0.595  2.7240 -3.1953  0.1080
  703MOL0     H94892   1.991   5.845   0.424 -0.0282 -0.1116 -0.8911
  703MOL0     H94893   1.719   5.840  -0.032  1.5185 -1.4397 -0.2428
  703MOL0     H94894   1.692   5.932  -0.238  0.8063  1.6342 -0.2680
  703MOL0     H94895   1.942   6.279  -0.352  1.0093 -3.8133  2.3350
  703MOL0     H94896   2.016   6.155  -0.444  0.6739 -0.0206 -0.6936
  703MOL0     H94897   1.746   6.286  -0.523 -0.4331 -0.8359  1.2452
  703MOL0     H94898   1.850   6.195  -0.626 -0.8219 -1.0406  1.8364
  703MOL0     H94899   2.020   6.401  -0.614  0.7938 -0.1719 -0.8224
  703MOL0     H94900   1.894   6.486  -0.524 -0.4046 -0.6334 -0.9233
  703MOL0     H94901   1.756   6.439  -0.739  0.7141  3.0320  2.8451
  703MOL0     H94902   1.886   6.340  -0.807  1.9727  1.2898 -0.3829
  703MOL0     H94903   1.989   6.745  -0.887  2.0097  0.9767  1.8755
  703MOL0     H94904   2.093   6.103  -0.238  0.2719 -1.7221 -0.1127
  703MOL0     H94905   2.115   6.032  -0.014 -0.5388  4.1308  0.0332
  704MOL0     O94906   7.730   2.380   1.258  0.4763 -0.3339  0.3893
  704MOL0     C94907   7.610   2.407   1.231  0.0478  0.4232 -1.0198
  704MOL0     O94908   7.545   2.378   1.118 -0.2573  0.2927 -1.1711
  704MOL0     C94909   7.617   2.321   1.023 -0.3514  0.3391  0.1044
  704MOL0     C94910   7.710   2.394   0.945 -0.2725 -0.3157 -0.5877
  704MOL0     C94911   7.783   2.332   0.852 -0.2023  0.2360 -0.4737
  704MOL0     C94912   7.769   2.190   0.834 -0.7974  0.0762  0.3151
  704MOL0     O94913   7.840   2.142   0.731  0.5760  0.1347 -0.3128
  704MOL0     C94914   7.867   1.997   0.726 -1.6552 -0.0533  0.2276
  704MOL0     C94915   7.906   1.937   0.589 -0.5426 -0.4015  0.0612
  704MOL0     C94916   8.030   2.010   0.550 -0.7971  0.1781 -0.4605
  704MOL0     C94917   8.091   1.985   0.416 -0.3783  0.3363 -0.5077
  704MOL0     C94918   8.224   2.054   0.406  0.0033  0.0404  0.3186
  704MOL0     C94919   8.273   2.061   0.255 -0.6901 -0.9566 -0.5058
  704MOL0     C94920   8.334   1.936   0.200  0.0793  0.6142 -0.2297
  704MOL0     C94921   8.378   1.951   0.052 -0.2394 -0.0740 -1.2237
  704MOL0     N94922   8.460   2.064   0.032 -1.1881 -0.3398  0.3068
  704MOL0     C94923   8.563   2.092   0.113 -0.3034  0.7773 -0.0990
  704MOL0     C94924   8.603   2.215   0.086 -0.3629  0.3155  0.8588
  704MOL0     C94925   8.719   2.288   0.144  0.4070  0.0242  0.4668
  704MOL0     C94926   8.661   2.376   0.248 -0.0911  0.0895 -0.6100
  704MOL0     C94927   8.760   2.501   0.293 -0.7927  0.2210 -0.1845
  704MOL0     C94928   8.904   2.470   0.329 -0.8761  0.0920  0.2258
  704MOL0     O94929   8.969   2.572   0.408  0.8375  0.5443  0.0488
  704MOL0     C94930   8.961   2.577   0.541  1.2341 -1.2691  0.0892
  704MOL0     C94931   8.893   2.487   0.625  0.4025 -0.3374  0.7162
  704MOL0     C94932   8.897   2.513   0.766  0.1333 -0.2003 -0.2504
  704MOL0     C94933   8.842   2.397   0.834 -0.5646  0.0785  0.3933
  704MOL0     C94934   8.926   2.637   0.825  0.4358 -0.2729  1.0718
  704MOL0     C94935   8.921   2.669   0.968 -1.0066  0.3063  0.2224
  704MOL0     O94936   8.943   2.795   0.998 -0.2425 -0.9868  0.1659
  704MOL0     C94937   8.931   2.818   1.126  1.4143  0.2343 -0.2525
  704MOL0     C94938   8.807   2.855   1.177  0.1385  0.2203 -0.4178
  704MOL0     C94939   8.779   2.868   1.313 -0.1083  0.1961  0.3725
  704MOL0     C94940   8.895   2.858   1.404 -0.3512 -0.0784 -0.5240
  704MOL0     O94941   8.864   2.865   1.537 -0.4296 -0.4562 -0.0144
  704MOL0     C94942   8.979   2.888   1.630  0.9050  0.2555  0.0448
  704MOL0     C94943   8.918   2.895   1.762  1.0821  0.7299  0.9831
  704MOL0     C94944   9.001   2.933   1.886 -0.5120  0.2128 -0.6988
  704MOL0     C94945   9.125   2.842   1.908 -0.3324 -0.7130 -0.2641
  704MOL0     C94946   9.179   2.846   2.050 -1.4801  0.3799 -1.0838
  704MOL0     C94947   9.281   2.731   2.083  0.1766 -0.1729 -0.4695
  704MOL0     C94948   9.227   2.587   2.071  0.4635  0.0983 -0.0084
  704MOL0     C94949   9.340   2.489   2.077  0.0895  0.2271  0.2061
  704MOL0    Cl94950   9.362   2.468   2.261  0.1657  0.0382 -0.5284
  704MOL0     C94951   9.022   2.848   1.349  0.0328  0.2010  0.4804
  704MOL0     C94952   9.039   2.829   1.208 -0.2653 -0.2938  0.2651
  704MOL0     O94953   8.915   2.577   1.051  0.0302  0.6118 -0.4571
  704MOL0     C94954   8.982   2.730   0.739  0.2268  0.4030 -0.3080
  704MOL0     C94955   9.005   2.700   0.596 -0.4109  0.0160 -0.2863
  704MOL0     N94956   8.521   2.258  -0.013  0.6445 -0.3941 -0.2469
  704MOL0     N94957   8.431   2.173  -0.043  0.1290 -0.1423 -0.4894
  704MOL0     C94958   7.688   2.116   0.916 -0.1810  0.2271  0.0451
  704MOL0     C94959   7.614   2.183   1.016 -0.1821 -0.0057  0.1964
  704MOL0     C94960   7.527   2.450   1.345  0.0101  0.9056 -0.6473
  704MOL0     C94961   7.389   2.426   1.353 -0.7828 -0.0985  0.2737
  704MOL0     C94962   7.309   2.478   1.454 -0.4352  0.5829 -0.5936
  704MOL0     C94963   7.361   2.560   1.552  0.6305 -0.2375  0.2073
  704MOL0     O94964   7.272   2.624   1.631  0.6332  0.3995 -0.6462
  704MOL0     C94965   7.316   2.749   1.692 -0.8481 -0.9413 -0.6744
  704MOL0     C94966   7.333   2.856   1.586  0.0342  0.9265  0.3923
  704MOL0     C94967   7.357   2.989   1.653  0.1243 -0.1740 -0.8056
  704MOL0     C94968   7.400   3.102   1.559  1.0427  0.2612  0.5322
  704MOL0     C94969   7.441   3.235   1.604 -0.3251  0.2325  0.1287
  704MOL0     C94970   7.478   3.341   1.659  0.6729  0.4285 -0.4617
  704MOL0     C94971   7.498   2.585   1.556 -0.1337  0.6424  0.7828
  704MOL0     C94972   7.580   2.538   1.445 -1.4792  0.7096  0.6641
  704MOL0     H94973   7.709   2.502   0.954 -0.3465 -0.2417 -1.3482
  704MOL0     H94974   7.845   2.392   0.786  0.0484 -0.1523 -0.5971
  704MOL0     H94975   7.953   1.975   0.790 -0.1996  0.8020 -1.3752
  704MOL0     H94976   7.774   1.946   0.756 -2.6621  2.1333  1.0997
  704MOL0     H94977   7.925   1.830   0.604  0.3359 -0.0481  1.6232
  704MOL0     H94978   7.826   1.961   0.519 -0.1748 -0.8654 -0.5329
  704MOL0     H94979   8.020   2.118   0.567 -2.3225  0.0598 -0.4234
  704MOL0     H94980   8.109   1.986   0.620 -0.5971  1.1395 -0.3370
  704MOL0     H94981   8.111   1.879   0.399  1.6449  0.0641  2.7932
  704MOL0     H94982   8.018   2.031   0.348 -0.2934  1.0400 -0.1388
  704MOL0     H94983   8.215   2.158   0.438 -0.6731 -0.2889  1.2613
  704MOL0     H94984   8.302   1.996   0.456  0.2042 -2.3062 -2.4491
  704MOL0     H94985   8.186   2.088   0.194 -1.5150  1.9158  1.7052
  704MOL0     H94986   8.340   2.146   0.240 -2.0121 -0.1700 -2.3727
  704MOL0     H94987   8.424   1.915   0.258  0.2265  0.3350 -0.5572
  704MOL0     H94988   8.268   1.850   0.218  0.0883  0.1483 -2.2057
  704MOL0     H94989   8.290   1.953  -0.013 -1.1372 -1.8750 -0.1725
  704MOL0     H94990   8.432   1.861   0.021  0.0119 -0.5164  0.3657
  704MOL0     H94991   8.606   2.033   0.194  3.8083  2.5638 -0.7168
  704MOL0     H94992   8.802   2.221   0.166  2.2219  1.8457 -0.5485
  704MOL0     H94993   8.771   2.341   0.064 -1.8927  0.5198 -0.7871
  704MOL0     H94994   8.646   2.325   0.344  1.9493 -2.3802 -1.5054
  704MOL0     H94995   8.563   2.410   0.215 -0.6238 -0.0534  0.7646
  704MOL0     H94996   8.713   2.555   0.376 -1.3826 -1.7813  0.8627
  704MOL0     H94997   8.758   2.574   0.212 -1.9250 -0.5759 -0.9042
  704MOL0     H94998   8.965   2.464   0.239 -2.4699 -1.7716 -0.8034
  704MOL0     H94999   8.908   2.377   0.386 -0.8288  1.0426  1.8605
  704MOL0     H95000   8.856   2.395   0.582  0.7464  0.0020 -0.3402
  704MOL0     H95001   8.924   2.366   0.900  1.5056 -0.6048 -2.3320
  704MOL0     H95002   8.767   2.427   0.908  2.0759  1.9209  2.4833
  704MOL0     H95003   8.798   2.325   0.765 -2.5159  2.0772 -0.5748
  704MOL0     H95004   8.725   2.860   1.105 -0.8516  1.5063  0.7666
  704MOL0     H95005   8.685   2.888   1.363  0.3433  1.8859  0.6088
  704MOL0     H95006   9.057   2.812   1.634  1.5547  0.9663  1.2130
  704MOL0     H95007   9.033   2.981   1.611  1.2675  1.1533  4.4422
  704MOL0     H95008   8.821   2.945   1.757 -0.1811 -1.7177 -2.0854
  704MOL0     H95009   8.884   2.794   1.787  0.2753  1.0742  1.3111
  704MOL0     H95010   8.943   2.922   1.979  2.0932  0.8618  1.0991
  704MOL0     H95011   9.020   3.041   1.882 -2.3041  0.6371  0.6484
  704MOL0     H95012   9.101   2.738   1.882 -0.2980 -0.1611 -2.6922
  704MOL0     H95013   9.208   2.864   1.840 -0.1042 -0.1706  0.1842
  704MOL0     H95014   9.111   2.856   2.135  1.1533  3.3029  0.8895
  704MOL0     H95015   9.243   2.933   2.067 -0.1764 -0.9390  1.0942
  704MOL0     H95016   9.371   2.749   2.023  0.0083  0.2565 -0.5915
  704MOL0     H95017   9.322   2.748   2.182  4.8720 -0.4005 -2.1207
  704MOL0     H95018   9.185   2.575   1.971  0.1948 -0.4338  0.1592
  704MOL0     H95019   9.158   2.562   2.153  2.1341 -1.1229  1.1085
  704MOL0     H95020   9.429   2.523   2.023  0.1359 -1.3751 -0.7909
  704MOL0     H95021   9.310   2.396   2.027  0.7665  0.4468 -0.6393
  704MOL0     H95022   9.119   2.858   1.395 -0.5246  3.7517  1.2232
  704MOL0     H95023   9.139   2.816   1.167 -0.0656  1.4688  0.1386
  704MOL0     H95024   9.022   2.827   0.767  2.6762 -0.8550  0.8567
  704MOL0     H95025   9.053   2.776   0.535  1.8234  0.7238  2.1345
  704MOL0     H95026   7.670   2.010   0.903 -0.4331  0.1830  0.7147
  704MOL0     H95027   7.553   2.119   1.079  2.2901 -1.7316  1.0019
  704MOL0     H95028   7.329   2.369   1.282 -1.1790  0.8163 -0.1399
  704MOL0     H95029   7.203   2.459   1.436 -0.2862  1.5799 -2.8617
  704MOL0     H95030   7.242   2.790   1.762 -1.0108  0.7616 -1.8062
  704MOL0     H95031   7.407   2.733   1.750 -0.8602 -2.7481 -1.0885
  704MOL0     H95032   7.237   2.863   1.535  1.2532  0.8145 -2.0649
  704MOL0     H95033   7.421   2.839   1.523  1.3853  1.4975  2.0412
  704MOL0     H95034   7.444   2.978   1.718 -0.7214  0.6189  0.4874
  704MOL0     H95035   7.279   3.030   1.717  1.6624  1.8510 -0.1275
  704MOL0     H95036   7.310   3.110   1.498  2.3738 -4.2451 -2.5358
  704MOL0     H95037   7.483   3.064   1.498  0.3374  0.7316 -0.7402
  704MOL0     H95038   7.517   3.425   1.712  1.6650 -0.5500  0.4193
  704MOL0     H95039   7.543   2.654   1.626 -0.3595  2.0871 -0.4555
  704MOL0     H95040   7.683   2.570   1.445 -0.2657 -2.7252  0.2974
  705MOL0     O95041   3.720  11.080  10.572 -0.2146  0.4869 -0.2801
  705MOL0     C95042   3.738  11.178  10.505  0.0580  0.1430  0.0053
  705MOL0     O95043   3.768  11.181  10.370 -0.1266  0.0814 -0.1847
  705MOL0     C95044   3.788  11.067  10.300 -0.8012 -0.3464  0.6053
  705MOL0     C95045   3.902  11.068  10.222  1.0535 -0.1287  0.3896
  705MOL0     C95046   3.924  10.963  10.137 -0.0128  0.1513  0.9617
  705MOL0     C95047   3.846  10.846  10.145 -0.0272 -0.0680  0.4399
  705MOL0     O95048   3.861  10.731  10.079 -0.1334  0.0323  0.1017
  705MOL0     C95049   3.976  10.696  10.007  0.5021  0.3605  0.5050
  705MOL0     C95050   3.987  10.544   9.993 -0.1715  0.3241  0.0178
  705MOL0     C95051   4.045  10.491   9.863  0.0690 -0.3189  0.2151
  705MOL0     C95052   4.189  10.454   9.877 -0.0377 -0.3393 -0.4258
  705MOL0     C95053   4.259  10.423   9.744  0.1910  0.3013 -0.4199
  705MOL0     C95054   4.196  10.309   9.670  0.0591  0.4800  0.5600
  705MOL0     C95055   4.254  10.301   9.524  0.6232 -0.0592 -0.7781
  705MOL0     C95056   4.372  10.202   9.507  0.7820  0.5809 -0.1051
  705MOL0     N95057   4.492  10.210   9.588 -0.2951  0.8395  1.3841
  705MOL0     C95058   4.600  10.308   9.587  0.2736  0.3456  0.0620
  705MOL0     C95059   4.683  10.271   9.687  0.1479 -1.0435 -0.0589
  705MOL0     C95060   4.819  10.334   9.712 -0.1582 -0.0243  0.2744
  705MOL0     C95061   4.812  10.485   9.757  0.2661 -0.2480  0.0569
  705MOL0     C95062   4.730  10.502   9.890 -0.0694  0.2644 -0.2178
  705MOL0     C95063   4.707  10.650   9.916 -0.1328  0.3849 -0.3897
  705MOL0     O95064   4.605  10.715   9.837  0.0979 -0.8794  0.0402
  705MOL0     C95065   4.541  10.831   9.877 -0.5119 -0.5782 -0.2079
  705MOL0     C95066   4.617  10.937   9.930 -1.2492  0.2828 -0.2702
  705MOL0     C95067   4.572  11.052   9.986  0.5932  0.2863 -0.1063
  705MOL0     C95068   4.658  11.159  10.024  0.0293 -0.1795  0.1385
  705MOL0     C95069   4.432  11.054  10.008 -0.8947 -0.3603  0.0089
  705MOL0     C95070   4.359  11.169  10.068 -0.3963  0.8303 -0.4048
  705MOL0     O95071   4.430  11.289  10.095  0.0709 -0.6259  1.3050
  705MOL0     C95072   4.404  11.374  10.202  1.0253 -1.0422  0.7727
  705MOL0     C95073   4.468  11.500  10.198  0.4919  0.7564 -1.2572
  705MOL0     C95074   4.438  11.600  10.295 -1.0807  1.2914 -0.3336
  705MOL0     C95075   4.352  11.589  10.401  0.6744  0.8949 -0.2443
  705MOL0     O95076   4.331  11.687  10.498 -0.0476 -0.0314 -0.0556
  705MOL0     C95077   4.227  11.667  10.589  0.0262  0.3347 -0.8252
  705MOL0     C95078   4.187  11.795  10.652  0.3664  0.9015 -0.6410
  705MOL0     C95079   4.298  11.855  10.735 -0.3710 -0.8858 -1.4364
  705MOL0     C95080   4.282  12.009  10.751  1.2352  0.3824 -0.4968
  705MOL0     C95081   4.366  12.071  10.858  0.5172 -0.4368 -0.8615
  705MOL0     C95082   4.331  12.219  10.850 -0.5896 -0.2914  1.2838
  705MOL0     C95083   4.412  12.305  10.936  0.2884  0.0135  0.3359
  705MOL0     C95084   4.362  12.444  10.952  0.7410 -0.3664 -0.4309
  705MOL0    Cl95085   4.216  12.452  11.060  0.4011  0.0051 -0.4136
  705MOL0     C95086   4.302  11.449  10.415 -0.4279 -0.3162 -0.2404
  705MOL0     C95087   4.313  11.359  10.309 -0.2967  0.0932 -0.0083
  705MOL0     O95088   4.238  11.160  10.096  0.5342 -0.6412  0.1559
  705MOL0     C95089   4.354  10.946   9.949  0.8481 -0.6346 -0.7403
  705MOL0     C95090   4.406  10.844   9.881  0.5081 -0.1974  0.2600
  705MOL0     N95091   4.623  10.160   9.751 -0.4057 -0.7461  0.3344
  705MOL0     N95092   4.512  10.127   9.690 -0.0986  0.4403 -0.4824
  705MOL0     C95093   3.736  10.852  10.229  0.1587  0.5885  0.3021
  705MOL0     C95094   3.707  10.959  10.298 -0.5246 -0.7415 -0.0447
  705MOL0     C95095   3.722  11.312  10.573 -0.2433  0.2934 -1.1210
  705MOL0     C95096   3.726  11.431  10.503  1.2654  0.3233  0.2160
  705MOL0     C95097   3.694  11.555  10.558  0.7518  0.3563  0.0127
  705MOL0     C95098   3.679  11.562  10.695 -0.8751  0.4458 -0.5816
  705MOL0     O95099   3.653  11.681  10.756  0.5402  0.4664  0.4608
  705MOL0     C95100   3.772  11.768  10.752 -0.7843  0.9810 -0.8568
  705MOL0     C95101   3.752  11.886  10.843  1.1821 -0.2976  0.1635
  705MOL0     C95102   3.869  11.978  10.834 -0.1040 -0.1901 -0.0146
  705MOL0     C95103   3.841  12.102  10.917 -1.0059 -0.6018  0.6048
  705MOL0     C95104   3.907  12.221  10.857  0.0644  0.4450 -0.3289
  705MOL0     C95105   3.978  12.303  10.809  0.6620 -0.8169  0.4450
  705MOL0     C95106   3.691  11.447  10.773  0.3629  1.2316  0.1930
  705MOL0     C95107   3.702  11.318  10.712 -0.7489  0.6961  1.1525
  705MOL0     H95108   3.960  11.159  10.213  0.6803  0.1002  0.2626
  705MOL0     H95109   4.011  10.967  10.071 -0.1251 -0.9454  0.7251
  705MOL0     H95110   3.949  10.731   9.907  1.8416 -0.5177 -0.1830
  705MOL0     H95111   4.067  10.740  10.051  1.5334 -1.3317  0.1293
  705MOL0     H95112   4.039  10.503  10.080 -2.1678  0.1540  1.1950
  705MOL0     H95113   3.887  10.500   9.995  0.7896 -2.1529  3.5382
  705MOL0     H95114   3.974  10.412   9.833 -1.5696  1.1232  0.1508
  705MOL0     H95115   4.037  10.576   9.795  0.1291 -0.5074 -0.0276
  705MOL0     H95116   4.236  10.548   9.907 -0.5118  0.2930 -1.5658
  705MOL0     H95117   4.208  10.369   9.942 -0.5051 -1.1124 -1.2749
  705MOL0     H95118   4.244  10.509   9.677  1.8273  1.4424  0.6173
  705MOL0     H95119   4.364  10.399   9.758  0.1746  0.4248 -0.0864
  705MOL0     H95120   4.220  10.214   9.719 -1.2732  0.3155  0.9219
  705MOL0     H95121   4.089  10.327   9.659  0.0346 -0.5127 -1.2172
  705MOL0     H95122   4.172  10.258   9.465  0.7224 -0.3490 -0.7042
  705MOL0     H95123   4.275  10.398   9.479  1.9551  0.6772  1.2749
  705MOL0     H95124   4.395  10.218   9.401 -2.2926 -0.6025 -1.0632
  705MOL0     H95125   4.336  10.099   9.519 -2.5520  1.2274 -2.9961
  705MOL0     H95126   4.614  10.394   9.523  2.3308 -0.2923 -0.4387
  705MOL0     H95127   4.883  10.287   9.787  0.9320  0.3373 -0.4098
  705MOL0     H95128   4.873  10.327   9.617 -0.2854  2.8536 -0.0901
  705MOL0     H95129   4.757  10.535   9.677 -0.9025 -1.5368  0.0169
  705MOL0     H95130   4.914  10.524   9.766  0.4959 -0.9210  0.4081
  705MOL0     H95131   4.783  10.460   9.975 -2.2654 -0.5927  0.7894
  705MOL0     H95132   4.634  10.450   9.885 -0.0963  0.2286  0.6896
  705MOL0     H95133   4.806  10.695   9.929 -0.2956  0.3736  1.0073
  705MOL0     H95134   4.659  10.652  10.014  0.1327 -0.5969 -0.2292
  705MOL0     H95135   4.723  10.935   9.904 -1.1953  0.6824 -0.0787
  705MOL0     H95136   4.619  11.243   9.966  1.0015 -1.9023 -3.2328
  705MOL0     H95137   4.655  11.173  10.133 -2.6443  1.3938 -0.0574
  705MOL0     H95138   4.764  11.156   9.998 -0.0787 -0.1154 -0.3161
  705MOL0     H95139   4.540  11.517  10.118  3.7901 -1.0427  1.0597
  705MOL0     H95140   4.484  11.699  10.296 -0.8892  1.3367  3.8304
  705MOL0     H95141   4.143  11.635  10.528  1.6623 -1.9019 -2.0296
  705MOL0     H95142   4.257  11.593  10.664  1.5172  2.5735  0.9534
  705MOL0     H95143   4.164  11.860  10.568  2.1056  0.2892 -1.6383
  705MOL0     H95144   4.094  11.783  10.708  0.3270 -0.8184 -1.0076
  705MOL0     H95145   4.396  11.821  10.699  1.1669  1.6441  0.0857
  705MOL0     H95146   4.291  11.820  10.838 -0.0948  2.4655 -0.1723
  705MOL0     H95147   4.300  12.050  10.652 -0.9273 -1.3849 -1.7384
  705MOL0     H95148   4.179  12.029  10.782  0.5398 -1.8646 -1.1167
  705MOL0     H95149   4.472  12.045  10.854  0.5973 -0.7237  1.6026
  705MOL0     H95150   4.324  12.029  10.950  1.4293 -3.0285 -1.5439
  705MOL0     H95151   4.334  12.256  10.747 -1.0775  0.6296  1.5883
  705MOL0     H95152   4.227  12.237  10.878 -0.7051  2.1857 -0.3653
  705MOL0     H95153   4.513  12.300  10.894  0.4182 -0.9508  0.7467
  705MOL0     H95154   4.415  12.258  11.034  3.5949  1.7932  1.2460
  705MOL0     H95155   4.334  12.480  10.853 -0.9774  0.1468  0.2242
  705MOL0     H95156   4.439  12.509  10.994  1.3747  1.5595 -4.1387
  705MOL0     H95157   4.242  11.427  10.503 -1.0117  0.2525 -0.4896
  705MOL0     H95158   4.262  11.263  10.305 -3.5946  1.7210 -4.2853
  705MOL0     H95159   4.246  10.941   9.954  0.6985  0.8691 -1.8169
  705MOL0     H95160   4.344  10.763   9.843  1.4663 -1.6628  1.6663
  705MOL0     H95161   3.665  10.770  10.235 -1.3590  1.9405  2.5552
  705MOL0     H95162   3.617  10.965  10.358 -0.8609 -0.5096 -0.5674
  705MOL0     H95163   3.744  11.413  10.397 -2.2812 -1.8958 -0.1672
  705MOL0     H95164   3.690  11.652  10.511  1.3506  1.0480  1.3515
  705MOL0     H95165   3.866  11.718  10.778  0.1447  1.9962 -2.1418
  705MOL0     H95166   3.785  11.794  10.647  4.0008 -0.0355 -0.7654
  705MOL0     H95167   3.749  11.857  10.949  1.7116  0.2643  0.3322
  705MOL0     H95168   3.654  11.930  10.821  1.2817 -0.1424  0.0293
  705MOL0     H95169   3.887  12.011  10.731  1.9588  1.1604  0.7323
  705MOL0     H95170   3.954  11.933  10.886 -1.9294 -0.0501  3.3252
  705MOL0     H95171   3.879  12.097  11.019 -1.0467  3.6153  1.0138
  705MOL0     H95172   3.733  12.115  10.927 -0.8378  0.1050  1.7679
  705MOL0     H95173   4.058  12.365  10.774 -0.6966  1.8181  1.7608
  705MOL0     H95174   3.665  11.461  10.878 -3.8503  2.3183 -0.8122
  705MOL0     H95175   3.688  11.227  10.769  0.3772 -1.3299 -1.5568
  706MOL0     O95176   2.488   7.042   1.088  0.2515 -0.4376 -0.7155
  706MOL0     C95177   2.426   7.009   1.189 -0.3541  0.7209 -0.0243
  706MOL0     O95178   2.282   6.991   1.201 -0.4203 -0.2023  0.0455
  706MOL0     C95179   2.199   7.026   1.095  0.1974 -0.4445 -0.8097
  706MOL0     C95180   2.069   7.055   1.134 -0.0683  0.0572 -0.1815
  706MOL0     C95181   1.967   7.076   1.043  0.2322 -1.4181 -0.6190
  706MOL0     C95182   1.995   7.076   0.902 -0.2040 -0.2887  0.4461
  706MOL0     O95183   1.897   7.102   0.820  0.4012 -0.3933 -0.1304
  706MOL0     C95184   1.898   7.060   0.674 -0.5316 -0.7484  0.8780
  706MOL0     C95185   1.808   7.154   0.590 -0.4235 -0.2295 -0.2716
  706MOL0     C95186   1.659   7.149   0.650 -0.9680  0.6479  0.0557
  706MOL0     C95187   1.556   7.144   0.538  0.7073  0.5106  0.1123
  706MOL0     C95188   1.405   7.175   0.576  0.5048  0.8063 -0.2511
  706MOL0     C95189   1.333   7.063   0.656 -0.5319 -0.1505 -0.3700
  706MOL0     C95190   1.199   7.112   0.705  0.0662  0.4928 -0.3284
  706MOL0     C95191   1.085   7.046   0.628  0.1101  0.2954  0.7663
  706MOL0     N95192   1.065   6.900   0.664  0.3129 -0.7393 -0.1234
  706MOL0     C95193   1.040   6.844   0.792 -0.7525  0.5138 -0.2464
  706MOL0     C95194   1.030   6.713   0.770  0.0537  0.9026  0.5378
  706MOL0     C95195   0.969   6.623   0.869 -0.0089 -0.4554  0.1249
  706MOL0     C95196   0.822   6.677   0.883 -0.9457  0.2277 -0.7424
  706MOL0     C95197   0.715   6.575   0.926 -0.0857  0.2979 -0.2288
  706MOL0     C95198   0.702   6.567   1.077 -0.2400  0.1457  0.3303
  706MOL0     O95199   0.628   6.457   1.104 -0.2204  0.2773 -0.8638
  706MOL0     C95200   0.644   6.401   1.228  0.1685  0.3034  0.2699
  706MOL0     C95201   0.697   6.468   1.340  0.7320 -0.3609 -0.5629
  706MOL0     C95202   0.698   6.405   1.469 -0.0148  0.6008 -0.2764
  706MOL0     C95203   0.778   6.464   1.580  0.1274 -0.9322  0.7468
  706MOL0     C95204   0.635   6.278   1.488 -0.0522  0.3418 -0.4012
  706MOL0     C95205   0.619   6.196   1.608  0.3992 -0.2615 -0.0189
  706MOL0     O95206   0.561   6.070   1.600 -0.0514 -0.4651  0.4189
  706MOL0     C95207   0.555   5.993   1.707  0.7819  0.0214 -0.6559
  706MOL0     C95208   0.427   5.956   1.758  0.2574 -0.3469 -0.6231
  706MOL0     C95209   0.421   5.858   1.858 -0.0903 -0.1857 -0.0350
  706MOL0     C95210   0.539   5.804   1.922 -0.5952 -0.2377 -0.1792
  706MOL0     O95211   0.527   5.710   2.027  0.7844 -0.2172 -0.1547
  706MOL0     C95212   0.424   5.608   2.035  0.4930 -0.0929 -0.7385
  706MOL0     C95213   0.468   5.507   2.136 -0.6315 -0.6257  0.3799
  706MOL0     C95214   0.363   5.408   2.190  0.3722  0.7179 -0.2069
  706MOL0     C95215   0.386   5.384   2.337  0.2028  0.3519 -0.5352
  706MOL0     C95216   0.336   5.497   2.425 -0.7074 -0.5015 -0.2139
  706MOL0     C95217   0.205   5.572   2.378 -1.0686  0.2236  0.1955
  706MOL0     C95218   0.073   5.490   2.370  0.1442 -0.3856  0.5765
  706MOL0     C95219  -0.031   5.555   2.284 -0.8779  0.2250 -0.3984
  706MOL0    Cl95220   0.024   5.616   2.119 -0.1408  0.4314 -0.1514
  706MOL0     C95221   0.666   5.845   1.877 -0.4265 -1.5202  1.3388
  706MOL0     C95222   0.672   5.940   1.772  0.3425  0.4072 -0.1915
  706MOL0     O95223   0.664   6.246   1.710  0.2275  0.0332  0.3468
  706MOL0     C95224   0.575   6.220   1.378 -0.4175 -0.5454 -0.2962
  706MOL0     C95225   0.585   6.278   1.251 -0.5349 -0.1244  0.3115
  706MOL0     N95226   1.064   6.692   0.632  1.1427  0.4413 -0.2960
  706MOL0     N95227   1.086   6.803   0.575  0.5656 -0.3205 -0.3661
  706MOL0     C95228   2.127   7.047   0.865 -0.3192  0.0484  0.8651
  706MOL0     C95229   2.224   7.014   0.957 -1.2469 -0.1309 -1.3456
  706MOL0     C95230   2.499   6.973   1.309 -0.5258  0.5150 -0.3994
  706MOL0     C95231   2.432   6.905   1.408  0.4727  0.2862 -0.9571
  706MOL0     C95232   2.497   6.867   1.532 -0.1977 -0.9508  0.9503
  706MOL0     C95233   2.629   6.893   1.546  0.5975 -0.1140 -0.8916
  706MOL0     O95234   2.687   6.848   1.663 -0.3166 -0.5715  0.2421
  706MOL0     C95235   2.787   6.937   1.707  0.0548  0.5610 -0.4156
  706MOL0     C95236   2.730   7.048   1.791  0.2252  0.6391  0.5420
  706MOL0     C95237   2.681   7.173   1.716 -0.2845 -0.5575 -0.8347
  706MOL0     C95238   2.531   7.203   1.694  0.3311 -0.3993  0.4282
  706MOL0     C95239   2.510   7.337   1.643  0.1385 -0.6452  1.0569
  706MOL0     C95240   2.495   7.446   1.584  0.2274 -0.7213 -0.2377
  706MOL0     C95241   2.696   6.958   1.442  0.0052  0.1644 -0.0640
  706MOL0     C95242   2.636   7.012   1.331 -0.0552 -0.5209  0.8027
  706MOL0     H95243   2.040   7.053   1.238 -0.7420 -0.6624 -0.3813
  706MOL0     H95244   1.865   7.096   1.074  0.4620 -1.8491  0.4770
  706MOL0     H95245   1.998   7.062   0.631  0.2467  0.7609  2.6502
  706MOL0     H95246   1.849   6.962   0.669 -2.7910  0.2306  2.2446
  706MOL0     H95247   1.850   7.255   0.591  3.6548 -1.6766  2.3528
  706MOL0     H95248   1.801   7.120   0.486 -2.0478 -0.7291 -0.0274
  706MOL0     H95249   1.652   7.069   0.724 -2.2501 -3.3735 -3.9493
  706MOL0     H95250   1.657   7.245   0.703  0.0476  2.0671 -2.2691
  706MOL0     H95251   1.600   7.223   0.476  3.5747  1.0578  2.5906
  706MOL0     H95252   1.561   7.049   0.483 -0.1522  0.3295  0.3307
  706MOL0     H95253   1.408   7.267   0.634  2.1952  0.2489  0.6129
  706MOL0     H95254   1.347   7.195   0.485 -1.3385 -1.5401  0.3063
  706MOL0     H95255   1.310   6.976   0.594 -5.0210 -2.2425  3.5924
  706MOL0     H95256   1.401   7.046   0.740 -1.1489  0.0550  0.1721
  706MOL0     H95257   1.197   7.078   0.809  1.0174  2.0296  0.2330
  706MOL0     H95258   1.196   7.221   0.712  1.2027  0.5406 -0.4093
  706MOL0     H95259   1.120   7.052   0.525 -2.3944 -0.6487 -0.2282
  706MOL0     H95260   0.988   7.095   0.642 -0.3883 -0.5528  0.3402
  706MOL0     H95261   1.019   6.895   0.886  0.5001  0.7338 -0.0769
  706MOL0     H95262   0.974   6.519   0.834  1.2111  0.3123 -2.1648
  706MOL0     H95263   1.035   6.633   0.955 -0.7551 -2.2971  0.9742
  706MOL0     H95264   0.798   6.697   0.778 -0.4783 -1.1503 -1.1421
  706MOL0     H95265   0.824   6.770   0.941  1.8661 -1.2840  1.9157
  706MOL0     H95266   0.737   6.472   0.894  0.1045 -0.3021  1.7161
  706MOL0     H95267   0.616   6.596   0.884  0.3660  1.4221 -0.7846
  706MOL0     H95268   0.662   6.660   1.119  5.2337  2.1924  1.8598
  706MOL0     H95269   0.804   6.563   1.117  0.2401  2.2968 -0.5000
  706MOL0     H95270   0.752   6.561   1.328  1.0064 -0.4233  0.1673
  706MOL0     H95271   0.708   6.501   1.655 -1.4797 -0.9010 -0.7195
  706MOL0     H95272   0.857   6.401   1.623  1.2440  0.6413  1.1282
  706MOL0     H95273   0.816   6.560   1.543 -1.3406  0.2960  2.2625
  706MOL0     H95274   0.340   6.011   1.725 -0.1301  1.8986  3.3982
  706MOL0     H95275   0.325   5.813   1.885 -0.0362 -2.7796 -3.5163
  706MOL0     H95276   0.334   5.658   2.071  3.1230  1.4478  5.0044
  706MOL0     H95277   0.409   5.557   1.940  0.9666  0.0597 -0.9015
  706MOL0     H95278   0.553   5.443   2.110 -0.7937 -0.0416 -1.7159
  706MOL0     H95279   0.500   5.565   2.223 -0.2659 -0.5702  0.2117
  706MOL0     H95280   0.355   5.319   2.127 -1.4690  1.7594 -1.5625
  706MOL0     H95281   0.263   5.451   2.180  1.0928  2.6857  0.5943
  706MOL0     H95282   0.326   5.294   2.353 -0.8459  0.9326 -1.1309
  706MOL0     H95283   0.490   5.365   2.367  1.2723  1.8145 -3.0232
  706MOL0     H95284   0.415   5.571   2.438 -0.4136 -0.6017 -1.3307
  706MOL0     H95285   0.315   5.464   2.527  1.1138  0.2781  0.4529
  706MOL0     H95286   0.185   5.651   2.451 -3.1636 -0.9580  1.0032
  706MOL0     H95287   0.217   5.625   2.283 -1.5199 -3.2243 -1.9630
  706MOL0     H95288   0.037   5.476   2.473 -3.5817  3.0742 -0.0064
  706MOL0     H95289   0.101   5.398   2.317  1.1354 -0.1704  0.7228
  706MOL0     H95290  -0.068   5.638   2.344  0.7908 -0.7012  2.0458
  706MOL0     H95291  -0.098   5.470   2.271 -2.6674  1.3675  0.9865
  706MOL0     H95292   0.756   5.812   1.928 -0.0361 -1.4013  0.7385
  706MOL0     H95293   0.776   5.953   1.743 -0.3527  0.2231 -3.0396
  706MOL0     H95294   0.538   6.119   1.390 -2.3076  0.2323  0.9461
  706MOL0     H95295   0.525   6.231   1.174  0.8852 -2.1625  0.3552
  706MOL0     H95296   2.152   7.060   0.760 -0.2174 -1.3549  0.6912
  706MOL0     H95297   2.318   6.963   0.938 -1.2816 -1.2378  1.1218
  706MOL0     H95298   2.330   6.870   1.401  1.3987 -3.3530  1.1843
  706MOL0     H95299   2.433   6.820   1.606 -1.6381 -2.2018 -0.9834
  706MOL0     H95300   2.857   6.876   1.764  0.0007  0.8196 -0.0691
  706MOL0     H95301   2.853   6.984   1.633  2.9368  1.0371  2.2351
  706MOL0     H95302   2.810   7.079   1.858  1.7008  0.8075 -1.2032
  706MOL0     H95303   2.648   7.008   1.852  0.4452  0.8597  0.9846
  706MOL0     H95304   2.718   7.169   1.613  0.2714  0.6200 -0.6975
  706MOL0     H95305   2.736   7.253   1.767  1.5391 -0.1344 -3.2889
  706MOL0     H95306   2.471   7.182   1.784  0.3799 -0.7996  0.3654
  706MOL0     H95307   2.509   7.143   1.606  1.7929 -0.2873 -0.0234
  706MOL0     H95308   2.485   7.533   1.523 -4.6497 -1.5458 -0.9669
  706MOL0     H95309   2.804   6.957   1.432 -0.1863  0.5342 -2.6133
  706MOL0     H95310   2.697   7.046   1.248 -0.9142  1.3376  0.8914
  707MOL0     O95311   4.369   9.252   6.783  0.8451 -0.0477  1.3026
  707MOL0     C95312   4.448   9.319   6.707  1.0282  0.3547 -0.5226
  707MOL0     O95313   4.556   9.274   6.640  0.1419  0.8344 -0.2051
  707MOL0     C95314   4.573   9.137   6.657 -1.0286  0.2872  0.3391
  707MOL0     C95315   4.528   9.056   6.559 -0.5603  1.1158 -1.1539
  707MOL0     C95316   4.512   8.915   6.585  0.2635 -0.3436 -0.5006
  707MOL0     C95317   4.551   8.866   6.717  0.4277 -0.0843  0.3320
  707MOL0     O95318   4.551   8.732   6.753  0.6594 -0.4340 -0.5215
  707MOL0     C95319   4.574   8.647   6.642  0.3343 -0.9835  0.0280
  707MOL0     C95320   4.638   8.507   6.662 -0.7297  0.7774  0.6407
  707MOL0     C95321   4.714   8.450   6.545  0.2251  0.0132  0.0619
  707MOL0     C95322   4.639   8.327   6.471  0.7334  0.3899  1.1767
  707MOL0     C95323   4.618   8.203   6.563 -0.3831 -0.0244  0.0796
  707MOL0     C95324   4.603   8.068   6.501 -0.4900  0.2029 -0.2906
  707MOL0     C95325   4.636   7.947   6.589  0.2114 -1.2796  0.0498
  707MOL0     C95326   4.583   7.957   6.732 -0.5754 -0.1733 -0.3104
  707MOL0     N95327   4.598   7.827   6.788 -0.4862  0.7857 -0.2191
  707MOL0     C95328   4.708   7.773   6.842 -0.7236 -0.2877  0.2973
  707MOL0     C95329   4.665   7.654   6.904 -0.0254 -1.2634  0.9118
  707MOL0     C95330   4.758   7.550   6.973 -0.8295 -0.3097 -0.2352
  707MOL0     C95331   4.738   7.414   6.908  0.3354 -0.4610  0.1315
  707MOL0     C95332   4.800   7.403   6.765  0.5133  0.2373 -1.4181
  707MOL0     C95333   4.693   7.449   6.666  0.4844 -0.2870  0.4876
  707MOL0     O95334   4.720   7.420   6.526 -0.0596  0.4547 -0.7345
  707MOL0     C95335   4.633   7.479   6.435 -0.5262  0.5923  0.2780
  707MOL0     C95336   4.520   7.559   6.461 -0.4946  0.2569  0.2452
  707MOL0     C95337   4.451   7.633   6.366 -0.8052 -0.3813  0.5820
  707MOL0     C95338   4.344   7.719   6.419  0.3806  0.8230  0.5538
  707MOL0     C95339   4.487   7.628   6.235  0.0006 -0.3177  0.7245
  707MOL0     C95340   4.420   7.703   6.123  0.1981 -0.3919  0.6326
  707MOL0     O95341   4.294   7.746   6.144  0.1882  0.4247  0.0083
  707MOL0     C95342   4.223   7.789   6.040 -0.7753 -2.0222  0.9577
  707MOL0     C95343   4.120   7.719   5.988 -1.0566  0.1864 -0.2719
  707MOL0     C95344   4.050   7.780   5.889 -0.7317  0.0426  0.5027
  707MOL0     C95345   4.093   7.900   5.825 -0.5889  0.0114  0.3378
  707MOL0     O95346   4.019   7.953   5.722  0.2024  0.2022  0.3900
  707MOL0     C95347   4.033   7.886   5.599  0.3390 -0.0053 -0.1059
  707MOL0     C95348   3.917   7.904   5.498  0.2581 -1.0975  0.2550
  707MOL0     C95349   3.903   8.051   5.449  0.0405  0.4886  0.1443
  707MOL0     C95350   3.834   8.040   5.315 -0.8535 -0.8278  0.2598
  707MOL0     C95351   3.793   8.185   5.266  0.0950 -0.5908 -0.4733
  707MOL0     C95352   3.910   8.269   5.227  0.8329  0.2142  0.9042
  707MOL0     C95353   3.865   8.414   5.203 -0.2207  0.3660 -0.5856
  707MOL0     C95354   3.953   8.487   5.100 -0.6419 -0.1311 -0.4587
  707MOL0    Cl95355   3.886   8.424   4.941 -0.5031 -0.0315 -0.1041
  707MOL0     C95356   4.183   7.980   5.882 -0.4560 -0.4098 -0.7296
  707MOL0     C95357   4.256   7.927   5.996 -0.5137 -0.1022  0.7923
  707MOL0     O95358   4.486   7.739   6.020 -0.3139  0.1255 -0.3390
  707MOL0     C95359   4.590   7.535   6.198 -0.7363  0.0312 -0.0459
  707MOL0     C95360   4.663   7.461   6.295  0.3422  0.2196 -0.9648
  707MOL0     N95361   4.529   7.643   6.860 -0.8831  1.0031  0.0158
  707MOL0     N95362   4.501   7.736   6.780 -0.5744 -0.3078  0.4013
  707MOL0     C95363   4.601   8.954   6.813 -0.5281 -0.5769 -0.8807
  707MOL0     C95364   4.608   9.087   6.784  0.3254 -0.3042 -0.2978
  707MOL0     C95365   4.401   9.455   6.681  0.2941 -0.3725 -0.6020
  707MOL0     C95366   4.489   9.548   6.633  0.1187 -0.8728 -0.2249
  707MOL0     C95367   4.440   9.675   6.600 -0.7650 -0.3545  0.7867
  707MOL0     C95368   4.309   9.716   6.614  0.4258  0.0096 -0.4908
  707MOL0     O95369   4.253   9.829   6.577  0.8401  0.3618  0.0184
  707MOL0     C95370   4.327   9.950   6.589 -0.1600 -0.0787  0.2542
  707MOL0     C95371   4.321  10.011   6.728 -0.2979 -0.4824 -0.0661
  707MOL0     C95372   4.411   9.937   6.823  0.0364  1.0058  0.0197
  707MOL0     C95373   4.426  10.016   6.948  1.0524  0.1102 -0.4323
  707MOL0     C95374   4.542   9.970   7.030  0.2472  0.4317  0.0083
  707MOL0     C95375   4.641   9.955   7.108  0.5426 -0.1311 -0.1564
  707MOL0     C95376   4.213   9.621   6.664  0.1958  0.0166 -0.4993
  707MOL0     C95377   4.260   9.487   6.698 -0.5135 -0.4567  0.1170
  707MOL0     H95378   4.511   9.106   6.465  2.7735  2.8677 -0.9484
  707MOL0     H95379   4.474   8.847   6.509 -0.4739 -0.7888  0.2428
  707MOL0     H95380   4.478   8.635   6.590  0.0185  0.9509  0.0934
  707MOL0     H95381   4.638   8.696   6.569 -0.4172  1.2813  0.8136
  707MOL0     H95382   4.714   8.520   6.740  0.3880 -0.4210 -0.2198
  707MOL0     H95383   4.558   8.440   6.696  0.1065  0.7476  2.6787
  707MOL0     H95384   4.747   8.533   6.482 -0.7421 -0.4361 -1.0851
  707MOL0     H95385   4.809   8.415   6.585  1.3940  1.4509 -1.3502
  707MOL0     H95386   4.541   8.357   6.433 -0.2270 -0.1095  3.1225
  707MOL0     H95387   4.689   8.300   6.378 -1.3540  2.6762 -0.7369
  707MOL0     H95388   4.709   8.195   6.623 -0.5475 -0.8661  0.2218
  707MOL0     H95389   4.544   8.229   6.640 -1.8268  3.2998 -2.1924
  707MOL0     H95390   4.501   8.067   6.460 -0.0027  0.9822 -1.5745
  707MOL0     H95391   4.662   8.050   6.411 -2.1836 -2.3555 -1.0149
  707MOL0     H95392   4.602   7.857   6.537  0.6355 -1.7993  0.6566
  707MOL0     H95393   4.745   7.955   6.594  0.3859 -2.5433 -1.0442
  707MOL0     H95394   4.481   7.997   6.723  0.4350  2.1238 -2.4965
  707MOL0     H95395   4.644   8.020   6.797  0.8395  0.1652 -1.8943
  707MOL0     H95396   4.802   7.827   6.854 -0.8169 -0.1045  0.2166
  707MOL0     H95397   4.859   7.589   6.963 -0.6638  0.3387  3.0785
  707MOL0     H95398   4.731   7.535   7.077  1.5296  1.0745  0.6563
  707MOL0     H95399   4.634   7.382   6.914  1.0916 -3.0179  0.7889
  707MOL0     H95400   4.802   7.342   6.960  3.1386 -0.5427 -3.0564
  707MOL0     H95401   4.819   7.297   6.743 -3.4212 -0.6412 -1.4336
  707MOL0     H95402   4.898   7.451   6.768  1.1936 -1.0153 -2.5432
  707MOL0     H95403   4.696   7.558   6.673 -1.2639  0.2000 -3.5909
  707MOL0     H95404   4.597   7.404   6.692 -0.5448  1.8714  0.6264
  707MOL0     H95405   4.491   7.574   6.565  1.0891  0.8638  0.6404
  707MOL0     H95406   4.336   7.705   6.527 -0.8812  1.2338  0.5280
  707MOL0     H95407   4.364   7.825   6.398  0.4194  0.5402 -0.9894
  707MOL0     H95408   4.247   7.687   6.380  1.2152 -0.7865 -0.2977
  707MOL0     H95409   4.085   7.620   6.015 -2.6359  1.4757  2.9686
  707MOL0     H95410   3.964   7.733   5.842  0.9320 -1.2271 -1.4801
  707MOL0     H95411   4.124   7.919   5.548 -0.5621 -0.1980 -1.9003
  707MOL0     H95412   4.036   7.780   5.626 -0.5606  0.1235  0.5588
  707MOL0     H95413   3.927   7.840   5.410  1.0005 -0.8578  0.1567
  707MOL0     H95414   3.820   7.874   5.538 -1.7728  2.1599 -1.7512
  707MOL0     H95415   4.002   8.095   5.431  0.0426  0.6177  0.4697
  707MOL0     H95416   3.840   8.105   5.520  1.5707  2.1799  0.2940
  707MOL0     H95417   3.903   7.997   5.243  0.0149 -3.2857  2.4074
  707MOL0     H95418   3.745   7.976   5.326 -0.2002 -1.7983 -0.0159
  707MOL0     H95419   3.751   8.244   5.348 -0.5353  0.0574 -1.2554
  707MOL0     H95420   3.719   8.175   5.186 -1.3575  1.9975  0.4247
  707MOL0     H95421   3.997   8.260   5.292  1.0049  3.1038  1.2119
  707MOL0     H95422   3.931   8.222   5.130 -2.9581  1.4666 -0.7095
  707MOL0     H95423   3.876   8.448   5.307  1.2055 -0.4967 -0.4252
  707MOL0     H95424   3.759   8.423   5.178 -1.0617 -1.7268  1.7386
  707MOL0     H95425   4.060   8.468   5.112 -0.3774  1.7954  0.6228
  707MOL0     H95426   3.939   8.595   5.109 -1.2474  0.0515 -2.8841
  707MOL0     H95427   4.189   8.080   5.842 -2.0466  0.2506  0.5778
  707MOL0     H95428   4.331   7.977   6.056 -0.3687 -0.9955  1.3511
  707MOL0     H95429   4.621   7.513   6.096  3.0980  0.3146  0.8839
  707MOL0     H95430   4.746   7.396   6.270  1.5763  1.2774  0.2088
  707MOL0     H95431   4.627   8.920   6.913 -0.8379  0.5375 -0.4078
  707MOL0     H95432   4.628   9.158   6.863  1.1558  0.9885 -1.6304
  707MOL0     H95433   4.589   9.538   6.591  0.6768  1.2879  0.4286
  707MOL0     H95434   4.518   9.730   6.550  0.8429 -3.6807 -0.6595
  707MOL0     H95435   4.432   9.945   6.561 -0.7962 -1.6770 -2.1305
  707MOL0     H95436   4.278  10.027   6.528  4.2550  1.8177 -1.3090
  707MOL0     H95437   4.217  10.011   6.760 -0.0617 -0.3472  0.7125
  707MOL0     H95438   4.355  10.115   6.726 -2.3569  0.2297 -0.1887
  707MOL0     H95439   4.504   9.910   6.774 -0.5365  1.7204 -1.5117
  707MOL0     H95440   4.370   9.836   6.836 -0.9576  1.4038  0.1257
  707MOL0     H95441   4.341   9.996   7.013  2.2359  1.7887  1.7913
  707MOL0     H95442   4.423  10.123   6.923 -3.9684  0.0464 -1.1849
  707MOL0     H95443   4.718   9.939   7.181  0.8356  0.6562 -0.2828
  707MOL0     H95444   4.106   9.641   6.665 -0.2886 -2.0102  2.2360
  707MOL0     H95445   4.188   9.418   6.741 -3.4174  1.8986 -0.6806
  708MOL0     O95446   4.656  10.250  11.035  0.2627  0.5880 -0.0959
  708MOL0     C95447   4.565  10.306  11.104 -0.0969  0.0380 -0.1338
  708MOL0     O95448   4.595  10.388  11.221 -0.1488  0.3691  0.4911
  708MOL0     C95449   4.726  10.432  11.233 -0.2004  0.5235 -0.6234
  708MOL0     C95450   4.816  10.339  11.284  0.6521  0.6394  0.5159
  708MOL0     C95451   4.948  10.365  11.296 -0.5888 -0.4478  0.3705
  708MOL0     C95452   4.987  10.500  11.276 -0.1256 -1.4359  0.4953
  708MOL0     O95453   5.115  10.550  11.303  0.4212  0.6828  0.0367
  708MOL0     C95454   5.211  10.452  11.344 -0.7462  1.0970 -0.7723
  708MOL0     C95455   5.341  10.519  11.405 -0.7585  0.7063  0.3915
  708MOL0     C95456   5.435  10.411  11.466 -0.6323  0.1902  0.1403
  708MOL0     C95457   5.474  10.289  11.371 -0.3609 -0.4928 -0.1276
  708MOL0     C95458   5.544  10.334  11.236 -0.8265 -0.6143 -0.1952
  708MOL0     C95459   5.698  10.365  11.269  0.4704  0.0745  0.4489
  708MOL0     C95460   5.747  10.436  11.138  0.2737 -1.4898 -1.2887
  708MOL0     C95461   5.900  10.460  11.153 -0.0000  0.2655  0.2767
  708MOL0     N95462   5.958  10.530  11.040  0.5093 -0.3440 -0.2503
  708MOL0     C95463   5.985  10.492  10.906  0.0543 -0.1983 -0.2614
  708MOL0     C95464   6.056  10.593  10.849  0.4546  0.8720  0.7707
  708MOL0     C95465   6.104  10.596  10.702 -0.0295  0.3191  0.6641
  708MOL0     C95466   6.259  10.595  10.676 -1.1013  0.0387  0.5918
  708MOL0     C95467   6.314  10.734  10.718 -1.1740  0.7935  0.1117
  708MOL0     C95468   6.294  10.850  10.611 -0.5161  1.6912  0.0001
  708MOL0     O95469   6.385  10.958  10.631 -0.0747  0.3282  0.0917
  708MOL0     C95470   6.452  11.023  10.529 -0.2447 -0.5280 -0.1298
  708MOL0     C95471   6.529  11.131  10.575 -0.4073  0.1254 -0.1495
  708MOL0     C95472   6.611  11.213  10.495 -0.3205 -0.4740 -0.5389
  708MOL0     C95473   6.706  11.303  10.563 -0.1155 -0.1779  0.2345
  708MOL0     C95474   6.604  11.190  10.356 -1.3535  0.3346 -0.7731
  708MOL0     C95475   6.680  11.265  10.249  0.6496 -0.3422 -0.6795
  708MOL0     O95476   6.724  11.387  10.279  0.1843  1.2366 -0.5171
  708MOL0     C95477   6.844  11.432  10.221 -0.1289 -0.3207  0.4355
  708MOL0     C95478   6.866  11.570  10.202 -0.3293 -0.5678 -0.7682
  708MOL0     C95479   6.982  11.623  10.150 -0.2702  0.5757  0.2990
  708MOL0     C95480   7.081  11.538  10.095 -0.1596 -0.4494 -0.4098
  708MOL0     O95481   7.193  11.586  10.038 -0.5478 -0.0700 -0.4740
  708MOL0     C95482   7.261  11.701  10.095  0.1180  0.1505 -0.3391
  708MOL0     C95483   7.390  11.744  10.024  0.0845  0.0884  0.2601
  708MOL0     C95484   7.350  11.793   9.875  0.2088  0.0770  0.0200
  708MOL0     C95485   7.475  11.842   9.805 -0.1173  0.9567 -0.4796
  708MOL0     C95486   7.582  11.732   9.787 -0.0392  0.1640  0.1391
  708MOL0     C95487   7.711  11.791   9.727  0.7354 -0.0623 -0.3060
  708MOL0     C95488   7.791  11.877   9.830  0.5681  0.0818 -0.8752
  708MOL0     C95489   7.929  11.908   9.784 -0.7768 -1.2275 -1.4776
  708MOL0    Cl95490   8.004  11.984   9.926  0.1730  0.3334 -0.2252
  708MOL0     C95491   7.060  11.401  10.102  0.2518  0.6852 -0.8905
  708MOL0     C95492   6.949  11.347  10.169 -0.0150 -0.1640 -0.1651
  708MOL0     O95493   6.706  11.205  10.150 -0.2392  0.6407 -0.2721
  708MOL0     C95494   6.512  11.087  10.311 -0.5249  0.0259  0.1166
  708MOL0     C95495   6.436  11.013  10.398 -0.4170 -0.0680 -0.8515
  708MOL0     N95496   6.063  10.697  10.944  0.8754 -0.0967 -0.4670
  708MOL0     N95497   5.998  10.661  11.052  0.3457  0.3285 -0.4726
  708MOL0     C95498   4.897  10.589  11.231 -0.2645 -0.4383  0.0518
  708MOL0     C95499   4.765  10.559  11.212 -0.1090  1.0554 -1.0623
  708MOL0     C95500   4.427  10.275  11.076 -0.8351 -0.7080  0.6380
  708MOL0     C95501   4.394  10.204  10.953  0.7737  0.1649  0.1839
  708MOL0     C95502   4.254  10.187  10.929  0.3386  0.0381 -0.9549
  708MOL0     C95503   4.151  10.239  11.013  0.2454 -0.2141 -0.1503
  708MOL0     O95504   4.021  10.228  10.968 -0.0555  0.2833  0.2359
  708MOL0     C95505   3.918  10.310  11.020 -0.5510 -0.6497 -0.1536
  708MOL0     C95506   3.813  10.337  10.920 -0.1882 -0.0260 -0.1509
  708MOL0     C95507   3.741  10.211  10.884  0.0448 -0.0745  0.6613
  708MOL0     C95508   3.617  10.247  10.810 -0.1609  0.3862  0.0864
  708MOL0     C95509   3.593  10.136  10.712  0.3832 -0.1963  0.4846
  708MOL0     C95510   3.582  10.050  10.627 -0.2558  0.2619 -0.2923
  708MOL0     C95511   4.190  10.304  11.129 -0.2677 -1.0111  0.4650
  708MOL0     C95512   4.329  10.324  11.157  0.0514  0.0610 -0.1471
  708MOL0     H95513   4.777  10.242  11.314 -1.4993  1.4781  0.6082
  708MOL0     H95514   5.017  10.286  11.324  2.8068  1.7069 -1.2135
  708MOL0     H95515   5.167  10.380  11.414  1.1915  0.4597 -0.1384
  708MOL0     H95516   5.241  10.382  11.265 -1.7571 -1.3871  0.9088
  708MOL0     H95517   5.388  10.571  11.321  0.9196 -2.7396 -1.0157
  708MOL0     H95518   5.310  10.590  11.481 -1.1199  1.1072 -0.1209
  708MOL0     H95519   5.528  10.464  11.491  0.1302 -0.2766 -1.5941
  708MOL0     H95520   5.395  10.362  11.556 -1.0485 -0.6976 -0.5152
  708MOL0     H95521   5.542  10.215  11.413 -2.5619 -2.1373  0.7196
  708MOL0     H95522   5.383  10.236  11.340 -0.0678 -1.7545  1.0708
  708MOL0     H95523   5.534  10.266  11.151 -2.1051  0.4824 -0.9565
  708MOL0     H95524   5.502  10.431  11.209  1.1212  1.3630  3.2034
  708MOL0     H95525   5.704  10.421  11.364 -0.3714  1.7189 -0.4195
  708MOL0     H95526   5.742  10.266  11.280 -1.2307 -0.9143 -1.1073
  708MOL0     H95527   5.733  10.363  11.058  2.7094 -3.6115  0.0608
  708MOL0     H95528   5.687  10.528  11.136 -0.5486 -1.8327  2.0132
  708MOL0     H95529   5.968  10.375  11.163  1.7297  1.7437  2.1560
  708MOL0     H95530   5.930  10.522  11.239  3.7281  3.0905 -2.7016
  708MOL0     H95531   5.971  10.389  10.875  3.2901 -0.5379 -0.9245
  708MOL0     H95532   6.068  10.499  10.669  1.0695 -0.5960  2.0333
  708MOL0     H95533   6.054  10.670  10.640  0.1077 -1.0040 -1.0896
  708MOL0     H95534   6.279  10.569  10.572  1.5595 -0.7171  1.2258
  708MOL0     H95535   6.306  10.510  10.727  0.2122  0.5778  0.3099
  708MOL0     H95536   6.421  10.718  10.731 -0.7081  3.1385 -0.3629
  708MOL0     H95537   6.276  10.755  10.818 -0.2358 -2.2825  1.2210
  708MOL0     H95538   6.190  10.884  10.623 -0.1495  3.0866 -0.4873
  708MOL0     H95539   6.309  10.807  10.511  2.4983  1.4013  0.4894
  708MOL0     H95540   6.527  11.140  10.683  0.4997 -4.2195  0.4251
  708MOL0     H95541   6.735  11.282  10.666 -1.1817  0.3824  0.6631
  708MOL0     H95542   6.801  11.320  10.512 -0.1427 -0.1422  0.1957
  708MOL0     H95543   6.655  11.400  10.565  2.4299  1.3003 -1.3715
  708MOL0     H95544   6.791  11.638  10.242  1.5991  0.2182  1.7385
  708MOL0     H95545   7.009  11.728  10.152  2.9666 -0.0225 -2.1392
  708MOL0     H95546   7.185  11.779  10.086  1.5311  1.4895 -1.2338
  708MOL0     H95547   7.277  11.688  10.203  0.0281 -2.7836 -0.5956
  708MOL0     H95548   7.436  11.826  10.081 -1.9363  0.6854  1.1200
  708MOL0     H95549   7.447  11.652  10.009 -1.9163 -1.2576  0.5202
  708MOL0     H95550   7.273  11.869   9.890 -0.7757 -0.7096 -0.8136
  708MOL0     H95551   7.303  11.711   9.819  3.3657 -1.1731 -0.9882
  708MOL0     H95552   7.438  11.868   9.706  2.1356  4.2275 -0.6455
  708MOL0     H95553   7.514  11.930   9.859  1.3977  0.1791 -0.2371
  708MOL0     H95554   7.545  11.650   9.725 -0.4627 -0.2824  0.9707
  708MOL0     H95555   7.620  11.690   9.880 -0.1042  1.2730  0.6870
  708MOL0     H95556   7.773  11.703   9.708 -1.0246 -1.0169 -2.0014
  708MOL0     H95557   7.686  11.843   9.634  0.2782  1.5314  0.6730
  708MOL0     H95558   7.808  11.822   9.923  3.7287  0.7359 -0.9581
  708MOL0     H95559   7.733  11.967   9.852 -3.8919 -2.7493  0.2560
  708MOL0     H95560   7.927  11.982   9.703  2.0532  2.8711  1.7937
  708MOL0     H95561   7.986  11.822   9.747  1.5604 -0.6246  0.4727
  708MOL0     H95562   7.130  11.342  10.044  1.5977  0.0345  1.2876
  708MOL0     H95563   6.921  11.243  10.178 -1.6957  0.2737 -0.0835
  708MOL0     H95564   6.497  11.070  10.205 -0.6704  0.6225  0.0344
  708MOL0     H95565   6.370  10.934  10.364  0.4581 -0.9399 -0.5412
  708MOL0     H95566   4.921  10.693  11.211  1.9430  0.0103  4.0204
  708MOL0     H95567   4.696  10.641  11.198  0.5083  1.7525 -0.1983
  708MOL0     H95568   4.476  10.158  10.897  1.9471  2.5399 -0.1643
  708MOL0     H95569   4.230  10.120  10.847  0.1081 -0.3650 -0.5611
  708MOL0     H95570   3.895  10.279  11.122 -1.6967  1.2311  0.2113
  708MOL0     H95571   3.961  10.409  11.038  0.5171 -0.9281 -1.0834
  708MOL0     H95572   3.869  10.370  10.831  1.9158  0.0218  1.1288
  708MOL0     H95573   3.740  10.413  10.949 -2.4516 -2.3598  0.6455
  708MOL0     H95574   3.724  10.158  10.978  3.4297 -3.5262 -0.4292
  708MOL0     H95575   3.805  10.150  10.820  1.4425 -1.3167  3.0799
  708MOL0     H95576   3.624  10.341  10.755  2.4839  0.8373  1.0429
  708MOL0     H95577   3.534  10.265  10.879 -0.6291 -0.1914 -0.3175
  708MOL0     H95578   3.582   9.976  10.550  1.0771  1.0300 -1.0706
  708MOL0     H95579   4.113  10.328  11.201  1.1083 -3.3938  2.9536
  708MOL0     H95580   4.363  10.378  11.245  3.7083 -0.9745 -0.7404
  709MOL0     O95581   9.127   4.019   6.171 -0.3566  0.3719 -0.2623
  709MOL0     C95582   9.049   4.111   6.202 -0.2090 -0.0672  1.1715
  709MOL0     O95583   9.076   4.242   6.201 -0.0188 -0.7244 -0.2169
  709MOL0     C95584   9.203   4.282   6.189  0.2192  0.5354  1.5255
  709MOL0     C95585   9.303   4.235   6.280  0.3379 -0.0831  0.2229
  709MOL0     C95586   9.436   4.248   6.253 -1.5514 -0.0390  0.7208
  709MOL0     C95587   9.468   4.340   6.147 -1.0328 -0.2239  0.0433
  709MOL0     O95588   9.596   4.370   6.116 -0.5476 -0.7930  0.2773
  709MOL0     C95589   9.646   4.479   6.196  0.0548 -0.2672 -0.0930
  709MOL0     C95590   9.608   4.625   6.156  0.4534 -0.1660  0.2521
  709MOL0     C95591   9.692   4.724   6.228  0.1312  1.1642 -0.8232
  709MOL0     C95592   9.684   4.710   6.385  0.6325  0.0243 -1.2279
  709MOL0     C95593   9.767   4.805   6.464 -0.7911  0.1979  0.4555
  709MOL0     C95594   9.687   4.936   6.476 -0.3998 -0.0648 -0.4163
  709MOL0     C95595   9.766   5.045   6.562 -0.1082 -0.3072  0.3943
  709MOL0     C95596   9.665   5.144   6.623 -0.1228 -0.0177  0.0239
  709MOL0     N95597   9.586   5.204   6.506 -1.3586  0.5272 -0.0378
  709MOL0     C95598   9.457   5.222   6.501  0.2233 -0.1138  0.6950
  709MOL0     C95599   9.434   5.285   6.382  0.0494 -0.2430  0.8816
  709MOL0     C95600   9.297   5.298   6.316  0.1752  0.2756  0.5088
  709MOL0     C95601   9.221   5.166   6.327 -0.0251  0.6522  0.7833
  709MOL0     C95602   9.282   5.057   6.231  0.9095  0.7420 -0.7089
  709MOL0     C95603   9.228   4.912   6.274 -0.1516 -0.2481  0.0659
  709MOL0     O95604   9.268   4.866   6.412 -0.1233  0.1120 -0.4461
  709MOL0     C95605   9.242   4.735   6.462 -1.1946  0.4356  0.5706
  709MOL0     C95606   9.291   4.702   6.587 -1.2642  0.2245  0.3217
  709MOL0     C95607   9.276   4.580   6.645 -1.2679  0.7089 -0.3074
  709MOL0     C95608   9.316   4.557   6.787 -0.3863 -0.3771 -1.5163
  709MOL0     C95609   9.206   4.484   6.569  0.0792  0.5915  0.0020
  709MOL0     C95610   9.175   4.350   6.616  0.2203  0.8327 -1.0638
  709MOL0     O95611   9.088   4.270   6.546  0.7861 -0.3995  0.0106
  709MOL0     C95612   9.005   4.187   6.615  0.6529 -0.2031  0.3186
  709MOL0     C95613   8.912   4.248   6.716  0.3798 -0.1795 -0.0609
  709MOL0     C95614   8.803   4.169   6.765 -0.7492  0.3096 -0.5908
  709MOL0     C95615   8.787   4.035   6.724  0.2693  0.5776 -0.6552
  709MOL0     O95616   8.691   3.938   6.770 -0.7511  0.0318  0.0608
  709MOL0     C95617   8.612   3.965   6.888  0.4149  0.3429  0.4000
  709MOL0     C95618   8.604   3.835   6.976  0.5440  0.1751  0.2927
  709MOL0     C95619   8.490   3.738   6.927  0.2124 -0.0795  0.0776
  709MOL0     C95620   8.511   3.677   6.784  0.2030  0.2461 -0.2065
  709MOL0     C95621   8.414   3.564   6.755  1.0089 -0.1484 -1.1809
  709MOL0     C95622   8.386   3.535   6.613 -0.3889 -0.0839  0.2854
  709MOL0     C95623   8.502   3.539   6.513  0.2249 -0.0133  0.5188
  709MOL0     C95624   8.468   3.477   6.370 -0.9610  0.5470 -0.3476
  709MOL0    Cl95625   8.375   3.578   6.254 -0.1655 -0.1570  0.3323
  709MOL0     C95626   8.872   3.994   6.616  0.5450  0.3636 -0.1888
  709MOL0     C95627   8.981   4.062   6.558 -1.0217 -0.6512 -0.1662
  709MOL0     O95628   9.232   4.309   6.717  0.5799  0.0295  0.2900
  709MOL0     C95629   9.152   4.518   6.442 -0.0943 -0.1375 -0.7022
  709MOL0     C95630   9.178   4.643   6.391 -0.5861  0.0358 -0.6331
  709MOL0     N95631   9.558   5.307   6.324  1.0955 -0.1049 -0.5895
  709MOL0     N95632   9.650   5.260   6.400  0.0211  0.1259 -0.1939
  709MOL0     C95633   9.375   4.396   6.067  1.4755 -0.1267  0.0368
  709MOL0     C95634   9.239   4.372   6.086  0.1647 -1.3142 -0.9240
  709MOL0     C95635   8.915   4.081   6.230 -0.0396 -0.3727  0.9911
  709MOL0     C95636   8.839   4.176   6.301  0.9952 -0.2829 -0.6962
  709MOL0     C95637   8.706   4.147   6.321  0.0797  0.4860  0.6754
  709MOL0     C95638   8.642   4.037   6.268  0.0737 -0.4462  0.5804
  709MOL0     O95639   8.512   4.008   6.290  0.5815 -0.9163  0.6905
  709MOL0     C95640   8.483   3.939   6.406 -0.1825  1.4131 -0.6742
  709MOL0     C95641   8.346   3.982   6.471  0.0414 -0.5941  0.3436
  709MOL0     C95642   8.214   3.934   6.405 -0.5479 -0.5535 -0.6668
  709MOL0     C95643   8.097   3.988   6.484  0.0696  0.2158 -0.7118
  709MOL0     C95644   8.079   3.922   6.609 -0.6298  0.3968 -0.0556
  709MOL0     C95645   8.063   3.874   6.715 -0.0363  0.0496  0.2280
  709MOL0     C95646   8.715   3.956   6.185  0.6100  0.0436  0.1652
  709MOL0     C95647   8.850   3.979   6.160 -1.0128 -0.5880 -0.5151
  709MOL0     H95648   9.279   4.162   6.357  1.7547 -2.0720 -1.1155
  709MOL0     H95649   9.518   4.197   6.302  0.4554  0.1574 -2.1850
  709MOL0     H95650   9.608   4.474   6.298  0.5227  1.9906  0.2333
  709MOL0     H95651   9.755   4.467   6.203  0.1429  1.4359  3.2403
  709MOL0     H95652   9.612   4.644   6.048 -1.3287  0.4495  0.2567
  709MOL0     H95653   9.506   4.634   6.195  0.8392 -0.2998  1.3366
  709MOL0     H95654   9.797   4.705   6.204  1.2136 -1.2374  4.5049
  709MOL0     H95655   9.660   4.827   6.207  1.1113  2.0578  1.6504
  709MOL0     H95656   9.582   4.721   6.423  0.8120  0.2334 -0.7918
  709MOL0     H95657   9.702   4.608   6.421 -2.2724 -0.4405 -0.7766
  709MOL0     H95658   9.775   4.758   6.562 -1.7817  1.4415  1.1541
  709MOL0     H95659   9.871   4.818   6.431 -0.3339  0.8561  2.0674
  709MOL0     H95660   9.673   4.972   6.373  2.0789 -2.6182 -1.7798
  709MOL0     H95661   9.594   4.925   6.531  1.4265  2.1107  3.5387
  709MOL0     H95662   9.830   5.004   6.641 -0.6249 -0.1696  0.8953
  709MOL0     H95663   9.835   5.107   6.506  0.6678  2.2136  3.7756
  709MOL0     H95664   9.722   5.218   6.679 -0.4978 -0.1639  0.6047
  709MOL0     H95665   9.596   5.090   6.689 -1.5539 -1.1693 -2.2720
  709MOL0     H95666   9.376   5.194   6.566  0.2697  0.5615  1.0570
  709MOL0     H95667   9.246   5.372   6.378  1.3856  0.6750  1.0493
  709MOL0     H95668   9.311   5.339   6.215  1.4955 -1.8453 -0.2384
  709MOL0     H95669   9.123   5.190   6.284 -0.0026  1.9354  1.3916
  709MOL0     H95670   9.201   5.145   6.432 -3.5580  4.2168  1.0852
  709MOL0     H95671   9.390   5.054   6.249  1.0147  2.0136 -1.0388
  709MOL0     H95672   9.264   5.076   6.125 -3.2374 -0.2073 -0.3620
  709MOL0     H95673   9.265   4.846   6.195 -0.3185  2.2057 -2.1894
  709MOL0     H95674   9.119   4.907   6.262  0.0974 -0.9900 -2.4453
  709MOL0     H95675   9.343   4.781   6.641 -0.3613 -1.3662  1.8677
  709MOL0     H95676   9.382   4.471   6.801  0.9618  0.8572  0.1020
  709MOL0     H95677   9.363   4.640   6.840 -6.7705  0.6679  3.6814
  709MOL0     H95678   9.224   4.534   6.841  1.3404 -2.2103  0.8813
  709MOL0     H95679   8.901   4.354   6.741  0.2813  0.0534 -1.0521
  709MOL0     H95680   8.739   4.214   6.841  1.4517 -0.8170  2.1007
  709MOL0     H95681   8.671   4.037   6.945 -0.7627  1.6126  0.0621
  709MOL0     H95682   8.515   4.004   6.856  0.5087 -2.9335 -5.1305
  709MOL0     H95683   8.703   3.789   6.975  0.0617 -0.9295 -1.9288
  709MOL0     H95684   8.585   3.859   7.081 -3.7748 -1.5527  0.1162
  709MOL0     H95685   8.392   3.784   6.933  0.2370  0.0241 -0.3256
  709MOL0     H95686   8.505   3.652   6.993 -0.7064 -1.2924 -1.2431
  709MOL0     H95687   8.487   3.763   6.721  0.7375 -1.3682 -2.7467
  709MOL0     H95688   8.617   3.652   6.777  0.0377 -0.8935  0.9559
  709MOL0     H95689   8.316   3.574   6.802  0.5223 -2.2894 -1.6619
  709MOL0     H95690   8.448   3.475   6.807 -2.3709 -1.3056 -0.7237
  709MOL0     H95691   8.344   3.434   6.611 -1.9006  0.4735  1.7191
  709MOL0     H95692   8.310   3.606   6.579  0.9809  1.6279  0.6356
  709MOL0     H95693   8.583   3.480   6.557 -0.4400 -0.2308  1.4870
  709MOL0     H95694   8.516   3.647   6.499 -2.3367  0.2370 -0.7252
  709MOL0     H95695   8.423   3.379   6.388 -1.0870  0.7943  0.7261
  709MOL0     H95696   8.567   3.457   6.329 -0.2544 -3.0769  2.5232
  709MOL0     H95697   8.846   3.894   6.581  0.0397  0.4287 -0.0038
  709MOL0     H95698   9.045   4.025   6.479 -2.3680 -1.8209 -0.7294
  709MOL0     H95699   9.083   4.465   6.378 -0.9008  0.3779 -0.2675
  709MOL0     H95700   9.135   4.668   6.294 -2.0630  0.6813  0.1574
  709MOL0     H95701   9.405   4.473   5.997 -0.0045 -1.3756 -2.0687
  709MOL0     H95702   9.174   4.426   6.019  0.1232  2.2764  1.7378
  709MOL0     H95703   8.893   4.254   6.353 -0.0213 -2.4588  4.1520
  709MOL0     H95704   8.650   4.216   6.383 -2.0604  1.3785 -2.0468
  709MOL0     H95705   8.486   3.833   6.379  3.7648  1.2123 -0.0983
  709MOL0     H95706   8.556   3.958   6.485 -0.6833 -0.3430  0.2612
  709MOL0     H95707   8.345   4.092   6.471 -3.0868 -0.5120 -1.8596
  709MOL0     H95708   8.344   3.957   6.577 -2.1765  0.9356  0.7360
  709MOL0     H95709   8.224   3.826   6.420  1.9153 -0.1753  1.0189
  709MOL0     H95710   8.201   3.961   6.300 -2.0075  2.0360  0.0819
  709MOL0     H95711   8.012   3.940   6.436 -0.2058  0.7468 -0.7602
  709MOL0     H95712   8.076   4.095   6.495 -0.2789 -0.1279  3.1633
  709MOL0     H95713   8.056   3.817   6.806 -2.0064 -0.5317 -0.2485
  709MOL0     H95714   8.677   3.868   6.134  1.9855 -2.0079  2.4445
  709MOL0     H95715   8.900   3.909   6.094 -1.4454 -0.8955 -0.5134
  710MOL0     O95716   6.322   9.021   6.367 -0.9191  0.5218 -1.3816
  710MOL0     C95717   6.434   8.989   6.329  0.1346  0.0258  0.2129
  710MOL0     O95718   6.521   8.906   6.409 -1.2649 -0.0173  0.1811
  710MOL0     C95719   6.482   8.882   6.535  0.6353 -0.0436 -0.0707
  710MOL0     C95720   6.455   8.752   6.574 -0.0626 -0.0019 -0.4514
  710MOL0     C95721   6.417   8.727   6.712  0.4155 -0.1625  0.2721
  710MOL0     C95722   6.394   8.833   6.802 -0.5988 -0.3158 -0.3861
  710MOL0     O95723   6.327   8.816   6.916  0.1254  0.0591 -0.4478
  710MOL0     C95724   6.337   8.692   6.975 -0.7038 -0.3003  0.2205
  710MOL0     C95725   6.246   8.689   7.096 -0.1176 -0.3842 -0.4990
  710MOL0     C95726   6.260   8.558   7.183  0.6871  0.1169  0.3586
  710MOL0     C95727   6.340   8.575   7.312 -0.1664 -0.5929 -0.0215
  710MOL0     C95728   6.328   8.461   7.403 -0.3986 -0.1485 -0.5235
  710MOL0     C95729   6.392   8.339   7.348 -0.7417  0.1915  0.1615
  710MOL0     C95730   6.546   8.338   7.364 -1.0629 -0.1083 -0.2142
  710MOL0     C95731   6.611   8.259   7.257 -0.5191  0.0734 -0.1204
  710MOL0     N95732   6.609   8.336   7.136 -0.0570 -0.4146 -0.2503
  710MOL0     C95733   6.676   8.456   7.118 -0.0916 -0.2223 -0.3461
  710MOL0     C95734   6.646   8.500   6.986 -0.1366 -0.8490  0.7374
  710MOL0     C95735   6.724   8.602   6.907 -0.4848  0.2530 -0.2743
  710MOL0     C95736   6.797   8.708   6.981 -0.0293  0.6761  0.2749
  710MOL0     C95737   6.697   8.819   7.024  0.2496 -0.1682 -0.2438
  710MOL0     C95738   6.780   8.923   7.094 -0.1982 -0.4613  0.9728
  710MOL0     O95739   6.704   9.023   7.151 -0.7077  0.1388  0.0694
  710MOL0     C95740   6.646   9.124   7.078  0.3452 -0.7522 -0.4705
  710MOL0     C95741   6.552   9.205   7.146  0.6546 -0.4198  0.1483
  710MOL0     C95742   6.455   9.274   7.074  1.0740 -0.1393 -0.7434
  710MOL0     C95743   6.336   9.329   7.158 -0.2567  0.0033  0.3518
  710MOL0     C95744   6.463   9.289   6.936  0.1007 -0.1213  0.8641
  710MOL0     C95745   6.365   9.364   6.845 -0.5330 -0.1283 -0.4085
  710MOL0     O95746   6.386   9.347   6.712  0.0169  0.4036  0.1559
  710MOL0     C95747   6.360   9.443   6.616  0.0630  0.1757 -0.7886
  710MOL0     C95748   6.377   9.579   6.644 -0.7658  0.8691  0.6397
  710MOL0     C95749   6.355   9.674   6.543 -0.6871  0.0684 -0.6390
  710MOL0     C95750   6.307   9.643   6.408 -0.3640 -0.2737 -1.2002
  710MOL0     O95751   6.282   9.746   6.309  0.5897  0.3571 -0.4803
  710MOL0     C95752   6.220   9.709   6.187  0.0123  0.1567  1.1014
  710MOL0     C95753   6.174   9.837   6.124  0.0168  0.3385  0.8328
  710MOL0     C95754   6.287   9.935   6.069 -0.7221  1.1882 -0.5730
  710MOL0     C95755   6.262  10.003   5.931 -0.2071 -0.6358 -0.6132
  710MOL0     C95756   6.367  10.098   5.895 -0.0837 -0.1550 -0.0151
  710MOL0     C95757   6.458  10.042   5.779 -0.3530 -0.0664 -0.7345
  710MOL0     C95758   6.558  10.142   5.726  0.3029  0.1031  0.2475
  710MOL0     C95759   6.500  10.283   5.674 -0.3101 -0.7635 -0.0699
  710MOL0    Cl95760   6.634  10.347   5.573 -0.0133  0.0083  0.5904
  710MOL0     C95761   6.301   9.502   6.387  0.7091 -0.1677  0.2816
  710MOL0     C95762   6.327   9.405   6.486  0.9377 -0.1482 -0.1144
  710MOL0     O95763   6.276   9.439   6.898  0.1755  0.2712 -0.1858
  710MOL0     C95764   6.570   9.222   6.871 -0.6799  0.4577  0.0568
  710MOL0     C95765   6.655   9.137   6.936  0.0407 -0.3879  0.2364
  710MOL0     N95766   6.567   8.401   6.932 -0.4761 -0.8752 -0.5908
  710MOL0     N95767   6.548   8.307   7.015 -0.2543  0.6895  0.5129
  710MOL0     C95768   6.403   8.960   6.745 -0.9965  0.5944  0.0945
  710MOL0     C95769   6.460   8.988   6.619  0.1549  0.6832 -0.4249
  710MOL0     C95770   6.456   8.996   6.186 -0.3683 -0.1059  0.4069
  710MOL0     C95771   6.553   8.923   6.122 -0.5023  0.6455  0.0394
  710MOL0     C95772   6.590   8.946   5.987 -0.9445 -0.0154 -0.4377
  710MOL0     C95773   6.524   9.042   5.916 -0.1156 -0.3894  0.2980
  710MOL0     O95774   6.547   9.050   5.784  0.6706 -0.4197  0.3592
  710MOL0     C95775   6.494   8.942   5.700 -1.2878 -0.7388  0.1182
  710MOL0     C95776   6.340   8.962   5.672 -1.0955 -0.4241  0.9118
  710MOL0     C95777   6.302   9.105   5.630 -0.3515  0.3317 -0.3239
  710MOL0     C95778   6.156   9.131   5.584 -0.7095  0.9135 -1.4956
  710MOL0     C95779   6.144   9.060   5.453 -0.0945 -0.0065  0.2185
  710MOL0     C95780   6.144   8.998   5.350 -0.6728 -0.0221  0.0691
  710MOL0     C95781   6.427   9.124   5.975  0.5800 -0.6735 -0.5411
  710MOL0     C95782   6.384   9.093   6.105 -0.1065 -0.1007 -0.3951
  710MOL0     H95783   6.463   8.670   6.503 -0.0167 -0.7110  0.3619
  710MOL0     H95784   6.402   8.623   6.739  1.2022 -0.3326  0.1028
  710MOL0     H95785   6.307   8.609   6.910 -1.6903 -0.0384  0.3328
  710MOL0     H95786   6.443   8.689   7.003 -0.6863 -1.2745  0.0826
  710MOL0     H95787   6.267   8.777   7.157 -1.6575  0.2058 -0.7825
  710MOL0     H95788   6.143   8.687   7.059 -1.5458 -1.8772  3.1574
  710MOL0     H95789   6.165   8.513   7.213  0.4689 -0.2800 -0.8795
  710MOL0     H95790   6.312   8.486   7.120  1.9243 -0.7300  2.2493
  710MOL0     H95791   6.444   8.583   7.279 -0.2488 -1.9036 -0.6916
  710MOL0     H95792   6.302   8.659   7.370 -0.9949 -1.8808  1.3818
  710MOL0     H95793   6.381   8.486   7.495  0.4446 -0.1403 -0.9996
  710MOL0     H95794   6.221   8.444   7.422 -1.0022  1.6102 -2.0362
  710MOL0     H95795   6.337   8.258   7.397 -3.4756  2.6929  1.5883
  710MOL0     H95796   6.366   8.333   7.241 -1.4787  1.9218  0.2076
  710MOL0     H95797   6.585   8.439   7.375 -0.0828 -0.5936  1.1531
  710MOL0     H95798   6.578   8.287   7.456 -0.5161 -0.7272 -0.7354
  710MOL0     H95799   6.559   8.164   7.240 -2.3369  0.6993  1.5475
  710MOL0     H95800   6.715   8.241   7.285 -0.5589  0.3486  0.2048
  710MOL0     H95801   6.757   8.490   7.182 -1.0586  3.4809 -0.9072
  710MOL0     H95802   6.799   8.556   6.842 -0.3008 -0.0947  0.1801
  710MOL0     H95803   6.658   8.650   6.834 -2.4421 -0.7032  0.7931
  710MOL0     H95804   6.873   8.746   6.912  0.1311  3.6877  1.9575
  710MOL0     H95805   6.854   8.671   7.066  1.1524 -0.8772 -1.1328
  710MOL0     H95806   6.619   8.783   7.092  0.7671  1.2239  1.1362
  710MOL0     H95807   6.647   8.856   6.935 -1.6214 -0.2157  0.7289
  710MOL0     H95808   6.838   8.962   7.009  0.2185 -1.8475  0.6008
  710MOL0     H95809   6.853   8.889   7.168 -0.2251 -0.7674  0.8603
  710MOL0     H95810   6.538   9.193   7.253 -0.4841 -0.5825 -0.0068
  710MOL0     H95811   6.351   9.310   7.264  2.6138 -1.0429 -0.1452
  710MOL0     H95812   6.311   9.434   7.141 -1.3480 -0.2871  0.0797
  710MOL0     H95813   6.244   9.279   7.125 -0.8240  1.8457 -1.0660
  710MOL0     H95814   6.395   9.627   6.740  0.6944  2.9963 -0.6065
  710MOL0     H95815   6.373   9.780   6.558 -0.7366 -0.1614  1.2602
  710MOL0     H95816   6.288   9.653   6.123 -2.7925 -0.0571 -1.9005
  710MOL0     H95817   6.132   9.646   6.196 -1.9421  1.9161 -3.0007
  710MOL0     H95818   6.112   9.804   6.040 -0.3026  1.4725  0.6012
  710MOL0     H95819   6.108   9.891   6.192 -4.0912 -1.8439 -1.0987
  710MOL0     H95820   6.372   9.868   6.053  0.7932  3.0093 -0.5169
  710MOL0     H95821   6.312  10.009   6.145  0.1152  1.2325 -0.8759
  710MOL0     H95822   6.260   9.918   5.863  1.6968 -1.8937  0.8061
  710MOL0     H95823   6.164  10.051   5.917  0.3993  1.5850  1.9409
  710MOL0     H95824   6.427  10.120   5.984 -2.9312 -0.4004  2.1231
  710MOL0     H95825   6.317  10.191   5.868  0.9116  0.7611  1.1967
  710MOL0     H95826   6.517   9.962   5.824 -1.2445 -0.7365 -0.7151
  710MOL0     H95827   6.400   9.991   5.702  0.2187  0.0984 -1.2809
  710MOL0     H95828   6.600  10.084   5.643 -1.2122 -0.0614 -0.4466
  710MOL0     H95829   6.644  10.160   5.791  1.4730  0.4641 -1.3370
  710MOL0     H95830   6.465  10.350   5.753  0.4175  0.4870 -0.7875
  710MOL0     H95831   6.417  10.265   5.605 -1.6873 -0.4940  1.4516
  710MOL0     H95832   6.271   9.459   6.292 -1.2136 -0.7914  1.1320
  710MOL0     H95833   6.330   9.298   6.467  1.5330  0.2005 -2.0980
  710MOL0     H95834   6.574   9.224   6.763  0.7150 -2.7332 -0.0602
  710MOL0     H95835   6.725   9.092   6.866  3.7445  0.9079  2.7936
  710MOL0     H95836   6.363   9.036   6.812 -0.9898 -0.0277  0.8249
  710MOL0     H95837   6.469   9.092   6.590 -0.0498  0.8322  0.0328
  710MOL0     H95838   6.622   8.854   6.170 -3.0426 -3.6203 -1.8263
  710MOL0     H95839   6.669   8.885   5.943 -2.8683 -2.0047 -1.2991
  710MOL0     H95840   6.550   8.938   5.606 -2.0939  1.1669 -0.4957
  710MOL0     H95841   6.507   8.851   5.759  1.4830 -0.3679  0.2407
  710MOL0     H95842   6.284   8.936   5.763 -0.2857  1.2868  1.9523
  710MOL0     H95843   6.309   8.898   5.589  0.0797  2.0804 -1.6257
  710MOL0     H95844   6.362   9.132   5.543  1.0555  1.5282  0.9568
  710MOL0     H95845   6.325   9.176   5.710  2.7872 -0.6535 -0.2326
  710MOL0     H95846   6.143   9.239   5.577 -1.0676  1.0449  0.6417
  710MOL0     H95847   6.089   9.102   5.665  1.4791  0.3172  0.2020
  710MOL0     H95848   6.145   8.924   5.272 -1.5455  0.9760 -0.9211
  710MOL0     H95849   6.379   9.195   5.909  2.7805  0.0521 -1.4696
  710MOL0     H95850   6.308   9.155   6.152  1.5638  0.7136  1.3305
  711MOL0     O95851   1.682   1.573   0.754  0.2655 -0.7982 -0.5274
  711MOL0     C95852   1.766   1.502   0.696  0.8487  0.4021  0.4505
  711MOL0     O95853   1.733   1.414   0.596  0.7271 -0.1258  0.5485
  711MOL0     C95854   1.613   1.437   0.532  0.4268 -0.7978 -0.5798
  711MOL0     C95855   1.496   1.362   0.565  0.0427 -0.4328 -0.6775
  711MOL0     C95856   1.379   1.382   0.492 -0.7077  0.0039 -0.3328
  711MOL0     C95857   1.367   1.482   0.400  0.6425  0.7527 -0.5783
  711MOL0     O95858   1.240   1.522   0.349 -0.0781  0.4158 -0.6737
  711MOL0     C95859   1.209   1.480   0.227 -0.1220 -0.1017 -0.2750
  711MOL0     C95860   1.094   1.554   0.176 -1.0720  0.0792  0.3866
  711MOL0     C95861   1.117   1.703   0.172  0.8756  0.4243 -1.5874
  711MOL0     C95862   1.025   1.763   0.061 -1.1501 -0.1260  0.5118
  711MOL0     C95863   1.009   1.921   0.096  0.9236 -0.1359  0.0284
  711MOL0     C95864   1.125   2.015   0.062  0.0267  0.6601  0.1797
  711MOL0     C95865   1.066   2.160   0.064 -0.4026 -0.7284  0.8051
  711MOL0     C95866   1.171   2.261   0.106  0.9126 -0.6327 -0.1518
  711MOL0     N95867   1.117   2.394   0.058  0.0909  0.1523  0.2811
  711MOL0     C95868   1.142   2.457  -0.059 -0.4914 -1.4996  0.6994
  711MOL0     C95869   1.059   2.561  -0.074  0.6982 -0.1784  0.1646
  711MOL0     C95870   1.053   2.666  -0.180  0.9768 -0.2207  0.5320
  711MOL0     C95871   0.988   2.800  -0.129  0.4882 -0.1686  0.7064
  711MOL0     C95872   0.914   2.873  -0.245  0.1100 -0.0160 -0.8175
  711MOL0     C95873   0.840   3.004  -0.202  0.2753  0.4720  0.5896
  711MOL0     O95874   0.762   3.049  -0.312 -0.1508 -0.3218 -0.1021
  711MOL0     C95875   0.721   3.176  -0.301  0.6931 -0.8047 -0.1927
  711MOL0     C95876   0.673   3.228  -0.177  1.1596  0.1719 -1.5971
  711MOL0     C95877   0.627   3.363  -0.163 -0.6625  0.4197 -0.1415
  711MOL0     C95878   0.593   3.415  -0.023  0.1735  0.0261 -0.5642
  711MOL0     C95879   0.623   3.443  -0.279  0.6447 -0.6041  0.9053
  711MOL0     C95880   0.579   3.583  -0.285  1.0067 -0.4439  0.4617
  711MOL0     O95881   0.629   3.657  -0.383  0.5159 -0.7146  0.0043
  711MOL0     C95882   0.613   3.792  -0.370 -0.6335 -0.3445 -0.2106
  711MOL0     C95883   0.507   3.852  -0.428  0.4152 -0.2970 -0.2782
  711MOL0     C95884   0.513   3.991  -0.439  0.0866  0.2279  0.6544
  711MOL0     C95885   0.618   4.069  -0.399  0.3253  0.0015  0.1078
  711MOL0     O95886   0.619   4.208  -0.421 -0.0351  0.1470 -0.4077
  711MOL0     C95887   0.586   4.253  -0.554 -0.1439 -0.2565 -0.2636
  711MOL0     C95888   0.581   4.402  -0.562 -0.4924 -0.4381  0.1569
  711MOL0     C95889   0.711   4.469  -0.530 -0.2176 -1.2552 -0.0758
  711MOL0     C95890   0.712   4.626  -0.548  0.0430  0.3101 -0.9050
  711MOL0     C95891   0.863   4.669  -0.520 -0.1295 -0.1738 -0.0787
  711MOL0     C95892   0.892   4.804  -0.597  0.7317  1.2772  0.5936
  711MOL0     C95893   0.805   4.933  -0.560 -0.3450  0.3253 -0.7849
  711MOL0     C95894   0.809   5.024  -0.682  0.9849  0.8165  0.8002
  711MOL0    Cl95895   0.665   4.974  -0.779 -0.1254  0.0334  0.0151
  711MOL0     C95896   0.721   4.009  -0.334 -0.2813 -0.3819  0.7125
  711MOL0     C95897   0.723   3.867  -0.318  0.1867 -0.1976 -1.2489
  711MOL0     O95898   0.511   3.624  -0.194  0.4482 -0.5718  0.0613
  711MOL0     C95899   0.665   3.384  -0.405 -0.0152 -0.2691 -0.4321
  711MOL0     C95900   0.714   3.252  -0.417 -0.5262 -0.3385  0.0970
  711MOL0     N95901   0.980   2.560   0.043  0.8265 -0.0385 -0.2063
  711MOL0     N95902   1.016   2.461   0.119  0.4034 -0.1315 -0.1830
  711MOL0     C95903   1.480   1.558   0.376 -0.5189  0.4278  0.3953
  711MOL0     C95904   1.608   1.531   0.430  0.6838  0.3698 -0.8285
  711MOL0     C95905   1.900   1.515   0.742 -0.0017 -0.3212 -1.2672
  711MOL0     C95906   1.993   1.424   0.698 -0.2007  0.6494 -0.8033
  711MOL0     C95907   2.128   1.424   0.743 -0.6264  0.1082 -0.0506
  711MOL0     C95908   2.166   1.520   0.838 -0.2832  0.1781  0.3085
  711MOL0     O95909   2.299   1.503   0.883  0.0694  0.3473 -0.4871
  711MOL0     C95910   2.368   1.581   0.977  0.4130  1.1315 -0.3294
  711MOL0     C95911   2.493   1.628   0.901  0.4974  0.6960 -0.8040
  711MOL0     C95912   2.608   1.626   1.003 -0.7628  0.6508 -0.5542
  711MOL0     C95913   2.729   1.708   0.952 -0.4791  0.2414  0.4061
  711MOL0     C95914   2.788   1.640   0.835  0.3715  0.4472 -0.3686
  711MOL0     C95915   2.844   1.580   0.742 -0.4697  0.7390 -0.7352
  711MOL0     C95916   2.075   1.622   0.872 -0.4665 -0.0851  0.7784
  711MOL0     C95917   1.947   1.623   0.822 -0.1100  0.0317  0.4890
  711MOL0     H95918   1.502   1.302   0.655  0.0299  2.5104  1.4436
  711MOL0     H95919   1.291   1.331   0.529  0.4175 -2.7107 -1.1500
  711MOL0     H95920   1.289   1.500   0.155  1.0069 -0.4324  0.8633
  711MOL0     H95921   1.184   1.374   0.237 -1.7186  0.1981 -0.8486
  711MOL0     H95922   1.071   1.523   0.074 -0.1414 -2.0711  0.7963
  711MOL0     H95923   1.001   1.531   0.230 -1.7317 -3.0830 -1.8404
  711MOL0     H95924   1.071   1.728   0.268 -1.1937 -3.1950 -1.4486
  711MOL0     H95925   1.223   1.730   0.167  1.2939 -0.2042  1.7329
  711MOL0     H95926   1.063   1.743  -0.039  0.9094 -0.6985  1.3644
  711MOL0     H95927   0.929   1.710   0.058 -0.5320 -1.5081  2.5073
  711MOL0     H95928   0.923   1.961   0.041  1.8072 -0.0327 -1.3185
  711MOL0     H95929   0.995   1.922   0.205  0.7889 -1.0219  0.0297
  711MOL0     H95930   1.201   2.003   0.140 -0.8800 -1.9372  0.7628
  711MOL0     H95931   1.171   1.990  -0.034  1.0387  2.5734  0.1147
  711MOL0     H95932   1.025   2.180  -0.036 -1.6699  0.9948  1.6259
  711MOL0     H95933   0.979   2.165   0.130 -1.5106  1.1942 -0.7032
  711MOL0     H95934   1.272   2.239   0.070  0.7471  1.7638 -2.4533
  711MOL0     H95935   1.189   2.255   0.214  1.6430  1.3619 -0.1202
  711MOL0     H95936   1.211   2.421  -0.134 -1.8190 -3.6127  0.4043
  711MOL0     H95937   1.150   2.687  -0.226 -0.3030  2.9083 -1.1142
  711MOL0     H95938   0.991   2.637  -0.266  2.2626 -0.9639 -0.1712
  711MOL0     H95939   1.069   2.865  -0.094 -0.2523  0.7882  0.6821
  711MOL0     H95940   0.924   2.777  -0.044 -1.3161 -3.2658 -1.2924
  711MOL0     H95941   0.837   2.811  -0.292 -1.9553  0.7619  1.3517
  711MOL0     H95942   0.996   2.900  -0.312 -1.3637  1.3617 -2.1796
  711MOL0     H95943   0.921   3.072  -0.173 -0.2460  1.3032  0.1265
  711MOL0     H95944   0.779   2.975  -0.117  0.6764 -0.1240  0.6780
  711MOL0     H95945   0.678   3.175  -0.082  0.7261  0.3953 -1.4457
  711MOL0     H95946   0.635   3.511   0.006  0.8899 -0.3076 -0.4665
  711MOL0     H95947   0.484   3.422  -0.024  0.2195  0.8092 -1.3058
  711MOL0     H95948   0.619   3.351   0.062 -2.6819 -0.0588  0.3405
  711MOL0     H95949   0.425   3.791  -0.464 -0.3687  0.4561  0.1795
  711MOL0     H95950   0.424   4.032  -0.487  1.0596 -0.1861 -1.6492
  711MOL0     H95951   0.651   4.206  -0.629 -4.0665 -3.0448 -2.2345
  711MOL0     H95952   0.488   4.222  -0.591 -0.3641  1.9243 -1.6954
  711MOL0     H95953   0.550   4.428  -0.663 -0.8975 -2.2687 -0.2258
  711MOL0     H95954   0.508   4.441  -0.490 -1.9959 -2.3401 -0.2583
  711MOL0     H95955   0.791   4.432  -0.596  0.1376  3.1606 -2.5068
  711MOL0     H95956   0.732   4.452  -0.424  1.2906  0.7842  0.0059
  711MOL0     H95957   0.691   4.639  -0.654  0.5192  1.2569 -0.8960
  711MOL0     H95958   0.646   4.667  -0.472 -0.7442 -0.8027 -0.9652
  711MOL0     H95959   0.927   4.593  -0.565  0.2068  0.6943 -1.1243
  711MOL0     H95960   0.879   4.677  -0.412 -1.0940 -0.3690  0.0868
  711MOL0     H95961   0.997   4.832  -0.590  0.9494  0.2991  1.4749
  711MOL0     H95962   0.861   4.780  -0.699  1.2897  2.2556  0.1838
  711MOL0     H95963   0.850   4.990  -0.477  3.8920 -0.8656 -1.9887
  711MOL0     H95964   0.702   4.909  -0.533 -0.6013  2.9473  0.9085
  711MOL0     H95965   0.902   5.006  -0.736  1.0281 -3.9034  1.9329
  711MOL0     H95966   0.790   5.127  -0.653 -1.0397 -0.0331  2.8086
  711MOL0     H95967   0.800   4.077  -0.303 -2.7121  3.8374 -1.3680
  711MOL0     H95968   0.809   3.815  -0.276 -1.4485 -2.8962 -1.0260
  711MOL0     H95969   0.662   3.444  -0.495  0.7408  0.2808 -0.1013
  711MOL0     H95970   0.748   3.205  -0.509  0.6894 -1.9688  1.3056
  711MOL0     H95971   1.473   1.640   0.305  0.6111 -2.1958 -3.0355
  711MOL0     H95972   1.698   1.589   0.412  1.2561 -0.3790 -0.4277
  711MOL0     H95973   1.965   1.339   0.636 -0.7246 -0.4234  0.8276
  711MOL0     H95974   2.201   1.353   0.707 -2.5031 -1.1271 -1.6334
  711MOL0     H95975   2.306   1.668   1.002  2.0447  2.8915 -2.0829
  711MOL0     H95976   2.375   1.512   1.062  1.2455  0.3807 -0.9984
  711MOL0     H95977   2.470   1.726   0.859 -1.7135  0.7133  0.3053
  711MOL0     H95978   2.494   1.555   0.820  0.7462 -2.8336  2.1047
  711MOL0     H95979   2.645   1.528   1.033  3.4319  2.7014  1.9878
  711MOL0     H95980   2.565   1.680   1.087  1.4452  2.7923 -0.6656
  711MOL0     H95981   2.805   1.717   1.030 -2.0188 -0.0615  2.0131
  711MOL0     H95982   2.706   1.811   0.920 -1.1585 -0.1568 -0.4360
  711MOL0     H95983   2.893   1.517   0.671  1.3648 -0.3290  1.3593
  711MOL0     H95984   2.103   1.691   0.950  0.9976  3.0482 -2.2235
  711MOL0     H95985   1.880   1.706   0.842 -1.0092 -0.9106  1.5130
  712MOL0     O95986   8.049  11.275   2.779 -0.3607  0.5805 -0.5154
  712MOL0     C95987   8.054  11.390   2.821 -0.2617 -0.1207  0.4129
  712MOL0     O95988   7.996  11.496   2.757  0.3262  0.2064  0.2381
  712MOL0     C95989   7.903  11.484   2.646  0.4983  0.2393 -0.7968
  712MOL0     C95990   7.840  11.609   2.620 -0.1980  1.0067 -0.2765
  712MOL0     C95991   7.742  11.627   2.526  0.1128 -0.2063  0.7699
  712MOL0     C95992   7.712  11.519   2.446  1.4460  0.3729 -0.4836
  712MOL0     O95993   7.613  11.515   2.345  0.0289 -0.3688  0.2910
  712MOL0     C95994   7.515  11.625   2.350  0.2310 -0.3339 -0.2079
  712MOL0     C95995   7.452  11.638   2.216  0.2122 -0.4432  0.1009
  712MOL0     C95996   7.339  11.528   2.203  0.1653 -0.2097 -0.2242
  712MOL0     C95997   7.264  11.544   2.068 -0.1940  0.4512  0.2249
  712MOL0     C95998   7.153  11.431   2.057  0.7035 -1.0263  0.5746
  712MOL0     C95999   7.093  11.453   1.923  0.7352 -0.9401  0.0688
  712MOL0     C96000   6.962  11.362   1.908 -1.0274  0.1143 -0.5997
  712MOL0     C96001   6.997  11.219   1.923  0.7549  0.8928 -0.3257
  712MOL0     N96002   6.887  11.130   1.885  0.0073  0.9765 -0.2272
  712MOL0     C96003   6.778  11.094   1.965 -0.0901 -1.1025  0.9177
  712MOL0     C96004   6.696  11.015   1.890 -0.1224  0.6333 -0.1505
  712MOL0     C96005   6.576  10.943   1.946 -0.1967 -1.0757  0.5402
  712MOL0     C96006   6.503  10.831   1.868 -0.0408 -0.2225 -0.5404
  712MOL0     C96007   6.584  10.706   1.864 -0.3488  0.1248 -0.3221
  712MOL0     C96008   6.706  10.696   1.758  0.0249 -1.3180 -0.9280
  712MOL0     O96009   6.760  10.562   1.756 -0.0082 -0.1083 -0.2081
  712MOL0     C96010   6.881  10.536   1.696 -0.4145 -0.4417 -0.9341
  712MOL0     C96011   6.975  10.635   1.670  0.5046  0.5656  0.2129
  712MOL0     C96012   7.099  10.608   1.611  0.5077  0.6249  0.0924
  712MOL0     C96013   7.191  10.725   1.576  0.9541  1.4361 -0.2222
  712MOL0     C96014   7.127  10.474   1.586 -0.3769  0.9170 -0.4010
  712MOL0     C96015   7.256  10.419   1.547  0.2242  0.4564 -0.6617
  712MOL0     O96016   7.273  10.302   1.472  0.1190  0.0385 -0.0274
  712MOL0     C96017   7.396  10.241   1.456  0.7390  0.9958  0.6656
  712MOL0     C96018   7.416  10.104   1.472 -1.0251  0.5627  0.4362
  712MOL0     C96019   7.541  10.040   1.448 -0.5306  0.0379  0.3551
  712MOL0     C96020   7.650  10.114   1.401  0.2623  0.3839  0.3418
  712MOL0     O96021   7.775  10.068   1.375  0.3304  0.1452  0.1272
  712MOL0     C96022   7.796   9.925   1.337 -0.0809 -0.5123 -0.1414
  712MOL0     C96023   7.911   9.875   1.420 -0.0024  0.6962 -0.3806
  712MOL0     C96024   7.883   9.868   1.573 -0.6723  0.1365 -0.2740
  712MOL0     C96025   8.004   9.844   1.672  0.0889  0.0975  0.6922
  712MOL0     C96026   7.972   9.878   1.813  0.5491  0.0785 -0.2408
  712MOL0     C96027   7.853   9.792   1.884 -0.2855  0.4193 -0.0583
  712MOL0     C96028   7.861   9.826   2.031  0.7182  0.5676  0.4225
  712MOL0     C96029   7.998   9.795   2.101 -0.0237  0.3349  0.8962
  712MOL0    Cl96030   8.037   9.623   2.104  0.2241  0.0722 -0.0442
  712MOL0     C96031   7.624  10.250   1.380 -0.1169  0.9217  0.9745
  712MOL0     C96032   7.496  10.313   1.401 -0.1415 -0.0955  0.1775
  712MOL0     O96033   7.353  10.471   1.605  0.2558 -0.5382  0.6133
  712MOL0     C96034   7.029  10.371   1.605 -0.5520 -0.7352 -0.0601
  712MOL0     C96035   6.906  10.406   1.661  0.2489 -0.1179 -0.5495
  712MOL0     N96036   6.751  11.019   1.763 -0.3045 -1.2715  0.4039
  712MOL0     N96037   6.866  11.083   1.757  1.0297  0.7905  0.4649
  712MOL0     C96038   7.765  11.392   2.464 -0.3997  0.6691 -0.7205
  712MOL0     C96039   7.862  11.376   2.569  0.2877 -0.3884 -0.1818
  712MOL0     C96040   8.112  11.426   2.954 -0.1079  0.5484 -0.0421
  712MOL0     C96041   8.105  11.346   3.062  0.4006  0.5125  0.7922
  712MOL0     C96042   8.157  11.388   3.187 -0.2437  0.1498  0.5185
  712MOL0     C96043   8.208  11.517   3.203  0.1790  0.0968  0.0958
  712MOL0     O96044   8.248  11.567   3.331 -0.0785 -0.2403  0.7454
  712MOL0     C96045   8.256  11.478   3.448 -0.2441 -0.8513  1.3033
  712MOL0     C96046   8.142  11.497   3.549 -0.9550  0.0244 -0.6862
  712MOL0     C96047   8.008  11.474   3.486  0.2067  0.2054 -1.0006
  712MOL0     C96048   7.904  11.470   3.589  0.8990  0.0237  0.4092
  712MOL0     C96049   7.910  11.338   3.659  0.8649  0.1415 -0.7188
  712MOL0     C96050   7.914  11.227   3.714  0.3549 -0.4096  0.7747
  712MOL0     C96051   8.207  11.595   3.085 -0.4367  0.1576 -0.0781
  712MOL0     C96052   8.170  11.550   2.967  0.8213 -0.5843  0.7028
  712MOL0     H96053   7.866  11.690   2.687 -1.5984 -0.8992  2.8014
  712MOL0     H96054   7.706  11.727   2.502 -1.0124 -0.6149  0.7011
  712MOL0     H96055   7.439  11.611   2.427  0.0401  1.2453 -0.0680
  712MOL0     H96056   7.562  11.722   2.370  1.3758 -0.3235 -2.5503
  712MOL0     H96057   7.411  11.739   2.201  1.8459 -0.2860 -6.1177
  712MOL0     H96058   7.519  11.649   2.131 -0.9003  4.1857 -0.4709
  712MOL0     H96059   7.373  11.423   2.198 -1.5434 -1.1488  3.6622
  712MOL0     H96060   7.277  11.530   2.293  2.8979 -2.4920  1.9199
  712MOL0     H96061   7.213  11.639   2.046 -0.0124 -0.1229 -3.2684
  712MOL0     H96062   7.334  11.542   1.984 -1.2247  2.0177 -0.7266
  712MOL0     H96063   7.195  11.330   2.057  0.0321 -1.3641 -1.5182
  712MOL0     H96064   7.071  11.439   2.128  0.2354 -1.2262  0.0692
  712MOL0     H96065   7.083  11.558   1.895  1.0401 -1.5763 -2.6349
  712MOL0     H96066   7.159  11.432   1.839 -1.1220 -2.5202 -1.0830
  712MOL0     H96067   6.884  11.398   1.975  0.2104  1.0765  0.3880
  712MOL0     H96068   6.910  11.384   1.814 -1.2731  0.7445 -0.3222
  712MOL0     H96069   7.030  11.196   2.025  0.3640 -3.2030 -0.9756
  712MOL0     H96070   7.078  11.195   1.854  0.6165 -1.8605  0.3746
  712MOL0     H96071   6.753  11.121   2.067 -0.5629 -1.2900  0.8561
  712MOL0     H96072   6.607  10.899   2.041  1.4018 -3.5993 -1.0465
  712MOL0     H96073   6.500  11.014   1.981  3.9078  4.3074 -0.2532
  712MOL0     H96074   6.470  10.862   1.769  0.5713 -0.2507 -0.7625
  712MOL0     H96075   6.409  10.817   1.921 -0.5155 -1.9935 -1.7337
  712MOL0     H96076   6.519  10.622   1.838  0.7188 -0.7978 -0.0942
  712MOL0     H96077   6.621  10.685   1.965 -0.7569 -0.9353 -0.3884
  712MOL0     H96078   6.775  10.776   1.786 -3.3693  0.8615  2.0565
  712MOL0     H96079   6.671  10.723   1.658  0.1958 -2.6602 -1.3671
  712MOL0     H96080   6.951  10.738   1.697  2.5569  1.1659 -0.0867
  712MOL0     H96081   7.297  10.705   1.594  1.0738  2.8784  0.8443
  712MOL0     H96082   7.172  10.749   1.471  2.0449  1.8126 -0.3490
  712MOL0     H96083   7.162  10.804   1.647 -1.3102 -0.6565  1.3773
  712MOL0     H96084   7.335  10.040   1.503 -1.2467  0.0777 -1.0559
  712MOL0     H96085   7.541   9.932   1.464  2.0583  0.0306  0.6867
  712MOL0     H96086   7.715   9.855   1.357 -1.6345  0.4241 -2.6786
  712MOL0     H96087   7.814   9.911   1.231  2.8562 -4.9014  0.6737
  712MOL0     H96088   7.952   9.778   1.393  0.7537  1.1540 -0.8994
  712MOL0     H96089   7.995   9.941   1.397  0.4772  0.4372  0.5711
  712MOL0     H96090   7.802   9.800   1.603 -0.6472  0.6698  1.1080
  712MOL0     H96091   7.840   9.968   1.590 -0.1245  0.4356 -0.6394
  712MOL0     H96092   8.026   9.737   1.674  2.5771  0.5542  1.0315
  712MOL0     H96093   8.091   9.894   1.630  0.4052 -1.7841 -1.0608
  712MOL0     H96094   7.961   9.985   1.829 -1.1341  0.0252 -0.8449
  712MOL0     H96095   8.065   9.844   1.859  0.5060  1.8025  1.2215
  712MOL0     H96096   7.754   9.825   1.851 -0.7752 -0.6779  0.2484
  712MOL0     H96097   7.847   9.684   1.870  2.6610  0.3195 -1.1473
  712MOL0     H96098   7.793   9.767   2.092  0.3258  0.6875  0.1030
  712MOL0     H96099   7.832   9.930   2.044  1.3216  0.9215 -0.8372
  712MOL0     H96100   7.981   9.837   2.200 -2.9879  2.2740 -0.2949
  712MOL0     H96101   8.079   9.853   2.056 -0.2347  1.3047  1.7541
  712MOL0     H96102   7.695  10.325   1.344 -0.1391  1.2151  1.5268
  712MOL0     H96103   7.495  10.419   1.379 -3.2456 -0.3888 -1.5498
  712MOL0     H96104   7.037  10.269   1.568  2.1230  0.3741 -3.0142
  712MOL0     H96105   6.826  10.335   1.684 -0.7983  0.8483 -1.1438
  712MOL0     H96106   7.753  11.308   2.397  3.6019 -0.7050  0.0312
  712MOL0     H96107   7.937  11.298   2.573 -2.6585 -3.3920  1.7030
  712MOL0     H96108   8.070  11.243   3.061 -1.8808  1.2220  0.2852
  712MOL0     H96109   8.174  11.312   3.263  0.5588  0.4362  0.6361
  712MOL0     H96110   8.258  11.371   3.422  1.6615 -0.6241  0.4163
  712MOL0     H96111   8.349  11.502   3.500  0.4887 -0.5578 -0.1063
  712MOL0     H96112   8.144  11.593   3.602  4.0061  1.1920 -2.5096
  712MOL0     H96113   8.172  11.427   3.628 -1.8001 -2.2919 -2.2848
  712MOL0     H96114   8.006  11.379   3.431  1.9691 -0.1843 -0.4444
  712MOL0     H96115   7.997  11.556   3.414 -3.7730  0.6509 -0.1270
  712MOL0     H96116   7.817  11.476   3.523  1.6874 -0.0803 -0.6754
  712MOL0     H96117   7.907  11.562   3.649 -2.7751  2.4477 -2.6239
  712MOL0     H96118   7.924  11.128   3.756  0.6737  0.0149  1.7290
  712MOL0     H96119   8.237  11.699   3.084  1.5917 -0.3825  0.3647
  712MOL0     H96120   8.184  11.623   2.887  0.0993  0.2523  1.3090
  713MOL0     O96121   7.142   0.287   4.470  0.8582 -0.4740  0.0398
  713MOL0     C96122   7.140   0.388   4.395  0.4357  0.1200  0.5649
  713MOL0     O96123   7.206   0.386   4.276  0.9384 -0.0888  0.1396
  713MOL0     C96124   7.300   0.291   4.241 -0.2583 -0.1195  0.0983
  713MOL0     C96125   7.301   0.220   4.122  0.9954  0.2656 -0.7184
  713MOL0     C96126   7.406   0.128   4.095  0.0223  0.4096  0.5115
  713MOL0     C96127   7.520   0.100   4.184 -0.2262 -0.2204 -0.2888
  713MOL0     O96128   7.612   0.009   4.142 -0.8397 -0.4624 -0.5296
  713MOL0     C96129   7.740   0.027   4.204 -0.6616  0.5193 -0.3540
  713MOL0     C96130   7.832  -0.059   4.126  0.8185 -0.6775  0.0735
  713MOL0     C96131   7.813  -0.208   4.143 -0.5152  0.3073  0.0835
  713MOL0     C96132   7.675  -0.269   4.171  0.7575 -0.3847  0.0526
  713MOL0     C96133   7.684  -0.415   4.223 -0.0448  0.1614 -0.1669
  713MOL0     C96134   7.696  -0.516   4.112  0.0411  1.1405 -0.4612
  713MOL0     C96135   7.579  -0.513   4.018  0.0430  0.9291  0.3960
  713MOL0     C96136   7.604  -0.632   3.926  0.0097 -0.1390  0.2088
  713MOL0     N96137   7.556  -0.760   3.986 -0.2563 -0.2609  0.1435
  713MOL0     C96138   7.636  -0.851   4.042  0.0461  1.3980 -0.1279
  713MOL0     C96139   7.550  -0.949   4.080 -0.6259  0.6673  0.9700
  713MOL0     C96140   7.558  -1.086   4.148 -0.8468  0.0281 -0.7796
  713MOL0     C96141   7.669  -1.177   4.096  0.3795 -0.2626 -0.0780
  713MOL0     C96142   7.757  -1.251   4.199  0.5051  0.6054  0.0677
  713MOL0     C96143   7.861  -1.158   4.259  0.8527  0.6878 -0.1326
  713MOL0     O96144   7.959  -1.133   4.163 -0.3374  0.3278  0.5557
  713MOL0     C96145   7.989  -0.999   4.140 -0.3308  0.3876  0.3031
  713MOL0     C96146   8.015  -0.900   4.237 -0.0949 -0.2570 -0.5673
  713MOL0     C96147   8.018  -0.759   4.206 -0.2129  1.2328 -0.1413
  713MOL0     C96148   8.001  -0.656   4.312  0.0906 -1.1178 -0.3731
  713MOL0     C96149   8.026  -0.720   4.069 -0.0057  0.1679 -0.4187
  713MOL0     C96150   8.058  -0.578   4.025  0.1773 -0.2815 -0.2598
  713MOL0     O96151   8.160  -0.514   4.100  0.7345  0.8001  0.1981
  713MOL0     C96152   8.172  -0.384   4.077 -0.6977  0.9050 -0.5915
  713MOL0     C96153   8.206  -0.336   3.944  0.3919  0.9947 -0.0801
  713MOL0     C96154   8.229  -0.203   3.924  0.0038 -0.1623 -0.6763
  713MOL0     C96155   8.211  -0.115   4.035 -0.2856 -0.6822 -0.1223
  713MOL0     O96156   8.217   0.021   4.031 -0.0835 -0.5494  0.5314
  713MOL0     C96157   8.181   0.076   3.907  0.7228 -0.0099  0.1550
  713MOL0     C96158   8.139   0.226   3.915 -0.4030  0.1345  0.3851
  713MOL0     C96159   8.021   0.261   4.005  0.4824  0.1529  0.9161
  713MOL0     C96160   7.957   0.401   3.971  0.7461  0.0537  1.1584
  713MOL0     C96161   7.858   0.441   4.078 -0.4951  0.4035  0.2817
  713MOL0     C96162   7.936   0.511   4.191  0.6882  0.6842  0.2949
  713MOL0     C96163   7.842   0.607   4.265  0.0378  0.4399 -0.3122
  713MOL0     C96164   7.721   0.534   4.319 -1.5861  0.7777  0.6312
  713MOL0    Cl96165   7.765   0.390   4.423  0.3703  0.4206  0.5534
  713MOL0     C96166   8.182  -0.164   4.160  0.2091 -0.2142  0.1231
  713MOL0     C96167   8.167  -0.302   4.185 -0.0073  0.2292  0.2678
  713MOL0     O96168   7.992  -0.529   3.936  0.7059  1.0767  0.2210
  713MOL0     C96169   8.013  -0.822   3.979 -0.3766 -0.6523  0.7367
  713MOL0     C96170   8.000  -0.954   4.011  0.6002  0.3401  0.3341
  713MOL0     N96171   7.430  -0.911   4.040  0.9145 -1.0462 -0.5800
  713MOL0     N96172   7.427  -0.804   3.981  0.1952  0.8307 -0.2551
  713MOL0     C96173   7.507   0.169   4.306 -1.2166  0.4753  0.9867
  713MOL0     C96174   7.401   0.257   4.336  0.5657 -0.4220 -0.4712
  713MOL0     C96175   7.078   0.517   4.438 -0.9831  0.2508 -0.1000
  713MOL0     C96176   7.120   0.636   4.378 -0.0950  0.3521  0.2673
  713MOL0     C96177   7.039   0.750   4.411 -0.2513  1.0698 -0.4087
  713MOL0     C96178   6.939   0.748   4.507 -0.6315  0.3945 -0.2422
  713MOL0     O96179   6.870   0.856   4.551 -0.6600  0.0810 -0.9391
  713MOL0     C96180   6.918   0.989   4.519 -0.5049 -0.7900  0.0167
  713MOL0     C96181   6.972   1.062   4.644 -0.1310 -0.7134  0.2052
  713MOL0     C96182   6.848   1.118   4.727 -1.1128  0.3033 -0.1553
  713MOL0     C96183   6.736   1.026   4.787 -0.9070 -0.1496  0.2671
  713MOL0     C96184   6.649   1.113   4.861  0.3518 -0.1761  0.2493
  713MOL0     C96185   6.586   1.198   4.922 -0.2451 -0.7388  0.5063
  713MOL0     C96186   6.916   0.631   4.583 -0.2767  0.4120  0.2042
  713MOL0     C96187   6.988   0.515   4.546 -0.4284  0.1852 -0.0575
  713MOL0     H96188   7.220   0.225   4.050 -0.6663  0.0456  1.0785
  713MOL0     H96189   7.423   0.079   3.999 -0.8311 -0.5207  0.8154
  713MOL0     H96190   7.777   0.128   4.184 -0.8752  1.0287  1.6544
  713MOL0     H96191   7.756   0.008   4.311  1.1167  0.2015 -0.6384
  713MOL0     H96192   7.825  -0.040   4.019  0.6238  0.3894  0.2629
  713MOL0     H96193   7.934  -0.032   4.156  0.6071 -2.7656  3.0867
  713MOL0     H96194   7.851  -0.250   4.050  0.2840 -0.7040  0.8457
  713MOL0     H96195   7.874  -0.240   4.228  1.7359  1.2943 -1.0793
  713MOL0     H96196   7.647  -0.225   4.266  2.6027 -0.0873  0.5066
  713MOL0     H96197   7.604  -0.252   4.090  0.6985  0.8786  0.3490
  713MOL0     H96198   7.768  -0.430   4.291  2.7865 -1.1985 -3.6821
  713MOL0     H96199   7.601  -0.433   4.292 -1.1043  2.1162 -0.8487
  713MOL0     H96200   7.784  -0.489   4.054  2.0872 -3.5613  0.0147
  713MOL0     H96201   7.720  -0.617   4.149  0.7385  0.9594 -1.3900
  713MOL0     H96202   7.489  -0.520   4.080 -0.1632  1.1526  0.1275
  713MOL0     H96203   7.583  -0.420   3.960  2.1923  0.6339 -0.0302
  713MOL0     H96204   7.709  -0.632   3.896 -0.0452  0.6885 -0.0005
  713MOL0     H96205   7.545  -0.615   3.836 -3.4956  1.0096  2.5108
  713MOL0     H96206   7.743  -0.840   4.061  0.4799 -1.5196 -0.2943
  713MOL0     H96207   7.576  -1.062   4.253 -0.9357  0.5520 -0.8769
  713MOL0     H96208   7.462  -1.138   4.151 -1.3825  0.9685  1.9003
  713MOL0     H96209   7.739  -1.118   4.037  0.9961 -1.2823 -0.3964
  713MOL0     H96210   7.625  -1.241   4.020 -0.5182  0.9016 -0.5579
  713MOL0     H96211   7.807  -1.334   4.148  0.1151  0.1996  0.3435
  713MOL0     H96212   7.696  -1.287   4.283  1.8081 -0.4381  0.5890
  713MOL0     H96213   7.904  -1.206   4.347  0.4771  1.7985  0.6805
  713MOL0     H96214   7.807  -1.067   4.286  0.5820  0.7240 -0.7766
  713MOL0     H96215   8.017  -0.922   4.343  1.6708 -0.5811 -0.6423
  713MOL0     H96216   7.928  -0.577   4.290 -0.0629 -0.9105  0.8485
  713MOL0     H96217   7.963  -0.698   4.405  1.1548 -1.7145 -0.1906
  713MOL0     H96218   8.093  -0.607   4.345 -0.6078  0.3599 -0.5570
  713MOL0     H96219   8.216  -0.403   3.859  2.0677  3.3153 -1.8667
  713MOL0     H96220   8.242  -0.163   3.824 -1.4764  2.4715  0.0768
  713MOL0     H96221   8.262   0.057   3.837 -0.6144  2.6187 -2.3098
  713MOL0     H96222   8.090   0.024   3.875 -0.3681  2.3584 -0.7692
  713MOL0     H96223   8.226   0.286   3.942  2.2080 -1.5179 -3.4138
  713MOL0     H96224   8.105   0.247   3.813  0.7007 -3.4787 -0.8996
  713MOL0     H96225   8.046   0.252   4.111 -3.4526  1.6756  2.1509
  713MOL0     H96226   7.949   0.184   3.978  1.2333 -0.5124  0.7838
  713MOL0     H96227   8.037   0.474   3.954 -0.2870  0.3461 -5.3302
  713MOL0     H96228   7.906   0.395   3.874 -0.3467  2.8134  1.4896
  713MOL0     H96229   7.811   0.353   4.121  0.0928 -1.0324 -1.8510
  713MOL0     H96230   7.789   0.514   4.033 -1.6107 -2.5695 -3.2995
  713MOL0     H96231   7.999   0.441   4.247  0.6661  0.0425 -0.4733
  713MOL0     H96232   8.009   0.574   4.139  0.6545 -0.2808 -0.9633
  713MOL0     H96233   7.806   0.688   4.201 -0.3150 -0.2475 -0.9877
  713MOL0     H96234   7.895   0.652   4.350  0.9185  0.4414 -0.8474
  713MOL0     H96235   7.662   0.512   4.229 -0.6437  3.1089 -0.6291
  713MOL0     H96236   7.654   0.594   4.381 -1.9523  0.6659  0.3526
  713MOL0     H96237   8.173  -0.096   4.244  0.4151  0.6050 -0.5168
  713MOL0     H96238   8.141  -0.345   4.281  0.8242  0.1741  0.4718
  713MOL0     H96239   8.007  -0.797   3.873  0.2130  1.2644  1.1204
  713MOL0     H96240   7.982  -1.025   3.931  5.3616  0.9306 -1.6064
  713MOL0     H96241   7.576   0.154   4.388 -1.5442  0.2969  1.2320
  713MOL0     H96242   7.392   0.303   4.434 -1.0883  0.0696 -0.8236
  713MOL0     H96243   7.185   0.629   4.292  1.4465  0.6207  1.3724
  713MOL0     H96244   7.055   0.832   4.341 -1.7636  2.4272  0.7785
  713MOL0     H96245   6.989   0.983   4.437 -3.6472  0.3566 -3.0223
  713MOL0     H96246   6.839   1.053   4.479  1.6229  1.5122 -0.7155
  713MOL0     H96247   7.031   1.146   4.606 -1.0143 -0.1062  0.1411
  713MOL0     H96248   7.044   1.006   4.703  2.0994  4.5423  3.1425
  713MOL0     H96249   6.807   1.197   4.663  0.1517 -1.7659 -3.7784
  713MOL0     H96250   6.899   1.163   4.813  0.0922 -1.0013 -0.1675
  713MOL0     H96251   6.777   0.949   4.852 -2.1817 -2.5134 -1.5851
  713MOL0     H96252   6.684   0.982   4.702 -0.3099  0.6686 -0.5491
  713MOL0     H96253   6.528   1.262   4.985  1.4093  3.5883 -1.8841
  713MOL0     H96254   6.833   0.632   4.653 -1.2612  0.4931 -0.9490
  713MOL0     H96255   6.957   0.432   4.608 -3.4592  0.3038 -1.2356
  714MOL0     O96256   5.374   9.401   4.183 -0.2200 -0.9520 -0.7985
  714MOL0     C96257   5.275   9.479   4.210  0.2559  0.0193  1.0491
  714MOL0     O96258   5.211   9.566   4.129 -0.5115 -0.2027  0.6086
  714MOL0     C96259   5.235   9.570   3.995  0.1463  0.2205  0.1000
  714MOL0     C96260   5.160   9.664   3.925  0.4245  0.6972  0.1000
  714MOL0     C96261   5.169   9.702   3.792 -0.1993  0.1567 -0.8427
  714MOL0     C96262   5.260   9.631   3.723  0.3313 -0.1693 -0.9990
  714MOL0     O96263   5.261   9.656   3.591  0.6793 -0.0956 -0.5253
  714MOL0     C96264   5.367   9.604   3.512 -0.2773  0.0442  0.1587
  714MOL0     C96265   5.366   9.648   3.369 -0.5051 -1.0293  0.1150
  714MOL0     C96266   5.487   9.598   3.286 -0.9786 -0.7001  0.4536
  714MOL0     C96267   5.615   9.662   3.336 -0.0859 -0.4818  0.3993
  714MOL0     C96268   5.724   9.616   3.247 -0.9406  0.1914  0.6325
  714MOL0     C96269   5.760   9.720   3.136  0.1139 -0.3761 -0.6726
  714MOL0     C96270   5.878   9.672   3.047  0.1909  0.4802  0.1293
  714MOL0     C96271   5.929   9.773   2.947 -0.4690 -0.5044 -0.3830
  714MOL0     N96272   6.029   9.710   2.867  0.0893  0.2455  0.6883
  714MOL0     C96273   6.125   9.776   2.784  0.1001  0.0866  0.0460
  714MOL0     C96274   6.217   9.684   2.748  0.3515 -0.5472  0.5127
  714MOL0     C96275   6.340   9.716   2.666 -0.3695 -0.5226  0.0527
  714MOL0     C96276   6.354   9.642   2.533 -0.0365 -0.2290  0.3130
  714MOL0     C96277   6.467   9.680   2.443 -0.8264  0.2068 -0.3842
  714MOL0     C96278   6.597   9.706   2.522 -0.6582 -0.5847 -0.3088
  714MOL0     O96279   6.701   9.716   2.424  0.2006 -0.2415 -0.2124
  714MOL0     C96280   6.825   9.754   2.454  0.4719  0.0151 -0.3001
  714MOL0     C96281   6.912   9.808   2.352  1.3183 -0.1204  0.1088
  714MOL0     C96282   7.047   9.817   2.382 -0.9725  0.7697 -0.3441
  714MOL0     C96283   7.136   9.855   2.268  0.1158  0.5893  0.6268
  714MOL0     C96284   7.101   9.797   2.510 -0.3079 -0.0321 -0.3153
  714MOL0     C96285   7.245   9.800   2.539 -0.1667  0.5471  0.7614
  714MOL0     O96286   7.281   9.809   2.673 -0.1763 -0.1918  0.2548
  714MOL0     C96287   7.411   9.864   2.693  0.0499  0.0650  0.5745
  714MOL0     C96288   7.433   9.994   2.656 -0.3899  0.5922  0.2112
  714MOL0     C96289   7.557  10.049   2.671 -0.3028 -1.0437 -0.7791
  714MOL0     C96290   7.666   9.972   2.719 -0.2142 -0.0616 -1.0866
  714MOL0     O96291   7.787  10.026   2.737 -0.4366 -0.1154  0.2418
  714MOL0     C96292   7.835  10.131   2.655  0.2820 -0.4070 -0.3249
  714MOL0     C96293   7.978  10.175   2.707  0.0081 -0.1535  0.0753
  714MOL0     C96294   8.088  10.087   2.637  0.4277  0.1104  0.0374
  714MOL0     C96295   8.229  10.137   2.670 -0.0082  0.7483 -0.0732
  714MOL0     C96296   8.332  10.063   2.581  0.4092 -1.0965 -0.1960
  714MOL0     C96297   8.462  10.139   2.590 -0.7603 -0.1843 -1.0967
  714MOL0     C96298   8.574  10.086   2.503  0.0044 -0.6609  0.7254
  714MOL0     C96299   8.692  10.163   2.530 -0.5518 -0.2609  0.0683
  714MOL0    Cl96300   8.809  10.127   2.393 -0.3045 -0.2798  0.3320
  714MOL0     C96301   7.643   9.841   2.763 -0.4457 -0.3692 -0.3802
  714MOL0     C96302   7.514   9.792   2.761  0.4504  0.9262 -0.8220
  714MOL0     O96303   7.330   9.794   2.444  0.4282 -0.9858  0.2256
  714MOL0     C96304   7.015   9.750   2.611 -0.1488  0.2917  0.6759
  714MOL0     C96305   6.880   9.733   2.586 -1.1154  0.2493  0.9340
  714MOL0     N96306   6.192   9.568   2.814  0.4363  0.5734  0.0290
  714MOL0     N96307   6.077   9.581   2.870 -0.4939  0.6158  1.0027
  714MOL0     C96308   5.320   9.518   3.774 -0.3386 -0.0796 -0.1631
  714MOL0     C96309   5.318   9.499   3.914  0.3602  1.3757 -0.3518
  714MOL0     C96310   5.222   9.473   4.353 -0.8110 -0.3250  0.9250
  714MOL0     C96311   5.294   9.394   4.446  0.0619  0.7018 -0.5360
  714MOL0     C96312   5.257   9.404   4.577 -0.6157  0.4063  0.1547
  714MOL0     C96313   5.150   9.491   4.626  0.1790 -0.3266 -0.1449
  714MOL0     O96314   5.120   9.507   4.756 -0.3170 -0.5537 -1.1061
  714MOL0     C96315   5.206   9.437   4.858 -0.4587 -0.2649 -0.5451
  714MOL0     C96316   5.171   9.471   5.006  0.6428  0.9595  0.7667
  714MOL0     C96317   5.032   9.393   5.040  0.1766 -0.2586 -0.0227
  714MOL0     C96318   5.016   9.396   5.193 -0.0822 -0.4038 -0.4276
  714MOL0     C96319   4.976   9.530   5.243 -0.2271 -0.6692 -0.0005
  714MOL0     C96320   4.948   9.648   5.253 -0.3680 -1.1056 -0.3850
  714MOL0     C96321   5.082   9.560   4.526 -0.5338  0.0621  1.5022
  714MOL0     C96322   5.119   9.560   4.394 -0.1870  1.1657  1.1340
  714MOL0     H96323   5.098   9.726   3.988  1.0047  0.3205  1.0739
  714MOL0     H96324   5.110   9.778   3.741  1.0639  2.5746  1.0626
  714MOL0     H96325   5.463   9.631   3.556  2.0286 -3.2310 -2.3520
  714MOL0     H96326   5.362   9.495   3.502  1.1177 -0.1224  1.0828
  714MOL0     H96327   5.275   9.628   3.311  0.0333 -0.0293 -1.1355
  714MOL0     H96328   5.372   9.757   3.359 -0.1548 -0.9260  1.3359
  714MOL0     H96329   5.493   9.489   3.282  1.8659 -0.5957 -0.1867
  714MOL0     H96330   5.475   9.624   3.181 -1.8113  0.2878  0.7768
  714MOL0     H96331   5.601   9.770   3.327  4.1742  0.1180 -1.4822
  714MOL0     H96332   5.633   9.639   3.441 -1.8808  2.0898  1.3575
  714MOL0     H96333   5.810   9.598   3.313  0.5322  1.7544 -0.7592
  714MOL0     H96334   5.702   9.527   3.189 -1.6089  1.1477 -0.6182
  714MOL0     H96335   5.670   9.732   3.074 -0.0327 -0.1633 -0.4201
  714MOL0     H96336   5.776   9.819   3.179  1.4086 -0.4297 -0.9870
  714MOL0     H96337   5.960   9.649   3.116  0.5642  2.3815  0.3760
  714MOL0     H96338   5.843   9.585   2.990 -0.8293 -0.9283  2.7504
  714MOL0     H96339   5.984   9.857   2.990  0.3513  0.5000 -3.1734
  714MOL0     H96340   5.840   9.811   2.896 -0.4715  0.3797  0.2565
  714MOL0     H96341   6.123   9.879   2.752  0.4043  0.6057  1.6237
  714MOL0     H96342   6.341   9.824   2.649 -2.6962 -0.1682  1.6728
  714MOL0     H96343   6.424   9.688   2.730 -1.0638  0.1858  1.3095
  714MOL0     H96344   6.259   9.658   2.481 -0.8261 -3.7335  0.4202
  714MOL0     H96345   6.354   9.535   2.556 -0.1081 -0.1498  0.6886
  714MOL0     H96346   6.439   9.771   2.389  0.6051  0.4681 -0.7335
  714MOL0     H96347   6.483   9.603   2.366  1.7891 -1.1707  1.3718
  714MOL0     H96348   6.611   9.611   2.574 -0.6754 -0.1912  0.4172
  714MOL0     H96349   6.589   9.787   2.595  0.9799 -1.1176  0.5216
  714MOL0     H96350   6.870   9.829   2.254 -4.9513 -0.4379  2.2858
  714MOL0     H96351   7.084   9.868   2.173  1.5652  1.5839 -0.0574
  714MOL0     H96352   7.187   9.949   2.291  0.4626  0.3827  0.7108
  714MOL0     H96353   7.202   9.772   2.242 -1.2209 -0.0348 -0.9596
  714MOL0     H96354   7.361  10.051   2.598  3.1930  1.2967 -4.1042
  714MOL0     H96355   7.566  10.152   2.637  1.2177 -0.1212  2.1584
  714MOL0     H96356   7.845  10.105   2.549 -0.7596  0.0261 -0.5393
  714MOL0     H96357   7.769  10.217   2.665  0.2088 -0.6332  1.5193
  714MOL0     H96358   7.999  10.280   2.685  0.6419 -0.2653  0.1434
  714MOL0     H96359   7.978  10.163   2.816 -3.0231  0.6229  0.2773
  714MOL0     H96360   8.081  10.084   2.528  0.0163  2.0154 -0.0108
  714MOL0     H96361   8.068   9.987   2.678 -1.9581  0.4838 -0.0899
  714MOL0     H96362   8.231  10.246   2.662 -1.0205  0.7682 -0.1404
  714MOL0     H96363   8.257  10.102   2.770  2.0233 -0.7716 -1.1079
  714MOL0     H96364   8.295  10.055   2.479 -4.0768  0.4771  1.0684
  714MOL0     H96365   8.340   9.959   2.613 -0.0014 -1.4970 -1.3628
  714MOL0     H96366   8.444  10.246   2.574  2.8197  0.4985 -1.3888
  714MOL0     H96367   8.492  10.133   2.695  0.0355 -0.0654 -1.3046
  714MOL0     H96368   8.532  10.096   2.403 -2.0356 -0.3953  1.5597
  714MOL0     H96369   8.594   9.981   2.525 -0.8309 -1.6931 -2.8534
  714MOL0     H96370   8.730  10.135   2.629 -1.2065 -1.2945  0.0403
  714MOL0     H96371   8.674  10.270   2.539  0.6797 -0.1431  1.7594
  714MOL0     H96372   7.727   9.787   2.804 -0.5593 -1.5919 -1.7018
  714MOL0     H96373   7.497   9.697   2.810  1.5030  1.5186  0.7834
  714MOL0     H96374   7.061   9.729   2.707 -0.1127  0.2700  0.6541
  714MOL0     H96375   6.819   9.699   2.669 -0.2364  0.4358  1.6628
  714MOL0     H96376   5.366   9.447   3.706 -1.0187 -0.4384 -0.2603
  714MOL0     H96377   5.364   9.413   3.962 -0.1730  1.4968  0.4044
  714MOL0     H96378   5.373   9.328   4.412 -0.7442 -1.6736  1.8723
  714MOL0     H96379   5.317   9.336   4.636 -0.1320 -0.3996 -1.2114
  714MOL0     H96380   5.214   9.328   4.849 -0.6166 -0.5689  2.1737
  714MOL0     H96381   5.305   9.476   4.832 -1.3576  2.7956  0.2866
  714MOL0     H96382   5.163   9.580   5.010 -3.6107  0.9177 -1.1433
  714MOL0     H96383   5.250   9.425   5.066  1.0383 -1.6489 -1.5208
  714MOL0     H96384   5.036   9.285   5.021  0.4096 -0.7535  2.4562
  714MOL0     H96385   4.948   9.429   4.980 -2.1038 -2.0829  1.8681
  714MOL0     H96386   5.103   9.357   5.247  1.1437 -1.6887 -3.1087
  714MOL0     H96387   4.932   9.330   5.217  1.4008 -2.4549 -0.5171
  714MOL0     H96388   4.910   9.744   5.283  2.2535 -0.1381  0.0620
  714MOL0     H96389   4.999   9.619   4.564 -0.2298  0.3857  1.6720
  714MOL0     H96390   5.057   9.613   4.322 -1.0776 -1.4546 -0.1799
  715MOL0     O96391   4.164  10.550   6.800 -0.0931 -0.1853 -0.1233
  715MOL0     C96392   4.241  10.577   6.889 -0.0550 -0.4884  0.5144
  715MOL0     O96393   4.326  10.681   6.888  0.3903  0.2007  0.2595
  715MOL0     C96394   4.324  10.779   6.785  0.6082  0.3407  0.3013
  715MOL0     C96395   4.208  10.821   6.718  0.0025  0.0494 -0.6003
  715MOL0     C96396   4.222  10.927   6.627 -0.2214 -0.8324  0.4819
  715MOL0     C96397   4.348  10.988   6.599  0.3042  0.1216 -0.8610
  715MOL0     O96398   4.360  11.095   6.516 -0.8704 -0.5934 -0.2313
  715MOL0     C96399   4.286  11.204   6.562  0.3268  0.6092 -0.9011
  715MOL0     C96400   4.370  11.329   6.568 -0.2091 -1.1595  0.4399
  715MOL0     C96401   4.301  11.425   6.656  0.4487 -0.2469  1.4833
  715MOL0     C96402   4.194  11.504   6.574  0.8733 -0.7646 -0.6504
  715MOL0     C96403   4.128  11.616   6.660 -0.1443 -0.2977 -0.7996
  715MOL0     C96404   4.226  11.703   6.728  0.8435  0.3319  0.0109
  715MOL0     C96405   4.155  11.828   6.788  0.2233 -0.1257  0.3443
  715MOL0     C96406   4.116  11.940   6.683  0.7708 -0.1538  0.1369
  715MOL0     N96407   4.144  12.072   6.721  0.5596 -0.7623 -0.2472
  715MOL0     C96408   4.100  12.137   6.832  0.2414 -0.3600  0.0182
  715MOL0     C96409   4.164  12.260   6.826  1.1458 -0.5519 -0.2646
  715MOL0     C96410   4.134  12.380   6.911  0.3913 -0.0130 -0.9390
  715MOL0     C96411   4.020  12.460   6.847 -1.6689 -0.4559 -0.0927
  715MOL0     C96412   4.016  12.597   6.928  0.4624  0.0974  0.0451
  715MOL0     C96413   3.888  12.672   6.887 -0.1955  0.1205 -0.1995
  715MOL0     O96414   3.869  12.771   6.986  1.2339  0.6578 -0.7883
  715MOL0     C96415   3.750  12.847   6.973  1.0289  0.5328  0.0449
  715MOL0     C96416   3.699  12.913   7.082 -0.4769 -0.5004  0.2330
  715MOL0     C96417   3.599  13.006   7.082 -0.1813  0.1890 -0.3334
  715MOL0     C96418   3.559  13.065   7.224  0.2752 -0.8604 -0.2159
  715MOL0     C96419   3.547  13.047   6.960  0.0780  0.1603  1.0312
  715MOL0     C96420   3.449  13.156   6.945 -0.2068  0.4394  0.5127
  715MOL0     O96421   3.384  13.227   7.054  0.2334  0.0787  0.4742
  715MOL0     C96422   3.279  13.312   7.037  0.2979  0.5591 -1.0223
  715MOL0     C96423   3.194  13.332   6.934  0.6656  0.5408 -0.4459
  715MOL0     C96424   3.099  13.428   6.942  0.0362 -0.1295 -0.2101
  715MOL0     C96425   3.082  13.508   7.055 -0.2441  0.1894  0.0648
  715MOL0     O96426   2.981  13.592   7.083 -0.3256  0.4674  0.6449
  715MOL0     C96427   2.900  13.657   6.980 -0.4168  0.3766 -0.0560
  715MOL0     C96428   2.845  13.797   7.023 -0.3292  0.2220  0.4730
  715MOL0     C96429   2.759  13.857   6.913 -0.4088 -0.2828 -0.5799
  715MOL0     C96430   2.741  14.000   6.949 -0.0751  0.7839  0.5021
  715MOL0     C96431   2.611  14.043   6.877  0.2981  0.1729 -0.5685
  715MOL0     C96432   2.591  14.193   6.910  0.1623  0.0955  0.1502
  715MOL0     C96433   2.468  14.248   6.826 -0.1279 -0.2983 -0.9453
  715MOL0     C96434   2.488  14.399   6.795 -0.4747  0.1470 -0.1522
  715MOL0    Cl96435   2.490  14.477   6.953 -0.1693 -0.2032  0.3576
  715MOL0     C96436   3.167  13.484   7.161 -0.5183  0.4478 -0.0406
  715MOL0     C96437   3.263  13.387   7.152 -0.3103 -0.6332  0.6093
  715MOL0     O96438   3.407  13.160   6.830 -0.0951 -0.0436  0.4577
  715MOL0     C96439   3.591  12.971   6.850  0.1883 -0.1779  0.4794
  715MOL0     C96440   3.676  12.862   6.854 -0.0659 -0.7404  0.4892
  715MOL0     N96441   4.236  12.269   6.712  0.0609 -0.1497  0.6876
  715MOL0     N96442   4.224  12.158   6.647 -0.5992  0.4109  0.4071
  715MOL0     C96443   4.461  10.941   6.659 -0.5188 -0.0257  0.9881
  715MOL0     C96444   4.443  10.852   6.754  0.1256 -1.5238 -0.9706
  715MOL0     C96445   4.241  10.486   7.005 -0.3647  0.4009  0.0436
  715MOL0     C96446   4.342  10.494   7.108  0.2817  0.0468  0.4972
  715MOL0     C96447   4.335  10.413   7.218  0.7165  0.1652  0.6064
  715MOL0     C96448   4.235  10.323   7.230  1.3481  0.3425  0.1586
  715MOL0     O96449   4.232  10.246   7.345  0.2335  0.4824  0.3270
  715MOL0     C96450   4.190  10.107   7.344 -0.1257 -0.2257 -0.2754
  715MOL0     C96451   4.312  10.023   7.361  0.3581  0.5365  0.0965
  715MOL0     C96452   4.267   9.888   7.433 -1.2601 -0.9011 -0.3793
  715MOL0     C96453   4.170   9.799   7.362  0.8007  0.0153 -0.1438
  715MOL0     C96454   4.227   9.759   7.232  0.0751  1.2938  0.4617
  715MOL0     C96455   4.273   9.715   7.129  0.0456  0.6173  1.3191
  715MOL0     C96456   4.140  10.304   7.124  0.2533  0.0079  0.5658
  715MOL0     C96457   4.143  10.381   7.013 -0.8302 -0.5390  0.4381
  715MOL0     H96458   4.108  10.781   6.733  0.6453 -0.3765  3.7393
  715MOL0     H96459   4.136  10.959   6.569  0.1275 -0.5492  0.1181
  715MOL0     H96460   4.206  11.211   6.488  0.4005  2.1457 -0.8707
  715MOL0     H96461   4.240  11.192   6.660  0.0890  1.7796 -0.8573
  715MOL0     H96462   4.458  11.307   6.629  0.0598 -1.8000 -0.1620
  715MOL0     H96463   4.396  11.377   6.473  3.8791 -0.4582  1.6821
  715MOL0     H96464   4.267  11.391   6.754  1.7857  0.9407  2.4016
  715MOL0     H96465   4.377  11.499   6.685  0.2067 -0.2719  2.1807
  715MOL0     H96466   4.240  11.555   6.488  0.2747  3.0659  1.0948
  715MOL0     H96467   4.123  11.427   6.543  1.2937 -0.6025 -2.0707
  715MOL0     H96468   4.062  11.674   6.596  1.7965  0.7781 -1.9319
  715MOL0     H96469   4.060  11.583   6.739  0.6995  2.5339  1.2528
  715MOL0     H96470   4.275  11.651   6.811 -0.0380 -0.6312 -0.0559
  715MOL0     H96471   4.295  11.746   6.655 -1.3604  1.9393 -1.2395
  715MOL0     H96472   4.069  11.807   6.853 -1.4750  2.8082 -0.7283
  715MOL0     H96473   4.218  11.892   6.851 -1.7879  2.4557 -0.0352
  715MOL0     H96474   4.011  11.925   6.656  0.2158  0.6576  1.7135
  715MOL0     H96475   4.168  11.916   6.590  1.0880 -0.9061  0.4986
  715MOL0     H96476   4.020  12.112   6.901 -1.4838  1.3299 -1.2856
  715MOL0     H96477   4.108  12.354   7.015 -1.2908  0.5417 -1.1974
  715MOL0     H96478   4.223  12.444   6.917  0.0694  0.4434 -1.0627
  715MOL0     H96479   3.926  12.403   6.844 -1.0322 -1.8713  3.0355
  715MOL0     H96480   4.049  12.483   6.744  0.4981 -1.9145  0.1377
  715MOL0     H96481   4.104  12.660   6.912 -0.4185  1.2294 -0.4314
  715MOL0     H96482   4.013  12.574   7.035  1.0021 -1.7726 -0.3037
  715MOL0     H96483   3.805  12.601   6.879 -1.0002  1.2216 -2.7128
  715MOL0     H96484   3.896  12.709   6.784 -0.6359  1.3679  0.2066
  715MOL0     H96485   3.742  12.891   7.179  2.8290 -0.7083 -1.1480
  715MOL0     H96486   3.457  13.031   7.241  0.4691 -2.0129 -1.2149
  715MOL0     H96487   3.630  13.022   7.295 -1.5377 -0.9509  1.6430
  715MOL0     H96488   3.562  13.174   7.231 -1.8175 -0.8132  0.8320
  715MOL0     H96489   3.207  13.263   6.851 -1.6841 -3.8479  2.4579
  715MOL0     H96490   3.034  13.434   6.856 -0.9120  2.4887  0.5931
  715MOL0     H96491   2.952  13.669   6.884 -0.7665  1.3929 -0.1293
  715MOL0     H96492   2.818  13.586   6.965 -1.7272  1.6123  1.0241
  715MOL0     H96493   2.783  13.788   7.113  2.5233  1.3644  2.7358
  715MOL0     H96494   2.929  13.865   7.039 -0.9364  1.4173 -1.2178
  715MOL0     H96495   2.662  13.805   6.910 -2.0496  2.6494 -1.7793
  715MOL0     H96496   2.812  13.839   6.819  1.5789 -1.2216  0.6423
  715MOL0     H96497   2.734  14.000   7.058  3.8248  0.7806  0.8880
  715MOL0     H96498   2.834  14.053   6.922 -0.4259  1.5312  0.7211
  715MOL0     H96499   2.520  13.986   6.898  0.6211 -1.3888 -2.9584
  715MOL0     H96500   2.631  14.040   6.769 -0.8115  0.6095 -0.7974
  715MOL0     H96501   2.577  14.209   7.017 -1.3389 -1.7669  0.2721
  715MOL0     H96502   2.689  14.229   6.876  0.5040 -2.0554 -1.3654
  715MOL0     H96503   2.387  14.242   6.900 -0.3864 -0.4055 -1.2380
  715MOL0     H96504   2.452  14.184   6.739  1.2941 -0.7927 -0.8681
  715MOL0     H96505   2.405  14.438   6.735 -0.8814 -1.8800 -1.0182
  715MOL0     H96506   2.580  14.408   6.737 -2.3667 -0.6405 -3.5207
  715MOL0     H96507   3.147  13.540   7.252 -3.9187 -1.0136  0.2780
  715MOL0     H96508   3.348  13.391   7.220 -0.0691  3.0550  0.2687
  715MOL0     H96509   3.545  12.983   6.752  1.7029 -1.9659 -0.5276
  715MOL0     H96510   3.693  12.803   6.764  1.1921 -0.2229  0.3641
  715MOL0     H96511   4.553  10.997   6.647 -1.9340  2.1573 -0.4350
  715MOL0     H96512   4.523  10.819   6.819 -1.4505 -0.0615  1.8969
  715MOL0     H96513   4.417  10.572   7.116 -0.9287  1.1432  1.4698
  715MOL0     H96514   4.414  10.427   7.291  2.1356 -0.7654 -0.6851
  715MOL0     H96515   4.115  10.081   7.420 -0.1492  0.8175  0.0738
  715MOL0     H96516   4.145  10.070   7.252 -1.0871  1.8325 -0.6879
  715MOL0     H96517   4.383  10.068   7.431  2.6466  0.5932 -2.1295
  715MOL0     H96518   4.371  10.004   7.271  0.5368  2.7657 -0.3227
  715MOL0     H96519   4.221   9.913   7.529  0.6255  2.0573 -0.1312
  715MOL0     H96520   4.358   9.828   7.440 -1.0101 -0.5400 -0.5145
  715MOL0     H96521   4.075   9.846   7.333 -0.6291 -0.5774  3.1575
  715MOL0     H96522   4.154   9.704   7.415  1.8876  0.2194  0.5735
  715MOL0     H96523   4.320   9.658   7.052 -0.0102 -0.2439  1.9135
  715MOL0     H96524   4.057  10.234   7.137  0.4991 -0.6938 -1.3861
  715MOL0     H96525   4.062  10.365   6.943 -1.2464  2.8506  0.0002
  716MOL0     O96526  11.257   0.761   3.125  0.0472  0.0081 -0.3928
  716MOL0     C96527  11.181   0.734   3.216 -0.3226  0.3611  0.6768
  716MOL0     O96528  11.083   0.633   3.212 -0.2172  0.9290 -0.1567
  716MOL0     C96529  11.083   0.536   3.112  0.2875 -0.6099 -0.6691
  716MOL0     C96530  11.206   0.484   3.070  0.1446  0.0396 -0.6264
  716MOL0     C96531  11.212   0.376   2.988  0.8091  0.3250  0.2225
  716MOL0     C96532  11.093   0.314   2.955 -0.9981 -0.0215 -0.4764
  716MOL0     O96533  11.108   0.208   2.875  0.1143 -0.6519 -0.1761
  716MOL0     C96534  11.061   0.085   2.928  0.0422  0.1308  0.5329
  716MOL0     C96535  11.185  -0.007   2.938  0.3352  1.3464 -0.3171
  716MOL0     C96536  11.273   0.039   3.051 -0.6903  0.2990 -0.8721
  716MOL0     C96537  11.334  -0.075   3.119  0.3662 -0.5312 -0.3621
  716MOL0     C96538  11.444  -0.047   3.215  0.1220  0.2852  0.2701
  716MOL0     C96539  11.457  -0.167   3.313 -0.2687 -0.4126  0.4213
  716MOL0     C96540  11.508  -0.290   3.238  0.4126  0.5938  0.1691
  716MOL0     C96541  11.525  -0.406   3.336  0.5448 -0.5769  0.4365
  716MOL0     N96542  11.630  -0.398   3.439  0.5582 -0.5294  0.0572
  716MOL0     C96543  11.722  -0.305   3.479 -0.4509 -1.2657  0.1574
  716MOL0     C96544  11.813  -0.354   3.558  0.1067  0.0038 -0.4192
  716MOL0     C96545  11.921  -0.283   3.642  1.2711  0.2654 -0.6502
  716MOL0     C96546  12.062  -0.318   3.580  0.0768 -0.3260  0.2733
  716MOL0     C96547  12.175  -0.253   3.659  0.3535  0.2328  0.3900
  716MOL0     C96548  12.321  -0.286   3.613  0.3710  0.9666 -0.2586
  716MOL0     O96549  12.362  -0.420   3.654 -0.2470  0.1500  0.2361
  716MOL0     C96550  12.427  -0.505   3.560  0.8672  0.1341 -0.7553
  716MOL0     C96551  12.507  -0.600   3.613 -0.1682  0.7574 -0.1239
  716MOL0     C96552  12.595  -0.678   3.541  0.8281  0.4696  0.3687
  716MOL0     C96553  12.683  -0.769   3.614  0.5859  0.7377  0.4993
  716MOL0     C96554  12.593  -0.665   3.398  0.8775 -0.1564  0.3500
  716MOL0     C96555  12.676  -0.739   3.296  0.2097  0.1217  0.7762
  716MOL0     O96556  12.614  -0.762   3.180  0.3590  0.2266  0.2225
  716MOL0     C96557  12.683  -0.804   3.068 -0.3733 -0.4999  0.3467
  716MOL0     C96558  12.710  -0.937   3.055 -0.2593  0.4853  0.3848
  716MOL0     C96559  12.759  -0.998   2.935 -0.5800 -0.3910  0.9744
  716MOL0     C96560  12.792  -0.915   2.826 -1.0959 -0.2278  0.0579
  716MOL0     O96561  12.852  -0.953   2.701 -0.6625 -0.5264  0.6238
  716MOL0     C96562  12.875  -1.096   2.677 -1.2796 -0.2270  0.3664
  716MOL0     C96563  12.934  -1.109   2.540 -0.7480  0.5469 -0.0232
  716MOL0     C96564  12.831  -1.070   2.439  0.4954  0.0374  0.5408
  716MOL0     C96565  12.867  -1.109   2.296  0.0936  0.1607  0.3765
  716MOL0     C96566  12.770  -1.028   2.205  0.6395 -0.9180  0.7142
  716MOL0     C96567  12.764  -1.086   2.070 -0.3039 -0.4073  0.1011
  716MOL0     C96568  12.702  -1.004   1.960  0.2088 -0.6446  0.3290
  716MOL0     C96569  12.551  -0.986   1.973 -0.7961 -0.3037 -0.3278
  716MOL0    Cl96570  12.465  -1.136   1.927 -0.0836  0.4602  0.2663
  716MOL0     C96571  12.764  -0.777   2.839  0.3685 -0.5083 -0.1307
  716MOL0     C96572  12.693  -0.720   2.953  0.5863  0.8027  0.6885
  716MOL0     O96573  12.786  -0.786   3.325 -0.1446  0.1165  0.4681
  716MOL0     C96574  12.495  -0.573   3.346 -0.1294 -0.0534 -0.5862
  716MOL0     C96575  12.418  -0.493   3.422 -0.1446 -1.0235  0.1207
  716MOL0     N96576  11.764  -0.489   3.573 -0.3826  0.0881  0.6086
  716MOL0     N96577  11.654  -0.511   3.508  0.0709 -0.3760 -0.2696
  716MOL0     C96578  10.967   0.360   2.999 -0.4921  0.4529 -0.0879
  716MOL0     C96579  10.965   0.472   3.075 -0.6580 -0.0113 -0.0429
  716MOL0     C96580  11.183   0.820   3.326  0.0688 -0.2402  0.3612
  716MOL0     C96581  11.224   0.952   3.315 -0.4959  0.5856 -0.1297
  716MOL0     C96582  11.247   1.031   3.430  0.7368 -0.1704 -1.3781
  716MOL0     C96583  11.227   0.977   3.557 -0.5479 -0.2416  0.0911
  716MOL0     O96584  11.268   1.032   3.674 -0.7146 -0.3229 -0.0924
  716MOL0     C96585  11.353   1.151   3.681  0.0629 -0.5985 -0.0685
  716MOL0     C96586  11.509   1.140   3.671 -0.6265 -0.2393 -0.6294
  716MOL0     C96587  11.566   1.041   3.779  0.2159  0.1104 -0.1317
  716MOL0     C96588  11.707   1.014   3.749 -1.0303 -0.0312 -0.3597
  716MOL0     C96589  11.762   0.927   3.855  0.4807  0.2089  0.6070
  716MOL0     C96590  11.799   0.861   3.948 -0.0697  0.6835  0.2895
  716MOL0     C96591  11.163   0.846   3.563 -0.4806  0.4102  0.0167
  716MOL0     C96592  11.150   0.769   3.450  0.4694 -0.6393  0.0600
  716MOL0     H96593  11.302   0.529   3.090  0.1090 -0.4129  0.6293
  716MOL0     H96594  11.300   0.324   2.951 -0.4657 -1.5429 -0.3595
  716MOL0     H96595  11.011   0.092   3.025 -0.4321  4.3251  0.1898
  716MOL0     H96596  10.992   0.047   2.852  0.2132  0.2619  0.3133
  716MOL0     H96597  11.147  -0.109   2.945  0.3659  1.1080 -2.6902
  716MOL0     H96598  11.247  -0.010   2.848 -3.5326 -1.6320 -3.2519
  716MOL0     H96599  11.354   0.108   3.024  2.1433 -1.6867  1.8461
  716MOL0     H96600  11.203   0.091   3.117 -1.1633  1.4300 -2.2171
  716MOL0     H96601  11.253  -0.119   3.177  1.0363  0.3865  1.3685
  716MOL0     H96602  11.363  -0.144   3.040 -1.6557 -0.2827 -1.3794
  716MOL0     H96603  11.534  -0.030   3.156  0.3506  2.2850  1.0977
  716MOL0     H96604  11.423   0.039   3.279 -1.1990 -0.3904  0.7836
  716MOL0     H96605  11.521  -0.143   3.398 -0.2379  3.5010 -0.5419
  716MOL0     H96606  11.358  -0.179   3.356  0.2571  1.0713  2.1580
  716MOL0     H96607  11.443  -0.316   3.153  1.1130 -0.4508 -0.0717
  716MOL0     H96608  11.605  -0.266   3.195  0.3656  4.0469  1.7082
  716MOL0     H96609  11.534  -0.493   3.270 -3.9207 -2.4116  1.8232
  716MOL0     H96610  11.433  -0.427   3.391  1.5324 -0.7670  2.0706
  716MOL0     H96611  11.716  -0.199   3.454 -0.0137 -0.9409  1.3750
  716MOL0     H96612  11.901  -0.176   3.635 -1.4475 -0.1948 -1.1992
  716MOL0     H96613  11.909  -0.312   3.747 -2.0467  0.7629 -0.7811
  716MOL0     H96614  12.064  -0.288   3.475  0.9381 -0.7329  0.1624
  716MOL0     H96615  12.073  -0.427   3.584 -0.4265 -0.4658 -1.4645
  716MOL0     H96616  12.166  -0.292   3.761 -0.4923  0.4820  0.4179
  716MOL0     H96617  12.151  -0.147   3.673  1.6142  0.3312  2.2936
  716MOL0     H96618  12.381  -0.224   3.680  0.7973  1.2260 -0.8751
  716MOL0     H96619  12.352  -0.272   3.509  2.0128 -5.4630 -1.0730
  716MOL0     H96620  12.518  -0.618   3.720  0.4518  0.1987 -0.2796
  716MOL0     H96621  12.783  -0.727   3.626  1.0821 -0.1814 -0.2303
  716MOL0     H96622  12.646  -0.795   3.714 -0.8113 -1.8973 -0.6053
  716MOL0     H96623  12.700  -0.865   3.565  1.4991  1.4672 -0.6444
  716MOL0     H96624  12.678  -1.004   3.133  1.7370 -0.7834  0.1686
  716MOL0     H96625  12.768  -1.106   2.930 -1.0745 -0.3920 -0.2312
  716MOL0     H96626  12.949  -1.137   2.747 -2.1617 -0.7925  0.9882
  716MOL0     H96627  12.785  -1.155   2.698  0.1251 -1.3673  3.8779
  716MOL0     H96628  13.021  -1.044   2.532 -0.7650  0.5085 -0.5706
  716MOL0     H96629  12.959  -1.214   2.521 -4.2349 -0.4341 -0.0160
  716MOL0     H96630  12.814  -0.962   2.446 -0.0160  0.1488 -1.6583
  716MOL0     H96631  12.739  -1.119   2.470 -0.6631  3.7700  3.9760
  716MOL0     H96632  12.972  -1.089   2.275 -0.4580 -0.2163 -3.3739
  716MOL0     H96633  12.856  -1.216   2.274  0.1853 -0.0292  1.2010
  716MOL0     H96634  12.812  -0.927   2.193  0.4932 -1.0770 -1.6435
  716MOL0     H96635  12.670  -1.025   2.251  1.5048  1.9234  2.6855
  716MOL0     H96636  12.863  -1.117   2.037 -0.7735 -0.0827 -1.6784
  716MOL0     H96637  12.706  -1.178   2.086 -0.4904 -1.6720 -5.8269
  716MOL0     H96638  12.721  -1.066   1.872 -1.9109 -0.6457 -0.1880
  716MOL0     H96639  12.747  -0.905   1.949  1.3227 -1.1978 -0.1677
  716MOL0     H96640  12.529  -0.893   1.918  4.2723  0.9189 -0.7763
  716MOL0     H96641  12.519  -0.978   2.077 -1.3253  0.2314 -0.5234
  716MOL0     H96642  12.800  -0.718   2.755  0.3357 -0.4571 -0.1085
  716MOL0     H96643  12.669  -0.614   2.958  2.4264  1.2490  5.0253
  716MOL0     H96644  12.491  -0.558   3.239 -0.7403 -0.1387 -0.5757
  716MOL0     H96645  12.346  -0.424   3.380 -0.5988 -0.4311  1.7905
  716MOL0     H96646  10.877   0.309   2.964 -0.4560  1.2655 -1.4378
  716MOL0     H96647  10.872   0.503   3.123  0.3800  1.6901  0.9652
  716MOL0     H96648  11.257   0.995   3.221  1.4429 -2.1544 -0.7927
  716MOL0     H96649  11.280   1.133   3.441  2.4842 -0.9797  3.0803
  716MOL0     H96650  11.329   1.230   3.610  2.8316  1.4435  1.0549
  716MOL0     H96651  11.352   1.191   3.783  1.9947 -0.1595 -0.1834
  716MOL0     H96652  11.560   1.235   3.690 -2.9445  0.9686 -0.0909
  716MOL0     H96653  11.544   1.096   3.577  0.9920  2.7341 -1.5233
  716MOL0     H96654  11.506   0.950   3.789 -3.5590  2.3829  0.2061
  716MOL0     H96655  11.551   1.099   3.871 -0.9388 -1.8745  1.0045
  716MOL0     H96656  11.761   1.108   3.743 -2.7382  1.0929  0.8862
  716MOL0     H96657  11.728   0.962   3.655 -0.1593 -0.4085  0.0330
  716MOL0     H96658  11.826   0.803   4.034 -1.0709 -0.4476 -0.1265
  716MOL0     H96659  11.129   0.810   3.660 -2.1761  1.8767  0.0171
  716MOL0     H96660  11.122   0.665   3.466 -1.4865 -0.0092  1.0059
  717MOL0     O96661   5.874   3.818   5.735  0.3452 -0.0664 -0.3682
  717MOL0     C96662   5.824   3.750   5.823 -0.5678 -0.6085 -0.6656
  717MOL0     O96663   5.878   3.742   5.951 -0.4796 -0.3282 -0.7564
  717MOL0     C96664   5.993   3.813   5.999  0.5335  1.1018  0.6274
  717MOL0     C96665   5.997   3.849   6.139 -0.0371  0.7011 -0.4496
  717MOL0     C96666   6.102   3.938   6.180 -0.7866 -0.7381 -0.1454
  717MOL0     C96667   6.203   3.979   6.102  0.2779 -0.2596  0.5844
  717MOL0     O96668   6.296   4.073   6.140  0.6979  0.7027  0.1518
  717MOL0     C96669   6.246   4.192   6.198 -0.6789 -0.6488 -0.2797
  717MOL0     C96670   6.300   4.321   6.132 -0.8430 -0.5787  0.8685
  717MOL0     C96671   6.277   4.331   5.980  0.2356 -0.3609 -0.0347
  717MOL0     C96672   6.130   4.314   5.941 -0.1201 -0.3541 -0.7742
  717MOL0     C96673   6.120   4.328   5.796  0.8480  0.1406 -0.0955
  717MOL0     C96674   5.981   4.345   5.740  0.9131 -0.2292 -0.1893
  717MOL0     C96675   5.853   4.294   5.817  0.4646 -0.0431  0.5235
  717MOL0     C96676   5.837   4.142   5.795 -0.1984 -0.0699 -0.7123
  717MOL0     N96677   5.735   4.087   5.882  0.5575  0.7318  0.2813
  717MOL0     C96678   5.727   4.092   6.021 -0.1881  1.1631  0.0240
  717MOL0     C96679   5.601   4.040   6.052 -0.5184 -0.3544 -0.0918
  717MOL0     C96680   5.548   4.030   6.188  0.1438 -0.2408  0.9675
  717MOL0     C96681   5.574   3.893   6.253  0.2974  1.0914  0.1937
  717MOL0     C96682   5.523   3.775   6.163 -0.4203 -0.6138 -0.6539
  717MOL0     C96683   5.380   3.798   6.113  0.6982  0.3046  0.5082
  717MOL0     O96684   5.292   3.809   6.231 -0.2282 -0.3221  0.6244
  717MOL0     C96685   5.220   3.692   6.267  0.7680  0.4659 -0.1720
  717MOL0     C96686   5.270   3.610   6.372  0.4493 -0.7895  0.2098
  717MOL0     C96687   5.197   3.500   6.420 -0.0574 -0.9792  0.5787
  717MOL0     C96688   5.267   3.424   6.529 -0.1322  0.5817 -0.2272
  717MOL0     C96689   5.068   3.465   6.359 -0.2446 -0.6635 -0.3853
  717MOL0     C96690   4.982   3.364   6.407 -0.8099  0.6842  0.6299
  717MOL0     O96691   5.033   3.280   6.499  0.1695  0.4770  0.9125
  717MOL0     C96692   4.949   3.191   6.555 -0.5573  0.2155  0.3212
  717MOL0     C96693   4.862   3.105   6.480 -0.9947  0.5973 -0.1753
  717MOL0     C96694   4.774   3.018   6.543 -0.5150 -0.0035 -0.1137
  717MOL0     C96695   4.760   3.027   6.683 -0.6179  0.2263  0.0075
  717MOL0     O96696   4.661   2.958   6.744  0.8420 -0.0842  0.1138
  717MOL0     C96697   4.567   3.037   6.824 -0.0033 -0.1126 -0.2625
  717MOL0     C96698   4.435   3.060   6.761  0.0549 -0.7848 -1.4862
  717MOL0     C96699   4.393   2.939   6.689 -0.5243  0.8028  0.0704
  717MOL0     C96700   4.368   2.812   6.774  0.0038 -0.5690 -0.2783
  717MOL0     C96701   4.352   2.695   6.674  0.1913 -0.4644  1.3005
  717MOL0     C96702   4.313   2.560   6.738  0.7165  1.0418  0.6272
  717MOL0     C96703   4.290   2.451   6.632 -0.8898  1.1281 -0.4153
  717MOL0     C96704   4.247   2.324   6.699 -0.7841  0.4763 -0.2774
  717MOL0    Cl96705   4.092   2.329   6.798  0.3807 -0.0666 -0.0007
  717MOL0     C96706   4.860   3.109   6.761  0.5630 -0.4753 -0.2152
  717MOL0     C96707   4.951   3.188   6.694  0.0786  0.3639  0.1248
  717MOL0     O96708   4.865   3.362   6.368  0.1077 -0.5117  0.1004
  717MOL0     C96709   5.028   3.555   6.255  0.4066  0.1761  0.6077
  717MOL0     C96710   5.101   3.666   6.213  0.1984 -0.3406  0.6847
  717MOL0     N96711   5.547   4.013   5.930 -0.1487 -0.6252  0.5321
  717MOL0     N96712   5.619   4.040   5.828 -0.1432  0.1813  0.1639
  717MOL0     C96713   6.203   3.930   5.966 -0.6020  0.1396  0.0739
  717MOL0     C96714   6.105   3.855   5.915  0.7014  0.8912 -0.3920
  717MOL0     C96715   5.710   3.666   5.793  0.6290  0.4994 -0.9898
  717MOL0     C96716   5.617   3.700   5.693  0.3055 -0.1370 -0.6138
  717MOL0     C96717   5.499   3.624   5.676 -0.1691  0.2039 -0.1551
  717MOL0     C96718   5.470   3.511   5.751 -0.3690  0.2003 -0.2987
  717MOL0     O96719   5.356   3.442   5.721 -0.1181  0.4467  0.6188
  717MOL0     C96720   5.275   3.411   5.831 -0.1923 -0.1486 -0.3530
  717MOL0     C96721   5.188   3.531   5.863 -0.3545 -0.3608 -0.6844
  717MOL0     C96722   5.102   3.592   5.747 -1.1328  0.4059 -0.7510
  717MOL0     C96723   5.089   3.744   5.781 -0.2301  0.0745 -0.3810
  717MOL0     C96724   5.219   3.811   5.763  0.1814 -0.2669  0.0959
  717MOL0     C96725   5.312   3.882   5.732  0.1115  0.3003 -0.2085
  717MOL0     C96726   5.575   3.469   5.838  0.4588 -0.9175  0.2692
  717MOL0     C96727   5.688   3.545   5.860  0.4891  0.3525 -0.5522
  717MOL0     H96728   5.926   3.815   6.213  0.9811 -0.1041  0.1883
  717MOL0     H96729   6.104   3.961   6.286  0.4733  0.5996 -0.4213
  717MOL0     H96730   6.138   4.191   6.180 -0.4584 -0.6785 -1.7080
  717MOL0     H96731   6.264   4.195   6.306 -1.8419  0.0469 -0.0833
  717MOL0     H96732   6.258   4.408   6.184  0.8472 -0.3254  1.8643
  717MOL0     H96733   6.407   4.331   6.149 -0.3135 -0.6354 -1.9898
  717MOL0     H96734   6.306   4.427   5.935 -2.5817  0.7803  0.4227
  717MOL0     H96735   6.335   4.253   5.929  0.1412  0.3832 -1.3234
  717MOL0     H96736   6.087   4.219   5.973 -1.0838 -1.3722 -4.6183
  717MOL0     H96737   6.071   4.394   5.988  0.7005  0.2859 -0.8131
  717MOL0     H96738   6.183   4.408   5.755 -0.1204  1.8069  1.5270
  717MOL0     H96739   6.147   4.228   5.762  0.5663  0.7916 -2.3687
  717MOL0     H96740   5.966   4.449   5.712 -0.3049 -0.5887 -0.9073
  717MOL0     H96741   5.982   4.290   5.646 -1.6474 -0.1273 -0.3235
  717MOL0     H96742   5.863   4.314   5.925  0.3086 -2.0657  0.9384
  717MOL0     H96743   5.759   4.332   5.774 -2.0419 -3.2046  2.7285
  717MOL0     H96744   5.931   4.094   5.823 -0.8519 -0.6869  0.5528
  717MOL0     H96745   5.818   4.122   5.690 -2.9171 -1.9862  0.0326
  717MOL0     H96746   5.794   4.132   6.095 -0.6793  2.0129  0.0172
  717MOL0     H96747   5.598   4.108   6.245 -1.2890  0.8693  0.7611
  717MOL0     H96748   5.443   4.060   6.185  0.4145  0.7279 -2.4600
  717MOL0     H96749   5.514   3.891   6.344  1.8895  1.0054  1.2732
  717MOL0     H96750   5.683   3.892   6.262  0.5652  4.3434 -1.3956
  717MOL0     H96751   5.520   3.675   6.207  2.7737  0.1305  1.5853
  717MOL0     H96752   5.588   3.760   6.077 -1.0462 -3.1078 -0.7620
  717MOL0     H96753   5.351   3.710   6.055  0.5419  0.8806 -0.3149
  717MOL0     H96754   5.375   3.883   6.044  1.4889 -1.5584 -1.9915
  717MOL0     H96755   5.367   3.647   6.403  0.9900  1.9911 -3.9669
  717MOL0     H96756   5.369   3.462   6.535  1.3019 -3.0399  3.0581
  717MOL0     H96757   5.213   3.435   6.624  1.2934  0.8642  0.5695
  717MOL0     H96758   5.278   3.316   6.514 -2.7400  0.1353  0.4746
  717MOL0     H96759   4.870   3.111   6.372 -1.4943 -2.0326 -0.4249
  717MOL0     H96760   4.706   2.953   6.489  2.3675 -2.5042 -1.0489
  717MOL0     H96761   4.553   2.996   6.924  0.4520 -0.9465 -0.5301
  717MOL0     H96762   4.614   3.133   6.849 -2.0616  1.6200 -2.5600
  717MOL0     H96763   4.357   3.093   6.829  1.0313 -1.2304 -0.1033
  717MOL0     H96764   4.459   3.128   6.678  4.4979  1.5411  1.2539
  717MOL0     H96765   4.468   2.916   6.613 -2.4590 -3.2047 -0.8968
  717MOL0     H96766   4.298   2.959   6.638 -0.4446 -0.3885 -0.5940
  717MOL0     H96767   4.449   2.798   6.846  0.1053  2.0573  0.2451
  717MOL0     H96768   4.281   2.833   6.837  0.2781 -1.3442  0.3760
  717MOL0     H96769   4.444   2.678   6.618 -1.5083  1.3671 -2.4227
  717MOL0     H96770   4.277   2.729   6.602  2.3916 -0.8894 -1.3669
  717MOL0     H96771   4.383   2.523   6.814 -0.8487  0.1213  1.6907
  717MOL0     H96772   4.219   2.569   6.792 -1.2613 -0.0206 -2.3923
  717MOL0     H96773   4.371   2.447   6.558 -0.7237 -0.2426 -0.1883
  717MOL0     H96774   4.205   2.475   6.567 -0.1689  1.3204 -1.3016
  717MOL0     H96775   4.330   2.300   6.767 -1.7081  3.1519  1.9901
  717MOL0     H96776   4.235   2.239   6.631 -2.0398 -0.4575  1.0634
  717MOL0     H96777   4.860   3.111   6.869 -0.4833 -2.2483 -0.1337
  717MOL0     H96778   5.032   3.230   6.752  0.4771 -0.8416  0.4682
  717MOL0     H96779   4.933   3.529   6.210  1.1054 -0.9435 -0.2759
  717MOL0     H96780   5.058   3.735   6.142  0.4387 -1.1189 -0.2385
  717MOL0     H96781   6.270   3.963   5.888 -0.1814 -1.9783 -0.5364
  717MOL0     H96782   6.091   3.835   5.809 -0.3657  1.2294 -0.3200
  717MOL0     H96783   5.623   3.794   5.640 -2.9731  0.2841 -0.4851
  717MOL0     H96784   5.429   3.664   5.603  1.5540  0.7284 -1.5832
  717MOL0     H96785   5.209   3.327   5.807  0.5755 -1.5616  2.0365
  717MOL0     H96786   5.337   3.380   5.917  1.3111  1.6362 -0.7225
  717MOL0     H96787   5.251   3.608   5.907  1.9009 -1.5582 -1.6231
  717MOL0     H96788   5.128   3.502   5.950  2.6531 -0.9537  1.3253
  717MOL0     H96789   5.003   3.546   5.736  0.3628 -4.5989  3.3838
  717MOL0     H96790   5.156   3.572   5.653 -0.4859  2.6081 -0.9061
  717MOL0     H96791   5.041   3.766   5.877  0.5808  1.4523 -0.2660
  717MOL0     H96792   5.027   3.786   5.702 -0.1013 -1.9853 -1.6655
  717MOL0     H96793   5.398   3.939   5.704  0.8622 -0.9362 -0.5183
  717MOL0     H96794   5.561   3.368   5.875  1.7893 -0.6377  1.6422
  717MOL0     H96795   5.761   3.504   5.929  1.5130  3.6236  0.4970
  718MOL0     O96796   0.722   0.526   2.287  0.0093 -0.9160  0.2745
  718MOL0     C96797   0.798   0.593   2.213  0.2861  0.5747 -0.5113
  718MOL0     O96798   0.925   0.624   2.249 -0.1583  0.0352  0.0923
  718MOL0     C96799   0.968   0.597   2.379 -0.0367  0.3308 -0.0748
  718MOL0     C96800   0.911   0.650   2.496  0.3211  0.1315 -0.3600
  718MOL0     C96801   0.963   0.626   2.623 -0.5676 -0.1834  0.0869
  718MOL0     C96802   1.075   0.544   2.635  0.7827  0.5223  0.1513
  718MOL0     O96803   1.129   0.523   2.754 -0.4672 -0.0629 -0.2092
  718MOL0     C96804   1.264   0.585   2.762  0.4982  0.3077 -0.3708
  718MOL0     C96805   1.286   0.630   2.911  0.5581 -0.4995  0.3425
  718MOL0     C96806   1.206   0.751   2.945  0.3667  0.5083 -0.2733
  718MOL0     C96807   1.073   0.707   3.014  0.2085  0.0008  0.6212
  718MOL0     C96808   1.015   0.819   3.110  0.4394 -0.2304  0.4928
  718MOL0     C96809   0.957   0.942   3.040  1.5440  0.5665  0.3799
  718MOL0     C96810   0.828   0.916   2.956  0.4993 -0.0431  0.3844
  718MOL0     C96811   0.764   1.053   2.907 -0.0877  0.3556  0.9206
  718MOL0     N96812   0.853   1.125   2.816  0.7625 -0.9956 -0.1910
  718MOL0     C96813   0.912   1.061   2.713 -0.1769  0.8279  0.2597
  718MOL0     C96814   1.020   1.140   2.695 -0.4144 -0.9825  0.7089
  718MOL0     C96815   1.119   1.151   2.579 -0.1037  0.1384  0.5307
  718MOL0     C96816   1.222   1.035   2.578 -1.0235  0.3193 -0.3837
  718MOL0     C96817   1.359   1.093   2.533  0.9535  0.2959  0.5616
  718MOL0     C96818   1.362   1.140   2.385  0.3469 -0.5470  0.4829
  718MOL0     O96819   1.493   1.200   2.358  0.4075  0.3655  0.6467
  718MOL0     C96820   1.534   1.226   2.221 -0.3123 -0.1893 -0.1578
  718MOL0     C96821   1.629   1.331   2.217 -0.4151 -0.3282 -0.5839
  718MOL0     C96822   1.675   1.373   2.094 -0.8390  0.1366 -0.6779
  718MOL0     C96823   1.790   1.484   2.095  1.2737  0.9445  0.2310
  718MOL0     C96824   1.624   1.320   1.978  0.1412 -0.3138 -0.1141
  718MOL0     C96825   1.678   1.347   1.846 -0.0808 -1.0095 -0.2175
  718MOL0     O96826   1.761   1.451   1.821  0.7112 -0.1337 -0.6935
  718MOL0     C96827   1.790   1.500   1.703 -0.3964 -0.5398 -0.4225
  718MOL0     C96828   1.822   1.636   1.723 -0.0949  0.5623  0.5697
  718MOL0     C96829   1.872   1.704   1.608 -0.2071 -0.2722  0.3901
  718MOL0     C96830   1.871   1.648   1.480  0.3975  0.2072 -1.2176
  718MOL0     O96831   1.914   1.721   1.379 -0.1788  0.1084 -0.6288
  718MOL0     C96832   1.863   1.704   1.243  0.5030 -0.1274 -0.6463
  718MOL0     C96833   1.906   1.817   1.148  0.0406 -0.1944 -0.4762
  718MOL0     C96834   1.872   1.953   1.206 -0.2393 -0.2763  0.2246
  718MOL0     C96835   1.910   2.062   1.102 -0.2607  0.2556 -0.2465
  718MOL0     C96836   2.034   2.047   1.022 -0.0510  0.7472  0.0437
  718MOL0     C96837   2.170   2.037   1.101  0.7799 -0.8087  0.7966
  718MOL0     C96838   2.278   1.989   1.007  0.6412 -0.2765 -0.1845
  718MOL0     C96839   2.419   2.028   1.063  0.3504 -0.0955 -0.3360
  718MOL0    Cl96840   2.523   1.989   0.920 -0.1939  0.1298  0.5725
  718MOL0     C96841   1.832   1.511   1.467 -0.3970 -0.1230  0.3572
  718MOL0     C96842   1.785   1.446   1.574  0.1900  0.2815  0.4532
  718MOL0     O96843   1.652   1.265   1.762  0.0134  0.0028  0.2918
  718MOL0     C96844   1.527   1.215   1.989 -0.2939  0.4585 -0.2706
  718MOL0     C96845   1.481   1.170   2.113 -0.9607  0.2845 -0.5075
  718MOL0     N96846   1.027   1.235   2.792  0.8470  0.0226 -1.6523
  718MOL0     N96847   0.921   1.232   2.862 -0.4731  0.2785  0.1273
  718MOL0     C96848   1.131   0.486   2.519 -0.1605 -0.7258 -0.0678
  718MOL0     C96849   1.082   0.523   2.395  0.0681  0.0137  0.2274
  718MOL0     C96850   0.755   0.623   2.081  1.1877 -0.6655 -0.3217
  718MOL0     C96851   0.623   0.573   2.047  0.3653 -0.9181  0.0360
  718MOL0     C96852   0.574   0.595   1.916 -0.7457 -0.2568  0.6420
  718MOL0     C96853   0.651   0.679   1.825  0.4060  0.8206  0.3286
  718MOL0     O96854   0.628   0.688   1.688  0.3836 -0.0797 -0.8573
  718MOL0     C96855   0.550   0.596   1.611  0.2435 -0.3500 -1.0044
  718MOL0     C96856   0.401   0.632   1.633 -0.4494  0.4373 -1.5034
  718MOL0     C96857   0.323   0.629   1.506  0.7483  0.3023  0.6791
  718MOL0     C96858   0.322   0.769   1.441 -0.9676 -1.2814  0.0209
  718MOL0     C96859   0.194   0.795   1.368  0.8208 -0.6010  0.0811
  718MOL0     C96860   0.079   0.811   1.332 -0.4081 -0.4399 -0.6030
  718MOL0     C96861   0.769   0.739   1.869  0.2950 -0.2383 -0.6164
  718MOL0     C96862   0.818   0.715   1.992 -1.2239  0.1068  0.5456
  718MOL0     H96863   0.814   0.698   2.494 -0.1606 -0.7657  0.4170
  718MOL0     H96864   0.921   0.676   2.710  1.1094  0.5659  0.5215
  718MOL0     H96865   1.344   0.512   2.747  1.3726  0.7735  1.6276
  718MOL0     H96866   1.279   0.671   2.698  0.7390  0.2639 -0.3712
  718MOL0     H96867   1.281   0.549   2.985 -0.7843  1.1289  2.1496
  718MOL0     H96868   1.388   0.669   2.907  1.4490 -2.4940  1.6316
  718MOL0     H96869   1.267   0.800   3.021 -0.2309 -0.6237  0.9715
  718MOL0     H96870   1.200   0.820   2.861  0.3754  0.5848 -0.2104
  718MOL0     H96871   0.999   0.677   2.941  1.2039  0.2041 -0.5031
  718MOL0     H96872   1.098   0.622   3.078 -0.2528 -1.3663 -0.9579
  718MOL0     H96873   0.947   0.759   3.172  0.2859 -1.2804 -0.6416
  718MOL0     H96874   1.089   0.874   3.167 -1.2108  2.5736  0.1056
  718MOL0     H96875   0.920   1.005   3.121 -0.5620 -1.0035  0.7344
  718MOL0     H96876   1.036   0.999   2.990 -0.5204  2.1282 -1.2499
  718MOL0     H96877   0.853   0.851   2.872  1.1788  2.2226 -1.2549
  718MOL0     H96878   0.751   0.882   3.026 -0.0509  1.4800  0.5583
  718MOL0     H96879   0.742   1.116   2.995 -0.0336  4.0150 -1.4585
  718MOL0     H96880   0.667   1.037   2.860 -1.2245  1.6644  2.6676
  718MOL0     H96881   0.870   0.975   2.662 -2.0164  0.5231  2.1833
  718MOL0     H96882   1.053   1.156   2.491  0.5508 -1.0721 -0.0568
  718MOL0     H96883   1.168   1.247   2.594 -0.8649  0.3497  1.7250
  718MOL0     H96884   1.188   0.956   2.511 -1.5194  0.6513 -0.5363
  718MOL0     H96885   1.228   0.988   2.676 -0.2956 -1.7154 -1.3523
  718MOL0     H96886   1.430   1.010   2.530 -1.1140 -1.5587 -0.9305
  718MOL0     H96887   1.398   1.169   2.600 -2.2026  2.0355  0.6208
  718MOL0     H96888   1.286   1.218   2.376  1.9934  1.2647  1.3601
  718MOL0     H96889   1.347   1.047   2.330  1.1785 -0.4591  0.0809
  718MOL0     H96890   1.673   1.375   2.306  0.0487  2.0637 -1.8969
  718MOL0     H96891   1.771   1.568   2.027 -4.3509 -0.1581 -0.0844
  718MOL0     H96892   1.802   1.522   2.197 -0.7273  2.4762 -0.0534
  718MOL0     H96893   1.883   1.430   2.077  1.0916  0.7240 -0.0672
  718MOL0     H96894   1.796   1.690   1.814 -0.7935 -0.2828  0.8889
  718MOL0     H96895   1.909   1.804   1.628 -2.0843  1.0886 -2.2984
  718MOL0     H96896   1.892   1.606   1.206  1.1621 -0.1919  0.0086
  718MOL0     H96897   1.754   1.715   1.246  0.6081  1.5825 -1.8595
  718MOL0     H96898   2.014   1.805   1.136 -0.1428 -1.3202 -1.1601
  718MOL0     H96899   1.867   1.807   1.046 -1.0602 -0.4844 -0.0427
  718MOL0     H96900   1.921   1.969   1.302 -0.0370  1.0309 -0.0765
  718MOL0     H96901   1.766   1.969   1.229 -0.6042  1.2308 -2.2073
  718MOL0     H96902   1.830   2.073   1.028  1.6330  2.9063 -2.0689
  718MOL0     H96903   1.915   2.159   1.152 -2.7689  0.3741 -0.0622
  718MOL0     H96904   2.042   2.130   0.951 -0.6400 -0.3920 -1.4331
  718MOL0     H96905   2.019   1.956   0.963 -1.7480 -0.2553  1.9140
  718MOL0     H96906   2.203   2.133   1.142  2.1503 -1.3287  0.9649
  718MOL0     H96907   2.153   1.965   1.182 -0.6814  0.7363  1.9629
  718MOL0     H96908   2.281   2.042   0.911  1.1074 -1.9510 -1.1441
  718MOL0     H96909   2.254   1.887   0.975 -5.9520  0.8208  0.0111
  718MOL0     H96910   2.425   1.971   1.156 -3.6058 -0.3480 -0.0802
  718MOL0     H96911   2.427   2.137   1.077  4.1264 -0.2111 -0.5579
  718MOL0     H96912   1.828   1.469   1.368 -0.2154  0.1868  0.2164
  718MOL0     H96913   1.759   1.344   1.550  1.2738 -0.1618  1.1422
  718MOL0     H96914   1.492   1.157   1.905 -3.0021 -1.5315  2.0422
  718MOL0     H96915   1.403   1.095   2.125 -1.3951  0.5686 -1.4688
  718MOL0     H96916   1.214   0.417   2.531 -0.3009 -0.6080  1.9534
  718MOL0     H96917   1.142   0.485   2.312  1.5914  0.7563  0.9404
  718MOL0     H96918   0.568   0.497   2.101 -3.8417  0.9080 -1.2326
  718MOL0     H96919   0.485   0.538   1.889 -1.2331  1.1362 -0.9214
  718MOL0     H96920   0.579   0.607   1.506  1.8334  1.9308 -0.4135
  718MOL0     H96921   0.574   0.496   1.646 -0.2628  0.4975  2.0231
  718MOL0     H96922   0.388   0.729   1.681 -3.2274 -0.1469 -0.8454
  718MOL0     H96923   0.369   0.549   1.697  1.0654 -2.5888 -4.3335
  718MOL0     H96924   0.221   0.611   1.538  0.5854  1.3756  0.8169
  718MOL0     H96925   0.360   0.551   1.438 -0.0817 -0.9570  1.6391
  718MOL0     H96926   0.407   0.770   1.372 -0.7302 -0.9480  0.3105
  718MOL0     H96927   0.341   0.849   1.514  2.5155 -0.5643 -1.4665
  718MOL0     H96928  -0.024   0.816   1.301  0.1162 -0.0941 -2.4063
  718MOL0     H96929   0.814   0.812   1.803 -0.3186  0.7087 -0.0111
  718MOL0     H96930   0.917   0.751   2.018 -0.2386 -0.6235 -1.9573
  719MOL0     O96931   3.938   5.255   0.192  0.6914  0.7053 -0.2149
  719MOL0     C96932   3.843   5.257   0.275 -0.2124  0.6532 -0.3175
  719MOL0     O96933   3.852   5.243   0.408 -0.3326  0.0527 -0.7300
  719MOL0     C96934   3.978   5.228   0.462 -0.3309 -0.1465  0.1845
  719MOL0     C96935   4.081   5.318   0.456 -0.3840  1.0881 -0.0021
  719MOL0     C96936   4.202   5.303   0.522 -1.5887 -0.0408 -0.1361
  719MOL0     C96937   4.224   5.196   0.608 -0.5727 -0.5694 -0.4304
  719MOL0     O96938   4.351   5.181   0.666 -0.1917  0.5656  0.5161
  719MOL0     C96939   4.350   5.117   0.796  0.2896  0.4994 -0.2426
  719MOL0     C96940   4.403   4.973   0.782 -1.1598 -0.4493 -0.0982
  719MOL0     C96941   4.469   4.937   0.913 -1.1143  0.8707  0.6574
  719MOL0     C96942   4.527   4.791   0.906 -0.1067  0.8062 -0.4056
  719MOL0     C96943   4.526   4.733   1.053  0.0128  0.4243  0.1179
  719MOL0     C96944   4.630   4.617   1.076  0.0864 -0.3918 -1.0253
  719MOL0     C96945   4.614   4.573   1.225 -0.0066 -0.3003 -0.5020
  719MOL0     C96946   4.748   4.567   1.287 -0.9494  0.2822 -0.9798
  719MOL0     N96947   4.795   4.708   1.312  0.2865  0.3467  0.0865
  719MOL0     C96948   4.885   4.767   1.225  0.2754 -0.0702  0.0827
  719MOL0     C96949   4.879   4.895   1.261  0.1026 -0.1736  0.0303
  719MOL0     C96950   4.950   5.010   1.191 -0.4222  0.7285 -0.1737
  719MOL0     C96951   4.852   5.095   1.112 -0.0911  0.7010 -0.4411
  719MOL0     C96952   4.935   5.192   1.030  0.3042  0.5617 -0.3772
  719MOL0     C96953   4.963   5.138   0.888  1.1004 -0.3927 -0.7610
  719MOL0     O96954   4.838   5.111   0.823 -0.2852 -0.1586  0.3636
  719MOL0     C96955   4.845   5.031   0.713 -0.8627  0.5079 -0.9394
  719MOL0     C96956   4.742   5.043   0.619 -0.6957  0.2114  0.6948
  719MOL0     C96957   4.727   4.969   0.498  0.6703 -0.5960  0.2333
  719MOL0     C96958   4.607   5.004   0.407  0.1233 -0.0099  0.0868
  719MOL0     C96959   4.839   4.889   0.456  0.3492 -0.2077  0.9151
  719MOL0     C96960   4.838   4.809   0.333 -0.5726  1.0449 -0.7390
  719MOL0     O96961   4.922   4.713   0.325 -0.0392  0.1027  0.2448
  719MOL0     C96962   4.922   4.622   0.216 -0.4233 -0.0773  0.5883
  719MOL0     C96963   5.042   4.552   0.191  1.2730 -0.0481 -0.6376
  719MOL0     C96964   5.059   4.461   0.090 -0.1730  0.1409  0.2725
  719MOL0     C96965   4.945   4.422   0.006 -0.3453  0.4144  0.4603
  719MOL0     O96966   4.963   4.352  -0.106 -0.7157  0.0262 -0.2164
  719MOL0     C96967   4.849   4.309  -0.182  0.0169 -0.6178 -0.5335
  719MOL0     C96968   4.899   4.213  -0.282 -0.0867  0.6342 -0.6566
  719MOL0     C96969   4.793   4.194  -0.386 -0.3711  0.2092  0.0003
  719MOL0     C96970   4.783   4.309  -0.479 -0.3527 -0.5660  1.0382
  719MOL0     C96971   4.739   4.268  -0.624  0.1061  0.0495  0.4302
  719MOL0     C96972   4.751   4.393  -0.706  0.5602  0.5494 -0.3155
  719MOL0     C96973   4.692   4.387  -0.849 -0.4294 -0.0556  0.2025
  719MOL0     C96974   4.796   4.328  -0.948  0.5759  0.6935  0.3366
  719MOL0    Cl96975   4.700   4.286  -1.091  0.1051  0.1250  0.6400
  719MOL0     C96976   4.818   4.483   0.044 -0.1059  0.6234  0.7502
  719MOL0     C96977   4.804   4.578   0.143  0.1331 -0.1530  0.3833
  719MOL0     O96978   4.757   4.832   0.245 -0.0965 -0.7897 -0.9691
  719MOL0     C96979   4.952   4.888   0.541 -0.3815 -0.7665 -0.1969
  719MOL0     C96980   4.957   4.949   0.667  0.4014 -0.0608  0.0681
  719MOL0     N96981   4.786   4.916   1.366  0.3782 -0.2979 -0.3085
  719MOL0     N96982   4.733   4.798   1.393 -0.6133  0.7649  0.0962
  719MOL0     C96983   4.118   5.102   0.613 -1.0486  1.0163 -0.6263
  719MOL0     C96984   4.001   5.119   0.548  0.5916 -0.2993  0.0610
  719MOL0     C96985   3.709   5.285   0.218  0.5540 -0.0209  0.5562
  719MOL0     C96986   3.686   5.313   0.085  0.8938  0.2833 -0.4762
  719MOL0     C96987   3.562   5.321   0.016 -0.4236  0.8582 -0.5290
  719MOL0     C96988   3.448   5.330   0.105  0.1564 -0.7503 -0.7753
  719MOL0     O96989   3.320   5.319   0.056  0.1501  0.4176 -0.8197
  719MOL0     C96990   3.306   5.352  -0.083 -0.1882  0.1308 -1.1706
  719MOL0     C96991   3.162   5.379  -0.123  0.7199  0.1933 -0.6146
  719MOL0     C96992   3.142   5.399  -0.272 -0.7047  0.3137  0.0677
  719MOL0     C96993   3.179   5.292  -0.372 -0.7096 -0.1157  0.5403
  719MOL0     C96994   3.119   5.161  -0.332  0.2174 -0.3442 -0.4353
  719MOL0     C96995   3.053   5.076  -0.287 -0.2576 -0.0505  0.4710
  719MOL0     C96996   3.458   5.298   0.242 -0.4957 -0.1480  0.4794
  719MOL0     C96997   3.590   5.273   0.289 -0.7648  0.0308  0.3419
  719MOL0     H96998   4.064   5.408   0.397 -0.8751  0.2957 -1.1066
  719MOL0     H96999   4.281   5.377   0.517 -2.3492  1.1176  2.7696
  719MOL0     H97000   4.427   5.174   0.847  0.8322  1.5740 -2.1578
  719MOL0     H97001   4.257   5.140   0.848  1.5124  2.2691  1.2507
  719MOL0     H97002   4.322   4.904   0.757 -0.0877 -0.9091 -2.6236
  719MOL0     H97003   4.469   4.985   0.696 -0.1870  3.9126  0.9919
  719MOL0     H97004   4.542   5.007   0.954  1.8803 -1.6910  0.0216
  719MOL0     H97005   4.385   4.930   0.983 -1.6948 -1.5737 -0.1898
  719MOL0     H97006   4.462   4.723   0.849 -2.8909  0.7610  2.4986
  719MOL0     H97007   4.631   4.791   0.872 -0.0733  1.6772 -0.3334
  719MOL0     H97008   4.530   4.811   1.129  2.2761 -2.0057  2.7085
  719MOL0     H97009   4.423   4.696   1.063 -1.6111  3.8123 -1.9898
  719MOL0     H97010   4.596   4.538   1.008 -2.5815  0.0990 -0.3833
  719MOL0     H97011   4.729   4.655   1.048 -0.0837  0.6971 -0.2009
  719MOL0     H97012   4.550   4.641   1.283  0.6237 -0.1451  0.0223
  719MOL0     H97013   4.578   4.470   1.221  3.6639 -1.7593  0.2542
  719MOL0     H97014   4.812   4.515   1.215 -1.1849 -3.6017  1.3168
  719MOL0     H97015   4.733   4.503   1.374 -0.2333 -1.2901 -1.9683
  719MOL0     H97016   4.943   4.728   1.142  0.5913 -1.8134  1.0773
  719MOL0     H97017   5.013   5.071   1.256  1.4521  0.4252 -1.6028
  719MOL0     H97018   5.004   4.950   1.116 -0.3229 -0.2465  0.6604
  719MOL0     H97019   4.784   5.152   1.176 -1.5700 -1.8051  0.3675
  719MOL0     H97020   4.775   5.044   1.053 -0.7754 -1.6771  2.2621
  719MOL0     H97021   5.029   5.218   1.080 -1.5089  0.8500  3.2059
  719MOL0     H97022   4.875   5.282   1.014  1.4566  1.1496 -1.5431
  719MOL0     H97023   5.031   5.053   0.896  0.1883 -1.0531  0.3455
  719MOL0     H97024   5.033   5.206   0.838  2.0864  0.3810  1.5173
  719MOL0     H97025   4.663   5.113   0.641 -1.5200  0.0452 -1.4659
  719MOL0     H97026   4.547   4.915   0.388  1.6899 -1.6305  2.2243
  719MOL0     H97027   4.543   5.070   0.466 -0.0184 -1.7677  2.0293
  719MOL0     H97028   4.635   5.058   0.316  1.0719 -3.1235 -1.6319
  719MOL0     H97029   5.111   4.586   0.268  0.1628 -0.7328  0.7062
  719MOL0     H97030   5.151   4.410   0.064  0.7388  0.6647  2.2597
  719MOL0     H97031   4.769   4.260  -0.126 -0.2697  1.2841  0.8109
  719MOL0     H97032   4.801   4.396  -0.229 -0.8361 -1.1471 -0.6805
  719MOL0     H97033   4.992   4.246  -0.329  1.8413 -2.4387  0.6768
  719MOL0     H97034   4.919   4.114  -0.237  1.0979  1.0251 -0.2721
  719MOL0     H97035   4.692   4.163  -0.355 -0.7403  0.4730 -0.9138
  719MOL0     H97036   4.815   4.100  -0.435 -0.5601  0.6736 -0.9884
  719MOL0     H97037   4.707   4.376  -0.437  0.7195  1.0740  0.4810
  719MOL0     H97038   4.881   4.357  -0.487  0.7265 -2.6368  1.3466
  719MOL0     H97039   4.640   4.222  -0.631  0.1324  0.1291 -0.5684
  719MOL0     H97040   4.808   4.187  -0.650  0.9326  0.0031  2.5380
  719MOL0     H97041   4.699   4.475  -0.656 -0.1894 -0.0621 -0.0571
  719MOL0     H97042   4.857   4.419  -0.713  0.8083 -0.8276 -2.9001
  719MOL0     H97043   4.674   4.491  -0.878 -3.9721 -1.0435 -1.7336
  719MOL0     H97044   4.603   4.325  -0.858  0.8793 -1.8472 -1.0250
  719MOL0     H97045   4.836   4.234  -0.910  0.4490  0.3982 -0.2522
  719MOL0     H97046   4.860   4.416  -0.953 -0.5248  1.4710 -0.7442
  719MOL0     H97047   4.727   4.451  -0.006 -0.5092 -3.2065  3.4592
  719MOL0     H97048   4.705   4.622   0.152  0.1824 -0.2926  2.0774
  719MOL0     H97049   5.030   4.819   0.511  1.5377  0.1761  2.2504
  719MOL0     H97050   5.048   4.936   0.725 -0.3553  2.2526  1.9158
  719MOL0     H97051   4.130   5.019   0.682 -1.0551  3.2058  2.1474
  719MOL0     H97052   3.917   5.053   0.567  0.8950 -0.6736  0.1276
  719MOL0     H97053   3.768   5.323   0.014 -0.2145  0.1449 -1.8217
  719MOL0     H97054   3.558   5.330  -0.092  2.3719 -0.2762 -0.7920
  719MOL0     H97055   3.355   5.447  -0.106  1.3189 -0.2012  0.4405
  719MOL0     H97056   3.344   5.274  -0.150  0.5505 -0.4040 -0.1475
  719MOL0     H97057   3.135   5.473  -0.073 -2.5198 -1.8885  2.0031
  719MOL0     H97058   3.094   5.300  -0.089  1.1870  0.8803  2.1979
  719MOL0     H97059   3.207   5.484  -0.295  1.5167 -0.6271  2.3501
  719MOL0     H97060   3.038   5.430  -0.281 -0.6819  0.4280  0.2017
  719MOL0     H97061   3.287   5.282  -0.392 -0.2290 -0.4241  2.9303
  719MOL0     H97062   3.136   5.323  -0.467  1.1207  4.2652  0.9094
  719MOL0     H97063   2.993   4.991  -0.260 -0.2936  0.4793  2.2336
  719MOL0     H97064   3.369   5.300   0.305 -0.6557 -2.1156  0.3840
  719MOL0     H97065   3.602   5.248   0.394  0.6153 -3.4489 -0.4912
  720MOL0     O97066   7.477   3.311   3.774  0.0571 -0.4030  1.1938
  720MOL0     C97067   7.517   3.317   3.660  0.3368  0.3319  0.3866
  720MOL0     O97068   7.640   3.357   3.626 -0.6178  0.6071  0.2324
  720MOL0     C97069   7.743   3.393   3.705 -0.8206  0.7789 -0.0157
  720MOL0     C97070   7.760   3.367   3.843 -0.5924  0.8086 -0.2970
  720MOL0     C97071   7.877   3.400   3.915 -0.1350  0.1171  0.0460
  720MOL0     C97072   7.983   3.451   3.846 -1.0503 -0.7078  0.2871
  720MOL0     O97073   8.099   3.460   3.907  0.2718  0.1671 -0.1730
  720MOL0     C97074   8.147   3.596   3.926  0.9843 -0.3330  0.2289
  720MOL0     C97075   8.293   3.618   3.956 -0.3429 -0.5389 -0.0787
  720MOL0     C97076   8.387   3.529   3.882  0.6534  0.3815  0.1071
  720MOL0     C97077   8.338   3.509   3.737 -1.1599 -0.9100  0.8936
  720MOL0     C97078   8.455   3.472   3.650  0.5247  0.9514  0.1194
  720MOL0     C97079   8.409   3.395   3.523 -1.1396  0.2171 -0.7150
  720MOL0     C97080   8.307   3.472   3.434 -0.4714 -1.0907 -0.2116
  720MOL0     C97081   8.320   3.452   3.289 -0.0377  1.3369 -0.6772
  720MOL0     N97082   8.451   3.470   3.227  0.4552  0.2562 -0.3792
  720MOL0     C97083   8.558   3.381   3.215 -0.2294 -0.0289 -0.0140
  720MOL0     C97084   8.658   3.454   3.164 -0.7135 -0.8058  0.5154
  720MOL0     C97085   8.798   3.424   3.129  1.1380 -0.2408  0.5528
  720MOL0     C97086   8.796   3.351   2.996  1.2830 -0.9290 -0.1421
  720MOL0     C97087   8.718   3.215   2.979 -0.8593 -0.4035  0.0205
  720MOL0     C97088   8.748   3.145   2.844  0.7394  0.8554  0.5770
  720MOL0     O97089   8.869   3.069   2.847 -0.6360  0.1012  0.1492
  720MOL0     C97090   8.887   2.990   2.737 -0.4092 -1.0879 -0.2465
  720MOL0     C97091   8.990   3.028   2.643  0.6272  0.6264 -0.4875
  720MOL0     C97092   9.002   2.947   2.523 -0.2442 -0.2516  0.0086
  720MOL0     C97093   9.123   2.986   2.445  0.0695  0.5106 -0.2653
  720MOL0     C97094   8.915   2.844   2.492  0.0337 -0.2987 -0.2341
  720MOL0     C97095   8.940   2.740   2.394 -0.1468  0.4495 -0.5139
  720MOL0     O97096   8.822   2.674   2.355  0.0052 -0.6197  0.1949
  720MOL0     C97097   8.828   2.581   2.252 -0.0830  0.7608  0.1455
  720MOL0     C97098   8.880   2.604   2.126 -1.5554 -0.2190  0.8888
  720MOL0     C97099   8.864   2.506   2.024 -0.0169 -0.1891 -0.8835
  720MOL0     C97100   8.831   2.374   2.057 -0.2586  0.7667 -0.1418
  720MOL0     O97101   8.834   2.285   1.957  0.3791  0.1958  0.2806
  720MOL0     C97102   8.831   2.137   1.985 -0.1172  0.2825  1.3676
  720MOL0     C97103   8.958   2.105   2.053 -0.0745  0.2189 -0.3740
  720MOL0     C97104   9.082   2.134   1.968 -0.8348 -1.0489  1.2510
  720MOL0     C97105   9.108   2.058   1.839 -0.4351  0.2068 -0.3811
  720MOL0     C97106   9.247   2.074   1.776  0.2426  0.1639  0.0900
  720MOL0     C97107   9.243   2.062   1.622  0.2214 -0.1350 -0.6626
  720MOL0     C97108   9.380   2.015   1.581 -0.1215  0.1610  0.7392
  720MOL0     C97109   9.390   1.929   1.465 -0.1544 -0.1738 -0.0944
  720MOL0    Cl97110   9.561   1.874   1.411  0.1651 -0.3369 -0.5059
  720MOL0     C97111   8.789   2.344   2.187  0.1842 -0.6217 -0.0224
  720MOL0     C97112   8.769   2.451   2.281  0.7285 -0.3789 -0.5057
  720MOL0     O97113   9.054   2.703   2.362 -0.0104 -0.3582 -0.1059
  720MOL0     C97114   8.805   2.822   2.578  0.8442  0.1808 -0.4594
  720MOL0     C97115   8.796   2.889   2.703  0.3116 -0.7139 -0.3516
  720MOL0     N97116   8.611   3.578   3.141 -0.2508  0.9602  0.0130
  720MOL0     N97117   8.488   3.582   3.176  1.0120 -0.5238  0.0410
  720MOL0     C97118   7.969   3.496   3.717  0.5543 -0.2949  0.7268
  720MOL0     C97119   7.851   3.470   3.647  0.1753 -0.3182  0.1740
  720MOL0     C97120   7.414   3.277   3.553  0.4678  0.6627  0.5359
  720MOL0     C97121   7.282   3.244   3.597 -0.7939  0.0735  0.8616
  720MOL0     C97122   7.181   3.236   3.501 -0.4222  0.1671 -0.5171
  720MOL0     C97123   7.208   3.243   3.364 -0.0366 -0.8592 -0.7960
  720MOL0     O97124   7.121   3.237   3.259 -0.3793  0.5748  0.1888
  720MOL0     C97125   6.988   3.191   3.271 -0.5370 -0.2615 -0.2329
  720MOL0     C97126   6.968   3.042   3.241  0.0738 -0.0980 -1.7171
  720MOL0     C97127   6.840   2.987   3.295 -0.1953 -0.7019 -0.3312
  720MOL0     C97128   6.779   2.898   3.188 -0.0991 -1.1660 -0.4326
  720MOL0     C97129   6.871   2.790   3.154  0.2558  0.3271  0.2438
  720MOL0     C97130   6.929   2.688   3.112 -0.1698  0.2810  0.0855
  720MOL0     C97131   7.337   3.294   3.328 -0.9376 -0.3829 -0.1343
  720MOL0     C97132   7.443   3.303   3.422 -0.4022 -0.5444 -0.0929
  720MOL0     H97133   7.682   3.305   3.888 -2.4121  1.5474 -2.2991
  720MOL0     H97134   7.897   3.397   4.021  1.9268  2.2175 -0.1967
  720MOL0     H97135   8.129   3.649   3.832 -0.4111 -0.7099  0.2654
  720MOL0     H97136   8.081   3.639   4.001  1.9125  2.5337 -0.4746
  720MOL0     H97137   8.321   3.716   3.918  0.6674 -1.0803 -0.7531
  720MOL0     H97138   8.299   3.611   4.065  2.5472  0.1425 -0.1272
  720MOL0     H97139   8.485   3.577   3.880  0.0214  1.8694  1.8276
  720MOL0     H97140   8.401   3.432   3.932  2.5164  1.5341  1.9967
  720MOL0     H97141   8.255   3.438   3.731 -3.7962  1.7158  2.7314
  720MOL0     H97142   8.307   3.607   3.698 -0.1206 -0.2229  1.7435
  720MOL0     H97143   8.497   3.568   3.620  3.5165  0.8180  3.2925
  720MOL0     H97144   8.533   3.410   3.696 -0.7991 -1.4887 -0.7069
  720MOL0     H97145   8.496   3.351   3.474  0.3741 -2.4485  3.7296
  720MOL0     H97146   8.361   3.301   3.552 -0.2403 -0.0179  0.0635
  720MOL0     H97147   8.201   3.470   3.460 -2.7011  4.6831 -6.0417
  720MOL0     H97148   8.329   3.576   3.456  1.1884 -0.6013 -3.4808
  720MOL0     H97149   8.247   3.511   3.232 -5.5291 -0.1590  3.8300
  720MOL0     H97150   8.296   3.348   3.266  3.4139  0.8948 -2.9640
  720MOL0     H97151   8.561   3.273   3.222 -0.0494 -0.3728 -3.5256
  720MOL0     H97152   8.851   3.519   3.123  0.1865  0.2173 -1.5736
  720MOL0     H97153   8.836   3.360   3.209  1.4326  0.8440  1.3070
  720MOL0     H97154   8.902   3.324   2.998  1.2617 -1.2945  3.8263
  720MOL0     H97155   8.768   3.415   2.911 -1.7356 -2.2943 -0.2897
  720MOL0     H97156   8.612   3.238   2.991 -0.4401  0.4970  2.4928
  720MOL0     H97157   8.754   3.151   3.061  2.4384 -0.1546 -1.0852
  720MOL0     H97158   8.753   3.212   2.758 -1.4934  0.5722  0.1648
  720MOL0     H97159   8.665   3.076   2.828  1.4081  0.2309 -0.3176
  720MOL0     H97160   9.039   3.125   2.651  0.3505  0.6524  1.3000
  720MOL0     H97161   9.118   3.094   2.425 -2.8440  0.3814 -0.6821
  720MOL0     H97162   9.218   2.956   2.490  1.3419  1.7588 -1.9898
  720MOL0     H97163   9.122   2.950   2.342 -2.2857  0.7667 -0.3875
  720MOL0     H97164   8.914   2.698   2.084  2.5135 -1.7292  0.3511
  720MOL0     H97165   8.898   2.527   1.922  2.0705 -3.3224 -0.9537
  720MOL0     H97166   8.742   2.114   2.043  0.3072 -0.6170  1.6880
  720MOL0     H97167   8.821   2.074   1.896  0.3178  0.6177  1.0718
  720MOL0     H97168   8.987   2.160   2.143  0.1732  0.7730 -0.7908
  720MOL0     H97169   8.944   2.000   2.079 -0.8943  1.0986  3.1999
  720MOL0     H97170   9.177   2.142   2.023  0.7478  0.9190 -1.5112
  720MOL0     H97171   9.063   2.234   1.928 -1.3019 -0.8714  1.9092
  720MOL0     H97172   9.084   1.956   1.871  2.6423 -0.4537  0.1272
  720MOL0     H97173   9.040   2.092   1.761 -0.6476  0.3717 -0.1294
  720MOL0     H97174   9.308   1.991   1.811  2.5014 -0.3190 -4.2921
  720MOL0     H97175   9.291   2.168   1.813  0.9940  0.3779 -1.2738
  720MOL0     H97176   9.178   1.976   1.609  0.4160 -0.8312  2.4409
  720MOL0     H97177   9.205   2.148   1.566 -1.7013  0.5344  1.5267
  720MOL0     H97178   9.434   1.962   1.660  1.0128  0.6244  0.3049
  720MOL0     H97179   9.443   2.104   1.568  2.1737 -1.5339 -0.5132
  720MOL0     H97180   9.340   1.982   1.384 -1.5426 -1.6073 -0.2298
  720MOL0     H97181   9.333   1.839   1.489  0.7404 -0.3209  1.6829
  720MOL0     H97182   8.757   2.243   2.210 -0.2233 -0.7380 -1.0485
  720MOL0     H97183   8.719   2.435   2.376  1.0120 -0.3477 -0.3480
  720MOL0     H97184   8.742   2.734   2.572 -1.5155  1.6466  1.0674
  720MOL0     H97185   8.717   2.866   2.774  3.3266  0.3523  3.7765
  720MOL0     H97186   8.052   3.542   3.664 -0.0048  1.0368  0.9812
  720MOL0     H97187   7.832   3.512   3.548 -3.1021  1.9004  1.5525
  720MOL0     H97188   7.274   3.241   3.705  1.4738  0.1110  1.0757
  720MOL0     H97189   7.086   3.188   3.521  0.2150 -3.7102 -5.1179
  720MOL0     H97190   6.953   3.226   3.369  0.8535  4.1005 -1.0826
  720MOL0     H97191   6.934   3.240   3.190 -0.6671 -2.1087 -1.3058
  720MOL0     H97192   7.050   2.985   3.285  0.8322  1.0489 -1.5907
  720MOL0     H97193   6.971   3.023   3.133  0.0159 -1.4798 -1.4875
  720MOL0     H97194   6.766   3.067   3.307 -0.4045 -1.1560  1.7699
  720MOL0     H97195   6.859   2.940   3.392  1.5504 -1.8376 -1.1878
  720MOL0     H97196   6.756   2.959   3.100  1.0874  1.1693  0.8101
  720MOL0     H97197   6.688   2.848   3.224 -0.5373  0.8962  1.5162
  720MOL0     H97198   7.000   2.613   3.083  0.0744  0.2095  0.8621
  720MOL0     H97199   7.358   3.312   3.223 -1.1309  0.9365  0.0399
  720MOL0     H97200   7.539   3.324   3.377 -1.1318  2.3373 -0.5646
  721MOL0     O97201   4.094   8.757   8.141 -0.1599  0.6692 -0.6315
  721MOL0     C97202   4.034   8.839   8.071  0.2914 -0.0220  0.1034
  721MOL0     O97203   3.985   8.960   8.120  1.0470 -0.1342  0.2909
  721MOL0     C97204   3.994   9.000   8.250  0.3400 -0.2326 -0.4122
  721MOL0     C97205   3.987   8.922   8.362 -0.3993  0.8641 -0.7003
  721MOL0     C97206   3.960   8.984   8.482 -0.4055 -0.0069 -1.1656
  721MOL0     C97207   3.950   9.119   8.500 -0.6739  0.3421  0.6248
  721MOL0     O97208   3.941   9.190   8.610  0.7495 -0.6248 -0.5330
  721MOL0     C97209   3.819   9.156   8.674 -0.8701 -0.7405  0.3202
  721MOL0     C97210   3.779   9.269   8.773 -0.1812  0.1178  0.2839
  721MOL0     C97211   3.868   9.262   8.900  1.0859  0.0480 -0.2925
  721MOL0     C97212   3.838   9.139   9.004 -0.3350  0.1645 -0.4980
  721MOL0     C97213   3.904   9.175   9.145  0.4711  0.4923  0.0760
  721MOL0     C97214   3.880   9.057   9.230 -0.3654 -0.5958  0.1252
  721MOL0     C97215   3.903   9.091   9.385  0.4046  0.1345  0.4190
  721MOL0     C97216   3.896   8.964   9.465  0.6513 -0.2101  0.2947
  721MOL0     N97217   4.003   8.865   9.428  0.4339  0.6067  0.7771
  721MOL0     C97218   4.137   8.878   9.467 -1.1685 -1.3654  0.4973
  721MOL0     C97219   4.204   8.786   9.403 -0.4278  0.2144  0.4150
  721MOL0     C97220   4.349   8.754   9.382  0.3510 -0.6802  0.1213
  721MOL0     C97221   4.416   8.642   9.469  0.0497 -0.7478 -0.0078
  721MOL0     C97222   4.319   8.530   9.513  0.1319  0.1406  0.3547
  721MOL0     C97223   4.397   8.417   9.575 -0.2117 -0.2565  0.1911
  721MOL0     O97224   4.313   8.305   9.565  0.2330 -0.4051 -0.6273
  721MOL0     C97225   4.343   8.188   9.625  0.3248 -0.3100  0.6115
  721MOL0     C97226   4.451   8.167   9.701 -0.3591  0.2038 -0.5282
  721MOL0     C97227   4.476   8.044   9.762 -1.1327  0.0830 -0.1398
  721MOL0     C97228   4.612   8.025   9.816 -1.1221 -0.0575  0.3404
  721MOL0     C97229   4.382   7.943   9.755 -0.0407  0.2003 -0.1250
  721MOL0     C97230   4.392   7.802   9.814  0.9581 -0.3100 -0.0368
  721MOL0     O97231   4.290   7.718   9.784 -0.0048  0.4872 -0.6282
  721MOL0     C97232   4.272   7.581   9.811 -0.7070  0.6640 -0.8615
  721MOL0     C97233   4.387   7.507   9.833  0.0405  0.4364  0.3226
  721MOL0     C97234   4.369   7.366   9.842  0.2370 -0.7882  0.3686
  721MOL0     C97235   4.245   7.303   9.837  0.1884 -1.0798  0.0548
  721MOL0     O97236   4.219   7.171   9.858 -0.1446 -0.3821  0.3923
  721MOL0     C97237   4.334   7.084   9.853  0.0167  0.2556  0.5875
  721MOL0     C97238   4.324   6.938   9.879 -0.0386 -0.4229  0.8023
  721MOL0     C97239   4.460   6.861   9.848  0.7883 -0.0229  0.0994
  721MOL0     C97240   4.556   6.865   9.970 -0.5565  1.0384  0.3055
  721MOL0     C97241   4.680   6.946   9.947 -0.8046  0.3707 -0.3934
  721MOL0     C97242   4.755   6.901   9.819  0.7153  1.0765 -0.5588
  721MOL0     C97243   4.896   6.954   9.820 -0.6766  0.1575  0.5510
  721MOL0     C97244   4.995   6.866   9.753 -0.9222  0.8917  0.2644
  721MOL0    Cl97245   5.158   6.925   9.801  0.6173  0.0086  0.2204
  721MOL0     C97246   4.128   7.386   9.828  0.2627 -0.6730 -0.6942
  721MOL0     C97247   4.150   7.521   9.806  0.2208 -0.1715 -0.8947
  721MOL0     O97248   4.488   7.774   9.886  0.4275 -0.4702 -0.5128
  721MOL0     C97249   4.262   7.969   9.679 -0.6845  0.7249  0.2047
  721MOL0     C97250   4.248   8.090   9.619  1.1075 -0.0242  1.3274
  721MOL0     N97251   4.109   8.709   9.336 -0.1669  0.1527 -0.2144
  721MOL0     N97252   3.994   8.761   9.351 -0.2367 -0.5401 -0.2851
  721MOL0     C97253   3.941   9.198   8.385 -0.3934 -0.6520 -0.6815
  721MOL0     C97254   3.961   9.139   8.263  0.4181  1.1515  0.3690
  721MOL0     C97255   4.022   8.829   7.919  0.9797 -0.0384  0.2507
  721MOL0     C97256   4.122   8.750   7.858  0.1092 -0.3961  0.5352
  721MOL0     C97257   4.118   8.714   7.721  0.6921  0.3903 -0.7476
  721MOL0     C97258   4.008   8.760   7.644 -1.0242  0.5211 -0.4493
  721MOL0     O97259   4.001   8.700   7.522 -0.0457 -0.8163  0.6723
  721MOL0     C97260   3.895   8.720   7.438 -0.6839  0.0331  0.2362
  721MOL0     C97261   3.928   8.666   7.296  0.2087  0.4336 -0.4463
  721MOL0     C97262   3.808   8.678   7.192 -0.3792 -0.5855 -0.4572
  721MOL0     C97263   3.687   8.579   7.184 -1.8168  0.4265  0.0489
  721MOL0     C97264   3.614   8.607   7.063 -0.1739 -0.2317 -0.3895
  721MOL0     C97265   3.557   8.624   6.958 -0.0982 -0.1545 -0.2650
  721MOL0     C97266   3.926   8.858   7.694 -1.3581 -0.4708  0.0995
  721MOL0     C97267   3.930   8.899   7.829 -0.5005  0.4950 -1.0200
  721MOL0     H97268   3.998   8.814   8.359  0.6088  0.9618 -0.7245
  721MOL0     H97269   3.977   8.922   8.570  1.6210  0.6173 -1.0840
  721MOL0     H97270   3.740   9.138   8.602 -1.9870 -1.5823  1.6944
  721MOL0     H97271   3.832   9.059   8.725 -1.3773 -0.8538  0.2339
  721MOL0     H97272   3.804   9.363   8.724 -2.0081  0.9208  0.8152
  721MOL0     H97273   3.672   9.266   8.797 -0.5097 -0.9904 -1.1281
  721MOL0     H97274   3.976   9.269   8.882  1.0910  2.4737  0.3380
  721MOL0     H97275   3.854   9.356   8.954  0.6547 -0.0279 -0.2689
  721MOL0     H97276   3.731   9.127   9.026 -0.0137 -0.0265  1.0977
  721MOL0     H97277   3.875   9.042   8.969  0.9946  0.0991  0.9849
  721MOL0     H97278   4.012   9.193   9.138  0.4647  0.3005 -0.6149
  721MOL0     H97279   3.856   9.263   9.188  0.2410 -0.5744  2.1006
  721MOL0     H97280   3.776   9.023   9.224 -0.2802 -1.2218  1.6832
  721MOL0     H97281   3.939   8.972   9.195  1.0824 -0.3580  1.8235
  721MOL0     H97282   3.998   9.144   9.399  0.5774 -0.8704  3.6712
  721MOL0     H97283   3.823   9.151   9.429 -0.3079 -0.4668 -0.0301
  721MOL0     H97284   3.800   8.913   9.452 -0.9938  1.2336  4.8407
  721MOL0     H97285   3.889   8.977   9.573 -2.1746  1.9098 -0.0488
  721MOL0     H97286   4.178   8.943   9.543 -1.0199 -2.5689  1.4789
  721MOL0     H97287   4.364   8.721   9.279  1.2376 -1.1384  0.3902
  721MOL0     H97288   4.405   8.846   9.404 -2.9669  1.2294  1.2608
  721MOL0     H97289   4.472   8.671   9.558 -1.4476 -0.9284  1.0379
  721MOL0     H97290   4.493   8.602   9.403  0.4381  1.4110 -0.9443
  721MOL0     H97291   4.271   8.499   9.419  2.6734 -2.3056 -0.2700
  721MOL0     H97292   4.253   8.570   9.590 -0.6935  2.5244 -1.4672
  721MOL0     H97293   4.428   8.449   9.675  0.2637  2.4546 -0.7380
  721MOL0     H97294   4.479   8.396   9.506  1.7136 -1.6594  2.7290
  721MOL0     H97295   4.524   8.247   9.701  0.3813 -0.4605  0.2796
  721MOL0     H97296   4.670   8.117   9.831  1.4183 -1.9047  2.8143
  721MOL0     H97297   4.606   7.992   9.920 -2.1656  0.3737  0.4323
  721MOL0     H97298   4.662   7.944   9.762  1.0218 -0.9989  3.4351
  721MOL0     H97299   4.486   7.551   9.844  0.8011 -1.2745  0.5740
  721MOL0     H97300   4.453   7.300   9.856 -0.8257 -2.4567 -0.6684
  721MOL0     H97301   4.380   7.110   9.758  1.5393 -0.9067  0.9728
  721MOL0     H97302   4.402   7.115   9.932 -0.8807 -1.5750  2.1759
  721MOL0     H97303   4.306   6.921   9.985  3.0856 -0.4743  1.4197
  721MOL0     H97304   4.242   6.891   9.823  1.5069 -0.7431 -1.3238
  721MOL0     H97305   4.495   6.888   9.748 -1.1576 -0.8777 -0.8695
  721MOL0     H97306   4.430   6.755   9.844 -1.7337  0.6709 -1.2549
  721MOL0     H97307   4.506   6.888  10.065 -0.0956  0.9809  0.5691
  721MOL0     H97308   4.595   6.764   9.983  2.9497  2.2871  0.6665
  721MOL0     H97309   4.737   6.931  10.040 -1.5606  1.5961  0.2937
  721MOL0     H97310   4.661   7.053   9.944  1.1935  0.7487 -1.1781
  721MOL0     H97311   4.760   6.791   9.818  1.9729  1.1287 -1.1548
  721MOL0     H97312   4.703   6.932   9.727 -0.2389 -1.4397 -0.9631
  721MOL0     H97313   4.921   6.972   9.925  1.8068  0.3641 -0.0213
  721MOL0     H97314   4.910   7.045   9.761 -0.8553  0.9760  1.7382
  721MOL0     H97315   4.979   6.862   9.645  0.4117 -0.3321  0.0793
  721MOL0     H97316   4.990   6.765   9.796  2.0251  1.3332  1.9037
  721MOL0     H97317   4.029   7.341   9.826 -0.3762  0.3603  2.2932
  721MOL0     H97318   4.065   7.583   9.784 -0.6952 -0.7447  0.8394
  721MOL0     H97319   4.180   7.899   9.670  0.0381 -0.1337  0.2549
  721MOL0     H97320   4.154   8.125   9.577  1.3930  2.3206  2.5149
  721MOL0     H97321   3.921   9.302   8.406  0.4723 -0.5567 -0.2700
  721MOL0     H97322   3.956   9.187   8.166  2.5090 -0.5192 -0.6649
  721MOL0     H97323   4.187   8.693   7.923  2.2810 -0.5434 -1.6182
  721MOL0     H97324   4.177   8.637   7.673  0.8929  0.2777 -0.3220
  721MOL0     H97325   3.805   8.673   7.477 -0.0092  0.1416  2.0022
  721MOL0     H97326   3.880   8.828   7.429 -0.8615 -0.1582 -3.2504
  721MOL0     H97327   3.931   8.561   7.325 -0.5017  0.9881  1.8255
  721MOL0     H97328   4.024   8.691   7.250  0.4095  0.1678 -0.1749
  721MOL0     H97329   3.855   8.685   7.093 -0.0014 -0.7660 -0.2952
  721MOL0     H97330   3.763   8.776   7.209 -2.2629 -1.2977 -1.1206
  721MOL0     H97331   3.632   8.584   7.278  1.7300  0.5367  2.3212
  721MOL0     H97332   3.728   8.479   7.164  1.6869  1.5441  0.8303
  721MOL0     H97333   3.499   8.632   6.869 -1.3046  0.0772  0.5108
  721MOL0     H97334   3.846   8.900   7.634 -1.2802  4.7531  2.9925
  721MOL0     H97335   3.854   8.963   7.873 -0.1142  0.3423 -0.1250
  722MOL0     O97336   1.028   8.845   0.055 -0.6076  0.1721 -0.3387
  722MOL0     C97337   0.979   8.733   0.026 -0.2044 -0.7034 -0.1792
  722MOL0     O97338   0.856   8.695   0.067 -0.8514  0.0666 -0.7689
  722MOL0     C97339   0.797   8.762   0.177 -0.6886  0.6529  1.3382
  722MOL0     C97340   0.671   8.714   0.200 -0.7224 -0.0036 -0.1500
  722MOL0     C97341   0.590   8.774   0.295  0.5524 -0.0868  0.0224
  722MOL0     C97342   0.638   8.872   0.383  0.0216  0.6112  0.1876
  722MOL0     O97343   0.554   8.925   0.473 -0.5426  0.6894 -0.0887
  722MOL0     C97344   0.574   9.060   0.525  0.2783  0.6436 -0.6967
  722MOL0     C97345   0.662   9.068   0.658  0.1770  0.6600 -0.0784
  722MOL0     C97346   0.663   9.211   0.711 -0.1242 -0.8409 -0.5019
  722MOL0     C97347   0.710   9.213   0.855  0.6154  0.3580  0.9214
  722MOL0     C97348   0.713   9.363   0.918 -0.4019  0.9910  0.1152
  722MOL0     C97349   0.843   9.434   0.876  0.6230 -0.9151 -0.2658
  722MOL0     C97350   0.880   9.534   0.977 -1.0880 -0.5173 -0.2805
  722MOL0     C97351   1.022   9.589   0.942 -0.4275  0.3628  0.7909
  722MOL0     N97352   1.047   9.727   0.977 -0.3622 -0.2131  0.5182
  722MOL0     C97353   1.016   9.832   0.897  0.1622 -0.3632  0.4826
  722MOL0     C97354   1.066   9.940   0.965  0.2132 -0.2726 -0.2519
  722MOL0     C97355   1.075  10.078   0.908  0.6550  1.0682  0.0814
  722MOL0     C97356   0.959  10.169   0.960 -0.1595  0.0994  0.4365
  722MOL0     C97357   0.822  10.119   0.920  0.3139  0.2512 -0.1487
  722MOL0     C97358   0.717  10.226   0.937 -0.2653 -0.1271  0.7900
  722MOL0     O97359   0.710  10.245   1.077  0.1051  0.4182  0.1993
  722MOL0     C97360   0.646  10.356   1.121  0.1749  0.3489 -0.8477
  722MOL0     C97361   0.566  10.443   1.046 -0.0353 -0.3116  0.1614
  722MOL0     C97362   0.515  10.571   1.107 -0.8283 -0.2975 -0.1145
  722MOL0     C97363   0.447  10.668   1.015  0.3536  0.3604 -0.8898
  722MOL0     C97364   0.544  10.582   1.249  0.8085 -0.2261 -0.5742
  722MOL0     C97365   0.476  10.687   1.329  0.2956  0.6315 -0.5961
  722MOL0     O97366   0.504  10.692   1.460 -0.0707 -0.2065  0.0382
  722MOL0     C97367   0.434  10.766   1.542 -0.0104 -0.7733 -0.1582
  722MOL0     C97368   0.429  10.907   1.544 -0.1371  0.2689 -0.2464
  722MOL0     C97369   0.355  10.980   1.641 -0.2508 -0.3949 -1.0219
  722MOL0     C97370   0.275  10.906   1.734  0.4896 -0.8544  1.1468
  722MOL0     O97371   0.205  10.973   1.823  0.4359  0.5264 -0.3125
  722MOL0     C97372   0.083  10.918   1.861 -0.0963  0.3846 -0.3098
  722MOL0     C97373   0.010  11.029   1.936  0.8287 -0.2725 -0.1235
  722MOL0     C97374  -0.120  10.987   1.995 -0.1623  1.2826  0.1540
  722MOL0     C97375  -0.206  11.105   2.048 -0.9265  0.1486  0.2361
  722MOL0     C97376  -0.350  11.066   2.095 -0.2855  0.4828  0.1781
  722MOL0     C97377  -0.366  10.943   2.174 -0.1232  0.8614  0.1526
  722MOL0     C97378  -0.307  10.954   2.315 -1.2062 -0.1402 -0.6992
  722MOL0     C97379  -0.318  10.819   2.388  0.4817  0.4522  0.7380
  722MOL0    Cl97380  -0.486  10.762   2.390 -0.0930 -0.0071 -0.2678
  722MOL0     C97381   0.272  10.767   1.722  0.2520  0.0695  1.0310
  722MOL0     C97382   0.349  10.700   1.630  0.1026  0.4886 -0.6638
  722MOL0     O97383   0.411  10.771   1.278  0.3847 -0.3281  0.1882
  722MOL0     C97384   0.623  10.493   1.317 -0.5110  0.6830  0.0147
  722MOL0     C97385   0.665  10.379   1.255  0.3291 -1.2078 -0.3902
  722MOL0     N97386   1.112   9.892   1.089  0.3191  0.7353 -0.6107
  722MOL0     N97387   1.103   9.770   1.088  0.8597  0.4136  0.2663
  722MOL0     C97388   0.772   8.913   0.365 -0.5201 -0.1475 -0.6823
  722MOL0     C97389   0.857   8.856   0.265  0.3005 -0.5124 -0.9562
  722MOL0     C97390   1.059   8.652  -0.068 -0.1097  0.7114  1.3652
  722MOL0     C97391   1.163   8.707  -0.141  0.4758 -0.3580  0.5715
  722MOL0     C97392   1.250   8.643  -0.225 -0.0481  0.1472 -0.2933
  722MOL0     C97393   1.230   8.507  -0.234 -1.0126  0.0084 -0.3521
  722MOL0     O97394   1.316   8.436  -0.310  0.3370 -0.3343 -0.0792
  722MOL0     C97395   1.260   8.339  -0.394 -2.1449  0.1568 -0.7908
  722MOL0     C97396   1.375   8.249  -0.428  0.2749 -0.1993  0.0859
  722MOL0     C97397   1.338   8.166  -0.549 -0.0274 -0.4056  1.2547
  722MOL0     C97398   1.352   8.241  -0.684 -0.3840 -0.2616 -0.2132
  722MOL0     C97399   1.426   8.157  -0.774 -0.6973  0.5808 -0.0296
  722MOL0     C97400   1.448   8.085  -0.870  0.0292  0.5982  0.2881
  722MOL0     C97401   1.133   8.442  -0.164  0.0506  0.3990 -0.1630
  722MOL0     C97402   1.046   8.514  -0.082 -0.2613 -0.0451 -0.1079
  722MOL0     H97403   0.640   8.622   0.152  3.2048 -1.7093  0.2588
  722MOL0     H97404   0.488   8.743   0.317  0.3930  0.3735 -0.0627
  722MOL0     H97405   0.619   9.123   0.447 -0.3618 -0.0472 -1.6483
  722MOL0     H97406   0.472   9.095   0.546  0.2062 -0.1555  0.3622
  722MOL0     H97407   0.622   8.988   0.721 -0.5257  0.2677 -1.0010
  722MOL0     H97408   0.767   9.041   0.644  0.4391  1.5305  0.1513
  722MOL0     H97409   0.719   9.274   0.641 -0.7655 -1.7882 -1.9132
  722MOL0     H97410   0.567   9.264   0.714 -0.7934 -1.9771 -1.2250
  722MOL0     H97411   0.640   9.152   0.913 -1.3575  0.5720 -1.0733
  722MOL0     H97412   0.798   9.151   0.871 -1.2330 -3.1633 -1.1817
  722MOL0     H97413   0.623   9.418   0.891 -0.1809  2.1643  1.6723
  722MOL0     H97414   0.708   9.351   1.026 -0.8468  0.2749  0.0222
  722MOL0     H97415   0.922   9.358   0.881 -0.2814 -1.7877  2.4134
  722MOL0     H97416   0.839   9.473   0.774  0.4088  1.6773  0.6509
  722MOL0     H97417   0.806   9.615   0.972 -0.2160  0.2406 -1.3015
  722MOL0     H97418   0.903   9.497   1.077  1.9170  1.3124 -0.1892
  722MOL0     H97419   1.034   9.595   0.834  2.2615  2.4402  1.1089
  722MOL0     H97420   1.099   9.519   0.974  1.6073  2.3501  0.4596
  722MOL0     H97421   0.970   9.839   0.799 -0.1619  0.0891  0.6647
  722MOL0     H97422   1.174  10.118   0.932  0.1106  3.4724 -1.2929
  722MOL0     H97423   1.064  10.071   0.800 -5.0586 -2.1298  0.4469
  722MOL0     H97424   0.969  10.267   0.913 -3.3344 -1.2231 -3.6131
  722MOL0     H97425   0.965  10.183   1.068  2.6040  0.7014  0.2860
  722MOL0     H97426   0.784  10.043   0.989 -3.1976  0.8378 -1.2832
  722MOL0     H97427   0.823  10.069   0.823 -2.6893  2.0857 -1.2385
  722MOL0     H97428   0.620  10.192   0.899 -0.3668  1.1450 -0.1487
  722MOL0     H97429   0.737  10.319   0.884 -1.4298 -0.2511  0.0955
  722MOL0     H97430   0.536  10.426   0.943  1.3376 -2.5001  0.0675
  722MOL0     H97431   0.514  10.753   1.029  0.7768 -0.4984  4.3366
  722MOL0     H97432   0.458  10.631   0.912  2.3282  0.0932 -0.6267
  722MOL0     H97433   0.342  10.685   1.041  0.0292 -2.6123  0.0671
  722MOL0     H97434   0.492  10.948   1.466 -2.1423 -1.3450 -2.8700
  722MOL0     H97435   0.346  11.088   1.652  0.5131 -0.5005  0.8904
  722MOL0     H97436   0.024  10.872   1.782  1.1810 -2.2448  0.1779
  722MOL0     H97437   0.096  10.837   1.933  0.4211  1.9677  1.4659
  722MOL0     H97438   0.071  11.064   2.019 -0.4503  0.8152  0.3956
  722MOL0     H97439  -0.014  11.106   1.861 -0.6516 -0.5023  0.0816
  722MOL0     H97440  -0.101  10.907   2.067 -0.5087 -0.6343 -1.8058
  722MOL0     H97441  -0.176  10.932   1.920 -0.7001  0.9821  0.7640
  722MOL0     H97442  -0.147  11.136   2.135 -1.5034 -0.3033  0.7974
  722MOL0     H97443  -0.205  11.180   1.968  0.3167  1.6976  1.6287
  722MOL0     H97444  -0.413  11.052   2.006  1.7875  3.2487 -1.8830
  722MOL0     H97445  -0.403  11.146   2.147 -2.3378  0.0670 -1.1306
  722MOL0     H97446  -0.473  10.924   2.184  0.0367 -0.8064 -1.0337
  722MOL0     H97447  -0.324  10.861   2.117 -1.6390 -1.1710  1.7914
  722MOL0     H97448  -0.364  11.031   2.368  0.8102  1.0717 -0.1909
  722MOL0     H97449  -0.205  10.992   2.303 -1.5435 -0.0772 -4.4964
  722MOL0     H97450  -0.269  10.819   2.486 -1.0018 -1.4744  1.5390
  722MOL0     H97451  -0.261  10.750   2.326  0.6134  0.9192  0.3329
  722MOL0     H97452   0.193  10.719   1.779 -1.1312  0.0379 -0.8295
  722MOL0     H97453   0.358  10.593   1.620 -0.3255  0.4598 -0.7794
  722MOL0     H97454   0.639  10.492   1.425  2.0600 -0.4422 -0.3037
  722MOL0     H97455   0.720  10.310   1.318  4.8831  1.0204 -1.4408
  722MOL0     H97456   0.817   8.990   0.427 -3.3376 -1.7533  3.9216
  722MOL0     H97457   0.956   8.900   0.272  0.3512 -0.8671  4.1492
  722MOL0     H97458   1.181   8.813  -0.127 -2.9622  0.0799  3.1481
  722MOL0     H97459   1.332   8.698  -0.272 -0.8168  1.6729  0.1121
  722MOL0     H97460   1.189   8.268  -0.352 -1.7056 -0.7502 -1.5224
  722MOL0     H97461   1.226   8.380  -0.490 -0.5687  0.2753 -1.3264
  722MOL0     H97462   1.377   8.185  -0.339 -1.0613  1.0799  1.0830
  722MOL0     H97463   1.469   8.302  -0.439  0.9899 -1.0170  1.8111
  722MOL0     H97464   1.236   8.127  -0.553 -0.3832  0.5442  0.4081
  722MOL0     H97465   1.414   8.087  -0.549  3.3026  2.3959 -1.9714
  722MOL0     H97466   1.411   8.332  -0.667 -0.3099 -0.6412  1.7865
  722MOL0     H97467   1.252   8.269  -0.716 -0.1937  0.7649  0.0730
  722MOL0     H97468   1.476   8.009  -0.940  0.1277  0.8153  0.0929
  722MOL0     H97469   1.123   8.335  -0.152 -1.4567  0.7931  3.1112
  722MOL0     H97470   0.972   8.475  -0.012 -0.1333 -0.7223 -0.3464
  723MOL0     O97471   9.048   5.985   3.529  0.3157  0.1247  0.9160
  723MOL0     C97472   9.169   6.002   3.500  1.2481 -0.2486  0.0413
  723MOL0     O97473   9.220   6.076   3.390  0.1804  0.0330 -0.0079
  723MOL0     C97474   9.119   6.142   3.316 -0.2350  0.0913  0.7840
  723MOL0     C97475   9.114   6.279   3.312 -0.2054  0.0908 -0.0203
  723MOL0     C97476   9.025   6.341   3.225 -0.1149 -0.5126 -0.1749
  723MOL0     C97477   8.934   6.264   3.143 -0.4760 -0.1761 -0.2675
  723MOL0     O97478   8.832   6.326   3.079 -0.1854  0.2739  0.0637
  723MOL0     C97479   8.729   6.375   3.172  0.5126 -0.9912 -0.7344
  723MOL0     C97480   8.623   6.267   3.187  0.6126 -0.2452  0.3581
  723MOL0     C97481   8.495   6.299   3.270  0.1699  0.7462  0.9246
  723MOL0     C97482   8.434   6.161   3.304  0.2120 -0.0836  0.6688
  723MOL0     C97483   8.294   6.172   3.350  0.1258  0.6064  1.1546
  723MOL0     C97484   8.235   6.025   3.378 -0.7390 -0.1564  0.4421
  723MOL0     C97485   8.083   6.026   3.411 -0.3592 -0.9641  0.1361
  723MOL0     C97486   8.042   5.876   3.407  0.8039 -0.1022 -0.5224
  723MOL0     N97487   7.899   5.849   3.423 -0.9612  0.8496  0.6141
  723MOL0     C97488   7.850   5.727   3.396 -0.2701  0.2270 -0.6982
  723MOL0     C97489   7.724   5.735   3.362 -0.3443  0.2956 -0.3308
  723MOL0     C97490   7.623   5.636   3.314 -0.0714 -0.2924  0.6582
  723MOL0     C97491   7.633   5.496   3.373  0.6711  0.3211 -0.9014
  723MOL0     C97492   7.507   5.413   3.340 -0.0203  0.2074 -0.0496
  723MOL0     C97493   7.524   5.334   3.214  0.3288  0.7113 -0.8216
  723MOL0     O97494   7.536   5.424   3.109  0.5941  0.5160  0.1004
  723MOL0     C97495   7.473   5.398   2.986 -0.6640 -0.2465  0.7127
  723MOL0     C97496   7.433   5.271   2.944  0.6697  0.6632  0.0972
  723MOL0     C97497   7.376   5.241   2.819  0.5801  0.5776  0.5529
  723MOL0     C97498   7.333   5.094   2.783 -0.0119  0.5812 -0.0896
  723MOL0     C97499   7.364   5.351   2.728 -0.2196  0.0500 -1.1691
  723MOL0     C97500   7.322   5.341   2.584  0.7252  0.3048  0.3999
  723MOL0     O97501   7.365   5.436   2.508  0.1068 -0.6083  0.8743
  723MOL0     C97502   7.361   5.423   2.377  0.6093 -0.2831  0.6285
  723MOL0     C97503   7.370   5.540   2.293 -0.5097  0.3097 -0.5199
  723MOL0     C97504   7.392   5.524   2.157  0.6502  0.2166 -0.2958
  723MOL0     C97505   7.395   5.391   2.104  0.3639 -0.8064  0.6566
  723MOL0     O97506   7.418   5.386   1.967  0.0290  0.3683 -0.1936
  723MOL0     C97507   7.560   5.391   1.944  1.0851  0.2655 -0.3541
  723MOL0     C97508   7.589   5.496   1.839  0.2682 -0.6707  0.4264
  723MOL0     C97509   7.731   5.476   1.783  0.4855  0.5935 -0.4825
  723MOL0     C97510   7.784   5.586   1.690  0.9046  0.1542 -0.7164
  723MOL0     C97511   7.683   5.617   1.567  0.2547  0.0739 -0.5237
  723MOL0     C97512   7.769   5.694   1.456 -0.2248  0.2550 -0.2279
  723MOL0     C97513   7.772   5.847   1.502 -1.2178 -0.8688 -1.2105
  723MOL0     C97514   7.818   5.922   1.380  0.3593  0.9617  0.0513
  723MOL0    Cl97515   7.676   5.925   1.275 -0.1052  0.1641 -0.3715
  723MOL0     C97516   7.373   5.278   2.179 -0.4700 -0.0591 -0.1573
  723MOL0     C97517   7.367   5.298   2.317 -0.2973 -0.5314 -0.0643
  723MOL0     O97518   7.239   5.261   2.560 -0.3474 -0.1693  0.1197
  723MOL0     C97519   7.413   5.475   2.766 -0.4334 -0.1038  0.3380
  723MOL0     C97520   7.468   5.500   2.892  0.4454  0.1643  0.1894
  723MOL0     N97521   7.694   5.869   3.382 -0.0648  0.5553 -0.1491
  723MOL0     N97522   7.796   5.936   3.418 -0.1909  0.2647  0.2756
  723MOL0     C97523   8.939   6.126   3.149  0.1955 -0.1906  0.0957
  723MOL0     C97524   9.030   6.068   3.232  0.0923  0.5011 -0.1956
  723MOL0     C97525   9.265   5.922   3.580 -0.1433  0.1165  0.1047
  723MOL0     C97526   9.398   5.908   3.538  1.3215  1.1665 -0.2480
  723MOL0     C97527   9.488   5.859   3.636  0.4896 -0.7344  0.9978
  723MOL0     C97528   9.460   5.830   3.767  1.0455 -0.2694  1.1425
  723MOL0     O97529   9.560   5.771   3.839 -0.2809 -0.0829  1.4122
  723MOL0     C97530   9.532   5.652   3.910  1.1806  0.5533 -1.1606
  723MOL0     C97531   9.670   5.574   3.908  0.4501  0.2291 -0.1742
  723MOL0     C97532   9.650   5.454   3.999 -0.0672  1.4784  0.7480
  723MOL0     C97533   9.773   5.364   3.965  0.3573 -0.1621 -0.0003
  723MOL0     C97534   9.896   5.416   4.028 -0.2699 -0.6911  0.4167
  723MOL0     C97535   9.997   5.444   4.087 -0.7806  0.2883 -0.3487
  723MOL0     C97536   9.324   5.843   3.809  0.7536 -0.3667  0.5234
  723MOL0     C97537   9.228   5.885   3.709 -0.8447  0.0730  0.5780
  723MOL0     H97538   9.171   6.343   3.378 -2.2346  2.2363 -0.2284
  723MOL0     H97539   9.046   6.447   3.212  1.1186 -0.7328 -0.1272
  723MOL0     H97540   8.766   6.388   3.274 -0.8418  1.2140 -0.4648
  723MOL0     H97541   8.692   6.467   3.126 -0.0350 -0.9248 -0.1690
  723MOL0     H97542   8.600   6.239   3.084  1.9710  2.1391 -0.6938
  723MOL0     H97543   8.669   6.176   3.226 -1.1187 -1.6584 -0.7592
  723MOL0     H97544   8.520   6.348   3.365  5.5883 -0.7705  0.6393
  723MOL0     H97545   8.435   6.368   3.210  2.4718  2.3314  0.3126
  723MOL0     H97546   8.439   6.091   3.219 -0.9845 -1.4957  1.7048
  723MOL0     H97547   8.495   6.103   3.374 -0.3634 -1.9930 -0.3221
  723MOL0     H97548   8.288   6.241   3.435  3.8543  3.3744 -0.5575
  723MOL0     H97549   8.235   6.212   3.268  0.9393 -1.0646 -0.3103
  723MOL0     H97550   8.252   5.955   3.295 -0.3782 -2.2658  2.1946
  723MOL0     H97551   8.292   5.976   3.458 -0.2340  0.2176  0.3212
  723MOL0     H97552   8.057   6.064   3.511 -0.7188  1.7157 -0.8924
  723MOL0     H97553   8.024   6.086   3.342 -1.1976  0.2588  1.8361
  723MOL0     H97554   8.099   5.822   3.483  1.0391 -1.2499 -1.4979
  723MOL0     H97555   8.074   5.821   3.318  2.3678 -0.0571 -0.0282
  723MOL0     H97556   7.907   5.635   3.398  1.7263  1.3524 -2.1923
  723MOL0     H97557   7.524   5.664   3.352  0.5576 -0.9833  2.9991
  723MOL0     H97558   7.638   5.628   3.206 -0.1316 -1.6113  0.7338
  723MOL0     H97559   7.639   5.497   3.482  2.0162 -1.2990 -0.9072
  723MOL0     H97560   7.714   5.434   3.333 -0.3899 -1.1211 -0.8990
  723MOL0     H97561   7.414   5.469   3.337 -0.6474 -0.8333 -0.5093
  723MOL0     H97562   7.494   5.340   3.421  0.8921 -0.7973 -0.7706
  723MOL0     H97563   7.440   5.265   3.207 -1.2293  2.3064  0.8867
  723MOL0     H97564   7.610   5.268   3.204 -0.3213  0.1496 -4.0247
  723MOL0     H97565   7.443   5.182   3.006  0.3442  0.9957  0.6374
  723MOL0     H97566   7.350   5.028   2.869  3.0026  0.1989 -0.8776
  723MOL0     H97567   7.227   5.082   2.762 -0.2140  1.6911  0.2089
  723MOL0     H97568   7.393   5.048   2.704 -4.6096 -4.0626 -1.4811
  723MOL0     H97569   7.358   5.642   2.328  0.2628  1.0981 -2.4700
  723MOL0     H97570   7.407   5.610   2.093  3.3831 -1.7710 -2.5453
  723MOL0     H97571   7.618   5.420   2.032  0.0732 -0.3895  0.5475
  723MOL0     H97572   7.585   5.287   1.921 -3.8696 -1.2081 -0.0867
  723MOL0     H97573   7.515   5.496   1.759  1.3884 -0.7050 -0.6345
  723MOL0     H97574   7.581   5.593   1.890  0.7510  0.1162 -0.9474
  723MOL0     H97575   7.731   5.388   1.719  1.7684  2.3679 -3.1023
  723MOL0     H97576   7.800   5.451   1.864 -0.6089 -1.3653 -0.0926
  723MOL0     H97577   7.792   5.678   1.749  3.1503 -0.2452 -0.3161
  723MOL0     H97578   7.879   5.553   1.647  0.9768 -1.3138  0.4658
  723MOL0     H97579   7.610   5.687   1.609  0.7111 -0.5301  1.3954
  723MOL0     H97580   7.639   5.528   1.522 -2.5287  0.9852  0.2331
  723MOL0     H97581   7.867   5.648   1.445  1.1937  2.9789  0.1398
  723MOL0     H97582   7.716   5.681   1.361 -0.8050 -2.1601  0.3434
  723MOL0     H97583   7.852   5.867   1.574 -1.0786 -3.7275 -0.4371
  723MOL0     H97584   7.679   5.883   1.548 -0.4888 -1.5673  0.9095
  723MOL0     H97585   7.906   5.889   1.324 -1.9931  0.6498 -3.8604
  723MOL0     H97586   7.849   6.021   1.415  2.1307  0.1881  0.7813
  723MOL0     H97587   7.394   5.184   2.129  2.1937  0.2335  0.2531
  723MOL0     H97588   7.369   5.207   2.375 -1.4385 -2.0446 -2.2623
  723MOL0     H97589   7.424   5.557   2.696 -0.7383 -0.8857 -0.6449
  723MOL0     H97590   7.511   5.598   2.911  1.9299 -0.8911  2.6943
  723MOL0     H97591   8.871   6.069   3.087  1.7638 -0.7877 -1.1387
  723MOL0     H97592   9.036   5.960   3.242  3.5810  0.6135  0.3344
  723MOL0     H97593   9.416   5.919   3.432  0.7028 -0.4138 -0.5550
  723MOL0     H97594   9.592   5.851   3.605 -0.8173 -1.3873 -4.1480
  723MOL0     H97595   9.494   5.674   4.010  2.0117 -1.9496 -0.2302
  723MOL0     H97596   9.447   5.597   3.869  1.1940 -0.8780  0.6207
  723MOL0     H97597   9.753   5.644   3.912  0.2989  0.9007 -4.1835
  723MOL0     H97598   9.689   5.543   3.805  1.4013  1.0809 -0.2619
  723MOL0     H97599   9.559   5.398   3.977 -0.2005  1.2155  1.8934
  723MOL0     H97600   9.644   5.476   4.106 -2.0070 -0.3217  1.0752
  723MOL0     H97601   9.790   5.355   3.858  0.6805  1.0134 -0.0685
  723MOL0     H97602   9.751   5.262   3.998 -3.8396  0.4303 -0.3964
  723MOL0     H97603  10.089   5.467   4.136 -1.6108  0.7819  1.0586
  723MOL0     H97604   9.297   5.827   3.913 -1.3907 -3.1013 -0.3101
  723MOL0     H97605   9.131   5.917   3.744 -1.1753  1.8929 -1.8186
  724MOL0     O97606   4.007   3.888   2.639 -0.2612 -0.4316 -0.5436
  724MOL0     C97607   4.111   3.875   2.585  0.2503 -0.6199  0.2842
  724MOL0     O97608   4.190   3.980   2.538 -0.4051  0.5149 -0.8429
  724MOL0     C97609   4.148   4.097   2.577  0.9417 -0.1396 -0.0160
  724MOL0     C97610   4.055   4.172   2.504 -0.5746 -0.5230  0.1651
  724MOL0     C97611   4.017   4.302   2.544 -0.0103  0.1656 -0.0841
  724MOL0     C97612   4.070   4.358   2.664  0.0047  0.1928 -0.4899
  724MOL0     O97613   4.040   4.488   2.697  0.2879 -0.6253  0.4945
  724MOL0     C97614   4.111   4.553   2.792  0.5441 -0.3753  0.1714
  724MOL0     C97615   4.053   4.536   2.934 -0.6460 -0.0650  0.3502
  724MOL0     C97616   3.906   4.591   2.945  0.6085  0.0151 -0.1981
  724MOL0     C97617   3.853   4.609   3.089 -0.2794  0.5423 -0.0767
  724MOL0     C97618   3.937   4.711   3.170  0.6985  0.1933  0.2913
  724MOL0     C97619   3.937   4.854   3.106  0.3501 -0.4051  0.7862
  724MOL0     C97620   3.792   4.914   3.082  0.2977 -0.6394 -0.3065
  724MOL0     C97621   3.740   4.923   2.941 -0.2791 -0.0297 -0.3334
  724MOL0     N97622   3.641   5.032   2.931 -0.4859 -0.3488 -0.1504
  724MOL0     C97623   3.643   5.151   2.986 -0.1853 -0.4963  0.3948
  724MOL0     C97624   3.528   5.225   2.952 -0.4184  0.1444  0.0072
  724MOL0     C97625   3.476   5.350   3.010 -0.2605 -0.3925  0.4904
  724MOL0     C97626   3.533   5.470   2.929 -0.1259  0.2177 -0.2379
  724MOL0     C97627   3.686   5.487   2.959  0.1234 -0.8586  0.8862
  724MOL0     C97628   3.731   5.622   2.931 -0.2506 -0.6379 -0.5412
  724MOL0     O97629   3.717   5.712   3.050 -0.4468 -0.2583 -0.2500
  724MOL0     C97630   3.786   5.827   3.043  0.1909 -0.3975 -0.3638
  724MOL0     C97631   3.859   5.878   3.155 -0.1611  0.3072  0.6482
  724MOL0     C97632   3.952   5.979   3.142 -0.2834 -0.2339 -0.2313
  724MOL0     C97633   4.055   5.981   3.255  0.1935  0.1615 -0.4957
  724MOL0     C97634   3.940   6.063   3.028 -0.1561  0.2368  0.7379
  724MOL0     C97635   4.020   6.189   2.995 -0.8998 -0.1446 -0.3281
  724MOL0     O97636   3.964   6.275   2.903 -0.0234  0.1876 -0.5640
  724MOL0     C97637   4.034   6.379   2.870 -1.2759  0.0986  0.0112
  724MOL0     C97638   4.032   6.498   2.953  0.2472 -0.6973  0.7387
  724MOL0     C97639   4.096   6.614   2.907  0.7392  0.1966 -0.6991
  724MOL0     C97640   4.166   6.613   2.788  0.4447 -0.3365 -1.1642
  724MOL0     O97641   4.232   6.731   2.766  0.3267 -0.4156 -0.0300
  724MOL0     C97642   4.270   6.767   2.626 -0.5715 -0.1581 -0.3205
  724MOL0     C97643   4.299   6.920   2.617  0.0686  0.8281  1.4860
  724MOL0     C97644   4.430   6.962   2.692  0.1716 -0.3379  0.0625
  724MOL0     C97645   4.426   7.112   2.717 -0.2114  0.0699 -0.4478
  724MOL0     C97646   4.571   7.163   2.752  1.0802  0.6811 -0.4861
  724MOL0     C97647   4.565   7.309   2.774 -0.1715 -0.3120  0.2198
  724MOL0     C97648   4.700   7.371   2.752 -0.1027  1.0405 -0.6691
  724MOL0     C97649   4.688   7.527   2.748  0.0992 -0.0071  0.4602
  724MOL0    Cl97650   4.598   7.563   2.599  0.0558 -0.2651  0.4307
  724MOL0     C97651   4.172   6.502   2.702  0.0477 -0.3452 -0.2380
  724MOL0     C97652   4.091   6.382   2.734 -0.3508 -0.3108 -1.1267
  724MOL0     O97653   4.126   6.205   3.050 -0.6024  0.2169 -0.3564
  724MOL0     C97654   3.845   6.024   2.923  0.6227 -0.2030 -0.4319
  724MOL0     C97655   3.779   5.903   2.926  1.1456 -0.3212 -1.4780
  724MOL0     N97656   3.459   5.129   2.885 -0.1380  0.2611  1.0071
  724MOL0     N97657   3.518   5.017   2.874 -0.1121  0.0931 -0.4187
  724MOL0     C97658   4.143   4.267   2.743  0.3006  0.3575  0.3705
  724MOL0     C97659   4.194   4.144   2.699 -0.0371  0.3914 -0.0383
  724MOL0     C97660   4.160   3.730   2.571 -0.1387 -0.5662  0.2538
  724MOL0     C97661   4.070   3.624   2.591  1.1673  0.8009  0.1533
  724MOL0     C97662   4.111   3.499   2.544 -0.4954  0.1558 -0.1863
  724MOL0     C97663   4.230   3.481   2.479  0.5214  0.5380 -0.0467
  724MOL0     O97664   4.270   3.353   2.425  0.2760  0.0349 -0.2038
  724MOL0     C97665   4.177   3.272   2.341 -0.0630 -0.7278  0.4266
  724MOL0     C97666   4.223   3.130   2.337  0.0966 -0.7849 -0.5717
  724MOL0     C97667   4.276   3.078   2.476  0.3117 -0.1864  1.9058
  724MOL0     C97668   4.195   3.093   2.607 -0.3444  0.1768 -1.2747
  724MOL0     C97669   4.080   3.008   2.598 -0.6469  0.1852  0.4009
  724MOL0     C97670   3.998   2.925   2.566  0.6587  0.5103  0.1563
  724MOL0     C97671   4.316   3.587   2.463  1.5627 -0.1938  0.7677
  724MOL0     C97672   4.288   3.713   2.514  0.1830 -0.4116 -0.1681
  724MOL0     H97673   4.027   4.142   2.404 -1.4948  1.7792 -0.3168
  724MOL0     H97674   3.940   4.357   2.490 -0.4958  1.7903  2.1146
  724MOL0     H97675   4.213   4.514   2.791  0.2689 -1.3021 -2.6256
  724MOL0     H97676   4.125   4.655   2.756 -1.1904 -0.9844 -2.5761
  724MOL0     H97677   4.050   4.428   2.950 -4.4180 -0.0453  0.7421
  724MOL0     H97678   4.131   4.584   2.994 -0.9481  0.9016 -0.0054
  724MOL0     H97679   3.900   4.691   2.902  2.6537  0.1408 -0.2543
  724MOL0     H97680   3.837   4.525   2.891 -2.3167  3.2215 -0.7358
  724MOL0     H97681   3.748   4.639   3.084  0.2815  2.6627  0.0983
  724MOL0     H97682   3.863   4.512   3.139  1.0551  0.3286 -0.6988
  724MOL0     H97683   3.884   4.713   3.265  1.4450 -1.7501  0.7960
  724MOL0     H97684   4.037   4.671   3.188 -0.4482 -2.5217  1.2859
  724MOL0     H97685   3.991   4.926   3.168 -0.4732  1.4146 -0.4885
  724MOL0     H97686   4.000   4.864   3.018  2.0795 -0.8705  1.9348
  724MOL0     H97687   3.718   4.870   3.149  0.0521  1.5883  0.9763
  724MOL0     H97688   3.807   5.017   3.116 -1.9491  0.0326 -1.1942
  724MOL0     H97689   3.693   4.826   2.922 -0.8689 -0.1305  1.5102
  724MOL0     H97690   3.823   4.942   2.872  1.3070 -0.9034  1.2776
  724MOL0     H97691   3.725   5.183   3.049  1.8316 -1.3015 -1.6897
  724MOL0     H97692   3.368   5.340   2.995 -0.1701 -0.0456 -0.4482
  724MOL0     H97693   3.498   5.352   3.117 -4.1720 -0.5748  1.4354
  724MOL0     H97694   3.489   5.563   2.965  1.2197  0.7487  0.0798
  724MOL0     H97695   3.530   5.454   2.821  0.0055 -1.7555  0.0076
  724MOL0     H97696   3.739   5.418   2.892 -2.5446  1.7434 -4.4919
  724MOL0     H97697   3.713   5.470   3.064  1.7409 -1.7548  0.3737
  724MOL0     H97698   3.685   5.670   2.844 -1.1793  2.0971  1.2903
  724MOL0     H97699   3.839   5.620   2.916 -0.0468 -2.5176  0.8073
  724MOL0     H97700   3.869   5.818   3.245  3.5767  0.2546  0.3551
  724MOL0     H97701   3.991   5.956   3.340 -1.9619  1.4371 -1.6436
  724MOL0     H97702   4.137   5.909   3.248  0.1632  0.1512 -0.7773
  724MOL0     H97703   4.096   6.082   3.271 -2.6182  1.4525 -0.8452
  724MOL0     H97704   3.971   6.500   3.044  1.1296 -3.9030  1.5074
  724MOL0     H97705   4.076   6.703   2.966 -3.5231  1.2174 -3.2670
  724MOL0     H97706   4.353   6.703   2.597 -0.6854 -1.7406  2.4525
  724MOL0     H97707   4.188   6.738   2.559 -0.1336 -0.0402 -0.9060
  724MOL0     H97708   4.298   6.951   2.512  2.3916  3.0544  2.0236
  724MOL0     H97709   4.213   6.967   2.666 -1.0430  2.0174 -1.3530
  724MOL0     H97710   4.509   6.925   2.626 -1.5950 -1.2789 -1.6220
  724MOL0     H97711   4.434   6.920   2.793 -3.0488  0.8416  0.7826
  724MOL0     H97712   4.394   7.161   2.625  3.7338  2.3809 -0.8290
  724MOL0     H97713   4.350   7.147   2.787  1.1712 -0.4066  1.3669
  724MOL0     H97714   4.632   7.141   2.664  0.0304 -1.8150 -0.6830
  724MOL0     H97715   4.615   7.116   2.841 -0.2191  1.2510  0.4941
  724MOL0     H97716   4.493   7.361   2.711  0.4341 -1.4808 -1.5331
  724MOL0     H97717   4.553   7.326   2.881  0.8040 -1.2323  0.5011
  724MOL0     H97718   4.735   7.339   2.654  0.7151 -0.0248 -0.0518
  724MOL0     H97719   4.768   7.346   2.834 -1.9280  0.8518  0.8602
  724MOL0     H97720   4.794   7.552   2.739 -0.4219  1.8621 -1.1063
  724MOL0     H97721   4.646   7.561   2.844 -2.9687  1.5621 -1.2928
  724MOL0     H97722   4.224   6.507   2.607 -2.6036 -0.2256 -1.8033
  724MOL0     H97723   4.082   6.297   2.667 -1.5413 -2.6995  1.7922
  724MOL0     H97724   3.830   6.078   2.830  0.8516  0.5964 -0.0163
  724MOL0     H97725   3.702   5.879   2.853  0.3825  0.5794 -0.9854
  724MOL0     H97726   4.188   4.299   2.837 -1.8634 -1.5313  2.1714
  724MOL0     H97727   4.268   4.092   2.759  1.0595 -0.3670 -1.9506
  724MOL0     H97728   3.966   3.632   2.624  0.1473 -0.1587 -2.5870
  724MOL0     H97729   4.053   3.418   2.589 -0.5546  2.3990  4.4394
  724MOL0     H97730   4.077   3.280   2.385  0.5284 -1.2318  1.8833
  724MOL0     H97731   4.162   3.325   2.246 -0.0118  1.8165  1.7360
  724MOL0     H97732   4.302   3.119   2.263  1.2386 -3.1822  0.8892
  724MOL0     H97733   4.137   3.069   2.306 -2.8638  1.0013  3.1954
  724MOL0     H97734   4.364   3.137   2.503  0.8348  0.0702 -0.1358
  724MOL0     H97735   4.292   2.970   2.462 -0.9205 -0.2989  1.2487
  724MOL0     H97736   4.173   3.198   2.630  2.0049  0.1628  1.6973
  724MOL0     H97737   4.251   3.059   2.696 -1.1087 -1.2944 -1.3211
  724MOL0     H97738   3.944   2.836   2.541  1.4677  0.5046 -1.7641
  724MOL0     H97739   4.411   3.565   2.415  2.1152 -0.3486  1.9123
  724MOL0     H97740   4.362   3.792   2.508 -1.4505  1.7084  3.4815
  725MOL0     O97741   0.593   4.958   5.095  0.4580  1.0127  0.3862
  725MOL0     C97742   0.626   5.003   4.989 -0.6023  0.5389 -0.4602
  725MOL0     O97743   0.751   5.070   4.969 -0.1408  0.7098  0.6223
  725MOL0     C97744   0.856   5.050   5.059  0.7407  0.4280 -0.3554
  725MOL0     C97745   0.899   5.164   5.127  0.0750 -0.1536  0.8800
  725MOL0     C97746   1.000   5.151   5.232  0.6061 -0.0987  0.5470
  725MOL0     C97747   1.048   5.020   5.266 -0.0113  0.3408  0.4041
  725MOL0     O97748   1.136   4.993   5.368 -0.1366 -0.3225  0.2823
  725MOL0     C97749   1.236   5.085   5.414  0.0120  0.0414  0.5260
  725MOL0     C97750   1.326   5.115   5.293  0.0339  0.0402 -0.2470
  725MOL0     C97751   1.417   5.235   5.308 -0.2154  0.1408  0.3415
  725MOL0     C97752   1.531   5.211   5.405 -0.8176 -0.3213  0.1173
  725MOL0     C97753   1.604   5.342   5.415  0.5635  0.2590  0.6734
  725MOL0     C97754   1.726   5.334   5.501  0.1184 -0.3338 -0.0891
  725MOL0     C97755   1.780   5.478   5.539 -0.5715  0.1153  0.7983
  725MOL0     C97756   1.792   5.581   5.419  0.0302  0.2324  0.0810
  725MOL0     N97757   1.837   5.713   5.452 -0.5631  0.4779  0.1394
  725MOL0     C97758   1.969   5.749   5.469  0.2632 -0.6940  0.0632
  725MOL0     C97759   1.959   5.874   5.530  0.0937  0.6314  0.7633
  725MOL0     C97760   2.082   5.951   5.562  0.4115  0.6254 -0.5095
  725MOL0     C97761   2.119   6.066   5.488  0.1629 -0.3225  0.9251
  725MOL0     C97762   2.010   6.171   5.503  0.4323  0.3085  0.1138
  725MOL0     C97763   2.039   6.295   5.411 -0.6907  0.1894 -0.1066
  725MOL0     O97764   2.169   6.353   5.444  0.7388  0.1722  0.4778
  725MOL0     C97765   2.193   6.478   5.399  0.0516 -0.2106 -1.3315
  725MOL0     C97766   2.256   6.560   5.487 -0.7345  0.3520  0.0018
  725MOL0     C97767   2.291   6.696   5.455  0.0724  0.1054  0.4504
  725MOL0     C97768   2.371   6.766   5.563  0.2430 -0.2798  0.5608
  725MOL0     C97769   2.249   6.762   5.336 -0.5989 -0.0475  0.4444
  725MOL0     C97770   2.289   6.895   5.305 -0.2342  0.2454  1.3021
  725MOL0     O97771   2.382   6.908   5.202 -0.2632 -0.3179 -0.4192
  725MOL0     C97772   2.435   7.031   5.155 -0.7167  0.3475  0.5428
  725MOL0     C97773   2.380   7.161   5.175 -0.2558 -0.4582  0.0745
  725MOL0     C97774   2.450   7.275   5.128  0.2282 -0.3786  0.5917
  725MOL0     C97775   2.565   7.260   5.048 -0.0103  0.8789 -0.1691
  725MOL0     O97776   2.631   7.367   4.987 -0.0553  0.6112 -0.0502
  725MOL0     C97777   2.619   7.500   5.038 -0.4226 -0.0671  0.4766
  725MOL0     C97778   2.715   7.604   4.977 -0.1528 -0.9756  1.1327
  725MOL0     C97779   2.632   7.719   4.937  1.0576 -0.7711  0.5331
  725MOL0     C97780   2.722   7.839   4.881  0.5421 -0.0008 -0.2293
  725MOL0     C97781   2.648   7.941   4.796  0.2545 -1.0176 -0.5516
  725MOL0     C97782   2.517   7.989   4.870 -0.8962  0.7979 -0.2420
  725MOL0     C97783   2.454   8.094   4.786 -0.4482  0.0846  0.3484
  725MOL0     C97784   2.362   8.174   4.868 -0.3706 -0.0843  0.4514
  725MOL0    Cl97785   2.450   8.265   4.986  0.1997 -0.1658  0.0314
  725MOL0     C97786   2.621   7.131   5.026  0.4758  0.6737 -0.1185
  725MOL0     C97787   2.559   7.024   5.088 -0.0709  0.1629  0.0955
  725MOL0     O97788   2.254   6.990   5.374  0.1848  0.3131  0.3662
  725MOL0     C97789   2.166   6.679   5.261 -0.4306  1.2235  0.4840
  725MOL0     C97790   2.149   6.537   5.284  0.6018 -0.5209  0.2500
  725MOL0     N97791   1.826   5.903   5.539 -0.0177 -1.1551  0.0094
  725MOL0     N97792   1.755   5.806   5.509  0.6990 -0.1022  0.1564
  725MOL0     C97793   0.995   4.907   5.194  0.5136 -0.5051 -0.2804
  725MOL0     C97794   0.905   4.918   5.082 -0.1553  1.0297 -0.7834
  725MOL0     C97795   0.544   4.994   4.870  0.4243 -0.4717  0.0910
  725MOL0     C97796   0.420   4.937   4.875  0.4615  0.5298  0.9991
  725MOL0     C97797   0.341   4.921   4.756  0.0101  0.7284  1.1400
  725MOL0     C97798   0.388   4.991   4.635 -0.2161  0.3880 -0.7955
  725MOL0     O97799   0.316   4.972   4.525  0.6333 -0.7579 -0.2212
  725MOL0     C97800   0.329   5.071   4.418  0.3327  0.3098  0.3580
  725MOL0     C97801   0.270   5.018   4.288  0.6464  0.3198  0.2969
  725MOL0     C97802   0.322   4.874   4.254  0.3515 -0.3364 -1.2636
  725MOL0     C97803   0.244   4.790   4.139  0.3392 -0.2719 -0.2934
  725MOL0     C97804   0.103   4.791   4.180 -0.0166  0.0728 -0.9367
  725MOL0     C97805  -0.017   4.810   4.208 -1.1382 -0.6451 -0.1296
  725MOL0     C97806   0.516   5.050   4.636 -0.0637 -0.6600  0.4455
  725MOL0     C97807   0.595   5.050   4.747 -0.0705  0.1042  0.3005
  725MOL0     H97808   0.863   5.259   5.090  0.0403 -1.0544 -1.6303
  725MOL0     H97809   1.040   5.241   5.277 -1.1548  2.5827 -2.8092
  725MOL0     H97810   1.181   5.167   5.460  0.3109 -0.6779  2.2373
  725MOL0     H97811   1.297   5.029   5.485  0.3739 -2.0907 -1.3261
  725MOL0     H97812   1.383   5.026   5.265  2.3240  1.2307  0.4145
  725MOL0     H97813   1.264   5.153   5.211  0.1580  1.1372  0.1602
  725MOL0     H97814   1.466   5.279   5.220 -2.8036  6.7598  1.5659
  725MOL0     H97815   1.348   5.315   5.336 -2.5867 -0.9707 -1.8712
  725MOL0     H97816   1.497   5.181   5.505  2.5690  2.0226  2.1752
  725MOL0     H97817   1.592   5.129   5.366 -1.6763 -1.4553  1.0864
  725MOL0     H97818   1.642   5.380   5.319  1.8662 -0.7628  0.7624
  725MOL0     H97819   1.536   5.411   5.466 -0.0731 -0.5417  0.9306
  725MOL0     H97820   1.702   5.283   5.595  0.1472  6.1655  4.1217
  725MOL0     H97821   1.810   5.275   5.462  0.2607 -0.8583  0.9646
  725MOL0     H97822   1.713   5.520   5.614 -0.5295  1.5181  0.0783
  725MOL0     H97823   1.879   5.461   5.583 -0.1665 -1.4955 -0.6293
  725MOL0     H97824   1.695   5.590   5.369 -0.8051 -0.0999  1.5851
  725MOL0     H97825   1.864   5.544   5.347 -1.4262 -0.5260 -1.0309
  725MOL0     H97826   2.053   5.698   5.423  0.8141  1.9184 -2.1128
  725MOL0     H97827   2.073   5.976   5.668 -0.9965 -0.9948 -0.2051
  725MOL0     H97828   2.164   5.879   5.555 -2.1794 -2.5240 -0.6166
  725MOL0     H97829   2.135   6.031   5.386  0.2683  0.0297  0.8196
  725MOL0     H97830   2.210   6.111   5.528  0.6081 -1.6109  1.4311
  725MOL0     H97831   2.000   6.191   5.610  0.4338 -2.4830  0.7276
  725MOL0     H97832   1.922   6.125   5.457  2.2818 -3.4620 -0.0762
  725MOL0     H97833   1.963   6.368   5.436 -0.6043 -0.9951  4.5359
  725MOL0     H97834   2.037   6.267   5.305  1.5869  1.4360 -0.5609
  725MOL0     H97835   2.287   6.509   5.577 -0.1296  0.2149 -0.2836
  725MOL0     H97836   2.437   6.697   5.616 -0.7476 -0.6901  1.2718
  725MOL0     H97837   2.430   6.847   5.518 -2.4187  2.6847  2.0582
  725MOL0     H97838   2.304   6.806   5.639 -1.5814  0.6006 -1.4155
  725MOL0     H97839   2.282   7.170   5.220 -0.7863 -0.0583 -1.1320
  725MOL0     H97840   2.397   7.369   5.133 -1.8784 -1.3212 -1.6892
  725MOL0     H97841   2.518   7.539   5.022 -0.5198 -0.4461  0.1655
  725MOL0     H97842   2.644   7.507   5.145  0.2450 -0.5606  0.3533
  725MOL0     H97843   2.800   7.628   5.041  1.7902 -3.6024 -0.2595
  725MOL0     H97844   2.739   7.574   4.874 -3.6038  0.9341 -0.4274
  725MOL0     H97845   2.572   7.752   5.022 -0.8517  0.0254 -1.0537
  725MOL0     H97846   2.563   7.680   4.863  1.9364  1.0610 -1.3646
  725MOL0     H97847   2.774   7.883   4.966  1.3985  3.0195 -2.1250
  725MOL0     H97848   2.794   7.799   4.810  0.5043  0.0591 -0.3025
  725MOL0     H97849   2.608   7.910   4.699 -1.0068  1.7745 -1.0270
  725MOL0     H97850   2.713   8.027   4.776 -0.7158  0.0030  0.5308
  725MOL0     H97851   2.458   7.898   4.886  1.3480 -0.8831 -0.9247
  725MOL0     H97852   2.538   8.026   4.970 -0.5573 -0.3186  0.1224
  725MOL0     H97853   2.399   8.045   4.705  3.1590 -1.2517 -1.5249
  725MOL0     H97854   2.521   8.166   4.737 -0.3773  0.1810  0.5869
  725MOL0     H97855   2.282   8.109   4.906 -5.2120  3.6110 -2.2338
  725MOL0     H97856   2.311   8.245   4.802 -0.1764  0.2327  0.6382
  725MOL0     H97857   2.710   7.130   4.965 -0.7310 -0.6123 -1.9812
  725MOL0     H97858   2.601   6.925   5.071  0.2938  0.5300 -1.2473
  725MOL0     H97859   2.124   6.710   5.165 -4.8107 -2.4076  0.9263
  725MOL0     H97860   2.082   6.478   5.222 -1.0666  1.1445  0.3649
  725MOL0     H97861   1.038   4.809   5.212  1.6288  0.3792  2.4698
  725MOL0     H97862   0.883   4.830   5.023 -1.6759 -0.7593  2.2287
  725MOL0     H97863   0.381   4.899   4.969 -0.5783 -1.1436 -0.0726
  725MOL0     H97864   0.243   4.877   4.766  0.5220 -0.5883  0.6482
  725MOL0     H97865   0.270   5.160   4.442 -2.1819 -0.2720 -2.9147
  725MOL0     H97866   0.432   5.096   4.394  0.4462  1.1430  1.6371
  725MOL0     H97867   0.286   5.087   4.206 -1.5500 -0.5107 -0.9255
  725MOL0     H97868   0.166   5.008   4.323  0.4806  1.8781  0.2841
  725MOL0     H97869   0.313   4.821   4.349  1.7338 -0.2697 -1.0725
  725MOL0     H97870   0.429   4.883   4.232  1.4780  2.1094  3.9340
  725MOL0     H97871   0.280   4.687   4.138  0.3392 -0.2663 -0.8535
  725MOL0     H97872   0.263   4.828   4.038 -0.3895 -2.4305 -1.3125
  725MOL0     H97873  -0.117   4.840   4.233 -1.6015 -1.6890 -0.6440
  725MOL0     H97874   0.541   5.104   4.544 -4.7172 -0.6794 -1.0552
  725MOL0     H97875   0.683   5.112   4.729  1.9373 -3.3493 -3.5744
  726MOL0     O97876   0.101   4.442   2.918  0.4335 -0.4836  0.0624
  726MOL0     C97877   0.100   4.346   3.000  0.3824 -0.3332  0.7780
  726MOL0     O97878   0.091   4.362   3.136  0.5202 -0.1616  1.1101
  726MOL0     C97879   0.079   4.482   3.206  1.0409 -0.2470  0.5015
  726MOL0     C97880   0.115   4.485   3.339 -0.5228 -1.1912  0.4699
  726MOL0     C97881   0.111   4.595   3.422 -0.1338 -0.1145  1.0619
  726MOL0     C97882   0.085   4.720   3.360  1.1815  0.4245 -0.7521
  726MOL0     O97883   0.089   4.842   3.421 -0.0755 -0.4820  0.0102
  726MOL0     C97884   0.175   4.857   3.543 -0.3557  0.8020 -0.3074
  726MOL0     C97885   0.098   4.830   3.672  1.1376 -0.4067  1.0397
  726MOL0     C97886  -0.006   4.946   3.694  0.1667 -0.5543  0.4724
  726MOL0     C97887  -0.002   4.990   3.840 -0.0775  0.3976 -0.1267
  726MOL0     C97888  -0.107   5.092   3.873 -0.5767  0.3154  0.3989
  726MOL0     C97889  -0.117   5.128   4.024  0.3002  0.0004 -0.5721
  726MOL0     C97890   0.003   5.184   4.080 -0.1752  0.6671 -0.0224
  726MOL0     C97891   0.063   5.307   4.005  0.0378 -0.0348 -0.1187
  726MOL0     N97892   0.145   5.388   4.097 -0.4733  0.3198 -0.4732
  726MOL0     C97893   0.129   5.524   4.121 -0.7761  0.5483 -0.8962
  726MOL0     C97894   0.245   5.567   4.173 -0.2485 -0.1922  0.6428
  726MOL0     C97895   0.289   5.706   4.206  0.1732  0.0698 -0.9043
  726MOL0     C97896   0.437   5.718   4.242 -0.2227 -0.0397 -0.1662
  726MOL0     C97897   0.480   5.861   4.296  1.5540 -0.1214  0.5731
  726MOL0     C97898   0.622   5.871   4.358 -0.0949  0.5837  0.5751
  726MOL0     O97899   0.596   5.842   4.499  0.7951  0.2904 -0.1870
  726MOL0     C97900   0.681   5.869   4.601 -0.8976 -0.4454 -0.4456
  726MOL0     C97901   0.631   5.849   4.735 -0.4313 -0.8267  1.2530
  726MOL0     C97902   0.703   5.887   4.849  1.0440 -0.2429  1.2867
  726MOL0     C97903   0.626   5.877   4.985  0.1584 -0.4177 -0.3795
  726MOL0     C97904   0.837   5.942   4.832 -0.1901  0.3798 -0.7455
  726MOL0     C97905   0.926   5.987   4.939 -0.2231  0.5103 -0.2385
  726MOL0     O97906   1.057   5.984   4.908  0.7656  0.3460 -0.0420
  726MOL0     C97907   1.152   6.053   4.978 -0.1496  0.7050  0.0472
  726MOL0     C97908   1.199   6.008   5.098 -0.4173 -0.4330 -0.0413
  726MOL0     C97909   1.300   6.069   5.163 -0.3299 -0.0748 -0.4082
  726MOL0     C97910   1.348   6.191   5.115 -0.0754 -0.2230 -0.1915
  726MOL0     O97911   1.435   6.254   5.202  0.6099 -0.5920  0.1177
  726MOL0     C97912   1.473   6.384   5.170  0.4839 -0.7810 -0.6771
  726MOL0     C97913   1.575   6.439   5.277  0.2842  0.4419 -1.6256
  726MOL0     C97914   1.612   6.590   5.257  0.4445  0.5993 -0.4670
  726MOL0     C97915   1.710   6.654   5.362 -0.3213  0.1033 -0.5836
  726MOL0     C97916   1.726   6.804   5.353  0.4734 -0.5016 -0.9455
  726MOL0     C97917   1.840   6.847   5.455  0.3224 -0.1365  0.0642
  726MOL0     C97918   1.849   7.004   5.466 -0.5987  0.3652 -0.4965
  726MOL0     C97919   1.908   7.041   5.608  0.5755  0.3456 -0.3713
  726MOL0    Cl97920   1.881   7.212   5.639  0.1403  0.4140  0.0075
  726MOL0     C97921   1.314   6.232   4.992  0.0446  0.0740 -0.1680
  726MOL0     C97922   1.213   6.168   4.922  0.3538  0.2943 -0.7620
  726MOL0     O97923   0.886   6.006   5.053  0.3599 -0.6662  0.2968
  726MOL0     C97924   0.880   5.957   4.697  0.7310  0.9232 -0.3351
  726MOL0     C97925   0.809   5.922   4.587 -0.1093 -0.8222 -0.1063
  726MOL0     N97926   0.333   5.463   4.160  0.4774  0.0843 -0.7876
  726MOL0     N97927   0.271   5.355   4.136 -0.0043  0.0667  0.3032
  726MOL0     C97928   0.029   4.719   3.228 -0.9992 -0.6504 -0.0975
  726MOL0     C97929   0.030   4.598   3.153  0.0962 -0.1928  0.0286
  726MOL0     C97930   0.103   4.203   2.953 -0.2523 -0.6489 -1.3749
  726MOL0     C97931   0.147   4.174   2.830  1.0282 -0.4645  0.3264
  726MOL0     C97932   0.137   4.047   2.789  1.5938 -0.1452 -0.4550
  726MOL0     C97933   0.088   3.943   2.873  0.3297  0.2005  0.8696
  726MOL0     O97934   0.071   3.823   2.808  0.2605 -0.6828  0.1332
  726MOL0     C97935  -0.022   3.732   2.873 -0.9634 -0.4792 -0.0764
  726MOL0     C97936  -0.006   3.598   2.802  0.7846  0.1368 -0.2763
  726MOL0     C97937  -0.102   3.488   2.840 -0.1570  0.2169  0.7132
  726MOL0     C97938  -0.104   3.476   2.995 -0.0610  0.5333  0.7505
  726MOL0     C97939  -0.183   3.365   3.053  0.1522  0.7143  0.3720
  726MOL0     C97940  -0.257   3.271   3.098 -0.3353 -0.3230  0.8206
  726MOL0     C97941   0.037   3.969   3.000 -0.3549 -0.8423 -0.0196
  726MOL0     C97942   0.050   4.106   3.038  0.0528 -0.1427  0.0244
  726MOL0     H97943   0.149   4.396   3.392 -0.2736 -0.9115  0.7769
  726MOL0     H97944   0.155   4.579   3.520  0.5516  0.2024  0.8103
  726MOL0     H97945   0.266   4.796   3.538  0.9465  2.2838  2.7202
  726MOL0     H97946   0.206   4.961   3.536  1.0042  0.4522  0.2886
  726MOL0     H97947   0.053   4.730   3.671  1.4451 -0.5455 -0.3703
  726MOL0     H97948   0.164   4.843   3.759 -0.3832  2.3707  1.8759
  726MOL0     H97949   0.005   5.029   3.624 -0.1149 -0.6727  0.2888
  726MOL0     H97950  -0.111   4.919   3.680  0.2696  0.0724 -1.8062
  726MOL0     H97951   0.005   4.903   3.905  2.9239  0.3644 -0.3571
  726MOL0     H97952   0.095   5.042   3.846  0.9273 -1.4959  1.2714
  726MOL0     H97953  -0.094   5.185   3.816  0.8946  1.0903  1.9208
  726MOL0     H97954  -0.203   5.045   3.851 -0.3026 -0.2434  0.3928
  726MOL0     H97955  -0.190   5.208   4.038 -0.3532 -0.1057 -2.9020
  726MOL0     H97956  -0.145   5.044   4.088  0.7257  0.9875  0.9623
  726MOL0     H97957  -0.004   5.213   4.185  1.6440 -2.3016  1.0390
  726MOL0     H97958   0.080   5.106   4.075 -0.3368  0.3482  1.7587
  726MOL0     H97959  -0.018   5.376   3.976  1.2877  2.5880  2.2227
  726MOL0     H97960   0.117   5.270   3.917 -2.0816  0.3365 -1.6601
  726MOL0     H97961   0.038   5.580   4.103 -1.5640  0.2236  1.7030
  726MOL0     H97962   0.277   5.770   4.118  1.7483 -1.7495 -2.5076
  726MOL0     H97963   0.220   5.732   4.287 -1.2926 -2.4846 -1.2261
  726MOL0     H97964   0.484   5.700   4.145  0.3371  0.3728  0.0177
  726MOL0     H97965   0.479   5.648   4.314  1.2978 -1.1080 -1.9905
  726MOL0     H97966   0.405   5.902   4.365  0.3619 -0.1029 -0.6725
  726MOL0     H97967   0.478   5.934   4.215 -3.6183  0.4330  0.8748
  726MOL0     H97968   0.676   5.963   4.332  0.4164  0.4678  1.1956
  726MOL0     H97969   0.677   5.786   4.318 -1.3569  0.1333 -0.2530
  726MOL0     H97970   0.535   5.797   4.734  0.0711 -1.7838 -0.3531
  726MOL0     H97971   0.689   5.851   5.070  0.9200 -0.0593 -0.8278
  726MOL0     H97972   0.581   5.975   5.007  0.7990 -0.3406  0.6492
  726MOL0     H97973   0.542   5.808   4.971 -2.1106  2.3885 -1.7603
  726MOL0     H97974   1.141   5.922   5.129  0.7009 -0.5811  1.7671
  726MOL0     H97975   1.340   6.032   5.257 -0.7025  2.3927  0.7768
  726MOL0     H97976   1.538   6.401   5.084  1.4064  2.4484  0.4899
  726MOL0     H97977   1.393   6.458   5.159  1.8204  0.4448 -2.9474
  726MOL0     H97978   1.530   6.422   5.375  0.8722  1.6626 -1.1172
  726MOL0     H97979   1.672   6.388   5.276  1.8546  3.2311 -3.1009
  726MOL0     H97980   1.514   6.636   5.267  1.3743  2.7273 -0.5715
  726MOL0     H97981   1.650   6.612   5.156 -0.2472 -0.9882 -1.0938
  726MOL0     H97982   1.684   6.619   5.462 -2.3227 -3.2923 -2.1281
  726MOL0     H97983   1.812   6.623   5.335 -0.4643  1.0499 -2.3939
  726MOL0     H97984   1.639   6.864   5.382  3.5252  4.1096 -0.3674
  726MOL0     H97985   1.756   6.836   5.253  1.5906  0.0758 -0.4482
  726MOL0     H97986   1.796   6.814   5.550  0.3242  0.9026  0.4391
  726MOL0     H97987   1.933   6.793   5.437  1.3665  2.0761 -1.5294
  726MOL0     H97988   1.747   7.041   5.457 -1.7842 -1.7913  2.3829
  726MOL0     H97989   1.912   7.048   5.389  0.0383  0.6242  0.1549
  726MOL0     H97990   2.017   7.029   5.619  0.6820  1.9443  0.7418
  726MOL0     H97991   1.857   6.981   5.684  3.0095 -0.5446  0.6649
  726MOL0     H97992   1.358   6.321   4.948  0.8216 -1.6467 -3.1210
  726MOL0     H97993   1.180   6.199   4.824  4.5546  0.5819 -2.2686
  726MOL0     H97994   0.980   5.997   4.683  2.0143 -1.5511  1.0537
  726MOL0     H97995   0.853   5.931   4.488  0.9234 -0.0401  0.3993
  726MOL0     H97996  -0.008   4.812   3.186  2.0033  0.3317 -0.8243
  726MOL0     H97997   0.005   4.604   3.047  0.5193  3.5661  0.0126
  726MOL0     H97998   0.187   4.260   2.778 -0.2583  0.1631  0.3457
  726MOL0     H97999   0.162   4.029   2.685  1.1204 -2.4322 -0.2365
  726MOL0     H98000   0.010   3.735   2.977  1.1955 -0.6533 -0.6853
  726MOL0     H98001  -0.121   3.775   2.855 -0.5492 -0.4842 -2.7575
  726MOL0     H98002   0.100   3.571   2.812  0.5169 -1.6187 -1.5976
  726MOL0     H98003  -0.028   3.615   2.696 -0.6465  4.1079  0.4881
  726MOL0     H98004  -0.063   3.391   2.808  2.6164  0.3291  3.2797
  726MOL0     H98005  -0.201   3.512   2.801 -1.4351 -1.1276  2.9025
  726MOL0     H98006  -0.142   3.565   3.046 -0.6134  1.3118 -0.9445
  726MOL0     H98007  -0.003   3.457   3.031  1.0828  0.3080 -2.2588
  726MOL0     H98008  -0.312   3.189   3.138  0.7907 -0.2201  2.6983
  726MOL0     H98009   0.018   3.898   3.080  2.8057  0.3475  2.0092
  726MOL0     H98010   0.006   4.127   3.135 -2.3766  1.1172 -1.2526
  727MOL0     O98011   7.032   3.511   9.117  0.8981  0.7463 -0.5387
  727MOL0     C98012   6.937   3.436   9.090  0.1072  0.4131 -0.1439
  727MOL0     O98013   6.838   3.465   8.997  0.2347 -0.0735  0.5135
  727MOL0     C98014   6.823   3.600   8.960  0.2697 -1.0579  0.0556
  727MOL0     C98015   6.721   3.678   9.011 -0.4571 -1.0064 -0.8711
  727MOL0     C98016   6.708   3.814   8.970  0.2391 -0.8323 -0.7100
  727MOL0     C98017   6.800   3.876   8.883 -0.0210  0.6409  0.8305
  727MOL0     O98018   6.777   4.006   8.847 -0.4328  0.0267 -0.1170
  727MOL0     C98019   6.852   4.042   8.732 -0.2430  0.1932  0.0509
  727MOL0     C98020   6.816   4.180   8.679 -0.1535 -0.0176 -0.1528
  727MOL0     C98021   6.668   4.200   8.665  0.6443 -0.2532  1.2172
  727MOL0     C98022   6.643   4.340   8.612 -0.3108  0.3850 -0.0030
  727MOL0     C98023   6.505   4.383   8.618 -0.0394 -0.4976 -0.2050
  727MOL0     C98024   6.481   4.519   8.566  0.4544 -0.9929 -0.2913
  727MOL0     C98025   6.339   4.573   8.541 -0.6674  0.0136  0.0244
  727MOL0     C98026   6.238   4.559   8.657 -0.8928 -0.5634  1.3596
  727MOL0     N98027   6.288   4.629   8.778  0.1411  0.1924  0.2853
  727MOL0     C98028   6.288   4.765   8.785  0.4857  1.0298  0.5987
  727MOL0     C98029   6.312   4.795   8.915  0.3099  1.2996  0.6046
  727MOL0     C98030   6.291   4.926   8.974 -0.3563  0.0824  0.3625
  727MOL0     C98031   6.262   5.043   8.884 -0.1376  0.4164 -0.2508
  727MOL0     C98032   6.278   5.171   8.961 -0.3453 -0.6510 -1.5409
  727MOL0     C98033   6.279   5.296   8.873  0.3788 -0.5254 -0.2763
  727MOL0     O98034   6.153   5.305   8.801  0.6333  0.1521  0.0029
  727MOL0     C98035   6.099   5.420   8.747 -1.1854  0.0392 -0.1142
  727MOL0     C98036   6.168   5.543   8.744  0.0113 -0.8647  0.0986
  727MOL0     C98037   6.097   5.649   8.685  0.6313 -0.9433  0.4008
  727MOL0     C98038   6.164   5.784   8.642 -0.7543  0.0400 -0.6980
  727MOL0     C98039   5.965   5.635   8.636 -0.2190  0.4774  0.3177
  727MOL0     C98040   5.884   5.740   8.574 -0.3329  0.4692 -0.3772
  727MOL0     O98041   5.784   5.698   8.485  0.6180 -0.7092 -0.2058
  727MOL0     C98042   5.700   5.801   8.438 -0.3878  0.1045  0.2583
  727MOL0     C98043   5.654   5.799   8.301  0.2731 -0.1119 -1.1351
  727MOL0     C98044   5.577   5.902   8.251 -0.2576 -0.0516 -0.2617
  727MOL0     C98045   5.546   6.015   8.334 -0.5516  0.0977 -0.8889
  727MOL0     O98046   5.478   6.112   8.274 -0.1949  0.1678 -0.2231
  727MOL0     C98047   5.404   6.205   8.360 -0.1903  0.1924  0.9729
  727MOL0     C98048   5.485   6.332   8.379  1.3847 -0.1631  0.4049
  727MOL0     C98049   5.417   6.441   8.462 -0.0288  0.1566 -0.3272
  727MOL0     C98050   5.267   6.461   8.404  0.2206  1.0450 -0.0688
  727MOL0     C98051   5.186   6.571   8.478 -0.0074 -0.0933 -0.3676
  727MOL0     C98052   5.084   6.638   8.386 -0.4134 -0.5965 -0.1093
  727MOL0     C98053   5.003   6.736   8.473  0.2271 -0.8967  0.3198
  727MOL0     C98054   5.050   6.886   8.454  0.3304 -0.3653  0.5294
  727MOL0    Cl98055   5.036   6.920   8.280 -0.2987 -0.1805  0.3925
  727MOL0     C98056   5.601   6.020   8.466  0.4768  0.0634 -1.3893
  727MOL0     C98057   5.667   5.913   8.513 -0.2336 -0.0632  0.3629
  727MOL0     O98058   5.910   5.858   8.600  0.3872 -0.6196  0.7784
  727MOL0     C98059   5.905   5.507   8.629 -0.1929 -0.7701 -0.9192
  727MOL0     C98060   5.977   5.402   8.682 -0.0240 -0.3554 -0.1818
  727MOL0     N98061   6.317   4.666   8.981 -0.6552 -0.2500  0.3742
  727MOL0     N98062   6.289   4.574   8.903 -0.3842  0.5505 -0.2542
  727MOL0     C98063   6.893   3.792   8.840 -0.2697  0.6631 -0.7676
  727MOL0     C98064   6.905   3.661   8.864  0.9748  0.5243  0.0809
  727MOL0     C98065   6.941   3.298   9.140 -1.2405 -0.2345 -0.3592
  727MOL0     C98066   6.846   3.208   9.102  0.8783 -0.0648 -0.6948
  727MOL0     C98067   6.835   3.073   9.148  0.8493 -1.0975 -1.1216
  727MOL0     C98068   6.939   3.029   9.223 -0.5709 -0.7813 -0.3958
  727MOL0     O98069   6.929   2.894   9.239  0.0058 -0.3827 -0.1564
  727MOL0     C98070   7.020   2.829   9.326  0.0159  0.2102 -0.5377
  727MOL0     C98071   7.011   2.673   9.327  0.0936 -0.7463 -0.3197
  727MOL0     C98072   7.121   2.614   9.415  1.0294  0.0940 -0.0362
  727MOL0     C98073   7.175   2.478   9.378  0.0034  0.2022  0.5392
  727MOL0     C98074   7.228   2.469   9.243  0.2332  0.7145 -0.3127
  727MOL0     C98075   7.273   2.454   9.131 -0.5907 -0.2547  0.0133
  727MOL0     C98076   7.043   3.109   9.264 -0.7532 -0.5599  0.3453
  727MOL0     C98077   7.045   3.243   9.208 -0.6776 -0.9104  0.6523
  727MOL0     H98078   6.651   3.634   9.081  1.6641 -0.7668  1.5529
  727MOL0     H98079   6.625   3.875   9.003  1.7867  0.9534  0.0763
  727MOL0     H98080   6.960   4.034   8.745 -0.2698 -3.0854 -0.8346
  727MOL0     H98081   6.840   3.972   8.648  1.8709 -1.3073  0.9264
  727MOL0     H98082   6.867   4.252   8.743 -1.4758 -0.3676  1.3610
  727MOL0     H98083   6.854   4.200   8.578 -0.4247  1.5967  0.0302
  727MOL0     H98084   6.617   4.131   8.598  0.1347  1.4587 -0.2509
  727MOL0     H98085   6.620   4.197   8.764  3.1936 -0.2677  2.5259
  727MOL0     H98086   6.703   4.417   8.662  0.2016  1.9268 -2.8089
  727MOL0     H98087   6.685   4.338   8.511  3.6217  0.2096  1.4443
  727MOL0     H98088   6.437   4.319   8.559 -0.6314 -0.4728  0.4371
  727MOL0     H98089   6.464   4.382   8.719  1.1783 -0.1412  0.3019
  727MOL0     H98090   6.538   4.587   8.630  0.5013 -0.1153 -1.2273
  727MOL0     H98091   6.534   4.523   8.470  2.5259  2.1528  0.8283
  727MOL0     H98092   6.345   4.679   8.513 -1.0173 -0.7478 -3.3892
  727MOL0     H98093   6.312   4.515   8.452  0.8009 -2.7898  1.2731
  727MOL0     H98094   6.215   4.453   8.671  1.7498 -1.2069  1.3799
  727MOL0     H98095   6.142   4.604   8.629 -1.9327 -1.5232  3.1852
  727MOL0     H98096   6.237   4.827   8.712  0.0404  0.9279  0.8244
  727MOL0     H98097   6.213   4.907   9.048  0.3909  4.5468  2.6150
  727MOL0     H98098   6.377   4.946   9.038 -0.8953 -1.1998  1.5446
  727MOL0     H98099   6.161   5.027   8.845 -0.2066  0.7709 -0.2231
  727MOL0     H98100   6.327   5.045   8.797  1.6265 -0.2731  0.9961
  727MOL0     H98101   6.370   5.164   9.020 -0.9192 -1.6978 -0.7475
  727MOL0     H98102   6.193   5.178   9.029  2.7887 -1.0616  2.8600
  727MOL0     H98103   6.351   5.269   8.795 -0.4941  1.3266 -1.8099
  727MOL0     H98104   6.298   5.391   8.923  0.4056  0.4935 -2.1400
  727MOL0     H98105   6.272   5.555   8.775 -0.0202 -1.0096  0.2616
  727MOL0     H98106   6.139   5.870   8.705 -1.5480 -0.4589 -0.3242
  727MOL0     H98107   6.273   5.772   8.649 -0.3785  3.2378  1.0220
  727MOL0     H98108   6.148   5.819   8.539  1.0821  0.6434 -0.8235
  727MOL0     H98109   5.679   5.705   8.253 -2.5551 -2.4255  1.4656
  727MOL0     H98110   5.541   5.886   8.150  0.9041 -4.6722 -0.1790
  727MOL0     H98111   5.315   6.234   8.303 -0.5821 -0.4329  1.2633
  727MOL0     H98112   5.375   6.168   8.459 -1.3135 -0.9372  0.2464
  727MOL0     H98113   5.578   6.295   8.423  0.8788  1.0839  2.7046
  727MOL0     H98114   5.500   6.366   8.276 -2.2226 -0.9579 -0.5342
  727MOL0     H98115   5.479   6.531   8.452  3.9280 -2.1993  1.0921
  727MOL0     H98116   5.419   6.411   8.567  2.7015  1.6554  0.1363
  727MOL0     H98117   5.279   6.492   8.300 -0.2412 -1.6189 -1.0025
  727MOL0     H98118   5.205   6.370   8.407  0.5930  0.6245 -2.9081
  727MOL0     H98119   5.252   6.654   8.507 -2.5644  1.8909  0.1534
  727MOL0     H98120   5.146   6.534   8.573 -0.4620  1.5570  0.1184
  727MOL0     H98121   5.117   6.691   8.296  0.1874  2.0383  1.5431
  727MOL0     H98122   5.006   6.569   8.352 -0.5302 -1.3412  1.5537
  727MOL0     H98123   5.013   6.709   8.579 -2.1910 -2.8450  0.1566
  727MOL0     H98124   4.897   6.721   8.455  0.2044 -0.6833  0.2743
  727MOL0     H98125   5.151   6.907   8.491  0.7532  1.0928 -1.3149
  727MOL0     H98126   4.987   6.953   8.514  0.4633 -0.9404  1.3286
  727MOL0     H98127   5.585   6.108   8.528 -2.1962 -0.1891 -1.6220
  727MOL0     H98128   5.705   5.928   8.614 -1.5314  0.8944  0.7296
  727MOL0     H98129   5.824   5.483   8.562 -1.0375  1.7895 -0.9145
  727MOL0     H98130   5.949   5.298   8.672  2.3403 -1.3602  2.2265
  727MOL0     H98131   6.965   3.830   8.767  1.7927  1.6946  1.6222
  727MOL0     H98132   6.985   3.605   8.816  0.2972 -2.3323  2.0154
  727MOL0     H98133   6.772   3.242   9.031  0.0029  1.2005  0.7545
  727MOL0     H98134   6.750   3.016   9.109 -0.7188  2.2611 -3.0382
  727MOL0     H98135   7.119   2.866   9.300 -0.0625  2.3095  1.7837
  727MOL0     H98136   7.004   2.858   9.430 -0.7890 -3.8886  0.6862
  727MOL0     H98137   7.021   2.634   9.226  0.5285 -2.1735  0.2520
  727MOL0     H98138   6.913   2.639   9.360 -0.7882  2.2345  0.4263
  727MOL0     H98139   7.095   2.612   9.521 -1.3847 -3.7783 -0.4788
  727MOL0     H98140   7.202   2.687   9.412 -1.8773  3.5537 -2.3903
  727MOL0     H98141   7.098   2.402   9.389  0.0201 -0.1318 -1.2827
  727MOL0     H98142   7.253   2.445   9.447 -0.4210 -1.6306  0.2005
  727MOL0     H98143   7.304   2.429   9.032 -1.5555  1.6501 -0.8036
  727MOL0     H98144   7.121   3.078   9.332  0.2534  3.0395  1.0794
  727MOL0     H98145   7.128   3.304   9.241  1.3566 -2.2967 -1.5775
  728MOL0     O98146   9.142   3.158   3.659 -0.4720  0.3399  0.2495
  728MOL0     C98147   9.228   3.158   3.745  0.0558  0.0109  0.0040
  728MOL0     O98148   9.256   3.055   3.831  0.8404 -0.8073  0.0125
  728MOL0     C98149   9.166   2.962   3.849 -0.2528 -0.0535  0.7610
  728MOL0     C98150   9.106   2.949   3.979 -0.4848  0.8027 -0.1431
  728MOL0     C98151   9.031   2.838   4.015 -0.1718 -0.5622 -1.0197
  728MOL0     C98152   9.008   2.746   3.918  0.5377 -0.2018  0.4938
  728MOL0     O98153   8.925   2.635   3.950  0.0062 -0.2879  0.2318
  728MOL0     C98154   8.998   2.512   3.947 -0.5924 -0.0799 -0.2533
  728MOL0     C98155   8.917   2.384   3.998  0.4884 -1.1886  0.3250
  728MOL0     C98156   8.828   2.423   4.114  0.9134 -0.1446 -0.5262
  728MOL0     C98157   8.746   2.297   4.154 -0.3935  0.7126 -0.1030
  728MOL0     C98158   8.630   2.325   4.253 -0.1702  0.5367 -0.5317
  728MOL0     C98159   8.659   2.385   4.391 -0.2668 -0.6555 -0.0222
  728MOL0     C98160   8.529   2.394   4.471 -0.3603 -0.1302  0.3341
  728MOL0     C98161   8.511   2.514   4.561 -1.1036 -0.3811  0.6423
  728MOL0     N98162   8.523   2.635   4.481  1.1839 -0.6837 -0.8511
  728MOL0     C98163   8.443   2.661   4.372  0.3871  0.4315 -0.6426
  728MOL0     C98164   8.477   2.786   4.346 -0.2126  0.3611  0.2985
  728MOL0     C98165   8.408   2.853   4.232  0.4857 -0.2516 -0.1138
  728MOL0     C98166   8.497   2.929   4.140  0.4140  0.3265  0.4820
  728MOL0     C98167   8.621   2.855   4.085 -0.7396  0.0224  0.0253
  728MOL0     C98168   8.594   2.730   4.010  0.0084  0.5220 -0.0235
  728MOL0     O98169   8.507   2.747   3.905  0.9209  0.1161 -0.0611
  728MOL0     C98170   8.557   2.800   3.793 -0.4938 -0.0354 -0.3561
  728MOL0     C98171   8.466   2.857   3.696  0.2403 -0.4853 -0.2096
  728MOL0     C98172   8.510   2.929   3.577  0.4480  0.2564 -0.5078
  728MOL0     C98173   8.408   2.978   3.486 -0.1207 -0.3153 -0.8915
  728MOL0     C98174   8.655   2.936   3.557  0.5626 -0.3981  0.2433
  728MOL0     C98175   8.721   3.010   3.442 -0.0865  0.9464 -0.0077
  728MOL0     O98176   8.840   2.962   3.394  0.4696  0.0070 -0.0846
  728MOL0     C98177   8.921   3.039   3.314 -0.3023  0.7981 -0.5893
  728MOL0     C98178   8.987   3.143   3.373 -0.4202 -0.3078 -0.1282
  728MOL0     C98179   9.075   3.224   3.299  0.2011  0.1106  0.1966
  728MOL0     C98180   9.113   3.172   3.170  0.0099  0.0381  0.3469
  728MOL0     O98181   9.188   3.255   3.099  0.1197 -0.0331 -0.0369
  728MOL0     C98182   9.188   3.236   2.959 -0.0746 -0.4806  0.0969
  728MOL0     C98183   9.251   3.351   2.891  0.3759 -0.5848 -0.0733
  728MOL0     C98184   9.261   3.327   2.735  0.5877  0.3092 -0.6068
  728MOL0     C98185   9.333   3.429   2.653 -0.7964 -0.4661  0.4365
  728MOL0     C98186   9.317   3.403   2.504 -0.9127  0.5423 -0.1811
  728MOL0     C98187   9.182   3.408   2.447  0.4469 -0.8187 -0.8215
  728MOL0     C98188   9.177   3.399   2.295 -0.5669  0.4280 -0.6746
  728MOL0     C98189   9.048   3.336   2.250  0.2114 -0.0977  0.0668
  728MOL0    Cl98190   8.892   3.401   2.330  0.1704 -0.8381 -0.2107
  728MOL0     C98191   9.052   3.053   3.116 -0.3342 -0.8960 -0.2134
  728MOL0     C98192   8.965   2.987   3.192  0.0527 -0.5320 -1.3666
  728MOL0     O98193   8.666   3.115   3.404 -0.5375  0.1342  0.0865
  728MOL0     C98194   8.746   2.879   3.652  0.8419 -0.5550 -0.1465
  728MOL0     C98195   8.696   2.810   3.767 -0.9369 -0.0803 -0.5496
  728MOL0     N98196   8.578   2.842   4.428 -0.4355  0.1641 -0.0754
  728MOL0     N98197   8.605   2.742   4.508  0.0660  0.6030 -0.0109
  728MOL0     C98198   9.062   2.760   3.787  0.4836 -0.0425 -0.4987
  728MOL0     C98199   9.148   2.864   3.752 -0.2889  0.2962 -0.3710
  728MOL0     C98200   9.320   3.274   3.740  0.9484 -0.2386  0.4875
  728MOL0     C98201   9.303   3.389   3.654 -0.1065  0.9889  0.0353
  728MOL0     C98202   9.392   3.504   3.658 -0.7341  1.0450 -0.7275
  728MOL0     C98203   9.501   3.497   3.745 -0.0902  0.8039  0.7029
  728MOL0     O98204   9.586   3.605   3.765 -0.0096 -0.3719 -0.4366
  728MOL0     C98205   9.565   3.718   3.679 -0.0647  0.4049  0.7663
  728MOL0     C98206   9.691   3.806   3.688  0.2841  0.1499  0.9995
  728MOL0     C98207   9.734   3.868   3.825  0.0219 -0.8599  0.1872
  728MOL0     C98208   9.611   3.914   3.915 -0.8845  0.2933  0.6577
  728MOL0     C98209   9.581   3.793   3.993  0.7331  0.7674 -0.3181
  728MOL0     C98210   9.542   3.706   4.070 -0.4017 -0.1186  0.2808
  728MOL0     C98211   9.513   3.384   3.831  0.6242 -0.0058 -0.3063
  728MOL0     C98212   9.426   3.275   3.825  0.6392  0.1688 -0.3038
  728MOL0     H98213   9.122   3.037   4.040  3.2787  1.1796 -1.4388
  728MOL0     H98214   8.987   2.829   4.114 -1.6490  0.9158 -1.5055
  728MOL0     H98215   9.050   2.497   3.851  3.6512 -1.3216  1.9598
  728MOL0     H98216   9.078   2.536   4.017 -0.4144 -1.4243  0.0416
  728MOL0     H98217   8.853   2.346   3.918 -0.3510  2.0016 -0.6690
  728MOL0     H98218   8.990   2.311   4.032  1.4518 -0.4809 -0.1957
  728MOL0     H98219   8.885   2.463   4.198 -0.5766  1.6860 -0.3285
  728MOL0     H98220   8.772   2.512   4.083  1.0598  0.6135  1.2580
  728MOL0     H98221   8.687   2.252   4.073 -3.0731  2.8772  0.5006
  728MOL0     H98222   8.814   2.222   4.196  1.2836  2.9901  1.4992
  728MOL0     H98223   8.573   2.400   4.198 -0.5793  2.9783  2.8764
  728MOL0     H98224   8.571   2.234   4.265  0.4668  0.2665  0.8353
  728MOL0     H98225   8.740   2.340   4.449 -0.8613 -1.5109  0.1600
  728MOL0     H98226   8.708   2.482   4.377 -0.4376 -0.5577  0.0531
  728MOL0     H98227   8.442   2.386   4.405 -1.1469 -1.1083  1.4501
  728MOL0     H98228   8.533   2.301   4.529 -0.8581 -0.6847 -0.5023
  728MOL0     H98229   8.591   2.515   4.636  2.2385 -3.0416 -2.4866
  728MOL0     H98230   8.414   2.522   4.611  0.0297  1.2216  2.7833
  728MOL0     H98231   8.364   2.601   4.328  0.4676 -0.0368 -0.1593
  728MOL0     H98232   8.352   2.779   4.175 -0.8805  0.7112 -0.0670
  728MOL0     H98233   8.331   2.917   4.277  1.0751 -1.0485  2.2041
  728MOL0     H98234   8.544   3.015   4.189 -0.9450  1.5744 -0.3305
  728MOL0     H98235   8.433   2.959   4.058 -0.5717 -1.4009  0.5745
  728MOL0     H98236   8.682   2.823   4.171 -2.5119  0.6311  1.5805
  728MOL0     H98237   8.671   2.917   4.010 -1.0502 -2.7728 -2.6578
  728MOL0     H98238   8.556   2.659   4.084 -0.9654  1.3541  0.3049
  728MOL0     H98239   8.688   2.679   3.987 -1.7408 -2.4477 -1.1668
  728MOL0     H98240   8.362   2.841   3.722  0.2775 -0.3193  0.0490
  728MOL0     H98241   8.392   3.083   3.513 -1.8150  0.1842 -3.4317
  728MOL0     H98242   8.428   2.977   3.379 -0.4854 -0.4875 -0.9613
  728MOL0     H98243   8.314   2.922   3.491 -1.0686  1.2166 -0.9826
  728MOL0     H98244   8.949   3.175   3.470  0.6550 -2.9200  1.2528
  728MOL0     H98245   9.114   3.317   3.338  2.1687 -1.0971  1.2823
  728MOL0     H98246   9.240   3.148   2.921  2.3924  0.6610  0.6303
  728MOL0     H98247   9.083   3.231   2.928 -0.7100 -2.0657  2.2512
  728MOL0     H98248   9.192   3.442   2.904  0.5875 -0.5104  0.4152
  728MOL0     H98249   9.353   3.364   2.929 -0.0165 -2.4390  1.8536
  728MOL0     H98250   9.156   3.331   2.704 -0.8205  3.7745  3.6095
  728MOL0     H98251   9.300   3.226   2.717 -1.3334 -0.1045 -2.8399
  728MOL0     H98252   9.296   3.527   2.687  0.6916  0.7808 -1.3713
  728MOL0     H98253   9.437   3.423   2.684 -1.3543  0.1649  2.6085
  728MOL0     H98254   9.355   3.304   2.477 -1.9475  0.1287 -0.1561
  728MOL0     H98255   9.368   3.488   2.457 -1.4345  1.5576  1.0299
  728MOL0     H98256   9.120   3.328   2.488 -1.1067 -0.7918 -2.9670
  728MOL0     H98257   9.123   3.496   2.473 -2.5614 -2.2860 -2.2709
  728MOL0     H98258   9.262   3.338   2.262 -1.5119 -0.2010 -2.0178
  728MOL0     H98259   9.196   3.500   2.258  3.6356 -1.4263 -4.4767
  728MOL0     H98260   9.051   3.230   2.278  4.1264  0.6268  3.2572
  728MOL0     H98261   9.038   3.344   2.142 -1.7853 -0.2524  0.1970
  728MOL0     H98262   9.074   3.017   3.016  0.9151 -0.5271 -0.0828
  728MOL0     H98263   8.913   2.900   3.155 -0.2046 -0.3025 -1.5457
  728MOL0     H98264   8.853   2.874   3.634  0.9904  0.2650  0.4443
  728MOL0     H98265   8.778   2.767   3.824 -0.1177  0.3206 -1.3996
  728MOL0     H98266   9.039   2.683   3.714 -1.9121 -0.9282  1.0836
  728MOL0     H98267   9.195   2.874   3.654 -2.0884  1.3905 -1.1887
  728MOL0     H98268   9.218   3.394   3.587 -0.4221 -2.5492 -0.0308
  728MOL0     H98269   9.368   3.582   3.587  1.5234  2.1906 -0.3274
  728MOL0     H98270   9.563   3.691   3.573 -0.0868 -0.2763  0.9372
  728MOL0     H98271   9.477   3.781   3.695 -1.0503 -0.9914  0.9935
  728MOL0     H98272   9.672   3.882   3.612 -1.0945 -0.3883  0.7654
  728MOL0     H98273   9.782   3.754   3.655  1.1658  2.3626 -0.2263
  728MOL0     H98274   9.809   3.948   3.819 -1.6675  0.9518  1.7863
  728MOL0     H98275   9.786   3.781   3.866  1.6459 -0.6913 -1.4097
  728MOL0     H98276   9.521   3.943   3.859 -0.8949 -0.6532  0.1533
  728MOL0     H98277   9.641   3.999   3.976  0.8914 -0.3748  0.7667
  728MOL0     H98278   9.521   3.630   4.143 -0.5733  0.1284  0.4902
  728MOL0     H98279   9.602   3.378   3.893 -0.1358 -1.1921  0.7039
  728MOL0     H98280   9.442   3.192   3.893  0.0217 -2.3664 -3.0369
  729MOL0     O98281  10.345   0.473  10.353 -0.3735 -0.4882 -0.3250
  729MOL0     C98282  10.394   0.581  10.363 -0.3902 -0.6589 -0.0789
  729MOL0     O98283  10.478   0.639  10.274 -0.2543  0.0736  0.2968
  729MOL0     C98284  10.538   0.571  10.170  0.2765  0.4879 -0.1541
  729MOL0     C98285  10.523   0.607  10.039  0.3511  0.7857  0.4263
  729MOL0     C98286  10.602   0.558   9.934 -0.5083 -0.3944 -1.6567
  729MOL0     C98287  10.691   0.455   9.969  0.0374 -0.0177  0.4951
  729MOL0     O98288  10.755   0.400   9.858  0.1538 -0.7682 -0.4829
  729MOL0     C98289  10.876   0.329   9.869 -0.0879  0.4550 -0.8415
  729MOL0     C98290  10.979   0.438   9.847  0.2941 -0.2513 -0.1728
  729MOL0     C98291  11.120   0.390   9.818 -0.5959  0.1455 -0.6539
  729MOL0     C98292  11.199   0.483   9.727  0.5772 -0.1393 -0.9207
  729MOL0     C98293  11.279   0.574   9.826  0.4499 -0.1927  0.4712
  729MOL0     C98294  11.372   0.691   9.765  0.2577  0.5105  0.2627
  729MOL0     C98295  11.476   0.624   9.685 -0.2220 -0.6137 -0.2437
  729MOL0     C98296  11.580   0.724   9.640  0.4863 -0.1263 -0.3381
  729MOL0     N98297  11.703   0.663   9.583  0.3724  0.2105 -0.2077
  729MOL0     C98298  11.708   0.575   9.481 -0.6121 -0.3821  0.6157
  729MOL0     C98299  11.842   0.571   9.453 -0.2625  0.1953 -0.9419
  729MOL0     C98300  11.917   0.504   9.336 -0.0365  0.7841  0.3374
  729MOL0     C98301  11.989   0.371   9.378  0.5773  0.0506  0.2803
  729MOL0     C98302  11.865   0.272   9.417 -0.5154 -0.2268 -1.3240
  729MOL0     C98303  11.895   0.123   9.442 -0.0905 -0.5424  0.4755
  729MOL0     O98304  11.771   0.056   9.473 -0.2401 -0.8909 -0.2353
  729MOL0     C98305  11.767  -0.055   9.559 -0.4765 -0.2235  0.8369
  729MOL0     C98306  11.644  -0.117   9.582 -0.6349  0.8667  0.0085
  729MOL0     C98307  11.622  -0.235   9.660 -0.3536 -0.1767  0.1718
  729MOL0     C98308  11.479  -0.286   9.652 -0.8357 -0.1226  0.4779
  729MOL0     C98309  11.740  -0.289   9.720 -0.2459 -0.3160  0.2439
  729MOL0     C98310  11.731  -0.402   9.821  0.4521 -0.0969  0.3337
  729MOL0     O98311  11.633  -0.391   9.911  0.1567 -0.0615  0.0940
  729MOL0     C98312  11.578  -0.482  10.002 -0.2787 -1.1644  0.4455
  729MOL0     C98313  11.623  -0.619  10.015 -0.0291 -0.1938  0.2508
  729MOL0     C98314  11.576  -0.700  10.115  0.7230  0.1135  0.8157
  729MOL0     C98315  11.470  -0.648  10.192  0.2984 -0.2515  0.1298
  729MOL0     O98316  11.399  -0.730  10.274  0.8103  0.1226  0.4930
  729MOL0     C98317  11.474  -0.774  10.386 -0.5661  0.0413 -0.2411
  729MOL0     C98318  11.399  -0.871  10.473 -0.3651 -0.3911  0.7747
  729MOL0     C98319  11.285  -0.789  10.538 -0.6328 -0.8164 -0.0588
  729MOL0     C98320  11.270  -0.830  10.687  0.0946  0.2345  0.1554
  729MOL0     C98321  11.156  -0.773  10.771 -0.1310 -0.8049 -0.0801
  729MOL0     C98322  11.136  -0.848  10.903 -0.1506  0.0051 -0.0526
  729MOL0     C98323  11.004  -0.793  10.967  0.0015  0.0829  1.0918
  729MOL0     C98324  10.936  -0.889  11.053  0.0860  0.2152 -0.8361
  729MOL0    Cl98325  11.035  -0.900  11.198 -0.2499  0.1768 -0.1347
  729MOL0     C98326  11.422  -0.521  10.172 -0.1535 -0.5222  0.2939
  729MOL0     C98327  11.485  -0.434  10.087 -0.3616  0.3388  0.3981
  729MOL0     O98328  11.825  -0.480   9.829  0.3927  1.2634 -0.1162
  729MOL0     C98329  11.867  -0.222   9.697 -0.5289 -1.0501  0.1915
  729MOL0     C98330  11.882  -0.106   9.620 -0.0214  0.6988 -0.0934
  729MOL0     N98331  11.911   0.654   9.535 -0.2954 -0.2059  0.6439
  729MOL0     N98332  11.825   0.711   9.608 -0.2637 -0.0744  0.4096
  729MOL0     C98333  10.701   0.410  10.103 -0.7666  0.2418  0.1635
  729MOL0     C98334  10.633   0.470  10.200  0.3548 -0.3040 -0.4924
  729MOL0     C98335  10.360   0.665  10.480  0.1768 -0.2120 -0.4440
  729MOL0     C98336  10.426   0.786  10.509  0.5929 -0.9706  0.6108
  729MOL0     C98337  10.384   0.874  10.615 -1.1857 -0.3251  0.4100
  729MOL0     C98338  10.284   0.830  10.696 -0.1321 -0.0947 -1.1741
  729MOL0     O98339  10.261   0.916  10.798 -0.0536 -0.7870 -0.5676
  729MOL0     C98340  10.239   0.865  10.925  0.2606  0.1125 -1.3543
  729MOL0     C98341  10.115   0.937  10.972 -0.9782  0.7694 -0.6426
  729MOL0     C98342  10.071   0.886  11.108  0.5052 -0.1897  0.7226
  729MOL0     C98343  10.180   0.889  11.218 -0.2062 -0.3134 -0.4601
  729MOL0     C98344  10.119   0.870  11.350 -0.1436  0.1737  0.4195
  729MOL0     C98345  10.077   0.873  11.466 -0.4037 -0.6856 -0.5619
  729MOL0     C98346  10.210   0.722  10.661 -0.8882 -0.9935  0.7136
  729MOL0     C98347  10.252   0.628  10.564  0.1981  0.3319 -0.1360
  729MOL0     H98348  10.458   0.692  10.023 -0.4232  0.1302  0.0408
  729MOL0     H98349  10.596   0.612   9.841  1.7645 -0.4053 -1.8640
  729MOL0     H98350  10.879   0.268   9.960  0.2902  1.0027 -0.4785
  729MOL0     H98351  10.889   0.254   9.791  1.9725  0.3323 -0.4279
  729MOL0     H98352  10.936   0.507   9.773 -1.4055 -1.2829 -0.1978
  729MOL0     H98353  10.982   0.504   9.934  0.7448 -2.2963  1.4393
  729MOL0     H98354  11.167   0.381   9.916 -0.1071  1.3099 -0.7662
  729MOL0     H98355  11.108   0.292   9.770 -2.8189  1.5079 -3.2015
  729MOL0     H98356  11.256   0.422   9.656 -0.8594 -4.0341  0.9632
  729MOL0     H98357  11.141   0.558   9.672 -0.8499 -1.4293 -1.2694
  729MOL0     H98358  11.198   0.629   9.875  0.2741  0.5760 -0.6608
  729MOL0     H98359  11.337   0.521   9.903  3.3058  4.8612  2.2820
  729MOL0     H98360  11.312   0.748   9.693 -0.7769 -0.2767  0.4735
  729MOL0     H98361  11.418   0.761   9.835  0.9117 -0.9850  1.3820
  729MOL0     H98362  11.534   0.552   9.743  1.3968  0.7873 -0.0275
  729MOL0     H98363  11.421   0.584   9.599 -2.6165  2.9193 -0.5952
  729MOL0     H98364  11.609   0.789   9.723 -3.7406 -1.7734  2.7862
  729MOL0     H98365  11.548   0.790   9.558  1.0488  0.6050  0.0179
  729MOL0     H98366  11.628   0.544   9.415 -0.1590  1.8495 -1.0711
  729MOL0     H98367  11.848   0.488   9.253  1.1001 -2.4467 -0.1261
  729MOL0     H98368  11.990   0.567   9.285  0.1684  0.5754  0.3744
  729MOL0     H98369  12.061   0.377   9.460  0.4598 -3.0251  0.7166
  729MOL0     H98370  12.036   0.335   9.285  1.0643  0.2156  0.4612
  729MOL0     H98371  11.794   0.274   9.334  0.1294 -0.1193 -1.8861
  729MOL0     H98372  11.817   0.297   9.512  2.2515  0.5890 -0.0284
  729MOL0     H98373  11.965   0.113   9.526  2.9600 -0.6085 -1.8650
  729MOL0     H98374  11.946   0.073   9.359 -0.0830 -0.0942  0.2040
  729MOL0     H98375  11.559  -0.076   9.528 -0.6819  0.3545 -0.3158
  729MOL0     H98376  11.400  -0.211   9.646 -2.8331 -1.6229  4.3656
  729MOL0     H98377  11.486  -0.363   9.575 -3.0897 -1.7706  1.8113
  729MOL0     H98378  11.457  -0.348   9.740 -2.1147 -0.9173 -0.3788
  729MOL0     H98379  11.701  -0.646   9.944  1.6831  3.1467  0.7053
  729MOL0     H98380  11.614  -0.801  10.130 -0.4350 -0.0736  2.8802
  729MOL0     H98381  11.558  -0.837  10.354  0.7603  1.9797 -0.7120
  729MOL0     H98382  11.513  -0.694  10.449 -2.0814  0.5388  0.1136
  729MOL0     H98383  11.363  -0.957  10.415  1.1473 -0.0530 -0.7459
  729MOL0     H98384  11.452  -0.907  10.561 -3.1345  1.5341  3.4337
  729MOL0     H98385  11.190  -0.787  10.483 -0.6337  2.4985 -0.1080
  729MOL0     H98386  11.301  -0.681  10.543  0.0346 -0.9608  2.3008
  729MOL0     H98387  11.233  -0.932  10.681  0.7828  0.0462 -1.3625
  729MOL0     H98388  11.364  -0.831  10.742  0.0681 -3.5575  0.4029
  729MOL0     H98389  11.068  -0.793  10.710  0.8232 -0.0912 -1.7663
  729MOL0     H98390  11.169  -0.669  10.802 -1.2068 -1.2935  2.2097
  729MOL0     H98391  11.118  -0.951  10.874  1.3874 -0.2604 -0.1587
  729MOL0     H98392  11.214  -0.839  10.979 -1.0689  1.1587  0.7806
  729MOL0     H98393  10.934  -0.781  10.884  2.0674 -3.1110 -1.3433
  729MOL0     H98394  11.018  -0.704  11.030  1.8634  1.4483 -1.1039
  729MOL0     H98395  10.921  -0.991  11.016 -1.9557 -0.3965  1.3660
  729MOL0     H98396  10.837  -0.850  11.079  0.4137  2.2864 -2.4130
  729MOL0     H98397  11.324  -0.489  10.206 -0.0668 -1.1074  1.1431
  729MOL0     H98398  11.448  -0.332  10.080 -0.1181  0.4886  1.1780
  729MOL0     H98399  11.956  -0.262   9.745  1.5468  1.5797 -1.2501
  729MOL0     H98400  11.984  -0.068   9.613 -0.4554  1.7730 -0.9612
  729MOL0     H98401  10.778   0.343  10.142 -0.8829  1.2287  2.1940
  729MOL0     H98402  10.661   0.448  10.303 -0.6371 -0.6458 -0.2854
  729MOL0     H98403  10.510   0.820  10.450 -0.0128  1.0009  0.8401
  729MOL0     H98404  10.423   0.975  10.608  0.3785 -0.8680  0.8710
  729MOL0     H98405  10.229   0.756  10.928 -0.8976  0.2383  0.4902
  729MOL0     H98406  10.323   0.896  10.989 -1.5469  0.0374  1.1826
  729MOL0     H98407  10.032   0.912  10.906 -0.5082 -2.5594 -0.1205
  729MOL0     H98408  10.142   1.043  10.970  2.6784  0.0916  1.8772
  729MOL0     H98409  10.025   0.787  11.096  2.3250 -0.9520 -0.5207
  729MOL0     H98410   9.997   0.953  11.152 -1.2724 -1.2975 -0.4533
  729MOL0     H98411  10.230   0.987  11.221  3.4425 -2.0041 -0.8224
  729MOL0     H98412  10.260   0.815  11.208  0.8724  0.8104 -0.4100
  729MOL0     H98413  10.050   0.892  11.567 -0.6468 -1.6991 -0.4320
  729MOL0     H98414  10.112   0.708  10.704 -1.7904  0.9706 -0.5840
  729MOL0     H98415  10.200   0.535  10.550 -0.7395  0.1045  3.7341
  730MOL0     O98416  10.060   4.921   6.586  0.6933 -0.3661  0.1153
  730MOL0     C98417  10.151   4.842   6.616 -0.5700  0.3939 -1.1134
  730MOL0     O98418  10.212   4.759   6.534 -0.4632 -1.2603 -0.2698
  730MOL0     C98419  10.155   4.730   6.412 -0.3908 -0.3980  0.7648
  730MOL0     C98420  10.163   4.820   6.310  0.1859  0.0698  0.2600
  730MOL0     C98421  10.139   4.782   6.173  0.2489 -0.4142  0.2169
  730MOL0     C98422  10.097   4.651   6.142 -0.3818  0.3613  1.5477
  730MOL0     O98423  10.087   4.617   6.005  0.3014  1.0459 -0.3087
  730MOL0     C98424  10.008   4.502   5.971 -0.2858 -0.3457 -0.9771
  730MOL0     C98425  10.007   4.494   5.823  0.6147 -0.0336  0.1026
  730MOL0     C98426   9.965   4.342   5.786  0.2931 -0.3093  0.3747
  730MOL0     C98427   9.994   4.308   5.653 -0.1761  0.0626  0.9392
  730MOL0     C98428   9.945   4.165   5.607 -0.3016  0.7142  0.0459
  730MOL0     C98429   9.929   4.164   5.457  0.2426  0.4606  0.3238
  730MOL0     C98430   9.887   4.034   5.383 -0.5328  0.6540  0.2481
  730MOL0     C98431  10.000   3.925   5.384  0.0887  0.4667  0.1669
  730MOL0     N98432  10.122   3.967   5.326  0.0432 -0.5485  0.1865
  730MOL0     C98433  10.123   4.020   5.202 -0.0488 -0.4248  1.1311
  730MOL0     C98434  10.252   4.020   5.164 -0.3985 -0.1025 -0.1466
  730MOL0     C98435  10.310   4.084   5.035 -0.1821  0.1733 -1.2726
  730MOL0     C98436  10.463   4.069   5.025  0.2204  0.9998 -0.9213
  730MOL0     C98437  10.546   4.176   5.110 -0.0726  1.0043 -0.9547
  730MOL0     C98438  10.692   4.156   5.079 -0.2885  0.5090 -0.3849
  730MOL0     O98439  10.744   4.032   5.133 -0.2062 -0.4097  0.1299
  730MOL0     C98440  10.862   4.054   5.204  0.9185  1.1889  0.3360
  730MOL0     C98441  10.867   4.097   5.335  0.1360 -0.0893  1.1299
  730MOL0     C98442  10.989   4.115   5.400  1.3914 -1.1811 -1.2120
  730MOL0     C98443  10.982   4.157   5.552  0.6348  0.4095 -0.3690
  730MOL0     C98444  11.115   4.091   5.333  0.0517  0.0388  0.2096
  730MOL0     C98445  11.245   4.089   5.400 -0.6182 -0.4638 -0.1671
  730MOL0     O98446  11.345   4.025   5.334 -0.0930  0.1310 -0.0917
  730MOL0     C98447  11.474   4.058   5.369  0.9456  0.5825 -0.1466
  730MOL0     C98448  11.561   3.981   5.453 -0.0688  0.0278  0.2740
  730MOL0     C98449  11.692   4.026   5.492  0.8094  0.0504 -0.8776
  730MOL0     C98450  11.748   4.135   5.440 -0.2956 -0.0483 -0.4466
  730MOL0     O98451  11.869   4.181   5.487  0.7909 -0.2192 -0.0922
  730MOL0     C98452  11.944   4.283   5.411 -0.1895 -0.3131  0.8744
  730MOL0     C98453  12.087   4.310   5.474  0.8077  0.0649  0.4050
  730MOL0     C98454  12.164   4.405   5.383 -0.6122 -0.4604 -0.4254
  730MOL0     C98455  12.282   4.458   5.462 -0.4985 -0.0201 -0.0905
  730MOL0     C98456  12.342   4.581   5.394 -0.7046 -0.0065 -0.7600
  730MOL0     C98457  12.446   4.645   5.485  0.9034  0.6712  0.0485
  730MOL0     C98458  12.577   4.563   5.505 -1.2983 -0.1541  0.3789
  730MOL0     C98459  12.679   4.632   5.601  0.5028  0.5818  0.3434
  730MOL0    Cl98460  12.602   4.632   5.765 -0.2591  0.4077 -0.2474
  730MOL0     C98461  11.663   4.214   5.359 -0.2252 -0.2248  0.1822
  730MOL0     C98462  11.532   4.175   5.322 -0.5416 -0.0150  0.0451
  730MOL0     O98463  11.260   4.162   5.499  1.1410 -0.0714 -0.2505
  730MOL0     C98464  11.105   4.041   5.198 -0.0173  0.0200 -0.3139
  730MOL0     C98465  10.985   4.029   5.131 -0.4695  0.8315 -0.5464
  730MOL0     N98466  10.322   3.956   5.269 -0.0426  0.2017  0.1506
  730MOL0     N98467  10.241   3.917   5.367  0.0729  0.5834  1.1053
  730MOL0     C98468  10.085   4.560   6.251 -0.3004  0.1566  0.0716
  730MOL0     C98469  10.110   4.602   6.387  0.4052 -0.4538 -0.4748
  730MOL0     C98470  10.215   4.851   6.748 -0.6636  1.0153 -0.4330
  730MOL0     C98471  10.171   4.950   6.842  1.3165  0.3648 -0.2166
  730MOL0     C98472  10.219   4.953   6.970  0.2074 -0.6696  0.1085
  730MOL0     C98473  10.326   4.879   7.011  1.0519 -0.0013  0.4190
  730MOL0     O98474  10.385   4.889   7.141 -0.0522 -0.3522 -0.0417
  730MOL0     C98475  10.417   5.028   7.182  0.2870  0.2914  0.2450
  730MOL0     C98476  10.499   5.100   7.076 -0.0476  0.0943  0.0302
  730MOL0     C98477  10.553   5.244   7.123 -0.3986  0.2586  0.3622
  730MOL0     C98478  10.681   5.242   7.204  0.9165  0.3307 -0.2799
  730MOL0     C98479  10.737   5.378   7.246  0.3864 -0.3551 -0.5848
  730MOL0     C98480  10.780   5.487   7.279  0.8337 -0.2473 -0.2106
  730MOL0     C98481  10.357   4.770   6.919  0.0306  0.1669 -0.7507
  730MOL0     C98482  10.306   4.761   6.791 -0.4938  0.1049  0.7112
  730MOL0     H98483  10.196   4.921   6.329  3.1787 -0.8236  0.3044
  730MOL0     H98484  10.163   4.862   6.104  2.4924 -1.0258  0.2186
  730MOL0     H98485  10.067   4.414   5.997  2.2367  2.3041  3.5693
  730MOL0     H98486   9.905   4.498   6.008 -0.3610  0.2656 -1.1018
  730MOL0     H98487   9.934   4.566   5.786  2.0095  1.9735  1.0354
  730MOL0     H98488  10.103   4.523   5.778  0.5239 -0.1816 -0.1893
  730MOL0     H98489  10.028   4.271   5.841 -0.1427 -1.9684 -1.1746
  730MOL0     H98490   9.858   4.325   5.804 -0.2327  2.0507 -0.2139
  730MOL0     H98491   9.954   4.376   5.577  3.4830  1.5264  0.1134
  730MOL0     H98492  10.101   4.324   5.642 -0.1334 -0.3471  0.7549
  730MOL0     H98493  10.023   4.092   5.627 -0.2258 -0.5356 -3.9938
  730MOL0     H98494   9.852   4.134   5.656  1.5294 -0.8433  2.7980
  730MOL0     H98495   9.848   4.236   5.441  0.1632  0.2620 -0.1808
  730MOL0     H98496  10.021   4.205   5.415 -0.5425 -0.4716 -2.5612
  730MOL0     H98497   9.797   3.995   5.432 -1.2276  2.6743  0.6589
  730MOL0     H98498   9.854   4.059   5.282 -1.7721  1.1915  0.7740
  730MOL0     H98499   9.960   3.836   5.333  2.0677 -0.5907  0.3906
  730MOL0     H98500  10.012   3.912   5.492  0.9976 -0.3606 -0.0176
  730MOL0     H98501  10.041   4.059   5.143  1.9311 -0.3723 -1.7570
  730MOL0     H98502  10.266   4.049   4.941 -0.8391  2.2265 -1.7760
  730MOL0     H98503  10.289   4.191   5.032 -2.6776 -0.1340  1.3600
  730MOL0     H98504  10.496   4.081   4.922 -1.0398  2.8146 -1.1575
  730MOL0     H98505  10.487   3.969   5.062 -1.1993  0.0242 -2.5203
  730MOL0     H98506  10.527   4.170   5.217 -2.1781 -2.2327 -1.3551
  730MOL0     H98507  10.534   4.278   5.070  2.8096  0.3728 -3.8819
  730MOL0     H98508  10.751   4.242   5.112 -0.2686  0.9182 -1.4437
  730MOL0     H98509  10.707   4.162   4.970 -0.2931 -0.4105 -0.4463
  730MOL0     H98510  10.773   4.125   5.382  0.0157 -0.8650  1.3691
  730MOL0     H98511  11.034   4.083   5.613  1.8805  0.9696 -0.7187
  730MOL0     H98512  11.029   4.255   5.567  0.9678  0.2472 -0.3617
  730MOL0     H98513  10.886   4.150   5.605  1.5539  3.3764  1.9746
  730MOL0     H98514  11.521   3.891   5.498 -0.7357 -0.3726 -1.0504
  730MOL0     H98515  11.735   3.976   5.579 -2.5574 -2.3741 -0.4202
  730MOL0     H98516  11.959   4.252   5.307 -1.5351  0.6648  0.3535
  730MOL0     H98517  11.892   4.380   5.416  0.3391  0.3452 -2.9559
  730MOL0     H98518  12.075   4.344   5.578 -3.6994  2.6576 -0.6920
  730MOL0     H98519  12.134   4.213   5.458 -3.2725 -2.1311  0.5199
  730MOL0     H98520  12.103   4.488   5.346  2.7836  1.8974 -1.2171
  730MOL0     H98521  12.208   4.353   5.297 -0.7502  2.2012 -2.2264
  730MOL0     H98522  12.264   4.486   5.566 -0.0742 -1.1791  0.3069
  730MOL0     H98523  12.356   4.378   5.473  0.2976  0.8264  0.9318
  730MOL0     H98524  12.264   4.654   5.372  0.2135  1.5275  0.7986
  730MOL0     H98525  12.404   4.541   5.313  0.0802 -0.7752  0.1967
  730MOL0     H98526  12.481   4.738   5.439  0.2449  1.8906  1.8666
  730MOL0     H98527  12.396   4.672   5.579 -1.7797 -1.3665 -0.6813
  730MOL0     H98528  12.621   4.554   5.405  0.5449 -2.2536  1.2956
  730MOL0     H98529  12.558   4.464   5.547  0.3830 -0.9977 -0.7681
  730MOL0     H98530  12.697   4.734   5.564 -2.5138  1.1222  0.0396
  730MOL0     H98531  12.777   4.585   5.601 -0.4470 -2.4914 -5.6610
  730MOL0     H98532  11.701   4.308   5.319  3.3116  1.4769  6.3173
  730MOL0     H98533  11.466   4.236   5.261  2.3936  1.6337 -1.7323
  730MOL0     H98534  11.196   4.020   5.143  1.4410 -0.5042  2.1272
  730MOL0     H98535  10.975   3.984   5.033  0.7585 -0.3811 -0.1532
  730MOL0     H98536  10.058   4.460   6.219  3.1273 -0.5943 -0.8130
  730MOL0     H98537  10.107   4.528   6.466  1.0546  0.4296  0.3969
  730MOL0     H98538  10.080   5.006   6.825  0.5715 -1.0743 -1.1173
  730MOL0     H98539  10.181   5.034   7.030  3.0336  0.1260  0.9548
  730MOL0     H98540  10.319   5.063   7.214  0.7716 -0.6523  2.9991
  730MOL0     H98541  10.473   5.028   7.276  4.4658 -2.8197 -1.8973
  730MOL0     H98542  10.437   5.118   6.988 -0.1413 -1.5104 -0.2635
  730MOL0     H98543  10.582   5.039   7.039  1.9600  2.1092  0.9412
  730MOL0     H98544  10.475   5.299   7.175 -0.1344  0.6200  0.3840
  730MOL0     H98545  10.571   5.301   7.031 -3.2490 -0.2484 -0.5877
  730MOL0     H98546  10.759   5.188   7.149  1.6135  2.1875 -1.2113
  730MOL0     H98547  10.659   5.178   7.290 -2.3859  2.3467  0.5260
  730MOL0     H98548  10.794   5.591   7.302  0.0977 -0.5201  1.6486
  730MOL0     H98549  10.417   4.688   6.956 -2.1449 -0.7319  0.9625
  730MOL0     H98550  10.319   4.665   6.742  0.3608  0.2713  0.6040
  731MOL0     O98551   3.858   6.288   9.974  0.3371 -0.7807 -0.7055
  731MOL0     C98552   3.817   6.180  10.013  0.6851  1.0339 -0.2874
  731MOL0     O98553   3.879   6.092  10.098  0.1714  0.3094  0.2184
  731MOL0     C98554   4.007   6.107  10.134 -0.2758  0.7691 -0.3039
  731MOL0     C98555   4.111   6.102  10.038 -0.2156 -0.8159  0.0332
  731MOL0     C98556   4.236   6.141  10.085 -0.0479 -0.2623 -0.0674
  731MOL0     C98557   4.268   6.154  10.225  0.0579 -0.0376 -1.4973
  731MOL0     O98558   4.397   6.184  10.243 -0.0642 -0.0415  0.2345
  731MOL0     C98559   4.428   6.191  10.386  0.2297 -0.5808  0.6182
  731MOL0     C98560   4.578   6.192  10.411  0.5168 -0.3251  0.6457
  731MOL0     C98561   4.658   6.073  10.344  0.2435 -0.1886 -0.6916
  731MOL0     C98562   4.792   6.072  10.410 -0.4750  0.7573 -0.2582
  731MOL0     C98563   4.901   5.977  10.341  0.1044  0.3715 -0.1504
  731MOL0     C98564   5.042   5.972  10.401  0.1299 -0.2775 -0.0107
  731MOL0     C98565   5.116   6.088  10.333  0.9895  0.2941  0.2114
  731MOL0     C98566   5.263   6.110  10.382 -0.0542 -0.6610 -0.4911
  731MOL0     N98567   5.339   5.990  10.395  0.1123 -0.3320 -0.3457
  731MOL0     C98568   5.380   5.941  10.515 -0.1260  0.3135  0.4106
  731MOL0     C98569   5.470   5.840  10.491  0.1474  0.3160  0.5484
  731MOL0     C98570   5.563   5.762  10.573  0.2910  0.6814  0.6905
  731MOL0     C98571   5.682   5.847  10.620  0.4421  0.0795  0.2385
  731MOL0     C98572   5.786   5.761  10.695  0.4493  0.2242 -0.2515
  731MOL0     C98573   5.884   5.679  10.604 -0.8379  0.0555 -0.0929
  731MOL0     O98574   6.011   5.675  10.682  0.2548  0.5643  0.2659
  731MOL0     C98575   6.104   5.768  10.685  0.3954  0.1502 -0.2459
  731MOL0     C98576   6.108   5.882  10.615  1.0189 -1.6987  0.5702
  731MOL0     C98577   6.197   5.983  10.648 -0.7342 -1.5825 -0.8949
  731MOL0     C98578   6.179   6.125  10.584 -0.1834  0.2558 -0.3330
  731MOL0     C98579   6.293   5.967  10.752 -0.1095  0.2438  0.8119
  731MOL0     C98580   6.413   6.056  10.771 -0.2802 -0.5273  0.4396
  731MOL0     O98581   6.529   6.005  10.834  0.5139  0.0344  0.7427
  731MOL0     C98582   6.633   6.093  10.854 -0.1441  0.0638 -0.6606
  731MOL0     C98583   6.628   6.204  10.943  0.1078 -0.8841  0.4020
  731MOL0     C98584   6.738   6.285  10.975 -1.5257 -0.2072 -0.1009
  731MOL0     C98585   6.862   6.257  10.919  0.1064  0.5393 -0.3291
  731MOL0     O98586   6.982   6.311  10.948  0.1334 -0.0541 -0.6845
  731MOL0     C98587   6.986   6.425  11.029 -0.7636  0.2161  0.2916
  731MOL0     C98588   6.928   6.544  10.949  0.1914  0.0569  0.2290
  731MOL0     C98589   6.920   6.677  11.030 -0.3859  0.1480  0.8784
  731MOL0     C98590   6.797   6.707  11.107  0.0775  0.3482  0.4201
  731MOL0     C98591   6.671   6.700  11.014  0.0765 -0.7695 -0.4757
  731MOL0     C98592   6.543   6.761  11.085  0.9724  0.0715  0.2803
  731MOL0     C98593   6.410   6.756  11.002 -0.1169 -0.6215 -0.3802
  731MOL0     C98594   6.386   6.620  10.937 -0.3721  0.0532  0.1964
  731MOL0    Cl98595   6.346   6.514  11.068 -0.2056  0.2904  0.4338
  731MOL0     C98596   6.870   6.138  10.835 -0.5609 -0.3055 -1.1935
  731MOL0     C98597   6.759   6.060  10.802 -0.8672 -0.3705  0.4538
  731MOL0     O98598   6.409   6.176  10.733 -0.5911 -0.1034  0.0433
  731MOL0     C98599   6.289   5.850  10.821  0.5686 -0.2453 -0.9583
  731MOL0     C98600   6.197   5.754  10.783 -0.1426  0.8741  0.8737
  731MOL0     N98601   5.483   5.828  10.351  0.7003  0.3824  0.6048
  731MOL0     N98602   5.403   5.917  10.298 -0.0435 -0.1176  0.4188
  731MOL0     C98603   4.160   6.142  10.319 -0.2952 -0.5728  0.8336
  731MOL0     C98604   4.034   6.113  10.269 -0.1423  0.5357  0.2097
  731MOL0     C98605   3.682   6.135   9.963 -0.1472 -0.1463  0.4790
  731MOL0     C98606   3.612   6.029  10.030 -0.2989 -0.9335 -0.6186
  731MOL0     C98607   3.485   5.989   9.986 -0.3479 -0.5362 -0.6315
  731MOL0     C98608   3.422   6.051   9.880  0.3197 -0.7072 -0.3223
  731MOL0     O98609   3.294   6.012   9.839  0.2595  0.0388  0.2446
  731MOL0     C98610   3.275   5.871   9.803 -0.6303 -0.7330  0.5847
  731MOL0     C98611   3.132   5.836   9.811  0.2307 -0.1023 -0.6311
  731MOL0     C98612   3.066   5.866   9.943 -0.4876  0.9166 -0.4783
  731MOL0     C98613   3.111   5.769  10.057  0.3558  0.1458  0.1009
  731MOL0     C98614   3.041   5.639  10.056  0.9957 -1.0762  0.3855
  731MOL0     C98615   2.981   5.534  10.044  0.9495 -0.9724  0.1541
  731MOL0     C98616   3.487   6.160   9.817 -0.4143  0.2124 -0.4309
  731MOL0     C98617   3.618   6.196   9.854  0.4911 -0.1976  1.1253
  731MOL0     H98618   4.097   6.102   9.930 -1.3551  1.3014  0.1403
  731MOL0     H98619   4.310   6.146  10.007  0.6706  1.2381  0.6584
  731MOL0     H98620   4.375   6.274  10.432 -0.2317  1.0393 -2.6077
  731MOL0     H98621   4.398   6.104  10.447  0.2255  0.8693  2.8017
  731MOL0     H98622   4.617   6.289  10.378 -0.7175 -0.1574 -0.4036
  731MOL0     H98623   4.596   6.187  10.519 -0.5929 -2.6979  0.7823
  731MOL0     H98624   4.612   5.975  10.355  0.4083 -0.3064 -1.0296
  731MOL0     H98625   4.666   6.094  10.237 -0.5354  1.6370 -0.4339
  731MOL0     H98626   4.814   6.179  10.413  1.4550  0.3764  1.2302
  731MOL0     H98627   4.779   6.037  10.512 -0.9753 -1.4095 -1.0069
  731MOL0     H98628   4.848   5.881  10.337 -2.2898  1.6096 -4.1598
  731MOL0     H98629   4.914   6.015  10.239 -1.0080 -0.9050 -0.8171
  731MOL0     H98630   5.050   5.988  10.509  3.7785  0.4166 -0.2579
  731MOL0     H98631   5.090   5.877  10.375  0.5345 -0.7775  2.3311
  731MOL0     H98632   5.127   6.078  10.224 -0.3133  0.5548  0.0389
  731MOL0     H98633   5.063   6.179  10.362  1.3790 -0.5283  4.0555
  731MOL0     H98634   5.269   6.158  10.480  1.9616 -2.0050  0.1108
  731MOL0     H98635   5.314   6.182  10.318 -1.5011 -0.2809 -1.2757
  731MOL0     H98636   5.338   5.983  10.606  0.4326  0.6681  0.5101
  731MOL0     H98637   5.504   5.716  10.653  0.9005 -0.8252  0.3017
  731MOL0     H98638   5.616   5.680  10.524  1.8859  0.8915  1.9911
  731MOL0     H98639   5.652   5.928  10.688  0.8047  1.8856 -1.6628
  731MOL0     H98640   5.740   5.904  10.547  0.6303  1.8854  1.7206
  731MOL0     H98641   5.733   5.690  10.759 -1.2290  0.5054 -1.2870
  731MOL0     H98642   5.837   5.831  10.762 -1.4483  0.8460  0.6269
  731MOL0     H98643   5.901   5.732  10.509 -0.3283  1.5541  0.7922
  731MOL0     H98644   5.849   5.578  10.583 -0.9910  0.4214 -1.7426
  731MOL0     H98645   6.039   5.899  10.533 -0.3510 -3.6751  1.2316
  731MOL0     H98646   6.115   6.105  10.498  0.9383 -1.0648 -0.8944
  731MOL0     H98647   6.132   6.198  10.650 -0.2647 -0.9383  0.9707
  731MOL0     H98648   6.267   6.168  10.534  2.0057 -2.8004  0.6028
  731MOL0     H98649   6.526   6.220  10.975  0.6370 -1.3950  2.5157
  731MOL0     H98650   6.732   6.371  11.040  0.3063  0.2451 -0.4691
  731MOL0     H98651   6.930   6.429  11.124 -0.2175  3.5076  0.5994
  731MOL0     H98652   7.089   6.445  11.059 -0.9773  2.8855 -0.4854
  731MOL0     H98653   7.000   6.576  10.873 -1.6356  6.5733  0.6266
  731MOL0     H98654   6.837   6.529  10.891 -0.3061  3.3978 -0.0452
  731MOL0     H98655   6.921   6.749  10.948  3.4709 -1.0008 -0.2746
  731MOL0     H98656   7.010   6.681  11.093 -0.4023 -1.2927  1.0307
  731MOL0     H98657   6.772   6.623  11.172 -0.3081 -1.2650 -1.7103
  731MOL0     H98658   6.805   6.795  11.172 -1.6770  0.5593  0.3844
  731MOL0     H98659   6.650   6.596  10.986 -2.0781 -0.4717 -0.1736
  731MOL0     H98660   6.691   6.769  10.932 -2.3520  0.6235 -0.0162
  731MOL0     H98661   6.517   6.700  11.172 -3.4016  0.3601 -0.6056
  731MOL0     H98662   6.567   6.863  11.115 -0.0088  0.1727  0.7751
  731MOL0     H98663   6.429   6.822  10.917  2.1800 -0.8412 -0.0988
  731MOL0     H98664   6.324   6.792  11.058 -0.7769 -0.7996 -1.2614
  731MOL0     H98665   6.476   6.594  10.881  0.9598  1.0890  1.7697
  731MOL0     H98666   6.296   6.623  10.875 -3.1801 -0.1692  3.9194
  731MOL0     H98667   6.968   6.118  10.793 -0.8813  1.2046 -2.8036
  731MOL0     H98668   6.765   5.968  10.744 -1.5163  0.1359 -0.4438
  731MOL0     H98669   6.361   5.823  10.898  1.4074  0.3500 -1.5210
  731MOL0     H98670   6.184   5.663  10.842 -2.8308  1.0713  0.7181
  731MOL0     H98671   4.176   6.153  10.425 -1.7556 -0.9041  1.1054
  731MOL0     H98672   3.952   6.103  10.340  1.5195 -2.3580  1.9064
  731MOL0     H98673   3.661   5.967  10.105 -3.5314 -3.8526 -0.6889
  731MOL0     H98674   3.426   5.910  10.031 -1.4340  0.5533 -0.0903
  731MOL0     H98675   3.305   5.851   9.700  0.7809  0.5517  0.7235
  731MOL0     H98676   3.335   5.803   9.863  0.3794  1.0341  1.6629
  731MOL0     H98677   3.126   5.728   9.795  2.7377 -0.5537  0.9238
  731MOL0     H98678   3.074   5.882   9.731 -1.2321 -0.3732  0.2461
  731MOL0     H98679   2.962   5.838   9.923  0.2896 -2.9410  0.0531
  731MOL0     H98680   3.068   5.969   9.981  2.0873  1.0176 -0.7370
  731MOL0     H98681   3.088   5.819  10.151  2.3139  3.9107 -1.1959
  731MOL0     H98682   3.220   5.765  10.052  0.3858 -2.0756  1.5469
  731MOL0     H98683   2.931   5.440  10.041  0.2228 -0.7206  2.3095
  731MOL0     H98684   3.427   6.205   9.738  0.4377  1.7218 -0.2381
  731MOL0     H98685   3.659   6.280   9.799 -2.6522  0.3253 -0.6775
  732MOL0     O98686   0.373   3.466   9.270  0.5782  0.4172  0.5796
  732MOL0     C98687   0.266   3.481   9.208  0.3309 -0.0064 -0.0408
  732MOL0     O98688   0.143   3.434   9.246 -0.2746 -0.2877 -0.0299
  732MOL0     C98689   0.130   3.358   9.358 -1.1268  0.6192  0.0548
  732MOL0     C98690   0.210   3.241   9.377 -0.1263  0.5428  0.6060
  732MOL0     C98691   0.171   3.154   9.482 -0.1784  0.9672  0.1235
  732MOL0     C98692   0.068   3.174   9.562 -0.2481 -0.8679 -0.5524
  732MOL0     O98693   0.057   3.095   9.669  0.2020  0.2269  0.1329
  732MOL0     C98694  -0.069   3.039   9.714  0.0057  0.1145  0.8344
  732MOL0     C98695  -0.117   3.129   9.828  0.4160  0.3436 -0.2556
  732MOL0     C98696  -0.231   3.056   9.888 -0.1008 -0.3860 -0.2883
  732MOL0     C98697  -0.303   3.157   9.989 -0.1537 -0.8382 -0.4198
  732MOL0     C98698  -0.448   3.130  10.021 -0.3509 -0.7713 -0.8292
  732MOL0     C98699  -0.482   3.042  10.142  0.7212  0.3450  0.8760
  732MOL0     C98700  -0.633   3.008  10.135 -0.2665 -0.4993  0.1498
  732MOL0     C98701  -0.737   3.119  10.162 -0.2765 -0.3440  0.7135
  732MOL0     N98702  -0.871   3.070  10.161 -0.5905 -0.1114 -0.3674
  732MOL0     C98703  -0.922   2.976  10.252 -0.4521 -0.1459 -0.0928
  732MOL0     C98704  -1.053   2.994  10.252  0.6124 -0.3904 -0.5788
  732MOL0     C98705  -1.165   2.934  10.336  0.2530 -0.3089 -0.7408
  732MOL0     C98706  -1.222   3.034  10.443 -0.2141  0.9476 -0.4416
  732MOL0     C98707  -1.332   2.963  10.516 -1.1622 -0.4179 -0.1632
  732MOL0     C98708  -1.295   2.846  10.611  0.7184  0.7308  0.8187
  732MOL0     O98709  -1.424   2.819  10.677  0.1931 -0.4267 -0.3311
  732MOL0     C98710  -1.421   2.734  10.784  0.3523  0.2819 -0.3386
  732MOL0     C98711  -1.323   2.650  10.833 -0.5453 -1.2125 -0.3417
  732MOL0     C98712  -1.338   2.564  10.949  0.2889  0.3775 -0.2367
  732MOL0     C98713  -1.218   2.476  10.979  0.8294 -0.5678  0.0342
  732MOL0     C98714  -1.456   2.574  11.028  0.2124 -0.2281  0.7921
  732MOL0     C98715  -1.483   2.489  11.153  0.0156  0.1015  0.4907
  732MOL0     O98716  -1.610   2.461  11.171 -0.4143  0.3736 -0.1023
  732MOL0     C98717  -1.643   2.425  11.297 -0.0201  0.1843 -0.1765
  732MOL0     C98718  -1.683   2.519  11.389  0.6304 -0.9992  0.1938
  732MOL0     C98719  -1.747   2.481  11.510  0.0554  0.0753 -0.2030
  732MOL0     C98720  -1.749   2.344  11.541 -0.2946  0.4275  0.0766
  732MOL0     O98721  -1.817   2.305  11.655 -0.1486 -0.0119  0.0041
  732MOL0     C98722  -1.770   2.365  11.774 -0.3683 -0.0633 -0.6620
  732MOL0     C98723  -1.830   2.307  11.899  0.1805  0.3206  0.0563
  732MOL0     C98724  -1.802   2.164  11.919 -0.3661  0.1788  0.1556
  732MOL0     C98725  -1.865   2.107  12.038  0.0908  0.5003 -0.5983
  732MOL0     C98726  -1.821   1.965  12.038 -0.8765 -0.5018  0.2688
  732MOL0     C98727  -1.908   1.880  12.130  0.5469 -1.0581  1.1877
  732MOL0     C98728  -1.849   1.744  12.162 -0.0800 -0.1269 -1.5497
  732MOL0     C98729  -1.930   1.651  12.258  0.7243 -0.4544  0.2289
  732MOL0    Cl98730  -1.961   1.732  12.417  0.0004  0.5330  0.0614
  732MOL0     C98731  -1.702   2.248  11.456 -0.0341  1.0011 -0.4367
  732MOL0     C98732  -1.642   2.292  11.334 -0.0485 -0.0985 -0.1417
  732MOL0     O98733  -1.395   2.427  11.217  0.0463  0.7369 -0.1088
  732MOL0     C98734  -1.564   2.655  10.972 -0.2388 -0.4669 -0.1484
  732MOL0     C98735  -1.541   2.729  10.853  0.4265 -0.2826 -0.3027
  732MOL0     N98736  -1.084   3.087  10.142 -0.6418  0.1681 -0.4473
  732MOL0     N98737  -0.973   3.134  10.100  0.1160  0.3573  0.0606
  732MOL0     C98738  -0.012   3.289   9.539 -0.3230 -0.4335  0.4540
  732MOL0     C98739   0.029   3.387   9.436 -0.4655 -0.0012 -0.0399
  732MOL0     C98740   0.272   3.550   9.069 -0.4036  0.4038 -0.1941
  732MOL0     C98741   0.395   3.580   9.007 -0.5444  0.2533 -0.1959
  732MOL0     C98742   0.405   3.623   8.876 -0.6376 -0.3001 -0.4950
  732MOL0     C98743   0.285   3.629   8.800 -0.5162  0.3989  0.3112
  732MOL0     O98744   0.308   3.661   8.677  0.1372 -0.6033  1.1730
  732MOL0     C98745   0.199   3.663   8.577  0.6634 -0.2318  0.0420
  732MOL0     C98746   0.234   3.743   8.444  0.3279 -0.6319  0.5494
  732MOL0     C98747   0.277   3.886   8.485  0.2344  0.3135 -0.1617
  732MOL0     C98748   0.256   3.979   8.371  0.3220 -0.2638 -1.2388
  732MOL0     C98749   0.343   3.955   8.263 -0.8743  0.2975  0.3357
  732MOL0     C98750   0.433   3.938   8.181 -0.1537 -0.0791 -0.5152
  732MOL0     C98751   0.162   3.592   8.859  0.2278  0.5097  1.2183
  732MOL0     C98752   0.149   3.560   8.993  0.1972 -1.1971  0.4800
  732MOL0     H98753   0.279   3.219   9.296 -0.0328 -1.9846  1.2828
  732MOL0     H98754   0.222   3.060   9.468  0.7579  1.0359  2.6295
  732MOL0     H98755  -0.151   3.027   9.643 -2.0831  2.2777  2.7082
  732MOL0     H98756  -0.045   2.938   9.747  0.0683  0.6115  2.3897
  732MOL0     H98757  -0.045   3.133   9.910  1.3963  3.2103 -1.1475
  732MOL0     H98758  -0.140   3.226   9.782 -3.9328 -1.1148 -1.7544
  732MOL0     H98759  -0.310   3.021   9.821  0.4268 -0.3410 -0.9329
  732MOL0     H98760  -0.196   2.969   9.945 -1.9330  0.4561  2.3471
  732MOL0     H98761  -0.259   3.146  10.088  1.7999  0.8604 -1.0173
  732MOL0     H98762  -0.300   3.264   9.966 -0.2833 -0.7076  0.1644
  732MOL0     H98763  -0.496   3.228  10.019  3.7005  1.4268 -1.6513
  732MOL0     H98764  -0.501   3.090   9.934 -0.0041  0.5929 -1.6974
  732MOL0     H98765  -0.431   2.946  10.134  2.8150  1.4194  0.5449
  732MOL0     H98766  -0.453   3.088  10.237  3.3622 -1.6371  1.1519
  732MOL0     H98767  -0.656   2.968  10.035 -1.1358 -1.2204  0.6244
  732MOL0     H98768  -0.652   2.932  10.211  2.5758  0.4361  1.9334
  732MOL0     H98769  -0.726   3.216  10.113 -2.8149  0.5412  1.7644
  732MOL0     H98770  -0.731   3.155  10.265 -1.1994  0.9304  0.3407
  732MOL0     H98771  -0.853   2.916  10.311  2.1238  1.4932 -1.2207
  732MOL0     H98772  -1.243   2.882  10.281  0.4329 -3.0614  1.3807
  732MOL0     H98773  -1.117   2.861  10.402  1.0731  0.6437 -0.2442
  732MOL0     H98774  -1.251   3.129  10.397 -1.2928  0.1527 -1.4473
  732MOL0     H98775  -1.142   3.069  10.509  2.4210 -0.0899 -2.8334
  732MOL0     H98776  -1.405   2.934  10.440  0.8953 -0.8442 -2.0851
  732MOL0     H98777  -1.367   3.043  10.582  1.2670  1.8076 -1.3624
  732MOL0     H98778  -1.218   2.866  10.685  1.0466  0.3652  0.5782
  732MOL0     H98779  -1.253   2.762  10.555  2.3459  1.6670  0.5711
  732MOL0     H98780  -1.234   2.644  10.772  0.0049  1.5119  0.0721
  732MOL0     H98781  -1.134   2.498  10.913  2.6465  0.5617  2.5541
  732MOL0     H98782  -1.181   2.490  11.081 -0.0642 -0.0230  0.2946
  732MOL0     H98783  -1.242   2.371  10.960 -0.5177 -0.4079  0.7116
  732MOL0     H98784  -1.674   2.624  11.362 -1.2936 -0.8195  0.1389
  732MOL0     H98785  -1.787   2.563  11.568 -2.3425 -0.6929 -0.6828
  732MOL0     H98786  -1.663   2.341  11.779 -0.4621 -0.2596  1.1461
  732MOL0     H98787  -1.775   2.474  11.775 -0.3211 -0.0550 -1.1294
  732MOL0     H98788  -1.774   2.349  11.983  0.6851  1.5588 -0.8762
  732MOL0     H98789  -1.938   2.322  11.900 -0.1698 -1.8041  1.0272
  732MOL0     H98790  -1.693   2.150  11.923 -0.5153 -0.8112  1.4916
  732MOL0     H98791  -1.839   2.100  11.839 -0.5581 -0.9588  1.1166
  732MOL0     H98792  -1.840   2.146  12.137  1.8741 -2.5191  0.2695
  732MOL0     H98793  -1.974   2.112  12.030  0.0415  1.1911  0.3210
  732MOL0     H98794  -1.714   1.956  12.059 -0.7256  0.0344 -0.2603
  732MOL0     H98795  -1.829   1.916  11.941  0.7282 -2.7125  1.1609
  732MOL0     H98796  -1.934   1.932  12.222 -1.6242  1.6230 -0.7843
  732MOL0     H98797  -2.010   1.868  12.092 -0.1671 -0.7416  2.8867
  732MOL0     H98798  -1.749   1.764  12.200 -1.2523  0.7585  1.3113
  732MOL0     H98799  -1.843   1.678  12.075  1.0969 -2.2852  0.0822
  732MOL0     H98800  -1.888   1.552  12.276  0.2815 -0.5496  0.7254
  732MOL0     H98801  -2.028   1.624  12.219  1.2800 -3.1227  0.5004
  732MOL0     H98802  -1.721   2.144  11.479  1.4853  1.0941  1.4724
  732MOL0     H98803  -1.617   2.221  11.255 -0.5054 -0.1302 -0.2620
  732MOL0     H98804  -1.649   2.680  11.035 -0.2875  2.8586 -1.3185
  732MOL0     H98805  -1.630   2.785  10.827 -0.2346 -0.2655  1.7878
  732MOL0     H98806  -0.098   3.315   9.600 -0.8261 -0.8224 -0.0773
  732MOL0     H98807  -0.030   3.471   9.403  2.3820  1.4623 -1.8425
  732MOL0     H98808   0.487   3.575   9.065  0.4317 -0.1639 -1.6999
  732MOL0     H98809   0.502   3.640   8.831  0.5294 -1.5656  1.3950
  732MOL0     H98810   0.174   3.558   8.560  3.3090 -1.0526  0.7989
  732MOL0     H98811   0.114   3.714   8.622  3.3368  0.2972  5.2083
  732MOL0     H98812   0.149   3.755   8.377  1.2819 -1.1006 -0.7745
  732MOL0     H98813   0.314   3.695   8.387  0.5616 -0.4326  0.7037
  732MOL0     H98814   0.380   3.894   8.518 -0.1569  0.4613  1.0633
  732MOL0     H98815   0.210   3.911   8.568  0.0967 -0.8346  0.0865
  732MOL0     H98816   0.268   4.080   8.412 -1.1907 -0.9285  1.0377
  732MOL0     H98817   0.152   3.967   8.341 -0.2101  0.8321  0.0397
  732MOL0     H98818   0.516   3.930   8.113 -0.3856 -1.5554 -0.6564
  732MOL0     H98819   0.069   3.612   8.806 -0.4364  1.3940  2.6734
  732MOL0     H98820   0.057   3.541   9.047 -0.4654 -1.6153 -0.7768
  733MOL0     O98821   5.896   2.754   4.892  0.3383  0.1958 -0.9590
  733MOL0     C98822   5.906   2.799   4.780  0.5142 -0.4913 -0.0431
  733MOL0     O98823   6.010   2.788   4.702  0.0336  0.7287 -0.8763
  733MOL0     C98824   6.111   2.703   4.727 -0.4037 -0.1646  0.6463
  733MOL0     C98825   6.081   2.567   4.754  0.2512 -0.0394  0.7266
  733MOL0     C98826   6.190   2.480   4.773 -0.3296 -0.0915  0.3197
  733MOL0     C98827   6.325   2.519   4.762 -0.2963 -0.0971  0.4591
  733MOL0     O98828   6.451   2.450   4.773 -0.2479 -0.1629 -0.4140
  733MOL0     C98829   6.428   2.347   4.872 -0.1821 -0.1089  0.6096
  733MOL0     C98830   6.566   2.269   4.859 -1.3816  0.3317 -0.0948
  733MOL0     C98831   6.688   2.356   4.908  0.0863 -0.4169 -0.0076
  733MOL0     C98832   6.784   2.386   4.793  0.5399  0.4030  0.3896
  733MOL0     C98833   6.931   2.440   4.834  0.1508 -0.1727 -0.6720
  733MOL0     C98834   6.984   2.419   4.983  0.0035  0.8636  0.2552
  733MOL0     C98835   7.128   2.478   5.013 -0.6641 -0.1456  0.3572
  733MOL0     C98836   7.239   2.418   4.934 -0.3949 -0.2409  0.3876
  733MOL0     N98837   7.264   2.283   4.977 -0.5521 -0.2536  0.6899
  733MOL0     C98838   7.342   2.233   5.079  0.4255  0.4681 -0.2931
  733MOL0     C98839   7.302   2.099   5.088 -0.5273 -0.6794  0.1551
  733MOL0     C98840   7.355   1.997   5.187 -0.1979 -0.0543  0.0736
  733MOL0     C98841   7.413   2.053   5.311  0.8332  0.0033 -0.3276
  733MOL0     C98842   7.305   2.030   5.421 -0.4785 -0.9076 -0.2781
  733MOL0     C98843   7.176   2.125   5.421 -0.4429 -0.2856  0.9966
  733MOL0     O98844   7.097   2.109   5.538  0.1615  0.1934  0.5299
  733MOL0     C98845   7.073   2.221   5.612  0.1738  0.8310  0.2703
  733MOL0     C98846   7.136   2.251   5.734  0.4009 -0.7788 -0.5201
  733MOL0     C98847   7.102   2.373   5.813  0.5122  0.1868 -0.0029
  733MOL0     C98848   7.183   2.398   5.935 -0.3451 -0.2287 -0.3916
  733MOL0     C98849   7.008   2.461   5.756 -0.0075  0.4803 -0.2649
  733MOL0     C98850   6.963   2.592   5.826 -0.4720  1.0404  0.1384
  733MOL0     O98851   6.986   2.601   5.961 -1.0267 -0.4939 -0.3631
  733MOL0     C98852   6.942   2.720   6.021  0.1675  0.7035  0.0330
  733MOL0     C98853   7.034   2.812   6.075 -1.0226 -0.3656 -0.0292
  733MOL0     C98854   6.987   2.933   6.133 -0.0364  0.6021  0.7036
  733MOL0     C98855   6.847   2.964   6.148 -0.0962  0.6912 -0.2485
  733MOL0     O98856   6.791   3.058   6.230 -0.2879 -0.2636 -0.3641
  733MOL0     C98857   6.847   3.196   6.209 -0.5916  0.3221 -0.2843
  733MOL0     C98858   6.755   3.287   6.141 -0.1237  0.2498 -0.0662
  733MOL0     C98859   6.815   3.428   6.138 -0.4436 -0.5787 -0.1265
  733MOL0     C98860   6.941   3.431   6.045  0.3902 -0.0812  0.5887
  733MOL0     C98861   6.960   3.574   5.979 -0.6888 -0.0337 -0.1364
  733MOL0     C98862   7.107   3.590   5.929  0.2646 -0.3503  0.4679
  733MOL0     C98863   7.113   3.715   5.851 -0.6739 -0.4174 -0.4757
  733MOL0     C98864   7.061   3.840   5.933 -0.4725  0.8430  0.2299
  733MOL0    Cl98865   7.126   3.825   6.106  0.2208  0.0054 -0.2278
  733MOL0     C98866   6.755   2.875   6.090 -0.2737  0.6037 -0.0679
  733MOL0     C98867   6.805   2.749   6.048 -0.6169  0.1157  0.1678
  733MOL0     O98868   6.903   2.671   5.766  0.1652  0.0226  0.2411
  733MOL0     C98869   6.942   2.419   5.637 -0.0711  0.3549  0.0856
  733MOL0     C98870   6.970   2.305   5.572  0.2617  0.9022  0.3038
  733MOL0     N98871   7.217   2.075   4.981 -0.5754  0.3098  0.3894
  733MOL0     N98872   7.188   2.181   4.922  0.0132 -0.0474  0.0721
  733MOL0     C98873   6.350   2.652   4.716  0.2305 -0.0196  0.9659
  733MOL0     C98874   6.244   2.743   4.699  1.0695  0.0195 -0.4787
  733MOL0     C98875   5.793   2.861   4.719 -0.6463  0.0803 -0.8021
  733MOL0     C98876   5.805   2.900   4.582  0.6364 -0.2253 -0.2823
  733MOL0     C98877   5.696   2.978   4.522 -0.2671  0.5976 -0.4072
  733MOL0     C98878   5.580   2.998   4.592  0.5614 -0.8455  1.2326
  733MOL0     O98879   5.480   3.059   4.529 -0.5482 -0.3117 -0.3339
  733MOL0     C98880   5.345   3.027   4.557 -0.0987  0.1706 -0.9818
  733MOL0     C98881   5.274   3.094   4.446  0.9526  0.6039  0.9313
  733MOL0     C98882   5.133   3.145   4.482 -1.0577 -0.2594 -0.5587
  733MOL0     C98883   5.159   3.283   4.532  1.0396 -0.8085 -0.7469
  733MOL0     C98884   5.038   3.344   4.583 -0.3540 -0.2859  0.4399
  733MOL0     C98885   4.923   3.365   4.616 -0.6093 -0.1052 -0.2171
  733MOL0     C98886   5.570   2.963   4.727 -0.6566 -0.6709 -0.2007
  733MOL0     C98887   5.675   2.883   4.785  0.1242 -1.0326  0.6454
  733MOL0     H98888   5.978   2.532   4.755  0.5898 -1.0784  2.0093
  733MOL0     H98889   6.155   2.380   4.795  0.1620 -0.3710 -0.1639
  733MOL0     H98890   6.412   2.399   4.967  1.3132  1.5421  0.0043
  733MOL0     H98891   6.355   2.266   4.865 -1.1615  0.6374  1.6628
  733MOL0     H98892   6.553   2.175   4.914 -0.9900 -0.0294 -0.6171
  733MOL0     H98893   6.588   2.248   4.754  1.1556  0.5768  0.3431
  733MOL0     H98894   6.663   2.450   4.958  1.3844  0.7849 -1.5033
  733MOL0     H98895   6.738   2.290   4.980  0.0703 -1.2263 -0.7233
  733MOL0     H98896   6.796   2.287   4.748  0.6444  1.5703 -2.3777
  733MOL0     H98897   6.738   2.451   4.718  0.0700  0.4313  0.6955
  733MOL0     H98898   7.004   2.400   4.763 -0.5035  0.9775 -2.0404
  733MOL0     H98899   6.934   2.549   4.824  3.8131 -0.1315 -0.3301
  733MOL0     H98900   6.913   2.462   5.054  0.7904  0.0329  1.5757
  733MOL0     H98901   6.979   2.312   5.007  3.1457  1.0258  2.1722
  733MOL0     H98902   7.135   2.587   5.006  1.2439 -0.2294  0.5384
  733MOL0     H98903   7.164   2.454   5.113  0.4429 -0.9458 -0.2181
  733MOL0     H98904   7.336   2.467   4.948 -1.3120  0.6510  5.4667
  733MOL0     H98905   7.215   2.418   4.828  0.5316  1.8401  0.1344
  733MOL0     H98906   7.404   2.283   5.153 -0.1358 -0.8248  1.0911
  733MOL0     H98907   7.284   1.916   5.206  0.8878 -0.6396  1.9625
  733MOL0     H98908   7.443   1.946   5.146  0.4996 -0.1344  1.5796
  733MOL0     H98909   7.454   2.154   5.299  1.9707 -0.4102 -0.0487
  733MOL0     H98910   7.497   1.985   5.329 -1.2813 -2.7013  0.0533
  733MOL0     H98911   7.341   2.048   5.523 -1.5651  1.9949 -0.3042
  733MOL0     H98912   7.271   1.926   5.412  1.7075 -1.5401 -2.0206
  733MOL0     H98913   7.115   2.096   5.335 -0.4237 -1.7050  1.4483
  733MOL0     H98914   7.215   2.227   5.421 -0.4258 -0.2695 -0.3137
  733MOL0     H98915   7.206   2.181   5.778  0.4582 -0.9472 -0.8822
  733MOL0     H98916   7.262   2.323   5.941 -0.4322 -0.3921 -1.1597
  733MOL0     H98917   7.229   2.497   5.935 -0.6390 -0.0867 -1.0303
  733MOL0     H98918   7.109   2.398   6.016  0.5960  3.2844  0.6208
  733MOL0     H98919   7.141   2.805   6.063 -0.4577 -1.3596  4.0234
  733MOL0     H98920   7.061   2.995   6.183  1.0461 -0.7032  0.7910
  733MOL0     H98921   6.869   3.239   6.307 -1.4832  0.1204  0.0097
  733MOL0     H98922   6.940   3.191   6.152  0.8065 -1.0455  1.9353
  733MOL0     H98923   6.722   3.261   6.040  0.2475 -2.2749  0.3778
  733MOL0     H98924   6.661   3.290   6.197 -0.9055 -5.6253 -0.3593
  733MOL0     H98925   6.832   3.450   6.243 -1.1369  1.5963 -0.4213
  733MOL0     H98926   6.736   3.493   6.101  0.4446  2.5262  2.9090
  733MOL0     H98927   7.031   3.407   6.101 -0.7925 -1.5522  1.9331
  733MOL0     H98928   6.936   3.355   5.966 -2.5930 -0.1648  0.7367
  733MOL0     H98929   6.936   3.648   6.056 -3.9916  2.1140 -2.8998
  733MOL0     H98930   6.891   3.596   5.897 -1.8622  0.1858  0.8776
  733MOL0     H98931   7.182   3.589   6.008  3.4722 -0.4974 -2.3864
  733MOL0     H98932   7.134   3.509   5.862  1.0953 -0.1697  0.5743
  733MOL0     H98933   7.054   3.703   5.760 -3.0941  0.3476  0.9029
  733MOL0     H98934   7.216   3.736   5.820 -0.5644 -0.8459 -0.4027
  733MOL0     H98935   6.953   3.852   5.931 -0.4109  2.1105 -3.3970
  733MOL0     H98936   7.100   3.932   5.889  1.7176 -0.7620 -1.4297
  733MOL0     H98937   6.648   2.895   6.095  0.4867  6.4275  3.9207
  733MOL0     H98938   6.733   2.674   6.016 -2.1321  0.6597  2.0827
  733MOL0     H98939   6.863   2.485   5.601 -0.5952 -0.7247 -0.7896
  733MOL0     H98940   6.907   2.267   5.492  1.7322 -3.4200  0.9317
  733MOL0     H98941   6.452   2.682   4.691  0.8500 -1.5264  1.5478
  733MOL0     H98942   6.259   2.844   4.662  2.4331  0.0642  0.1297
  733MOL0     H98943   5.896   2.890   4.524 -0.5584  1.1066 -2.4987
  733MOL0     H98944   5.711   3.014   4.420  3.0797  0.1067 -0.2021
  733MOL0     H98945   5.315   2.924   4.576 -2.1098  0.6186 -1.4149
  733MOL0     H98946   5.310   3.073   4.650 -0.4578 -2.0864  0.0545
  733MOL0     H98947   5.253   3.012   4.376 -0.9747 -0.2649  2.4162
  733MOL0     H98948   5.335   3.173   4.402 -1.6975  2.2103 -0.1551
  733MOL0     H98949   5.084   3.078   4.553  0.7948 -1.4625 -0.3510
  733MOL0     H98950   5.074   3.164   4.392 -0.8771  3.6047 -0.0372
  733MOL0     H98951   5.209   3.340   4.453  3.1146 -0.3039  0.8525
  733MOL0     H98952   5.231   3.290   4.614  0.2870 -0.7266 -0.0865
  733MOL0     H98953   4.819   3.387   4.625 -1.8112 -4.5495 -0.9780
  733MOL0     H98954   5.488   2.988   4.794  0.7177  0.3786  1.1766
  733MOL0     H98955   5.655   2.856   4.888  1.3826 -0.2355  1.1250
  734MOL0     O98956   6.793   0.365   2.209  0.5431 -0.6578  0.2253
  734MOL0     C98957   6.816   0.455   2.292 -0.2896  0.1748  0.2306
  734MOL0     O98958   6.732   0.551   2.338  0.7800  0.4835 -1.0972
  734MOL0     C98959   6.618   0.578   2.279  0.2725  0.0077  0.5635
  734MOL0     C98960   6.554   0.690   2.332 -0.8059  0.0063  0.1148
  734MOL0     C98961   6.436   0.737   2.280  0.0736  0.9994 -0.0980
  734MOL0     C98962   6.374   0.686   2.168 -0.1777  0.1507  0.8068
  734MOL0     O98963   6.255   0.738   2.122 -0.2413  0.2126 -0.0377
  734MOL0     C98964   6.238   0.749   1.986 -0.6444 -0.6855 -0.8702
  734MOL0     C98965   6.114   0.833   1.953  0.0969  0.8681  0.7563
  734MOL0     C98966   6.118   0.902   1.817  0.1271 -0.2966  0.6530
  734MOL0     C98967   6.010   1.008   1.804  0.0086  0.5791 -0.2276
  734MOL0     C98968   5.997   1.038   1.659  1.0300 -0.7156  1.5691
  734MOL0     C98969   5.919   1.171   1.625  0.1405  0.4798  1.2389
  734MOL0     C98970   5.928   1.216   1.479  0.2478  0.0592  0.4291
  734MOL0     C98971   5.878   1.355   1.476 -1.0065 -0.4727  0.0795
  734MOL0     N98972   5.918   1.398   1.339 -0.6688 -0.6128 -0.2002
  734MOL0     C98973   6.024   1.478   1.317  0.2420  0.2676  0.5252
  734MOL0     C98974   6.020   1.510   1.185  0.3816  0.9755 -0.0866
  734MOL0     C98975   6.124   1.577   1.094 -0.1292  0.1226  0.6538
  734MOL0     C98976   6.066   1.679   1.000  0.7218 -0.2597  0.1484
  734MOL0     C98977   6.009   1.617   0.876 -0.0105 -0.2918  0.5916
  734MOL0     C98978   5.898   1.695   0.802 -0.3006  0.3078 -1.0222
  734MOL0     O98979   5.936   1.833   0.812  0.0816  0.6767  0.1164
  734MOL0     C98980   5.861   1.923   0.738 -0.7357 -0.3908  0.5516
  734MOL0     C98981   5.732   1.903   0.686  0.4735  0.4069 -0.7775
  734MOL0     C98982   5.654   2.010   0.635  0.6097  0.3105 -0.6454
  734MOL0     C98983   5.517   1.978   0.590  0.0515  0.0442 -0.2452
  734MOL0     C98984   5.712   2.139   0.631  0.1403  0.5390  1.0681
  734MOL0     C98985   5.634   2.254   0.565 -1.0729 -0.5609 -0.1326
  734MOL0     O98986   5.703   2.347   0.496 -0.1484 -0.1821  0.2319
  734MOL0     C98987   5.627   2.460   0.469 -0.5986 -0.0815 -0.2317
  734MOL0     C98988   5.517   2.473   0.383  0.0234  0.5700 -0.6309
  734MOL0     C98989   5.472   2.592   0.343 -0.3838 -0.1238 -0.0921
  734MOL0     C98990   5.521   2.708   0.397  0.4963 -0.5364  0.6309
  734MOL0     O98991   5.465   2.824   0.353 -0.5282  0.9029  0.4077
  734MOL0     C98992   5.525   2.867   0.226 -0.1811  0.1757  0.3458
  734MOL0     C98993   5.486   3.013   0.191  0.2679 -0.4107 -0.1212
  734MOL0     C98994   5.564   3.068   0.070  0.3154 -0.0862  0.3187
  734MOL0     C98995   5.531   3.010  -0.065  0.1688  0.1961 -0.0287
  734MOL0     C98996   5.619   3.068  -0.176  0.2611 -0.6966 -0.8130
  734MOL0     C98997   5.579   2.988  -0.299  0.8661 -0.4817  0.5734
  734MOL0     C98998   5.604   3.044  -0.439  0.1970 -0.4009 -0.2533
  734MOL0     C98999   5.569   2.950  -0.547  0.7441  0.5476  1.1690
  734MOL0    Cl99000   5.689   2.835  -0.564  0.2605  0.2516 -0.0169
  734MOL0     C99001   5.629   2.698   0.486  0.6567  0.3786 -0.5560
  734MOL0     C99002   5.678   2.578   0.529  0.7497 -0.2091 -0.1561
  734MOL0     O99003   5.524   2.272   0.610 -0.3826  0.2357 -0.1717
  734MOL0     C99004   5.844   2.158   0.666  0.4471 -0.6368  0.1163
  734MOL0     C99005   5.913   2.053   0.725 -0.0587 -0.8011 -0.6155
  734MOL0     N99006   5.905   1.467   1.128 -0.0451 -0.2435 -0.3727
  734MOL0     N99007   5.837   1.408   1.223  0.1264 -0.3897  0.5042
  734MOL0     C99008   6.443   0.580   2.107  0.2631 -0.0218 -0.0689
  734MOL0     C99009   6.559   0.517   2.164 -0.0782  0.3625  0.1775
  734MOL0     C99010   6.955   0.453   2.357 -0.0355  0.2708  0.4151
  734MOL0     C99011   6.999   0.550   2.453 -0.5167 -0.5110 -0.3287
  734MOL0     C99012   7.132   0.552   2.514  0.8502  0.0829  0.0675
  734MOL0     C99013   7.213   0.451   2.482 -0.2015 -0.1187  0.1864
  734MOL0     O99014   7.333   0.433   2.544 -0.7888 -0.0750  0.5128
  734MOL0     C99015   7.393   0.547   2.622 -0.4352 -0.6321 -0.1276
  734MOL0     C99016   7.542   0.498   2.649  0.2195 -0.1530 -0.6087
  734MOL0     C99017   7.603   0.595   2.745 -0.8918  0.6060 -0.7514
  734MOL0     C99018   7.756   0.596   2.743  0.2365 -0.4441  1.2278
  734MOL0     C99019   7.808   0.691   2.844 -0.1365 -0.9876  0.2214
  734MOL0     C99020   7.847   0.760   2.939  0.0632 -0.7157  0.5747
  734MOL0     C99021   7.172   0.351   2.398 -0.3372  0.3496 -0.0483
  734MOL0     C99022   7.050   0.348   2.335  0.4261 -0.0677  0.7444
  734MOL0     H99023   6.604   0.740   2.415 -0.5297  1.4859 -0.9020
  734MOL0     H99024   6.387   0.822   2.328  1.5967  2.0152 -0.2558
  734MOL0     H99025   6.324   0.797   1.940 -0.9045 -2.9942 -4.1531
  734MOL0     H99026   6.228   0.654   1.932 -0.2299  0.8313 -3.8596
  734MOL0     H99027   6.034   0.758   1.946 -1.8297  3.0099 -2.2386
  734MOL0     H99028   6.094   0.919   2.018  0.4208  3.1119 -1.9416
  734MOL0     H99029   6.211   0.957   1.799 -0.9464  0.9539 -1.4776
  734MOL0     H99030   6.098   0.822   1.745 -1.8397 -0.8954  1.7779
  734MOL0     H99031   5.912   0.986   1.847  1.4350  0.1695  3.1045
  734MOL0     H99032   6.054   1.094   1.854 -0.0825  0.5964 -0.1771
  734MOL0     H99033   6.098   1.036   1.617  0.2918 -1.1543 -0.2842
  734MOL0     H99034   5.962   0.950   1.604  4.1825 -0.9677 -0.2745
  734MOL0     H99035   5.814   1.180   1.655 -1.0511  1.5540 -2.5747
  734MOL0     H99036   5.983   1.242   1.678  3.3149 -1.6089  0.5007
  734MOL0     H99037   6.025   1.191   1.435 -0.2755  0.7184 -1.2042
  734MOL0     H99038   5.863   1.153   1.417 -2.6278  2.0378  1.2468
  734MOL0     H99039   5.936   1.408   1.552  0.0462  0.5729 -1.4013
  734MOL0     H99040   5.770   1.354   1.488 -1.2620 -1.0341 -1.9973
  734MOL0     H99041   6.102   1.494   1.392  0.0133 -1.5980  1.2413
  734MOL0     H99042   6.201   1.615   1.162 -2.1427 -0.8626  3.6919
  734MOL0     H99043   6.168   1.494   1.037 -1.6588 -0.6544  0.5608
  734MOL0     H99044   6.143   1.749   0.965  0.4292  0.2561  0.5211
  734MOL0     H99045   5.977   1.724   1.046  3.1090  2.3596  2.5388
  734MOL0     H99046   5.976   1.512   0.879 -1.7828 -0.1494 -4.4059
  734MOL0     H99047   6.098   1.618   0.813 -1.4515  1.6688 -1.5644
  734MOL0     H99048   5.808   1.673   0.860  0.1439 -0.1186 -0.4790
  734MOL0     H99049   5.887   1.667   0.697 -2.9905 -0.2688 -0.6562
  734MOL0     H99050   5.677   1.813   0.710  1.2271 -0.2251 -1.3705
  734MOL0     H99051   5.500   1.870   0.582  1.9128 -0.4566  1.5994
  734MOL0     H99052   5.442   2.023   0.656 -0.1017 -0.6826  0.0849
  734MOL0     H99053   5.516   2.026   0.492  1.1453  0.4875 -0.0595
  734MOL0     H99054   5.469   2.381   0.350  2.1962  0.4975 -4.1166
  734MOL0     H99055   5.385   2.595   0.278 -1.2473 -0.8546  0.9870
  734MOL0     H99056   5.634   2.870   0.230 -0.0019  3.4500 -2.1466
  734MOL0     H99057   5.494   2.790   0.154  1.2458  0.7318 -0.9119
  734MOL0     H99058   5.379   3.024   0.168 -0.8977 -1.7812  3.8499
  734MOL0     H99059   5.512   3.079   0.274 -0.6727  1.9639 -1.6054
  734MOL0     H99060   5.670   3.044   0.086  0.3342  0.0534  0.4021
  734MOL0     H99061   5.565   3.177   0.070  1.2369 -0.0870  0.2702
  734MOL0     H99062   5.536   2.901  -0.068  1.4496  0.2678 -0.9761
  734MOL0     H99063   5.428   3.041  -0.087 -0.7112 -2.7146 -0.3966
  734MOL0     H99064   5.724   3.050  -0.153  0.1840 -2.0052 -1.3881
  734MOL0     H99065   5.610   3.174  -0.199 -1.6475 -1.2716 -3.1753
  734MOL0     H99066   5.621   2.887  -0.301  1.0171 -0.4301 -1.3828
  734MOL0     H99067   5.472   2.964  -0.304  1.0255 -1.0615 -0.3205
  734MOL0     H99068   5.709   3.071  -0.454  0.4002 -0.4120  1.0030
  734MOL0     H99069   5.550   3.139  -0.435 -0.0099 -0.5471  2.6830
  734MOL0     H99070   5.552   2.996  -0.645  1.5897 -0.2299  0.6505
  734MOL0     H99071   5.483   2.885  -0.530  1.2805 -1.5687 -3.0798
  734MOL0     H99072   5.669   2.790   0.527  3.4054 -0.1219 -1.8728
  734MOL0     H99073   5.762   2.574   0.599  0.1314 -2.4410  0.5320
  734MOL0     H99074   5.876   2.261   0.658 -1.2051 -0.0088  1.0263
  734MOL0     H99075   6.002   2.071   0.784 -1.3479  0.8857  0.9617
  734MOL0     H99076   6.412   0.547   2.008 -1.8574 -2.0972  1.1974
  734MOL0     H99077   6.601   0.436   2.106  2.1049  2.0347 -0.7141
  734MOL0     H99078   6.944   0.634   2.495 -0.9602 -0.5728 -0.7729
  734MOL0     H99079   7.152   0.630   2.587  2.3339  0.1513 -0.3912
  734MOL0     H99080   7.388   0.643   2.569 -0.5847 -1.6118 -1.9621
  734MOL0     H99081   7.335   0.566   2.713 -1.1079  2.5959 -1.0963
  734MOL0     H99082   7.587   0.498   2.550 -1.7143 -1.9885 -1.5665
  734MOL0     H99083   7.526   0.398   2.690 -0.6841  0.6241  1.0474
  734MOL0     H99084   7.558   0.567   2.840 -2.0514 -1.1221 -1.7602
  734MOL0     H99085   7.575   0.696   2.714 -0.6295 -0.0520 -3.4157
  734MOL0     H99086   7.785   0.615   2.639 -1.4298 -0.3625  0.7439
  734MOL0     H99087   7.794   0.495   2.759 -0.3753 -0.5869  1.8064
  734MOL0     H99088   7.881   0.814   3.025 -0.3771  1.1133 -0.3518
  734MOL0     H99089   7.238   0.266   2.384 -0.9570  0.1386 -1.8502
  734MOL0     H99090   7.012   0.259   2.286 -4.1473  2.2856 -0.6006
  735MOL0     O99091   9.731  11.302   9.744  0.0602 -0.1816  0.3268
  735MOL0     C99092   9.795  11.384   9.672 -0.8704  0.4751 -0.6470
  735MOL0     O99093   9.849  11.342   9.551 -0.4277 -0.0757  0.6070
  735MOL0     C99094   9.845  11.213   9.506  0.1381 -2.1805 -0.2068
  735MOL0     C99095   9.730  11.139   9.490  0.4010  0.1159 -0.2732
  735MOL0     C99096   9.732  11.005   9.445 -0.5869  1.1081  0.2595
  735MOL0     C99097   9.861  10.953   9.406  0.8196 -0.0553 -0.2989
  735MOL0     O99098   9.854  10.823   9.363  0.1722 -0.8656 -0.5066
  735MOL0     C99099   9.956  10.732   9.407  0.1454  0.2306  0.5878
  735MOL0     C99100   9.928  10.596   9.346  0.4812  0.7555 -0.3718
  735MOL0     C99101   9.993  10.468   9.397  0.7633 -0.9189  0.7771
  735MOL0     C99102  10.144  10.505   9.434  0.2418  0.1917 -0.7990
  735MOL0     C99103  10.221  10.382   9.480 -0.5084  0.6894  1.1076
  735MOL0     C99104  10.172  10.317   9.615 -1.2755  0.4198 -0.0033
  735MOL0     C99105  10.271  10.219   9.666 -0.1643  0.0034  0.0723
  735MOL0     C99106  10.219  10.151   9.790  0.0264  0.1653 -0.9377
  735MOL0     N99107  10.244  10.240   9.909 -0.0393  0.5321 -0.4854
  735MOL0     C99108  10.173  10.351   9.950 -0.1468  0.0186  0.0769
  735MOL0     C99109  10.243  10.403  10.051  0.2308  0.1138  0.3817
  735MOL0     C99110  10.205  10.530  10.127 -0.2497  0.7158 -0.5375
  735MOL0     C99111  10.129  10.493  10.250  0.4372  0.2731  0.5302
  735MOL0     C99112  10.211  10.405  10.351  0.1075  0.7517  0.2641
  735MOL0     C99113  10.125  10.344  10.464 -0.2946 -0.8267  0.2586
  735MOL0     O99114  10.045  10.446  10.531  0.7482  0.1715 -0.1454
  735MOL0     C99115   9.927  10.401  10.588  0.3617 -0.6800 -0.7203
  735MOL0     C99116   9.914  10.283  10.665 -0.4591  0.3207 -0.6877
  735MOL0     C99117   9.802  10.260  10.753 -0.2060 -0.0309  0.0839
  735MOL0     C99118   9.814  10.145  10.853  0.3977 -0.0406 -0.8300
  735MOL0     C99119   9.697  10.359  10.760 -0.5737  0.7354 -0.6736
  735MOL0     C99120   9.573  10.340  10.843 -0.0834 -1.1022 -0.3311
  735MOL0     O99121   9.526  10.212  10.836 -0.0716  0.7679  0.6289
  735MOL0     C99122   9.436  10.162  10.927  0.1188  0.4768  0.2877
  735MOL0     C99123   9.302  10.208  10.942  0.4664  1.0174  0.1709
  735MOL0     C99124   9.221  10.147  11.033 -0.0285  1.3045  0.6832
  735MOL0     C99125   9.269  10.034  11.106  1.2349  0.7522  0.4369
  735MOL0     O99126   9.184   9.968  11.195 -1.1285  0.4496  0.4001
  735MOL0     C99127   9.043   9.958  11.174 -0.2010  0.0584  0.2542
  735MOL0     C99128   9.006   9.805  11.153 -0.5295 -0.5072  0.3933
  735MOL0     C99129   9.088   9.698  11.237 -0.0647 -0.2025  1.0129
  735MOL0     C99130   9.052   9.554  11.193 -0.0684 -0.1579  0.6179
  735MOL0     C99131   9.142   9.497  11.072 -0.9162 -0.2183 -0.0940
  735MOL0     C99132   9.136   9.578  10.942  0.1819  0.7088 -0.3142
  735MOL0     C99133   9.176   9.485  10.826 -0.0892 -0.5620 -0.0720
  735MOL0     C99134   9.309   9.407  10.833  0.7312  0.5705  0.3063
  735MOL0    Cl99135   9.444   9.502  10.882 -0.1733  0.4046 -0.2077
  735MOL0     C99136   9.399   9.994  11.099  0.4427 -1.2976 -0.1913
  735MOL0     C99137   9.483  10.058  11.011  0.4507  0.2707 -0.5632
  735MOL0     O99138   9.549  10.424  10.927  0.1432 -0.5380 -0.2352
  735MOL0     C99139   9.707  10.463  10.676 -1.5109 -0.0271  0.1227
  735MOL0     C99140   9.822  10.490  10.597 -0.2862 -0.1405 -0.3910
  735MOL0     N99141  10.353  10.324  10.063  0.6462 -0.5238 -0.4647
  735MOL0     N99142  10.354  10.225   9.983  0.0965  0.2655 -0.5956
  735MOL0     C99143   9.976  11.029   9.432 -0.4312 -0.9311 -0.0851
  735MOL0     C99144   9.966  11.164   9.478 -0.0692  0.4219 -0.0315
  735MOL0     C99145   9.815  11.525   9.719 -0.8445 -0.1041 -0.0849
  735MOL0     C99146   9.924  11.602   9.665 -0.4653 -0.1490  0.7369
  735MOL0     C99147   9.950  11.730   9.718 -0.0074  0.2815  0.0255
  735MOL0     C99148   9.882  11.774   9.828  0.6424 -0.1347 -0.4948
  735MOL0     O99149   9.901  11.894   9.877 -0.0281 -0.7441  0.6424
  735MOL0     C99150   9.785  11.981   9.849 -0.6538 -0.1941  0.1670
  735MOL0     C99151   9.789  12.018   9.699 -0.3556 -0.8825  0.0120
  735MOL0     C99152   9.913  12.114   9.676  0.0549 -0.1094 -0.2416
  735MOL0     C99153   9.890  12.255   9.745 -0.5620  0.9479  0.0531
  735MOL0     C99154   9.937  12.372   9.669  0.5072 -0.3787 -1.0812
  735MOL0     C99155   9.977  12.468   9.611 -0.4559  0.8034  0.0204
  735MOL0     C99156   9.785  11.697   9.888  0.6864  0.5219 -0.7416
  735MOL0     C99157   9.743  11.581   9.823 -0.3177 -0.3736 -0.8225
  735MOL0     H99158   9.632  11.183   9.505  0.9782  2.4394 -2.7125
  735MOL0     H99159   9.645  10.943   9.424 -1.3256  3.1414 -3.4679
  735MOL0     H99160  10.060  10.755   9.381 -0.4920  1.3446 -1.1384
  735MOL0     H99161   9.937  10.730   9.515  1.1953  0.4620  0.7888
  735MOL0     H99162   9.820  10.579   9.347  0.2844  1.9308  0.7609
  735MOL0     H99163   9.949  10.602   9.238 -2.7767 -5.4868 -1.8107
  735MOL0     H99164   9.948  10.430   9.489 -0.5278  0.1500  0.6093
  735MOL0     H99165   9.993  10.389   9.321  1.9926 -0.0452 -0.1722
  735MOL0     H99166  10.190  10.549   9.345 -0.6561  1.2744 -0.7528
  735MOL0     H99167  10.146  10.581   9.512  2.7826 -0.2556 -0.3484
  735MOL0     H99168  10.203  10.303   9.406  0.2237 -1.4597  3.1133
  735MOL0     H99169  10.325  10.412   9.487 -1.3734  5.1546 -1.3978
  735MOL0     H99170  10.163  10.400   9.685  1.5440  0.6786  0.1912
  735MOL0     H99171  10.080  10.260   9.604 -1.7960  0.2798  3.8955
  735MOL0     H99172  10.294  10.139   9.595  3.4702  0.4965  0.5094
  735MOL0     H99173  10.366  10.262   9.697  0.3691 -1.1997  0.1649
  735MOL0     H99174  10.252  10.048   9.809 -4.1533 -1.8775 -3.2762
  735MOL0     H99175  10.112  10.133   9.779 -0.3963  1.5864  0.4739
  735MOL0     H99176  10.073  10.381   9.918  0.3618  0.6760 -0.9492
  735MOL0     H99177  10.300  10.577  10.152  1.1388 -2.2097  0.0844
  735MOL0     H99178  10.145  10.594  10.062 -1.0357 -0.7864 -1.3727
  735MOL0     H99179  10.037  10.438  10.231  0.9804 -0.4595 -0.0066
  735MOL0     H99180  10.092  10.574  10.313 -1.2617 -0.4139  0.4655
  735MOL0     H99181  10.291  10.462  10.400  0.0298  1.4042 -0.3424
  735MOL0     H99182  10.246  10.315  10.299 -2.3385 -0.4691  0.5708
  735MOL0     H99183  10.184  10.295  10.542 -0.4976 -1.6338 -0.0886
  735MOL0     H99184  10.052  10.270  10.431 -0.9903 -0.3911  0.7809
  735MOL0     H99185   9.996  10.214  10.680  0.5449  1.5225 -0.4256
  735MOL0     H99186   9.767  10.060  10.802 -0.7578  0.3078 -0.3920
  735MOL0     H99187   9.916  10.108  10.866  0.7043  0.5576 -1.4920
  735MOL0     H99188   9.760  10.171  10.945  2.3374  0.1540  0.2981
  735MOL0     H99189   9.257  10.286  10.881 -0.8450  0.9835  1.0491
  735MOL0     H99190   9.116  10.176  11.037 -0.1186  1.3036 -0.9197
  735MOL0     H99191   9.009   9.982  11.275  0.6780  1.0486  0.3283
  735MOL0     H99192   9.002  10.015  11.090 -1.2831 -0.9151  0.1006
  735MOL0     H99193   8.898   9.793  11.164 -0.2565 -1.9762  1.7715
  735MOL0     H99194   9.040   9.786  11.051 -1.6874 -1.4698  0.1698
  735MOL0     H99195   9.058   9.715  11.341  1.5821 -1.6390  1.7805
  735MOL0     H99196   9.194   9.718  11.249 -0.6211  2.6025  2.0327
  735MOL0     H99197   9.052   9.493  11.285 -1.2612  1.4987  1.7773
  735MOL0     H99198   8.948   9.555  11.159  0.0075  0.9294  0.3781
  735MOL0     H99199   9.097   9.399  11.054  0.5099 -1.0044  0.4686
  735MOL0     H99200   9.242   9.476  11.111 -1.4875  0.4900  1.8385
  735MOL0     H99201   9.036   9.621  10.932  1.5164  3.7742 -2.0552
  735MOL0     H99202   9.206   9.662  10.945  2.0520 -0.6105 -2.7825
  735MOL0     H99203   9.200   9.565  10.756  2.0359 -0.3180  0.8571
  735MOL0     H99204   9.095   9.421  10.788 -0.5486  0.8890 -1.6407
  735MOL0     H99205   9.326   9.356  10.737  3.3044  0.7067  0.6225
  735MOL0     H99206   9.305   9.334  10.914  0.9170 -0.5296 -0.6576
  735MOL0     H99207   9.445   9.913  11.154 -0.5362 -1.4432  0.4160
  735MOL0     H99208   9.590  10.042  11.020  0.3193  0.3541  1.6190
  735MOL0     H99209   9.627  10.535  10.667  0.2936  1.8147 -2.8213
  735MOL0     H99210   9.835  10.589  10.553 -1.1611  0.8101  1.3764
  735MOL0     H99211  10.073  10.983   9.412  0.5864  0.1938  1.8958
  735MOL0     H99212  10.055  11.224   9.486  0.1243  0.1748 -0.3132
  735MOL0     H99213   9.988  11.573   9.583 -1.3709 -1.2370  0.4016
  735MOL0     H99214  10.020  11.800   9.676 -1.2796 -0.1412 -3.0322
  735MOL0     H99215   9.685  11.942   9.872  0.0696 -1.6617  0.9710
  735MOL0     H99216   9.793  12.079   9.897 -1.8710  1.7953 -3.3040
  735MOL0     H99217   9.700  12.077   9.679 -1.9243 -2.6495  1.4376
  735MOL0     H99218   9.789  11.931   9.632  0.0318 -1.0136  0.1753
  735MOL0     H99219   9.926  12.137   9.570  1.6310  1.0795  0.1801
  735MOL0     H99220  10.008  12.072   9.709  0.5733  1.2431  0.0529
  735MOL0     H99221   9.920  12.250   9.850  2.3814 -2.2875 -0.7762
  735MOL0     H99222   9.782  12.265   9.761 -0.7076 -0.3141 -0.0159
  735MOL0     H99223  10.020  12.545   9.551 -1.3527  0.0418 -1.6527
  735MOL0     H99224   9.737  11.734   9.978  0.2025 -1.1000 -0.2989
  735MOL0     H99225   9.652  11.531   9.854  0.0165 -0.1438  0.6141
  736MOL0     O99226   3.909   6.942   5.077 -0.3730  0.4546  0.5255
  736MOL0     C99227   3.875   7.046   5.123 -0.3249  0.1059 -0.2055
  736MOL0     O99228   3.817   7.063   5.249 -0.4141 -0.7090  0.1547
  736MOL0     C99229   3.761   6.954   5.312 -0.0948 -0.5580  0.2513
  736MOL0     C99230   3.834   6.898   5.423  0.0598 -0.1638  0.7153
  736MOL0     C99231   3.786   6.780   5.483  0.7439  0.4659  0.3284
  736MOL0     C99232   3.656   6.725   5.445 -0.4165 -0.3258 -0.5004
  736MOL0     O99233   3.617   6.600   5.505  0.3141 -0.5656  0.2777
  736MOL0     C99234   3.557   6.503   5.408 -0.6655 -0.2056 -0.1543
  736MOL0     C99235   3.577   6.363   5.461  0.0746 -0.1298 -0.3590
  736MOL0     C99236   3.500   6.251   5.376 -0.6584 -0.1645 -0.2333
  736MOL0     C99237   3.601   6.140   5.324  0.3801 -0.1304  0.4400
  736MOL0     C99238   3.529   6.029   5.248 -1.0220 -0.7722 -0.1061
  736MOL0     C99239   3.619   5.918   5.205  0.8431  0.3545 -0.2314
  736MOL0     C99240   3.548   5.787   5.158  0.5017 -0.6684 -0.1730
  736MOL0     C99241   3.467   5.718   5.266  0.2530 -0.2041 -0.5025
  736MOL0     N99242   3.417   5.593   5.221 -0.2417 -0.0168  0.4023
  736MOL0     C99243   3.294   5.580   5.164  0.3098  0.5117  1.0350
  736MOL0     C99244   3.271   5.448   5.174 -0.5187  0.5568 -0.2002
  736MOL0     C99245   3.154   5.377   5.124  0.3973  0.3131  0.1006
  736MOL0     C99246   3.020   5.437   5.164 -0.3978  0.0905 -0.2881
  736MOL0     C99247   2.888   5.371   5.128  0.8584  0.5885 -0.1991
  736MOL0     C99248   2.869   5.238   5.202  0.7322 -0.6278 -0.6760
  736MOL0     O99249   2.732   5.189   5.178 -0.2292  0.8503  0.3544
  736MOL0     C99250   2.668   5.102   5.273 -0.8767  0.1926  1.0936
  736MOL0     C99251   2.715   4.974   5.301 -0.4396 -0.9602  0.2094
  736MOL0     C99252   2.649   4.903   5.407 -0.2061  0.8622 -0.0144
  736MOL0     C99253   2.701   4.759   5.437  0.1614  0.6346 -0.4280
  736MOL0     C99254   2.545   4.960   5.477  0.7101 -0.1062  0.3002
  736MOL0     C99255   2.473   4.884   5.592  0.5057 -0.6688 -1.0912
  736MOL0     O99256   2.520   4.764   5.630  0.3791  0.8131  0.4164
  736MOL0     C99257   2.492   4.692   5.739 -0.8216  0.1832 -0.4014
  736MOL0     C99258   2.415   4.735   5.853 -0.1661  0.5562  0.3989
  736MOL0     C99259   2.384   4.646   5.951  0.6529 -0.2957 -0.3509
  736MOL0     C99260   2.434   4.515   5.956 -0.4946  0.3383  0.9548
  736MOL0     O99261   2.402   4.407   6.037  0.5819  0.0770  0.0718
  736MOL0     C99262   2.273   4.424   6.092 -0.2075 -0.2577 -0.1146
  736MOL0     C99263   2.244   4.279   6.147 -0.3182 -0.5430  0.2480
  736MOL0     C99264   2.094   4.284   6.183 -0.6698  0.7747  1.0388
  736MOL0     C99265   2.050   4.177   6.281 -0.2111  0.1944 -0.0019
  736MOL0     C99266   1.900   4.153   6.293 -0.8349 -0.0642 -0.2288
  736MOL0     C99267   1.835   4.273   6.370  0.7332 -0.4989 -0.4536
  736MOL0     C99268   1.678   4.249   6.390  0.1540  0.6660 -0.0521
  736MOL0     C99269   1.601   4.234   6.249 -0.1657  0.1542  0.0987
  736MOL0    Cl99270   1.429   4.223   6.297  0.1185  0.2119  0.1352
  736MOL0     C99271   2.523   4.481   5.843 -0.1207  0.1009 -1.4981
  736MOL0     C99272   2.549   4.563   5.738  0.4186 -0.3158  0.5500
  736MOL0     O99273   2.369   4.937   5.638  0.1237 -0.2777 -1.0712
  736MOL0     C99274   2.508   5.089   5.441  0.1661  0.4955  0.5066
  736MOL0     C99275   2.563   5.156   5.340  0.4092 -0.4485  0.0219
  736MOL0     N99276   3.376   5.389   5.236  1.1692 -0.2838 -0.3572
  736MOL0     N99277   3.460   5.473   5.263 -0.5092 -0.9675  0.2321
  736MOL0     C99278   3.590   6.785   5.341 -0.5219 -0.0828 -0.4561
  736MOL0     C99279   3.640   6.900   5.276  0.1816 -0.2364  0.2818
  736MOL0     C99280   3.886   7.162   5.037  0.2948 -0.1056  0.0517
  736MOL0     C99281   3.840   7.292   5.088 -0.7974  0.2407 -0.0770
  736MOL0     C99282   3.823   7.398   4.999 -0.5807  0.2880 -1.0460
  736MOL0     C99283   3.842   7.386   4.867 -0.1702 -0.6818  0.7863
  736MOL0     O99284   3.839   7.496   4.780  0.1368  0.2587  0.0254
  736MOL0     C99285   3.738   7.582   4.786  0.4659 -0.3967  0.4231
  736MOL0     C99286   3.597   7.539   4.773  1.2153 -0.0440 -0.1473
  736MOL0     C99287   3.508   7.667   4.785 -0.3274 -0.2130  1.0061
  736MOL0     C99288   3.518   7.766   4.673  0.2018  1.1874  0.1966
  736MOL0     C99289   3.406   7.860   4.667 -0.1286  0.4425  0.4314
  736MOL0     C99290   3.316   7.937   4.656  0.3404  0.6397  1.4122
  736MOL0     C99291   3.900   7.265   4.820  0.2889 -1.1760 -0.3925
  736MOL0     C99292   3.910   7.146   4.896 -0.5406 -0.0396  0.2981
  736MOL0     H99293   3.916   6.953   5.466  1.4434 -1.5367 -0.0644
  736MOL0     H99294   3.845   6.753   5.570 -0.1610 -1.4860  0.3782
  736MOL0     H99295   3.452   6.528   5.390  0.8389  4.3659 -4.5984
  736MOL0     H99296   3.588   6.515   5.304 -1.6490 -2.3113 -0.7503
  736MOL0     H99297   3.684   6.344   5.448  0.5023 -0.2543  2.7746
  736MOL0     H99298   3.543   6.363   5.565 -4.0474 -0.7192 -1.5258
  736MOL0     H99299   3.424   6.206   5.440 -1.9298  2.1112 -0.0256
  736MOL0     H99300   3.467   6.301   5.284  1.0492 -0.9881 -1.3514
  736MOL0     H99301   3.678   6.182   5.259 -0.3658  1.6904  0.6761
  736MOL0     H99302   3.653   6.095   5.409 -0.7361  1.0998  1.8460
  736MOL0     H99303   3.437   5.991   5.295 -0.6080  0.5292  1.9150
  736MOL0     H99304   3.494   6.078   5.157 -1.7653 -1.9476 -0.4819
  736MOL0     H99305   3.691   5.941   5.126  1.7530 -1.6896 -0.0548
  736MOL0     H99306   3.673   5.887   5.295 -0.8593 -2.7433 -0.1300
  736MOL0     H99307   3.496   5.808   5.064  0.8666  0.4897 -0.1364
  736MOL0     H99308   3.633   5.722   5.137  0.2643 -0.3793 -2.1570
  736MOL0     H99309   3.386   5.779   5.307  0.9068  0.3985 -0.0847
  736MOL0     H99310   3.523   5.704   5.359  0.7739  1.5341 -0.5041
  736MOL0     H99311   3.232   5.658   5.121  0.1916 -0.9300 -1.6194
  736MOL0     H99312   3.166   5.384   5.015 -2.7463  0.9194 -0.3066
  736MOL0     H99313   3.153   5.271   5.149 -4.3027  0.4905  1.4883
  736MOL0     H99314   3.025   5.543   5.136 -2.7433  0.1723 -0.6053
  736MOL0     H99315   3.027   5.444   5.273  0.0033  0.2219 -0.3203
  736MOL0     H99316   2.875   5.354   5.020 -2.3441 -2.0562  0.4277
  736MOL0     H99317   2.810   5.440   5.161  0.4929  0.2796 -0.4041
  736MOL0     H99318   2.877   5.254   5.310  0.5438  2.6857 -1.0597
  736MOL0     H99319   2.945   5.171   5.159  2.5894  1.5208 -0.9425
  736MOL0     H99320   2.801   4.935   5.250  0.2329 -1.0782  1.3985
  736MOL0     H99321   2.716   4.743   5.544  1.4393  1.4754 -0.4517
  736MOL0     H99322   2.634   4.678   5.406 -0.2784  0.3102  1.2664
  736MOL0     H99323   2.807   4.753   5.409  0.8636 -0.1786  2.1223
  736MOL0     H99324   2.360   4.828   5.850 -3.3519 -1.2182 -1.2261
  736MOL0     H99325   2.303   4.678   6.016  0.3276  2.1937 -1.8470
  736MOL0     H99326   2.286   4.490   6.179 -3.8640  0.4304  0.0885
  736MOL0     H99327   2.194   4.463   6.027  1.9302 -1.8072 -3.9876
  736MOL0     H99328   2.266   4.199   6.076  3.3229  1.4503 -1.1300
  736MOL0     H99329   2.307   4.274   6.237  0.0754 -0.4813 -0.0234
  736MOL0     H99330   2.042   4.270   6.087  2.5348 -0.9366 -0.6049
  736MOL0     H99331   2.057   4.378   6.223 -0.8025  0.7022  1.0884
  736MOL0     H99332   2.117   4.091   6.268  0.2787  0.2597  1.7739
  736MOL0     H99333   2.082   4.216   6.378  0.6242 -1.8277  0.5913
  736MOL0     H99334   1.881   4.053   6.333  0.6364 -0.2563  0.0706
  736MOL0     H99335   1.857   4.152   6.193 -1.8825  1.7969  0.1574
  736MOL0     H99336   1.877   4.281   6.471  1.5352  2.3078 -0.9308
  736MOL0     H99337   1.844   4.371   6.323 -0.4945  0.0776  0.4707
  736MOL0     H99338   1.630   4.329   6.447 -4.3894 -0.4067 -1.9197
  736MOL0     H99339   1.658   4.167   6.458 -3.0800  1.8008  0.5460
  736MOL0     H99340   1.638   4.144   6.199  0.3711 -0.2097  1.1107
  736MOL0     H99341   1.620   4.321   6.186  1.9065 -0.3041  0.0102
  736MOL0     H99342   2.568   4.383   5.836  1.9796  1.0001 -1.1942
  736MOL0     H99343   2.595   4.533   5.644  1.8545 -0.2377  1.2174
  736MOL0     H99344   2.429   5.135   5.500 -0.2919 -0.5122  0.7098
  736MOL0     H99345   2.532   5.258   5.319  2.9379  0.8931  2.2128
  736MOL0     H99346   3.495   6.744   5.307  1.3015 -2.9344 -2.6118
  736MOL0     H99347   3.599   6.930   5.180 -0.4752 -1.4451  0.1673
  736MOL0     H99348   3.817   7.300   5.194  3.2155  0.7301  0.9221
  736MOL0     H99349   3.798   7.500   5.029  2.4185  0.5584  0.9173
  736MOL0     H99350   3.753   7.641   4.876  0.2635  1.6181 -0.8051
  736MOL0     H99351   3.760   7.646   4.700 -3.7500  1.1377  0.2711
  736MOL0     H99352   3.550   7.477   4.850 -2.8015  2.5732 -0.2078
  736MOL0     H99353   3.592   7.497   4.672 -0.3809 -2.6412  0.9089
  736MOL0     H99354   3.539   7.714   4.878  0.5288 -2.7382  2.0846
  736MOL0     H99355   3.404   7.633   4.795 -0.1480 -1.1635 -0.0423
  736MOL0     H99356   3.533   7.718   4.575  0.6384 -1.3180  1.4007
  736MOL0     H99357   3.610   7.820   4.697  0.0372  0.1194  3.7410
  736MOL0     H99358   3.232   8.002   4.639 -1.1665 -1.6095 -0.3704
  736MOL0     H99359   3.913   7.259   4.712 -0.7229 -1.0520 -0.5250
  736MOL0     H99360   3.951   7.061   4.843  0.6624  0.0678  1.0112
  737MOL0     O99361   9.543   4.376   7.913  0.4196 -0.2637 -0.2206
  737MOL0     C99362   9.647   4.331   7.868 -0.1740 -0.1156  0.2692
  737MOL0     O99363   9.672   4.214   7.810  0.2188 -0.2186 -0.5363
  737MOL0     C99364   9.584   4.116   7.842  0.7267  0.3706 -0.7385
  737MOL0     C99365   9.464   4.084   7.777  0.7627 -0.7317 -0.4882
  737MOL0     C99366   9.396   3.968   7.814 -0.5946 -0.7281 -0.1552
  737MOL0     C99367   9.424   3.894   7.928  0.1198  0.6240  0.0658
  737MOL0     O99368   9.347   3.794   7.958  0.6940 -0.2477 -0.2959
  737MOL0     C99369   9.331   3.774   8.101  0.3738 -0.0234  0.3516
  737MOL0     C99370   9.215   3.684   8.129  0.1406  0.2192  0.6162
  737MOL0     C99371   9.156   3.674   8.272  0.4709 -0.2556 -0.0008
  737MOL0     C99372   9.254   3.626   8.372 -0.7501  0.1911 -0.4280
  737MOL0     C99373   9.205   3.627   8.518  0.1397 -0.5980 -0.2737
  737MOL0     C99374   9.301   3.549   8.604 -0.6548 -0.2022 -0.0015
  737MOL0     C99375   9.257   3.518   8.747 -0.1861 -0.0964 -0.4420
  737MOL0     C99376   9.333   3.603   8.847  0.3352 -0.3077 -0.6200
  737MOL0     N99377   9.324   3.748   8.840  1.2737 -1.4103  0.0366
  737MOL0     C99378   9.422   3.830   8.783 -0.2666 -0.9280  0.3552
  737MOL0     C99379   9.352   3.950   8.764 -0.4318 -0.0801 -0.1365
  737MOL0     C99380   9.388   4.084   8.688  0.5024  0.4053 -0.4378
  737MOL0     C99381   9.388   4.067   8.533 -0.1594  0.2679  0.9311
  737MOL0     C99382   9.384   4.205   8.455 -0.2279 -0.7535  0.0448
  737MOL0     C99383   9.347   4.183   8.306 -0.8656 -0.7924 -0.8554
  737MOL0     O99384   9.213   4.140   8.294 -0.0535 -0.0969 -0.5792
  737MOL0     C99385   9.145   4.149   8.178 -0.0133 -0.1093  0.2191
  737MOL0     C99386   9.010   4.134   8.190  0.2118 -0.2084  0.3602
  737MOL0     C99387   8.922   4.153   8.082  0.1458 -0.0599 -0.2568
  737MOL0     C99388   8.784   4.117   8.108  0.5734 -1.3562 -0.0028
  737MOL0     C99389   8.973   4.185   7.951 -0.1444  0.8887  0.2703
  737MOL0     C99390   8.900   4.185   7.818 -0.2867 -0.5773 -0.5506
  737MOL0     O99391   8.782   4.115   7.812  0.0002 -0.0942  0.5674
  737MOL0     C99392   8.722   4.091   7.694 -0.1913 -0.2259 -0.6373
  737MOL0     C99393   8.617   4.176   7.644  0.6052  0.9027  0.5402
  737MOL0     C99394   8.555   4.143   7.531 -0.0349 -1.0453  0.4911
  737MOL0     C99395   8.587   4.034   7.448 -0.6900  0.1263  0.4618
  737MOL0     O99396   8.520   3.999   7.332 -0.5382  0.8270 -1.1718
  737MOL0     C99397   8.378   4.005   7.341 -0.0503 -0.5154  0.6129
  737MOL0     C99398   8.319   3.978   7.202 -0.3603 -0.8741 -0.4064
  737MOL0     C99399   8.334   4.113   7.132 -0.1356  1.1083 -0.7526
  737MOL0     C99400   8.255   4.126   7.005 -0.2701 -0.1991 -0.1796
  737MOL0     C99401   8.255   4.267   6.959 -0.3468  0.3235 -0.9515
  737MOL0     C99402   8.233   4.278   6.804 -0.2569  0.0357  0.9669
  737MOL0     C99403   8.354   4.231   6.714 -0.6021 -0.0364  0.3347
  737MOL0     C99404   8.487   4.312   6.767  0.5465  0.9489  0.2650
  737MOL0    Cl99405   8.465   4.488   6.786  0.5841 -0.4723  0.0269
  737MOL0     C99406   8.689   3.952   7.502  0.1203 -0.6703  0.8383
  737MOL0     C99407   8.751   3.977   7.621 -0.2540 -0.6615 -0.2636
  737MOL0     O99408   8.956   4.235   7.725 -1.0235 -0.0961 -0.4441
  737MOL0     C99409   9.117   4.190   7.940  0.0274  0.0124 -0.6172
  737MOL0     C99410   9.200   4.170   8.051 -0.9270 -0.0399 -0.4587
  737MOL0     N99411   9.220   3.948   8.815 -0.2573  0.4289  0.1854
  737MOL0     N99412   9.209   3.829   8.858 -0.7510  0.6666 -0.7038
  737MOL0     C99413   9.539   3.932   7.999  0.3879  0.5762  0.8990
  737MOL0     C99414   9.615   4.026   7.951  0.5360  0.0641  0.4801
  737MOL0     C99415   9.768   4.407   7.893 -0.4942  0.4766  0.5109
  737MOL0     C99416   9.754   4.539   7.930 -0.7292  0.1196  0.1571
  737MOL0     C99417   9.865   4.614   7.970 -0.4841  0.3487 -0.5664
  737MOL0     C99418   9.998   4.561   7.965  0.2774  0.1334 -0.4259
  737MOL0     O99419  10.115   4.627   8.000  0.3296 -0.0609 -0.3095
  737MOL0     C99420  10.114   4.767   8.001  0.1938 -0.5410 -0.2237
  737MOL0     C99421  10.106   4.836   7.867  0.1833 -0.0736  1.3320
  737MOL0     C99422  10.203   4.778   7.774 -0.0380  0.4534 -0.9077
  737MOL0     C99423  10.219   4.862   7.647 -0.7057 -0.0181 -0.9853
  737MOL0     C99424  10.294   4.796   7.542 -0.9107 -0.0237  0.5204
  737MOL0     C99425  10.377   4.752   7.463  0.0619  0.5329 -0.2831
  737MOL0     C99426  10.009   4.425   7.932  0.4501 -0.7289 -0.3924
  737MOL0     C99427   9.896   4.347   7.889 -0.0403 -0.0673 -0.0760
  737MOL0     H99428   9.423   4.150   7.702 -2.8808  0.8398  2.5838
  737MOL0     H99429   9.312   3.939   7.751 -0.1621  2.8994 -2.6968
  737MOL0     H99430   9.421   3.735   8.150  1.2852  1.6561  0.0837
  737MOL0     H99431   9.318   3.872   8.148 -0.4838  0.4381 -0.8170
  737MOL0     H99432   9.133   3.723   8.067  0.9062  0.4464 -0.2705
  737MOL0     H99433   9.242   3.582   8.102  1.1530  0.8760 -1.0297
  737MOL0     H99434   9.111   3.768   8.305 -1.3384 -0.0633 -2.7420
  737MOL0     H99435   9.072   3.605   8.261 -1.4157  1.5049  2.1540
  737MOL0     H99436   9.271   3.522   8.344  1.8802  0.3200  0.4074
  737MOL0     H99437   9.349   3.678   8.359 -0.0792 -1.2578 -1.4716
  737MOL0     H99438   9.204   3.728   8.561 -2.0563 -0.9513  0.5932
  737MOL0     H99439   9.111   3.572   8.512  0.9913 -2.2076  0.4998
  737MOL0     H99440   9.320   3.449   8.563  0.6561 -1.2553  2.9522
  737MOL0     H99441   9.396   3.604   8.600  0.5484 -2.2195 -0.3688
  737MOL0     H99442   9.150   3.519   8.768  0.1060 -1.4986  1.3803
  737MOL0     H99443   9.285   3.413   8.764 -0.4504 -0.1494 -0.3283
  737MOL0     H99444   9.435   3.571   8.825  0.9731  0.1048  1.4649
  737MOL0     H99445   9.302   3.571   8.948 -0.9025  0.9892 -0.5512
  737MOL0     H99446   9.521   3.807   8.747 -0.5906 -0.1536 -1.1010
  737MOL0     H99447   9.326   4.166   8.725  2.6645  1.6397  0.6700
  737MOL0     H99448   9.490   4.109   8.719  0.6785 -1.3495  0.5053
  737MOL0     H99449   9.297   4.009   8.511  0.3515 -0.5066  0.8323
  737MOL0     H99450   9.473   4.001   8.513 -2.4246 -2.1715 -1.4291
  737MOL0     H99451   9.484   4.249   8.464 -1.4329  2.5553 -1.1179
  737MOL0     H99452   9.309   4.268   8.504  0.1344 -1.4100  1.5145
  737MOL0     H99453   9.422   4.113   8.269 -0.8279 -0.6991 -0.9573
  737MOL0     H99454   9.367   4.280   8.261  0.5909 -0.3161  0.7196
  737MOL0     H99455   8.979   4.114   8.292 -0.6067  3.4370  0.9888
  737MOL0     H99456   8.772   4.084   8.211  0.2096 -2.2350 -0.3130
  737MOL0     H99457   8.710   4.195   8.089 -0.3618 -2.7638 -2.7729
  737MOL0     H99458   8.748   4.030   8.052  1.8977 -0.4349 -2.4449
  737MOL0     H99459   8.578   4.248   7.716 -1.5957  0.7530 -0.4271
  737MOL0     H99460   8.480   4.219   7.509  2.2585  0.8367 -1.3498
  737MOL0     H99461   8.360   3.924   7.412 -0.6307  0.7896  2.0085
  737MOL0     H99462   8.326   4.091   7.384 -1.4722 -2.3515  2.7737
  737MOL0     H99463   8.372   3.899   7.148  0.4068  1.1214 -2.7795
  737MOL0     H99464   8.212   3.964   7.220 -0.3157 -2.2897 -1.1017
  737MOL0     H99465   8.439   4.139   7.118  1.0731 -1.1827  2.8048
  737MOL0     H99466   8.288   4.183   7.202 -0.1200 -1.8234  2.4391
  737MOL0     H99467   8.304   4.069   6.926 -0.2905 -0.9650  0.3451
  737MOL0     H99468   8.152   4.093   7.022 -0.3687  0.7465  1.2718
  737MOL0     H99469   8.346   4.324   6.981 -0.7386  0.4577  0.3938
  737MOL0     H99470   8.178   4.321   7.014  1.2430  0.5699  1.1365
  737MOL0     H99471   8.139   4.223   6.795 -0.1235 -0.3276  1.7189
  737MOL0     H99472   8.218   4.386   6.792  1.5659  0.3849  1.4211
  737MOL0     H99473   8.344   4.248   6.606  2.4741 -0.0455 -0.0440
  737MOL0     H99474   8.379   4.126   6.730 -0.8874 -0.0550  0.6773
  737MOL0     H99475   8.558   4.291   6.687  0.7674 -0.5457  0.8110
  737MOL0     H99476   8.524   4.279   6.865  2.0952  1.7226 -0.0237
  737MOL0     H99477   8.712   3.851   7.468 -1.4242 -0.6539 -0.3902
  737MOL0     H99478   8.819   3.897   7.646  2.1967  0.5645 -2.5576
  737MOL0     H99479   9.171   4.214   7.849 -2.2371  3.3371 -1.2847
  737MOL0     H99480   9.307   4.184   8.040 -0.2997 -2.3015  1.7027
  737MOL0     H99481   9.565   3.888   8.095 -1.7382 -0.5921  1.0080
  737MOL0     H99482   9.709   4.035   8.006  0.5179  1.2107  0.3415
  737MOL0     H99483   9.656   4.586   7.930 -1.2756 -0.7402 -3.2777
  737MOL0     H99484   9.845   4.715   8.002  0.5219  0.5823 -0.6428
  737MOL0     H99485  10.035   4.797   8.070  1.2511  0.8545  0.4162
  737MOL0     H99486  10.208   4.806   8.041  0.1434 -0.5729 -0.0729
  737MOL0     H99487  10.134   4.942   7.870  1.7947 -0.4856  1.4450
  737MOL0     H99488  10.010   4.808   7.822 -0.8633  0.1076  3.3394
  737MOL0     H99489  10.163   4.679   7.750 -0.2449 -0.0238  1.2407
  737MOL0     H99490  10.304   4.766   7.816 -1.1090 -2.5830  1.1469
  737MOL0     H99491  10.276   4.952   7.674 -0.3186 -0.3003 -0.8635
  737MOL0     H99492  10.118   4.892   7.615 -1.1110 -0.0823  0.1962
  737MOL0     H99493  10.439   4.698   7.395  0.4191  0.1867  0.3060
  737MOL0     H99494  10.104   4.378   7.906  0.7928  1.2570 -3.2185
  737MOL0     H99495   9.912   4.240   7.884  0.3412 -0.0106 -0.0577
  738MOL0     O99496   4.387   7.733   0.401 -0.2268  0.4600 -0.3130
  738MOL0     C99497   4.442   7.633   0.354  0.8161 -0.7082 -0.0362
  738MOL0     O99498   4.540   7.642   0.262 -0.1589 -0.5420 -0.4093
  738MOL0     C99499   4.580   7.765   0.204 -0.5533 -0.2416 -0.3191
  738MOL0     C99500   4.670   7.853   0.259 -0.2079  1.0082  1.3518
  738MOL0     C99501   4.693   7.984   0.199 -0.1997  0.2544  0.5005
  738MOL0     C99502   4.618   8.024   0.085  0.1491  0.5064 -0.0843
  738MOL0     O99503   4.634   8.150   0.028 -0.2063  0.5626 -0.0787
  738MOL0     C99504   4.759   8.212   0.027 -0.8821  0.0004  0.0703
  738MOL0     C99505   4.750   8.311  -0.085 -0.0887 -0.7570 -0.6326
  738MOL0     C99506   4.873   8.337  -0.171 -0.1368 -0.4142 -1.2387
  738MOL0     C99507   4.974   8.437  -0.101  0.1520  0.7124  0.2693
  738MOL0     C99508   5.072   8.491  -0.203 -0.5646 -0.1198  0.2822
  738MOL0     C99509   5.151   8.608  -0.140 -0.7547  0.4178  0.1296
  738MOL0     C99510   5.220   8.661  -0.265 -0.4141 -0.7530  0.0367
  738MOL0     C99511   5.322   8.779  -0.251  0.5090 -0.3229 -0.0595
  738MOL0     N99512   5.378   8.810  -0.383 -0.5869  0.1614 -0.2363
  738MOL0     C99513   5.446   8.733  -0.476 -0.7539 -0.2616  0.2188
  738MOL0     C99514   5.460   8.818  -0.583  0.8135  0.6474  2.4529
  738MOL0     C99515   5.523   8.781  -0.718 -0.6000 -0.5186  0.1095
  738MOL0     C99516   5.675   8.768  -0.696 -0.4676  0.4385 -0.4642
  738MOL0     C99517   5.752   8.752  -0.829 -0.3389  0.5277  0.2644
  738MOL0     C99518   5.899   8.717  -0.834 -0.6513 -0.7300 -0.0872
  738MOL0     O99519   5.965   8.722  -0.958  0.0215  0.4626 -0.0326
  738MOL0     C99520   6.037   8.829  -1.014  0.7699 -0.0552 -0.0299
  738MOL0     C99521   5.996   8.958  -0.980 -0.2842 -0.0101  0.4109
  738MOL0     C99522   6.066   9.068  -1.036 -0.2147 -0.4791 -0.2946
  738MOL0     C99523   6.030   9.209  -0.989 -1.2193  0.4184  0.0447
  738MOL0     C99524   6.189   9.044  -1.116  0.8258  0.8091 -0.2074
  738MOL0     C99525   6.251   9.154  -1.190 -0.0325  0.0115 -0.0464
  738MOL0     O99526   6.285   9.117  -1.307 -0.6011  0.1980 -0.1532
  738MOL0     C99527   6.359   9.190  -1.394 -0.7143  0.5429  0.0441
  738MOL0     C99528   6.456   9.291  -1.361  0.1448 -0.4309  0.4284
  738MOL0     C99529   6.543   9.349  -1.458  0.0830 -0.2859 -0.6586
  738MOL0     C99530   6.525   9.316  -1.598 -0.2018 -0.3507 -1.1369
  738MOL0     O99531   6.606   9.369  -1.698  0.1091  0.0288  0.3576
  738MOL0     C99532   6.548   9.389  -1.832 -0.6006  0.0946 -0.5588
  738MOL0     C99533   6.584   9.515  -1.893 -0.8694 -0.4678  0.8020
  738MOL0     C99534   6.738   9.521  -1.907 -0.1009  0.5372  0.7752
  738MOL0     C99535   6.779   9.625  -2.012 -0.7129  0.5079 -0.0337
  738MOL0     C99536   6.936   9.642  -2.001 -0.5789 -0.2873  0.8763
  738MOL0     C99537   6.980   9.727  -2.103 -0.4929  0.1793  0.2860
  738MOL0     C99538   7.132   9.753  -2.099 -0.3918 -0.4117  0.9737
  738MOL0     C99539   7.192   9.806  -2.232  0.0775  0.3052 -0.2947
  738MOL0    Cl99540   7.142   9.979  -2.268  0.3884  0.4178 -0.1068
  738MOL0     C99541   6.426   9.222  -1.627  0.6618  0.2570  0.2354
  738MOL0     C99542   6.343   9.154  -1.531 -0.1993 -0.2833 -0.3033
  738MOL0     O99543   6.259   9.269  -1.142  1.1205 -0.0843  0.6139
  738MOL0     C99544   6.220   8.909  -1.148  0.4510 -0.7272 -0.5569
  738MOL0     C99545   6.148   8.800  -1.099 -0.5917 -0.2288 -0.4906
  738MOL0     N99546   5.386   8.935  -0.563  0.9502 -0.4477 -0.1232
  738MOL0     N99547   5.350   8.934  -0.434 -0.1532 -0.6350  0.3236
  738MOL0     C99548   4.528   7.928   0.027  0.3768  0.3339 -0.0655
  738MOL0     C99549   4.516   7.803   0.085  0.4977 -0.4226 -0.3281
  738MOL0     C99550   4.406   7.505   0.410 -0.0155  0.8320  0.0584
  738MOL0     C99551   4.317   7.489   0.517  0.6416 -0.0703  0.3241
  738MOL0     C99552   4.288   7.357   0.572 -0.2463  0.3879  0.2151
  738MOL0     C99553   4.331   7.238   0.505  0.4877  0.0761 -0.6376
  738MOL0     O99554   4.294   7.114   0.547 -0.2429 -0.5770  0.0913
  738MOL0     C99555   4.263   7.093   0.688  0.0013 -0.9788  0.4427
  738MOL0     C99556   4.287   6.952   0.722 -0.1377  0.9583 -0.2501
  738MOL0     C99557   4.440   6.922   0.712 -0.2534  0.2911  0.0937
  738MOL0     C99558   4.460   6.772   0.676  0.1185 -0.4007 -0.9951
  738MOL0     C99559   4.603   6.766   0.636 -0.0395  0.1596 -0.1991
  738MOL0     C99560   4.723   6.774   0.619 -0.0255 -0.7277  0.6865
  738MOL0     C99561   4.413   7.256   0.392 -0.2086  0.7905 -0.1255
  738MOL0     C99562   4.458   7.385   0.353  0.5549  0.0821 -0.9750
  738MOL0     H99563   4.728   7.817   0.343 -0.1892  2.9459  2.2287
  738MOL0     H99564   4.770   8.052   0.234 -0.5214  2.0775 -2.0759
  738MOL0     H99565   4.800   8.258   0.117  1.3678 -2.4032  0.4023
  738MOL0     H99566   4.827   8.134  -0.008  0.0544 -1.0387  3.7820
  738MOL0     H99567   4.678   8.273  -0.158 -0.9401  0.2705 -0.3636
  738MOL0     H99568   4.726   8.410  -0.044  4.2584 -0.1878  1.0973
  738MOL0     H99569   4.925   8.244  -0.196  1.5674 -0.1426  1.0078
  738MOL0     H99570   4.846   8.367  -0.273  2.5524 -0.6003 -2.0938
  738MOL0     H99571   4.926   8.525  -0.059  0.2526  1.7126 -1.5978
  738MOL0     H99572   5.024   8.389  -0.017  0.0631  0.1259 -0.0066
  738MOL0     H99573   5.142   8.409  -0.220 -3.5691 -2.6436 -0.9001
  738MOL0     H99574   5.022   8.509  -0.298  0.4628  1.8094  0.0534
  738MOL0     H99575   5.103   8.700  -0.104 -0.8677  0.7945 -0.9465
  738MOL0     H99576   5.233   8.577  -0.074  1.8232  3.2012 -1.5131
  738MOL0     H99577   5.285   8.581  -0.301  1.8549  1.0729 -0.1752
  738MOL0     H99578   5.147   8.691  -0.340 -3.2216 -0.5351  2.6576
  738MOL0     H99579   5.405   8.766  -0.181 -0.4745 -2.5071  0.7670
  738MOL0     H99580   5.267   8.868  -0.219 -0.8178 -0.8241 -0.8707
  738MOL0     H99581   5.489   8.634  -0.476  1.3693  0.5970  1.6886
  738MOL0     H99582   5.471   8.699  -0.768 -2.8395 -0.1251  1.6512
  738MOL0     H99583   5.520   8.870  -0.781  2.1151  0.6373  1.4269
  738MOL0     H99584   5.707   8.683  -0.635 -0.4639 -0.3269 -1.4975
  738MOL0     H99585   5.703   8.861  -0.645  1.3571 -1.9136  3.2926
  738MOL0     H99586   5.735   8.845  -0.884  1.4992  1.2388  0.8368
  738MOL0     H99587   5.697   8.672  -0.879  1.3997 -1.1411  0.9295
  738MOL0     H99588   5.908   8.619  -0.786  2.2268  0.6373  2.4645
  738MOL0     H99589   5.962   8.771  -0.763  1.3656 -2.8031 -0.2056
  738MOL0     H99590   5.909   8.982  -0.919 -0.1304 -0.3186  0.7606
  738MOL0     H99591   5.998   9.270  -1.075  0.2982 -0.0578 -0.9004
  738MOL0     H99592   5.950   9.206  -0.915 -0.0686  2.1151  1.4226
  738MOL0     H99593   6.113   9.254  -0.936 -0.2388  0.2288 -1.2743
  738MOL0     H99594   6.469   9.341  -1.266 -1.2780  1.2916 -0.2203
  738MOL0     H99595   6.604   9.434  -1.431 -0.2989  0.3424 -1.7168
  738MOL0     H99596   6.566   9.300  -1.893  0.6926  0.4053 -0.6572
  738MOL0     H99597   6.439   9.380  -1.834 -0.5802 -1.4909  2.0023
  738MOL0     H99598   6.545   9.534  -1.994  2.8402  1.8442 -0.3713
  738MOL0     H99599   6.559   9.597  -1.826 -0.5591 -0.1089  0.4840
  738MOL0     H99600   6.765   9.416  -1.924 -4.1911 -0.3223 -1.9695
  738MOL0     H99601   6.778   9.561  -1.814  1.4322 -0.2855  0.5042
  738MOL0     H99602   6.742   9.598  -2.112 -1.4973 -1.1105  0.6556
  738MOL0     H99603   6.748   9.726  -1.984 -0.6823  1.5456 -3.2814
  738MOL0     H99604   6.994   9.552  -2.023 -0.7387  0.3788 -2.8907
  738MOL0     H99605   6.967   9.670  -1.900  0.5716 -3.7236  1.6195
  738MOL0     H99606   6.947   9.693  -2.201 -1.3098  0.9796  0.2710
  738MOL0     H99607   6.932   9.823  -2.080  0.0701  0.6948 -0.5914
  738MOL0     H99608   7.188   9.666  -2.066 -1.6334 -0.5822  2.7920
  738MOL0     H99609   7.164   9.823  -2.022  0.5184 -2.1068  2.1872
  738MOL0     H99610   7.171   9.743  -2.320 -1.1853  0.9796 -0.4897
  738MOL0     H99611   7.298   9.817  -2.209 -0.3361  0.2550  1.7986
  738MOL0     H99612   6.420   9.182  -1.728 -3.3852  0.1812  0.3483
  738MOL0     H99613   6.272   9.076  -1.557  2.2289 -2.0889 -1.9443
  738MOL0     H99614   6.299   8.884  -1.218 -0.4943 -2.3651 -1.1037
  738MOL0     H99615   6.172   8.696  -1.117  0.6233 -0.3980  1.7702
  738MOL0     H99616   4.473   7.959  -0.061  4.0819  0.9208 -2.3860
  738MOL0     H99617   4.429   7.743   0.062 -0.5364  0.0445  2.0256
  738MOL0     H99618   4.278   7.583   0.554 -4.4125 -1.4774 -0.6112
  738MOL0     H99619   4.229   7.349   0.663 -2.5644 -4.1994 -1.3585
  738MOL0     H99620   4.322   7.166   0.745  1.1439  0.6229 -2.5449
  738MOL0     H99621   4.156   7.107   0.704  0.3093  0.6292  1.4092
  738MOL0     H99622   4.233   6.892   0.648  0.7824  0.2382 -0.3575
  738MOL0     H99623   4.261   6.923   0.824 -2.1483  1.0288 -0.7119
  738MOL0     H99624   4.492   6.952   0.804  1.1952  1.8443 -1.1591
  738MOL0     H99625   4.476   6.979   0.626 -0.8437  1.8586  0.8299
  738MOL0     H99626   4.391   6.746   0.595 -2.0394  0.3433  0.5247
  738MOL0     H99627   4.430   6.700   0.753  1.1934  0.4377  0.2481
  738MOL0     H99628   4.828   6.782   0.595 -0.4217 -1.1135 -1.4013
  738MOL0     H99629   4.447   7.172   0.333  0.2304  1.1771 -0.4276
  738MOL0     H99630   4.528   7.390   0.270 -1.3488 -1.0776 -2.7568
  739MOL0     O99631   7.610   2.649   2.138 -0.1027  0.3838  0.2456
  739MOL0     C99632   7.520   2.626   2.213  0.3057 -0.4219  0.6362
  739MOL0     O99633   7.527   2.557   2.339 -0.1184  0.0734  0.4398
  739MOL0     C99634   7.638   2.497   2.378 -0.1950  0.2309 -0.2884
  739MOL0     C99635   7.719   2.549   2.481 -0.5218  0.5756 -0.3280
  739MOL0     C99636   7.829   2.477   2.533  0.5177  0.1033 -0.0009
  739MOL0     C99637   7.860   2.361   2.474  0.2487  0.4441  0.0102
  739MOL0     O99638   7.955   2.287   2.533 -0.0301 -0.8111 -0.1836
  739MOL0     C99639   7.959   2.140   2.531  0.0565 -0.0936  1.1267
  739MOL0     C99640   8.032   2.075   2.653  0.1841  0.1567 -0.1080
  739MOL0     C99641   8.032   1.916   2.631  0.5365  0.4307 -0.6676
  739MOL0     C99642   8.173   1.860   2.576  0.7101  0.2896 -0.8669
  739MOL0     C99643   8.171   1.709   2.544  0.8254  0.1070 -0.2853
  739MOL0     C99644   8.098   1.661   2.410 -0.6270 -0.0200  0.0738
  739MOL0     C99645   8.146   1.741   2.294  0.7228  1.1945 -0.6716
  739MOL0     C99646   8.287   1.735   2.263 -0.3934  0.4563 -0.0359
  739MOL0     N99647   8.339   1.598   2.244  0.2003 -0.0884  0.0329
  739MOL0     C99648   8.368   1.537   2.124  0.1389 -0.0934 -0.1333
  739MOL0     C99649   8.423   1.417   2.160  0.2163 -0.0461  0.3152
  739MOL0     C99650   8.466   1.312   2.064 -0.4986  0.0320 -0.0469
  739MOL0     C99651   8.434   1.172   2.111  0.2797 -1.0409  0.4261
  739MOL0     C99652   8.556   1.109   2.181  0.0404 -0.3614 -0.5050
  739MOL0     C99653   8.519   1.003   2.282 -0.1520  0.0827 -0.1651
  739MOL0     O99654   8.416   0.915   2.237 -0.1175  0.1375  0.2560
  739MOL0     C99655   8.454   0.792   2.186  0.7125 -0.2025  0.2301
  739MOL0     C99656   8.363   0.694   2.171 -0.2388  0.1669  0.5432
  739MOL0     C99657   8.389   0.569   2.117  0.1981  0.4954  0.3097
  739MOL0     C99658   8.266   0.475   2.109 -0.2550 -0.4919 -0.6806
  739MOL0     C99659   8.521   0.539   2.078  1.1380  0.2702  1.2087
  739MOL0     C99660   8.570   0.403   2.033 -0.7093 -0.3536 -0.4304
  739MOL0     O99661   8.706   0.392   2.023  0.7466 -0.2620  0.9463
  739MOL0     C99662   8.737   0.269   1.975 -0.2030 -0.0985 -0.2567
  739MOL0     C99663   8.791   0.265   1.844  1.1717  0.4003  0.9826
  739MOL0     C99664   8.836   0.139   1.803 -0.0990 -0.4687 -1.2469
  739MOL0     C99665   8.832   0.018   1.881 -0.8800 -0.1235  0.3100
  739MOL0     O99666   8.903  -0.097   1.836  0.7981  0.6786  0.3944
  739MOL0     C99667   8.861  -0.221   1.897 -0.2404  0.8963  0.0493
  739MOL0     C99668   8.715  -0.258   1.853  0.1234  0.5573  0.5842
  739MOL0     C99669   8.647  -0.386   1.929  0.3771 -0.5621  0.6455
  739MOL0     C99670   8.719  -0.517   1.893  0.7032 -0.3153 -0.9839
  739MOL0     C99671   8.653  -0.592   1.778 -0.2882  0.3493  0.2987
  739MOL0     C99672   8.683  -0.744   1.773 -0.7338 -0.2598  0.8947
  739MOL0     C99673   8.823  -0.768   1.748 -0.6871 -0.7840 -0.1060
  739MOL0     C99674   8.849  -0.915   1.770 -0.0443 -0.1264 -0.3102
  739MOL0    Cl99675   9.019  -0.937   1.718 -0.0814 -0.0832  0.3372
  739MOL0     C99676   8.775   0.031   2.009 -0.5225 -0.4601  0.1075
  739MOL0     C99677   8.730   0.155   2.057  0.4889 -0.4634  0.8991
  739MOL0     O99678   8.488   0.319   2.010  0.9232  0.8639  0.0084
  739MOL0     C99679   8.615   0.642   2.095 -0.4468 -0.0769  0.5766
  739MOL0     C99680   8.579   0.769   2.136  0.2683 -0.4835  0.5244
  739MOL0     N99681   8.446   1.415   2.294 -0.6597  0.4086  0.9637
  739MOL0     N99682   8.403   1.526   2.335 -0.4472 -0.0722 -0.2036
  739MOL0     C99683   7.786   2.309   2.367  0.0077 -0.1372  0.0312
  739MOL0     C99684   7.672   2.376   2.313  0.4613  0.1160 -0.6222
  739MOL0     C99685   7.382   2.672   2.182  0.9791  0.4254 -0.4248
  739MOL0     C99686   7.270   2.645   2.270 -0.3686  0.0182  0.4508
  739MOL0     C99687   7.142   2.698   2.239  0.0189 -0.0481 -0.2238
  739MOL0     C99688   7.120   2.766   2.116 -1.1630 -0.2059  0.4679
  739MOL0     O99689   7.006   2.811   2.060  0.6826 -0.4358  0.1185
  739MOL0     C99690   6.944   2.905   2.138 -0.0736  0.7773  0.4912
  739MOL0     C99691   6.794   2.871   2.132 -0.4558 -0.6254  0.0722
  739MOL0     C99692   6.723   2.943   2.241 -0.4497 -0.6120  0.3949
  739MOL0     C99693   6.584   2.887   2.234  0.3416 -0.3256  0.2660
  739MOL0     C99694   6.492   2.948   2.329 -0.1786  0.3758  0.8022
  739MOL0     C99695   6.415   2.987   2.414  0.1097 -0.3372 -0.4097
  739MOL0     C99696   7.231   2.791   2.035 -0.3110  1.0184  0.5832
  739MOL0     C99697   7.360   2.759   2.070 -0.3807 -0.1424  0.1386
  739MOL0     H99698   7.695   2.646   2.524  0.7031  0.5791  0.4094
  739MOL0     H99699   7.886   2.517   2.616  1.6766 -1.7372  0.1476
  739MOL0     H99700   7.857   2.101   2.530 -0.0238  0.1110  0.2482
  739MOL0     H99701   8.018   2.109   2.444  1.2987  0.8634  1.5875
  739MOL0     H99702   8.139   2.095   2.666  0.0460  0.2097  1.0411
  739MOL0     H99703   7.981   2.105   2.745 -0.2535  3.7121 -1.3800
  739MOL0     H99704   8.005   1.870   2.726  0.5765  0.4155 -0.6631
  739MOL0     H99705   7.959   1.882   2.557  1.0944 -0.5546 -0.7965
  739MOL0     H99706   8.200   1.916   2.486  1.8826  0.6294 -0.3221
  739MOL0     H99707   8.246   1.868   2.657  0.2215 -0.9996 -0.2623
  739MOL0     H99708   8.277   1.685   2.538  0.8091  0.3505 -2.7020
  739MOL0     H99709   8.136   1.643   2.624  1.7015  0.2018  0.1818
  739MOL0     H99710   8.104   1.552   2.408  0.3434  0.0109  0.7835
  739MOL0     H99711   7.990   1.683   2.407 -0.1209  2.7640 -2.2939
  739MOL0     H99712   8.091   1.697   2.210  1.0268  0.8368 -0.6893
  739MOL0     H99713   8.119   1.846   2.289 -0.5528  0.8585 -1.4182
  739MOL0     H99714   8.343   1.786   2.343  0.9669 -1.9454  0.6460
  739MOL0     H99715   8.305   1.797   2.175 -1.3124 -1.3536 -1.5800
  739MOL0     H99716   8.339   1.572   2.025 -0.9016  0.4011  0.3298
  739MOL0     H99717   8.423   1.325   1.965 -1.5318 -0.4286  0.3215
  739MOL0     H99718   8.573   1.331   2.056 -0.7261  1.0847 -0.8016
  739MOL0     H99719   8.419   1.114   2.020 -2.3655 -1.4161  1.0221
  739MOL0     H99720   8.341   1.173   2.169 -0.1322 -1.8185 -0.2178
  739MOL0     H99721   8.615   1.187   2.230 -0.4818  1.1472 -2.1857
  739MOL0     H99722   8.629   1.073   2.108 -0.9609  0.5954 -2.0354
  739MOL0     H99723   8.480   1.061   2.366 -0.7720  0.6622 -0.8454
  739MOL0     H99724   8.610   0.950   2.314  0.0855 -0.2861 -1.4200
  739MOL0     H99725   8.262   0.727   2.192 -1.3841 -1.3600 -2.0253
  739MOL0     H99726   8.183   0.521   2.161 -0.8474 -1.3398 -0.8570
  739MOL0     H99727   8.232   0.456   2.007 -2.6041 -2.3001  0.3551
  739MOL0     H99728   8.279   0.371   2.143  2.4274 -0.2979 -0.9044
  739MOL0     H99729   8.787   0.359   1.790 -0.2562  0.7453  1.6464
  739MOL0     H99730   8.874   0.128   1.702  3.3758  3.0249 -0.5782
  739MOL0     H99731   8.928  -0.298   1.858 -0.1258  0.5580  0.9102
  739MOL0     H99732   8.855  -0.228   2.005 -0.1871 -2.1066 -0.0690
  739MOL0     H99733   8.642  -0.177   1.865  0.3415  1.5276 -3.2058
  739MOL0     H99734   8.719  -0.286   1.747 -0.4622 -0.3291  0.7930
  739MOL0     H99735   8.542  -0.389   1.900  0.6873  1.1854 -0.8681
  739MOL0     H99736   8.659  -0.368   2.036  1.6399  0.2457  0.3911
  739MOL0     H99737   8.823  -0.489   1.872  1.4099 -3.1968 -1.8454
  739MOL0     H99738   8.736  -0.582   1.979  0.0674 -1.2265 -1.5302
  739MOL0     H99739   8.678  -0.551   1.679 -2.3312 -0.9920 -0.8642
  739MOL0     H99740   8.545  -0.577   1.792 -0.4569 -0.4815 -0.0409
  739MOL0     H99741   8.653  -0.797   1.863 -2.6932 -1.4166 -0.3566
  739MOL0     H99742   8.620  -0.771   1.687 -2.8794 -1.3790  2.7174
  739MOL0     H99743   8.883  -0.709   1.818 -1.3723 -1.2647  0.8987
  739MOL0     H99744   8.849  -0.743   1.644 -1.4526 -0.1983 -0.1646
  739MOL0     H99745   8.784  -0.980   1.710  1.3972 -2.0231  0.0708
  739MOL0     H99746   8.841  -0.951   1.873  4.6715 -0.2844  0.2340
  739MOL0     H99747   8.776  -0.049   2.083 -2.7200 -1.3771 -0.7634
  739MOL0     H99748   8.704   0.170   2.161  0.0298 -0.4329  0.7837
  739MOL0     H99749   8.719   0.647   2.066 -0.1357  0.3288  1.7240
  739MOL0     H99750   8.650   0.850   2.149  0.4176 -0.7351  1.3544
  739MOL0     H99751   7.821   2.221   2.314 -2.0952  0.2732 -2.2378
  739MOL0     H99752   7.615   2.330   2.233  2.2606 -0.6827 -1.5090
  739MOL0     H99753   7.274   2.594   2.366 -3.3067 -1.0747  0.0705
  739MOL0     H99754   7.067   2.692   2.317 -1.3945  1.4819 -1.4023
  739MOL0     H99755   6.966   2.894   2.245 -0.7545 -3.1721  0.3714
  739MOL0     H99756   6.961   3.008   2.105  0.1393  0.4001 -0.5881
  739MOL0     H99757   6.781   2.763   2.139 -2.4795 -0.7009 -3.0210
  739MOL0     H99758   6.756   2.908   2.036  0.7686  1.5865  0.3503
  739MOL0     H99759   6.734   3.052   2.232  3.8988 -0.9814 -1.3338
  739MOL0     H99760   6.768   2.922   2.338 -0.0125  1.7153  0.7624
  739MOL0     H99761   6.575   2.781   2.258 -0.9762 -0.1913  0.3842
  739MOL0     H99762   6.536   2.902   2.137 -2.8879 -0.0154  1.8153
  739MOL0     H99763   6.343   3.027   2.482 -0.0897 -2.1338  0.5011
  739MOL0     H99764   7.222   2.856   1.949  1.2692  0.1194 -0.3074
  739MOL0     H99765   7.441   2.785   2.002 -1.1476 -1.3547 -1.3053
  740MOL0     O99766   1.338   4.572  10.477 -0.2035  0.2170  0.0783
  740MOL0     C99767   1.248   4.584  10.566 -0.3753  0.0636  0.7980
  740MOL0     O99768   1.266   4.648  10.688  0.1754  0.5138 -0.3066
  740MOL0     C99769   1.386   4.705  10.711  0.2136  0.4670 -1.1558
  740MOL0     C99770   1.452   4.784  10.627  1.1510  0.3307 -0.5105
  740MOL0     C99771   1.557   4.863  10.672 -0.7675  0.1301  0.4259
  740MOL0     C99772   1.606   4.856  10.795 -0.4901 -0.3778 -0.5595
  740MOL0     O99773   1.728   4.914  10.825  0.5224  0.2174 -0.8105
  740MOL0     C99774   1.743   4.961  10.962 -0.4073  0.8468  0.4079
  740MOL0     C99775   1.849   5.066  10.960  0.1589  0.1284 -0.4152
  740MOL0     C99776   1.917   5.082  11.100 -1.3037  0.4683 -0.3794
  740MOL0     C99777   2.039   4.980  11.108  0.5533  1.2458 -0.1791
  740MOL0     C99778   2.048   4.915  11.250 -0.8036 -0.4721  0.6906
  740MOL0     C99779   2.167   4.819  11.261 -0.7952  0.3950  0.0531
  740MOL0     C99780   2.167   4.749  11.406  0.5639 -0.2748  0.3729
  740MOL0     C99781   2.197   4.852  11.522  1.1824 -1.0355 -0.0172
  740MOL0     N99782   2.236   4.786  11.646  0.8713 -1.0773  0.7116
  740MOL0     C99783   2.366   4.751  11.673  0.1763  0.7278  0.1378
  740MOL0     C99784   2.359   4.670  11.789 -0.1877  0.1110  0.4726
  740MOL0     C99785   2.473   4.610  11.862 -1.2416  0.1107 -0.3852
  740MOL0     C99786   2.465   4.665  12.001 -0.7826 -0.3191 -0.6279
  740MOL0     C99787   2.591   4.637  12.091  0.6717 -0.8407  0.7468
  740MOL0     C99788   2.590   4.505  12.148  0.1606  0.3934 -0.2968
  740MOL0     O99789   2.477   4.499  12.233  0.5514 -0.0599  0.7642
  740MOL0     C99790   2.451   4.389  12.313 -0.3009  0.1553  0.5530
  740MOL0     C99791   2.357   4.407  12.409 -0.0891  0.5287 -1.0727
  740MOL0     C99792   2.310   4.300  12.490 -0.2021  0.4747 -0.3077
  740MOL0     C99793   2.201   4.325  12.594  0.3620 -0.3062 -0.4308
  740MOL0     C99794   2.365   4.171  12.468 -0.3415  0.7309  0.7527
  740MOL0     C99795   2.317   4.046  12.533 -0.0658  0.4098  0.4886
  740MOL0     O99796   2.424   3.966  12.571 -0.6481  0.0516  0.0529
  740MOL0     C99797   2.398   3.841  12.616  0.0465  0.8006 -0.1099
  740MOL0     C99798   2.374   3.807  12.750 -0.0388 -0.4537  0.6923
  740MOL0     C99799   2.332   3.678  12.787  0.0772  0.1862  0.9585
  740MOL0     C99800   2.324   3.580  12.677 -0.3786  0.6132  0.4984
  740MOL0     O99801   2.288   3.449  12.695  0.4600 -0.3737  0.0919
  740MOL0     C99802   2.302   3.399  12.827  0.4886  0.7618 -0.2051
  740MOL0     C99803   2.253   3.255  12.840 -0.2466  0.8743 -1.0794
  740MOL0     C99804   2.206   3.205  12.973  0.3018  0.5457 -0.2679
  740MOL0     C99805   2.310   3.230  13.081  0.0313  0.4075 -0.1665
  740MOL0     C99806   2.283   3.150  13.208 -0.2056 -0.0026  0.0228
  740MOL0     C99807   2.293   2.995  13.203  0.6058 -0.1648  0.0414
  740MOL0     C99808   2.430   2.939  13.151  0.3374  0.1355  0.5954
  740MOL0     C99809   2.439   2.785  13.191 -0.6282  0.8689 -0.1324
  740MOL0    Cl99810   2.312   2.682  13.128  0.1406  0.0817 -0.3746
  740MOL0     C99811   2.374   3.608  12.549 -0.0315  0.2892 -0.0941
  740MOL0     C99812   2.402   3.741  12.519 -0.3019  0.7714 -0.3371
  740MOL0     O99813   2.203   4.020  12.555 -0.1102  0.1931  0.4491
  740MOL0     C99814   2.458   4.158  12.369 -0.4113  0.2979  0.2403
  740MOL0     C99815   2.501   4.259  12.288  0.1689 -0.1138  0.3781
  740MOL0     N99816   2.227   4.652  11.820  0.3282  0.0607 -0.5500
  740MOL0     N99817   2.158   4.719  11.733  0.2835 -0.3272  0.0056
  740MOL0     C99818   1.548   4.756  10.882 -0.2684 -0.7624  0.8454
  740MOL0     C99819   1.440   4.683  10.838 -0.5675 -0.1002  0.2284
  740MOL0     C99820   1.125   4.507  10.542  0.1735 -0.6109 -0.0080
  740MOL0     C99821   1.001   4.538  10.604 -0.4449 -0.8535  0.2856
  740MOL0     C99822   0.890   4.464  10.585  0.4422 -0.1803  0.0919
  740MOL0     C99823   0.898   4.351  10.509  0.3770 -0.8472 -0.5367
  740MOL0     O99824   0.785   4.273  10.509 -0.0207 -0.0939  0.8255
  740MOL0     C99825   0.806   4.146  10.445 -0.3307  0.3542 -0.3491
  740MOL0     C99826   0.801   4.149  10.286 -0.3958  0.3969 -0.0365
  740MOL0     C99827   0.858   4.015  10.231  0.6550  0.2755 -0.0373
  740MOL0     C99828   1.015   4.019  10.200  0.2315 -0.5635  0.0279
  740MOL0     C99829   1.089   3.975  10.317 -0.7972  0.4663 -0.2725
  740MOL0     C99830   1.161   3.924  10.410 -0.0265 -1.0573  0.9476
  740MOL0     C99831   1.017   4.323  10.439 -0.0264 -0.0659  1.0927
  740MOL0     C99832   1.136   4.393  10.447  0.4839 -0.6558 -0.8983
  740MOL0     H99833   1.409   4.808  10.531 -0.3273  0.1533  0.0785
  740MOL0     H99834   1.604   4.923  10.595  1.4974 -1.5795  0.3535
  740MOL0     H99835   1.649   4.989  11.009 -2.1299 -0.2957 -2.1184
  740MOL0     H99836   1.772   4.874  11.022 -0.6177  1.6004  1.6117
  740MOL0     H99837   1.922   5.057  10.879 -0.4003 -0.7207 -0.8370
  740MOL0     H99838   1.789   5.154  10.935 -4.2508 -2.1905  0.9128
  740MOL0     H99839   1.955   5.184  11.115 -2.1367  0.6298  0.7959
  740MOL0     H99840   1.843   5.057  11.176  0.7533  1.2522  2.0801
  740MOL0     H99841   2.007   4.898  11.043  1.8878 -1.1770  2.0431
  740MOL0     H99842   2.131   5.025  11.069  1.3084  2.0711  2.3733
  740MOL0     H99843   2.059   4.993  11.325 -3.3583  1.2490 -0.5693
  740MOL0     H99844   1.959   4.853  11.267 -0.4336 -1.4326 -0.6214
  740MOL0     H99845   2.145   4.756  11.174 -1.4594 -0.5634  0.8863
  740MOL0     H99846   2.264   4.860  11.231 -1.1888  0.8262 -0.6371
  740MOL0     H99847   2.070   4.702  11.424 -0.8577  1.8358 -1.3083
  740MOL0     H99848   2.246   4.673  11.409  1.5068  0.3643 -3.3565
  740MOL0     H99849   2.101   4.902  11.540  1.1359 -1.0732 -0.1595
  740MOL0     H99850   2.269   4.929  11.493  0.8234 -1.0954 -1.1017
  740MOL0     H99851   2.455   4.793  11.627 -0.4486  1.3964 -0.4808
  740MOL0     H99852   2.468   4.501  11.858  2.1285 -0.2738  1.6736
  740MOL0     H99853   2.571   4.628  11.817 -0.9897  1.5432  0.6464
  740MOL0     H99854   2.377   4.637  12.059 -1.8521  0.8684 -1.6293
  740MOL0     H99855   2.462   4.774  11.990 -2.3908 -0.5386 -3.1335
  740MOL0     H99856   2.591   4.701  12.180 -2.4561  1.5329 -0.7667
  740MOL0     H99857   2.685   4.660  12.039  0.1057 -0.6237 -0.1941
  740MOL0     H99858   2.677   4.487  12.211  0.6752 -2.4695 -1.6790
  740MOL0     H99859   2.608   4.424  12.077 -0.2634 -2.3272  2.5274
  740MOL0     H99860   2.313   4.506  12.421  2.0068  1.2367  2.3539
  740MOL0     H99861   2.127   4.401  12.565 -1.8559 -2.4429 -0.7314
  740MOL0     H99862   2.133   4.240  12.610 -1.7510  1.1044 -1.4295
  740MOL0     H99863   2.245   4.356  12.689 -0.2937 -0.3066 -0.1171
  740MOL0     H99864   2.386   3.872  12.836  0.0349 -1.6968  1.6368
  740MOL0     H99865   2.312   3.656  12.892 -3.2545 -0.2550  0.3283
  740MOL0     H99866   2.409   3.401  12.846  0.8014 -0.4661 -1.6310
  740MOL0     H99867   2.247   3.452  12.906  1.6907 -0.4522  1.4887
  740MOL0     H99868   2.163   3.236  12.781 -1.3489 -0.6635  0.9656
  740MOL0     H99869   2.327   3.181  12.806 -0.2948 -0.5758  1.7313
  740MOL0     H99870   2.168   3.102  12.967  0.2496  0.6724 -3.9987
  740MOL0     H99871   2.118   3.269  12.982  0.2380  0.2071  2.2176
  740MOL0     H99872   2.404   3.185  13.046 -0.4446  0.5320 -1.6747
  740MOL0     H99873   2.329   3.337  13.095  6.0742 -0.4349  1.0046
  740MOL0     H99874   2.177   3.164  13.232  0.3377  1.2806  1.8863
  740MOL0     H99875   2.351   3.179  13.288 -2.5847  0.4351  2.0161
  740MOL0     H99876   2.258   2.950  13.296 -1.0776 -2.3111 -1.5076
  740MOL0     H99877   2.214   2.959  13.136 -2.3300  4.7608  0.3647
  740MOL0     H99878   2.511   2.991  13.202 -0.7878  0.5953  1.9788
  740MOL0     H99879   2.432   2.956  13.043 -4.5620  1.0563  0.4287
  740MOL0     H99880   2.437   2.781  13.300 -0.4145 -1.9818 -0.1689
  740MOL0     H99881   2.532   2.739  13.155 -1.6761 -0.5212 -1.1976
  740MOL0     H99882   2.384   3.524  12.481  2.4125  0.4192 -0.0097
  740MOL0     H99883   2.438   3.755  12.418 -1.0421 -3.0104 -1.2761
  740MOL0     H99884   2.499   4.059  12.354 -2.3161 -0.5742  0.5774
  740MOL0     H99885   2.574   4.238  12.210 -0.6216  2.1672 -1.0778
  740MOL0     H99886   1.580   4.745  10.985 -2.0211  0.8913  1.6444
  740MOL0     H99887   1.393   4.608  10.901  0.1240 -0.5431  0.2309
  740MOL0     H99888   0.986   4.624  10.668  1.2632 -0.9229  0.8266
  740MOL0     H99889   0.798   4.484  10.639 -1.3927 -4.4847 -0.9817
  740MOL0     H99890   0.886   4.089  10.494 -2.9947 -2.4840  1.0645
  740MOL0     H99891   0.727   4.072  10.466  0.4506 -0.2144  0.6979
  740MOL0     H99892   0.854   4.234  10.241 -1.0083  0.4463 -0.6796
  740MOL0     H99893   0.697   4.157  10.253 -0.3529 -1.3599 -0.6905
  740MOL0     H99894   0.807   3.989  10.138  1.9024  1.4344 -1.0935
  740MOL0     H99895   0.845   3.932  10.301  1.7005  1.0270  1.0752
  740MOL0     H99896   1.053   4.118  10.171  1.7401 -1.1099  0.0465
  740MOL0     H99897   1.040   3.944  10.124 -1.9272 -2.3471  0.9977
  740MOL0     H99898   1.237   3.871  10.464  1.5830  0.1891 -0.0221
  740MOL0     H99899   1.024   4.236  10.375 -1.5613 -1.2397  2.4128
  740MOL0     H99900   1.237   4.370  10.414  0.6631 -1.3074  0.0543
  741MOL0     O99901   7.057   2.187   3.776  0.1219  0.7335 -0.5912
  741MOL0     C99902   7.168   2.142   3.754  0.2516  0.5669 -0.3913
  741MOL0     O99903   7.281   2.211   3.717  0.5538  0.1268 -0.4557
  741MOL0     C99904   7.260   2.344   3.679  0.3758  0.3378 -0.5029
  741MOL0     C99905   7.221   2.449   3.768 -0.7505  0.2527 -0.4274
  741MOL0     C99906   7.220   2.580   3.718 -0.2344  0.5103  0.5842
  741MOL0     C99907   7.256   2.608   3.589 -0.2360  0.1245 -0.0386
  741MOL0     O99908   7.244   2.744   3.558 -0.5233 -0.0335  0.4693
  741MOL0     C99909   7.292   2.800   3.435  0.4841  0.0311  0.2743
  741MOL0     C99910   7.443   2.815   3.419  1.3640 -0.6569 -0.6066
  741MOL0     C99911   7.495   2.900   3.531 -0.2300 -0.2124  0.0479
  741MOL0     C99912   7.651   2.931   3.514  0.3835  0.3303 -0.3638
  741MOL0     C99913   7.716   2.928   3.653  0.2935  0.2892  0.0901
  741MOL0     C99914   7.852   2.976   3.666 -0.7536 -0.1560  0.5580
  741MOL0     C99915   7.951   2.902   3.574 -0.2543 -0.5761  0.0659
  741MOL0     C99916   7.980   2.760   3.612 -0.4865  1.4710 -0.8669
  741MOL0     N99917   8.092   2.695   3.550 -0.1162  0.7158  0.3259
  741MOL0     C99918   8.153   2.719   3.427 -0.1149  0.9970  0.2344
  741MOL0     C99919   8.248   2.620   3.423 -0.2155  0.7896 -0.5658
  741MOL0     C99920   8.351   2.608   3.314  0.1229 -0.2313 -0.2824
  741MOL0     C99921   8.285   2.598   3.175  0.2108 -0.9356 -0.1390
  741MOL0     C99922   8.180   2.488   3.155 -0.0184  0.0230 -0.2444
  741MOL0     C99923   8.241   2.349   3.186 -0.2700 -0.6099 -0.2771
  741MOL0     O99924   8.160   2.237   3.148  0.0323 -0.2004 -0.5308
  741MOL0     C99925   8.229   2.118   3.114  0.1963 -0.1007  0.5511
  741MOL0     C99926   8.352   2.084   3.169 -0.0199  0.3406 -0.4307
  741MOL0     C99927   8.430   1.981   3.099  0.1988  0.0231  0.3594
  741MOL0     C99928   8.568   1.965   3.161 -0.5225 -0.5226  0.6837
  741MOL0     C99929   8.371   1.892   3.010 -0.2453  0.8258 -0.0707
  741MOL0     C99930   8.423   1.760   2.955  0.4223 -0.4822  0.7954
  741MOL0     O99931   8.345   1.672   2.905  0.2628  0.3675  0.6688
  741MOL0     C99932   8.401   1.547   2.868  0.0248 -0.1228  0.2091
  741MOL0     C99933   8.357   1.484   2.757  0.6950  1.0008  0.4112
  741MOL0     C99934   8.435   1.368   2.716 -0.0373 -1.6480  0.6128
  741MOL0     C99935   8.514   1.301   2.810  0.9666  0.8477  0.1668
  741MOL0     O99936   8.584   1.183   2.776  0.0089 -0.0130 -0.5070
  741MOL0     C99937   8.580   1.139   2.643  0.2122 -0.8519  0.1034
  741MOL0     C99938   8.649   1.007   2.626  0.0982  0.4878  0.5025
  741MOL0     C99939   8.573   0.883   2.684 -0.7000  0.7776 -1.1711
  741MOL0     C99940   8.642   0.756   2.637 -1.1953  0.2515 -0.5768
  741MOL0     C99941   8.581   0.704   2.512  0.3546  0.4001 -0.1938
  741MOL0     C99942   8.665   0.599   2.442  0.0802 -0.6191 -0.8149
  741MOL0     C99943   8.717   0.488   2.547  0.7116 -0.7477 -1.0354
  741MOL0     C99944   8.785   0.374   2.472 -0.7146  1.2293  0.1985
  741MOL0    Cl99945   8.685   0.324   2.328  0.3374 -0.0802  0.1026
  741MOL0     C99946   8.543   1.357   2.928 -0.5418  0.8441 -0.8248
  741MOL0     C99947   8.496   1.482   2.960  0.5593  0.3342 -0.4699
  741MOL0     O99948   8.542   1.758   2.953  0.0258 -0.1800 -0.1717
  741MOL0     C99949   8.240   1.931   2.960 -0.4164  0.7335 -0.1069
  741MOL0     C99950   8.177   2.039   3.013 -1.1205  0.4200  0.3140
  741MOL0     N99951   8.237   2.543   3.529 -0.1445  0.1804  0.1843
  741MOL0     N99952   8.135   2.574   3.597 -0.2253 -0.2935 -0.1597
  741MOL0     C99953   7.285   2.507   3.508  0.1681 -0.6851  0.3214
  741MOL0     C99954   7.286   2.377   3.544 -0.1433 -0.4544  0.3108
  741MOL0     C99955   7.180   1.992   3.744  0.2667  0.1689 -0.4761
  741MOL0     C99956   7.282   1.934   3.664 -0.6477  0.4565 -0.1342
  741MOL0     C99957   7.292   1.796   3.640  0.6234 -0.8624  0.2649
  741MOL0     C99958   7.201   1.714   3.701  0.2531 -0.2685  0.1470
  741MOL0     O99959   7.215   1.577   3.696  0.1644 -0.2820 -0.9454
  741MOL0     C99960   7.328   1.526   3.764 -0.3189 -0.1288 -0.0327
  741MOL0     C99961   7.413   1.406   3.693 -1.2891  0.1686  0.5923
  741MOL0     C99962   7.494   1.337   3.804  0.4126 -0.4488  0.2628
  741MOL0     C99963   7.593   1.228   3.742  0.7543  0.0419 -0.3261
  741MOL0     C99964   7.529   1.116   3.667 -0.6949 -0.4443  0.3065
  741MOL0     C99965   7.479   1.069   3.565 -0.5394 -0.0384 -0.2294
  741MOL0     C99966   7.105   1.764   3.775 -0.2224  0.0430 -0.3888
  741MOL0     C99967   7.089   1.903   3.796 -0.4257  0.8198  0.5109
  741MOL0     H99968   7.202   2.431   3.873 -1.3066 -1.9681 -0.8715
  741MOL0     H99969   7.207   2.654   3.797  1.2239  0.7259  0.6570
  741MOL0     H99970   7.267   2.734   3.351 -1.9682 -0.6374  1.4532
  741MOL0     H99971   7.243   2.895   3.412 -2.0983 -1.0191  1.0799
  741MOL0     H99972   7.495   2.719   3.423  2.9901  0.2283  1.3551
  741MOL0     H99973   7.463   2.869   3.326 -0.7540  1.1959 -0.0520
  741MOL0     H99974   7.453   3.000   3.540 -1.8240 -0.8662  0.3914
  741MOL0     H99975   7.482   2.854   3.630 -0.9933  1.2129  0.6305
  741MOL0     H99976   7.694   2.839   3.473  0.0366 -0.1352  0.2859
  741MOL0     H99977   7.685   3.011   3.448  1.1517 -0.8014 -1.3909
  741MOL0     H99978   7.648   2.995   3.707 -0.6551  1.3630 -2.2787
  741MOL0     H99979   7.712   2.827   3.695 -1.7400  0.4869  0.4705
  741MOL0     H99980   7.858   3.076   3.623 -0.1355  0.3278  1.7260
  741MOL0     H99981   7.885   2.989   3.770  0.9822  1.2060 -0.1207
  741MOL0     H99982   7.916   2.909   3.471 -0.4285  0.0145  0.1644
  741MOL0     H99983   8.050   2.949   3.579 -1.0700  1.6804 -2.3667
  741MOL0     H99984   7.892   2.700   3.588  1.0565 -1.4641  0.1607
  741MOL0     H99985   7.985   2.750   3.721  5.4920  0.4607 -0.8734
  741MOL0     H99986   8.133   2.803   3.361  0.3843  0.6473 -0.3723
  741MOL0     H99987   8.400   2.705   3.301 -0.7442  0.2173 -0.2709
  741MOL0     H99988   8.420   2.531   3.349  2.2040  0.8741 -1.7151
  741MOL0     H99989   8.367   2.587   3.104  1.7777 -1.0716  1.6079
  741MOL0     H99990   8.236   2.694   3.157  0.7285  0.1481  3.3732
  741MOL0     H99991   8.135   2.478   3.056  1.5413 -2.1400 -0.8445
  741MOL0     H99992   8.100   2.514   3.224 -0.5644 -0.6736 -0.5971
  741MOL0     H99993   8.253   2.334   3.294 -1.3399 -0.3891 -0.1151
  741MOL0     H99994   8.340   2.332   3.141  0.3214 -0.7978  1.0566
  741MOL0     H99995   8.397   2.135   3.254  3.2040 -1.5121 -0.8727
  741MOL0     H99996   8.614   2.048   3.214  1.1815 -0.9078 -0.1245
  741MOL0     H99997   8.569   1.890   3.241 -0.7771  1.1027  2.2711
  741MOL0     H99998   8.633   1.936   3.078 -1.3965  0.3377 -0.3329
  741MOL0     H99999   8.280   1.537   2.702  0.8774  1.3910  0.5296
  741MOL0     H    0   8.437   1.331   2.614  1.4936 -0.5162  0.2005
  741MOL0     H    1   8.476   1.122   2.613  0.0747 -0.3914  0.3079
  741MOL0     H    2   8.627   1.217   2.583  0.0612 -2.5331 -2.3414
  741MOL0     H    3   8.674   1.002   2.519  3.1580  1.1232  1.1051
  741MOL0     H    4   8.747   1.012   2.674  2.0992  2.5155 -3.2824
  741MOL0     H    5   8.466   0.873   2.668 -0.5043 -2.1271 -1.1853
  741MOL0     H    6   8.584   0.889   2.793  0.7210 -0.5248 -1.2026
  741MOL0     H    7   8.751   0.767   2.624 -0.5099  0.3903  3.7654
  741MOL0     H    8   8.627   0.691   2.724  2.0594 -0.0935 -0.1132
  741MOL0     H    9   8.549   0.785   2.446 -0.9784 -0.4818 -0.6572
  741MOL0     H   10   8.499   0.647   2.556  2.2763 -2.1669  0.2642
  741MOL0     H   11   8.615   0.553   2.357  1.7034 -1.8141 -1.1841
  741MOL0     H   12   8.751   0.642   2.390  1.0842 -2.5534 -0.8507
  741MOL0     H   13   8.631   0.436   2.591  2.6143 -1.8295  1.6807
  741MOL0     H   14   8.779   0.527   2.628 -0.9640  0.0001 -0.0499
  741MOL0     H   15   8.796   0.290   2.541 -1.4390  0.7632 -0.2419
  741MOL0     H   16   8.881   0.398   2.426 -0.0551 -2.0503 -0.3552
  741MOL0     H   17   8.613   1.308   2.995  1.5587  1.4618 -2.4596
  741MOL0     H   18   8.515   1.524   3.058  0.4317  0.6284 -0.5719
  741MOL0     H   19   8.193   1.874   2.879  1.5221 -1.2582  0.0590
  741MOL0     H   20   8.078   2.068   2.977 -1.1612  2.3879  1.8552
  741MOL0     H   21   7.311   2.519   3.404  1.3762 -3.1704  0.2770
  741MOL0     H   22   7.330   2.311   3.470  0.2131  0.3132 -0.1702
  741MOL0     H   23   7.360   1.992   3.615 -1.1079  0.3671 -0.9849
  741MOL0     H   24   7.369   1.755   3.576 -0.8370 -0.8293 -1.6046
  741MOL0     H   25   7.403   1.605   3.765  2.1286 -2.2189 -2.3457
  741MOL0     H   26   7.302   1.494   3.865  3.9789 -2.1374  0.6748
  741MOL0     H   27   7.484   1.447   3.621 -1.4812 -0.0564  0.2735
  741MOL0     H   28   7.357   1.339   3.627  1.9839 -1.9933 -0.2110
  741MOL0     H   29   7.429   1.305   3.886  2.0008  0.7712  2.0776
  741MOL0     H   30   7.552   1.417   3.851 -0.1879  0.1540 -0.0095
  741MOL0     H   31   7.649   1.189   3.827 -2.3257 -1.8113  1.0062
  741MOL0     H   32   7.654   1.292   3.677 -1.6559  0.1807 -2.6275
  741MOL0     H   33   7.449   1.031   3.470 -0.4659  4.4031 -2.2445
  741MOL0     H   34   7.040   1.691   3.822 -0.2403 -0.9357 -1.8680
  741MOL0     H   35   7.014   1.948   3.861  0.0023  1.3786  0.6282
  742MOL0     O   36   2.788   1.346   2.891 -0.4849 -1.0954  0.1615
  742MOL0     C   37   2.792   1.272   2.790  0.5405 -0.6233  0.9798
  742MOL0     O   38   2.747   1.142   2.787  0.5892  0.1276  0.0207
  742MOL0     C   39   2.664   1.076   2.877  0.0843  1.3123  0.5162
  742MOL0     C   40   2.662   0.943   2.845  0.8565  0.2312 -0.2117
  742MOL0     C   41   2.558   0.868   2.906  1.2326  0.6292  0.3367
  742MOL0     C   42   2.463   0.921   2.996 -0.7881 -0.3176  0.1626
  742MOL0     O   43   2.379   0.829   3.046  0.6760  0.9481 -0.6233
  742MOL0     C   44   2.282   0.878   3.144  0.0157 -0.0804  0.8896
  742MOL0     C   45   2.139   0.871   3.090 -0.3614 -1.5908  0.0681
  742MOL0     C   46   2.114   0.959   2.968 -0.3159 -0.0698  0.4044
  742MOL0     C   47   1.967   0.941   2.913  0.9716  0.2645 -0.5986
  742MOL0     C   48   1.958   1.017   2.781 -0.4551  0.0373  0.4879
  742MOL0     C   49   1.811   1.034   2.730  0.5569  0.7388 -1.1975
  742MOL0     C   50   1.797   1.088   2.588  0.1069 -0.0588 -0.7610
  742MOL0     C   51   1.808   0.980   2.487 -0.2358 -0.1523  0.2490
  742MOL0     N   52   1.938   0.962   2.439 -0.0793  0.1144 -0.2753
  742MOL0     C   53   2.021   1.051   2.379 -0.6093  0.4908  0.2697
  742MOL0     C   54   2.139   0.987   2.360 -0.0240  0.0521  0.0978
  742MOL0     C   55   2.253   1.035   2.285  0.6714  0.3637  0.4270
  742MOL0     C   56   2.346   1.124   2.370  0.1847 -0.6886 -0.7532
  742MOL0     C   57   2.492   1.087   2.355  0.9188 -0.2704  0.9976
  742MOL0     C   58   2.596   1.160   2.440  0.4357 -0.5892 -0.2700
  742MOL0     O   59   2.612   1.293   2.400  0.3682  0.6992  0.0534
  742MOL0     C   60   2.593   1.400   2.484 -0.3608  0.3617  0.5697
  742MOL0     C   61   2.679   1.508   2.457  0.0577  0.4552 -0.1848
  742MOL0     C   62   2.675   1.630   2.527 -0.1914 -0.5976 -0.0667
  742MOL0     C   63   2.759   1.745   2.481  0.3890 -0.6247  1.0368
  742MOL0     C   64   2.578   1.630   2.631  0.3009 -0.4639  0.3548
  742MOL0     C   65   2.553   1.751   2.710 -0.3596  0.7058  0.3487
  742MOL0     O   66   2.535   1.715   2.839 -0.2776  0.0121  0.1110
  742MOL0     C   67   2.443   1.800   2.896  0.7319 -1.1329 -0.3874
  742MOL0     C   68   2.485   1.916   2.966  0.3785  0.4200  0.5940
  742MOL0     C   69   2.390   2.009   3.008 -0.4655  0.0383 -0.0435
  742MOL0     C   70   2.255   1.989   2.999  0.4723 -0.9032  0.9918
  742MOL0     O   71   2.163   2.079   3.047  0.1905 -0.2484 -0.0356
  742MOL0     C   72   2.204   2.194   3.132  0.4939  0.0854 -0.0910
  742MOL0     C   73   2.252   2.320   3.064  0.0808  0.2597 -0.2429
  742MOL0     C   74   2.165   2.437   3.118 -0.2313 -0.1467 -0.1391
  742MOL0     C   75   2.021   2.431   3.060 -1.1685  0.6068  0.4150
  742MOL0     C   76   1.942   2.555   3.101 -0.1731 -0.6037 -0.1671
  742MOL0     C   77   1.809   2.573   3.018 -0.0844 -1.2173  0.3906
  742MOL0     C   78   1.730   2.691   3.052  0.4357 -0.3595  0.1102
  742MOL0     C   79   1.613   2.704   2.952  0.4240 -0.4832 -0.2571
  742MOL0    Cl   80   1.514   2.834   3.021 -0.5132  0.1984  0.0414
  742MOL0     C   81   2.202   1.889   2.913  0.0876  0.0764 -0.1454
  742MOL0     C   82   2.299   1.798   2.864  0.1171 -0.5955  0.8272
  742MOL0     O   83   2.569   1.868   2.666  0.9955  0.0141  0.7048
  742MOL0     C   84   2.489   1.527   2.649  0.0133  0.2467 -0.9777
  742MOL0     C   85   2.500   1.412   2.580  0.8475  1.1550 -1.2474
  742MOL0     N   86   2.124   0.861   2.413 -0.1523 -0.2933  0.1719
  742MOL0     N   87   2.007   0.845   2.461  0.7945  0.3908  0.2487
  742MOL0     C   88   2.480   1.057   3.028  0.4071  0.1834  0.9126
  742MOL0     C   89   2.580   1.129   2.961  0.2131 -0.4006  0.9312
  742MOL0     C   90   2.868   1.324   2.675  0.4313 -1.0122 -0.0724
  742MOL0     C   91   2.915   1.461   2.675 -0.8862 -0.3796 -0.0237
  742MOL0     C   92   2.998   1.518   2.573  0.2735 -0.1850 -0.5850
  742MOL0     C   93   3.038   1.442   2.460  0.1546  0.6330  1.0422
  742MOL0     O   94   3.113   1.500   2.361  0.2686  0.3287  0.7821
  742MOL0     C   95   3.122   1.441   2.231 -0.3246 -0.3675 -0.3788
  742MOL0     C   96   2.988   1.453   2.169 -0.1107 -0.2765  1.4428
  742MOL0     C   97   2.981   1.392   2.028  0.9107 -0.1742  0.1990
  742MOL0     C   98   2.837   1.350   2.001 -0.0890  0.2146 -0.2156
  742MOL0     C   99   2.809   1.228   2.071 -0.7111 -0.1748 -0.8129
  742MOL0     C  100   2.779   1.128   2.127 -0.7480  0.2237 -0.4718
  742MOL0     C  101   2.996   1.303   2.463 -0.3843  0.4172 -0.6080
  742MOL0     C  102   2.910   1.243   2.566  0.5984  0.3597 -0.2272
  742MOL0     H  103   2.731   0.890   2.781  1.5430  0.6974  0.1296
  742MOL0     H  104   2.545   0.763   2.882  1.0762 -0.3763  4.2778
  742MOL0     H  105   2.284   0.805   3.225  0.2544 -1.3390 -0.2171
  742MOL0     H  106   2.306   0.976   3.184  3.0595  0.0649 -1.0230
  742MOL0     H  107   2.107   0.768   3.071 -2.1779 -1.0471  0.0460
  742MOL0     H  108   2.076   0.912   3.168  0.5484 -2.6892  1.4280
  742MOL0     H  109   2.139   1.063   2.987  2.0306 -0.0671 -1.9719
  742MOL0     H  110   2.178   0.930   2.884  1.3957  5.0147 -0.3825
  742MOL0     H  111   1.971   0.832   2.903 -2.0615  0.0034  0.1990
  742MOL0     H  112   1.894   0.972   2.988  0.7965 -0.7765 -0.3113
  742MOL0     H  113   1.993   1.121   2.789  0.6231 -0.1520 -1.3200
  742MOL0     H  114   2.018   0.947   2.723 -0.7963 -3.4383  3.9099
  742MOL0     H  115   1.758   0.938   2.734 -0.8800  1.5215 -0.1569
  742MOL0     H  116   1.772   1.107   2.801  2.1279  0.6848 -0.2303
  742MOL0     H  117   1.694   1.122   2.577 -0.0321 -0.4335 -0.6178
  742MOL0     H  118   1.870   1.169   2.573  0.4211 -0.0086  0.9203
  742MOL0     H  119   1.753   1.004   2.395  0.5754  2.6560  0.3846
  742MOL0     H  120   1.768   0.885   2.522 -2.2647  0.8762  0.9171
  742MOL0     H  121   2.001   1.154   2.352 -1.5685  0.2029 -0.1967
  742MOL0     H  122   2.320   0.955   2.250  2.3834  2.1530 -0.5944
  742MOL0     H  123   2.212   1.103   2.210  0.4866 -1.1972 -0.9436
  742MOL0     H  124   2.320   1.117   2.476 -0.7990  0.7489 -0.8691
  742MOL0     H  125   2.331   1.231   2.355  2.7216 -0.5321 -2.9247
  742MOL0     H  126   2.516   1.101   2.250  1.9069  1.3962  1.4130
  742MOL0     H  127   2.502   0.981   2.381 -2.5078 -0.5696  1.5945
  742MOL0     H  128   2.689   1.104   2.429  1.8588  2.0027 -2.7064
  742MOL0     H  129   2.570   1.165   2.547 -2.7575 -0.4355 -0.9608
  742MOL0     H  130   2.742   1.496   2.370 -0.9904  1.7142 -1.1643
  742MOL0     H  131   2.801   1.787   2.573  2.6515  1.8311 -0.9607
  742MOL0     H  132   2.844   1.706   2.424 -0.1331 -0.6240  0.2375
  742MOL0     H  133   2.700   1.823   2.432  0.1940 -1.2244  0.2843
  742MOL0     H  134   2.588   1.937   2.994  0.3692  2.2109 -0.6079
  742MOL0     H  135   2.427   2.094   3.065 -1.2504  1.1939 -1.1970
  742MOL0     H  136   2.123   2.233   3.193  2.7014  2.3089  1.6146
  742MOL0     H  137   2.284   2.168   3.203  0.4983  0.6781  0.1188
  742MOL0     H  138   2.359   2.333   3.087  0.4180 -1.5020 -0.6377
  742MOL0     H  139   2.246   2.314   2.955  2.0192 -0.3707 -0.3537
  742MOL0     H  140   2.203   2.537   3.095  0.3873  0.1656  2.0552
  742MOL0     H  141   2.159   2.425   3.227  1.0164 -2.9756 -0.2967
  742MOL0     H  142   2.017   2.422   2.951 -1.6819 -4.2984  0.6432
  742MOL0     H  143   1.981   2.337   3.100  0.8211  0.2367  1.6646
  742MOL0     H  144   2.005   2.644   3.092 -1.7859  0.4549 -1.4685
  742MOL0     H  145   1.922   2.553   3.208 -2.6677  0.1284 -0.5685
  742MOL0     H  146   1.842   2.591   2.916  4.4087 -3.6096  1.1434
  742MOL0     H  147   1.753   2.480   3.028 -2.0994 -0.0513  0.3344
  742MOL0     H  148   1.778   2.789   3.057 -0.3892  0.1566 -1.5013
  742MOL0     H  149   1.671   2.676   3.143 -2.0756  3.4966 -0.6807
  742MOL0     H  150   1.568   2.606   2.932  0.0478 -0.2227 -0.7118
  742MOL0     H  151   1.646   2.746   2.856 -1.5218  0.6903 -0.4597
  742MOL0     H  152   2.099   1.874   2.884 -0.3806  2.8291 -0.1900
  742MOL0     H  153   2.265   1.723   2.793  0.8832  2.1263 -2.6754
  742MOL0     H  154   2.411   1.542   2.723  3.7426 -0.9765  3.7367
  742MOL0     H  155   2.424   1.335   2.588 -1.5147  3.1698 -2.7937
  742MOL0     H  156   2.405   1.101   3.093 -0.6124  0.0124 -0.1050
  742MOL0     H  157   2.579   1.237   2.976  0.5902  0.0384 -1.6720
  742MOL0     H  158   2.887   1.524   2.758 -2.5365 -1.2853  0.1548
  742MOL0     H  159   3.012   1.626   2.570  1.1018 -0.2868 -0.6788
  742MOL0     H  160   3.205   1.500   2.190  1.6914 -1.5132  1.8185
  742MOL0     H  161   3.160   1.339   2.228  1.5451  0.2988 -0.8571
  742MOL0     H  162   2.964   1.560   2.175  1.7903  0.2985 -0.0525
  742MOL0     H  163   2.912   1.400   2.227 -1.2943  0.6687  0.8118
  742MOL0     H  164   3.060   1.317   2.018 -0.6567 -1.8016 -0.5015
  742MOL0     H  165   2.988   1.468   1.949 -1.2133  0.0808  0.2106
  742MOL0     H  166   2.808   1.327   1.898  1.1488 -1.6827 -0.1914
  742MOL0     H  167   2.775   1.434   2.033 -1.2513 -0.6987 -0.0009
  742MOL0     H  168   2.743   1.044   2.182 -0.7578 -0.4520 -1.4953
  742MOL0     H  169   3.030   1.235   2.386 -0.6650  1.4569 -1.6700
  742MOL0     H  170   2.893   1.136   2.560 -0.9065  0.6456 -2.8475
  743MOL0     O  171   8.432   9.299   1.919  0.0580  0.6469  0.4883
  743MOL0     C  172   8.338   9.266   1.851  0.9628  1.4094  0.1693
  743MOL0     O  173   8.255   9.158   1.869  0.3175 -0.1783 -0.2285
  743MOL0     C  174   8.298   9.064   1.963 -0.1179  0.1917 -2.1469
  743MOL0     C  175   8.431   8.999   1.967 -0.4981  0.0472  0.7192
  743MOL0     C  176   8.469   8.900   2.060  0.5013  0.1914 -0.7457
  743MOL0     C  177   8.365   8.865   2.155  0.3584 -0.2829 -1.9554
  743MOL0     O  178   8.398   8.763   2.248  0.4306  0.0566  0.1231
  743MOL0     C  179   8.500   8.808   2.335  0.1420 -0.2598 -0.4498
  743MOL0     C  180   8.464   8.795   2.486 -1.2552 -0.0703 -0.4637
  743MOL0     C  181   8.355   8.891   2.527 -0.2802  0.1498 -0.1620
  743MOL0     C  182   8.219   8.812   2.523 -0.7121  0.6932 -0.4574
  743MOL0     C  183   8.083   8.889   2.557  0.3693 -0.6903 -0.5372
  743MOL0     C  184   7.969   8.799   2.597 -0.1909 -0.8501  0.0793
  743MOL0     C  185   7.849   8.883   2.652  0.1895  0.5939 -0.5522
  743MOL0     C  186   7.740   8.799   2.713  0.4305  0.8279  0.1289
  743MOL0     N  187   7.665   8.846   2.830  0.1357  0.6299  0.1156
  743MOL0     C  188   7.704   8.943   2.921 -0.5436 -0.1690 -0.0944
  743MOL0     C  189   7.630   8.952   3.035 -0.8886 -0.7270  0.7903
  743MOL0     C  190   7.621   9.069   3.138 -0.4429  0.2652  0.4930
  743MOL0     C  191   7.726   9.039   3.248  0.4423 -0.2975  0.2733
  743MOL0     C  192   7.796   9.165   3.309  0.9695  0.2655  0.3960
  743MOL0     C  193   7.922   9.130   3.387  0.1509 -0.7656  0.9366
  743MOL0     O  194   7.879   9.053   3.498  0.8663 -0.3806  0.1600
  743MOL0     C  195   7.979   9.017   3.589  0.0143 -1.1008  0.6183
  743MOL0     C  196   8.114   9.050   3.580 -0.2937 -0.4518  0.5385
  743MOL0     C  197   8.201   9.014   3.691 -0.0209  0.0299 -0.1343
  743MOL0     C  198   8.341   9.065   3.672 -0.2904 -0.2625 -0.4469
  743MOL0     C  199   8.148   8.939   3.804  0.3039 -0.2177  0.0391
  743MOL0     C  200   8.233   8.898   3.911 -0.1548  1.1668 -0.6582
  743MOL0     O  201   8.177   8.808   3.997 -0.2436 -0.6809 -0.5923
  743MOL0     C  202   8.276   8.756   4.079 -0.0760 -0.2217  0.0737
  743MOL0     C  203   8.309   8.824   4.196 -0.4157 -0.6095  0.4467
  743MOL0     C  204   8.393   8.755   4.286 -0.8137  0.2590  0.3845
  743MOL0     C  205   8.437   8.621   4.267 -0.8869  0.1301 -0.7181
  743MOL0     O  206   8.508   8.557   4.371 -0.1281 -0.1944  0.2064
  743MOL0     C  207   8.650   8.599   4.370 -0.3082  0.0295  0.0402
  743MOL0     C  208   8.687   8.697   4.474  0.6373  0.0800 -0.2546
  743MOL0     C  209   8.832   8.724   4.457  0.3063  0.3459  0.3119
  743MOL0     C  210   8.888   8.807   4.563 -0.1060  0.3795  0.3114
  743MOL0     C  211   9.044   8.806   4.547  0.0776 -0.4148  0.8959
  743MOL0     C  212   9.101   8.919   4.637  0.8730 -0.0980 -0.3284
  743MOL0     C  213   9.254   8.900   4.649  0.3068 -0.6306  0.0347
  743MOL0     C  214   9.302   9.000   4.738 -1.2606 -0.3182  0.1925
  743MOL0    Cl  215   9.470   8.938   4.801  0.0439  0.3765 -0.1866
  743MOL0     C  216   8.395   8.555   4.153  0.6834  0.3018  0.2142
  743MOL0     C  217   8.309   8.622   4.053 -0.7603  0.6478  0.3629
  743MOL0     O  218   8.334   8.963   3.925 -0.0440  0.2351  0.6547
  743MOL0     C  219   8.019   8.886   3.787  0.1629 -0.6187 -0.0100
  743MOL0     C  220   7.936   8.923   3.680  0.8485  1.2769 -0.4245
  743MOL0     N  221   7.527   8.859   3.013 -0.3397 -0.5607  1.1706
  743MOL0     N  222   7.553   8.795   2.892  0.6858  0.2983 -0.7211
  743MOL0     C  223   8.245   8.935   2.171 -0.2970 -0.2469 -0.1706
  743MOL0     C  224   8.212   9.026   2.071 -0.7814 -0.4768  0.6206
  743MOL0     C  225   8.302   9.367   1.750  0.0255  0.6508  0.9387
  743MOL0     C  226   8.386   9.480   1.728  0.0736 -0.2938  0.4246
  743MOL0     C  227   8.351   9.571   1.623 -0.4063 -0.2167  0.1314
  743MOL0     C  228   8.236   9.544   1.543  0.2056  0.4100 -0.3964
  743MOL0     O  229   8.202   9.624   1.439 -0.3548 -0.0854  0.5306
  743MOL0     C  230   8.301   9.652   1.337 -0.1198  0.0005  0.7366
  743MOL0     C  231   8.291   9.793   1.287 -0.3717 -0.3991 -0.5777
  743MOL0     C  232   8.172   9.837   1.198 -0.1451  0.8392 -0.1667
  743MOL0     C  233   8.178   9.787   1.050  0.3801  0.1779  0.1127
  743MOL0     C  234   8.059   9.831   0.973 -0.3334 -0.1408  0.5157
  743MOL0     C  235   7.956   9.861   0.926 -0.0120  0.2599  0.5083
  743MOL0     C  236   8.152   9.437   1.578 -0.6768  0.0039  0.6433
  743MOL0     C  237   8.180   9.344   1.686 -0.1473  0.7451 -0.5288
  743MOL0     H  238   8.504   9.033   1.894 -2.8744  4.0268 -0.1253
  743MOL0     H  239   8.562   8.847   2.043 -0.0225 -0.6437 -1.0490
  743MOL0     H  240   8.592   8.752   2.317  1.2551 -0.6177  4.7462
  743MOL0     H  241   8.530   8.912   2.319 -0.7897 -0.3064 -2.8202
  743MOL0     H  242   8.453   8.689   2.509 -0.2730  0.4859  3.0420
  743MOL0     H  243   8.548   8.822   2.550 -1.3145 -1.3773  0.1748
  743MOL0     H  244   8.375   8.925   2.629  2.0078 -1.9667  0.1876
  743MOL0     H  245   8.367   8.981   2.465  1.7134  1.2080  1.6491
  743MOL0     H  246   8.206   8.774   2.421 -2.5263 -1.5756  0.5137
  743MOL0     H  247   8.231   8.737   2.602  1.2671  2.1360  0.6916
  743MOL0     H  248   8.117   8.961   2.632  0.3828 -1.7168  0.4707
  743MOL0     H  249   8.055   8.949   2.470  0.2873  0.4464  0.2462
  743MOL0     H  250   7.941   8.742   2.508 -3.2994  1.2738 -0.4717
  743MOL0     H  251   8.011   8.724   2.664 -1.0701 -3.1817 -1.8512
  743MOL0     H  252   7.893   8.958   2.718 -1.7387  1.7292 -0.4873
  743MOL0     H  253   7.799   8.939   2.573 -0.2271  0.1573 -0.6001
  743MOL0     H  254   7.789   8.704   2.737  0.5010  0.5720 -0.9768
  743MOL0     H  255   7.674   8.777   2.629  1.3833 -4.3957  0.3833
  743MOL0     H  256   7.795   9.001   2.921 -0.3450 -0.4736  0.0923
  743MOL0     H  257   7.642   9.162   3.086  0.6092 -1.7387 -3.0034
  743MOL0     H  258   7.521   9.073   3.182 -0.0489 -2.4181  1.8823
  743MOL0     H  259   7.810   8.983   3.207  0.3478  1.1210 -2.0088
  743MOL0     H  260   7.681   8.978   3.327  0.6361 -0.1143  0.5261
  743MOL0     H  261   7.729   9.202   3.387  1.5379 -2.6713  2.4281
  743MOL0     H  262   7.815   9.234   3.226  1.0609 -0.3844 -0.1351
  743MOL0     H  263   7.965   9.224   3.423 -2.2464  0.8377 -0.1469
  743MOL0     H  264   8.003   9.082   3.331  1.7955  3.1869 -0.5029
  743MOL0     H  265   8.159   9.109   3.501 -0.2265 -1.8862 -0.5330
  743MOL0     H  266   8.359   9.078   3.565 -3.7483 -0.3989 -1.1685
  743MOL0     H  267   8.372   9.149   3.734  2.0368 -0.1342 -1.6840
  743MOL0     H  268   8.418   8.993   3.704  1.1569  1.4468  0.0774
  743MOL0     H  269   8.283   8.928   4.211  1.5686 -0.1533  1.0145
  743MOL0     H  270   8.407   8.803   4.382  3.9255 -0.4799  0.3258
  743MOL0     H  271   8.705   8.504   4.362  0.9357  0.8569 -2.2321
  743MOL0     H  272   8.662   8.653   4.276 -5.2107 -0.6398 -1.1973
  743MOL0     H  273   8.612   8.776   4.481 -0.4061 -0.7489 -1.5517
  743MOL0     H  274   8.674   8.632   4.561  0.2280 -4.7651 -3.5589
  743MOL0     H  275   8.858   8.757   4.356 -2.6408  0.4055 -0.5151
  743MOL0     H  276   8.877   8.627   4.480 -2.7402 -1.2204  0.1878
  743MOL0     H  277   8.841   8.906   4.565  0.0540  0.4944 -0.8404
  743MOL0     H  278   8.865   8.758   4.658 -1.5286 -1.6021 -0.9895
  743MOL0     H  279   9.075   8.816   4.443 -1.3860  0.7657  0.5348
  743MOL0     H  280   9.065   8.705   4.584 -3.4183 -1.5535  0.2089
  743MOL0     H  281   9.071   9.016   4.597 -1.0790 -0.9689 -1.0917
  743MOL0     H  282   9.063   8.904   4.738  0.2551  0.9941 -0.3831
  743MOL0     H  283   9.300   8.903   4.550  1.5315 -2.7761  0.4662
  743MOL0     H  284   9.276   8.803   4.695  1.9574 -0.9082 -1.2689
  743MOL0     H  285   9.235   9.002   4.824  0.0832  0.4890  1.2710
  743MOL0     H  286   9.312   9.092   4.680 -0.9420 -1.2276 -1.2602
  743MOL0     H  287   8.440   8.457   4.138  2.5061  1.1798 -0.2389
  743MOL0     H  288   8.286   8.574   3.959 -3.3020 -0.2278  1.3456
  743MOL0     H  289   7.980   8.827   3.870  1.8357 -0.7437  0.7413
  743MOL0     H  290   7.838   8.883   3.655  0.3674  2.3724 -0.3649
  743MOL0     H  291   8.183   8.901   2.254  0.1201 -2.5053 -0.7149
  743MOL0     H  292   8.115   9.073   2.062 -1.2761 -1.7111 -0.9590
  743MOL0     H  293   8.478   9.488   1.785 -0.1913 -3.8062  1.5782
  743MOL0     H  294   8.401   9.664   1.598 -1.9805  1.1302  1.7413
  743MOL0     H  295   8.406   9.639   1.365 -0.3180 -0.9791  1.0591
  743MOL0     H  296   8.288   9.578   1.257  0.9439 -0.3898  0.9083
  743MOL0     H  297   8.383   9.808   1.230 -0.2565  0.9793 -0.0722
  743MOL0     H  298   8.306   9.859   1.373 -1.1592 -1.5169  0.4442
  743MOL0     H  299   8.174   9.946   1.209  0.1471  0.5552  3.7912
  743MOL0     H  300   8.081   9.788   1.234 -0.2723  0.5713 -0.8266
  743MOL0     H  301   8.194   9.679   1.059 -0.5070  0.2068  2.9619
  743MOL0     H  302   8.264   9.835   1.003  0.6816 -1.8639 -1.5671
  743MOL0     H  303   7.854   9.870   0.894  0.9225 -0.9398 -3.2405
  743MOL0     H  304   8.066   9.426   1.513 -0.7926  0.1729  0.7659
  743MOL0     H  305   8.121   9.257   1.715 -3.6215  4.2616  4.7727
  744MOL0     O  306   0.439   5.037   9.424  0.2251 -0.5227 -0.0935
  744MOL0     C  307   0.474   4.968   9.333 -1.3184  0.2179  0.0636
  744MOL0     O  308   0.538   5.006   9.217 -0.2407 -0.3468  0.2778
  744MOL0     C  309   0.551   5.146   9.201  0.1787  0.3777  0.0266
  744MOL0     C  310   0.452   5.235   9.196 -0.4413  0.6727 -0.2454
  744MOL0     C  311   0.486   5.367   9.192 -0.0520 -0.6037  0.0913
  744MOL0     C  312   0.620   5.410   9.173 -0.2936  0.2413 -0.3811
  744MOL0     O  313   0.644   5.545   9.135 -0.1905  0.3645  0.8201
  744MOL0     C  314   0.569   5.644   9.190  0.0909 -0.3529 -0.3550
  744MOL0     C  315   0.617   5.780   9.146  0.5049  0.0809 -0.2706
  744MOL0     C  316   0.753   5.820   9.185 -1.0671  0.1511  0.2627
  744MOL0     C  317   0.765   5.970   9.156 -0.4592  0.3408 -0.4313
  744MOL0     C  318   0.912   6.010   9.190  0.6713 -1.1955  0.1316
  744MOL0     C  319   0.962   6.152   9.157 -0.5424 -0.2098  1.1616
  744MOL0     C  320   0.880   6.268   9.220 -0.1186 -0.5108  0.2887
  744MOL0     C  321   0.907   6.401   9.142 -0.8989  0.6898 -0.2429
  744MOL0     N  322   0.900   6.519   9.232  0.4562  1.3752  0.2628
  744MOL0     C  323   0.957   6.636   9.215  1.1610 -0.0607 -0.1637
  744MOL0     C  324   0.917   6.708   9.316  0.1228 -0.3071 -0.9577
  744MOL0     C  325   0.963   6.853   9.329 -0.4138 -1.1654  0.8918
  744MOL0     C  326   0.868   6.942   9.402  0.1644  0.3023  0.0304
  744MOL0     C  327   0.743   6.982   9.331  1.0541  1.1859 -0.0530
  744MOL0     C  328   0.761   7.105   9.238 -0.1725 -0.1434 -0.1429
  744MOL0     O  329   0.674   7.088   9.127 -0.2726 -0.2966 -0.6671
  744MOL0     C  330   0.616   7.190   9.059 -0.4965  0.3247  0.7053
  744MOL0     C  331   0.641   7.325   9.062  0.3630 -0.3601  0.1041
  744MOL0     C  332   0.580   7.413   8.971 -0.7082  0.2446  0.4266
  744MOL0     C  333   0.640   7.546   8.980 -0.4406 -0.0962  0.1053
  744MOL0     C  334   0.503   7.375   8.862 -0.5643  0.3535  0.3380
  744MOL0     C  335   0.423   7.451   8.765  0.5665 -0.1913 -0.0486
  744MOL0     O  336   0.394   7.397   8.641 -0.3439 -0.6195  0.3849
  744MOL0     C  337   0.322   7.474   8.552  0.4539  0.2145  0.3953
  744MOL0     C  338   0.347   7.469   8.413 -0.2097  0.2966 -0.7596
  744MOL0     C  339   0.269   7.534   8.317 -0.3815 -0.2343  0.1956
  744MOL0     C  340   0.154   7.598   8.353  1.0675  0.2824 -0.2561
  744MOL0     O  341   0.055   7.640   8.265  0.0154  0.5381 -0.3722
  744MOL0     C  342   0.082   7.654   8.125 -0.0453 -0.0537 -0.3989
  744MOL0     C  343  -0.043   7.723   8.068 -0.3623  0.6143 -0.2163
  744MOL0     C  344  -0.056   7.870   8.125  0.6475  0.4002  0.6454
  744MOL0     C  345  -0.202   7.929   8.088  0.6279  0.6157  0.2193
  744MOL0     C  346  -0.228   8.069   8.156  0.0536 -0.2867  0.3330
  744MOL0     C  347  -0.118   8.179   8.118 -0.1955 -0.1415  0.6802
  744MOL0     C  348  -0.185   8.311   8.164  0.2468 -0.8326  0.0296
  744MOL0     C  349  -0.096   8.432   8.121 -0.4138  0.1964  0.4629
  744MOL0    Cl  350  -0.198   8.577   8.132 -0.3714  0.7832 -0.2276
  744MOL0     C  351   0.124   7.605   8.490  0.5289  0.4420 -0.1931
  744MOL0     C  352   0.200   7.536   8.592 -0.3977  0.2310  0.1678
  744MOL0     O  353   0.385   7.556   8.812 -0.6254 -0.4059 -0.3105
  744MOL0     C  354   0.477   7.232   8.862 -1.2118  0.6063 -0.3278
  744MOL0     C  355   0.537   7.141   8.953 -0.1429  0.0053  0.2614
  744MOL0     N  356   0.830   6.637   9.405 -0.1481  0.3049  0.5218
  744MOL0     N  357   0.814   6.529   9.339  0.2370  1.0049  0.4233
  744MOL0     C  358   0.721   5.319   9.162  0.4987  1.1102  0.0899
  744MOL0     C  359   0.687   5.178   9.178  0.2556  0.6775 -0.2003
  744MOL0     C  360   0.417   4.829   9.310 -0.1887 -0.6784 -0.0480
  744MOL0     C  361   0.422   4.764   9.188 -1.0876 -0.3562 -0.8070
  744MOL0     C  362   0.355   4.643   9.155 -0.3538 -0.0051 -0.7344
  744MOL0     C  363   0.281   4.583   9.265  0.2921 -0.5105  0.1532
  744MOL0     O  364   0.227   4.462   9.226  0.1953 -0.2628 -0.4586
  744MOL0     C  365   0.178   4.377   9.332 -0.0923 -0.0250  0.1677
  744MOL0     C  366   0.037   4.401   9.371 -0.3197 -0.2982 -0.2877
  744MOL0     C  367  -0.058   4.327   9.268  0.1228  0.1612 -0.0626
  744MOL0     C  368  -0.199   4.397   9.254 -0.5238  0.7185  0.2275
  744MOL0     C  369  -0.264   4.423   9.385  0.0106 -0.7513 -0.4832
  744MOL0     C  370  -0.298   4.455   9.491  0.5512  0.5595  0.0571
  744MOL0     C  371   0.264   4.658   9.384 -0.2526 -0.0093 -1.0342
  744MOL0     C  372   0.341   4.771   9.409  1.3874 -0.4109 -0.8741
  744MOL0     H  373   0.347   5.205   9.200 -1.4624  3.9561  2.0037
  744MOL0     H  374   0.406   5.440   9.188  0.5657  0.0070 -2.9081
  744MOL0     H  375   0.463   5.629   9.165  0.0511  0.6994 -0.8806
  744MOL0     H  376   0.575   5.637   9.299 -3.3754 -1.4326 -0.1017
  744MOL0     H  377   0.604   5.795   9.038  0.8544 -0.4455 -0.3932
  744MOL0     H  378   0.543   5.849   9.187 -1.3385 -1.7718 -0.3721
  744MOL0     H  379   0.769   5.788   9.288  0.3857 -1.1110 -0.3212
  744MOL0     H  380   0.820   5.763   9.120  0.7104  1.2151  1.0758
  744MOL0     H  381   0.749   5.998   9.051  1.3670 -2.2581 -1.5133
  744MOL0     H  382   0.687   6.023   9.211 -0.6397 -0.4810  0.1293
  744MOL0     H  383   0.925   6.013   9.299  3.9364  1.9494 -0.1464
  744MOL0     H  384   0.987   5.939   9.155 -0.5787 -2.8369  0.6445
  744MOL0     H  385   1.066   6.161   9.192 -0.6863  3.1344  1.0603
  744MOL0     H  386   0.961   6.170   9.049  0.7990  1.9424  1.4373
  744MOL0     H  387   0.771   6.259   9.231 -0.1874 -0.8147 -0.5884
  744MOL0     H  388   0.917   6.286   9.322  1.1708  0.7866 -0.3693
  744MOL0     H  389   0.830   6.424   9.067 -1.6779 -0.1623  0.2743
  744MOL0     H  390   1.007   6.400   9.097  0.7686  1.1721  3.1364
  744MOL0     H  391   1.031   6.662   9.140  1.6505  1.3550  0.7842
  744MOL0     H  392   1.053   6.850   9.391  1.1558  1.4626 -1.0555
  744MOL0     H  393   0.987   6.881   9.226 -1.0420  1.7669  1.4604
  744MOL0     H  394   0.922   7.027   9.444  2.9780 -1.3647  0.0394
  744MOL0     H  395   0.846   6.888   9.494  3.0530  1.5218  1.6038
  744MOL0     H  396   0.657   7.010   9.393 -0.2946 -0.4683 -1.1089
  744MOL0     H  397   0.710   6.895   9.273 -1.0724  1.6123  0.4414
  744MOL0     H  398   0.863   7.110   9.198 -0.4787  4.0865 -0.9514
  744MOL0     H  399   0.746   7.196   9.298  1.0505 -1.1382  1.7959
  744MOL0     H  400   0.707   7.367   9.137  0.4312  0.4300 -0.3886
  744MOL0     H  401   0.594   7.608   9.058 -3.7098  0.0349 -1.7460
  744MOL0     H  402   0.749   7.546   8.989 -0.4071 -1.0782 -0.2267
  744MOL0     H  403   0.619   7.606   8.890  2.4750  2.9782  1.2594
  744MOL0     H  404   0.434   7.412   8.381 -0.7468 -0.8315 -0.3052
  744MOL0     H  405   0.283   7.514   8.212 -4.7938 -1.3935 -0.3861
  744MOL0     H  406   0.173   7.709   8.097  0.4258 -0.5228  0.1638
  744MOL0     H  407   0.085   7.553   8.082 -0.1480  0.3965 -1.4990
  744MOL0     H  408  -0.028   7.728   7.960  0.1401  0.1940 -0.1689
  744MOL0     H  409  -0.128   7.658   8.088  0.5628 -0.1517  1.4255
  744MOL0     H  410   0.012   7.936   8.070  1.5583 -0.8502  0.2322
  744MOL0     H  411  -0.039   7.874   8.233  0.3778  0.1758  0.6946
  744MOL0     H  412  -0.204   7.940   7.979  0.5479  1.5066  0.2992
  744MOL0     H  413  -0.285   7.862   8.112  1.2595 -0.0209  0.6398
  744MOL0     H  414  -0.244   8.054   8.263 -0.4749 -0.6062  0.2103
  744MOL0     H  415  -0.318   8.111   8.109  0.2924 -0.3763 -0.2169
  744MOL0     H  416  -0.033   8.168   8.186 -1.4184  2.5604  2.8074
  744MOL0     H  417  -0.083   8.169   8.014  1.2510 -1.8193  1.2745
  744MOL0     H  418  -0.203   8.318   8.272  1.7222  2.5288  0.2023
  744MOL0     H  419  -0.276   8.324   8.105  1.7888  0.7897 -2.1263
  744MOL0     H  420  -0.067   8.418   8.016 -1.8400 -1.0735  0.1985
  744MOL0     H  421  -0.005   8.459   8.175  0.4395  0.7448 -1.1944
  744MOL0     H  422   0.040   7.656   8.536  0.2693 -0.4446  0.3204
  744MOL0     H  423   0.152   7.533   8.689  1.9032  0.0849  1.3779
  744MOL0     H  424   0.423   7.189   8.778  3.0091  2.6540 -4.5718
  744MOL0     H  425   0.519   7.035   8.962 -5.3224  0.6320  0.3687
  744MOL0     H  426   0.824   5.346   9.139  1.3353 -2.4849 -0.9651
  744MOL0     H  427   0.760   5.101   9.155 -0.8289  0.2224 -2.3146
  744MOL0     H  428   0.475   4.808   9.104 -1.7049  0.6486 -0.6780
  744MOL0     H  429   0.372   4.591   9.061 -1.3068 -0.1987 -0.8121
  744MOL0     H  430   0.190   4.272   9.303 -1.5713 -0.0547 -0.4276
  744MOL0     H  431   0.238   4.384   9.423 -0.8995 -3.1958  1.0784
  744MOL0     H  432   0.015   4.508   9.378 -1.1245 -0.4753  0.0651
  744MOL0     H  433   0.012   4.372   9.474  0.4085 -0.2711 -0.0935
  744MOL0     H  434  -0.068   4.223   9.299 -2.4235 -0.0824 -1.4074
  744MOL0     H  435  -0.020   4.318   9.165  2.0353  1.5624  0.4565
  744MOL0     H  436  -0.263   4.344   9.183  1.0497 -0.2405 -0.5371
  744MOL0     H  437  -0.179   4.492   9.204 -3.0773  0.6123 -1.1932
  744MOL0     H  438  -0.318   4.493   9.589 -0.5476 -0.1431  0.1273
  744MOL0     H  439   0.197   4.616   9.459  3.2371 -2.5509  0.9632
  744MOL0     H  440   0.333   4.823   9.504  2.7831 -3.0802  0.8545
  745MOL0     O  441   1.694   2.401   6.548 -0.2681  0.7279  0.5878
  745MOL0     C  442   1.655   2.317   6.467  0.2116 -0.2163  0.1504
  745MOL0     O  443   1.699   2.313   6.329  0.5469 -0.8259  0.3502
  745MOL0     C  444   1.797   2.392   6.285 -0.4480 -1.1090 -0.1486
  745MOL0     C  445   1.790   2.535   6.269  0.3266 -0.0700 -0.3495
  745MOL0     C  446   1.901   2.610   6.219 -0.2560  0.5673  0.5727
  745MOL0     C  447   2.020   2.539   6.176  0.2837 -0.1542 -0.2855
  745MOL0     O  448   2.139   2.585   6.123 -0.2550 -0.2508 -0.4548
  745MOL0     C  449   2.141   2.725   6.097  0.2561  0.2176  0.9087
  745MOL0     C  450   2.265   2.758   6.008  0.5434  0.2743  0.5978
  745MOL0     C  451   2.287   2.898   5.983 -0.5983 -0.0988  0.0759
  745MOL0     C  452   2.177   2.959   5.877  0.2550 -0.4972 -0.0408
  745MOL0     C  453   2.200   3.099   5.843 -0.0993  0.1362 -0.2086
  745MOL0     C  454   2.312   3.115   5.736  0.3433 -0.8003  0.6723
  745MOL0     C  455   2.331   3.264   5.695 -0.0323 -0.5788 -1.0259
  745MOL0     C  456   2.404   3.289   5.565 -0.4992 -0.0746  0.5259
  745MOL0     N  457   2.545   3.254   5.574 -0.5110  0.5746 -0.6600
  745MOL0     C  458   2.611   3.184   5.476 -0.2675  0.6137  0.3535
  745MOL0     C  459   2.739   3.159   5.525 -0.7042 -0.3031 -0.4763
  745MOL0     C  460   2.856   3.094   5.452 -0.4435 -0.1020  0.2794
  745MOL0     C  461   2.822   2.964   5.370 -0.0671  0.4920  0.4628
  745MOL0     C  462   2.914   2.935   5.250 -0.9674  0.1873  0.3034
  745MOL0     C  463   2.914   2.792   5.197 -0.0040 -0.0906  0.2381
  745MOL0     O  464   2.780   2.746   5.214 -0.1692 -0.3037 -0.1864
  745MOL0     C  465   2.718   2.720   5.097  0.4080 -1.0322  0.0907
  745MOL0     C  466   2.774   2.639   4.996  0.2902 -0.1990 -0.5289
  745MOL0     C  467   2.701   2.630   4.883  1.1504  0.5937 -0.3026
  745MOL0     C  468   2.748   2.514   4.803  0.3598 -0.1935  0.0799
  745MOL0     C  469   2.575   2.697   4.857  0.5515 -1.0628 -0.0776
  745MOL0     C  470   2.481   2.667   4.744  0.1438 -0.6350  0.3393
  745MOL0     O  471   2.353   2.699   4.760  0.1582 -1.2980  0.6066
  745MOL0     C  472   2.262   2.699   4.653  0.1799  0.4383  0.2319
  745MOL0     C  473   2.227   2.568   4.601 -0.7377  0.2929  0.1147
  745MOL0     C  474   2.147   2.555   4.495 -0.2470  0.1809  0.4097
  745MOL0     C  475   2.086   2.668   4.445  0.8229 -0.0457  0.5085
  745MOL0     O  476   1.992   2.650   4.347 -0.4884  0.4649  0.5858
  745MOL0     C  477   1.855   2.665   4.387 -0.7516  0.6783 -1.1143
  745MOL0     C  478   1.763   2.670   4.264 -0.2617  0.5017 -0.8391
  745MOL0     C  479   1.799   2.785   4.172  0.3569 -0.4844  0.5201
  745MOL0     C  480   1.712   2.796   4.046  0.2725 -0.0269  0.1001
  745MOL0     C  481   1.754   2.910   3.960 -0.4041  0.1360  1.1608
  745MOL0     C  482   1.665   2.949   3.836  0.0176  0.3170 -0.1726
  745MOL0     C  483   1.630   2.820   3.747  0.5182  0.2519 -0.2541
  745MOL0     C  484   1.552   2.859   3.616 -0.7947 -0.7388 -0.0209
  745MOL0    Cl  485   1.665   2.911   3.493 -0.0383 -0.1487  0.2590
  745MOL0     C  486   2.121   2.790   4.482  0.0567  0.6887 -0.9699
  745MOL0     C  487   2.207   2.814   4.590  0.7017  0.8536 -0.9311
  745MOL0     O  488   2.531   2.638   4.639 -0.5436  0.0055  0.7460
  745MOL0     C  489   2.533   2.786   4.958  0.8541 -0.7704  0.1915
  745MOL0     C  490   2.601   2.794   5.078  0.4092 -0.1382 -0.2245
  745MOL0     N  491   2.750   3.210   5.656 -0.6501  0.1023  0.0228
  745MOL0     N  492   2.629   3.254   5.689 -0.5562 -0.3175  0.4713
  745MOL0     C  493   2.025   2.401   6.185  0.7723  0.3429 -0.8485
  745MOL0     C  494   1.912   2.327   6.244  0.0477 -0.0435  0.5645
  745MOL0     C  495   1.562   2.212   6.515  0.1144 -0.0640  0.0938
  745MOL0     C  496   1.556   2.087   6.465 -0.5700 -0.1903 -0.1923
  745MOL0     C  497   1.459   1.995   6.516 -0.4226  0.4476 -0.2129
  745MOL0     C  498   1.371   2.024   6.619 -0.7627 -0.2453 -0.7069
  745MOL0     O  499   1.303   1.923   6.681  0.5311  0.0031  0.4965
  745MOL0     C  500   1.181   1.895   6.615  0.0815 -0.2074 -0.3778
  745MOL0     C  501   1.105   1.798   6.698 -0.4643 -0.8576 -0.1936
  745MOL0     C  502   1.183   1.661   6.707 -0.4327  0.1421 -0.5832
  745MOL0     C  503   1.133   1.595   6.838  0.4905 -0.8730  0.5643
  745MOL0     C  504   1.179   1.457   6.844 -0.2281 -0.0815  0.1703
  745MOL0     C  505   1.230   1.349   6.834  0.0337 -0.2315  0.4111
  745MOL0     C  506   1.388   2.153   6.682 -0.5516  0.2533 -1.0336
  745MOL0     C  507   1.480   2.241   6.631  1.3266 -0.4017 -0.0459
  745MOL0     H  508   1.702   2.592   6.300  2.2800  4.6004 -2.3582
  745MOL0     H  509   1.896   2.718   6.211  0.2350  0.4938 -0.9935
  745MOL0     H  510   2.050   2.756   6.046  0.7561 -0.0655 -0.1895
  745MOL0     H  511   2.134   2.792   6.183  0.9482  1.0421  0.3359
  745MOL0     H  512   2.344   2.713   6.069 -2.0038 -2.4459  2.1649
  745MOL0     H  513   2.264   2.713   5.907  2.1727  2.5373 -0.5129
  745MOL0     H  514   2.271   2.956   6.075 -2.0798 -0.4900  0.0923
  745MOL0     H  515   2.390   2.907   5.950  0.4315 -2.6526  2.2422
  745MOL0     H  516   2.190   2.897   5.788  4.4404  0.2039 -0.1074
  745MOL0     H  517   2.074   2.947   5.914  0.0960 -1.2522 -0.6910
  745MOL0     H  518   2.105   3.135   5.803 -0.0856  1.0090  0.5078
  745MOL0     H  519   2.219   3.151   5.938  1.2946  1.9034 -1.3765
  745MOL0     H  520   2.400   3.066   5.779 -0.1127 -0.6679  1.8128
  745MOL0     H  521   2.273   3.066   5.646  1.6298  0.5651 -0.6854
  745MOL0     H  522   2.232   3.309   5.682 -0.9958 -2.6342 -1.2751
  745MOL0     H  523   2.386   3.324   5.768  2.2799 -1.0340 -2.3295
  745MOL0     H  524   2.397   3.397   5.545 -3.4098 -0.6265 -2.2218
  745MOL0     H  525   2.349   3.258   5.476  1.2762 -1.7069 -0.0710
  745MOL0     H  526   2.576   3.153   5.378  1.4381 -1.7215  0.3911
  745MOL0     H  527   2.889   3.170   5.380 -2.7562  1.9390  1.2171
  745MOL0     H  528   2.942   3.071   5.515  0.6474  1.8514 -0.4094
  745MOL0     H  529   2.720   2.975   5.332  0.1428  0.5875 -0.0928
  745MOL0     H  530   2.821   2.874   5.433  1.9438 -2.2079 -2.9772
  745MOL0     H  531   3.012   2.969   5.285  0.4880 -2.6348 -0.7213
  745MOL0     H  532   2.905   2.997   5.160  0.5332 -0.4973 -0.3694
  745MOL0     H  533   2.995   2.727   5.231  0.5789 -0.3640 -1.5706
  745MOL0     H  534   2.939   2.806   5.091  0.4758  2.0036  0.5785
  745MOL0     H  535   2.866   2.582   5.011 -0.1485 -0.2442  2.9720
  745MOL0     H  536   2.807   2.443   4.863 -0.1449 -0.1127  0.6732
  745MOL0     H  537   2.662   2.459   4.764  0.1027  1.1915 -1.4170
  745MOL0     H  538   2.808   2.552   4.720 -0.4058  0.2111 -0.2972
  745MOL0     H  539   2.281   2.480   4.635  1.9843  0.5550 -2.9477
  745MOL0     H  540   2.130   2.451   4.469 -0.3051  1.0249 -3.5855
  745MOL0     H  541   1.825   2.581   4.451  0.6120  1.9182  1.2944
  745MOL0     H  542   1.828   2.752   4.447 -0.7523 -1.4136  2.1773
  745MOL0     H  543   1.763   2.570   4.220 -0.6489  0.4711 -0.7723
  745MOL0     H  544   1.657   2.685   4.283  0.4552  6.2956  0.4873
  745MOL0     H  545   1.905   2.784   4.146  0.0959 -2.5831 -0.6760
  745MOL0     H  546   1.783   2.874   4.233 -1.9996 -0.7276  0.3540
  745MOL0     H  547   1.708   2.703   3.989 -0.1126  0.0160  0.0537
  745MOL0     H  548   1.609   2.814   4.078  0.5387  1.8281  0.0458
  745MOL0     H  549   1.854   2.891   3.919  0.5062  0.2175  3.1890
  745MOL0     H  550   1.757   3.005   4.015  1.7522  1.1676 -0.5798
  745MOL0     H  551   1.573   2.993   3.875 -0.1050 -0.8501  0.9014
  745MOL0     H  552   1.724   3.017   3.774 -0.0209 -1.2431 -2.0061
  745MOL0     H  553   1.554   2.776   3.812  2.6488 -0.2454  2.0626
  745MOL0     H  554   1.711   2.749   3.727  1.9177  1.3424  1.3211
  745MOL0     H  555   1.470   2.929   3.629 -0.0825 -0.3310  2.9756
  745MOL0     H  556   1.507   2.770   3.571  0.8150 -0.9725 -1.2652
  745MOL0     H  557   2.078   2.883   4.445  2.3502  2.2609  0.0054
  745MOL0     H  558   2.229   2.911   4.633 -1.5760  1.2599 -0.5896
  745MOL0     H  559   2.450   2.854   4.944  1.1264 -0.5528 -0.3606
  745MOL0     H  560   2.578   2.861   5.161 -1.0705  2.9074 -2.8659
  745MOL0     H  561   2.109   2.346   6.144  1.5683  2.7783 -2.7265
  745MOL0     H  562   1.912   2.220   6.262 -0.8091  0.2085  2.1862
  745MOL0     H  563   1.624   2.053   6.387 -1.5031 -2.9899  0.0926
  745MOL0     H  564   1.461   1.895   6.473 -0.8110 -0.7782  2.4091
  745MOL0     H  565   1.123   1.988   6.608 -0.4202 -0.5379 -0.6620
  745MOL0     H  566   1.196   1.870   6.510 -1.5393 -0.0316 -0.6843
  745MOL0     H  567   1.000   1.781   6.672 -0.7515 -0.4829  0.6851
  745MOL0     H  568   1.104   1.839   6.799  5.4657 -1.0384  0.2944
  745MOL0     H  569   1.292   1.669   6.716 -0.1709 -2.0886 -1.1152
  745MOL0     H  570   1.152   1.595   6.626  3.9989 -3.1070 -0.0058
  745MOL0     H  571   1.024   1.592   6.836  0.4443 -0.0351 -1.8712
  745MOL0     H  572   1.159   1.657   6.924 -4.1986  3.3228 -0.5423
  745MOL0     H  573   1.277   1.261   6.797  1.2207  1.7124 -3.2305
  745MOL0     H  574   1.324   2.175   6.766  1.9523 -2.8671  1.9660
  745MOL0     H  575   1.480   2.339   6.677 -1.1868  0.9515 -2.5874
  746MOL0     O  576   1.921   7.382   8.057  0.7027 -0.2768  0.5069
  746MOL0     C  577   1.870   7.381   7.941 -0.1734 -0.0734 -0.8079
  746MOL0     O  578   1.933   7.417   7.818  0.4190  0.6931  0.3147
  746MOL0     C  579   2.071   7.456   7.840 -0.0580 -0.0292  1.0147
  746MOL0     C  580   2.167   7.360   7.838  0.8930 -0.0936  0.8011
  746MOL0     C  581   2.302   7.392   7.835  0.3522  0.2162  0.1016
  746MOL0     C  582   2.347   7.518   7.858  0.0749 -0.2932  0.2889
  746MOL0     O  583   2.480   7.529   7.877 -0.1552  0.0589  0.4394
  746MOL0     C  584   2.552   7.652   7.898 -0.2474 -0.7473  0.3428
  746MOL0     C  585   2.702   7.649   7.875  0.0115  0.6321  0.2827
  746MOL0     C  586   2.756   7.543   7.967 -0.2889 -0.4564 -0.6279
  746MOL0     C  587   2.877   7.467   7.909  0.3622  0.6282 -0.5274
  746MOL0     C  588   2.839   7.367   7.792  0.2586 -0.3504 -0.4453
  746MOL0     C  589   2.730   7.266   7.829  0.6550 -0.4594 -0.6301
  746MOL0     C  590   2.731   7.153   7.727 -0.1649  0.7032 -0.8811
  746MOL0     C  591   2.671   7.024   7.793 -0.7121  0.2074 -0.3971
  746MOL0     N  592   2.698   6.902   7.712  0.0059  0.1222 -0.5333
  746MOL0     C  593   2.657   6.879   7.581  0.0428 -0.8195 -0.3128
  746MOL0     C  594   2.670   6.751   7.567 -0.4811  0.8367  0.1888
  746MOL0     C  595   2.624   6.681   7.436  0.4301 -0.8282 -0.7564
  746MOL0     C  596   2.720   6.572   7.384 -0.0415  0.0245  0.2442
  746MOL0     C  597   2.690   6.532   7.234 -0.4407  0.6491  0.2961
  746MOL0     C  598   2.576   6.435   7.219 -0.1517 -0.1054 -0.1544
  746MOL0     O  599   2.556   6.412   7.077  0.4292  0.1827  0.6214
  746MOL0     C  600   2.426   6.383   7.044  0.4510  0.0127  0.3964
  746MOL0     C  601   2.381   6.450   6.929  0.6400 -1.0571 -0.5928
  746MOL0     C  602   2.262   6.418   6.863  0.2668  0.4356 -0.1009
  746MOL0     C  603   2.216   6.493   6.742  0.0937  0.8900 -0.6236
  746MOL0     C  604   2.194   6.303   6.905 -1.1673 -0.0191 -0.8140
  746MOL0     C  605   2.092   6.248   6.822 -0.2872 -0.1080 -0.2604
  746MOL0     O  606   1.963   6.230   6.873 -0.6187  0.0282 -0.2470
  746MOL0     C  607   1.871   6.180   6.780 -0.7492 -1.1775  0.3603
  746MOL0     C  608   1.780   6.265   6.714 -0.3020 -0.0945  1.1411
  746MOL0     C  609   1.686   6.222   6.629 -0.4984  1.3206 -0.9844
  746MOL0     C  610   1.660   6.081   6.615 -0.1969 -0.0229 -0.1775
  746MOL0     O  611   1.566   6.033   6.529 -0.3477 -0.2061 -0.4610
  746MOL0     C  612   1.584   5.902   6.475  0.5273  0.2495  1.0331
  746MOL0     C  613   1.544   5.888   6.327 -0.0282 -0.6412 -0.8936
  746MOL0     C  614   1.560   5.745   6.282 -0.3916 -0.1002  0.4856
  746MOL0     C  615   1.424   5.675   6.319 -0.0507  0.9478 -0.1033
  746MOL0     C  616   1.442   5.527   6.329 -0.5382 -0.9440 -0.7591
  746MOL0     C  617   1.304   5.461   6.362 -0.2785 -0.6685  0.4532
  746MOL0     C  618   1.312   5.311   6.373  0.4090 -0.2315  0.7027
  746MOL0     C  619   1.337   5.256   6.237 -0.0405  1.1707  0.4686
  746MOL0    Cl  620   1.336   5.078   6.234 -0.5680 -0.1760 -0.1840
  746MOL0     C  621   1.748   5.989   6.684  0.8207 -0.2628 -0.7036
  746MOL0     C  622   1.844   6.043   6.767  0.5057 -0.4319  0.4357
  746MOL0     O  623   2.126   6.218   6.710 -0.6074  0.3863 -0.0178
  746MOL0     C  624   2.233   6.244   7.035 -0.0901 -0.1977  0.1805
  746MOL0     C  625   2.347   6.282   7.097  0.8765 -0.2775  0.0345
  746MOL0     N  626   2.738   6.700   7.677  1.1694  0.0287 -0.2416
  746MOL0     N  627   2.755   6.793   7.762 -0.0385  0.4155  0.5445
  746MOL0     C  628   2.250   7.620   7.869  0.1004  0.2998  0.1157
  746MOL0     C  629   2.112   7.589   7.845  0.5719 -0.3047 -0.0313
  746MOL0     C  630   1.725   7.338   7.924 -0.5902  0.1028 -0.0452
  746MOL0     C  631   1.623   7.365   8.014  0.0181  0.7227 -0.8887
  746MOL0     C  632   1.492   7.306   8.000 -0.1205  0.1845  1.1509
  746MOL0     C  633   1.460   7.236   7.877 -0.2690  0.1536  0.4333
  746MOL0     O  634   1.336   7.195   7.837  0.1493  0.3423  0.1798
  746MOL0     C  635   1.243   7.302   7.824 -0.1965  0.0898  0.6283
  746MOL0     C  636   1.105   7.257   7.764  0.5439 -0.4934 -0.5106
  746MOL0     C  637   1.056   7.134   7.832 -0.8516  0.2608 -0.0778
  746MOL0     C  638   0.910   7.091   7.795  0.0508 -0.0183 -0.8927
  746MOL0     C  639   0.878   6.945   7.827 -0.1622 -0.7094 -0.2670
  746MOL0     C  640   0.834   6.832   7.847  0.1174  1.2752 -0.1178
  746MOL0     C  641   1.563   7.231   7.782 -0.9504 -0.1593 -0.2404
  746MOL0     C  642   1.691   7.280   7.806 -0.3420 -0.3954  0.2903
  746MOL0     H  643   2.124   7.260   7.834 -4.8144  1.9787 -0.9919
  746MOL0     H  644   2.371   7.313   7.861  0.5549  0.9925  2.0233
  746MOL0     H  645   2.512   7.728   7.830  2.3334  0.4347  0.0137
  746MOL0     H  646   2.548   7.686   8.002  0.9599  2.1551 -0.4566
  746MOL0     H  647   2.715   7.625   7.769 -2.5454 -0.0407  0.0699
  746MOL0     H  648   2.759   7.741   7.888  1.5052 -0.2748  0.4031
  746MOL0     H  649   2.783   7.597   8.057 -1.1828 -0.0410 -0.5960
  746MOL0     H  650   2.687   7.460   7.989  2.5819 -3.3765 -1.7523
  746MOL0     H  651   2.948   7.543   7.876 -2.1762  2.4995 -2.0406
  746MOL0     H  652   2.924   7.418   7.995 -0.0139  2.4028  0.7494
  746MOL0     H  653   2.799   7.425   7.708  3.6721  4.6258  0.9148
  746MOL0     H  654   2.933   7.320   7.762  2.0094  3.0737 -0.8070
  746MOL0     H  655   2.762   7.234   7.929  0.8593  0.0350 -0.5351
  746MOL0     H  656   2.627   7.302   7.838  0.2641 -1.5407 -0.5992
  746MOL0     H  657   2.682   7.187   7.635 -4.4342 -2.0443  0.1512
  746MOL0     H  658   2.838   7.131   7.718  0.8059  2.2927  3.8061
  746MOL0     H  659   2.567   7.019   7.827 -0.1413 -2.3327  1.2375
  746MOL0     H  660   2.727   7.015   7.886 -0.1077  0.6256 -0.7050
  746MOL0     H  661   2.598   6.938   7.512 -0.0354  0.4922  0.8253
  746MOL0     H  662   2.524   6.641   7.452 -0.3836  1.4620  0.1950
  746MOL0     H  663   2.619   6.757   7.358 -2.1304 -1.4827 -1.3102
  746MOL0     H  664   2.719   6.481   7.444 -0.3140 -0.3988 -0.3946
  746MOL0     H  665   2.817   6.621   7.392  0.0484  0.2299 -1.6480
  746MOL0     H  666   2.778   6.479   7.198 -0.4010  0.1161  1.1641
  746MOL0     H  667   2.679   6.622   7.173 -2.3087  1.6341  1.9390
  746MOL0     H  668   2.489   6.484   7.264 -0.6956 -1.0459 -0.1569
  746MOL0     H  669   2.608   6.340   7.262  2.6376  0.9442  0.2800
  746MOL0     H  670   2.439   6.530   6.885 -2.5701  0.6312 -2.1927
  746MOL0     H  671   2.109   6.511   6.750 -0.4202 -2.1778  0.3487
  746MOL0     H  672   2.273   6.587   6.738  1.0791  0.2780 -1.9213
  746MOL0     H  673   2.228   6.439   6.648 -0.0640  0.0191 -0.1511
  746MOL0     H  674   1.779   6.372   6.726 -3.1687  0.2325 -0.9007
  746MOL0     H  675   1.615   6.296   6.593 -1.5252 -0.1554 -2.1291
  746MOL0     H  676   1.690   5.879   6.465  0.2150 -0.5112 -1.0076
  746MOL0     H  677   1.531   5.824   6.531 -0.4292 -2.0272 -2.7002
  746MOL0     H  678   1.440   5.919   6.326 -0.1334 -0.9949 -0.9465
  746MOL0     H  679   1.601   5.956   6.262 -1.0107  2.0103  0.8448
  746MOL0     H  680   1.633   5.700   6.350 -1.0026 -1.2116  0.4256
  746MOL0     H  681   1.593   5.751   6.178 -1.7566  2.0007  0.1226
  746MOL0     H  682   1.393   5.708   6.418  1.8452  2.5699  0.0058
  746MOL0     H  683   1.356   5.694   6.235  1.1367  0.2012 -1.2857
  746MOL0     H  684   1.520   5.508   6.403  0.1041  0.7907 -0.9438
  746MOL0     H  685   1.477   5.491   6.232  0.1891  0.2700 -0.9721
  746MOL0     H  686   1.273   5.502   6.459 -0.2617  1.0563 -0.2312
  746MOL0     H  687   1.227   5.494   6.292 -1.2411 -2.7120  0.4672
  746MOL0     H  688   1.233   5.254   6.423 -1.2919  0.6913 -0.8416
  746MOL0     H  689   1.393   5.293   6.444  0.5280  2.1963  1.2630
  746MOL0     H  690   1.427   5.295   6.190  0.0269  0.3395 -0.1297
  746MOL0     H  691   1.252   5.281   6.172 -4.9963 -4.9333  3.4132
  746MOL0     H  692   1.756   5.882   6.664  1.9957  0.4601 -4.9659
  746MOL0     H  693   1.908   5.975   6.823  2.2511  0.7679 -0.0117
  746MOL0     H  694   2.185   6.153   7.069 -0.2112 -0.3583 -0.4135
  746MOL0     H  695   2.383   6.221   7.179  4.0093 -0.5423 -1.3956
  746MOL0     H  696   2.269   7.722   7.903  1.6450 -0.4247  1.5588
  746MOL0     H  697   2.048   7.676   7.844  0.1158 -0.6204  0.8067
  746MOL0     H  698   1.645   7.410   8.110 -0.7828 -2.6751  1.0648
  746MOL0     H  699   1.421   7.318   8.081 -0.0189  0.0246  1.2645
  746MOL0     H  700   1.220   7.340   7.924  1.4757 -0.7753  1.3836
  746MOL0     H  701   1.278   7.395   7.776 -0.1309  0.0569  0.6120
  746MOL0     H  702   1.114   7.232   7.658 -1.4175 -2.2313 -0.3454
  746MOL0     H  703   1.023   7.325   7.788 -2.3114 -3.2171 -1.7336
  746MOL0     H  704   1.061   7.141   7.942 -2.2699 -1.2757  0.1170
  746MOL0     H  705   1.115   7.047   7.802  1.4303  1.7237 -0.1364
  746MOL0     H  706   0.912   7.092   7.686  0.9510 -2.5925 -0.9744
  746MOL0     H  707   0.838   7.155   7.847  0.5328 -0.4266  0.3234
  746MOL0     H  708   0.814   6.733   7.884  3.0623 -0.5304 -2.7546
  746MOL0     H  709   1.555   7.172   7.690  1.5362 -0.9206 -0.0287
  746MOL0     H  710   1.767   7.265   7.730  0.3893  5.3592 -0.6024
  747MOL0     O  711   6.644   9.290   1.957  0.1648 -0.1502  0.3577
  747MOL0     C  712   6.632   9.357   2.057  0.9374 -0.4277  0.3832
  747MOL0     O  713   6.537   9.444   2.081 -0.3728 -0.2837 -1.5597
  747MOL0     C  714   6.429   9.463   1.997  0.5220  0.5623 -0.3102
  747MOL0     C  715   6.376   9.385   1.894 -0.6716  0.0204  0.8920
  747MOL0     C  716   6.265   9.427   1.822  0.1716 -1.0876  0.0622
  747MOL0     C  717   6.190   9.541   1.861  0.0454  0.3485 -0.1943
  747MOL0     O  718   6.076   9.566   1.788  0.0148 -0.1737 -0.1108
  747MOL0     C  719   5.978   9.660   1.836 -0.6048  0.5364 -0.2454
  747MOL0     C  720   5.879   9.658   1.716 -0.1278 -0.7516  0.6679
  747MOL0     C  721   5.784   9.780   1.732  0.5641  0.8302  0.0135
  747MOL0     C  722   5.675   9.780   1.628  0.4704  0.8245  0.5556
  747MOL0     C  723   5.585   9.654   1.634 -0.8630  0.7491 -0.6122
  747MOL0     C  724   5.456   9.668   1.558 -0.0469  0.4229 -0.1536
  747MOL0     C  725   5.475   9.668   1.413 -0.5762 -0.0544 -0.3492
  747MOL0     C  726   5.364   9.756   1.347  0.3287  0.7312  0.7069
  747MOL0     N  727   5.345   9.730   1.205 -0.0058 -0.1073 -0.2461
  747MOL0     C  728   5.400   9.806   1.103  0.2677 -0.4859  0.4832
  747MOL0     C  729   5.328   9.765   0.992 -0.2941  0.3352 -0.4412
  747MOL0     C  730   5.366   9.817   0.854  0.5288 -0.1799  0.4736
  747MOL0     C  731   5.256   9.879   0.765 -0.0306  0.4361 -0.0824
  747MOL0     C  732   5.288   9.891   0.613 -0.0939 -0.1526 -0.5724
  747MOL0     C  733   5.370   9.769   0.552 -0.2811  0.2938 -0.0536
  747MOL0     O  734   5.366   9.785   0.411  0.2604  0.4298 -0.2504
  747MOL0     C  735   5.454   9.724   0.331  0.6662 -0.4193  0.0849
  747MOL0     C  736   5.565   9.786   0.282  0.1114  0.7651  0.5518
  747MOL0     C  737   5.660   9.727   0.196  0.5520 -0.8292 -0.3162
  747MOL0     C  738   5.782   9.797   0.143  0.6748 -0.3515 -0.1307
  747MOL0     C  739   5.630   9.589   0.160 -0.3934  0.2385  0.2404
  747MOL0     C  740   5.706   9.524   0.047 -0.2332 -0.1588  0.0109
  747MOL0     O  741   5.825   9.572  -0.009 -0.2617 -0.4090 -0.5576
  747MOL0     C  742   5.905   9.485  -0.088  0.3242  0.9066  0.0038
  747MOL0     C  743   5.931   9.344  -0.081 -0.3464  0.0197 -0.1001
  747MOL0     C  744   6.010   9.273  -0.172  0.5801  0.1400 -0.0402
  747MOL0     C  745   6.074   9.332  -0.279  0.3373 -0.0357 -0.0032
  747MOL0     O  746   6.155   9.264  -0.360  0.1861  0.1529  0.3046
  747MOL0     C  747   6.234   9.329  -0.471  0.8769 -0.0240 -0.1046
  747MOL0     C  748   6.286   9.230  -0.569  0.0084  0.9913 -0.0397
  747MOL0     C  749   6.346   9.316  -0.691 -0.1115  0.7785  0.5361
  747MOL0     C  750   6.449   9.225  -0.758  0.1803 -0.1547  0.0494
  747MOL0     C  751   6.526   9.317  -0.861  0.6190  1.3186 -0.1153
  747MOL0     C  752   6.679   9.286  -0.855  0.3799  0.9674  0.4438
  747MOL0     C  753   6.762   9.386  -0.946  0.0138  1.1240 -0.3246
  747MOL0     C  754   6.742   9.378  -1.096  0.5065  0.6343  0.3244
  747MOL0    Cl  755   6.837   9.512  -1.191  0.0833  0.3629 -0.0389
  747MOL0     C  756   6.060   9.469  -0.288  0.8677 -0.7354 -0.0212
  747MOL0     C  757   5.972   9.548  -0.198  0.6950 -0.1870 -0.1912
  747MOL0     O  758   5.661   9.420   0.009  0.6894  0.0598 -0.2167
  747MOL0     C  759   5.510   9.523   0.205 -0.4522 -0.6423 -0.0606
  747MOL0     C  760   5.427   9.590   0.300  1.2907 -0.7036 -1.6210
  747MOL0     N  761   5.243   9.668   1.026  0.6473 -0.2227 -0.6251
  747MOL0     N  762   5.253   9.640   1.153  0.0015  0.2878  0.0078
  747MOL0     C  763   6.239   9.614   1.973 -0.1517 -0.6806  0.4277
  747MOL0     C  764   6.369   9.585   2.025  0.3813 -0.6553  0.7235
  747MOL0     C  765   6.745   9.341   2.147 -0.0421  0.4584 -0.3203
  747MOL0     C  766   6.842   9.241   2.138 -0.3253  0.4357  0.3202
  747MOL0     C  767   6.947   9.242   2.229 -0.7315  0.7251  1.1400
  747MOL0     C  768   6.958   9.332   2.334  0.3470  0.0908  0.1809
  747MOL0     O  769   7.064   9.333   2.417  0.6736  0.1632  0.5657
  747MOL0     C  770   7.176   9.240   2.424 -0.1661  0.1824  0.0362
  747MOL0     C  771   7.296   9.339   2.451  0.2576 -0.0486 -1.1741
  747MOL0     C  772   7.312   9.356   2.601 -0.6255 -0.1979  0.5463
  747MOL0     C  773   7.381   9.238   2.677  0.2751  1.2935  0.3804
  747MOL0     C  774   7.422   9.267   2.812 -0.1941 -0.1439 -0.1592
  747MOL0     C  775   7.463   9.305   2.920 -0.1966  1.3598 -0.1530
  747MOL0     C  776   6.851   9.421   2.359  0.8093  0.2460 -0.9413
  747MOL0     C  777   6.754   9.429   2.254 -0.1900  1.0987 -0.5568
  747MOL0     H  778   6.409   9.286   1.864 -2.4923 -0.2226 -0.4910
  747MOL0     H  779   6.229   9.383   1.730  1.5433  2.2992 -2.3301
  747MOL0     H  780   5.932   9.632   1.931  1.7752  1.7405  1.3498
  747MOL0     H  781   6.019   9.760   1.855  0.4900 -0.2587  1.8724
  747MOL0     H  782   5.925   9.670   1.618 -1.6030  0.7597  0.1001
  747MOL0     H  783   5.813   9.571   1.704  0.1162 -0.5127 -4.5353
  747MOL0     H  784   5.747   9.778   1.835  1.3215  2.1495  0.3290
  747MOL0     H  785   5.846   9.870   1.724 -1.0971  2.1428  1.1384
  747MOL0     H  786   5.604   9.863   1.642 -4.4818 -2.5247 -1.8268
  747MOL0     H  787   5.712   9.789   1.526 -0.4078 -3.9804 -0.3997
  747MOL0     H  788   5.633   9.558   1.611 -0.2910  0.8420  0.1519
  747MOL0     H  789   5.551   9.652   1.738  0.9082 -0.8491 -0.0092
  747MOL0     H  790   5.391   9.581   1.574  1.9587 -1.3250 -1.0625
  747MOL0     H  791   5.406   9.760   1.592 -2.3102  0.6217 -3.4930
  747MOL0     H  792   5.573   9.703   1.378 -0.8462 -1.3295 -2.6019
  747MOL0     H  793   5.473   9.572   1.361 -4.2813  0.1755 -0.8735
  747MOL0     H  794   5.383   9.864   1.353 -1.2947  1.1886 -1.2096
  747MOL0     H  795   5.267   9.737   1.394  1.4205  0.5587  3.0094
  747MOL0     H  796   5.484   9.873   1.115 -0.4456  0.2026  2.0557
  747MOL0     H  797   5.455   9.881   0.860  1.1102 -0.9023 -0.2266
  747MOL0     H  798   5.409   9.728   0.806 -1.0833 -1.4286  1.2291
  747MOL0     H  799   5.212   9.974   0.797 -1.4238  0.5221 -2.0541
  747MOL0     H  800   5.178   9.803   0.773 -1.9056  2.1892 -0.7121
  747MOL0     H  801   5.334   9.990   0.602 -3.2682  1.7034  1.1520
  747MOL0     H  802   5.191   9.880   0.563 -0.7881  0.1511  0.6653
  747MOL0     H  803   5.332   9.670   0.578 -1.0392  0.9231  1.3642
  747MOL0     H  804   5.474   9.769   0.586  0.0127  0.4619 -0.9236
  747MOL0     H  805   5.599   9.886   0.308  3.1006  1.0895 -3.5925
  747MOL0     H  806   5.877   9.746   0.157  1.0915 -0.5519 -3.1372
  747MOL0     H  807   5.778   9.819   0.036  0.1863  0.6604  0.0721
  747MOL0     H  808   5.778   9.894   0.194 -2.0945 -1.5892  2.3712
  747MOL0     H  809   5.881   9.288  -0.003  1.6915 -0.0110  1.2665
  747MOL0     H  810   6.034   9.170  -0.147  0.9896  0.1662 -0.3044
  747MOL0     H  811   6.167   9.396  -0.526 -0.3598 -0.8821  0.3062
  747MOL0     H  812   6.311   9.391  -0.425 -0.2450  2.3377 -1.2560
  747MOL0     H  813   6.368   9.164  -0.541 -0.2652 -1.7872 -4.6647
  747MOL0     H  814   6.205   9.161  -0.595  1.1788 -1.9848  3.3758
  747MOL0     H  815   6.382   9.413  -0.655  2.4750 -0.2861  0.9822
  747MOL0     H  816   6.272   9.321  -0.771  0.1204 -1.6588  0.0825
  747MOL0     H  817   6.515   9.183  -0.681  1.5859 -2.8277 -2.3829
  747MOL0     H  818   6.402   9.135  -0.800 -0.9226  1.1268 -1.5619
  747MOL0     H  819   6.501   9.422  -0.840  1.6285  1.5165  0.1971
  747MOL0     H  820   6.506   9.301  -0.967  2.1166  1.9766 -0.5305
  747MOL0     H  821   6.712   9.288  -0.751  1.9638 -0.8002  0.0150
  747MOL0     H  822   6.689   9.189  -0.904 -1.8772  1.0012 -0.2013
  747MOL0     H  823   6.867   9.376  -0.919  0.1560  0.8933 -0.9647
  747MOL0     H  824   6.749   9.491  -0.918 -0.6043  1.5630 -2.1003
  747MOL0     H  825   6.636   9.390  -1.122 -0.4984 -3.1796  1.8696
  747MOL0     H  826   6.780   9.279  -1.124  1.0278  0.5937  1.1472
  747MOL0     H  827   6.105   9.541  -0.356 -0.9853  0.7776  0.2655
  747MOL0     H  828   5.965   9.656  -0.208 -2.5883 -0.3120 -0.3084
  747MOL0     H  829   5.491   9.419   0.183 -3.7060  0.0670 -1.1386
  747MOL0     H  830   5.357   9.536   0.363  0.5891  0.4890 -1.3229
  747MOL0     H  831   6.187   9.701   2.012 -0.2888 -2.1782  3.8803
  747MOL0     H  832   6.405   9.658   2.097 -1.1895 -2.1353  3.1651
  747MOL0     H  833   6.841   9.174   2.054  2.7734 -0.8027  1.1451
  747MOL0     H  834   7.027   9.176   2.199 -0.6268  2.8962 -4.5608
  747MOL0     H  835   7.156   9.163   2.499  1.0206  1.3076  1.5829
  747MOL0     H  836   7.184   9.194   2.326  1.0311 -0.5651  0.4627
  747MOL0     H  837   7.290   9.441   2.413  2.4622  0.2867 -0.7572
  747MOL0     H  838   7.389   9.304   2.405  1.1753  2.5509 -1.4500
  747MOL0     H  839   7.215   9.374   2.649 -0.6926  3.4157 -0.6247
  747MOL0     H  840   7.384   9.438   2.612 -1.7447  0.8608  0.3051
  747MOL0     H  841   7.466   9.208   2.615 -1.4382  1.9735 -2.4478
  747MOL0     H  842   7.314   9.152   2.684 -0.8893  2.2054  0.6043
  747MOL0     H  843   7.518   9.355   2.998  0.6100 -0.0455  0.2181
  747MOL0     H  844   6.852   9.487   2.444  1.3810 -0.8396 -0.0758
  747MOL0     H  845   6.674   9.501   2.262 -1.6648 -0.4686 -0.5729
  748MOL0     O  846   4.365   4.939   6.611  0.3260  0.0911  0.8923
  748MOL0     C  847   4.380   4.944   6.493 -0.8098 -0.9843  0.7835
  748MOL0     O  848   4.294   4.900   6.397 -0.3144 -0.6597  0.0509
  748MOL0     C  849   4.169   4.861   6.432  0.8794  0.2387 -0.0480
  748MOL0     C  850   4.108   4.758   6.357  0.2491 -0.3015 -0.9163
  748MOL0     C  851   3.974   4.726   6.372  0.3015  0.4007 -0.4868
  748MOL0     C  852   3.892   4.789   6.471 -0.0814  0.2178 -0.1077
  748MOL0     O  853   3.763   4.763   6.499  0.7385  0.4713  0.9810
  748MOL0     C  854   3.673   4.720   6.395  0.1871  0.8187  0.5113
  748MOL0     C  855   3.532   4.710   6.443  0.1315 -0.7776  0.3103
  748MOL0     C  856   3.444   4.664   6.319  0.0038  0.8563 -0.1198
  748MOL0     C  857   3.298   4.664   6.359  0.4356 -0.9079 -0.6790
  748MOL0     C  858   3.251   4.809   6.364  1.0612 -0.5283 -0.5549
  748MOL0     C  859   3.091   4.805   6.372  1.0920 -0.6074 -0.4387
  748MOL0     C  860   3.028   4.938   6.422 -0.2140  0.3976 -0.0295
  748MOL0     C  861   2.882   4.917   6.452  0.5930  0.2344 -1.1142
  748MOL0     N  862   2.821   5.044   6.485 -0.1573 -0.1890 -0.0355
  748MOL0     C  863   2.779   5.126   6.379  0.8797  0.7540 -0.3139
  748MOL0     C  864   2.740   5.248   6.440 -0.0457 -0.3173  0.3713
  748MOL0     C  865   2.699   5.375   6.359  0.3671 -0.0650 -1.1025
  748MOL0     C  866   2.548   5.377   6.361 -0.2979 -0.3300 -0.2866
  748MOL0     C  867   2.498   5.493   6.273 -0.5438 -0.2391 -0.3511
  748MOL0     C  868   2.348   5.493   6.291  0.4473  0.0258 -1.2020
  748MOL0     O  869   2.284   5.396   6.207 -0.0352  0.4989 -0.2871
  748MOL0     C  870   2.171   5.354   6.267 -0.7544  0.3935 -0.1125
  748MOL0     C  871   2.063   5.431   6.249  0.3982  0.3919  0.4380
  748MOL0     C  872   1.933   5.384   6.288 -0.4212  0.1020 -0.0544
  748MOL0     C  873   1.811   5.466   6.244 -0.6467  0.3785 -0.6439
  748MOL0     C  874   1.924   5.271   6.372 -0.1774 -0.5248 -0.1606
  748MOL0     C  875   1.794   5.232   6.435  0.0436 -0.2740  0.2054
  748MOL0     O  876   1.798   5.123   6.507  1.2738  0.4279 -0.2744
  748MOL0     C  877   1.674   5.070   6.556  0.0270 -0.0961  0.1527
  748MOL0     C  878   1.661   5.066   6.699 -0.0509  0.0579 -0.1876
  748MOL0     C  879   1.543   5.012   6.759 -0.1575 -0.6188 -0.1341
  748MOL0     C  880   1.454   4.956   6.675 -0.5348 -0.6486 -0.4609
  748MOL0     O  881   1.337   4.906   6.730  0.1958 -0.1266 -0.0113
  748MOL0     C  882   1.222   4.987   6.747  0.3161 -0.4810  0.1861
  748MOL0     C  883   1.173   4.988   6.892 -0.0595  0.1479 -0.8607
  748MOL0     C  884   1.024   4.991   6.912 -0.3401 -0.2428 -0.3260
  748MOL0     C  885   0.953   5.101   6.838  0.2828 -0.1564 -0.5148
  748MOL0     C  886   0.801   5.110   6.880 -0.0693 -1.0346  0.7729
  748MOL0     C  887   0.716   5.195   6.780 -0.2103 -0.5615  0.2555
  748MOL0     C  888   0.748   5.344   6.825 -0.1024  1.2155 -0.4394
  748MOL0     C  889   0.677   5.456   6.758  1.5907 -0.3403  0.8731
  748MOL0    Cl  890   0.501   5.462   6.806  0.3227  0.2132  0.5297
  748MOL0     C  891   1.471   4.954   6.533  0.1115 -0.1555  0.0393
  748MOL0     C  892   1.587   5.009   6.467 -0.6744  0.8241 -0.3436
  748MOL0     O  893   1.690   5.300   6.429 -0.0545 -0.5052  0.4722
  748MOL0     C  894   2.044   5.198   6.400 -0.4025 -0.1995  0.8175
  748MOL0     C  895   2.165   5.241   6.348 -0.2275 -0.5657  0.2247
  748MOL0     N  896   2.766   5.236   6.577 -0.8353  0.4392 -0.1574
  748MOL0     N  897   2.805   5.116   6.601 -0.0049 -0.3864  1.0687
  748MOL0     C  898   3.951   4.894   6.544 -0.1899 -0.3564 -0.0966
  748MOL0     C  899   4.087   4.931   6.519  1.1079  0.0173  0.6012
  748MOL0     C  900   4.482   5.034   6.446 -0.1078  0.5108  0.2682
  748MOL0     C  901   4.614   5.051   6.503  0.2803 -0.0496 -0.3566
  748MOL0     C  902   4.717   5.129   6.442 -0.3149  0.2395 -0.2258
  748MOL0     C  903   4.688   5.181   6.320  0.1504  0.2982 -0.2913
  748MOL0     O  904   4.781   5.246   6.247 -0.0437  0.0139  0.0254
  748MOL0     C  905   4.875   5.332   6.309 -0.1507 -1.0763 -0.0871
  748MOL0     C  906   5.024   5.307   6.270 -0.2013 -0.1196  0.2080
  748MOL0     C  907   5.056   5.329   6.117 -0.1350  0.0030 -0.4867
  748MOL0     C  908   5.178   5.248   6.076  0.1394  0.2547  0.1377
  748MOL0     C  909   5.218   5.258   5.933  0.5940  0.5055  0.4932
  748MOL0     C  910   5.263   5.255   5.825 -0.3501 -0.9381 -0.1901
  748MOL0     C  911   4.560   5.187   6.270  1.2759 -0.2123  0.2812
  748MOL0     C  912   4.464   5.103   6.328 -0.6718 -0.3994  0.5477
  748MOL0     H  913   4.162   4.699   6.284 -1.1434  1.3129 -3.3836
  748MOL0     H  914   3.933   4.642   6.316  2.5176 -1.1651  0.0472
  748MOL0     H  915   3.681   4.788   6.309  1.4707  1.4203  1.0820
  748MOL0     H  916   3.702   4.623   6.352 -1.3162  1.3787 -1.9867
  748MOL0     H  917   3.507   4.638   6.522 -2.3674 -0.2793  0.0641
  748MOL0     H  918   3.506   4.808   6.485  0.6469 -0.9824  1.1347
  748MOL0     H  919   3.457   4.735   6.237 -1.4553  1.6353  0.2819
  748MOL0     H  920   3.474   4.565   6.286 -2.8609 -0.1301 -0.0900
  748MOL0     H  921   3.234   4.615   6.285  1.0700  1.8499 -3.2471
  748MOL0     H  922   3.276   4.604   6.448  1.9673  2.9142  2.5615
  748MOL0     H  923   3.281   4.862   6.455 -0.5588  0.2770 -0.4558
  748MOL0     H  924   3.280   4.873   6.280 -0.0638  3.7820  2.0030
  748MOL0     H  925   3.029   4.786   6.283  1.1199  1.7800 -1.0407
  748MOL0     H  926   3.061   4.730   6.446  0.9054  0.0017  0.1131
  748MOL0     H  927   3.079   4.978   6.510 -1.5339 -2.3165  2.1312
  748MOL0     H  928   3.041   5.008   6.339  0.6948 -0.7826 -0.9216
  748MOL0     H  929   2.872   4.852   6.539 -4.9264 -0.3781 -1.8549
  748MOL0     H  930   2.836   4.868   6.366  1.0111 -0.2906 -1.0421
  748MOL0     H  931   2.777   5.096   6.275  4.3764  1.8220 -0.7959
  748MOL0     H  932   2.742   5.457   6.417 -0.1000 -1.6222  1.5860
  748MOL0     H  933   2.732   5.381   6.255  1.6992  1.1717 -0.6422
  748MOL0     H  934   2.515   5.396   6.463 -0.6093  2.9385 -0.8749
  748MOL0     H  935   2.508   5.282   6.325 -0.3033 -0.6902  0.6438
  748MOL0     H  936   2.509   5.481   6.165  0.3172  0.5555 -0.3632
  748MOL0     H  937   2.545   5.590   6.290 -0.7670  0.1467 -1.8647
  748MOL0     H  938   2.320   5.594   6.258  2.7773  1.6952  1.3914
  748MOL0     H  939   2.317   5.493   6.395  2.8496  2.7203 -0.3520
  748MOL0     H  940   2.069   5.526   6.197 -0.2433 -0.5273 -1.4016
  748MOL0     H  941   1.838   5.540   6.167 -0.5027 -0.7099 -1.6706
  748MOL0     H  942   1.734   5.399   6.206 -0.3241 -1.3526  1.5473
  748MOL0     H  943   1.769   5.513   6.333  1.7878 -1.7068  1.7813
  748MOL0     H  944   1.743   5.108   6.757  0.2298 -0.9511  0.1586
  748MOL0     H  945   1.515   5.015   6.864 -0.6721  0.2247 -0.2876
  748MOL0     H  946   1.237   5.090   6.714  1.0156 -0.3516  0.8972
  748MOL0     H  947   1.152   4.942   6.676 -1.0634  0.2582  1.0307
  748MOL0     H  948   1.216   4.907   6.952  1.2574  1.8848  0.6275
  748MOL0     H  949   1.208   5.077   6.945  2.7237 -0.0578 -2.1805
  748MOL0     H  950   0.995   4.988   7.017 -0.4816  1.4000 -0.2945
  748MOL0     H  951   0.979   4.896   6.879  1.9282 -2.6413  2.8437
  748MOL0     H  952   1.014   5.187   6.866  0.5428 -1.5062  3.7813
  748MOL0     H  953   0.958   5.079   6.730 -2.7174 -0.3477 -0.6863
  748MOL0     H  954   0.794   5.151   6.980 -0.2809  2.1566 -0.4454
  748MOL0     H  955   0.756   5.010   6.884 -1.3632 -0.4509  1.2495
  748MOL0     H  956   0.749   5.178   6.677  3.4264 -0.3133  1.2501
  748MOL0     H  957   0.607   5.184   6.781 -0.5802  2.3486  0.4123
  748MOL0     H  958   0.856   5.355   6.813  0.3612 -2.1307 -0.2461
  748MOL0     H  959   0.742   5.346   6.935  1.3623  0.9179 -0.3322
  748MOL0     H  960   0.671   5.437   6.650 -2.6301  1.3197  0.5819
  748MOL0     H  961   0.725   5.552   6.781 -0.1093  0.9626 -0.6871
  748MOL0     H  962   1.386   4.925   6.472  2.0445 -2.6681 -1.6751
  748MOL0     H  963   1.622   4.993   6.366  0.7202 -1.5975  0.4515
  748MOL0     H  964   2.048   5.116   6.471  0.9717 -1.7147 -0.9135
  748MOL0     H  965   2.253   5.187   6.383 -1.0106 -0.0023  3.4101
  748MOL0     H  966   3.883   4.946   6.611 -0.9323 -1.6465  0.1844
  748MOL0     H  967   4.125   5.023   6.562  1.6653 -0.5275  1.2783
  748MOL0     H  968   4.631   4.990   6.591 -1.5647 -2.5485 -1.6098
  748MOL0     H  969   4.814   5.127   6.491  1.3017 -1.8278 -3.1803
  748MOL0     H  970   4.846   5.434   6.284 -0.9864 -1.6775 -1.7056
  748MOL0     H  971   4.869   5.329   6.419  1.1806  0.6567  0.0716
  748MOL0     H  972   5.041   5.207   6.311 -2.8119  0.1181  2.2065
  748MOL0     H  973   5.087   5.374   6.329 -0.4397 -0.3430  0.7280
  748MOL0     H  974   5.080   5.431   6.087 -1.6593  0.7706  0.7669
  748MOL0     H  975   4.965   5.293   6.069 -2.5450  2.9208  1.5579
  748MOL0     H  976   5.156   5.142   6.086  1.6425 -0.0175  0.7536
  748MOL0     H  977   5.272   5.269   6.128  1.6115 -3.1333 -0.9046
  748MOL0     H  978   5.308   5.234   5.730  0.4152 -3.2110  0.6107
  748MOL0     H  979   4.522   5.236   6.180 -1.9851 -0.2386  1.5100
  748MOL0     H  980   4.374   5.094   6.269  0.7055  0.2921 -1.8021
  749MOL0     O  981  10.015   5.681   2.860 -0.6382 -0.0614 -0.0153
  749MOL0     C  982   9.982   5.614   2.958 -0.1781  0.1404  0.1689
  749MOL0     O  983   9.865   5.554   2.977  0.7808 -0.2739 -0.2346
  749MOL0     C  984   9.771   5.535   2.874 -0.4637  0.2858 -0.4414
  749MOL0     C  985   9.686   5.420   2.881  0.4485 -0.9379 -0.5962
  749MOL0     C  986   9.597   5.377   2.788  0.0638  0.1527 -0.6091
  749MOL0     C  987   9.587   5.440   2.662  0.2146  0.1722 -0.4616
  749MOL0     O  988   9.502   5.395   2.564 -0.2265  0.2462 -0.2593
  749MOL0     C  989   9.503   5.463   2.439 -0.5528 -0.2742  0.3102
  749MOL0     C  990   9.408   5.381   2.346 -0.6689 -0.4290  0.5344
  749MOL0     C  991   9.461   5.237   2.322  0.1976 -0.2800 -1.2918
  749MOL0     C  992   9.392   5.182   2.200 -0.2329  0.3932  0.3355
  749MOL0     C  993   9.445   5.040   2.193 -0.4424  0.5530  1.2268
  749MOL0     C  994   9.362   4.977   2.085 -0.5699  0.3816  0.8389
  749MOL0     C  995   9.380   4.825   2.089  0.4482 -0.3093  0.6618
  749MOL0     C  996   9.522   4.766   2.091  0.5151 -0.7371 -0.1573
  749MOL0     N  997   9.526   4.629   2.044 -0.6902  0.0764  0.5371
  749MOL0     C  998   9.490   4.520   2.119  0.3884  0.7228 -0.0757
  749MOL0     C  999   9.513   4.413   2.032  0.3520 -0.2901  0.2929
  749MOL0     C 1000   9.512   4.267   2.071 -0.3575 -0.9668 -0.5579
  749MOL0     C 1001   9.399   4.226   2.164  1.3532  0.3118 -0.8777
  749MOL0     C 1002   9.255   4.262   2.118 -0.7196  0.4459 -0.2326
  749MOL0     C 1003   9.218   4.191   1.989  0.1438  0.8164 -0.4383
  749MOL0     O 1004   9.279   4.237   1.870  0.1053  0.4042 -0.0252
  749MOL0     C 1005   9.249   4.178   1.748  0.2202  0.0010 -0.5857
  749MOL0     C 1006   9.120   4.110   1.723 -0.6989 -0.8988 -0.4017
  749MOL0     C 1007   9.090   4.054   1.597 -1.0720 -0.2240 -0.3164
  749MOL0     C 1008   8.948   4.005   1.579  0.3928  0.8440  0.5011
  749MOL0     C 1009   9.188   4.062   1.493  0.7301  0.0309  0.0270
  749MOL0     C 1010   9.164   4.006   1.357 -1.1451  0.3233  0.4624
  749MOL0     O 1011   9.140   3.870   1.352  0.0492 -0.2882  0.1279
  749MOL0     C 1012   9.095   3.810   1.235 -0.9169 -0.5444 -1.1547
  749MOL0     C 1013   8.979   3.728   1.248 -0.2742  0.6069 -0.6745
  749MOL0     C 1014   8.926   3.662   1.140 -0.6039  0.5757  0.1738
  749MOL0     C 1015   8.994   3.672   1.023 -0.0348 -0.9115  1.2868
  749MOL0     O 1016   8.948   3.601   0.918 -0.1551  0.9393  0.3526
  749MOL0     C 1017   8.884   3.682   0.811  0.4153 -0.5710  1.0020
  749MOL0     C 1018   8.760   3.743   0.874  0.0519 -0.5020  0.8808
  749MOL0     C 1019   8.664   3.821   0.780 -0.5029  0.2161 -0.4757
  749MOL0     C 1020   8.734   3.960   0.752  0.5734  0.9523  0.2165
  749MOL0     C 1021   8.646   4.048   0.671 -0.2192  0.3652 -0.3126
  749MOL0     C 1022   8.719   4.171   0.593 -0.1405  0.5303  0.7036
  749MOL0     C 1023   8.627   4.287   0.558  0.7818  0.8737  0.3968
  749MOL0     C 1024   8.694   4.397   0.474  0.1099  0.4167  0.3955
  749MOL0    Cl 1025   8.810   4.474   0.577  0.0741 -0.7020  0.3177
  749MOL0     C 1026   9.113   3.754   1.005 -0.8685 -0.1959  0.6225
  749MOL0     C 1027   9.162   3.816   1.115 -0.2078 -0.3165 -0.2564
  749MOL0     O 1028   9.175   4.082   1.260  0.0034 -0.0271  0.5215
  749MOL0     C 1029   9.304   4.135   1.520 -0.0158 -0.2910  0.1764
  749MOL0     C 1030   9.332   4.194   1.640 -0.6225 -0.6982 -0.3486
  749MOL0     N 1031   9.554   4.464   1.913 -0.7264 -0.0319  0.4066
  749MOL0     N 1032   9.567   4.588   1.923  0.6883  0.1244  0.3654
  749MOL0     C 1033   9.676   5.556   2.647  0.8394  0.4069  0.2165
  749MOL0     C 1034   9.758   5.606   2.753 -0.3624  0.5231  0.1025
  749MOL0     C 1035  10.078   5.602   3.079  0.8855 -0.5295  0.5321
  749MOL0     C 1036  10.028   5.555   3.204  0.0509 -0.7089  0.4376
  749MOL0     C 1037  10.109   5.538   3.313 -0.2561 -0.0526 -0.5228
  749MOL0     C 1038  10.242   5.571   3.301 -0.2514 -0.9565 -0.3077
  749MOL0     O 1039  10.325   5.540   3.417  0.4801  0.1797  1.2444
  749MOL0     C 1040  10.463   5.571   3.408 -0.0280  0.3885 -0.2777
  749MOL0     C 1041  10.532   5.533   3.533 -0.0711  0.3424 -0.0699
  749MOL0     C 1042  10.557   5.373   3.539 -0.3821 -0.3039 -0.8662
  749MOL0     C 1043  10.656   5.325   3.433  0.1052 -0.1430  0.5987
  749MOL0     C 1044  10.725   5.207   3.482  0.0990 -0.1193  0.0280
  749MOL0     C 1045  10.794   5.109   3.510  0.3916 -0.1955  0.5893
  749MOL0     C 1046  10.301   5.626   3.174  1.1184  0.5502 -0.2955
  749MOL0     C 1047  10.206   5.642   3.058  0.8288  0.4344  0.2664
  749MOL0     H 1048   9.710   5.353   2.962 -1.2914  1.3231  1.9770
  749MOL0     H 1049   9.549   5.280   2.795  1.1328 -0.3245  0.6908
  749MOL0     H 1050   9.472   5.567   2.451 -1.0283 -0.5131  1.2560
  749MOL0     H 1051   9.598   5.464   2.385 -0.7398 -2.8350 -0.2019
  749MOL0     H 1052   9.309   5.379   2.394  0.5840  2.3553  3.6417
  749MOL0     H 1053   9.390   5.433   2.252 -1.4519  3.6533  2.7093
  749MOL0     H 1054   9.569   5.242   2.309  0.4388  1.2433  0.7102
  749MOL0     H 1055   9.441   5.174   2.410 -1.1099  2.8694  0.8725
  749MOL0     H 1056   9.284   5.186   2.220 -0.0681 -0.1761  1.3826
  749MOL0     H 1057   9.421   5.248   2.117  3.8027  0.4133  1.5684
  749MOL0     H 1058   9.553   5.035   2.180 -0.5812 -1.4861  0.3813
  749MOL0     H 1059   9.432   4.986   2.287  2.3239 -4.0795 -0.7187
  749MOL0     H 1060   9.257   5.007   2.091 -1.0926  0.0047 -3.5645
  749MOL0     H 1061   9.389   5.031   1.994  2.0860  0.0024  1.3123
  749MOL0     H 1062   9.324   4.788   2.176  1.6558 -2.4499  0.6089
  749MOL0     H 1063   9.334   4.790   1.996  0.3486 -3.4353  1.7638
  749MOL0     H 1064   9.558   4.770   2.195  0.4273 -1.2504 -0.1083
  749MOL0     H 1065   9.583   4.832   2.028 -1.3616  2.3804  1.0666
  749MOL0     H 1066   9.453   4.514   2.220 -4.8990  1.0140 -1.7209
  749MOL0     H 1067   9.505   4.209   1.979  0.8258  1.0201 -1.9830
  749MOL0     H 1068   9.603   4.222   2.113 -1.4233 -2.2087  0.5298
  749MOL0     H 1069   9.413   4.261   2.267 -0.4127 -0.1371 -0.4592
  749MOL0     H 1070   9.404   4.117   2.171 -1.9126  0.0685 -1.0784
  749MOL0     H 1071   9.244   4.371   2.112 -0.1006  0.5114 -0.2624
  749MOL0     H 1072   9.182   4.231   2.193  0.1392  1.9597  1.3141
  749MOL0     H 1073   9.111   4.194   1.971  0.2704  1.6217 -1.1411
  749MOL0     H 1074   9.240   4.085   2.005 -3.9821 -0.6440 -3.0078
  749MOL0     H 1075   9.046   4.096   1.801 -4.0554 -0.2684 -3.2267
  749MOL0     H 1076   8.889   4.061   1.506 -2.2539  0.6867  2.3510
  749MOL0     H 1077   8.945   3.900   1.547  0.5390  1.0100 -0.0634
  749MOL0     H 1078   8.900   4.009   1.678  0.2740 -1.7377  0.6085
  749MOL0     H 1079   8.930   3.727   1.345 -1.2387  1.0897 -1.1516
  749MOL0     H 1080   8.841   3.596   1.150  0.2990 -0.5032  1.1320
  749MOL0     H 1081   8.951   3.760   0.772 -0.9927  1.4257  2.3868
  749MOL0     H 1082   8.853   3.623   0.724 -1.3572 -0.9144  1.8221
  749MOL0     H 1083   8.702   3.660   0.915  0.5949 -1.3985 -0.1103
  749MOL0     H 1084   8.791   3.813   0.951  2.9281  2.7508 -2.8276
  749MOL0     H 1085   8.563   3.827   0.823 -0.8264  0.2215 -1.2096
  749MOL0     H 1086   8.648   3.771   0.683  1.0863  0.4551 -0.8852
  749MOL0     H 1087   8.778   3.993   0.846  1.8484  1.0919 -0.4014
  749MOL0     H 1088   8.820   3.936   0.688  1.1329 -1.2631  1.7041
  749MOL0     H 1089   8.563   4.090   0.728  0.2086 -0.6205  1.0861
  749MOL0     H 1090   8.604   3.987   0.591 -3.1759 -0.3282  1.6138
  749MOL0     H 1091   8.801   4.214   0.650  1.7844  0.8012 -2.0858
  749MOL0     H 1092   8.757   4.129   0.499 -1.1708 -1.7258  1.2216
  749MOL0     H 1093   8.589   4.329   0.652 -1.0898  2.0947 -0.8321
  749MOL0     H 1094   8.533   4.261   0.509  0.5295  0.8691  0.8725
  749MOL0     H 1095   8.618   4.459   0.426  0.1781  0.2173  0.0254
  749MOL0     H 1096   8.738   4.340   0.392 -1.7703 -2.8922  1.4845
  749MOL0     H 1097   9.163   3.756   0.909  2.3622 -2.0005  2.0850
  749MOL0     H 1098   9.259   3.863   1.104  0.1436 -1.0209 -0.2281
  749MOL0     H 1099   9.381   4.146   1.444 -1.3566  0.2257 -1.1418
  749MOL0     H 1100   9.419   4.256   1.658 -0.2540 -1.4628  0.5775
  749MOL0     H 1101   9.676   5.617   2.557 -0.2069  0.0612 -0.0300
  749MOL0     H 1102   9.819   5.693   2.732  1.9062 -1.4375 -2.2572
  749MOL0     H 1103   9.926   5.518   3.214  0.5482 -2.9462 -1.6445
  749MOL0     H 1104  10.077   5.495   3.407 -0.7552  2.0450  0.3290
  749MOL0     H 1105  10.485   5.522   3.313 -3.3860 -1.0715 -0.4702
  749MOL0     H 1106  10.486   5.675   3.385 -0.6374  1.9167  4.7431
  749MOL0     H 1107  10.470   5.576   3.612  3.7488  3.4618  1.5668
  749MOL0     H 1108  10.630   5.583   3.534  0.8261 -1.3537  0.1962
  749MOL0     H 1109  10.461   5.322   3.533 -0.7921  0.4657 -1.0273
  749MOL0     H 1110  10.590   5.347   3.640 -1.6392  1.2180 -0.0186
  749MOL0     H 1111  10.729   5.404   3.416  1.0000 -1.2286 -0.9183
  749MOL0     H 1112  10.597   5.301   3.344  1.5852 -1.9486  0.0168
  749MOL0     H 1113  10.864   5.030   3.524  0.4680 -0.4275 -0.9502
  749MOL0     H 1114  10.402   5.666   3.166  0.9037  1.0324 -0.5552
  749MOL0     H 1115  10.251   5.685   2.969  2.1508 -0.8301  0.2958
  750MOL0     O 1116  11.262   4.232   6.233  0.4810 -0.3038  0.1391
  750MOL0     C 1117  11.210   4.267   6.337  0.3934 -1.1550  0.5685
  750MOL0     O 1118  11.199   4.192   6.452  0.5157  0.3520 -0.0899
  750MOL0     C 1119  11.226   4.064   6.430 -0.1067  0.2853  0.3186
  750MOL0     C 1120  11.155   3.983   6.338 -0.4750  1.4842  0.4058
  750MOL0     C 1121  11.181   3.845   6.330  1.2153 -0.3501 -0.2850
  750MOL0     C 1122  11.275   3.784   6.412 -0.2060 -1.7042  1.0295
  750MOL0     O 1123  11.306   3.651   6.411  0.5261 -0.0201  0.6042
  750MOL0     C 1124  11.213   3.559   6.355  0.0358  0.0646  0.4230
  750MOL0     C 1125  11.286   3.419   6.377 -0.7484  0.5134 -0.7649
  750MOL0     C 1126  11.303   3.383   6.521 -0.1622 -0.4490  0.0443
  750MOL0     C 1127  11.347   3.242   6.550 -0.3431 -0.6841  0.8245
  750MOL0     C 1128  11.483   3.223   6.623  0.5410 -0.3187  0.1457
  750MOL0     C 1129  11.507   3.096   6.704  0.2108 -0.6254  0.0460
  750MOL0     C 1130  11.412   3.091   6.838  0.7665 -0.2473  0.0611
  750MOL0     C 1131  11.459   2.975   6.938 -0.1049 -1.3958 -0.5936
  750MOL0     N 1132  11.413   2.991   7.085  0.8560  0.5585  1.1118
  750MOL0     C 1133  11.280   2.972   7.112  0.2862 -0.8386 -0.4109
  750MOL0     C 1134  11.278   2.967   7.248  0.3351 -0.8630  0.4901
  750MOL0     C 1135  11.153   2.931   7.322 -0.6898  0.0024  0.2791
  750MOL0     C 1136  11.064   3.048   7.384 -0.9113 -0.6338 -0.6967
  750MOL0     C 1137  11.126   3.110   7.515  0.1347  0.0569 -0.1379
  750MOL0     C 1138  11.020   3.194   7.601 -0.3183 -0.0824 -0.3675
  750MOL0     O 1139  10.960   3.278   7.508 -0.4872 -0.3570  0.6827
  750MOL0     C 1140  10.846   3.336   7.560 -1.4396 -0.1045 -0.1748
  750MOL0     C 1141  10.785   3.320   7.692  0.0115  0.1648  0.1796
  750MOL0     C 1142  10.654   3.361   7.725 -0.5821  0.7950  0.0766
  750MOL0     C 1143  10.607   3.345   7.866 -0.5229 -0.4151 -0.4240
  750MOL0     C 1144  10.571   3.411   7.626 -0.1924  0.4952  0.2325
  750MOL0     C 1145  10.421   3.418   7.630 -0.4042  1.0560 -0.3957
  750MOL0     O 1146  10.356   3.478   7.525  0.0375  0.2680 -0.0056
  750MOL0     C 1147  10.231   3.456   7.491  0.7600  0.1313 -0.2572
  750MOL0     C 1148  10.131   3.377   7.555  0.1122 -0.2677 -0.3316
  750MOL0     C 1149  10.005   3.375   7.510  0.7688 -1.1838  0.1722
  750MOL0     C 1150   9.963   3.451   7.393  0.0415  0.1520  0.2804
  750MOL0     O 1151   9.834   3.433   7.346 -0.2137  0.1180 -0.5922
  750MOL0     C 1152   9.802   3.498   7.223  0.1522 -0.3605 -0.7138
  750MOL0     C 1153   9.656   3.467   7.187  0.3558 -0.3928  0.1482
  750MOL0     C 1154   9.643   3.332   7.128 -0.0990  0.0414  0.0756
  750MOL0     C 1155   9.500   3.307   7.077 -0.5684  0.1285 -0.6502
  750MOL0     C 1156   9.502   3.194   6.967 -0.6033 -0.3585  0.8160
  750MOL0     C 1157   9.369   3.122   6.967 -0.2454  0.6625  0.0841
  750MOL0     C 1158   9.367   3.001   6.869  0.4458 -0.2290 -0.5805
  750MOL0     C 1159   9.232   2.941   6.869 -0.8116 -1.1471  0.0040
  750MOL0    Cl 1160   9.227   2.804   6.753 -0.0102  0.0374 -0.0896
  750MOL0     C 1161  10.070   3.510   7.322  0.3077  0.5963  0.3061
  750MOL0     C 1162  10.195   3.522   7.376 -0.0475  0.3033  0.3069
  750MOL0     O 1163  10.363   3.362   7.727 -0.1614  0.2832 -0.3822
  750MOL0     C 1164  10.632   3.432   7.496  0.3026  0.0906  0.2094
  750MOL0     C 1165  10.765   3.399   7.468  0.1359 -0.3513 -0.4325
  750MOL0     N 1166  11.407   2.983   7.304  0.0317 -0.3783  0.7610
  750MOL0     N 1167  11.492   2.998   7.201  0.6570  0.0175  0.2789
  750MOL0     C 1168  11.337   3.867   6.511  0.5749  1.3985 -0.2641
  750MOL0     C 1169  11.327   4.005   6.516  0.1700 -0.5450 -0.8565
  750MOL0     C 1170  11.148   4.405   6.326 -0.6360  0.5447  0.6121
  750MOL0     C 1171  11.132   4.479   6.209 -1.6989 -0.1552 -0.5295
  750MOL0     C 1172  11.068   4.598   6.209 -0.1800 -0.9162 -0.0739
  750MOL0     C 1173  11.011   4.651   6.325  0.4604 -0.2130 -0.3027
  750MOL0     O 1174  10.951   4.772   6.335 -0.4696 -0.0653  0.9856
  750MOL0     C 1175  10.913   4.850   6.214  0.7421  0.6712 -0.3104
  750MOL0     C 1176  10.811   4.962   6.245 -0.1671  0.2804  0.8263
  750MOL0     C 1177  10.868   5.059   6.335 -0.6062  0.1356  0.4913
  750MOL0     C 1178  10.753   5.146   6.393  0.0436  0.1961 -0.2481
  750MOL0     C 1179  10.688   5.242   6.303 -0.3432  0.0008 -0.5184
  750MOL0     C 1180  10.630   5.312   6.232 -0.5775 -0.4378  0.2789
  750MOL0     C 1181  11.018   4.583   6.454  0.6946 -0.0812  0.2930
  750MOL0     C 1182  11.087   4.458   6.445  0.9824  0.9120  0.2446
  750MOL0     H 1183  11.093   4.030   6.261  0.7433 -1.5278 -2.6425
  750MOL0     H 1184  11.125   3.801   6.248 -1.6113  0.1255  1.2550
  750MOL0     H 1185  11.111   3.566   6.394  0.4187  1.9710  1.1983
  750MOL0     H 1186  11.212   3.575   6.246  2.3816 -1.9854  0.0128
  750MOL0     H 1187  11.225   3.342   6.328 -0.4133 -2.0407  2.5443
  750MOL0     H 1188  11.385   3.419   6.330  0.0384 -1.0688  0.7926
  750MOL0     H 1189  11.381   3.450   6.560 -1.8393  0.4246  2.1213
  750MOL0     H 1190  11.204   3.396   6.565 -0.8718  1.1911 -1.8942
  750MOL0     H 1191  11.264   3.183   6.590 -0.1354 -1.9491 -0.5279
  750MOL0     H 1192  11.363   3.186   6.458 -0.5976 -0.4408  0.6321
  750MOL0     H 1193  11.561   3.230   6.546 -0.5716  0.8431 -0.9331
  750MOL0     H 1194  11.497   3.305   6.693  0.3650  0.7778 -1.0569
  750MOL0     H 1195  11.492   3.007   6.643 -3.4283  2.1967 -3.7364
  750MOL0     H 1196  11.614   3.105   6.727  0.7551  0.5916 -2.6495
  750MOL0     H 1197  11.419   3.190   6.885 -0.8401 -1.3711  2.9211
  750MOL0     H 1198  11.310   3.060   6.816  0.9465 -1.9549  1.4571
  750MOL0     H 1199  11.568   2.973   6.948  0.0430  2.3537  0.2967
  750MOL0     H 1200  11.424   2.882   6.893  1.9549 -1.9511 -1.1561
  750MOL0     H 1201  11.201   2.964   7.038  0.6251  0.5389 -0.9557
  750MOL0     H 1202  11.087   2.861   7.272  0.1208  0.4851 -1.5647
  750MOL0     H 1203  11.167   2.875   7.415  0.7978  0.4202  0.3365
  750MOL0     H 1204  10.964   3.015   7.412  0.3224 -0.9932  4.2013
  750MOL0     H 1205  11.057   3.129   7.311 -0.9999  0.5236  0.5564
  750MOL0     H 1206  11.209   3.174   7.482  1.5900 -1.3108  0.7916
  750MOL0     H 1207  11.164   3.029   7.577  0.4477 -0.9573 -1.6177
  750MOL0     H 1208  11.085   3.246   7.672  0.5833  1.7493 -2.3954
  750MOL0     H 1209  10.950   3.128   7.653 -0.5560  0.1290 -0.4171
  750MOL0     H 1210  10.840   3.275   7.774 -3.3499 -2.5610  1.1396
  750MOL0     H 1211  10.550   3.251   7.870 -2.8197  0.6847 -3.6087
  750MOL0     H 1212  10.695   3.332   7.930 -0.6251  0.0486 -0.1937
  750MOL0     H 1213  10.568   3.443   7.891  1.5344  0.1625  0.7367
  750MOL0     H 1214  10.156   3.332   7.650  1.2352  0.9162 -0.0345
  750MOL0     H 1215   9.932   3.306   7.549  0.4172 -1.6065 -1.1669
  750MOL0     H 1216   9.834   3.603   7.224  2.1931 -0.8763 -2.7765
  750MOL0     H 1217   9.861   3.460   7.139 -0.1928  0.9614 -1.5837
  750MOL0     H 1218   9.592   3.485   7.274 -2.2309 -0.0695 -1.6798
  750MOL0     H 1219   9.623   3.546   7.119  2.3240 -0.7875 -1.3578
  750MOL0     H 1220   9.665   3.258   7.204 -3.9426 -0.4785  0.9113
  750MOL0     H 1221   9.711   3.332   7.042 -0.2491 -2.1215 -0.0838
  750MOL0     H 1222   9.436   3.279   7.161 -0.8551  1.6137 -0.3504
  750MOL0     H 1223   9.460   3.396   7.028  0.4626  0.6048 -0.6555
  750MOL0     H 1224   9.589   3.129   6.982 -1.3933 -1.9198 -0.9758
  750MOL0     H 1225   9.516   3.240   6.869  2.6253 -3.2024 -0.2388
  750MOL0     H 1226   9.348   3.091   7.069  0.1674 -0.7335 -0.2399
  750MOL0     H 1227   9.295   3.194   6.930 -0.3396 -0.1453 -1.3841
  750MOL0     H 1228   9.442   2.930   6.906 -0.4102 -1.3444 -0.9624
  750MOL0     H 1229   9.395   3.034   6.769  0.2133  0.3541 -0.4591
  750MOL0     H 1230   9.158   3.014   6.833  0.0151  0.9172  2.2522
  750MOL0     H 1231   9.208   2.921   6.974 -0.2664 -0.2808  0.3008
  750MOL0     H 1232  10.050   3.567   7.232 -0.1162  0.1146  0.0928
  750MOL0     H 1233  10.269   3.585   7.327 -0.0641  0.1534  0.0851
  750MOL0     H 1234  10.570   3.469   7.416 -0.5130  0.9145  1.1880
  750MOL0     H 1235  10.804   3.430   7.372  0.3563  0.6563 -0.0314
  750MOL0     H 1236  11.412   3.817   6.572  1.2700  1.0716 -1.3619
  750MOL0     H 1237  11.377   4.059   6.596 -1.7296 -1.3780  0.9883
  750MOL0     H 1238  11.162   4.444   6.111  0.2606  0.6322 -0.2483
  750MOL0     H 1239  11.059   4.658   6.118 -1.7067  0.1422  0.7248
  750MOL0     H 1240  11.008   4.888   6.176 -0.0170  0.4911 -2.5486
  750MOL0     H 1241  10.866   4.795   6.132  1.2450 -0.3274  0.0575
  750MOL0     H 1242  10.717   4.921   6.282 -0.2823 -2.5490 -2.1150
  750MOL0     H 1243  10.778   5.019   6.158  1.4803  0.3337  0.2069
  750MOL0     H 1244  10.943   5.117   6.280  0.5969 -1.3617  0.5132
  750MOL0     H 1245  10.915   5.009   6.420 -0.1965  1.7246  1.2380
  750MOL0     H 1246  10.814   5.208   6.459  1.8554 -1.3479 -0.4009
  750MOL0     H 1247  10.678   5.094   6.454  0.4101 -2.0337 -1.6088
  750MOL0     H 1248  10.577   5.375   6.164  0.1894  1.6044  1.4841
  750MOL0     H 1249  10.976   4.633   6.540  1.2160 -1.4683  1.3822
  750MOL0     H 1250  11.094   4.401   6.537  0.2123  1.5695  0.7233
  751MOL0     O 1251   3.788  10.739   5.830 -0.1782 -0.6348 -0.3890
  751MOL0     C 1252   3.761  10.655   5.918  0.3222  0.1331  0.3540
  751MOL0     O 1253   3.830  10.525   5.925  0.0068  0.6316  0.2281
  751MOL0     C 1254   3.948  10.503   5.855 -0.0325 -0.3435  0.1446
  751MOL0     C 1255   4.002  10.377   5.873 -0.1949 -0.0125  1.2988
  751MOL0     C 1256   4.119  10.328   5.817  0.3535  0.6170  0.3249
  751MOL0     C 1257   4.169  10.406   5.717  0.1201 -0.9726 -0.6647
  751MOL0     O 1258   4.275  10.358   5.655  0.5067 -0.3943  0.1225
  751MOL0     C 1259   4.250  10.306   5.532 -0.3723 -0.3832 -0.2820
  751MOL0     C 1260   4.343  10.369   5.420  0.8169 -0.1019 -0.5772
  751MOL0     C 1261   4.327  10.516   5.404 -0.4005  0.9050 -0.0088
  751MOL0     C 1262   4.441  10.556   5.315 -1.6278 -0.2426 -0.4462
  751MOL0     C 1263   4.408  10.665   5.232 -0.2661 -0.3450  0.9842
  751MOL0     C 1264   4.362  10.788   5.300  0.4414 -1.1207  0.3576
  751MOL0     C 1265   4.386  10.915   5.219  0.7835 -0.1878  0.5404
  751MOL0     C 1266   4.299  11.038   5.268 -0.7029  0.1810  0.3121
  751MOL0     N 1267   4.280  11.140   5.163  0.4382 -0.4605 -0.3181
  751MOL0     C 1268   4.205  11.117   5.046  0.1358 -0.5637 -0.5623
  751MOL0     C 1269   4.163  11.244   5.010  0.2696  0.0733 -0.4722
  751MOL0     C 1270   4.077  11.264   4.887 -0.5050 -0.7168  0.5011
  751MOL0     C 1271   4.114  11.379   4.797 -0.1035 -0.2596 -0.5016
  751MOL0     C 1272   4.045  11.505   4.854 -0.3709  0.9154 -0.4369
  751MOL0     C 1273   4.081  11.636   4.790  0.6656 -1.0421  0.3236
  751MOL0     O 1274   4.021  11.665   4.666 -0.2845 -0.1053  0.5430
  751MOL0     C 1275   4.084  11.637   4.544 -0.4601 -0.7815  0.1443
  751MOL0     C 1276   4.216  11.625   4.527 -0.3859 -0.0070  0.5137
  751MOL0     C 1277   4.271  11.617   4.397 -0.3986 -0.6727  0.0096
  751MOL0     C 1278   4.423  11.619   4.378 -0.9215 -0.0054 -0.2699
  751MOL0     C 1279   4.185  11.601   4.286  0.0040 -0.3987 -0.4691
  751MOL0     C 1280   4.244  11.584   4.158 -0.1580 -0.6572  0.3472
  751MOL0     O 1281   4.288  11.458   4.121 -0.4101  0.1130  0.0898
  751MOL0     C 1282   4.347  11.436   3.997  0.0166  0.2306  0.3134
  751MOL0     C 1283   4.468  11.379   3.984 -0.2419 -0.2376 -0.0509
  751MOL0     C 1284   4.520  11.358   3.858 -1.4935  0.1955  0.7695
  751MOL0     C 1285   4.452  11.391   3.739  0.1730 -0.1875  0.1802
  751MOL0     O 1286   4.494  11.374   3.605 -0.0173  0.7079 -0.8209
  751MOL0     C 1287   4.575  11.262   3.573  0.1445  1.0767 -0.6609
  751MOL0     C 1288   4.488  11.135   3.592  0.3153 -0.0227 -0.0341
  751MOL0     C 1289   4.558  11.004   3.548  0.8077 -0.8269  0.2167
  751MOL0     C 1290   4.593  11.006   3.400  0.4704  0.3560 -0.2765
  751MOL0     C 1291   4.629  10.867   3.355  0.5361  0.1120 -0.7357
  751MOL0     C 1292   4.698  10.843   3.217  0.2143 -0.2449  0.2641
  751MOL0     C 1293   4.644  10.715   3.138  0.6697 -0.4032  0.4064
  751MOL0     C 1294   4.711  10.711   3.005  0.9362 -0.0317  0.6495
  751MOL0    Cl 1295   4.889  10.746   2.980 -0.6654  0.2704  0.2472
  751MOL0     C 1296   4.331  11.456   3.759 -0.8545 -0.1108 -0.5261
  751MOL0     C 1297   4.276  11.477   3.889  0.9338  0.5939 -0.5076
  751MOL0     O 1298   4.258  11.688   4.090  0.2606 -0.2724 -0.5666
  751MOL0     C 1299   4.051  11.620   4.307  0.5466  0.5389 -0.3179
  751MOL0     C 1300   3.999  11.635   4.433 -0.5690  0.1379 -0.1952
  751MOL0     N 1301   4.215  11.334   5.094  0.7739 -0.4119 -0.2392
  751MOL0     N 1302   4.289  11.278   5.182 -0.6533  1.0199 -0.1972
  751MOL0     C 1303   4.129  10.543   5.698 -0.9753 -0.1405  0.2890
  751MOL0     C 1304   4.020  10.590   5.771 -0.1545 -0.4713  0.4552
  751MOL0     C 1305   3.657  10.675   6.016  0.3584  0.3208  0.6027
  751MOL0     C 1306   3.601  10.807   6.025 -0.7214 -0.2293 -0.1787
  751MOL0     C 1307   3.507  10.834   6.124 -0.7390  0.5659  0.2189
  751MOL0     C 1308   3.458  10.736   6.210  0.2157  0.9010  1.2135
  751MOL0     O 1309   3.353  10.753   6.296  0.4855  0.3335  0.6479
  751MOL0     C 1310   3.264  10.869   6.304  0.6447 -0.1069  0.4987
  751MOL0     C 1311   3.311  10.973   6.421  0.2047 -0.5878  0.0892
  751MOL0     C 1312   3.248  11.117   6.419  1.0014 -0.3175 -0.3942
  751MOL0     C 1313   3.321  11.222   6.511 -0.0503 -0.1426  0.3651
  751MOL0     C 1314   3.322  11.162   6.645 -0.5834 -0.4787 -0.3290
  751MOL0     C 1315   3.302  11.102   6.749  0.0780  0.7341 -0.2735
  751MOL0     C 1316   3.510  10.604   6.198  0.6611  0.0832 -0.0610
  751MOL0     C 1317   3.605  10.576   6.093  0.7023 -0.1690 -0.2226
  751MOL0     H 1318   3.953  10.317   5.949  1.6899 -0.6904  2.0705
  751MOL0     H 1319   4.167  10.234   5.842  0.3807  0.5839  0.1499
  751MOL0     H 1320   4.266  10.198   5.525  2.1610  0.0094 -1.7464
  751MOL0     H 1321   4.145  10.319   5.507 -0.2543 -0.3488 -0.7615
  751MOL0     H 1322   4.450  10.351   5.437  1.4375  1.3706 -2.5329
  751MOL0     H 1323   4.315  10.316   5.328  1.0172 -2.8778  0.8617
  751MOL0     H 1324   4.231  10.539   5.357 -1.2892 -0.5816  0.9859
  751MOL0     H 1325   4.332  10.569   5.500 -2.9138  1.4577 -0.1076
  751MOL0     H 1326   4.514  10.593   5.388 -4.2599 -0.8585  2.7707
  751MOL0     H 1327   4.487  10.477   5.256 -0.3744 -0.6645  1.0306
  751MOL0     H 1328   4.500  10.687   5.176 -1.2407 -0.6327 -0.8192
  751MOL0     H 1329   4.340  10.632   5.152 -0.0977  2.2494 -0.3623
  751MOL0     H 1330   4.257  10.801   5.328  1.0178  0.8558  1.9089
  751MOL0     H 1331   4.423  10.789   5.391  3.5860 -1.5688 -1.5731
  751MOL0     H 1332   4.493  10.935   5.230  0.4264  1.7772  0.8415
  751MOL0     H 1333   4.363  10.890   5.115  1.0064 -0.6897  0.6097
  751MOL0     H 1334   4.347  11.093   5.349 -0.0736  1.5820 -0.9689
  751MOL0     H 1335   4.200  10.998   5.294 -1.9739  2.9626  0.1336
  751MOL0     H 1336   4.166  11.021   5.015  1.5303 -1.1042 -0.6989
  751MOL0     H 1337   4.094  11.171   4.832  0.4440 -0.8187  0.9424
  751MOL0     H 1338   3.969  11.261   4.903 -0.6284  0.8554  0.1093
  751MOL0     H 1339   4.065  11.359   4.701 -0.3782 -0.8992 -0.2316
  751MOL0     H 1340   4.223  11.388   4.794 -0.0201 -0.7185  0.6380
  751MOL0     H 1341   4.065  11.515   4.961 -1.1545  1.3273 -0.3227
  751MOL0     H 1342   3.937  11.489   4.851 -0.2206 -0.0147 -1.4414
  751MOL0     H 1343   4.183  11.674   4.800  0.2859  0.2271 -0.3427
  751MOL0     H 1344   4.029  11.704   4.858 -1.3519  0.6739 -2.6643
  751MOL0     H 1345   4.286  11.635   4.610 -0.4113  0.1902  0.5118
  751MOL0     H 1346   4.452  11.672   4.469 -1.3542  1.6679 -1.0656
  751MOL0     H 1347   4.469  11.520   4.373  0.2387  0.5641 -2.1421
  751MOL0     H 1348   4.452  11.676   4.289  2.6843 -0.7132  0.2753
  751MOL0     H 1349   4.528  11.357   4.072 -1.0893  0.6762  0.7813
  751MOL0     H 1350   4.619  11.314   3.868 -0.3095  3.1075  4.5686
  751MOL0     H 1351   4.605  11.282   3.470  3.1386  0.5294  0.0057
  751MOL0     H 1352   4.664  11.255   3.636  1.1830  2.1037 -1.9416
  751MOL0     H 1353   4.469  11.127   3.699 -0.4919  2.6769  0.0943
  751MOL0     H 1354   4.395  11.151   3.537 -0.0093  0.2746  0.5923
  751MOL0     H 1355   4.492  10.920   3.569  1.1754 -0.9456  0.9238
  751MOL0     H 1356   4.648  10.995   3.610 -0.4716 -2.0200  1.9489
  751MOL0     H 1357   4.511  11.048   3.342 -2.1630 -0.0748  2.8217
  751MOL0     H 1358   4.682  11.067   3.380  1.3904 -0.3037  1.5276
  751MOL0     H 1359   4.541  10.802   3.359 -0.1250  0.6933 -3.5710
  751MOL0     H 1360   4.695  10.832   3.435 -1.3243  1.1738  1.3892
  751MOL0     H 1361   4.674  10.933   3.160  1.9150 -0.7472 -1.3553
  751MOL0     H 1362   4.806  10.830   3.232  0.3931  1.8212  1.1754
  751MOL0     H 1363   4.537  10.721   3.117  0.8300 -1.2880 -0.7555
  751MOL0     H 1364   4.648  10.619   3.190 -0.8427 -0.9525 -0.4434
  751MOL0     H 1365   4.655  10.773   2.935  1.2063 -1.5063 -0.9391
  751MOL0     H 1366   4.694  10.607   2.974 -1.3294  0.6351 -0.5646
  751MOL0     H 1367   4.288  11.500   3.669  2.0230  2.9904 -0.5979
  751MOL0     H 1368   4.190  11.539   3.912  1.1596  0.5555  0.4786
  751MOL0     H 1369   3.986  11.620   4.220 -1.1303  1.7900  0.8659
  751MOL0     H 1370   3.892  11.651   4.447 -0.4757 -0.4598  1.3981
  751MOL0     H 1371   4.167  10.617   5.629 -2.4710  0.4924  0.1062
  751MOL0     H 1372   3.976  10.686   5.746  0.0160 -0.4300  0.3173
  751MOL0     H 1373   3.639  10.880   5.954  2.2575  0.3390  1.8376
  751MOL0     H 1374   3.464  10.933   6.138  2.8414  2.5167 -1.1232
  751MOL0     H 1375   3.262  10.920   6.207  0.8609 -1.5663 -0.2884
  751MOL0     H 1376   3.164  10.831   6.328  0.3238 -0.3734 -1.1340
  751MOL0     H 1377   3.419  10.984   6.408  0.0335 -0.9446 -1.8992
  751MOL0     H 1378   3.284  10.913   6.509 -0.5153 -2.6018 -1.4140
  751MOL0     H 1379   3.143  11.100   6.445  0.7622  0.0727 -1.0763
  751MOL0     H 1380   3.244  11.152   6.315  1.9051 -0.2108 -0.3962
  751MOL0     H 1381   3.269  11.318   6.515 -0.4572  0.0646 -4.0200
  751MOL0     H 1382   3.425  11.242   6.482  1.0789 -3.9794  1.0981
  751MOL0     H 1383   3.283  11.044   6.837  1.3186  0.7740  0.0441
  751MOL0     H 1384   3.463  10.521   6.250  2.0947  1.3259  3.5104
  751MOL0     H 1385   3.630  10.471   6.091 -1.3110 -0.7490  1.4071
  752MOL0     O 1386   1.175   4.428   0.310  0.1802  0.0603  0.4454
  752MOL0     C 1387   1.243   4.524   0.311 -0.3008  0.5882 -1.3825
  752MOL0     O 1388   1.325   4.559   0.210  0.2319 -0.1279  0.0461
  752MOL0     C 1389   1.311   4.499   0.090  0.6982 -0.2916 -0.0028
  752MOL0     C 1390   1.330   4.365   0.061  0.5262 -0.7154  0.7715
  752MOL0     C 1391   1.295   4.310  -0.064  0.3329 -0.4521 -0.1367
  752MOL0     C 1392   1.248   4.393  -0.164  0.7461 -0.5256  0.6580
  752MOL0     O 1393   1.242   4.348  -0.294 -0.0446 -0.2656  0.9660
  752MOL0     C 1394   1.174   4.426  -0.397 -0.3830 -0.4955  0.2647
  752MOL0     C 1395   1.170   4.342  -0.525  0.0366  0.3251 -0.3641
  752MOL0     C 1396   1.090   4.214  -0.519  0.2059  0.2215  0.5022
  752MOL0     C 1397   1.093   4.170  -0.664 -0.2166 -0.2843 -0.0448
  752MOL0     C 1398   1.031   4.030  -0.696  0.3088 -0.6438 -0.0738
  752MOL0     C 1399   0.876   4.011  -0.665 -0.5207 -1.4271 -0.5512
  752MOL0     C 1400   0.826   3.893  -0.738  0.1391  0.1417  0.1471
  752MOL0     C 1401   0.873   3.751  -0.680 -0.0230 -0.0895 -0.6860
  752MOL0     N 1402   0.824   3.629  -0.732 -0.1593  0.6631  0.5631
  752MOL0     C 1403   0.695   3.580  -0.741  0.4543  1.4740  0.5484
  752MOL0     C 1404   0.692   3.468  -0.808 -1.0296  0.2701 -0.1963
  752MOL0     C 1405   0.575   3.398  -0.853  0.7479 -0.0577  0.0129
  752MOL0     C 1406   0.541   3.264  -0.798 -0.3869 -0.2699 -0.2421
  752MOL0     C 1407   0.448   3.183  -0.893  0.1040 -0.3942 -0.6838
  752MOL0     C 1408   0.384   3.062  -0.823 -0.0355 -0.1122  0.0019
  752MOL0     O 1409   0.261   3.104  -0.776 -1.0393  0.2716 -0.3929
  752MOL0     C 1410   0.187   3.019  -0.705  1.1181  0.7881 -0.5148
  752MOL0     C 1411   0.063   3.067  -0.657 -0.4580 -0.2664 -0.1289
  752MOL0     C 1412  -0.033   2.990  -0.590  0.2030  0.1337  0.1073
  752MOL0     C 1413  -0.160   3.062  -0.548 -0.2335 -0.3251 -0.5435
  752MOL0     C 1414   0.002   2.866  -0.544 -0.0838 -0.7194 -0.3662
  752MOL0     C 1415  -0.087   2.781  -0.463 -0.4051 -0.0790  1.1840
  752MOL0     O 1416  -0.015   2.676  -0.406 -0.2582 -0.0944  1.1081
  752MOL0     C 1417  -0.069   2.580  -0.325  0.0767 -0.5713  0.2444
  752MOL0     C 1418  -0.200   2.574  -0.286 -0.2394 -0.2759  0.1743
  752MOL0     C 1419  -0.249   2.459  -0.224 -0.3212 -0.2377  0.8015
  752MOL0     C 1420  -0.164   2.345  -0.209 -0.7141 -0.2455  0.4266
  752MOL0     O 1421  -0.219   2.219  -0.184  0.4597  0.5486  0.7130
  752MOL0     C 1422  -0.331   2.211  -0.090  0.1821 -0.2980 -0.0289
  752MOL0     C 1423  -0.352   2.068  -0.056  0.3443  1.1748  0.1196
  752MOL0     C 1424  -0.418   1.989  -0.167 -0.0824  0.2882 -0.1543
  752MOL0     C 1425  -0.318   1.911  -0.261  0.0475 -1.0475 -0.7311
  752MOL0     C 1426  -0.395   1.875  -0.391  0.0117  0.6269  0.7074
  752MOL0     C 1427  -0.354   1.965  -0.504  0.5977 -1.3170 -0.8391
  752MOL0     C 1428  -0.402   1.913  -0.634  0.4498 -0.6231  0.7797
  752MOL0     C 1429  -0.341   1.981  -0.750  0.0170  0.6332  0.8340
  752MOL0    Cl 1430  -0.386   2.159  -0.751  0.6201 -0.3897  0.1531
  752MOL0     C 1431  -0.029   2.358  -0.241  0.6275 -0.0264  0.2140
  752MOL0     C 1432   0.015   2.479  -0.292 -0.1979 -0.0444 -0.3643
  752MOL0     O 1433  -0.210   2.808  -0.454 -0.2728 -0.0190  0.3273
  752MOL0     C 1434   0.130   2.820  -0.586 -0.1759  0.3091 -0.2722
  752MOL0     C 1435   0.210   2.886  -0.672 -0.6068  0.1104 -0.7182
  752MOL0     N 1436   0.828   3.439  -0.838 -0.0591 -0.0404 -0.0064
  752MOL0     N 1437   0.905   3.537  -0.804  0.7858 -0.3389  0.3624
  752MOL0     C 1438   1.225   4.532  -0.133  0.1245 -0.3964 -0.3215
  752MOL0     C 1439   1.246   4.572  -0.008 -0.0900  0.2398 -1.4671
  752MOL0     C 1440   1.242   4.610   0.444 -0.3423  0.7020 -0.6069
  752MOL0     C 1441   1.153   4.568   0.548  0.9282 -0.3420 -0.2946
  752MOL0     C 1442   1.134   4.654   0.665  0.7136  0.3386 -0.1879
  752MOL0     C 1443   1.220   4.753   0.691  0.4614 -0.2840 -0.8769
  752MOL0     O 1444   1.192   4.841   0.802 -0.1424 -0.0038 -0.6624
  752MOL0     C 1445   1.161   4.765   0.920 -0.2920  0.3831 -0.3823
  752MOL0     C 1446   1.210   4.844   1.041  0.3068  0.1990  0.0140
  752MOL0     C 1447   1.135   4.975   1.061 -0.6592  0.1880 -0.3484
  752MOL0     C 1448   1.177   5.054   1.185 -0.6219  1.0799 -0.4624
  752MOL0     C 1449   1.096   5.167   1.227 -0.7666  0.4601  0.8389
  752MOL0     C 1450   1.039   5.267   1.250 -0.5036  0.8618  0.8519
  752MOL0     C 1451   1.309   4.796   0.590  0.0294  0.1513 -0.0780
  752MOL0     C 1452   1.320   4.727   0.460 -0.2790 -1.6808 -0.3937
  752MOL0     H 1453   1.374   4.296   0.133  2.7788  1.5335  1.7099
  752MOL0     H 1454   1.317   4.207  -0.092  0.1305 -0.4258 -0.3917
  752MOL0     H 1455   1.079   4.455  -0.350  0.2391  3.7625 -0.7129
  752MOL0     H 1456   1.232   4.516  -0.417 -0.8648 -0.1879  0.2353
  752MOL0     H 1457   1.139   4.398  -0.614 -2.0868 -3.5971 -2.4138
  752MOL0     H 1458   1.275   4.314  -0.522  0.6068  2.4264  1.8826
  752MOL0     H 1459   1.141   4.135  -0.464  0.1910 -0.0458  0.1366
  752MOL0     H 1460   0.987   4.228  -0.484 -0.7516 -1.9805 -1.1713
  752MOL0     H 1461   1.042   4.242  -0.728  0.6721 -1.0593 -1.6905
  752MOL0     H 1462   1.194   4.148  -0.699 -0.2363 -1.5891  0.6608
  752MOL0     H 1463   1.053   3.995  -0.797 -0.1917 -0.0763 -0.3807
  752MOL0     H 1464   1.086   3.957  -0.636 -1.9651 -1.4547  1.1476
  752MOL0     H 1465   0.860   4.008  -0.557 -0.1625  1.1761 -0.3661
  752MOL0     H 1466   0.824   4.100  -0.700  0.8548 -1.0609 -1.7817
  752MOL0     H 1467   0.719   3.894  -0.715  0.5887  0.6986  2.5060
  752MOL0     H 1468   0.828   3.898  -0.847  0.8168 -0.3670  0.1291
  752MOL0     H 1469   0.847   3.752  -0.574  2.0525 -0.2121 -0.1382
  752MOL0     H 1470   0.982   3.751  -0.681  0.0548 -1.8915  1.0423
  752MOL0     H 1471   0.610   3.627  -0.694 -0.5033  2.8300 -2.3460
  752MOL0     H 1472   0.485   3.458  -0.835  0.6469 -0.5415  1.2985
  752MOL0     H 1473   0.591   3.394  -0.961  1.6542 -0.6760  0.1597
  752MOL0     H 1474   0.484   3.285  -0.708 -0.4754 -0.4541 -0.2555
  752MOL0     H 1475   0.636   3.219  -0.770  0.1216  0.7750 -0.2235
  752MOL0     H 1476   0.499   3.142  -0.980  0.2233  0.5906 -1.0976
  752MOL0     H 1477   0.363   3.247  -0.922 -1.9445 -2.8006 -0.3507
  752MOL0     H 1478   0.459   3.037  -0.748 -1.0638  1.1635  1.5120
  752MOL0     H 1479   0.394   2.982  -0.897  2.6676  0.2713 -0.1543
  752MOL0     H 1480   0.034   3.169  -0.681 -1.1934  0.1913  2.4362
  752MOL0     H 1481  -0.157   3.167  -0.579  0.4030 -0.4617 -0.9698
  752MOL0     H 1482  -0.248   3.027  -0.604  0.8403 -2.1539 -1.1511
  752MOL0     H 1483  -0.174   3.056  -0.440  3.0252 -1.9047 -0.1040
  752MOL0     H 1484  -0.260   2.664  -0.299  0.4018 -0.1358 -2.4872
  752MOL0     H 1485  -0.356   2.471  -0.209 -0.4419 -0.7366  0.4111
  752MOL0     H 1486  -0.323   2.280  -0.006 -2.0985  0.3288 -0.2493
  752MOL0     H 1487  -0.423   2.247  -0.137  0.9654  3.4943  1.0204
  752MOL0     H 1488  -0.271   2.018  -0.003 -0.0960 -0.3570 -0.6000
  752MOL0     H 1489  -0.433   2.062   0.018  0.1669 -3.1290 -0.2135
  752MOL0     H 1490  -0.478   2.056  -0.229 -0.4268  1.9342  1.8477
  752MOL0     H 1491  -0.485   1.915  -0.121  0.4270  0.3723  0.7564
  752MOL0     H 1492  -0.238   1.977  -0.295 -0.3154 -1.5084 -2.6128
  752MOL0     H 1493  -0.284   1.815  -0.220 -1.2535 -0.8219  0.9994
  752MOL0     H 1494  -0.503   1.868  -0.373  0.0101 -3.6715  0.1113
  752MOL0     H 1495  -0.372   1.773  -0.424 -1.4839  1.4726 -3.5847
  752MOL0     H 1496  -0.398   2.063  -0.482  0.9990 -1.7531  2.3140
  752MOL0     H 1497  -0.245   1.972  -0.500  0.6274 -2.3230  0.8653
  752MOL0     H 1498  -0.511   1.922  -0.646  0.6662  0.2367 -0.8128
  752MOL0     H 1499  -0.377   1.807  -0.643 -1.0902 -1.1808  2.4104
  752MOL0     H 1500  -0.362   1.940  -0.849  2.0351 -1.5609  1.2347
  752MOL0     H 1501  -0.234   1.962  -0.751 -0.2370 -0.9810  1.6155
  752MOL0     H 1502   0.034   2.272  -0.220  0.3057 -0.4767 -0.5768
  752MOL0     H 1503   0.117   2.505  -0.316 -0.4025  0.9728 -0.1519
  752MOL0     H 1504   0.159   2.718  -0.564 -2.5168  0.3545  3.9946
  752MOL0     H 1505   0.295   2.837  -0.720 -0.1946  0.0069  0.1055
  752MOL0     H 1506   1.198   4.598  -0.214  0.5246 -1.5052 -1.3922
  752MOL0     H 1507   1.221   4.673   0.024  4.7669  0.4392  3.0096
  752MOL0     H 1508   1.077   4.495   0.524 -2.8352  2.4798  1.8835
  752MOL0     H 1509   1.056   4.632   0.737  2.3778 -0.2221  1.5038
  752MOL0     H 1510   1.060   4.724   0.932  1.4443 -4.3287  0.1081
  752MOL0     H 1511   1.217   4.671   0.913 -1.8200 -0.5099 -1.2736
  752MOL0     H 1512   1.310   4.883   1.017  0.4001 -1.0680 -1.9875
  752MOL0     H 1513   1.213   4.790   1.136  1.1010  1.8697  0.9808
  752MOL0     H 1514   1.033   4.947   1.091 -2.1045  2.7630 -2.4382
  752MOL0     H 1515   1.131   5.037   0.971  0.2870 -0.0059 -0.5298
  752MOL0     H 1516   1.281   5.089   1.185 -0.3278  0.2473  0.1934
  752MOL0     H 1517   1.174   4.974   1.259  1.3937 -0.9020 -2.3887
  752MOL0     H 1518   0.977   5.353   1.266  0.8857  2.2106 -0.5508
  752MOL0     H 1519   1.373   4.879   0.617  1.0249 -0.9451  1.0726
  752MOL0     H 1520   1.391   4.768   0.390  1.0090 -1.4726  0.9759
  753MOL0     O 1521   7.097  10.563   8.786 -0.0069 -0.5028  0.5535
  753MOL0     C 1522   7.016  10.472   8.794 -0.0911 -0.4804  0.5591
  753MOL0     O 1523   6.894  10.491   8.856 -0.0650  0.0348 -0.3661
  753MOL0     C 1524   6.869  10.616   8.900  0.5167 -0.8033  0.4765
  753MOL0     C 1525   6.784  10.698   8.835  0.5026  0.1428 -0.5349
  753MOL0     C 1526   6.755  10.829   8.881  0.4000 -0.8709  0.2065
  753MOL0     C 1527   6.818  10.885   8.995  1.2194 -0.3759  0.0921
  753MOL0     O 1528   6.793  11.020   9.035 -0.1778 -0.1471 -0.4371
  753MOL0     C 1529   6.894  11.078   9.117 -0.0304 -0.2541  0.5765
  753MOL0     C 1530   6.861  11.228   9.138  0.5190  0.2887 -0.1265
  753MOL0     C 1531   6.721  11.238   9.207 -0.1825 -0.2555  0.2534
  753MOL0     C 1532   6.691  11.365   9.287 -0.5555  0.1511 -0.4799
  753MOL0     C 1533   6.553  11.365   9.350  0.2090  0.1098  0.8724
  753MOL0     C 1534   6.535  11.494   9.430  0.1964 -0.0955  0.1724
  753MOL0     C 1535   6.409  11.492   9.510 -0.0339 -0.5132 -0.4206
  753MOL0     C 1536   6.274  11.528   9.438  0.7445 -0.4494 -0.1329
  753MOL0     N 1537   6.163  11.519   9.526 -0.2952  0.2309 -0.0439
  753MOL0     C 1538   6.101  11.408   9.558  0.0495  0.5802 -0.1302
  753MOL0     C 1539   5.997  11.442   9.633 -0.4039 -0.1881  0.5360
  753MOL0     C 1540   5.894  11.358   9.698  0.5028  0.1451 -0.1597
  753MOL0     C 1541   5.762  11.357   9.614 -0.7737 -0.2347 -0.2513
  753MOL0     C 1542   5.649  11.271   9.671 -0.7949  0.1077 -0.2815
  753MOL0     C 1543   5.561  11.360   9.763  0.3707 -0.1442  0.2893
  753MOL0     O 1544   5.457  11.286   9.833 -0.0856  0.6787 -0.3339
  753MOL0     C 1545   5.367  11.218   9.749 -0.6755 -0.9288 -1.0192
  753MOL0     C 1546   5.340  11.084   9.779 -0.1679 -0.1850  0.1744
  753MOL0     C 1547   5.229  11.023   9.717  0.0059 -1.1291  0.2830
  753MOL0     C 1548   5.202  10.881   9.756  0.1231 -0.0843 -0.6519
  753MOL0     C 1549   5.165  11.089   9.611  0.1554 -0.1035  0.7615
  753MOL0     C 1550   5.056  11.022   9.522 -0.5312  0.2729 -0.9363
  753MOL0     O 1551   5.049  11.063   9.401  0.3971  0.9536  0.1286
  753MOL0     C 1552   4.955  11.008   9.313  0.4525  0.8865 -0.3497
  753MOL0     C 1553   4.821  11.033   9.321 -0.9783  0.2819  0.5477
  753MOL0     C 1554   4.736  10.980   9.226 -0.1035  0.3201 -0.5030
  753MOL0     C 1555   4.770  10.899   9.119 -0.8769 -0.7226 -1.8696
  753MOL0     O 1556   4.680  10.879   9.023  0.1800  0.1146 -0.2551
  753MOL0     C 1557   4.680  10.741   8.975  0.0056 -1.3528 -0.7483
  753MOL0     C 1558   4.545  10.712   8.910 -0.2763  0.2649 -0.0324
  753MOL0     C 1559   4.532  10.568   8.864 -0.0809 -0.7106  0.3227
  753MOL0     C 1560   4.591  10.545   8.720 -0.0704  0.3425  0.9112
  753MOL0     C 1561   4.598  10.398   8.671  0.8490 -0.2286  0.2268
  753MOL0     C 1562   4.451  10.336   8.659 -0.1354 -0.0431  0.4036
  753MOL0     C 1563   4.456  10.229   8.550 -0.2585  0.1190 -0.3213
  753MOL0     C 1564   4.544  10.102   8.590 -0.1708 -1.6899 -0.3404
  753MOL0    Cl 1565   4.479  10.025   8.743  0.0966  0.4850  0.3678
  753MOL0     C 1566   4.908  10.878   9.110 -0.9968  0.0496  0.6179
  753MOL0     C 1567   4.998  10.936   9.204  0.2375  0.5777  0.1787
  753MOL0     O 1568   4.974  10.951   9.578 -0.1108  0.3978 -0.1471
  753MOL0     C 1569   5.212  11.211   9.563  0.1019 -0.6993 -0.0374
  753MOL0     C 1570   5.304  11.284   9.635  0.6348 -0.4899 -1.2565
  753MOL0     N 1571   5.999  11.577   9.655  0.1437 -0.3862 -0.0392
  753MOL0     N 1572   6.106  11.624   9.589 -0.5992 -0.2311  0.5797
  753MOL0     C 1573   6.906  10.799   9.063  1.2598  0.1976 -0.3328
  753MOL0     C 1574   6.925  10.662   9.020  0.4175 -0.5366 -0.7526
  753MOL0     C 1575   7.056  10.337   8.744  0.0535 -0.4014 -0.1099
  753MOL0     C 1576   7.178  10.323   8.669  0.0783 -0.2025  0.3220
  753MOL0     C 1577   7.227  10.196   8.632 -1.0900 -0.2204  0.3822
  753MOL0     C 1578   7.165  10.082   8.687  0.1124  0.8443  0.3273
  753MOL0     O 1579   7.219   9.959   8.684  0.0663  0.3684 -0.0420
  753MOL0     C 1580   7.356   9.947   8.661  0.1406  0.0460 -0.1082
  753MOL0     C 1581   7.401   9.805   8.674 -0.3328 -0.9949  0.1548
  753MOL0     C 1582   7.540   9.791   8.604  0.4660  0.0284  1.2182
  753MOL0     C 1583   7.574   9.642   8.607 -0.4101 -0.1491  1.2948
  753MOL0     C 1584   7.703   9.598   8.546  0.0971  1.2582  0.0685
  753MOL0     C 1585   7.819   9.574   8.510  0.5624  0.7156  0.1184
  753MOL0     C 1586   7.055  10.094   8.760 -0.0234  0.6688 -0.0874
  753MOL0     C 1587   6.999  10.217   8.791 -0.4276  1.4846 -0.2001
  753MOL0     H 1588   6.732  10.661   8.747 -2.4253 -2.4597  2.0280
  753MOL0     H 1589   6.698  10.899   8.822 -2.0222 -2.2812  0.7442
  753MOL0     H 1590   6.898  11.028   9.214  0.8299 -0.2396  0.5523
  753MOL0     H 1591   6.993  11.073   9.073 -0.2889 -0.1984 -0.0194
  753MOL0     H 1592   6.927  11.280   9.208  3.6982 -1.2151 -1.7927
  753MOL0     H 1593   6.867  11.278   9.041  2.9943 -1.2792 -0.8686
  753MOL0     H 1594   6.646  11.235   9.127  1.2967 -3.7029 -1.2507
  753MOL0     H 1595   6.690  11.154   9.270  0.4872  0.1740  1.1905
  753MOL0     H 1596   6.770  11.368   9.363 -0.1355 -0.4042 -0.8817
  753MOL0     H 1597   6.711  11.459   9.235  0.8032 -0.0290 -0.3210
  753MOL0     H 1598   6.467  11.363   9.282 -2.0460 -0.2840  3.5395
  753MOL0     H 1599   6.539  11.280   9.417 -0.1924 -2.0300 -1.7771
  753MOL0     H 1600   6.623  11.511   9.493  1.2040  0.8029 -1.4034
  753MOL0     H 1601   6.548  11.578   9.361  3.0179  0.6690  1.4572
  753MOL0     H 1602   6.403  11.399   9.567 -0.2211  0.1668  0.7057
  753MOL0     H 1603   6.434  11.567   9.585  0.4388 -2.3606  1.3352
  753MOL0     H 1604   6.255  11.469   9.348  1.2271 -0.7733 -0.0243
  753MOL0     H 1605   6.281  11.627   9.392  1.2847 -0.3014  0.2576
  753MOL0     H 1606   6.135  11.309   9.528  3.9324  1.5801  0.4448
  753MOL0     H 1607   5.930  11.260   9.731 -0.4996  0.0677  0.7556
  753MOL0     H 1608   5.871  11.408   9.793 -1.6437 -2.8066  1.0167
  753MOL0     H 1609   5.794  11.313   9.519  0.4516  2.9442 -1.4631
  753MOL0     H 1610   5.734  11.459   9.588  0.9020  0.5452  0.8200
  753MOL0     H 1611   5.693  11.181   9.716  1.2181  0.9890 -0.3855
  753MOL0     H 1612   5.591  11.228   9.588  0.3622  0.4917 -1.3253
  753MOL0     H 1613   5.512  11.428   9.692  0.7256 -0.6398 -0.4440
  753MOL0     H 1614   5.618  11.411   9.841  1.9531  1.2818 -1.6980
  753MOL0     H 1615   5.393  11.035   9.860  0.6759  3.8138  2.3658
  753MOL0     H 1616   5.284  10.839   9.815 -1.9335 -0.9246  1.8012
  753MOL0     H 1617   5.120  10.871   9.828  0.7654 -0.8516 -0.0124
  753MOL0     H 1618   5.182  10.827   9.664  2.1107  1.1822 -1.9064
  753MOL0     H 1619   4.800  11.101   9.403 -1.6237  0.0103  0.6135
  753MOL0     H 1620   4.630  11.004   9.227 -0.4651 -1.1697  0.7867
  753MOL0     H 1621   4.759  10.718   8.903 -1.8239 -3.1424 -2.3148
  753MOL0     H 1622   4.710  10.675   9.056  0.9404 -1.1841 -0.9431
  753MOL0     H 1623   4.467  10.724   8.986 -0.4951 -0.5877 -0.1123
  753MOL0     H 1624   4.519  10.783   8.831 -1.8696  1.2561  1.3209
  753MOL0     H 1625   4.427  10.541   8.873  0.0098 -1.6969 -1.2925
  753MOL0     H 1626   4.584  10.499   8.932 -0.3616 -2.8053 -1.5095
  753MOL0     H 1627   4.537  10.606   8.648 -0.7088  1.0241  1.9356
  753MOL0     H 1628   4.692  10.587   8.711  0.1663 -0.4297 -0.1241
  753MOL0     H 1629   4.676  10.337   8.719  0.1897  0.2891  2.0322
  753MOL0     H 1630   4.626  10.411   8.566  0.0584 -1.1939 -0.1155
  753MOL0     H 1631   4.415  10.299   8.755 -0.6450  0.0835  0.2650
  753MOL0     H 1632   4.376  10.413   8.637 -1.8078 -1.7997 -0.2841
  753MOL0     H 1633   4.501  10.274   8.461  2.8791 -1.3687  0.3746
  753MOL0     H 1634   4.351  10.203   8.536 -0.5164 -1.2849  3.1420
  753MOL0     H 1635   4.651  10.126   8.593 -0.9069  2.3019  1.2095
  753MOL0     H 1636   4.535  10.036   8.504  0.7610  2.6479 -4.2052
  753MOL0     H 1637   4.946  10.844   9.015 -0.9007  2.8433 -0.4511
  753MOL0     H 1638   5.099  10.906   9.178 -1.1937 -2.5441 -2.4589
  753MOL0     H 1639   5.168  11.260   9.477 -2.2088 -3.1968 -0.3950
  753MOL0     H 1640   5.333  11.387   9.620  1.2510 -0.4133  0.3082
  753MOL0     H 1641   6.981  10.833   9.135  2.5773  0.4877 -1.7940
  753MOL0     H 1642   6.996  10.599   9.072  1.4513  2.4186  1.7630
  753MOL0     H 1643   7.237  10.410   8.642 -1.3377  0.7481  0.2176
  753MOL0     H 1644   7.314  10.191   8.567  0.0111  0.5759  1.7340
  753MOL0     H 1645   7.352   9.954   8.552 -0.4972 -2.0344 -0.2684
  753MOL0     H 1646   7.414  10.020   8.718  1.7057 -2.0309  1.1171
  753MOL0     H 1647   7.335   9.730   8.629  0.7367 -3.3955  2.3134
  753MOL0     H 1648   7.404   9.775   8.779  0.1107 -4.0151 -0.6076
  753MOL0     H 1649   7.622   9.855   8.640  1.3974 -1.6079  2.1077
  753MOL0     H 1650   7.513   9.826   8.504  0.4833  2.7573  2.0749
  753MOL0     H 1651   7.499   9.599   8.539  1.4945 -0.4428 -0.7277
  753MOL0     H 1652   7.581   9.597   8.706  1.3565  0.4660  1.4768
  753MOL0     H 1653   7.922   9.556   8.489  0.2975 -0.1184 -0.5289
  753MOL0     H 1654   7.029  10.001   8.809  1.3705 -0.7806 -1.9574
  753MOL0     H 1655   6.917  10.227   8.861  1.7306  2.7200  2.3616
  754MOL0     O 1656   6.806   3.867   6.645  0.6032  0.6394 -0.4663
  754MOL0     C 1657   6.812   3.747   6.688 -0.7548 -0.2619  0.2985
  754MOL0     O 1658   6.765   3.701   6.809  0.7839  0.2228 -0.0991
  754MOL0     C 1659   6.711   3.789   6.889 -0.7317 -0.4459  0.5601
  754MOL0     C 1660   6.784   3.882   6.956  1.7968 -0.7681 -0.0473
  754MOL0     C 1661   6.720   3.953   7.065  0.6696  0.5546 -0.4874
  754MOL0     C 1662   6.587   3.919   7.116 -0.7544 -0.3241  0.6242
  754MOL0     O 1663   6.514   3.989   7.211 -0.7177  0.2653  0.1515
  754MOL0     C 1664   6.571   4.105   7.277 -0.1204 -0.1175  1.4957
  754MOL0     C 1665   6.479   4.168   7.375 -0.0090 -0.4469  0.2213
  754MOL0     C 1666   6.413   4.073   7.473  0.7057  0.7731 -1.1743
  754MOL0     C 1667   6.318   4.145   7.580 -0.0078 -1.0000 -0.3559
  754MOL0     C 1668   6.242   4.055   7.686 -0.6389  0.2237  0.1910
  754MOL0     C 1669   6.342   4.010   7.803  0.1267 -0.6789 -0.3430
  754MOL0     C 1670   6.284   3.922   7.910  0.5538  0.0326  0.2669
  754MOL0     C 1671   6.181   3.995   7.995 -0.0162 -0.1793 -1.1911
  754MOL0     N 1672   6.166   3.945   8.130  0.3567  0.9940 -0.0488
  754MOL0     C 1673   6.231   4.015   8.224 -0.3531 -0.9773 -0.2428
  754MOL0     C 1674   6.229   3.937   8.329  0.1178 -0.3488  1.1814
  754MOL0     C 1675   6.280   3.956   8.461 -0.3231 -0.2208  0.1411
  754MOL0     C 1676   6.217   4.070   8.541  0.2320  0.8136  0.5654
  754MOL0     C 1677   6.246   4.069   8.695  0.8704 -0.0525 -0.5481
  754MOL0     C 1678   6.159   3.966   8.768  0.5151 -0.2676  0.1924
  754MOL0     O 1679   6.228   3.932   8.887 -0.7870 -0.2762 -0.2421
  754MOL0     C 1680   6.151   3.868   8.985 -0.3021 -0.0558 -1.2170
  754MOL0     C 1681   6.031   3.804   8.957  0.0803  0.2258  0.4754
  754MOL0     C 1682   5.953   3.741   9.058 -1.4740  0.7576  0.1009
  754MOL0     C 1683   5.820   3.702   9.028 -0.1542 -0.6372  0.4052
  754MOL0     C 1684   6.014   3.736   9.184 -0.3429 -0.2410 -0.1954
  754MOL0     C 1685   5.939   3.686   9.299  0.0682  0.2886  0.0036
  754MOL0     O 1686   5.858   3.575   9.283 -0.4281 -0.2464 -0.1456
  754MOL0     C 1687   5.744   3.566   9.354  0.5620 -0.3395 -0.2309
  754MOL0     C 1688   5.662   3.675   9.400 -0.6939  0.4535  0.2422
  754MOL0     C 1689   5.541   3.646   9.470 -0.3196  0.2945  0.0659
  754MOL0     C 1690   5.494   3.514   9.497 -0.4380  0.7136 -0.0049
  754MOL0     O 1691   5.377   3.492   9.571 -0.1452  0.7171  0.3953
  754MOL0     C 1692   5.356   3.592   9.673 -0.3250 -0.2507  0.1288
  754MOL0     C 1693   5.241   3.551   9.767  0.1755 -0.0583  0.9377
  754MOL0     C 1694   5.103   3.597   9.707  0.0029  0.0240  0.8656
  754MOL0     C 1695   4.996   3.567   9.802 -0.3200  0.0613  0.5691
  754MOL0     C 1696   4.858   3.618   9.748  0.4735  0.4344 -0.4139
  754MOL0     C 1697   4.752   3.643   9.859 -0.0935  0.9190 -0.6655
  754MOL0     C 1698   4.687   3.507   9.886 -0.4007 -0.9770  0.7248
  754MOL0     C 1699   4.637   3.492  10.032  1.1805  0.0407  0.5721
  754MOL0    Cl 1700   4.612   3.320  10.069  0.2881  0.2829  0.3235
  754MOL0     C 1701   5.565   3.415   9.429  0.5058  0.1453  0.2437
  754MOL0     C 1702   5.688   3.437   9.365  0.4519 -0.4885  0.2394
  754MOL0     O 1703   5.937   3.762   9.394  0.7359  0.3713  0.6253
  754MOL0     C 1704   6.141   3.785   9.207 -0.4273  0.1279  0.4550
  754MOL0     C 1705   6.214   3.851   9.109  1.8133  0.5619  1.1436
  754MOL0     N 1706   6.172   3.817   8.292 -0.4331 -0.6917  0.2419
  754MOL0     N 1707   6.119   3.829   8.173 -0.1643 -0.4047 -0.6022
  754MOL0     C 1708   6.525   3.810   7.051 -0.4582 -0.1633  0.3488
  754MOL0     C 1709   6.591   3.747   6.943  0.2444 -0.1152  0.0757
  754MOL0     C 1710   6.887   3.646   6.607 -0.1911 -1.1151 -0.1151
  754MOL0     C 1711   6.954   3.687   6.490  0.0131 -0.4359 -0.2961
  754MOL0     C 1712   7.033   3.597   6.406  0.8488 -0.1187  0.6143
  754MOL0     C 1713   7.045   3.463   6.446  0.4818  0.5856 -0.2398
  754MOL0     O 1714   7.124   3.377   6.364 -0.0525  0.6573  0.0885
  754MOL0     C 1715   7.170   3.253   6.428 -0.4070  0.0485 -0.0233
  754MOL0     C 1716   7.270   3.174   6.344 -0.3501  0.5151 -0.7610
  754MOL0     C 1717   7.412   3.222   6.381  0.5760 -0.8528 -0.5539
  754MOL0     C 1718   7.445   3.372   6.356  0.2573 -0.6899  0.0808
  754MOL0     C 1719   7.437   3.414   6.216 -0.9662  0.6290 -0.1880
  754MOL0     C 1720   7.412   3.437   6.099 -0.4393 -0.5267 -0.1935
  754MOL0     C 1721   6.971   3.425   6.563  0.4860  0.4658  0.3655
  754MOL0     C 1722   6.902   3.516   6.641  0.8545 -0.3031  1.0528
  754MOL0     H 1723   6.888   3.890   6.927  1.3738  3.3778 -0.9658
  754MOL0     H 1724   6.771   4.036   7.114 -0.1348  0.0403  1.3280
  754MOL0     H 1725   6.669   4.066   7.307  0.0941 -0.9462 -0.1733
  754MOL0     H 1726   6.578   4.187   7.204 -0.5273  1.0087  2.6837
  754MOL0     H 1727   6.536   4.240   7.434  3.8344 -1.7265 -1.5734
  754MOL0     H 1728   6.399   4.225   7.326 -1.3418 -0.7065  1.9955
  754MOL0     H 1729   6.353   4.001   7.416 -0.2903  2.7635 -2.7764
  754MOL0     H 1730   6.493   4.011   7.515 -0.8398 -0.1763  0.5404
  754MOL0     H 1731   6.371   4.228   7.628  2.0752 -1.5494 -1.5712
  754MOL0     H 1732   6.231   4.184   7.528 -0.6929 -1.9642  0.0344
  754MOL0     H 1733   6.168   4.124   7.727 -0.1962  1.2153 -0.6556
  754MOL0     H 1734   6.194   3.969   7.638 -2.5386  0.5297  1.4463
  754MOL0     H 1735   6.423   3.952   7.759  1.9750  0.6750  1.0847
  754MOL0     H 1736   6.390   4.098   7.847  1.1018 -2.0664  1.5129
  754MOL0     H 1737   6.234   3.833   7.869 -0.5090  1.7553 -2.5100
  754MOL0     H 1738   6.360   3.895   7.984 -1.8816  0.1082  2.9846
  754MOL0     H 1739   6.086   3.985   7.941 -0.9256 -0.5248  0.3942
  754MOL0     H 1740   6.200   4.102   7.990 -0.3935 -0.1250 -1.5649
  754MOL0     H 1741   6.288   4.108   8.218 -0.8784 -0.6320 -0.0004
  754MOL0     H 1742   6.285   3.859   8.511  0.3750 -1.5360 -2.3168
  754MOL0     H 1743   6.386   3.983   8.462  0.0967 -1.7205  1.9395
  754MOL0     H 1744   6.109   4.070   8.521  0.0923  0.7378  1.2723
  754MOL0     H 1745   6.243   4.162   8.489 -2.0098  0.5485 -1.1854
  754MOL0     H 1746   6.221   4.167   8.737 -2.3254 -1.8058  2.0892
  754MOL0     H 1747   6.350   4.048   8.722 -0.2585 -2.5682  2.4842
  754MOL0     H 1748   6.142   3.879   8.705  3.3347 -0.0543 -1.0127
  754MOL0     H 1749   6.060   4.008   8.788  1.4548  3.8243 -2.5354
  754MOL0     H 1750   5.997   3.805   8.854  0.9426 -0.9947  0.1643
  754MOL0     H 1751   5.809   3.594   9.018  0.1475 -1.0003  3.1500
  754MOL0     H 1752   5.750   3.750   9.097  1.7212  3.0802 -0.0102
  754MOL0     H 1753   5.798   3.747   8.930  0.9889 -2.7343 -0.8869
  754MOL0     H 1754   5.694   3.779   9.393 -1.2111  0.4961 -3.1900
  754MOL0     H 1755   5.496   3.737   9.510 -2.1740 -0.9840  1.0027
  754MOL0     H 1756   5.447   3.588   9.734 -1.0353  4.6369  1.9048
  754MOL0     H 1757   5.330   3.694   9.643  0.1411 -0.1145  0.1729
  754MOL0     H 1758   5.258   3.444   9.779  1.5090 -0.0115 -0.2759
  754MOL0     H 1759   5.254   3.596   9.866 -0.7509 -0.1644  1.1237
  754MOL0     H 1760   5.076   3.534   9.622  0.2887 -0.3295  1.0317
  754MOL0     H 1761   5.108   3.700   9.672  1.0056  0.3684  1.9789
  754MOL0     H 1762   5.002   3.463   9.835 -1.4524 -0.0967  0.3395
  754MOL0     H 1763   5.026   3.621   9.893  1.6752  1.1278 -0.6375
  754MOL0     H 1764   4.825   3.547   9.671 -0.4202 -2.3012  2.3042
  754MOL0     H 1765   4.871   3.716   9.701 -3.4154  1.9615  1.2854
  754MOL0     H 1766   4.799   3.676   9.952  1.8586 -0.3458 -1.1521
  754MOL0     H 1767   4.683   3.723   9.831  1.9784  1.6258 -4.4519
  754MOL0     H 1768   4.763   3.430   9.871  0.4299 -0.0926  0.3161
  754MOL0     H 1769   4.607   3.485   9.815 -0.0317  1.4418 -0.5362
  754MOL0     H 1770   4.538   3.538  10.039  0.7097 -0.2198 -2.7414
  754MOL0     H 1771   4.704   3.533  10.108  0.9553  1.2924  0.1171
  754MOL0     H 1772   5.517   3.318   9.425  0.4099  0.1571  0.9888
  754MOL0     H 1773   5.735   3.352   9.317  0.8123  0.7803 -1.7487
  754MOL0     H 1774   6.194   3.780   9.302 -1.3752 -0.5933  0.9537
  754MOL0     H 1775   6.304   3.904   9.138  2.6572 -0.2635  0.0769
  754MOL0     H 1776   6.422   3.778   7.064 -0.8017 -0.0085 -1.6378
  754MOL0     H 1777   6.538   3.673   6.884 -0.1208  1.3708 -1.5612
  754MOL0     H 1778   6.940   3.782   6.439  0.9396  0.9189  1.8045
  754MOL0     H 1779   7.082   3.642   6.320  1.2450 -2.2206 -0.3355
  754MOL0     H 1780   7.207   3.278   6.528 -0.1468 -0.9140  0.1311
  754MOL0     H 1781   7.094   3.175   6.431  1.2787 -1.7286 -1.2184
  754MOL0     H 1782   7.253   3.189   6.237 -2.3964 -1.2023 -0.7575
  754MOL0     H 1783   7.266   3.066   6.365 -1.0416  0.3817 -1.5480
  754MOL0     H 1784   7.482   3.160   6.325  0.5228  0.5103 -2.2009
  754MOL0     H 1785   7.436   3.207   6.487  0.3329 -3.4259 -0.8153
  754MOL0     H 1786   7.548   3.390   6.387  0.9136 -1.3716 -1.5634
  754MOL0     H 1787   7.379   3.440   6.411 -0.6156 -1.2860 -0.2035
  754MOL0     H 1788   7.399   3.480   6.002  0.5488 -0.5010 -0.3328
  754MOL0     H 1789   6.975   3.324   6.605 -0.6888 -0.4251 -1.5458
  754MOL0     H 1790   6.836   3.479   6.718  0.8193  3.2446  2.9281
  755MOL0     O 1791   1.794  10.170   3.033  0.3111 -0.1042 -0.1181
  755MOL0     C 1792   1.830  10.285   3.027  0.1564 -0.0198  0.3438
  755MOL0     O 1793   1.911  10.340   2.930  0.0897 -0.0685  0.9733
  755MOL0     C 1794   1.933  10.267   2.818  0.0773  0.4033  0.0217
  755MOL0     C 1795   2.066  10.232   2.793 -0.0882  1.0826 -0.2766
  755MOL0     C 1796   2.097  10.169   2.670 -0.0002 -0.3705  0.1060
  755MOL0     C 1797   2.014  10.158   2.563  0.9487 -0.8203 -0.5271
  755MOL0     O 1798   2.038  10.110   2.440 -0.4185  0.3502  0.7155
  755MOL0     C 1799   2.176  10.068   2.404 -0.0401  0.6608  0.1194
  755MOL0     C 1800   2.193  10.042   2.256  0.3090 -0.3909 -0.0521
  755MOL0     C 1801   2.104   9.931   2.203 -0.0239 -0.2286 -0.8099
  755MOL0     C 1802   2.134   9.915   2.048  0.1362 -0.2028  0.3707
  755MOL0     C 1803   2.041   9.805   1.989 -0.4020 -0.3259 -0.2566
  755MOL0     C 1804   2.078   9.773   1.853 -0.4661 -0.2857 -0.4651
  755MOL0     C 1805   1.994   9.664   1.786  0.1090 -0.4898  0.0341
  755MOL0     C 1806   1.996   9.530   1.850  0.8723  0.0116 -0.2039
  755MOL0     N 1807   1.918   9.428   1.774  0.1885  0.1659  0.1990
  755MOL0     C 1808   1.838   9.461   1.667 -0.2809 -0.5726  0.7352
  755MOL0     C 1809   1.764   9.352   1.630 -0.5806  0.0384 -0.3110
  755MOL0     C 1810   1.683   9.326   1.505  0.1542  0.2442 -0.4743
  755MOL0     C 1811   1.665   9.450   1.417 -0.1308  0.0860 -1.0717
  755MOL0     C 1812   1.551   9.436   1.317 -0.5778  0.3387  0.1428
  755MOL0     C 1813   1.555   9.555   1.226  0.5898  1.1449  0.2238
  755MOL0     O 1814   1.471   9.525   1.119 -0.2081 -0.9200  1.1912
  755MOL0     C 1815   1.445   9.630   1.031 -0.2784 -0.5761  0.3786
  755MOL0     C 1816   1.437   9.597   0.892  0.1703 -0.3225 -0.9441
  755MOL0     C 1817   1.410   9.698   0.801  0.0694  0.1950 -0.5885
  755MOL0     C 1818   1.383   9.661   0.655 -0.0183 -1.1299  0.1090
  755MOL0     C 1819   1.401   9.832   0.842 -0.0069  0.2834 -0.5125
  755MOL0     C 1820   1.387   9.951   0.746  0.1848 -0.0799 -0.3771
  755MOL0     O 1821   1.485  10.033   0.718  0.3430 -0.5168 -1.0520
  755MOL0     C 1822   1.615  10.002   0.754 -0.4744  0.7474  0.2353
  755MOL0     C 1823   1.688   9.892   0.706  0.1459 -0.2603  0.6750
  755MOL0     C 1824   1.828   9.875   0.739  0.0944  0.5835 -0.3803
  755MOL0     C 1825   1.892   9.976   0.817 -0.4655  0.6359  0.1538
  755MOL0     O 1826   2.031   9.989   0.832  0.1368  1.1131  0.6910
  755MOL0     C 1827   2.118   9.897   0.766 -0.2447 -0.3363  0.5374
  755MOL0     C 1828   2.257   9.922   0.824  0.7019  0.3194 -1.1001
  755MOL0     C 1829   2.329  10.045   0.778 -0.5067  0.9112  0.1075
  755MOL0     C 1830   2.325  10.162   0.880  0.6126 -0.4244 -0.0969
  755MOL0     C 1831   2.393  10.288   0.845 -0.1465 -0.6318  0.0287
  755MOL0     C 1832   2.380  10.392   0.956 -0.3646  0.2508  0.3924
  755MOL0     C 1833   2.465  10.514   0.945  0.5441 -0.9868 -0.4550
  755MOL0     C 1834   2.429  10.593   0.818 -0.4980  0.9652  0.0482
  755MOL0    Cl 1835   2.522  10.534   0.682 -0.6310  0.2402 -0.3431
  755MOL0     C 1836   1.813  10.077   0.861  0.2493 -0.9057  0.0225
  755MOL0     C 1837   1.681  10.093   0.828 -0.2022 -0.2102 -0.5314
  755MOL0     O 1838   1.278   9.971   0.709 -0.0924 -0.3905  0.4873
  755MOL0     C 1839   1.424   9.867   0.975  0.7749 -0.4530  0.3309
  755MOL0     C 1840   1.446   9.770   1.071 -0.4045  0.9750 -0.4225
  755MOL0     N 1841   1.794   9.258   1.729 -0.6168  0.2722  0.8841
  755MOL0     N 1842   1.890   9.297   1.805  0.5955  0.1683  0.0429
  755MOL0     C 1843   1.881  10.198   2.592  0.0982 -0.0637  0.3469
  755MOL0     C 1844   1.844  10.242   2.716 -0.2421  0.1008 -0.0035
  755MOL0     C 1845   1.781  10.378   3.133 -0.0834  0.8453 -0.1907
  755MOL0     C 1846   1.820  10.512   3.129 -0.9560  0.4058 -0.3641
  755MOL0     C 1847   1.780  10.589   3.226  0.2824 -0.7311  0.2996
  755MOL0     C 1848   1.712  10.549   3.338 -0.1886 -0.7544 -0.3419
  755MOL0     O 1849   1.685  10.643   3.439 -0.2908  0.1131 -0.0108
  755MOL0     C 1850   1.635  10.599   3.562 -0.4570 -0.3547 -0.1202
  755MOL0     C 1851   1.748  10.528   3.648 -0.6528 -0.9392 -0.2266
  755MOL0     C 1852   1.871  10.619   3.668  0.5248 -0.5305  0.5681
  755MOL0     C 1853   1.991  10.550   3.741  0.2226 -0.9078  0.4591
  755MOL0     C 1854   1.950  10.451   3.839 -0.1412  0.3238  1.0062
  755MOL0     C 1855   1.913  10.379   3.925  0.2874 -0.0280 -0.6309
  755MOL0     C 1856   1.667  10.418   3.344  0.0180 -0.2905 -1.0368
  755MOL0     C 1857   1.692  10.337   3.230  0.8185 -0.4322  0.0229
  755MOL0     H 1858   2.146  10.240   2.867 -1.1916  1.8282  0.8730
  755MOL0     H 1859   2.201  10.146   2.649  1.0470  2.8694  1.1302
  755MOL0     H 1860   2.254  10.138   2.435 -0.0675  0.4065  0.7799
  755MOL0     H 1861   2.196   9.972   2.453 -1.1173  0.5347  0.3381
  755MOL0     H 1862   2.173  10.137   2.207  0.9281 -0.7610 -1.0528
  755MOL0     H 1863   2.296  10.012   2.237  0.7636  2.8463 -3.7809
  755MOL0     H 1864   2.115   9.838   2.259 -0.9992 -0.5385 -1.1035
  755MOL0     H 1865   2.002   9.969   2.220  0.8784  1.9333  0.1002
  755MOL0     H 1866   2.127  10.011   1.995  1.2100 -0.4377 -0.2464
  755MOL0     H 1867   2.236   9.877   2.036 -0.6779 -2.4139 -0.1057
  755MOL0     H 1868   2.053   9.718   2.056  0.0206 -1.1945 -1.4242
  755MOL0     H 1869   1.938   9.842   1.990  0.7815  3.4317 -1.5680
  755MOL0     H 1870   2.067   9.866   1.796 -2.5205  0.9067  1.6826
  755MOL0     H 1871   2.181   9.738   1.844  0.5684  2.2494  0.5383
  755MOL0     H 1872   1.891   9.691   1.762  0.4219 -1.6227 -3.0927
  755MOL0     H 1873   2.027   9.656   1.682  0.0371 -0.5150  0.0122
  755MOL0     H 1874   1.948   9.540   1.948  3.2439  0.9157  0.9555
  755MOL0     H 1875   2.101   9.511   1.875  0.7174  0.4086  0.8116
  755MOL0     H 1876   1.839   9.553   1.609 -0.6266 -1.0406 -0.0193
  755MOL0     H 1877   1.733   9.245   1.451  1.0428  1.0440 -0.8882
  755MOL0     H 1878   1.584   9.299   1.543 -0.0763  2.1029  0.3716
  755MOL0     H 1879   1.754   9.467   1.356 -0.2289 -0.3578 -1.3465
  755MOL0     H 1880   1.650   9.547   1.466  1.7390 -0.0879 -0.0768
  755MOL0     H 1881   1.454   9.422   1.366 -1.4228 -0.9807 -1.7989
  755MOL0     H 1882   1.579   9.347   1.262  0.9770  0.0256  1.3739
  755MOL0     H 1883   1.655   9.570   1.184  0.8041 -2.5280 -0.9070
  755MOL0     H 1884   1.519   9.645   1.277 -1.1622  0.6063  0.0090
  755MOL0     H 1885   1.459   9.502   0.844  1.8569  0.9779 -2.9555
  755MOL0     H 1886   1.335   9.563   0.643 -1.2588 -0.3546 -1.4864
  755MOL0     H 1887   1.320   9.735   0.605  2.3775  0.5321 -0.6335
  755MOL0     H 1888   1.481   9.655   0.608  1.7149 -0.6185  3.3730
  755MOL0     H 1889   1.644   9.815   0.644  2.0527 -1.4408  0.6827
  755MOL0     H 1890   1.881   9.795   0.687  1.9749 -0.2073  2.5094
  755MOL0     H 1891   2.075   9.798   0.784 -4.1542  0.3407 -3.2170
  755MOL0     H 1892   2.116   9.898   0.656 -3.7588 -2.7735  0.4026
  755MOL0     H 1893   2.247   9.923   0.933 -0.0474 -2.1987 -1.0963
  755MOL0     H 1894   2.320   9.834   0.809 -2.8604 -2.2234 -2.3472
  755MOL0     H 1895   2.283  10.066   0.681 -1.1854 -2.4004 -0.3918
  755MOL0     H 1896   2.435  10.026   0.763 -0.4597 -2.8800  3.6411
  755MOL0     H 1897   2.219  10.187   0.874  1.1502  2.2207  0.2878
  755MOL0     H 1898   2.341  10.131   0.984  0.6126  0.6577  0.2370
  755MOL0     H 1899   2.347  10.324   0.753 -0.1026 -2.8496 -0.9248
  755MOL0     H 1900   2.497  10.263   0.824  1.9970  3.0363  4.4249
  755MOL0     H 1901   2.278  10.418   0.985 -0.7166 -0.6446 -0.0156
  755MOL0     H 1902   2.422  10.349   1.047  0.1449  2.4163  1.2397
  755MOL0     H 1903   2.573  10.497   0.951  1.0205  1.1535 -1.7322
  755MOL0     H 1904   2.467  10.572   1.037  2.8616  1.9435 -2.1724
  755MOL0     H 1905   2.444  10.702   0.819  1.8483  0.6991  1.2095
  755MOL0     H 1906   2.322  10.583   0.796 -0.6820  1.6543  0.5716
  755MOL0     H 1907   1.859  10.143   0.934 -2.4099 -0.7603  1.7005
  755MOL0     H 1908   1.632  10.184   0.861  0.9631 -0.4519  2.1162
  755MOL0     H 1909   1.423   9.967   1.017 -2.7461 -0.8699  1.5041
  755MOL0     H 1910   1.463   9.802   1.173  0.6885 -1.5981  0.2899
  755MOL0     H 1911   1.805  10.209   2.515  0.0749 -0.3512  0.3300
  755MOL0     H 1912   1.742  10.274   2.738 -0.0390  0.4746  0.3974
  755MOL0     H 1913   1.882  10.551   3.049 -0.6779  0.6535 -0.0260
  755MOL0     H 1914   1.824  10.688   3.227 -1.1429 -0.0696  0.5047
  755MOL0     H 1915   1.619  10.694   3.615  2.9794 -0.2657  1.0087
  755MOL0     H 1916   1.542  10.542   3.564 -0.8175  0.2488  1.5213
  755MOL0     H 1917   1.768  10.436   3.592  0.7641 -0.0382 -1.2747
  755MOL0     H 1918   1.705  10.495   3.743 -0.5181 -0.5435 -0.0269
  755MOL0     H 1919   1.845  10.710   3.723  1.1973 -1.5450  2.6905
  755MOL0     H 1920   1.919  10.645   3.573 -1.5067  2.8779  0.3068
  755MOL0     H 1921   2.044  10.619   3.807 -2.1733 -0.8566  2.4893
  755MOL0     H 1922   2.061  10.508   3.668 -0.4169 -0.7655 -0.2624
  755MOL0     H 1923   1.882  10.309   4.000 -1.6632  0.7198 -0.6812
  755MOL0     H 1924   1.598  10.389   3.422  0.7705 -2.1082 -0.9808
  755MOL0     H 1925   1.641  10.241   3.225  1.7904 -0.9387 -0.4593
  756MOL0     O 1926   6.412   2.049   8.156  0.6108 -0.1320 -1.0811
  756MOL0     C 1927   6.335   2.092   8.243  0.1001  0.4043  0.3689
  756MOL0     O 1928   6.341   2.224   8.300 -0.3479 -0.1510  0.0862
  756MOL0     C 1929   6.431   2.312   8.245 -0.0559 -0.4046  0.0382
  756MOL0     C 1930   6.394   2.449   8.215 -0.7070  0.0803  0.4077
  756MOL0     C 1931   6.490   2.541   8.169  1.1204  0.2139  0.3862
  756MOL0     C 1932   6.620   2.500   8.155  0.1907  0.3410  1.0640
  756MOL0     O 1933   6.726   2.581   8.118 -0.3107  0.1452  0.4817
  756MOL0     C 1934   6.689   2.712   8.069  0.2181 -0.0175  0.1003
  756MOL0     C 1935   6.814   2.761   7.997 -0.9968  0.4235 -0.4341
  756MOL0     C 1936   6.930   2.812   8.089  0.3193 -0.9997 -1.2143
  756MOL0     C 1937   7.015   2.923   8.022 -0.5597 -0.3183  0.0242
  756MOL0     C 1938   7.133   2.971   8.099 -0.1126  0.5584 -0.0116
  756MOL0     C 1939   7.097   3.065   8.222 -0.5356 -0.8445 -0.5094
  756MOL0     C 1940   7.234   3.136   8.267 -0.0609  0.2202  0.2330
  756MOL0     C 1941   7.234   3.281   8.222 -0.0580 -0.2234 -0.3029
  756MOL0     N 1942   7.353   3.312   8.144  0.3487  0.7077 -0.6010
  756MOL0     C 1943   7.469   3.342   8.207  0.6763  1.0998 -0.1340
  756MOL0     C 1944   7.554   3.376   8.108  0.4241 -0.7488 -0.3376
  756MOL0     C 1945   7.701   3.414   8.130 -0.1701  0.0079  0.0619
  756MOL0     C 1946   7.804   3.306   8.082 -0.5185  0.5330  0.2128
  756MOL0     C 1947   7.763   3.239   7.945  0.2559  1.0004 -0.8201
  756MOL0     C 1948   7.859   3.126   7.906 -0.5286 -0.0106 -0.1621
  756MOL0     O 1949   7.825   3.063   7.781 -0.4662  0.1166 -0.3706
  756MOL0     C 1950   7.699   3.022   7.757  0.1653  0.5338 -0.2299
  756MOL0     C 1951   7.653   3.028   7.634  0.8427 -0.9168 -0.5312
  756MOL0     C 1952   7.516   2.997   7.593 -0.1174  0.6576  0.3510
  756MOL0     C 1953   7.479   3.035   7.456 -0.4147 -0.4630  0.7326
  756MOL0     C 1954   7.427   2.962   7.692  0.1254  0.8525  0.2029
  756MOL0     C 1955   7.283   2.930   7.662 -0.6962  0.3653 -0.4492
  756MOL0     O 1956   7.257   2.855   7.539  0.7500  0.2203 -0.1523
  756MOL0     C 1957   7.128   2.811   7.520  0.5067  0.4599 -1.6531
  756MOL0     C 1958   7.094   2.686   7.565  0.5388  1.0842 -0.4465
  756MOL0     C 1959   6.968   2.644   7.596  0.5373 -0.8578  0.1243
  756MOL0     C 1960   6.868   2.744   7.584  0.7612  0.1862  0.4077
  756MOL0     O 1961   6.740   2.731   7.625  0.6864  0.4801  1.0489
  756MOL0     C 1962   6.692   2.608   7.663  0.2217 -0.1919 -0.1436
  756MOL0     C 1963   6.548   2.618   7.682 -0.8970  0.3543 -0.1190
  756MOL0     C 1964   6.481   2.486   7.727  1.0927 -0.1316 -0.4166
  756MOL0     C 1965   6.545   2.394   7.832 -0.0743 -0.6337 -0.0343
  756MOL0     C 1966   6.458   2.280   7.868 -0.1737 -0.1758  0.0587
  756MOL0     C 1967   6.411   2.193   7.743 -0.3106 -0.5911 -0.6215
  756MOL0     C 1968   6.328   2.070   7.801 -0.2197  0.8485  0.7667
  756MOL0     C 1969   6.282   1.999   7.675 -0.4072 -0.7760 -0.6083
  756MOL0    Cl 1970   6.175   2.103   7.578  0.2230 -0.2505 -0.2455
  756MOL0     C 1971   6.899   2.872   7.518  0.5983  0.6627  0.7017
  756MOL0     C 1972   7.030   2.910   7.485 -0.6174  0.8352 -0.8802
  756MOL0     O 1973   7.202   2.967   7.744  0.0523 -0.4561  0.1357
  756MOL0     C 1974   7.479   2.945   7.829 -0.2968 -0.8644  0.1299
  756MOL0     C 1975   7.616   2.964   7.855  0.1870 -0.2420  0.6958
  756MOL0     N 1976   7.482   3.383   7.990 -0.8735 -0.0483 -0.1550
  756MOL0     N 1977   7.363   3.342   8.011  0.1634  0.2052  0.2660
  756MOL0     C 1978   6.660   2.363   8.169  0.4237 -0.8430 -0.3657
  756MOL0     C 1979   6.560   2.276   8.222 -0.4624  0.5934 -0.2871
  756MOL0     C 1980   6.221   2.010   8.296 -0.7445  0.1513 -0.2646
  756MOL0     C 1981   6.202   1.867   8.261 -0.5811  0.0896  0.2175
  756MOL0     C 1982   6.095   1.798   8.319  0.1404 -0.4092  0.2989
  756MOL0     C 1983   6.016   1.847   8.420  0.1674  0.2329 -0.1931
  756MOL0     O 1984   5.937   1.761   8.496 -0.6103  0.3425  0.6668
  756MOL0     C 1985   5.842   1.816   8.590  0.3178  0.3662  0.4698
  756MOL0     C 1986   5.770   1.704   8.665  1.2067  0.6378  0.1434
  756MOL0     C 1987   5.664   1.626   8.589  0.8440  0.0295  0.1298
  756MOL0     C 1988   5.565   1.522   8.663  0.3131  0.2440  1.0458
  756MOL0     C 1989   5.453   1.584   8.737 -0.9983  0.4252 -1.2380
  756MOL0     C 1990   5.368   1.625   8.817  0.2726 -0.3816  0.7221
  756MOL0     C 1991   6.047   1.979   8.463  0.3464  0.0806 -0.4339
  756MOL0     C 1992   6.142   2.053   8.402 -0.0314 -0.3254  0.1513
  756MOL0     H 1993   6.289   2.473   8.228 -1.0959 -1.2131 -0.2108
  756MOL0     H 1994   6.449   2.641   8.162 -1.4721 -0.6438  1.8984
  756MOL0     H 1995   6.616   2.704   7.987  0.0123 -0.6026  0.3329
  756MOL0     H 1996   6.662   2.785   8.146 -0.2923 -0.3565  0.2460
  756MOL0     H 1997   6.863   2.680   7.942  1.5245  1.4500  0.1634
  756MOL0     H 1998   6.786   2.844   7.931 -0.3664  2.1697  1.4040
  756MOL0     H 1999   6.882   2.857   8.176  0.1318 -1.2940 -1.1631
  756MOL0     H 2000   6.997   2.731   8.118  4.3988  1.6348 -2.5104
  756MOL0     H 2001   7.050   2.893   7.923  0.8231 -2.0898  0.9954
  756MOL0     H 2002   6.938   3.001   8.014 -1.3503 -1.3184 -3.7940
  756MOL0     H 2003   7.194   2.889   8.136  2.2488  1.8043 -0.9257
  756MOL0     H 2004   7.188   3.028   8.023  1.4328  0.9457  1.3538
  756MOL0     H 2005   7.012   3.132   8.210  0.6572  0.8299 -0.0854
  756MOL0     H 2006   7.079   2.995   8.305  2.2308 -0.4720  0.5409
  756MOL0     H 2007   7.243   3.140   8.376 -0.3709 -1.6351  0.3655
  756MOL0     H 2008   7.322   3.081   8.232  0.4520  0.5527  0.9833
  756MOL0     H 2009   7.231   3.351   8.306 -1.1963 -3.9828  3.0942
  756MOL0     H 2010   7.148   3.294   8.156 -1.6031  3.9021  2.1890
  756MOL0     H 2011   7.493   3.324   8.311  1.3123 -3.3677 -0.8503
  756MOL0     H 2012   7.725   3.507   8.078  0.8829 -0.3118 -0.0551
  756MOL0     H 2013   7.741   3.416   8.232  0.9950 -2.9007 -0.2323
  756MOL0     H 2014   7.815   3.233   8.163  0.4447  0.1049 -0.2797
  756MOL0     H 2015   7.899   3.359   8.064  0.2401 -0.6931  0.4655
  756MOL0     H 2016   7.759   3.318   7.869  1.6513  1.9673  0.0468
  756MOL0     H 2017   7.659   3.207   7.953  1.2863 -2.4367  0.2229
  756MOL0     H 2018   7.866   3.044   7.977 -1.3170  0.2965  0.2859
  756MOL0     H 2019   7.954   3.177   7.889  0.0995 -0.5040  1.7085
  756MOL0     H 2020   7.718   3.071   7.559  1.7147 -0.5253  0.4116
  756MOL0     H 2021   7.533   3.126   7.430  0.7210 -1.4779 -0.5910
  756MOL0     H 2022   7.513   2.961   7.384 -2.5769 -0.3508 -0.4871
  756MOL0     H 2023   7.371   3.055   7.454 -0.0367  2.0762  1.9350
  756MOL0     H 2024   7.176   2.620   7.591 -0.1522  0.1517 -0.5595
  756MOL0     H 2025   6.956   2.547   7.643  0.2880 -0.7766  0.2331
  756MOL0     H 2026   6.711   2.540   7.579  1.1595 -0.0003 -0.0983
  756MOL0     H 2027   6.739   2.572   7.755  1.7816  0.9147 -0.4705
  756MOL0     H 2028   6.529   2.697   7.756 -1.6911  0.4579 -0.4147
  756MOL0     H 2029   6.494   2.649   7.592 -1.8772 -3.0480 -0.8432
  756MOL0     H 2030   6.479   2.419   7.641 -0.0407 -0.5865 -0.0485
  756MOL0     H 2031   6.379   2.509   7.759  0.8693 -3.0629  1.3930
  756MOL0     H 2032   6.639   2.352   7.794  0.4632 -1.7088  2.2932
  756MOL0     H 2033   6.564   2.459   7.918  4.6488 -1.9165  0.2110
  756MOL0     H 2034   6.368   2.306   7.924 -0.3983 -1.2853  0.2465
  756MOL0     H 2035   6.504   2.213   7.941 -0.5493 -0.5515 -0.0409
  756MOL0     H 2036   6.338   2.253   7.689  0.7153 -3.7191 -6.1891
  756MOL0     H 2037   6.486   2.169   7.667  0.6490  0.6350 -0.0966
  756MOL0     H 2038   6.257   2.098   7.878 -1.7915 -0.5017 -0.1330
  756MOL0     H 2039   6.395   1.993   7.839 -1.4635 -0.4953  0.3139
  756MOL0     H 2040   6.233   1.904   7.697  1.2993 -2.0267 -1.9013
  756MOL0     H 2041   6.366   1.962   7.614 -0.0064 -1.3321  0.2515
  756MOL0     H 2042   6.827   2.952   7.503  2.5433  2.3913  0.0687
  756MOL0     H 2043   7.057   3.012   7.460 -1.2513  1.3973  0.6040
  756MOL0     H 2044   7.413   2.911   7.908 -0.9596 -0.9176 -0.4425
  756MOL0     H 2045   7.656   2.941   7.953  1.3866 -2.5345 -0.2534
  756MOL0     H 2046   6.756   2.327   8.132  1.3945  3.0965 -2.2275
  756MOL0     H 2047   6.597   2.175   8.235 -3.2468 -0.5875 -0.8341
  756MOL0     H 2048   6.260   1.817   8.185  2.6170  1.2533  1.7026
  756MOL0     H 2049   6.079   1.693   8.297  1.2743  0.0488 -3.4686
  756MOL0     H 2050   5.895   1.888   8.654 -0.2100  2.4277 -1.3302
  756MOL0     H 2051   5.766   1.873   8.538 -2.0675 -2.0728  1.0250
  756MOL0     H 2052   5.722   1.762   8.745 -0.4160 -1.8854  1.1089
  756MOL0     H 2053   5.830   1.631   8.720  0.4500 -0.2893 -0.2299
  756MOL0     H 2054   5.713   1.576   8.505  1.6293  0.8211  0.1012
  756MOL0     H 2055   5.597   1.703   8.550  1.6435  0.8794  0.4249
  756MOL0     H 2056   5.628   1.448   8.712  1.7360 -0.4369 -1.6170
  756MOL0     H 2057   5.523   1.471   8.576 -0.9818  2.7289  0.1021
  756MOL0     H 2058   5.299   1.677   8.880 -0.5834 -1.9843  1.1606
  756MOL0     H 2059   5.994   2.017   8.551  4.0379 -1.5992  2.8159
  756MOL0     H 2060   6.142   2.159   8.422  1.1628 -0.5952  1.7419
  757MOL0     O 2061   2.179   5.833   8.474  0.3560 -0.0253  0.1426
  757MOL0     C 2062   2.298   5.840   8.433  0.7539  1.0282 -0.5565
  757MOL0     O 2063   2.413   5.851   8.505  1.0672 -0.6595 -0.8470
  757MOL0     C 2064   2.402   5.833   8.641  0.2340 -0.4001  0.3565
  757MOL0     C 2065   2.471   5.911   8.730 -0.0327  0.2445  0.6954
  757MOL0     C 2066   2.485   5.871   8.860 -0.3458  0.5025  0.6319
  757MOL0     C 2067   2.414   5.759   8.909  0.4396 -0.1489 -0.4327
  757MOL0     O 2068   2.411   5.724   9.046  0.2940  0.6369 -0.5997
  757MOL0     C 2069   2.526   5.773   9.117  0.7679 -0.2393 -0.1296
  757MOL0     C 2070   2.518   5.722   9.258 -0.4361  0.9091  0.7145
  757MOL0     C 2071   2.373   5.737   9.328 -0.3038  0.5865  0.6946
  757MOL0     C 2072   2.382   5.690   9.475  0.6321  0.3299  0.7077
  757MOL0     C 2073   2.244   5.663   9.545 -0.0591 -0.2202  0.4857
  757MOL0     C 2074   2.264   5.625   9.693  0.1427  0.3224 -0.0414
  757MOL0     C 2075   2.133   5.601   9.765  0.6684  0.6302  0.9820
  757MOL0     C 2076   2.153   5.524   9.906  0.2661  0.0907  0.1975
  757MOL0     N 2077   2.021   5.518   9.969  0.8073  0.9960  0.0890
  757MOL0     C 2078   1.975   5.595  10.069  0.7002 -0.7355  0.1885
  757MOL0     C 2079   1.853   5.544  10.094  0.2750 -0.4739 -0.4319
  757MOL0     C 2080   1.756   5.623  10.182 -0.6570 -0.1009  0.3433
  757MOL0     C 2081   1.802   5.649  10.330 -0.0151 -0.8607  0.8027
  757MOL0     C 2082   1.776   5.534  10.432 -0.3713 -0.7955  0.9019
  757MOL0     C 2083   1.621   5.516  10.453  0.3759  1.1319 -0.1970
  757MOL0     O 2084   1.612   5.411  10.550  1.0023 -0.5570  0.2919
  757MOL0     C 2085   1.622   5.446  10.687 -0.5047 -0.1906 -1.3483
  757MOL0     C 2086   1.657   5.569  10.751  0.7406  0.2073  0.1519
  757MOL0     C 2087   1.689   5.577  10.885  0.6353 -0.1063  0.1663
  757MOL0     C 2088   1.733   5.721  10.922  0.5254 -0.6604 -0.5647
  757MOL0     C 2089   1.677   5.467  10.975  0.4078 -0.4994  0.3378
  757MOL0     C 2090   1.699   5.472  11.117 -0.2375  0.4750 -0.4218
  757MOL0     O 2091   1.712   5.348  11.180  0.2850 -0.0008  0.2492
  757MOL0     C 2092   1.746   5.336  11.315 -0.5682 -0.7279  1.0518
  757MOL0     C 2093   1.792   5.432  11.403 -0.4014 -0.7049 -0.8583
  757MOL0     C 2094   1.824   5.401  11.538  0.2049 -0.8965 -0.0330
  757MOL0     C 2095   1.801   5.268  11.590 -0.1548  0.7138 -0.9077
  757MOL0     O 2096   1.815   5.224  11.719 -0.3277  0.3600 -0.2352
  757MOL0     C 2097   1.835   5.315  11.831 -0.3773  0.8729 -0.4399
  757MOL0     C 2098   1.982   5.358  11.842  0.1794 -0.9224 -0.0492
  757MOL0     C 2099   2.089   5.243  11.828 -0.2600  0.8994 -0.2658
  757MOL0     C 2100   2.072   5.140  11.940 -0.0106  0.6991 -0.6025
  757MOL0     C 2101   2.188   5.040  11.939  0.7641  0.6955  0.0205
  757MOL0     C 2102   2.186   4.958  12.066  0.2022 -1.2148  0.3934
  757MOL0     C 2103   2.070   4.858  12.101  0.5589  0.6702  0.1765
  757MOL0     C 2104   2.062   4.816  12.247 -0.0291  1.2208 -0.0057
  757MOL0    Cl 2105   2.202   4.717  12.294 -0.1570  0.3395 -0.0702
  757MOL0     C 2106   1.746   5.175  11.501 -1.6399  1.3903 -0.4069
  757MOL0     C 2107   1.727   5.205  11.363 -1.0114  0.7078 -0.2355
  757MOL0     O 2108   1.715   5.579  11.172  0.2519  0.8114 -0.6399
  757MOL0     C 2109   1.627   5.354  10.914 -0.4293 -0.0083  0.0572
  757MOL0     C 2110   1.600   5.343  10.779  0.2611 -0.0328  0.2169
  757MOL0     N 2111   1.837   5.429  10.024  0.5627 -0.1015  0.5379
  757MOL0     N 2112   1.933   5.413   9.948  0.1660  0.2550  0.1920
  757MOL0     C 2113   2.332   5.686   8.823 -0.0388 -0.3633 -0.0231
  757MOL0     C 2114   2.332   5.719   8.693  0.1458 -0.3517 -0.3678
  757MOL0     C 2115   2.321   5.858   8.282 -0.2252 -0.6804  0.0508
  757MOL0     C 2116   2.439   5.908   8.228 -0.8081  0.9809 -0.9190
  757MOL0     C 2117   2.456   5.943   8.101 -0.9085 -0.4039  0.6775
  757MOL0     C 2118   2.354   5.949   8.012 -0.1330 -0.9313  0.5803
  757MOL0     O 2119   2.380   5.994   7.890  0.0864  0.2986  0.7613
  757MOL0     C 2120   2.288   5.981   7.785  0.3054 -0.0405 -0.1962
  757MOL0     C 2121   2.332   6.034   7.647 -0.3532  0.3082 -0.1082
  757MOL0     C 2122   2.226   5.983   7.549  1.1556 -0.2539 -0.0517
  757MOL0     C 2123   2.240   6.027   7.406  0.3887  0.6012 -0.5779
  757MOL0     C 2124   2.338   5.937   7.330  0.9561  0.7353  0.9003
  757MOL0     C 2125   2.391   5.843   7.277 -0.4284  0.6253 -0.5571
  757MOL0     C 2126   2.231   5.888   8.055  0.7030 -0.0328  0.2861
  757MOL0     C 2127   2.211   5.861   8.197 -0.2983  0.0209  0.6313
  757MOL0     H 2128   2.538   5.990   8.697 -1.1904  1.1627  0.4673
  757MOL0     H 2129   2.540   5.928   8.934  0.7156  1.3932 -0.7769
  757MOL0     H 2130   2.608   5.728   9.061  1.3993 -0.6389  1.0797
  757MOL0     H 2131   2.526   5.882   9.124 -6.0436  0.5403 -3.4290
  757MOL0     H 2132   2.551   5.618   9.248 -1.0661  0.8674 -1.2710
  757MOL0     H 2133   2.595   5.776   9.314  1.8625 -0.9771 -0.4513
  757MOL0     H 2134   2.345   5.843   9.322  0.1269  0.6166 -2.8984
  757MOL0     H 2135   2.301   5.676   9.272  2.2652 -1.2791 -0.7865
  757MOL0     H 2136   2.431   5.593   9.470  1.2916  0.7022 -2.5078
  757MOL0     H 2137   2.453   5.749   9.533  4.3844 -2.6872 -0.4443
  757MOL0     H 2138   2.185   5.755   9.534  0.9129  0.3557 -0.0415
  757MOL0     H 2139   2.187   5.595   9.481 -1.0088 -0.4281  1.5175
  757MOL0     H 2140   2.321   5.531   9.688 -1.2087 -0.5676  0.6215
  757MOL0     H 2141   2.335   5.700   9.728  1.6196 -0.3064 -1.5488
  757MOL0     H 2142   2.081   5.695   9.784 -0.6142  0.2826 -0.6119
  757MOL0     H 2143   2.064   5.535   9.711 -2.0903  1.7461  2.8717
  757MOL0     H 2144   2.218   5.580   9.974 -3.1651  4.4857  0.2851
  757MOL0     H 2145   2.179   5.421   9.883  1.2061  0.1422  0.9902
  757MOL0     H 2146   2.016   5.673  10.133 -5.0490  1.4772  1.7825
  757MOL0     H 2147   1.737   5.721  10.137  0.9455  0.7424  1.3689
  757MOL0     H 2148   1.660   5.571  10.174 -0.2561 -0.5672 -2.3386
  757MOL0     H 2149   1.743   5.737  10.354 -2.6352 -1.8331 -1.5250
  757MOL0     H 2150   1.906   5.681  10.321 -0.5221  1.0695  1.3209
  757MOL0     H 2151   1.837   5.575  10.513 -1.9718  2.4442  0.6345
  757MOL0     H 2152   1.823   5.442  10.397 -1.5497 -1.0768 -0.0010
  757MOL0     H 2153   1.568   5.490  10.361  2.8486 -3.8530 -0.5835
  757MOL0     H 2154   1.580   5.604  10.503  0.4220  1.2540 -0.3732
  757MOL0     H 2155   1.674   5.661  10.696  1.9322 -0.4479 -0.6276
  757MOL0     H 2156   1.808   5.728  11.001 -1.3769  0.7680  1.1928
  757MOL0     H 2157   1.770   5.777  10.835 -1.3298  2.9181  0.7332
  757MOL0     H 2158   1.641   5.771  10.954  2.2778  1.6236  1.2729
  757MOL0     H 2159   1.798   5.537  11.375 -0.6596 -0.2574  0.6709
  757MOL0     H 2160   1.865   5.484  11.594 -1.8299 -1.0318  1.7955
  757MOL0     H 2161   1.761   5.395  11.831 -3.5307 -1.7927 -1.7737
  757MOL0     H 2162   1.817   5.262  11.925 -4.3419  4.2697  1.0073
  757MOL0     H 2163   2.009   5.429  11.764 -3.1903 -1.4070 -1.8566
  757MOL0     H 2164   2.000   5.402  11.940 -2.1448  0.0419  0.0135
  757MOL0     H 2165   2.191   5.282  11.841 -0.3620  1.5434 -1.2641
  757MOL0     H 2166   2.091   5.197  11.728  0.4342  0.3901 -0.0243
  757MOL0     H 2167   2.068   5.194  12.035  0.0802  0.8186 -0.6667
  757MOL0     H 2168   1.974   5.099  11.914  1.0605 -1.2931 -1.7099
  757MOL0     H 2169   2.278   5.101  11.946  0.6712  1.3658 -3.0844
  757MOL0     H 2170   2.194   4.978  11.849  1.3719  0.8073 -0.0182
  757MOL0     H 2171   2.271   4.889  12.057 -0.5777 -2.0648 -0.6593
  757MOL0     H 2172   2.199   5.029  12.149 -3.7904  0.8288 -0.4742
  757MOL0     H 2173   2.066   4.770  12.036  2.4467 -0.1297  1.0689
  757MOL0     H 2174   1.975   4.911  12.085 -0.5429 -0.9248  1.0810
  757MOL0     H 2175   1.964   4.767  12.259  0.2639  0.0619 -1.9843
  757MOL0     H 2176   2.066   4.906  12.310  0.0744 -0.7387  3.0407
  757MOL0     H 2177   1.740   5.075  11.542 -1.3797  1.8520  0.7929
  757MOL0     H 2178   1.692   5.133  11.290  1.9728  1.3868 -2.5263
  757MOL0     H 2179   1.622   5.267  10.980  2.2632 -0.9675 -0.8557
  757MOL0     H 2180   1.568   5.249  10.735  1.2224  2.1272 -6.1051
  757MOL0     H 2181   2.284   5.598   8.865  2.6823 -2.5355 -1.1117
  757MOL0     H 2182   2.264   5.658   8.634  0.2370  0.1534 -1.0150
  757MOL0     H 2183   2.532   5.920   8.283  0.1511 -1.5565 -1.8644
  757MOL0     H 2184   2.551   5.978   8.062 -2.2911  1.6117 -1.1528
  757MOL0     H 2185   2.263   5.875   7.781  0.8534 -0.1274 -2.0081
  757MOL0     H 2186   2.196   6.029   7.820  1.9705  1.0219  3.1675
  757MOL0     H 2187   2.427   5.985   7.626 -1.2467 -1.3735 -0.3681
  757MOL0     H 2188   2.350   6.142   7.650  0.6245  0.2167  4.0579
  757MOL0     H 2189   2.135   6.027   7.591  1.6394  2.2232 -1.3673
  757MOL0     H 2190   2.221   5.874   7.547 -0.8708 -0.2001 -1.6665
  757MOL0     H 2191   2.260   6.135   7.407  0.9726  0.5433 -2.4599
  757MOL0     H 2192   2.137   6.016   7.370 -0.3028  3.1506  0.3939
  757MOL0     H 2193   2.462   5.771   7.242 -0.3146  0.3737  0.1888
  757MOL0     H 2194   2.151   5.862   7.986 -0.3587  2.4061  0.4667
  757MOL0     H 2195   2.117   5.839   8.247 -1.5657  0.2170 -1.5477
  758MOL0     O 2196   9.102   9.980   3.937 -0.3098 -0.3431  0.1104
  758MOL0     C 2197   9.002   9.935   3.879  0.4893 -0.9719 -0.0614
  758MOL0     O 2198   8.888  10.001   3.858  0.4920  0.3568 -1.4336
  758MOL0     C 2199   8.875  10.123   3.923  0.4868  0.2821  0.4242
  758MOL0     C 2200   8.829  10.232   3.851 -0.4533  0.1390 -0.9281
  758MOL0     C 2201   8.826  10.358   3.912 -0.3465  0.0325  0.0608
  758MOL0     C 2202   8.851  10.384   4.046  0.5494  0.5871  0.8368
  758MOL0     O 2203   8.851  10.513   4.099 -0.2037  0.0301 -0.3559
  758MOL0     C 2204   8.762  10.607   4.041  0.3183 -0.6719  0.3430
  758MOL0     C 2205   8.735  10.710   4.146  0.3579 -0.0217  0.4532
  758MOL0     C 2206   8.850  10.798   4.167  0.5166  0.7167  0.0795
  758MOL0     C 2207   8.823  10.903   4.275 -0.1314 -0.3674 -0.4134
  758MOL0     C 2208   8.932  11.013   4.283  0.2219 -0.1521  0.3898
  758MOL0     C 2209   8.931  11.100   4.410 -0.1778 -0.6351  0.0932
  758MOL0     C 2210   9.040  11.205   4.417 -0.7608 -0.0306  0.6339
  758MOL0     C 2211   9.008  11.330   4.497  0.6085  0.3236 -0.8512
  758MOL0     N 2212   9.113  11.374   4.588  0.4181  0.7215  0.5816
  758MOL0     C 2213   9.083  11.446   4.706 -0.0147  0.1950 -0.4970
  758MOL0     C 2214   9.199  11.499   4.751 -0.6485  0.8009  0.0401
  758MOL0     C 2215   9.205  11.589   4.863  0.8996  0.4837 -0.1161
  758MOL0     C 2216   9.330  11.578   4.946  0.2062 -0.8107 -0.1400
  758MOL0     C 2217   9.337  11.667   5.067  0.1848 -0.5218 -0.2369
  758MOL0     C 2218   9.300  11.817   5.051  0.6060  0.2346 -0.5232
  758MOL0     O 2219   9.157  11.824   5.051 -0.4067  0.6176  0.2618
  758MOL0     C 2220   9.102  11.824   5.176  0.2978  0.4665 -0.0612
  758MOL0     C 2221   8.963  11.829   5.176  0.1122  0.9075 -0.3558
  758MOL0     C 2222   8.886  11.814   5.290  0.4050 -0.7252  0.8499
  758MOL0     C 2223   8.732  11.826   5.264 -0.0389  0.1723 -0.0532
  758MOL0     C 2224   8.946  11.795   5.419  0.3362 -0.3713 -0.8053
  758MOL0     C 2225   8.877  11.814   5.555  0.4267  1.2064  0.0961
  758MOL0     O 2226   8.764  11.882   5.548  0.5205  0.0135  0.2428
  758MOL0     C 2227   8.691  11.915   5.663  0.5441  0.4671  0.1405
  758MOL0     C 2228   8.750  11.960   5.786 -0.2542 -0.1998  0.7772
  758MOL0     C 2229   8.669  12.009   5.893  0.2846 -0.0678  0.4485
  758MOL0     C 2230   8.530  12.003   5.881 -0.4579  0.5188 -0.0836
  758MOL0     O 2231   8.452  12.025   5.986 -0.0277  0.2321 -0.2569
  758MOL0     C 2232   8.307  12.030   5.966 -0.0477  0.3875 -0.3954
  758MOL0     C 2233   8.241  12.055   6.104  0.2667  0.0841  0.5105
  758MOL0     C 2234   8.086  12.031   6.087  0.3987  0.1306  0.8691
  758MOL0     C 2235   8.012  12.032   6.225 -0.1668  0.0694 -0.3406
  758MOL0     C 2236   7.856  12.018   6.189 -0.3217 -0.1603 -1.2751
  758MOL0     C 2237   7.786  11.964   6.317 -0.3480 -0.6316  1.0750
  758MOL0     C 2238   7.796  12.069   6.429 -0.0719 -1.0349 -0.0934
  758MOL0     C 2239   7.701  12.057   6.552 -0.3578  0.0196  0.1546
  758MOL0    Cl 2240   7.734  11.913   6.654 -0.5139  0.4818 -0.5110
  758MOL0     C 2241   8.478  11.941   5.765 -0.9311  0.0195  0.1858
  758MOL0     C 2242   8.556  11.916   5.649 -0.1582  0.1444 -0.8502
  758MOL0     O 2243   8.942  11.779   5.655 -0.1750 -0.2387 -0.5106
  758MOL0     C 2244   9.088  11.789   5.412 -0.8236 -0.4913 -0.0308
  758MOL0     C 2245   9.169  11.810   5.294  0.5633  0.4569 -0.1570
  758MOL0     N 2246   9.293  11.468   4.660 -0.7094  0.1579 -0.3596
  758MOL0     N 2247   9.241  11.399   4.563 -0.5123 -0.6190 -0.3229
  758MOL0     C 2248   8.890  10.271   4.121  0.1876  0.7286  0.3219
  758MOL0     C 2249   8.888  10.137   4.067 -0.6456  0.0345 -0.4772
  758MOL0     C 2250   9.010   9.809   3.813 -0.0990 -0.3905  0.8261
  758MOL0     C 2251   9.131   9.745   3.790 -0.2859 -0.3469 -0.3161
  758MOL0     C 2252   9.145   9.630   3.713  0.5649  0.1737 -0.1273
  758MOL0     C 2253   9.031   9.568   3.660 -0.2678  0.6502  0.0310
  758MOL0     O 2254   9.035   9.455   3.584 -0.5846  0.1161 -0.6902
  758MOL0     C 2255   9.139   9.450   3.474 -0.4199 -0.0803  0.3252
  758MOL0     C 2256   9.137   9.312   3.415  0.0877  0.2839  0.2013
  758MOL0     C 2257   9.235   9.289   3.300 -0.5929 -0.5772  0.5955
  758MOL0     C 2258   9.372   9.356   3.310 -0.3956 -1.2394 -0.5982
  758MOL0     C 2259   9.470   9.331   3.209 -1.4233 -0.6663 -0.5122
  758MOL0     C 2260   9.568   9.322   3.133 -0.2146  0.1473 -0.6305
  758MOL0     C 2261   8.914   9.636   3.675 -0.2160 -0.8026  0.6388
  758MOL0     C 2262   8.900   9.757   3.747  0.1559 -1.3032 -0.1420
  758MOL0     H 2263   8.822  10.226   3.742  0.8005 -0.0741 -1.0171
  758MOL0     H 2264   8.808  10.446   3.851 -2.9110 -0.2687  0.2583
  758MOL0     H 2265   8.821  10.650   3.959  1.0109  0.6996  1.5045
  758MOL0     H 2266   8.671  10.560   4.002  1.0429 -1.2077 -0.7548
  758MOL0     H 2267   8.651  10.769   4.107 -1.4492 -2.1770  0.8404
  758MOL0     H 2268   8.712  10.657   4.239  4.1407  1.8538  2.6922
  758MOL0     H 2269   8.933  10.742   4.211  1.6444  0.6068 -2.0618
  758MOL0     H 2270   8.861  10.850   4.072 -1.3206  1.8748  0.4506
  758MOL0     H 2271   8.721  10.942   4.262 -0.3618 -0.1641  1.7466
  758MOL0     H 2272   8.828  10.847   4.368  3.0895  0.3341 -0.0661
  758MOL0     H 2273   9.030  10.966   4.296 -0.5130 -1.2506  2.5426
  758MOL0     H 2274   8.911  11.073   4.194 -0.9086 -0.9756  0.0880
  758MOL0     H 2275   8.833  11.145   4.424 -1.0531 -1.1441 -3.4631
  758MOL0     H 2276   8.956  11.024   4.485  0.3501  0.2253  0.8101
  758MOL0     H 2277   9.126  11.153   4.459  0.3673  3.1177  2.6257
  758MOL0     H 2278   9.056  11.238   4.314  0.1999  0.8800  1.0564
  758MOL0     H 2279   8.916  11.299   4.548  0.4661 -3.9530 -3.2750
  758MOL0     H 2280   8.982  11.416   4.434 -0.2443  0.6081 -0.1451
  758MOL0     H 2281   8.990  11.473   4.754  0.8884  0.5974  1.1343
  758MOL0     H 2282   9.200  11.688   4.816 -0.8895 -0.7140 -2.6601
  758MOL0     H 2283   9.125  11.573   4.936  2.2056 -1.4760  0.9976
  758MOL0     H 2284   9.420  11.604   4.890 -1.5592  1.8900 -1.9584
  758MOL0     H 2285   9.342  11.479   4.991 -0.3615  0.5990  3.4000
  758MOL0     H 2286   9.441  11.666   5.100  1.3679  2.1888 -3.3313
  758MOL0     H 2287   9.278  11.612   5.141  1.2048 -1.5316 -0.1454
  758MOL0     H 2288   9.337  11.847   4.952  1.2582  0.8081 -0.1169
  758MOL0     H 2289   9.345  11.883   5.126  0.1439  0.4562 -0.4333
  758MOL0     H 2290   8.907  11.830   5.083 -0.7162 -0.0062  0.1056
  758MOL0     H 2291   8.693  11.922   5.297  2.4183  1.6159 -1.0862
  758MOL0     H 2292   8.699  11.811   5.161  3.2457 -1.6954 -1.0221
  758MOL0     H 2293   8.684  11.756   5.333  2.4058  0.1216  1.7594
  758MOL0     H 2294   8.855  11.963   5.813  0.8408 -5.2768 -1.7528
  758MOL0     H 2295   8.703  12.045   5.989  2.3330  1.0841 -0.6227
  758MOL0     H 2296   8.289  12.108   5.890 -0.0991  1.1216  0.3577
  758MOL0     H 2297   8.276  11.933   5.926  3.0850 -0.4119 -1.1160
  758MOL0     H 2298   8.284  11.982   6.173  1.7765  0.2339 -0.2146
  758MOL0     H 2299   8.263  12.159   6.133 -0.4820  2.0539 -4.7842
  758MOL0     H 2300   8.058  11.931   6.052 -0.7005  1.1314 -1.2995
  758MOL0     H 2301   8.052  12.108   6.019  2.0669  1.3965  1.3929
  758MOL0     H 2302   8.054  11.958   6.295 -0.6326  0.0198 -0.1153
  758MOL0     H 2303   8.032  12.119   6.287 -0.8234  0.0560 -0.1045
  758MOL0     H 2304   7.841  11.950   6.105 -1.4233  0.8451 -1.9160
  758MOL0     H 2305   7.822  12.113   6.147  1.2794 -0.8173 -4.3474
  758MOL0     H 2306   7.682  11.932   6.299 -0.3433  0.4856 -1.2956
  758MOL0     H 2307   7.829  11.867   6.345 -1.8729 -1.9881 -0.8931
  758MOL0     H 2308   7.772  12.167   6.386  2.7354 -0.6168 -0.9261
  758MOL0     H 2309   7.898  12.080   6.470 -1.8700  2.3846  4.3512
  758MOL0     H 2310   7.601  12.069   6.509 -0.9846 -0.5673  1.4013
  758MOL0     H 2311   7.708  12.150   6.609 -2.6625 -0.2973  1.0745
  758MOL0     H 2312   8.372  11.936   5.747 -0.7414 -1.7904 -0.7021
  758MOL0     H 2313   8.504  11.893   5.557 -0.4228  0.4221 -0.7724
  758MOL0     H 2314   9.147  11.781   5.503  2.5585  3.7765 -1.4558
  758MOL0     H 2315   9.276  11.804   5.309  0.3441  1.6748  2.4340
  758MOL0     H 2316   8.901  10.292   4.227  1.4319  2.4743 -0.1212
  758MOL0     H 2317   8.904  10.047   4.126  1.6857 -1.1663 -2.7610
  758MOL0     H 2318   9.226   9.785   3.824 -1.9000  1.3005  2.6742
  758MOL0     H 2319   9.233   9.566   3.708  0.8272  0.3520  1.5832
  758MOL0     H 2320   9.094   9.517   3.401 -0.1196 -0.6351 -0.3708
  758MOL0     H 2321   9.236   9.486   3.509 -1.4030  0.2080  3.0184
  758MOL0     H 2322   9.038   9.291   3.373  1.1136  0.8828 -2.7313
  758MOL0     H 2323   9.159   9.246   3.500  3.1514 -0.2513 -0.8777
  758MOL0     H 2324   9.181   9.337   3.218 -2.1076 -0.1508  1.7968
  758MOL0     H 2325   9.248   9.185   3.270  2.7615  0.4756 -2.1754
  758MOL0     H 2326   9.422   9.321   3.401  0.3908  2.9664  0.7981
  758MOL0     H 2327   9.347   9.463   3.311  1.5476 -0.7424 -0.0014
  758MOL0     H 2328   9.655   9.303   3.072  1.4608 -0.7014  1.8849
  758MOL0     H 2329   8.827   9.586   3.633 -1.5631  2.3330 -0.6391
  758MOL0     H 2330   8.808   9.814   3.754  0.4578 -0.8950  0.5885
  759MOL0     O 2331   2.622  11.197   5.915 -1.0822  0.6256  0.0181
  759MOL0     C 2332   2.525  11.230   5.850  0.1975  0.2055  0.1451
  759MOL0     O 2333   2.480  11.171   5.730 -0.2839 -0.7426 -0.6143
  759MOL0     C 2334   2.547  11.080   5.657  0.4865 -0.1002 -0.3705
  759MOL0     C 2335   2.497  11.050   5.524  0.1853 -0.6281 -0.2941
  759MOL0     C 2336   2.547  10.964   5.425  0.4046  0.1953 -0.1617
  759MOL0     C 2337   2.664  10.902   5.478  0.3700 -0.3920 -0.3932
  759MOL0     O 2338   2.726  10.826   5.382  0.2282  0.0237  0.1047
  759MOL0     C 2339   2.677  10.703   5.353 -0.7929 -0.4596  0.0184
  759MOL0     C 2340   2.793  10.612   5.326  0.0491  1.1043 -0.1774
  759MOL0     C 2341   2.920  10.617   5.430 -0.0189 -0.1102 -0.5826
  759MOL0     C 2342   2.875  10.553   5.566 -0.2039 -0.3164  0.1827
  759MOL0     C 2343   2.987  10.525   5.665  0.0541  0.3768  0.2828
  759MOL0     C 2344   3.128  10.477   5.605  0.8723 -0.2530  0.6794
  759MOL0     C 2345   3.103  10.336   5.546 -0.6898 -0.2529  0.7724
  759MOL0     C 2346   3.237  10.276   5.502  0.3825  0.0764  0.4428
  759MOL0     N 2347   3.218  10.132   5.481  0.4214  0.2492 -0.1592
  759MOL0     C 2348   3.136  10.078   5.391  0.7997 -0.3346  0.7001
  759MOL0     C 2349   3.155   9.947   5.394 -0.1239 -0.0496 -0.5661
  759MOL0     C 2350   3.079   9.850   5.303 -0.5673 -0.3998  0.6570
  759MOL0     C 2351   3.173   9.752   5.233 -0.5839  0.7191 -0.0804
  759MOL0     C 2352   3.245   9.655   5.334  1.1912 -1.1296 -0.5017
  759MOL0     C 2353   3.345   9.568   5.268 -0.2446  0.7313 -0.4972
  759MOL0     O 2354   3.273   9.486   5.183  0.4316 -0.3030 -0.1629
  759MOL0     C 2355   3.339   9.382   5.113 -0.2462  0.0867 -0.1369
  759MOL0     C 2356   3.478   9.363   5.100 -0.1742  0.5887  1.2197
  759MOL0     C 2357   3.543   9.270   5.015  1.1030  0.2487 -0.4691
  759MOL0     C 2358   3.692   9.270   4.994  0.2874  0.8447  0.6041
  759MOL0     C 2359   3.454   9.176   4.940 -0.0685 -1.1237  0.2551
  759MOL0     C 2360   3.493   9.069   4.845  0.4972 -0.2769 -0.4179
  759MOL0     O 2361   3.400   9.044   4.747 -0.2509 -0.0195 -0.7749
  759MOL0     C 2362   3.409   8.928   4.672 -0.4888 -1.0852 -0.6424
  759MOL0     C 2363   3.309   8.831   4.675 -0.9671 -0.5652 -0.0629
  759MOL0     C 2364   3.330   8.712   4.602  0.5782 -0.0918 -0.5954
  759MOL0     C 2365   3.431   8.700   4.507 -0.7949  0.4731  0.3433
  759MOL0     O 2366   3.447   8.587   4.429  0.6283  0.2210 -0.5149
  759MOL0     C 2367   3.343   8.476   4.419  0.3545 -0.7928  1.1006
  759MOL0     C 2368   3.386   8.371   4.328 -0.3718 -0.0508 -0.6385
  759MOL0     C 2369   3.494   8.282   4.385  0.1872 -0.1603  0.2316
  759MOL0     C 2370   3.510   8.144   4.321  0.3515  0.4822 -0.3632
  759MOL0     C 2371   3.518   8.136   4.169 -1.1220  0.5198  0.7993
  759MOL0     C 2372   3.643   8.205   4.126 -0.8778 -0.8562 -0.0337
  759MOL0     C 2373   3.685   8.183   3.983  0.3217  0.3413  0.3934
  759MOL0     C 2374   3.725   8.031   3.959  0.3551  0.0477 -0.1660
  759MOL0    Cl 2375   3.729   8.020   3.784 -0.3358  0.4289  0.0993
  759MOL0     C 2376   3.527   8.795   4.493 -0.5794 -1.0292 -0.1502
  759MOL0     C 2377   3.517   8.909   4.580  0.1940 -0.1269 -0.4175
  759MOL0     O 2378   3.587   8.998   4.865  0.4300 -0.4012 -0.1618
  759MOL0     C 2379   3.312   9.196   4.961 -0.0127  0.8274 -0.3035
  759MOL0     C 2380   3.264   9.301   5.036  0.1747 -0.2245 -0.4233
  759MOL0     N 2381   3.242   9.925   5.504 -0.4319  0.8740 -0.4635
  759MOL0     N 2382   3.280  10.033   5.549  0.1760 -0.2833  0.0620
  759MOL0     C 2383   2.713  10.922   5.609 -0.3934  0.1554 -0.5805
  759MOL0     C 2384   2.663  11.008   5.699 -0.7194  0.0606 -0.3873
  759MOL0     C 2385   2.472  11.367   5.879 -0.1618  1.4120 -0.2831
  759MOL0     C 2386   2.520  11.438   5.984  0.2273 -0.0796  0.0491
  759MOL0     C 2387   2.461  11.556   6.017  0.7276  0.2359 -0.3899
  759MOL0     C 2388   2.338  11.606   5.947  0.2215  0.5053  0.1889
  759MOL0     O 2389   2.259  11.715   5.979 -0.7419 -0.3378  0.0953
  759MOL0     C 2390   2.308  11.797   6.081 -0.1380  0.2811 -0.0639
  759MOL0     C 2391   2.212  11.917   6.110 -0.3421 -0.6450  1.0669
  759MOL0     C 2392   2.059  11.876   6.110 -0.6106  0.5630  0.1584
  759MOL0     C 2393   1.969  11.984   6.171  1.0133 -0.7108 -1.1187
  759MOL0     C 2394   1.826  11.943   6.181  0.7258 -0.2166 -1.0419
  759MOL0     C 2395   1.714  11.888   6.179 -0.3912 -0.8841  0.0748
  759MOL0     C 2396   2.281  11.523   5.853  0.0778 -0.7257 -0.1610
  759MOL0     C 2397   2.351  11.404   5.814  0.9259 -0.1416  0.2521
  759MOL0     H 2398   2.399  11.088   5.494  0.3626 -2.2031 -3.1828
  759MOL0     H 2399   2.504  10.939   5.329 -2.9211  2.5864  0.5571
  759MOL0     H 2400   2.613  10.660   5.431 -0.4458 -1.0547 -0.0150
  759MOL0     H 2401   2.626  10.710   5.256 -0.6127 -2.7602 -0.3090
  759MOL0     H 2402   2.754  10.512   5.308  1.1188  1.0159 -2.3616
  759MOL0     H 2403   2.837  10.635   5.228  1.2689 -3.7372 -1.0369
  759MOL0     H 2404   2.998  10.565   5.373 -0.1696  0.6339 -1.4894
  759MOL0     H 2405   2.960  10.716   5.451  1.1837 -0.6592 -0.1908
  759MOL0     H 2406   2.801  10.619   5.613 -0.1772 -0.2694  0.1585
  759MOL0     H 2407   2.817  10.462   5.547 -2.2413  0.7989  0.7043
  759MOL0     H 2408   3.005  10.595   5.746  2.7278 -1.0297  1.0372
  759MOL0     H 2409   2.961  10.435   5.723 -1.4169 -1.1844 -2.5768
  759MOL0     H 2410   3.162  10.549   5.530 -0.0555 -0.4217  0.0800
  759MOL0     H 2411   3.191  10.478   5.694 -0.1481 -0.8534  1.4251
  759MOL0     H 2412   3.054  10.271   5.618  0.6546 -1.5754  0.5462
  759MOL0     H 2413   3.034  10.350   5.462  1.3654  0.9582 -0.8394
  759MOL0     H 2414   3.311  10.291   5.582  0.8910 -0.9276  0.1753
  759MOL0     H 2415   3.262  10.324   5.407 -1.1989  0.7796  0.3591
  759MOL0     H 2416   3.081  10.147   5.328  2.9546  0.2819 -0.6074
  759MOL0     H 2417   3.005   9.801   5.367 -0.3792  1.9436  2.8284
  759MOL0     H 2418   3.010   9.904   5.238  0.3311  1.6207  1.3067
  759MOL0     H 2419   3.242   9.816   5.177 -2.1808  2.9937  0.4096
  759MOL0     H 2420   3.121   9.697   5.154 -2.3622  3.2018 -0.7533
  759MOL0     H 2421   3.160   9.601   5.378  1.7390 -0.7650  1.0752
  759MOL0     H 2422   3.294   9.701   5.421 -1.9655 -1.4187  1.5959
  759MOL0     H 2423   3.409   9.510   5.335 -1.4561 -0.5055 -0.3746
  759MOL0     H 2424   3.403   9.638   5.206  0.4517 -0.7717 -1.6035
  759MOL0     H 2425   3.532   9.428   5.168 -1.9042  3.1288  0.3097
  759MOL0     H 2426   3.729   9.175   5.033 -0.6811 -0.2073 -0.9558
  759MOL0     H 2427   3.711   9.282   4.887 -0.5903  1.3211  0.4879
  759MOL0     H 2428   3.742   9.345   5.057 -1.9646  0.1880  3.4246
  759MOL0     H 2429   3.221   8.840   4.738  0.1362 -1.1191  1.6228
  759MOL0     H 2430   3.251   8.637   4.603  0.7725 -0.3234 -1.4724
  759MOL0     H 2431   3.332   8.434   4.519  3.1994 -0.5396  1.6043
  759MOL0     H 2432   3.253   8.521   4.376  0.3567 -0.3123  1.5922
  759MOL0     H 2433   3.305   8.299   4.312  0.8213 -1.8622  1.0505
  759MOL0     H 2434   3.406   8.401   4.225 -0.3399 -0.1120 -0.6505
  759MOL0     H 2435   3.478   8.262   4.492 -2.0312  0.7713  0.1223
  759MOL0     H 2436   3.590   8.333   4.396  1.4911 -2.4998  0.3257
  759MOL0     H 2437   3.592   8.096   4.374  0.6966 -0.2201 -1.5131
  759MOL0     H 2438   3.417   8.091   4.345  0.3451  1.2098  1.3048
  759MOL0     H 2439   3.426   8.177   4.126  0.4862  4.4235  0.6565
  759MOL0     H 2440   3.520   8.029   4.144 -0.7285  0.0015  2.8955
  759MOL0     H 2441   3.628   8.312   4.139 -0.7720 -0.9066  0.5143
  759MOL0     H 2442   3.726   8.174   4.190 -1.1649 -1.2421  0.1579
  759MOL0     H 2443   3.767   8.250   3.955  0.1391  0.4437  0.0943
  759MOL0     H 2444   3.599   8.209   3.921  2.6743  4.9461 -1.4130
  759MOL0     H 2445   3.652   7.964   4.005  2.4819 -1.1936  1.6247
  759MOL0     H 2446   3.826   8.014   3.997  0.3730 -1.6018 -0.8576
  759MOL0     H 2447   3.616   8.776   4.433  0.3297 -0.8152  1.0902
  759MOL0     H 2448   3.578   8.998   4.577 -1.4286  1.0205 -2.5539
  759MOL0     H 2449   3.238   9.134   4.911  1.5211 -1.5863  0.2229
  759MOL0     H 2450   3.156   9.304   5.030  0.0340 -1.9973  0.6320
  759MOL0     H 2451   2.799  10.857   5.623 -1.6437 -1.8045 -1.5285
  759MOL0     H 2452   2.730  11.015   5.785  2.4777 -3.8440 -2.2145
  759MOL0     H 2453   2.605  11.410   6.045  0.0593  1.4995  1.0789
  759MOL0     H 2454   2.503  11.611   6.100 -0.2071  0.3228  0.0445
  759MOL0     H 2455   2.311  11.729   6.167  1.3492 -0.4453 -0.6557
  759MOL0     H 2456   2.411  11.826   6.060  0.7630  0.2472  3.5305
  759MOL0     H 2457   2.218  11.985   6.025 -1.6172 -3.5821 -1.5546
  759MOL0     H 2458   2.237  11.980   6.196 -2.2339  0.4593  0.8699
  759MOL0     H 2459   2.049  11.782   6.165 -0.7026 -0.1858 -1.0869
  759MOL0     H 2460   2.027  11.869   6.005 -1.8529  1.2913  0.4679
  759MOL0     H 2461   1.976  12.072   6.106  0.7746 -0.2306 -0.5092
  759MOL0     H 2462   2.008  12.006   6.271 -1.2690  0.9695 -0.4860
  759MOL0     H 2463   1.620  11.839   6.167  0.4439 -2.5493  0.0959
  759MOL0     H 2464   2.193  11.549   5.795  0.3390  0.7337  0.0455
  759MOL0     H 2465   2.325  11.348   5.724  0.3562  2.9526 -1.6636
  760MOL0     O 2466   1.510   4.236   8.263  0.3405 -0.8962  0.7582
  760MOL0     C 2467   1.410   4.292   8.223  0.2755  0.7271  0.3074
  760MOL0     O 2468   1.385   4.324   8.089 -0.1419 -0.1694 -0.8912
  760MOL0     C 2469   1.483   4.295   7.996 -0.0040 -0.3916 -0.1851
  760MOL0     C 2470   1.612   4.325   8.001 -0.6171 -0.1416 -0.3085
  760MOL0     C 2471   1.705   4.288   7.897 -0.3338  0.0376 -0.4585
  760MOL0     C 2472   1.658   4.243   7.779  0.1683 -1.1104  0.7724
  760MOL0     O 2473   1.730   4.217   7.668 -0.0326  0.7235  0.1596
  760MOL0     C 2474   1.837   4.125   7.691  0.7153 -0.3216 -0.9799
  760MOL0     C 2475   1.951   4.171   7.609 -0.7875 -0.5862 -0.2500
  760MOL0     C 2476   2.082   4.087   7.622 -0.9693 -0.4774 -0.2524
  760MOL0     C 2477   2.195   4.182   7.591  0.6430  0.4924 -0.1030
  760MOL0     C 2478   2.334   4.118   7.615  0.2472  0.3144  0.3963
  760MOL0     C 2479   2.444   4.203   7.573  0.7076  0.0700  0.5887
  760MOL0     C 2480   2.580   4.144   7.602  0.0596 -0.1843 -0.1684
  760MOL0     C 2481   2.693   4.228   7.540 -0.2194  1.2572  0.1275
  760MOL0     N 2482   2.692   4.361   7.582 -0.2729  0.1143  0.5966
  760MOL0     C 2483   2.746   4.456   7.510  0.4374 -0.6257 -0.9148
  760MOL0     C 2484   2.768   4.557   7.589 -0.1855  0.3155 -0.7418
  760MOL0     C 2485   2.865   4.665   7.539 -0.9414 -0.5091 -1.2034
  760MOL0     C 2486   2.862   4.702   7.388  0.6785  0.5884 -0.1303
  760MOL0     C 2487   2.942   4.832   7.345 -0.6832  0.0384  0.2897
  760MOL0     C 2488   2.941   4.832   7.192 -0.3341 -0.7866 -0.6241
  760MOL0     O 2489   3.015   4.948   7.145 -0.5036  0.4214  0.5473
  760MOL0     C 2490   3.156   4.939   7.137 -0.0964  0.8830  0.0502
  760MOL0     C 2491   3.239   4.823   7.163 -0.1344 -0.1766 -0.5013
  760MOL0     C 2492   3.373   4.822   7.136 -0.4383 -0.0583 -0.5425
  760MOL0     C 2493   3.438   4.692   7.164 -0.3651  0.2634 -0.6204
  760MOL0     C 2494   3.440   4.941   7.083  0.5927  0.2860 -0.4487
  760MOL0     C 2495   3.579   4.960   7.046 -0.4945  0.0083 -0.1552
  760MOL0     O 2496   3.623   5.076   6.982 -0.1609 -0.7097 -0.1548
  760MOL0     C 2497   3.756   5.093   6.949  0.1096  0.3126 -0.0635
  760MOL0     C 2498   3.808   5.210   6.982 -0.4224  0.5845  0.2895
  760MOL0     C 2499   3.939   5.250   6.953 -0.6001  0.4916  0.6488
  760MOL0     C 2500   4.020   5.146   6.894  0.1053 -0.1738  0.9282
  760MOL0     O 2501   4.149   5.184   6.874 -0.4547 -0.6716  0.8096
  760MOL0     C 2502   4.247   5.103   6.810 -0.7871 -0.6375  0.2376
  760MOL0     C 2503   4.389   5.156   6.837  0.7522  0.5316 -0.5144
  760MOL0     C 2504   4.413   5.295   6.771 -0.2726  0.5064 -0.3389
  760MOL0     C 2505   4.557   5.310   6.749  0.1075  0.0586 -1.0561
  760MOL0     C 2506   4.580   5.462   6.718 -0.5216  0.3022 -0.9560
  760MOL0     C 2507   4.728   5.485   6.696  0.6044  0.0287 -0.2377
  760MOL0     C 2508   4.749   5.624   6.647 -0.5381  0.7506  0.4936
  760MOL0     C 2509   4.890   5.688   6.672  0.4142  0.2303 -0.6140
  760MOL0    Cl 2510   4.930   5.692   6.848  0.4262 -0.1841  0.6327
  760MOL0     C 2511   3.968   5.017   6.860  0.4941 -0.3086  0.0909
  760MOL0     C 2512   3.834   4.990   6.889 -0.2361 -0.1843  1.0126
  760MOL0     O 2513   3.656   4.877   7.081 -0.5735 -0.2729 -0.0502
  760MOL0     C 2514   3.354   5.049   7.064 -0.1243 -0.2785  1.1427
  760MOL0     C 2515   3.222   5.053   7.094 -0.4316  0.5104  1.5238
  760MOL0     N 2516   2.727   4.522   7.716  0.2131 -0.4498  0.1707
  760MOL0     N 2517   2.674   4.405   7.707  0.0143 -0.5022  0.5689
  760MOL0     C 2518   1.513   4.227   7.761 -0.4866 -0.4069 -0.0131
  760MOL0     C 2519   1.429   4.248   7.870  0.1634  0.7802 -0.4159
  760MOL0     C 2520   1.296   4.320   8.320 -0.2062  0.4567  0.2730
  760MOL0     C 2521   1.174   4.353   8.258 -0.0034 -0.1110  0.8562
  760MOL0     C 2522   1.068   4.387   8.344  0.0283 -0.1008 -0.6022
  760MOL0     C 2523   1.076   4.389   8.479  0.3997 -1.0153  0.1732
  760MOL0     O 2524   0.960   4.410   8.549  0.1637 -0.2411 -0.2343
  760MOL0     C 2525   0.971   4.533   8.632  0.9526  0.5818 -0.4046
  760MOL0     C 2526   1.002   4.666   8.572  0.5055 -0.4059 -0.3926
  760MOL0     C 2527   0.902   4.700   8.455 -0.0583  0.6566  0.2445
  760MOL0     C 2528   0.921   4.844   8.392  0.3870 -0.3626  0.3893
  760MOL0     C 2529   1.056   4.877   8.350 -0.3500 -0.5839 -0.2941
  760MOL0     C 2530   1.176   4.891   8.322  0.3451  0.1333  0.3044
  760MOL0     C 2531   1.197   4.353   8.535  0.0862 -0.4139  0.3926
  760MOL0     C 2532   1.304   4.321   8.458 -0.0060  0.6258  0.2158
  760MOL0     H 2533   1.662   4.359   8.091  2.9204 -2.5082 -1.1879
  760MOL0     H 2534   1.811   4.305   7.914 -0.3524  0.5759 -0.8632
  760MOL0     H 2535   1.862   4.116   7.797 -1.2236 -1.1694 -0.5576
  760MOL0     H 2536   1.807   4.025   7.661  2.0101 -0.5882 -1.4691
  760MOL0     H 2537   1.918   4.167   7.505  2.0760  3.7558 -1.5729
  760MOL0     H 2538   1.963   4.276   7.637  2.1604 -0.8600 -0.1089
  760MOL0     H 2539   2.076   4.034   7.717  0.8241 -1.7107 -0.7909
  760MOL0     H 2540   2.083   4.004   7.551 -1.3411  0.4266 -1.3590
  760MOL0     H 2541   2.176   4.195   7.484  0.4023 -4.3700 -0.9063
  760MOL0     H 2542   2.188   4.280   7.638 -1.0888  0.2775  0.1804
  760MOL0     H 2543   2.348   4.095   7.721  2.0581 -2.2870 -0.3044
  760MOL0     H 2544   2.334   4.022   7.563 -0.8675 -0.1677  1.2543
  760MOL0     H 2545   2.433   4.218   7.465  1.0548  1.2689  0.7060
  760MOL0     H 2546   2.437   4.299   7.625 -2.0738  1.2409 -1.6290
  760MOL0     H 2547   2.580   4.128   7.710 -1.8932 -3.3490 -0.4905
  760MOL0     H 2548   2.580   4.042   7.561  1.6656  0.0891 -0.9397
  760MOL0     H 2549   2.670   4.224   7.433 -0.8830  1.0708  0.2691
  760MOL0     H 2550   2.792   4.191   7.567 -1.2408 -1.0279  1.0061
  760MOL0     H 2551   2.774   4.454   7.405  0.1636 -4.9914 -1.0576
  760MOL0     H 2552   2.835   4.756   7.591  2.9866  0.5725 -0.5666
  760MOL0     H 2553   2.970   4.647   7.560 -0.1575  1.4926 -3.0527
  760MOL0     H 2554   2.755   4.713   7.367 -0.0456 -2.5295  1.4159
  760MOL0     H 2555   2.900   4.615   7.334  0.2564  0.5560 -0.3831
  760MOL0     H 2556   3.045   4.820   7.381 -0.2945 -0.4321 -0.9452
  760MOL0     H 2557   2.897   4.920   7.393  0.3546 -0.8170  3.0656
  760MOL0     H 2558   2.839   4.825   7.155 -1.0472  0.2399  1.0515
  760MOL0     H 2559   3.001   4.746   7.162  3.8502  1.7181 -0.3111
  760MOL0     H 2560   3.193   4.733   7.204 -1.6791  0.9155  0.2484
  760MOL0     H 2561   3.467   4.678   7.269  1.3244 -0.4576 -1.1455
  760MOL0     H 2562   3.371   4.610   7.136  1.4999 -1.3705 -0.5713
  760MOL0     H 2563   3.533   4.683   7.110  1.6015 -0.3883  2.6391
  760MOL0     H 2564   3.742   5.282   7.029 -1.0538  0.6019 -0.6009
  760MOL0     H 2565   3.989   5.345   6.969 -0.8469  0.6477  0.5027
  760MOL0     H 2566   4.251   5.006   6.860 -1.1455 -0.0772  1.3842
  760MOL0     H 2567   4.231   5.097   6.702 -1.5112  3.3564 -0.0276
  760MOL0     H 2568   4.410   5.176   6.942  0.1205 -2.0750  0.1861
  760MOL0     H 2569   4.461   5.079   6.807 -0.0098 -1.1924  1.8283
  760MOL0     H 2570   4.379   5.373   6.840  0.7018  1.6674 -1.1195
  760MOL0     H 2571   4.346   5.311   6.686  0.0904  2.1418 -0.3621
  760MOL0     H 2572   4.609   5.278   6.839 -0.7471 -0.5705 -0.7664
  760MOL0     H 2573   4.589   5.258   6.658  1.3479  1.8826 -1.7132
  760MOL0     H 2574   4.543   5.526   6.799  0.0236  1.0109 -1.2508
  760MOL0     H 2575   4.521   5.481   6.628 -0.2613  1.4671 -0.9060
  760MOL0     H 2576   4.789   5.468   6.785  0.6927 -0.6774 -0.4311
  760MOL0     H 2577   4.762   5.420   6.616  1.9008  0.0522  0.2714
  760MOL0     H 2578   4.678   5.695   6.692  3.6522  4.5447  1.8608
  760MOL0     H 2579   4.731   5.635   6.540 -1.9647  4.6716  0.9722
  760MOL0     H 2580   4.885   5.789   6.630 -0.0177 -0.2272 -1.7185
  760MOL0     H 2581   4.983   5.647   6.630  1.1298  1.3289 -0.1495
  760MOL0     H 2582   4.036   4.946   6.814  1.0059  0.3043 -0.1273
  760MOL0     H 2583   3.802   4.890   6.866  2.8173 -0.6508 -1.8751
  760MOL0     H 2584   3.400   5.143   7.035 -0.6286 -0.2615  0.3696
  760MOL0     H 2585   3.160   5.140   7.072 -1.3524 -0.9923 -2.9313
  760MOL0     H 2586   1.465   4.165   7.686 -5.7428 -0.9463  3.2681
  760MOL0     H 2587   1.328   4.209   7.869  0.6742 -0.7424  1.3146
  760MOL0     H 2588   1.167   4.362   8.150 -5.0538 -1.3501  0.8456
  760MOL0     H 2589   0.973   4.409   8.297  0.9584  1.8158 -1.6866
  760MOL0     H 2590   0.878   4.536   8.689 -0.4891  1.5345 -2.6677
  760MOL0     H 2591   1.051   4.517   8.705  1.0330 -2.1255 -0.9618
  760MOL0     H 2592   1.106   4.673   8.540 -0.1193  1.1536 -2.2839
  760MOL0     H 2593   0.986   4.741   8.650 -1.3247 -0.3961 -0.7181
  760MOL0     H 2594   0.798   4.687   8.486 -0.4890  0.3005 -1.2506
  760MOL0     H 2595   0.918   4.629   8.373  1.9443  0.8052  0.4550
  760MOL0     H 2596   0.886   4.927   8.455 -0.8766  0.4428 -1.2918
  760MOL0     H 2597   0.864   4.846   8.299  1.8034 -1.9846 -0.5693
  760MOL0     H 2598   1.283   4.898   8.316  0.4221 -1.7128 -1.3999
  760MOL0     H 2599   1.208   4.334   8.642  0.1636  2.1780  0.9129
  760MOL0     H 2600   1.401   4.300   8.503 -0.4962 -1.4401  0.4174
  761MOL0     O 2601  10.542  10.835   6.337 -0.7882 -0.3453  0.0958
  761MOL0     C 2602  10.486  10.728   6.313  0.4113 -0.3071  0.0710
  761MOL0     O 2603  10.546  10.607   6.294 -0.2589  0.1162  0.2535
  761MOL0     C 2604  10.677  10.582   6.344  0.5712 -1.2264 -0.4214
  761MOL0     C 2605  10.742  10.466   6.303 -0.2119  0.1179  0.3948
  761MOL0     C 2606  10.864  10.433   6.356 -0.5747  0.4493 -0.4839
  761MOL0     C 2607  10.929  10.513   6.451 -0.2092 -0.6996  0.0590
  761MOL0     O 2608  11.054  10.496   6.500  0.0742 -0.2383  0.6286
  761MOL0     C 2609  11.101  10.359   6.526 -0.6721 -0.8764  0.5216
  761MOL0     C 2610  11.254  10.360   6.551  0.8277 -0.2820 -0.6257
  761MOL0     C 2611  11.278  10.402   6.693  0.6239  0.2701  0.5026
  761MOL0     C 2612  11.416  10.370   6.741 -0.1809  0.5002  0.5638
  761MOL0     C 2613  11.439  10.388   6.888  0.2800 -0.0468  0.6510
  761MOL0     C 2614  11.465  10.533   6.927  0.3440  0.0599  0.6022
  761MOL0     C 2615  11.420  10.554   7.067 -0.7206  0.0571 -0.4045
  761MOL0     C 2616  11.487  10.680   7.125 -0.9344  0.3794  0.2327
  761MOL0     N 2617  11.455  10.700   7.262 -0.5858 -0.5740 -0.8936
  761MOL0     C 2618  11.338  10.741   7.317 -0.3437 -0.4394 -0.5645
  761MOL0     C 2619  11.355  10.725   7.450  0.9640  0.0016 -0.4115
  761MOL0     C 2620  11.258  10.779   7.556 -0.3110  0.1347  0.3203
  761MOL0     C 2621  11.110  10.763   7.528 -0.3957 -0.0839  0.4549
  761MOL0     C 2622  11.015  10.793   7.648 -0.5800  0.6182  0.0210
  761MOL0     C 2623  10.996  10.944   7.663 -0.0734 -0.4608  0.3789
  761MOL0     O 2624  11.111  11.022   7.695 -0.1504  0.0605  0.5138
  761MOL0     C 2625  11.097  11.149   7.743 -0.2747 -0.4379 -0.5985
  761MOL0     C 2626  11.084  11.163   7.880 -0.2687 -0.1109  0.3823
  761MOL0     C 2627  11.080  11.290   7.939  0.5615 -1.0556 -0.4161
  761MOL0     C 2628  11.076  11.287   8.095 -0.3778  0.3699  0.1351
  761MOL0     C 2629  11.057  11.406   7.859 -0.2253 -0.4973 -0.4899
  761MOL0     C 2630  11.037  11.541   7.909 -0.1822  0.4307  1.7910
  761MOL0     O 2631  11.020  11.637   7.805 -0.2259 -0.2690 -0.1231
  761MOL0     C 2632  11.027  11.775   7.813 -0.4830  0.3025 -0.5880
  761MOL0     C 2633  10.983  11.836   7.695  0.5698 -0.2590 -0.4094
  761MOL0     C 2634  10.997  11.980   7.689 -0.3735  0.2144 -0.0013
  761MOL0     C 2635  11.051  12.054   7.797  0.3161  0.4221  0.8579
  761MOL0     O 2636  11.061  12.188   7.780 -0.6214  0.5312  0.5577
  761MOL0     C 2637  11.127  12.274   7.878  0.0785  0.4386  0.2109
  761MOL0     C 2638  11.115  12.423   7.823 -0.0869 -0.0018 -0.1237
  761MOL0     C 2639  11.223  12.434   7.703  0.5769  0.1328 -1.2934
  761MOL0     C 2640  11.221  12.583   7.662  0.9205 -0.8703 -0.1892
  761MOL0     C 2641  11.169  12.603   7.518  0.9101 -0.0329 -0.3099
  761MOL0     C 2642  11.123  12.748   7.488  0.3492  0.2607 -0.5320
  761MOL0     C 2643  11.043  12.770   7.357 -0.0772 -0.0219  0.1284
  761MOL0     C 2644  11.017  12.921   7.319  0.5288 -0.6686 -0.4122
  761MOL0    Cl 2645  10.912  12.932   7.172  0.2375 -0.0060 -0.1643
  761MOL0     C 2646  11.082  11.988   7.912 -0.9065  0.2413 -0.1822
  761MOL0     C 2647  11.074  11.849   7.921 -0.8012 -0.0776 -0.1673
  761MOL0     O 2648  11.048  11.565   8.033  0.1580 -0.1603  0.0712
  761MOL0     C 2649  11.061  11.388   7.715 -0.1996  0.6500 -0.0583
  761MOL0     C 2650  11.087  11.265   7.663  0.5424 -0.0513 -0.4197
  761MOL0     N 2651  11.474  10.678   7.476  0.8063 -0.2847 -0.5218
  761MOL0     N 2652  11.531  10.650   7.362  0.0659  0.0424  0.4006
  761MOL0     C 2653  10.874  10.637   6.488 -0.0286  0.1317 -0.6282
  761MOL0     C 2654  10.745  10.668   6.442  0.1429 -0.2333  0.1346
  761MOL0     C 2655  10.340  10.731   6.298 -0.2651  0.4460 -0.5025
  761MOL0     C 2656  10.282  10.626   6.239  0.4421  0.0245  0.3771
  761MOL0     C 2657  10.144  10.625   6.235  0.3280  0.5328  0.3870
  761MOL0     C 2658  10.057  10.731   6.276  0.3208 -0.2666  0.2062
  761MOL0     O 2659   9.915  10.713   6.277 -0.3478  0.4606  0.5060
  761MOL0     C 2660   9.825  10.808   6.342 -0.3437  0.7556 -0.2334
  761MOL0     C 2661   9.682  10.779   6.292 -0.5370  0.1142  0.6517
  761MOL0     C 2662   9.683  10.790   6.143  0.4056 -0.2404  0.4350
  761MOL0     C 2663   9.552  10.765   6.069  0.1289 -0.3659  0.1909
  761MOL0     C 2664   9.435  10.816   6.138  0.0004 -0.5051  0.1456
  761MOL0     C 2665   9.354  10.860   6.220  0.8393  0.1347  0.6175
  761MOL0     C 2666  10.118  10.835   6.333 -0.2094 -0.1385 -0.3703
  761MOL0     C 2667  10.259  10.838   6.342  0.2069 -0.4917 -0.2891
  761MOL0     H 2668  10.701  10.405   6.222  3.2275  0.3286 -1.6990
  761MOL0     H 2669  10.908  10.339   6.326 -2.1608  0.1858 -2.1795
  761MOL0     H 2670  11.061  10.303   6.610  0.2424 -3.2446 -0.5349
  761MOL0     H 2671  11.082  10.296   6.439 -0.1913  1.0273 -1.0666
  761MOL0     H 2672  11.288  10.256   6.548 -3.9975 -2.2006  1.0062
  761MOL0     H 2673  11.299  10.426   6.476 -1.7128  1.6990 -0.5539
  761MOL0     H 2674  11.249  10.507   6.699 -0.2951 -0.0258  1.6386
  761MOL0     H 2675  11.213  10.354   6.767  0.6537  1.8694  1.6093
  761MOL0     H 2676  11.441  10.267   6.712  0.6919  0.8195  0.1342
  761MOL0     H 2677  11.488  10.431   6.686 -0.6574  0.1021 -0.5395
  761MOL0     H 2678  11.355  10.338   6.938  0.3665 -2.4206 -1.3918
  761MOL0     H 2679  11.531  10.333   6.907  2.0748  3.4973  3.6560
  761MOL0     H 2680  11.569  10.566   6.912  0.0691 -0.0182 -1.7972
  761MOL0     H 2681  11.409  10.612   6.877  1.2710  1.8764  2.2966
  761MOL0     H 2682  11.313  10.575   7.066 -0.6690  0.3396 -0.1162
  761MOL0     H 2683  11.443  10.469   7.132  0.2060  0.4266 -0.2348
  761MOL0     H 2684  11.470  10.772   7.069 -0.6031 -0.8251 -1.9577
  761MOL0     H 2685  11.595  10.664   7.118 -0.9161 -0.0028  1.2417
  761MOL0     H 2686  11.253  10.795   7.277  3.2200  2.9090 -4.6549
  761MOL0     H 2687  11.287  10.719   7.643 -1.0989 -1.0724 -0.2331
  761MOL0     H 2688  11.277  10.884   7.578 -2.9110  0.1501  3.0516
  761MOL0     H 2689  11.102  10.656   7.506  0.3008 -0.0528  0.0071
  761MOL0     H 2690  11.086  10.812   7.433  1.0393 -0.4120 -0.0976
  761MOL0     H 2691  11.057  10.753   7.741  2.9896  0.9216 -1.2950
  761MOL0     H 2692  10.927  10.736   7.618  1.0420 -1.2854 -1.5218
  761MOL0     H 2693  10.924  10.942   7.745 -0.3295  0.3499  0.1790
  761MOL0     H 2694  10.945  10.977   7.572  0.8989 -4.3926 -1.8173
  761MOL0     H 2695  11.084  11.072   7.939 -1.3190 -0.6180 -0.3716
  761MOL0     H 2696  11.077  11.186   8.137  1.3014  1.6674  3.6023
  761MOL0     H 2697  11.159  11.343   8.139 -1.2363  1.0593  0.8962
  761MOL0     H 2698  10.989  11.338   8.136  0.4642  0.7535  1.5224
  761MOL0     H 2699  10.955  11.787   7.602 -0.9465 -0.7941  0.2938
  761MOL0     H 2700  10.977  12.029   7.594 -2.5457  0.1673  0.3876
  761MOL0     H 2701  11.066  12.261   7.968 -2.5328  0.2606 -1.4845
  761MOL0     H 2702  11.233  12.258   7.902  0.0369  0.7650  0.6319
  761MOL0     H 2703  11.012  12.446   7.796  0.3252 -0.7955 -2.6777
  761MOL0     H 2704  11.142  12.486   7.908  0.4037  2.1499 -1.7646
  761MOL0     H 2705  11.200  12.363   7.623  2.1356 -1.6869 -0.2118
  761MOL0     H 2706  11.328  12.414   7.726  1.3436  1.6505 -3.1294
  761MOL0     H 2707  11.179  12.648   7.740  0.5952 -0.9933 -0.2611
  761MOL0     H 2708  11.328  12.607   7.667  1.1220 -1.8523  0.5860
  761MOL0     H 2709  11.076  12.544   7.512  1.0925 -0.3116 -0.4083
  761MOL0     H 2710  11.231  12.574   7.433 -1.9048 -1.4964 -2.0174
  761MOL0     H 2711  11.077  12.778   7.583  3.2150 -3.8164  2.4841
  761MOL0     H 2712  11.213  12.808   7.484 -0.8870  2.1765 -0.7832
  761MOL0     H 2713  10.950  12.713   7.357  1.3769 -2.5969  1.2348
  761MOL0     H 2714  11.099  12.728   7.273 -0.7984  0.6552 -0.7152
  761MOL0     H 2715  11.105  12.984   7.302  0.5487 -0.4453  0.4566
  761MOL0     H 2716  10.974  12.971   7.407  0.9959 -1.3344  0.1976
  761MOL0     H 2717  11.116  12.052   7.993 -4.0827  0.6474  0.9725
  761MOL0     H 2718  11.131  11.799   7.999  0.5197 -2.5960 -2.5333
  761MOL0     H 2719  11.035  11.461   7.638  0.0108  1.4134  0.5842
  761MOL0     H 2720  11.097  11.248   7.556  0.4471 -2.0701 -0.1404
  761MOL0     H 2721  10.936  10.702   6.549 -0.2586 -0.1858 -0.0420
  761MOL0     H 2722  10.699  10.761   6.473 -0.1669  1.3511 -4.3153
  761MOL0     H 2723  10.349  10.545   6.212  0.5487  0.9837 -2.5578
  761MOL0     H 2724  10.095  10.532   6.206 -1.1239  0.2422  3.3206
  761MOL0     H 2725   9.829  10.795   6.451 -1.5846 -0.1922 -0.2831
  761MOL0     H 2726   9.856  10.911   6.318 -2.3698  1.1825 -1.2520
  761MOL0     H 2727   9.615  10.857   6.330 -0.5600 -0.0687  0.9882
  761MOL0     H 2728   9.637  10.684   6.323 -0.3092  0.1603  1.1368
  761MOL0     H 2729   9.740  10.713   6.091 -1.5077  0.3399 -2.8221
  761MOL0     H 2730   9.708  10.891   6.108  0.0055 -0.7218 -1.3360
  761MOL0     H 2731   9.533  10.657   6.070  0.8948 -0.5043  0.4693
  761MOL0     H 2732   9.571  10.802   5.968  0.2659 -1.0857 -0.0598
  761MOL0     H 2733   9.285  10.898   6.293 -2.3777 -2.9537 -0.5333
  761MOL0     H 2734  10.054  10.913   6.372  0.6359  1.1688 -1.5262
  761MOL0     H 2735  10.300  10.927   6.390  3.1081 -1.4401 -0.7892
  762MOL0     O 2736   8.668   5.668   0.790 -0.4082  0.0890 -0.1645
  762MOL0     C 2737   8.781   5.631   0.787  0.0424 -0.3942 -0.9219
  762MOL0     O 2738   8.849   5.549   0.877 -1.4015 -0.1003 -0.0972
  762MOL0     C 2739   8.816   5.525   1.008  0.2064  0.4423  0.3469
  762MOL0     C 2740   8.900   5.438   1.084  0.4345 -0.7596  0.4918
  762MOL0     C 2741   8.863   5.402   1.213 -0.2094  0.8982 -0.3958
  762MOL0     C 2742   8.750   5.474   1.273 -0.5554 -0.5651 -0.7512
  762MOL0     O 2743   8.707   5.449   1.397 -0.3012  0.1552  0.1817
  762MOL0     C 2744   8.629   5.331   1.410 -0.0341 -0.7372 -0.5771
  762MOL0     C 2745   8.589   5.310   1.555  0.2542  0.3857  0.6092
  762MOL0     C 2746   8.531   5.432   1.617  0.1438 -0.5021 -0.3188
  762MOL0     C 2747   8.468   5.404   1.762  0.2588  0.4197  0.5655
  762MOL0     C 2748   8.575   5.437   1.865 -0.3375  0.4001 -0.4996
  762MOL0     C 2749   8.507   5.399   2.002 -1.1018  0.4973 -1.2443
  762MOL0     C 2750   8.571   5.473   2.123 -0.1769  0.6992 -0.7340
  762MOL0     C 2751   8.494   5.445   2.247  0.0097  0.5605 -0.1068
  762MOL0     N 2752   8.495   5.297   2.296  0.7657 -0.4919  0.2000
  762MOL0     C 2753   8.601   5.240   2.363  0.5467 -0.6028 -0.1506
  762MOL0     C 2754   8.562   5.118   2.408 -0.0351 -0.4622 -0.8062
  762MOL0     C 2755   8.646   5.008   2.472 -0.2958 -0.2036 -0.3127
  762MOL0     C 2756   8.629   5.014   2.620 -1.4139 -0.6405  0.4820
  762MOL0     C 2757   8.689   4.891   2.687  0.2553 -0.3902 -0.8609
  762MOL0     C 2758   8.755   4.918   2.826 -0.3860 -0.1988  0.2385
  762MOL0     O 2759   8.807   4.792   2.888  0.1343  0.0831  0.7024
  762MOL0     C 2760   8.917   4.789   2.965 -0.0311 -0.2664  0.0790
  762MOL0     C 2761   8.998   4.679   2.966  0.4170 -0.5876 -0.5023
  762MOL0     C 2762   9.111   4.668   3.047 -0.6984  0.5579  0.2395
  762MOL0     C 2763   9.198   4.542   3.036  0.8394  0.6466  0.8865
  762MOL0     C 2764   9.153   4.775   3.126  0.9682 -0.0993 -0.4367
  762MOL0     C 2765   9.277   4.786   3.206  0.5521  0.6685 -0.2218
  762MOL0     O 2766   9.334   4.672   3.255  0.0016  0.1915  0.1745
  762MOL0     C 2767   9.459   4.668   3.313 -0.4097 -0.4027  0.7506
  762MOL0     C 2768   9.472   4.590   3.419  1.5749 -0.3104  0.0169
  762MOL0     C 2769   9.587   4.573   3.487 -0.3590  0.0225  0.6733
  762MOL0     C 2770   9.712   4.614   3.446 -0.5796 -0.2244  0.9713
  762MOL0     O 2771   9.822   4.585   3.524  0.4089  0.0469  0.6208
  762MOL0     C 2772   9.934   4.540   3.452  0.4297  0.2350  1.2107
  762MOL0     C 2773  10.045   4.476   3.545 -0.9968  0.1120  0.4303
  762MOL0     C 2774  10.106   4.579   3.638  0.0623  0.6598 -0.0209
  762MOL0     C 2775  10.203   4.515   3.738 -0.0546  0.3048 -0.2091
  762MOL0     C 2776  10.333   4.464   3.679  0.0118 -0.1286  0.2785
  762MOL0     C 2777  10.439   4.492   3.776 -0.8619  0.0149 -0.2819
  762MOL0     C 2778  10.577   4.474   3.715  0.9424 -0.0883 -0.9223
  762MOL0     C 2779  10.677   4.593   3.755 -0.0751 -0.3650  0.0727
  762MOL0    Cl 2780  10.621   4.755   3.700  0.3253 -0.2314  0.0059
  762MOL0     C 2781   9.696   4.708   3.327 -0.1340  1.3961  0.1477
  762MOL0     C 2782   9.578   4.729   3.255  1.0063  0.4216 -0.5806
  762MOL0     O 2783   9.312   4.902   3.221  0.2189  0.4014 -0.8467
  762MOL0     C 2784   9.074   4.892   3.108 -0.1070 -0.4067 -0.2852
  762MOL0     C 2785   8.950   4.890   3.047  0.3312 -0.6140 -0.4462
  762MOL0     N 2786   8.427   5.096   2.360 -0.2622 -0.4054 -0.4181
  762MOL0     N 2787   8.390   5.205   2.305  0.4327 -1.0855  0.0743
  762MOL0     C 2788   8.687   5.575   1.204 -0.1043 -0.2197  0.3586
  762MOL0     C 2789   8.711   5.594   1.064  0.6117  0.5821  0.2434
  762MOL0     C 2790   8.853   5.666   0.659 -0.4201  0.4228 -1.0630
  762MOL0     C 2791   8.970   5.601   0.614  0.1098 -0.0458 -0.6072
  762MOL0     C 2792   9.037   5.637   0.499  1.3485  0.2706  0.3037
  762MOL0     C 2793   8.983   5.737   0.418 -1.0430  0.3742 -0.2464
  762MOL0     O 2794   9.045   5.764   0.295  0.1967  0.0483 -0.3895
  762MOL0     C 2795   8.985   5.868   0.206 -0.1486  0.6094  0.6009
  762MOL0     C 2796   9.067   5.879   0.083 -1.1363  0.9586  0.4598
  762MOL0     C 2797   9.016   5.981  -0.026 -0.8358 -0.3916  0.6093
  762MOL0     C 2798   9.095   5.966  -0.158  0.3828  1.0211 -0.7489
  762MOL0     C 2799   9.036   6.031  -0.267 -0.2245 -0.4051 -0.2885
  762MOL0     C 2800   8.972   6.086  -0.357  0.0375  0.4557 -0.1348
  762MOL0     C 2801   8.868   5.805   0.459 -0.3629 -0.7232  0.4774
  762MOL0     C 2802   8.811   5.770   0.578  0.0325  0.1315 -0.0818
  762MOL0     H 2803   8.996   5.422   1.036  0.0043  0.1879 -0.7532
  762MOL0     H 2804   8.935   5.354   1.278  0.6105  1.1261 -1.1128
  762MOL0     H 2805   8.534   5.339   1.357 -2.5587  1.4208  3.7133
  762MOL0     H 2806   8.686   5.241   1.386  0.1004 -1.4493  2.1215
  762MOL0     H 2807   8.525   5.222   1.564  0.6430 -0.1824 -1.6855
  762MOL0     H 2808   8.683   5.298   1.609  3.3017  2.6940 -3.5922
  762MOL0     H 2809   8.614   5.503   1.628 -0.5678  0.6973 -2.1048
  762MOL0     H 2810   8.453   5.467   1.548 -0.2924  0.8482  0.8184
  762MOL0     H 2811   8.378   5.463   1.783 -0.7393 -0.6095 -0.6650
  762MOL0     H 2812   8.428   5.303   1.751  2.0902 -0.0512 -5.3788
  762MOL0     H 2813   8.660   5.373   1.839 -0.9436 -0.8264  0.4255
  762MOL0     H 2814   8.617   5.538   1.857  1.1529 -0.2239 -0.9148
  762MOL0     H 2815   8.400   5.422   2.000 -1.3336 -0.3680  0.2735
  762MOL0     H 2816   8.503   5.290   2.011  0.1887  0.3530 -2.1308
  762MOL0     H 2817   8.675   5.442   2.137  0.0515  1.6213 -0.3132
  762MOL0     H 2818   8.568   5.579   2.096  1.3028  0.8858 -0.2381
  762MOL0     H 2819   8.390   5.470   2.224 -0.0244  1.3826  0.8573
  762MOL0     H 2820   8.516   5.519   2.324  2.4232  2.0319 -2.0574
  762MOL0     H 2821   8.695   5.292   2.373 -0.5139  2.0432 -2.6427
  762MOL0     H 2822   8.607   4.914   2.432  0.6295 -0.0410 -1.6822
  762MOL0     H 2823   8.751   5.026   2.445  0.0899  0.2616  1.4256
  762MOL0     H 2824   8.520   5.013   2.632 -1.4365  1.1199  0.7445
  762MOL0     H 2825   8.661   5.113   2.656  1.5182 -0.9793 -0.9721
  762MOL0     H 2826   8.757   4.842   2.617 -0.8229 -0.3792 -1.9446
  762MOL0     H 2827   8.598   4.833   2.703  0.7476 -1.0009 -0.1847
  762MOL0     H 2828   8.678   4.969   2.884 -1.2249  0.1554 -1.1533
  762MOL0     H 2829   8.841   4.984   2.811  0.7150 -1.1871  1.8121
  762MOL0     H 2830   8.978   4.599   2.897 -2.9983 -1.2146  1.0214
  762MOL0     H 2831   9.217   4.495   3.133  1.0504 -3.4289 -0.9343
  762MOL0     H 2832   9.156   4.469   2.966 -0.6428  0.4907  1.8896
  762MOL0     H 2833   9.291   4.561   2.982 -0.6760 -0.5025 -2.3543
  762MOL0     H 2834   9.384   4.533   3.450  0.2951  0.9984 -1.0552
  762MOL0     H 2835   9.577   4.528   3.586 -0.7570  4.4053  2.8668
  762MOL0     H 2836   9.896   4.466   3.381 -0.4717  0.5448  1.3505
  762MOL0     H 2837   9.976   4.628   3.402 -0.0594 -0.9192 -1.3803
  762MOL0     H 2838  10.001   4.399   3.609 -0.1367 -0.2423  0.5990
  762MOL0     H 2839  10.125   4.437   3.482 -1.3725  1.7255 -1.1762
  762MOL0     H 2840  10.012   4.597   3.691  0.7553 -1.0732  1.9439
  762MOL0     H 2841  10.153   4.655   3.574  0.2527 -0.9268 -1.8475
  762MOL0     H 2842  10.224   4.593   3.812  1.2431 -1.7713  1.7309
  762MOL0     H 2843  10.153   4.435   3.794  2.8257 -1.5194 -0.0623
  762MOL0     H 2844  10.351   4.509   3.581  3.2745  0.6192  1.0930
  762MOL0     H 2845  10.334   4.356   3.664  0.1356 -0.3684  1.8185
  762MOL0     H 2846  10.425   4.591   3.820 -3.6106 -0.4848  0.1543
  762MOL0     H 2847  10.434   4.423   3.861  1.3291 -0.1953 -0.2484
  762MOL0     H 2848  10.564   4.470   3.607  0.3284 -2.0031 -0.8087
  762MOL0     H 2849  10.617   4.377   3.747  1.5107  1.1901  2.7805
  762MOL0     H 2850  10.771   4.569   3.705  0.4003  0.2465  0.6567
  762MOL0     H 2851  10.691   4.592   3.864  1.0982  0.3026 -0.0609
  762MOL0     H 2852   9.784   4.734   3.268 -1.1690 -1.2049 -2.8819
  762MOL0     H 2853   9.572   4.790   3.166 -0.1808  0.9243 -0.1774
  762MOL0     H 2854   9.102   4.974   3.174 -1.1261 -0.6773  0.5116
  762MOL0     H 2855   8.881   4.974   3.053 -1.9423 -2.3522 -0.7461
  762MOL0     H 2856   8.623   5.635   1.268  0.8681  1.0096  0.2069
  762MOL0     H 2857   8.643   5.664   1.018  1.4070  0.4369 -1.2141
  762MOL0     H 2858   9.018   5.533   0.684  0.0418  0.7303  0.2015
  762MOL0     H 2859   9.131   5.593   0.468  0.8140  0.5255 -1.8832
  762MOL0     H 2860   8.884   5.846   0.169  1.1814 -0.2148 -2.9102
  762MOL0     H 2861   8.987   5.962   0.262 -0.9672 -1.8726  5.3356
  762MOL0     H 2862   9.071   5.780   0.035  0.6236  0.6442  1.1789
  762MOL0     H 2863   9.169   5.910   0.107 -0.6590 -0.0865 -0.1278
  762MOL0     H 2864   9.026   6.083   0.012  0.2683 -0.9161  1.8095
  762MOL0     H 2865   8.909   5.962  -0.041 -0.5549 -3.4100  1.6079
  762MOL0     H 2866   9.113   5.861  -0.182  0.3814  0.8053  0.1813
  762MOL0     H 2867   9.197   6.002  -0.140  0.2317  1.6248 -1.0764
  762MOL0     H 2868   8.927   6.123  -0.447 -0.1079  0.9030  0.1168
  762MOL0     H 2869   8.827   5.880   0.392  0.7916  0.1341  0.6922
  762MOL0     H 2870   8.725   5.835   0.596  0.2590  0.0336  1.4553
  763MOL0     O 2871   4.522   3.766   6.715 -0.2223  0.1884 -0.5859
  763MOL0     C 2872   4.605   3.725   6.634 -0.1337  0.7517 -0.7744
  763MOL0     O 2873   4.587   3.618   6.545 -0.8180 -0.3586  0.3884
  763MOL0     C 2874   4.466   3.550   6.542  0.2026  0.1206  0.5407
  763MOL0     C 2875   4.354   3.628   6.512 -0.5475  0.3358 -0.4988
  763MOL0     C 2876   4.228   3.558   6.514  0.4284 -0.3167 -1.0929
  763MOL0     C 2877   4.222   3.424   6.534  0.7262  1.0061 -0.0777
  763MOL0     O 2878   4.102   3.356   6.550  0.5776 -0.6331 -0.1753
  763MOL0     C 2879   4.019   3.401   6.654 -0.9285  0.5640 -1.0085
  763MOL0     C 2880   3.890   3.312   6.657 -0.0973 -0.6569 -0.6846
  763MOL0     C 2881   3.755   3.386   6.692 -0.3498 -0.9590 -0.1742
  763MOL0     C 2882   3.648   3.280   6.700  0.0463  0.0062 -0.2192
  763MOL0     C 2883   3.505   3.322   6.661 -0.1444 -0.2627  0.0703
  763MOL0     C 2884   3.396   3.213   6.698  0.0676 -0.5457  0.1991
  763MOL0     C 2885   3.256   3.248   6.657  1.1216 -0.2933 -0.0654
  763MOL0     C 2886   3.204   3.388   6.675 -0.7684  0.0679  0.2453
  763MOL0     N 2887   3.082   3.385   6.612 -0.1719  0.0898  0.2978
  763MOL0     C 2888   2.976   3.300   6.612  0.2286  0.0465 -0.4684
  763MOL0     C 2889   2.878   3.356   6.532 -0.3903 -0.1165  0.3023
  763MOL0     C 2890   2.742   3.310   6.496 -0.5335  0.5484 -0.8848
  763MOL0     C 2891   2.638   3.369   6.584  0.1612 -0.2473  0.6255
  763MOL0     C 2892   2.508   3.283   6.598 -0.4191  0.3099 -0.3118
  763MOL0     C 2893   2.424   3.358   6.700  0.5993  0.6118  0.2284
  763MOL0     O 2894   2.472   3.337   6.830 -0.4069  0.6506  0.1533
  763MOL0     C 2895   2.440   3.411   6.937  0.2642 -0.0373  0.2669
  763MOL0     C 2896   2.486   3.364   7.057  0.4562  0.3833 -0.3281
  763MOL0     C 2897   2.456   3.433   7.173 -0.8125  0.5751  0.1117
  763MOL0     C 2898   2.514   3.374   7.304  0.9015  0.0407 -0.9262
  763MOL0     C 2899   2.385   3.554   7.177 -0.9569 -0.2429  0.2140
  763MOL0     C 2900   2.351   3.619   7.311  1.2514  0.2641 -0.2104
  763MOL0     O 2901   2.316   3.538   7.411 -0.6000  0.8378 -0.2923
  763MOL0     C 2902   2.291   3.585   7.539  0.2037 -0.0908  0.2114
  763MOL0     C 2903   2.363   3.682   7.605 -0.6168 -0.6899  0.2170
  763MOL0     C 2904   2.317   3.744   7.721  0.2633  0.0038  0.3464
  763MOL0     C 2905   2.204   3.695   7.784  0.5529  0.1856 -0.7239
  763MOL0     O 2906   2.166   3.752   7.903  0.0030  0.5783 -0.4928
  763MOL0     C 2907   2.039   3.817   7.895  0.1261  0.0288  0.3417
  763MOL0     C 2908   1.941   3.762   8.000 -0.1988  0.5505 -0.9267
  763MOL0     C 2909   1.820   3.848   8.008  0.4536  0.1563  0.6265
  763MOL0     C 2910   1.716   3.823   7.893 -0.2277  0.0039 -0.4540
  763MOL0     C 2911   1.597   3.909   7.913  0.5278 -0.6815 -0.1574
  763MOL0     C 2912   1.493   3.869   7.798 -1.6278  0.7578 -0.1658
  763MOL0     C 2913   1.549   3.838   7.654  1.0113  0.8507  0.2233
  763MOL0     C 2914   1.430   3.802   7.562  0.4104  0.3895  0.3306
  763MOL0    Cl 2915   1.340   3.643   7.598  0.5447  0.2514  0.3873
  763MOL0     C 2916   2.139   3.580   7.728 -0.8434  0.2048 -0.4010
  763MOL0     C 2917   2.188   3.517   7.610  0.2444 -0.3932 -0.0844
  763MOL0     O 2918   2.339   3.738   7.323 -0.2654 -1.2168 -0.0748
  763MOL0     C 2919   2.352   3.605   7.053  0.2302 -0.4816 -0.1571
  763MOL0     C 2920   2.376   3.542   6.930 -0.9836  0.2981  0.6162
  763MOL0     N 2921   2.934   3.477   6.482 -0.2649 -0.2677 -0.8737
  763MOL0     N 2922   3.049   3.491   6.534 -0.0506  0.0931 -0.1394
  763MOL0     C 2923   4.334   3.350   6.537  0.8151  0.2024 -0.1286
  763MOL0     C 2924   4.463   3.406   6.550 -1.1715  1.2119  0.6080
  763MOL0     C 2925   4.732   3.804   6.615 -1.4037  0.2113 -0.0422
  763MOL0     C 2926   4.851   3.745   6.558  0.3482 -0.2318  0.5807
  763MOL0     C 2927   4.959   3.816   6.531 -0.6444  0.9696 -0.5476
  763MOL0     C 2928   4.971   3.951   6.583 -0.3587 -0.4702  0.7416
  763MOL0     O 2929   5.091   4.017   6.584  0.1729 -0.6640 -0.0037
  763MOL0     C 2930   5.195   3.970   6.494 -0.4255 -0.7424  0.3197
  763MOL0     C 2931   5.320   4.052   6.520 -1.0399 -0.4692 -0.2132
  763MOL0     C 2932   5.318   4.203   6.496  0.4608  0.2720  1.3228
  763MOL0     C 2933   5.458   4.260   6.496 -0.5118  0.8361  0.6839
  763MOL0     C 2934   5.532   4.211   6.614 -1.8770 -0.3599 -0.2745
  763MOL0     C 2935   5.591   4.175   6.716 -0.6780 -0.3312  0.0433
  763MOL0     C 2936   4.864   4.012   6.651 -0.1540 -0.1733  0.5997
  763MOL0     C 2937   4.753   3.933   6.678 -0.5577  0.3516 -0.1168
  763MOL0     H 2938   4.364   3.733   6.486  1.3926 -0.2324 -2.3634
  763MOL0     H 2939   4.134   3.613   6.513 -0.4609 -1.7245  0.3369
  763MOL0     H 2940   4.084   3.403   6.742  0.5024  0.5315 -2.0283
  763MOL0     H 2941   3.978   3.500   6.631 -2.8201  0.3181  1.0294
  763MOL0     H 2942   3.885   3.264   6.559 -0.1420 -0.9098 -0.5603
  763MOL0     H 2943   3.909   3.246   6.743 -1.3462 -1.4350 -0.9723
  763MOL0     H 2944   3.756   3.444   6.785 -0.1138 -1.1394 -0.0650
  763MOL0     H 2945   3.724   3.460   6.617  1.7106 -0.5456 -0.6609
  763MOL0     H 2946   3.679   3.192   6.643  1.1148  0.7557 -0.8172
  763MOL0     H 2947   3.638   3.255   6.806 -0.2440  1.0134 -0.0035
  763MOL0     H 2948   3.495   3.421   6.707  0.1525  0.2812 -0.9869
  763MOL0     H 2949   3.520   3.336   6.553  0.9821  1.1893  0.3718
  763MOL0     H 2950   3.426   3.118   6.653 -0.9588 -0.9054  0.2503
  763MOL0     H 2951   3.384   3.186   6.804  0.8859 -0.0822  0.4159
  763MOL0     H 2952   3.253   3.225   6.551 -0.6177 -0.3661 -0.0390
  763MOL0     H 2953   3.191   3.165   6.689  1.5005 -1.2562 -1.6991
  763MOL0     H 2954   3.279   3.455   6.633  0.7124  1.4061  4.5109
  763MOL0     H 2955   3.183   3.423   6.777  1.9284 -0.6256  1.1282
  763MOL0     H 2956   2.964   3.205   6.663  0.9772  1.2628  2.1539
  763MOL0     H 2957   2.728   3.339   6.392 -2.0633  0.1758 -0.8068
  763MOL0     H 2958   2.746   3.200   6.494  1.1021  0.6018 -2.6704
  763MOL0     H 2959   2.607   3.464   6.540 -2.9658 -0.9741  1.0476
  763MOL0     H 2960   2.682   3.396   6.680  0.2250  1.5579  0.1261
  763MOL0     H 2961   2.541   3.188   6.640 -0.3221 -0.1496 -1.3828
  763MOL0     H 2962   2.456   3.268   6.503 -1.4658 -2.2581  0.5748
  763MOL0     H 2963   2.321   3.323   6.712  0.7371 -0.0432 -0.4001
  763MOL0     H 2964   2.417   3.465   6.675 -3.3667  1.1824  2.9089
  763MOL0     H 2965   2.544   3.274   7.070  1.2254  0.8735 -0.3091
  763MOL0     H 2966   2.588   3.297   7.282  1.4204  0.3632 -0.3424
  763MOL0     H 2967   2.562   3.448   7.368  0.0093 -0.0584 -0.1215
  763MOL0     H 2968   2.429   3.327   7.356  1.3925  0.0503 -0.0997
  763MOL0     H 2969   2.449   3.724   7.553 -0.9900 -0.6335 -0.3675
  763MOL0     H 2970   2.350   3.839   7.763 -1.0783  0.3779  0.6076
  763MOL0     H 2971   2.043   3.922   7.928 -1.1975 -0.4955  2.3406
  763MOL0     H 2972   1.988   3.810   7.799  1.2672 -0.3614 -0.2440
  763MOL0     H 2973   1.913   3.657   7.984 -0.4238 -0.3673  3.8962
  763MOL0     H 2974   1.995   3.762   8.095  0.2797  0.0192 -1.1915
  763MOL0     H 2975   1.841   3.955   8.004  0.9536  0.0323 -1.7660
  763MOL0     H 2976   1.749   3.830   8.090 -0.2366 -5.0128 -0.7323
  763MOL0     H 2977   1.765   3.835   7.796 -0.4739  1.5111 -0.4146
  763MOL0     H 2978   1.683   3.719   7.891  2.1869 -1.0407  3.1888
  763MOL0     H 2979   1.617   4.016   7.898 -0.5784 -0.5330 -0.6890
  763MOL0     H 2980   1.546   3.898   8.009 -0.3560  0.5772 -0.4477
  763MOL0     H 2981   1.437   3.782   7.834  0.0665  0.1608  1.1601
  763MOL0     H 2982   1.418   3.947   7.787 -1.5741  1.7490  4.4747
  763MOL0     H 2983   1.613   3.751   7.672  0.3559  0.2237 -0.3789
  763MOL0     H 2984   1.601   3.926   7.615  0.5304  1.0054 -0.0771
  763MOL0     H 2985   1.454   3.794   7.455 -0.9370 -1.2454  0.1178
  763MOL0     H 2986   1.351   3.877   7.564  3.1483  3.9424 -3.9708
  763MOL0     H 2987   2.053   3.531   7.773 -0.7850 -0.9930 -1.5530
  763MOL0     H 2988   2.138   3.429   7.572  0.4824 -1.6907  2.3912
  763MOL0     H 2989   2.295   3.697   7.050  1.1340  0.1117  0.4233
  763MOL0     H 2990   2.330   3.582   6.840 -0.0020 -0.7228 -0.3706
  763MOL0     H 2991   4.321   3.243   6.548 -1.4242  0.4519  0.1476
  763MOL0     H 2992   4.554   3.348   6.564 -1.1459  1.3312  0.9538
  763MOL0     H 2993   4.833   3.641   6.534 -1.7824  0.2589 -0.2267
  763MOL0     H 2994   5.045   3.758   6.499 -1.0086 -1.0842  1.8177
  763MOL0     H 2995   5.215   3.864   6.513 -2.8258 -1.2972  0.0765
  763MOL0     H 2996   5.170   3.969   6.388  0.7580 -2.4450  0.0120
  763MOL0     H 2997   5.405   3.999   6.477 -1.8168 -3.3619  1.5606
  763MOL0     H 2998   5.343   4.049   6.626  0.0817  3.1855 -0.1949
  763MOL0     H 2999   5.246   4.253   6.561  0.3663 -0.2970  1.6590
  763MOL0     H 3000   5.281   4.217   6.394  0.7031 -3.1688  0.6523
  763MOL0     H 3001   5.448   4.369   6.496 -1.9420  0.7212  0.2488
  763MOL0     H 3002   5.501   4.224   6.402 -0.0939 -0.0228  1.1860
  763MOL0     H 3003   5.630   4.131   6.806  1.8698  0.9499 -0.3514
  763MOL0     H 3004   4.891   4.108   6.692  1.6570  0.5097 -1.9550
  763MOL0     H 3005   4.676   3.985   6.735  0.8173  2.0564  0.2845
  764MOL0     O 3006   0.681   7.579   3.769  0.9260  0.4748 -0.0909
  764MOL0     C 3007   0.578   7.638   3.755  0.6405 -0.5495  0.1064
  764MOL0     O 3008   0.547   7.726   3.653 -0.7414  0.4139 -0.5100
  764MOL0     C 3009   0.632   7.763   3.551 -0.1496  0.4886 -0.5354
  764MOL0     C 3010   0.575   7.769   3.427  0.6738  0.4615 -1.6534
  764MOL0     C 3011   0.650   7.813   3.315 -0.2165 -0.8435  0.1815
  764MOL0     C 3012   0.778   7.866   3.329  0.6189 -0.4360 -0.5105
  764MOL0     O 3013   0.838   7.925   3.221 -0.5336  0.3819 -0.2818
  764MOL0     C 3014   0.937   8.020   3.253 -0.6603  0.3204 -0.2341
  764MOL0     C 3015   0.953   8.103   3.128 -0.0463  0.3129  1.4469
  764MOL0     C 3016   0.838   8.193   3.085 -0.4066  0.5828 -0.1276
  764MOL0     C 3017   0.888   8.293   2.984 -0.1465  0.7239 -0.9396
  764MOL0     C 3018   0.772   8.385   2.950 -0.6291  0.2206 -0.4464
  764MOL0     C 3019   0.657   8.307   2.879  0.2604  0.2186  0.8860
  764MOL0     C 3020   0.542   8.385   2.827 -0.1352  0.3338 -0.2819
  764MOL0     C 3021   0.478   8.300   2.709  0.0124 -0.0039 -1.2793
  764MOL0     N 3022   0.384   8.394   2.643  0.4160 -0.2470 -0.3370
  764MOL0     C 3023   0.262   8.437   2.693  1.2121  0.2845  0.5659
  764MOL0     C 3024   0.228   8.542   2.611  0.5107 -0.3128  0.7913
  764MOL0     C 3025   0.129   8.657   2.638 -0.2627 -0.3284 -0.3056
  764MOL0     C 3026   0.008   8.633   2.574  0.1206 -0.5360  0.5405
  764MOL0     C 3027  -0.087   8.761   2.556  0.1817 -0.5316 -0.1330
  764MOL0     C 3028  -0.222   8.723   2.504 -0.9634  0.2309  0.1267
  764MOL0     O 3029  -0.280   8.850   2.466  0.7393  0.0328 -0.0984
  764MOL0     C 3030  -0.410   8.857   2.423  0.4039  0.8522  0.3252
  764MOL0     C 3031  -0.449   8.975   2.355  0.2644 -0.5496  0.4273
  764MOL0     C 3032  -0.584   9.013   2.334 -0.0352 -0.9070  0.2557
  764MOL0     C 3033  -0.597   9.121   2.239  0.6339  0.8604 -0.5298
  764MOL0     C 3034  -0.684   8.921   2.371  0.7330  0.2199 -0.2864
  764MOL0     C 3035  -0.827   8.944   2.354  0.1748 -0.3978 -0.0099
  764MOL0     O 3036  -0.861   9.034   2.257  0.2991  0.3549  0.5239
  764MOL0     C 3037  -0.971   9.006   2.187 -0.2820 -0.3930 -1.0781
  764MOL0     C 3038  -0.961   8.960   2.061  0.6116  1.3751 -0.7163
  764MOL0     C 3039  -1.074   8.931   1.990 -0.4918  0.1775  0.5808
  764MOL0     C 3040  -1.203   8.965   2.041  0.0899 -0.7547  0.5264
  764MOL0     O 3041  -1.320   8.937   1.972 -0.8653 -0.0094 -0.4183
  764MOL0     C 3042  -1.340   9.001   1.845  1.0417  0.2728 -0.4619
  764MOL0     C 3043  -1.463   9.082   1.842  0.2006  0.1055  0.7517
  764MOL0     C 3044  -1.512   9.106   1.691  1.0156  0.0485 -1.0102
  764MOL0     C 3045  -1.636   9.009   1.666  0.6228 -0.2837  0.2584
  764MOL0     C 3046  -1.673   9.010   1.519  0.4784 -0.3862 -0.2916
  764MOL0     C 3047  -1.770   8.899   1.487  0.3936  0.3403 -0.1702
  764MOL0     C 3048  -1.807   8.903   1.340 -0.2431 -0.4780 -0.1326
  764MOL0     C 3049  -1.870   9.030   1.288 -0.6539 -0.1096 -0.1095
  764MOL0    Cl 3050  -1.953   8.989   1.122  0.1206 -0.2814 -0.2943
  764MOL0     C 3051  -1.213   9.011   2.170  0.6981 -0.3379  0.3074
  764MOL0     C 3052  -1.098   9.033   2.248 -0.0556 -0.4081 -0.3171
  764MOL0     O 3053  -0.910   8.890   2.425 -0.1540  0.4785 -0.1073
  764MOL0     C 3054  -0.649   8.810   2.447 -0.6117 -0.3844  0.1406
  764MOL0     C 3055  -0.515   8.771   2.465  0.0905 -0.4753 -0.7716
  764MOL0     N 3056   0.325   8.554   2.512  0.5295  0.4219 -0.2487
  764MOL0     N 3057   0.406   8.461   2.532  0.1216  0.1515  0.5062
  764MOL0     C 3058   0.832   7.855   3.458  0.3105  1.3157 -0.3431
  764MOL0     C 3059   0.765   7.805   3.571 -0.0561 -0.9822  0.4818
  764MOL0     C 3060   0.489   7.634   3.865 -0.3784 -0.0013 -0.5005
  764MOL0     C 3061   0.509   7.557   3.978 -0.2354 -0.1194 -0.2100
  764MOL0     C 3062   0.414   7.552   4.088 -0.3380 -0.7152  0.7688
  764MOL0     C 3063   0.292   7.633   4.087  0.3173 -0.5418 -0.2650
  764MOL0     O 3064   0.199   7.625   4.194 -0.2438 -0.5220  0.2578
  764MOL0     C 3065   0.074   7.698   4.180  0.6517  1.1929 -0.6115
  764MOL0     C 3066  -0.011   7.682   4.300 -0.7843  0.6554  0.3132
  764MOL0     C 3067  -0.001   7.810   4.381  0.6179 -0.1843 -0.6262
  764MOL0     C 3068  -0.074   7.794   4.515 -0.7383 -0.5484  0.3732
  764MOL0     C 3069  -0.021   7.895   4.607 -0.3714  0.5796  0.0769
  764MOL0     C 3070   0.010   7.977   4.692  0.0920 -0.7578 -0.3897
  764MOL0     C 3071   0.279   7.718   3.965  0.3787  0.9075 -0.6673
  764MOL0     C 3072   0.368   7.712   3.863  0.6143 -0.2108  0.7738
  764MOL0     H 3073   0.472   7.735   3.425  0.3103  0.1417  4.0373
  764MOL0     H 3074   0.608   7.802   3.215  0.4995  1.7862 -0.4913
  764MOL0     H 3075   0.915   8.090   3.333 -1.0449  1.2813 -1.1518
  764MOL0     H 3076   1.032   7.974   3.281  1.7807  4.0673 -1.5276
  764MOL0     H 3077   1.043   8.165   3.134  1.1391 -1.2455  0.5476
  764MOL0     H 3078   0.974   8.039   3.042 -2.9259  1.1049 -0.0031
  764MOL0     H 3079   0.770   8.122   3.038  0.9598  0.3435 -1.8191
  764MOL0     H 3080   0.795   8.235   3.177 -0.8740  1.1850 -0.6165
  764MOL0     H 3081   0.961   8.352   3.040 -0.1987 -1.5536  1.6999
  764MOL0     H 3082   0.933   8.245   2.896 -2.8657  0.1767 -2.1349
  764MOL0     H 3083   0.735   8.435   3.040  1.6113 -1.4650  1.5086
  764MOL0     H 3084   0.804   8.458   2.874 -0.5287 -1.2186 -1.8307
  764MOL0     H 3085   0.708   8.264   2.792 -2.2840 -1.3059  0.0301
  764MOL0     H 3086   0.617   8.232   2.948 -2.4094  1.5538  0.9262
  764MOL0     H 3087   0.468   8.415   2.902  0.7062 -1.2894  1.2514
  764MOL0     H 3088   0.580   8.477   2.782  1.1586  0.5170  1.1446
  764MOL0     H 3089   0.419   8.215   2.745  2.9101 -1.3156  0.7459
  764MOL0     H 3090   0.554   8.265   2.638  1.7659 -1.3364  1.1193
  764MOL0     H 3091   0.213   8.419   2.788 -0.8784  3.8530  0.3416
  764MOL0     H 3092   0.118   8.662   2.747 -0.5211 -0.0921 -0.3414
  764MOL0     H 3093   0.174   8.749   2.599  2.2823 -0.6197  1.6325
  764MOL0     H 3094  -0.050   8.559   2.631 -0.7240  0.4555  0.9883
  764MOL0     H 3095   0.036   8.605   2.472 -0.0229 -0.1431  0.3946
  764MOL0     H 3096  -0.032   8.823   2.484  0.4541  1.1157  1.4165
  764MOL0     H 3097  -0.104   8.829   2.640 -0.0072 -0.5569 -0.1514
  764MOL0     H 3098  -0.282   8.696   2.591 -0.4349  0.7272  0.6632
  764MOL0     H 3099  -0.218   8.646   2.427  3.7768 -0.9213  1.1756
  764MOL0     H 3100  -0.360   9.035   2.336  0.7773 -0.3054  3.1387
  764MOL0     H 3101  -0.669   9.194   2.275  0.1961 -0.0491  0.4751
  764MOL0     H 3102  -0.504   9.178   2.225 -0.4051  2.8023  0.1749
  764MOL0     H 3103  -0.610   9.088   2.135  4.0518  0.9978 -1.1302
  764MOL0     H 3104  -0.859   8.945   2.027  0.3205  0.9090 -1.3956
  764MOL0     H 3105  -1.062   8.885   1.893 -1.0584  2.0807 -0.4406
  764MOL0     H 3106  -1.249   9.043   1.803  0.6747 -1.1376 -2.8253
  764MOL0     H 3107  -1.355   8.915   1.778  1.6970 -2.1853  2.3332
  764MOL0     H 3108  -1.540   9.039   1.906 -0.6070  0.8323  0.2772
  764MOL0     H 3109  -1.435   9.183   1.872 -0.6188  0.9802 -1.2888
  764MOL0     H 3110  -1.429   9.086   1.623  2.1616  2.1752 -0.3190
  764MOL0     H 3111  -1.534   9.212   1.674  1.9152  0.3137 -0.5484
  764MOL0     H 3112  -1.607   8.905   1.683 -0.5792 -0.7704 -0.5533
  764MOL0     H 3113  -1.722   9.037   1.727 -0.9669  0.4141 -2.1179
  764MOL0     H 3114  -1.589   8.998   1.450 -1.6032 -0.0446 -3.0534
  764MOL0     H 3115  -1.713   9.110   1.500 -1.1399 -0.6738  1.3563
  764MOL0     H 3116  -1.737   8.796   1.506  0.7892  0.5813  0.4735
  764MOL0     H 3117  -1.860   8.905   1.548 -0.1654  1.1259 -1.0518
  764MOL0     H 3118  -1.886   8.827   1.338  0.5396 -1.5535  3.0117
  764MOL0     H 3119  -1.721   8.875   1.279  0.7015 -1.4699  1.5860
  764MOL0     H 3120  -1.795   9.106   1.261 -0.6730  1.2862  3.2759
  764MOL0     H 3121  -1.932   9.081   1.363  0.0108  1.3123 -0.4785
  764MOL0     H 3122  -1.313   9.038   2.204  0.8940  0.4437  0.2913
  764MOL0     H 3123  -1.099   9.078   2.347  1.0235  1.6442 -1.1734
  764MOL0     H 3124  -0.726   8.734   2.462 -2.8303  1.0984 -2.7818
  764MOL0     H 3125  -0.494   8.681   2.521 -0.3911 -1.2281 -1.7930
  764MOL0     H 3126   0.931   7.897   3.472  0.0206  1.6443  0.8421
  764MOL0     H 3127   0.802   7.813   3.673  1.7923  3.5255 -0.3473
  764MOL0     H 3128   0.608   7.513   3.982 -0.3473 -0.5571 -1.7959
  764MOL0     H 3129   0.426   7.484   4.172  2.0352 -2.8198 -1.0994
  764MOL0     H 3130   0.093   7.804   4.162  0.1478  1.2992 -0.5182
  764MOL0     H 3131   0.016   7.678   4.089 -0.5419  1.2385  0.1134
  764MOL0     H 3132   0.028   7.596   4.356  1.9635  0.8698 -1.0972
  764MOL0     H 3133  -0.115   7.660   4.276 -0.9115 -2.2152  2.8719
  764MOL0     H 3134  -0.065   7.887   4.337  0.7794 -0.0573 -0.6409
  764MOL0     H 3135   0.104   7.838   4.394  1.6987 -3.6496 -0.8983
  764MOL0     H 3136  -0.034   7.699   4.552  2.7937  0.7081  0.1566
  764MOL0     H 3137  -0.182   7.790   4.496 -0.4594 -0.5710 -1.2834
  764MOL0     H 3138   0.060   8.045   4.759  0.0446 -0.7435 -0.3690
  764MOL0     H 3139   0.192   7.783   3.958  1.5686  2.7816  0.8753
  764MOL0     H 3140   0.342   7.783   3.785 -1.5930  0.4950  2.0495
  765MOL0     O 3141   3.718   3.231  10.406 -0.4254 -0.9599  0.1456
  765MOL0     C 3142   3.712   3.186  10.523  0.2374 -0.4485 -0.3758
  765MOL0     O 3143   3.821   3.124  10.588  0.2308  1.1772 -0.9294
  765MOL0     C 3144   3.953   3.139  10.550  0.4294  0.5776 -0.2540
  765MOL0     C 3145   4.006   3.244  10.466  0.6844 -0.6154  0.6988
  765MOL0     C 3146   4.147   3.253  10.444  1.0956  0.2895  0.3210
  765MOL0     C 3147   4.232   3.145  10.484  0.2752 -0.6319  1.2187
  765MOL0     O 3148   4.364   3.168  10.455  0.5718 -0.2940  0.2717
  765MOL0     C 3149   4.447   3.064  10.509  0.0707 -0.2748  0.8339
  765MOL0     C 3150   4.594   3.098  10.462  0.1854 -0.2671 -0.2312
  765MOL0     C 3151   4.709   3.021  10.530 -0.1991 -0.2175  0.1020
  765MOL0     C 3152   4.659   2.891  10.593 -0.3162 -0.1774 -0.7873
  765MOL0     C 3153   4.776   2.803  10.628  0.5931 -0.2962 -0.4226
  765MOL0     C 3154   4.855   2.871  10.749  0.2298 -0.4193 -0.1932
  765MOL0     C 3155   4.958   2.771  10.818  0.1916  0.4523  0.4173
  765MOL0     C 3156   5.025   2.838  10.935 -0.4564 -0.3954  1.2518
  765MOL0     N 3157   5.110   2.747  11.010  0.1865  0.2968  0.3620
  765MOL0     C 3158   5.187   2.639  10.969 -1.0689  0.4295  0.2082
  765MOL0     C 3159   5.242   2.580  11.080  0.9215  0.4001  1.8410
  765MOL0     C 3160   5.314   2.449  11.099  0.3754  0.1058 -0.3324
  765MOL0     C 3161   5.444   2.435  11.020 -1.4862 -0.0577 -0.0647
  765MOL0     C 3162   5.544   2.548  11.040  0.3446  0.2312 -0.3952
  765MOL0     C 3163   5.593   2.568  11.179  0.4199 -0.3926  0.0640
  765MOL0     O 3164   5.692   2.672  11.193 -0.6258  0.2378  0.0038
  765MOL0     C 3165   5.763   2.693  11.304 -0.1358 -0.6577  0.2660
  765MOL0     C 3166   5.855   2.800  11.309  0.7067  0.5737  0.0954
  765MOL0     C 3167   5.914   2.842  11.424  0.2984 -0.0669  0.2235
  765MOL0     C 3168   6.015   2.958  11.417  1.2185 -0.4892 -0.5576
  765MOL0     C 3169   5.883   2.777  11.548 -0.9431  0.1643 -0.3340
  765MOL0     C 3170   5.947   2.808  11.681  1.7965  0.1049 -0.4949
  765MOL0     O 3171   5.955   2.702  11.759 -0.6641  0.6047  0.0144
  765MOL0     C 3172   6.042   2.702  11.871 -1.0404  0.3640 -0.3949
  765MOL0     C 3173   6.123   2.796  11.936  0.0186 -0.1927  0.3428
  765MOL0     C 3174   6.167   2.760  12.060  0.4364  0.2457 -0.4852
  765MOL0     C 3175   6.139   2.643  12.125 -0.0711 -0.0725  0.8233
  765MOL0     O 3176   6.206   2.627  12.245  0.4892  0.6124 -0.5133
  765MOL0     C 3177   6.140   2.530  12.337  0.6375 -0.1372 -0.6260
  765MOL0     C 3178   5.985   2.546  12.352  0.1329 -0.2971 -0.5136
  765MOL0     C 3179   5.908   2.428  12.398 -0.0932 -0.2269  0.0056
  765MOL0     C 3180   5.760   2.467  12.411  0.5068  0.2567  0.5600
  765MOL0     C 3181   5.685   2.355  12.490  0.9906 -0.5543  0.5018
  765MOL0     C 3182   5.705   2.366  12.640  0.8444 -1.1165 -0.5138
  765MOL0     C 3183   5.582   2.312  12.712  0.4184 -0.0225 -0.6597
  765MOL0     C 3184   5.606   2.307  12.861  0.3748 -1.0687 -0.0348
  765MOL0    Cl 3185   5.454   2.259  12.943  0.5619 -0.5117  0.2426
  765MOL0     C 3186   6.070   2.547  12.055 -0.1039  0.3794 -0.0009
  765MOL0     C 3187   6.016   2.581  11.933 -0.1324  0.2358  0.4499
  765MOL0     O 3188   5.966   2.927  11.712 -0.4971 -0.0813 -0.0660
  765MOL0     C 3189   5.793   2.669  11.546 -0.2411  0.0895 -0.2285
  765MOL0     C 3190   5.730   2.630  11.425 -0.6057 -0.5378  0.0853
  765MOL0     N 3191   5.195   2.645  11.187 -0.0065  0.1459  0.1439
  765MOL0     N 3192   5.115   2.741  11.144 -0.4217  0.1779  0.5946
  765MOL0     C 3193   4.177   3.049  10.569  0.7904 -0.6442  0.4124
  765MOL0     C 3194   4.045   3.048  10.599  0.4249 -0.0577 -0.1041
  765MOL0     C 3195   3.598   3.214  10.612 -0.8100  0.3493  0.6001
  765MOL0     C 3196   3.474   3.247  10.565 -0.6095 -0.2728  0.1323
  765MOL0     C 3197   3.366   3.295  10.642 -0.5840  0.2877  0.5990
  765MOL0     C 3198   3.384   3.319  10.775 -0.4150  0.3551  0.3728
  765MOL0     O 3199   3.277   3.369  10.837  0.6373  0.6246 -0.2087
  765MOL0     C 3200   3.279   3.398  10.980 -0.1105 -0.4722 -0.8385
  765MOL0     C 3201   3.168   3.484  11.030 -0.2204 -0.6022  0.3229
  765MOL0     C 3202   3.032   3.443  10.970 -0.0563  0.4409  0.2261
  765MOL0     C 3203   2.916   3.541  11.015  0.4685  0.5760 -0.2037
  765MOL0     C 3204   2.922   3.648  10.915 -0.2631 -0.1197  0.2249
  765MOL0     C 3205   2.932   3.742  10.835  0.4442 -0.0673  0.1884
  765MOL0     C 3206   3.510   3.278  10.829 -0.3185 -0.0639  0.6541
  765MOL0     C 3207   3.620   3.232  10.750  0.2117  0.5805 -0.5438
  765MOL0     H 3208   3.937   3.320  10.430 -1.1595 -1.9413  1.2633
  765MOL0     H 3209   4.199   3.336  10.397 -1.2405  0.8962 -1.4231
  765MOL0     H 3210   4.440   3.076  10.618  1.2082  0.8437  0.8039
  765MOL0     H 3211   4.415   2.971  10.461  0.1405  1.2008 -2.3482
  765MOL0     H 3212   4.600   3.094  10.352  0.9529  4.6706 -0.5860
  765MOL0     H 3213   4.601   3.203  10.488  3.9963  1.0246 -4.9426
  765MOL0     H 3214   4.785   2.999  10.455 -1.0737  0.6843 -1.0729
  765MOL0     H 3215   4.753   3.092  10.601 -2.8589 -0.2534  1.9128
  765MOL0     H 3216   4.612   2.921  10.687  1.5667  3.3299 -0.7857
  765MOL0     H 3217   4.593   2.831  10.530 -1.7789  0.2204  0.3248
  765MOL0     H 3218   4.723   2.709  10.648 -2.6658  1.6697  0.9302
  765MOL0     H 3219   4.842   2.792  10.541  0.5636 -2.0490 -0.2545
  765MOL0     H 3220   4.904   2.962  10.716  0.9449 -1.4353 -2.1058
  765MOL0     H 3221   4.782   2.900  10.826  0.8386 -0.4434  0.4068
  765MOL0     H 3222   4.901   2.689  10.863  0.6414  0.8337  1.7107
  765MOL0     H 3223   5.032   2.732  10.747 -1.8617  3.3392 -3.6743
  765MOL0     H 3224   4.950   2.879  11.003 -3.8371  1.8627 -3.2844
  765MOL0     H 3225   5.073   2.930  10.901 -0.6242 -0.9282 -0.5475
  765MOL0     H 3226   5.195   2.600  10.868 -1.5005  0.2222  0.2490
  765MOL0     H 3227   5.337   2.434  11.204 -1.0121  0.7185  0.0900
  765MOL0     H 3228   5.238   2.374  11.075  0.2507  0.7532 -2.1546
  765MOL0     H 3229   5.423   2.430  10.912 -1.6700 -2.3850  0.0333
  765MOL0     H 3230   5.499   2.349  11.058 -1.3033 -0.0286 -0.2569
  765MOL0     H 3231   5.497   2.643  11.012  1.2810  1.2833  1.4597
  765MOL0     H 3232   5.625   2.539  10.967 -0.5909 -0.0033 -1.4424
  765MOL0     H 3233   5.622   2.471  11.220  0.1095 -0.6353 -0.2831
  765MOL0     H 3234   5.516   2.608  11.247  2.2454  1.3297  1.2169
  765MOL0     H 3235   5.892   2.842  11.216 -0.7600 -0.3568 -0.9482
  765MOL0     H 3236   6.031   3.005  11.319 -1.0808  1.6680 -0.0098
  765MOL0     H 3237   5.970   3.037  11.479 -0.4346 -0.9001 -1.1828
  765MOL0     H 3238   6.109   2.935  11.468  1.8588  2.5304 -0.1835
  765MOL0     H 3239   6.142   2.888  11.881 -0.6778 -0.1851  0.0931
  765MOL0     H 3240   6.237   2.827  12.109  0.2779 -1.8619  2.8965
  765MOL0     H 3241   6.175   2.428  12.317 -0.9731 -1.1593  1.3735
  765MOL0     H 3242   6.179   2.550  12.437  1.3669 -0.1984 -0.8967
  765MOL0     H 3243   5.987   2.623  12.430  0.6950 -0.2572 -0.5667
  765MOL0     H 3244   5.932   2.595  12.269  2.0381  0.7220 -1.1917
  765MOL0     H 3245   5.950   2.401  12.495  2.4901 -3.7118 -1.8218
  765MOL0     H 3246   5.921   2.337  12.338 -1.9157 -0.3253 -0.2914
  765MOL0     H 3247   5.740   2.563  12.459 -0.7971 -0.3013  1.1912
  765MOL0     H 3248   5.716   2.476  12.311 -0.1988 -3.3237  0.4172
  765MOL0     H 3249   5.717   2.253  12.464 -1.1696 -0.7559 -1.6879
  765MOL0     H 3250   5.580   2.360  12.461  1.2654 -1.3691 -0.7318
  765MOL0     H 3251   5.799   2.322  12.674  0.2988 -1.6082  0.3954
  765MOL0     H 3252   5.705   2.475  12.653  0.6004 -0.8672 -2.3120
  765MOL0     H 3253   5.552   2.208  12.695  0.1938 -0.0194 -0.2969
  765MOL0     H 3254   5.495   2.377  12.695  2.1064  2.9833  1.2913
  765MOL0     H 3255   5.634   2.403  12.905 -0.5976 -0.3538 -0.9125
  765MOL0     H 3256   5.689   2.239  12.880  2.9889  1.8984 -0.0622
  765MOL0     H 3257   6.048   2.452  12.103  1.4469 -1.0556 -1.9205
  765MOL0     H 3258   5.954   2.506  11.884  1.5368 -0.9818  0.0992
  765MOL0     H 3259   5.764   2.620  11.639  2.0987  2.1865  1.7612
  765MOL0     H 3260   5.661   2.548  11.439  1.0387 -1.4188  5.0839
  765MOL0     H 3261   4.237   2.971  10.615  4.8463  0.9362 -1.6860
  765MOL0     H 3262   4.001   2.969  10.659  1.2092 -1.9043 -1.8013
  765MOL0     H 3263   3.450   3.240  10.460  3.0649 -0.5046 -0.7936
  765MOL0     H 3264   3.271   3.337  10.610 -0.9504  0.5197  1.9500
  765MOL0     H 3265   3.250   3.305  11.029 -0.4140  1.2087  2.4010
  765MOL0     H 3266   3.377   3.435  11.012 -1.1315  0.7960  0.9733
  765MOL0     H 3267   3.187   3.585  10.992 -0.2225 -0.5880  0.3596
  765MOL0     H 3268   3.161   3.473  11.139  1.0736  1.9825  0.7430
  765MOL0     H 3269   3.005   3.344  11.009  0.4320 -0.3433 -1.3478
  765MOL0     H 3270   3.045   3.426  10.863  0.5293 -2.4009  0.6539
  765MOL0     H 3271   2.923   3.573  11.120  5.3235  2.4663 -0.8368
  765MOL0     H 3272   2.820   3.492  10.998 -0.6576  2.4188  0.5593
  765MOL0     H 3273   2.953   3.813  10.757  0.5498 -1.2808 -0.9147
  765MOL0     H 3274   3.510   3.290  10.937 -0.4159  3.7754  0.3369
  765MOL0     H 3275   3.713   3.208  10.801  0.8953  0.7475 -1.6697
  766MOL0     O 3276   9.174  10.680   9.488 -0.7750  0.8582 -0.8730
  766MOL0     C 3277   9.187  10.630   9.376 -0.6572 -0.0802  0.1431
  766MOL0     O 3278   9.231  10.700   9.263  0.3962 -0.0496 -0.3295
  766MOL0     C 3279   9.276  10.829   9.279 -0.0976  0.1922 -0.1369
  766MOL0     C 3280   9.406  10.842   9.243  0.0026 -0.2359 -0.2626
  766MOL0     C 3281   9.454  10.968   9.252 -0.6464  0.0475  0.2204
  766MOL0     C 3282   9.388  11.078   9.285  0.5691  0.7222  0.6339
  766MOL0     O 3283   9.460  11.193   9.277  0.2122 -0.0483  0.1472
  766MOL0     C 3284   9.396  11.314   9.233  0.5022 -0.0732 -0.8131
  766MOL0     C 3285   9.456  11.443   9.292 -0.4985  0.4723  0.4073
  766MOL0     C 3286   9.612  11.458   9.266  0.2950  0.7518 -1.0995
  766MOL0     C 3287   9.652  11.604   9.249 -0.2733 -0.2932 -0.6698
  766MOL0     C 3288   9.804  11.628   9.231 -0.0715 -0.2111  0.2298
  766MOL0     C 3289   9.826  11.771   9.266  0.1268 -0.0673 -1.1690
  766MOL0     C 3290   9.975  11.810   9.256 -0.1225 -0.3119 -0.4503
  766MOL0     C 3291  10.028  11.918   9.348 -0.2907 -0.3496 -0.3201
  766MOL0     N 3292  10.006  12.049   9.299 -0.0075  0.4910  0.1378
  766MOL0     C 3293  10.081  12.164   9.304 -0.0351  0.2571 -0.6104
  766MOL0     C 3294   9.994  12.260   9.255 -0.1713  0.0533 -0.5311
  766MOL0     C 3295  10.003  12.410   9.234 -0.3395  0.1427 -0.7050
  766MOL0     C 3296  10.043  12.421   9.087  0.5265 -1.5004  0.2367
  766MOL0     C 3297  10.081  12.565   9.045 -0.1872  0.4670 -0.2907
  766MOL0     C 3298  10.199  12.626   9.122  1.1312 -0.0620  0.7161
  766MOL0     O 3299  10.235  12.760   9.082 -0.6265 -0.4818  0.6377
  766MOL0     C 3300  10.310  12.791   8.967 -0.3464  0.1147  0.5227
  766MOL0     C 3301  10.322  12.924   8.935 -0.2856 -0.4075  0.1766
  766MOL0     C 3302  10.395  12.978   8.832 -0.4735  0.7937  1.1449
  766MOL0     C 3303  10.403  13.126   8.830  0.8644  0.8132  0.1589
  766MOL0     C 3304  10.462  12.894   8.750 -0.3027  0.3235  0.2348
  766MOL0     C 3305  10.542  12.935   8.629 -0.9695 -0.2910  0.2570
  766MOL0     O 3306  10.632  12.841   8.582 -0.1492  0.2181  0.8114
  766MOL0     C 3307  10.717  12.858   8.477  0.7020  0.2568 -1.1941
  766MOL0     C 3308  10.689  12.940   8.358 -0.0130 -0.8377 -0.2928
  766MOL0     C 3309  10.777  12.945   8.249 -0.1016  0.3213 -0.3452
  766MOL0     C 3310  10.897  12.871   8.252  0.5470 -0.5274 -0.8794
  766MOL0     O 3311  10.979  12.880   8.140 -0.5130 -0.5550 -0.2816
  766MOL0     C 3312  11.124  12.862   8.130 -0.4151 -0.1112 -0.6911
  766MOL0     C 3313  11.165  12.830   7.993  0.0872 -1.0276  0.4393
  766MOL0     C 3314  11.134  12.936   7.886  0.1530 -0.5804  0.7563
  766MOL0     C 3315  11.176  13.073   7.927 -0.3851  0.5639  0.8817
  766MOL0     C 3316  11.163  13.185   7.821  0.0467  1.1043  0.3667
  766MOL0     C 3317  11.029  13.257   7.812 -0.0641  0.2817  0.4103
  766MOL0     C 3318  11.045  13.381   7.716 -0.5248 -0.2879  0.2551
  766MOL0     C 3319  11.076  13.344   7.569  0.2194  0.0581  0.8580
  766MOL0    Cl 3320  10.949  13.230   7.491 -0.5074 -0.2973 -0.2552
  766MOL0     C 3321  10.930  12.800   8.369 -0.1704  0.2316 -1.4796
  766MOL0     C 3322  10.840  12.786   8.478  0.0871  0.7861 -0.2482
  766MOL0     O 3323  10.534  13.052   8.581 -0.9490 -0.9692 -1.1034
  766MOL0     C 3324  10.452  12.752   8.768  0.1404 -0.2281 -0.4061
  766MOL0     C 3325  10.389  12.708   8.883  0.3427  0.4823  0.0913
  766MOL0     N 3326   9.873  12.203   9.222  0.8694  0.0945 -0.0918
  766MOL0     N 3327   9.880  12.079   9.259  0.6138  0.4310 -0.4316
  766MOL0     C 3328   9.252  11.067   9.325  0.7124 -0.1858  0.4608
  766MOL0     C 3329   9.190  10.937   9.316 -0.1003 -0.3133  0.5255
  766MOL0     C 3330   9.167  10.485   9.358 -0.2686 -0.6804  0.1090
  766MOL0     C 3331   9.179  10.417   9.237 -0.1198 -0.2436  0.2773
  766MOL0     C 3332   9.149  10.281   9.234  0.6312  0.4410  0.0767
  766MOL0     C 3333   9.109  10.215   9.351 -1.1368  0.1523 -0.2862
  766MOL0     O 3334   9.071  10.083   9.346 -0.0149 -0.0329 -0.3248
  766MOL0     C 3335   8.939  10.073   9.283 -0.2891 -0.6549 -0.1286
  766MOL0     C 3336   8.876   9.935   9.303  0.5386 -0.9944 -0.5975
  766MOL0     C 3337   8.966   9.823   9.248 -0.2338 -0.5634 -0.4698
  766MOL0     C 3338   9.064   9.771   9.352 -0.0753 -0.3927  0.9087
  766MOL0     C 3339   9.112   9.642   9.309  0.0163  0.3759 -0.0159
  766MOL0     C 3340   9.146   9.536   9.266  0.2128 -1.1810 -0.3139
  766MOL0     C 3341   9.109  10.285   9.468 -0.8909  0.5589 -0.3920
  766MOL0     C 3342   9.123  10.416   9.472  0.6216 -0.1060 -0.2552
  766MOL0     H 3343   9.463  10.757   9.209  1.0515  0.1703  0.4264
  766MOL0     H 3344   9.552  10.993   9.212 -0.2943  2.8419  2.4520
  766MOL0     H 3345   9.410  11.318   9.124 -1.0665 -0.3304 -1.0429
  766MOL0     H 3346   9.288  11.318   9.248  0.2869 -0.9314 -1.9614
  766MOL0     H 3347   9.408  11.530   9.245 -0.6576  0.3632  0.3695
  766MOL0     H 3348   9.432  11.446   9.398  2.7711  1.6055  1.2192
  766MOL0     H 3349   9.676  11.425   9.349  2.4521  0.7659 -2.6666
  766MOL0     H 3350   9.636  11.403   9.174 -4.1287 -4.0108  0.1126
  766MOL0     H 3351   9.597  11.643   9.162  1.6270  3.0627 -0.5293
  766MOL0     H 3352   9.624  11.661   9.338  1.0697  1.6334 -1.4101
  766MOL0     H 3353   9.847  11.551   9.295 -0.1463 -2.6798 -2.4607
  766MOL0     H 3354   9.830  11.613   9.126  2.4648  3.4096  0.1381
  766MOL0     H 3355   9.764  11.846   9.216 -0.4472  1.1018  1.1720
  766MOL0     H 3356   9.795  11.788   9.369 -0.3061  4.2122 -1.8275
  766MOL0     H 3357  10.038  11.723   9.280 -0.7995 -1.0450 -1.2825
  766MOL0     H 3358  10.007  11.839   9.155  3.8527  0.7594  0.8978
  766MOL0     H 3359  10.133  11.889   9.363 -0.8512 -1.7584  1.0755
  766MOL0     H 3360   9.983  11.909   9.447 -0.5239 -2.2267 -0.5663
  766MOL0     H 3361  10.183  12.179   9.339  0.3596 -0.2671 -1.4911
  766MOL0     H 3362   9.916  12.474   9.253  1.1831  2.1967 -0.3098
  766MOL0     H 3363  10.075  12.437   9.312  0.0489 -1.7098 -0.3880
  766MOL0     H 3364   9.960  12.379   9.030 -1.2086  1.0167  0.7403
  766MOL0     H 3365  10.125  12.353   9.060  1.4664 -0.3582  0.1135
  766MOL0     H 3366   9.989  12.620   9.066 -0.2233 -0.3970  2.0961
  766MOL0     H 3367  10.093  12.571   8.936 -1.5732  4.6801 -0.3946
  766MOL0     H 3368  10.292  12.569   9.108  0.2676 -1.0243 -1.5187
  766MOL0     H 3369  10.181  12.624   9.230  0.3216 -1.0104  0.5755
  766MOL0     H 3370  10.264  12.988   9.001 -1.9502 -1.4515 -0.1949
  766MOL0     H 3371  10.393  13.162   8.727  0.2611 -0.4840 -0.2532
  766MOL0     H 3372  10.305  13.161   8.864 -0.7016 -1.5336 -1.6415
  766MOL0     H 3373  10.490  13.175   8.874 -0.0981  3.3609 -0.5433
  766MOL0     H 3374  10.605  13.009   8.358 -0.6339 -1.5874 -0.1911
  766MOL0     H 3375  10.751  13.000   8.159  1.5623 -1.9529 -2.3579
  766MOL0     H 3376  11.180  12.947   8.170 -0.1281 -2.0518  3.6189
  766MOL0     H 3377  11.161  12.791   8.205 -4.4779  0.8951  2.6651
  766MOL0     H 3378  11.271  12.802   7.994 -0.2602 -2.5272 -0.8393
  766MOL0     H 3379  11.116  12.738   7.962  2.7596 -1.7873 -1.9711
  766MOL0     H 3380  11.026  12.928   7.866  0.5636 -1.0308 -1.5394
  766MOL0     H 3381  11.161  12.912   7.783  0.0249 -0.6967  0.7493
  766MOL0     H 3382  11.136  13.113   8.020 -2.6093  1.1438 -0.2510
  766MOL0     H 3383  11.282  13.054   7.946 -0.6603 -0.2491  1.6487
  766MOL0     H 3384  11.204  13.137   7.732 -0.5574  0.0250  0.6484
  766MOL0     H 3385  11.241  13.256   7.849  2.3847 -1.1907  0.0190
  766MOL0     H 3386  10.960  13.184   7.768  1.0133 -0.0275 -0.8262
  766MOL0     H 3387  11.002  13.293   7.912  0.8386 -0.6427  1.0100
  766MOL0     H 3388  11.127  13.444   7.754  1.5677 -0.2140 -3.8591
  766MOL0     H 3389  10.951  13.436   7.720 -0.8174 -0.5492 -1.8440
  766MOL0     H 3390  11.177  13.303   7.564  0.4918  0.6409 -4.7685
  766MOL0     H 3391  11.097  13.429   7.505  3.5696 -0.4142  1.1409
  766MOL0     H 3392  11.031  12.761   8.382  0.1892  1.7171  0.7673
  766MOL0     H 3393  10.850  12.727   8.568 -0.1905  0.9917 -0.0813
  766MOL0     H 3394  10.511  12.693   8.699 -2.8917 -1.7596 -1.8927
  766MOL0     H 3395  10.398  12.601   8.904  1.1902  1.0255  2.8722
  766MOL0     H 3396   9.192  11.152   9.355 -1.0367 -1.3361  0.3857
  766MOL0     H 3397   9.084  10.934   9.338  0.0123 -0.4478  1.0639
  766MOL0     H 3398   9.220  10.468   9.151 -2.3809 -0.0079 -0.7260
  766MOL0     H 3399   9.147  10.228   9.139 -0.6384 -0.5830  0.6354
  766MOL0     H 3400   8.874  10.140   9.339  1.1383 -0.2724  1.1537
  766MOL0     H 3401   8.941  10.099   9.177 -0.9284 -1.6500 -0.3973
  766MOL0     H 3402   8.779   9.953   9.255  0.3635  3.5602  0.9462
  766MOL0     H 3403   8.852   9.931   9.410 -0.1060  1.2488 -0.5959
  766MOL0     H 3404   9.026   9.861   9.165  1.0526  0.9246  1.0921
  766MOL0     H 3405   8.901   9.743   9.209  0.4524 -0.9611 -0.8153
  766MOL0     H 3406   9.014   9.772   9.449 -0.7980 -0.1044  0.5392
  766MOL0     H 3407   9.153   9.834   9.358  1.4237 -2.3694  0.5935
  766MOL0     H 3408   9.185   9.457   9.206 -1.7345 -1.1807 -1.6643
  766MOL0     H 3409   9.087  10.241   9.565  1.2690  0.6292  0.1840
  766MOL0     H 3410   9.116  10.447   9.575  3.7001 -2.5840  0.8684
  767MOL0     O 3411  10.046   1.326   4.995 -0.5156  0.2138  0.4417
  767MOL0     C 3412  10.162   1.348   4.953  0.5875 -0.4971 -0.0450
  767MOL0     O 3413  10.275   1.275   4.968  0.2330  0.2582 -0.5858
  767MOL0     C 3414  10.273   1.146   5.030 -0.5369  1.2004 -0.1282
  767MOL0     C 3415  10.160   1.057   5.039 -0.3189 -0.1952 -0.4345
  767MOL0     C 3416  10.152   0.948   5.121 -0.1751 -0.8677 -1.2165
  767MOL0     C 3417  10.276   0.908   5.182 -0.1137 -0.0411 -0.0003
  767MOL0     O 3418  10.284   0.798   5.264  0.4502 -0.2670  0.1808
  767MOL0     C 3419  10.350   0.812   5.385  0.2146 -0.5690 -0.2159
  767MOL0     C 3420  10.335   0.669   5.436  0.0296 -0.1487  0.5172
  767MOL0     C 3421  10.396   0.649   5.572  0.4175  0.4325 -0.9546
  767MOL0     C 3422  10.537   0.590   5.553  0.2675  0.0786 -0.2007
  767MOL0     C 3423  10.584   0.547   5.689  1.2403 -0.1373 -0.3309
  767MOL0     C 3424  10.737   0.518   5.707  0.1407  0.7751 -0.4982
  767MOL0     C 3425  10.795   0.384   5.626  0.5365 -0.4766 -0.0178
  767MOL0     C 3426  10.948   0.360   5.650 -0.2813 -0.0992 -0.0905
  767MOL0     N 3427  10.997   0.257   5.561 -0.1521  0.6574  0.2422
  767MOL0     C 3428  11.123   0.253   5.501  0.5918  0.3233  0.3266
  767MOL0     C 3429  11.121   0.148   5.421  0.7301 -0.2224  0.1819
  767MOL0     C 3430  11.224   0.106   5.320 -0.0328  0.1727  0.3606
  767MOL0     C 3431  11.293  -0.025   5.358 -0.3439 -0.7287  0.0472
  767MOL0     C 3432  11.377  -0.012   5.480 -0.9867  0.1699 -0.0944
  767MOL0     C 3433  11.518   0.049   5.467  0.7513 -0.3364 -1.4752
  767MOL0     O 3434  11.555   0.117   5.587 -0.1521 -0.3903 -0.0142
  767MOL0     C 3435  11.581   0.020   5.680  0.7777 -0.3484 -0.2503
  767MOL0     C 3436  11.707  -0.035   5.683 -0.7145 -0.2286 -0.8012
  767MOL0     C 3437  11.744  -0.125   5.786 -0.3459 -0.6547  0.0132
  767MOL0     C 3438  11.885  -0.186   5.773  0.2790  0.1955  0.1558
  767MOL0     C 3439  11.650  -0.179   5.874  0.5305  0.0787 -0.3807
  767MOL0     C 3440  11.670  -0.286   5.977 -0.0692 -0.1139  0.0123
  767MOL0     O 3441  11.571  -0.370   6.012 -0.0467  0.4405  0.1502
  767MOL0     C 3442  11.593  -0.472   6.099  0.5238 -0.0723 -0.0426
  767MOL0     C 3443  11.694  -0.568   6.075 -0.1205 -1.3394  0.6048
  767MOL0     C 3444  11.732  -0.668   6.176 -0.2670 -0.3320 -0.5718
  767MOL0     C 3445  11.659  -0.666   6.301  0.3624 -1.1443 -0.0570
  767MOL0     O 3446  11.654  -0.745   6.412 -0.3769 -0.3953 -0.6399
  767MOL0     C 3447  11.767  -0.820   6.454 -0.2572  0.8687 -0.4238
  767MOL0     C 3448  11.750  -0.835   6.607  0.1021 -0.4419  0.6345
  767MOL0     C 3449  11.875  -0.880   6.688  0.6729 -0.1823 -0.0700
  767MOL0     C 3450  11.831  -0.923   6.834 -0.3189 -0.1852  0.7494
  767MOL0     C 3451  11.938  -0.994   6.908 -0.2499 -0.1828  0.5203
  767MOL0     C 3452  11.897  -1.051   7.042 -0.4692  0.8222  0.8583
  767MOL0     C 3453  11.763  -1.120   7.056  0.6488  0.0694  0.0433
  767MOL0     C 3454  11.754  -1.169   7.204 -0.1526 -0.3215  0.7283
  767MOL0    Cl 3455  11.591  -1.251   7.229 -0.0957  0.7815 -0.2901
  767MOL0     C 3456  11.553  -0.575   6.310  0.6202  0.4718 -1.1660
  767MOL0     C 3457  11.520  -0.482   6.222 -0.7106  0.9145  0.6480
  767MOL0     O 3458  11.787  -0.297   6.015 -0.7333  0.3215 -0.2665
  767MOL0     C 3459  11.521  -0.116   5.872  0.0367  0.1219  0.3981
  767MOL0     C 3460  11.487  -0.019   5.779  0.7458  0.6240  0.0203
  767MOL0     N 3461  10.997   0.089   5.430 -0.5311  1.0855 -0.5471
  767MOL0     N 3462  10.920   0.158   5.502 -0.1265 -0.0243 -1.2823
  767MOL0     C 3463  10.393   0.986   5.159 -0.8064 -0.6732 -0.4850
  767MOL0     C 3464  10.391   1.111   5.090  1.1316 -0.0744 -0.5800
  767MOL0     C 3465  10.163   1.457   4.849 -1.4806 -0.4442 -0.5314
  767MOL0     C 3466  10.053   1.459   4.755 -0.1392 -0.3426  0.0804
  767MOL0     C 3467  10.059   1.549   4.652  0.5277 -0.1918 -0.1274
  767MOL0     C 3468  10.172   1.641   4.629  0.6970  0.2321  0.4429
  767MOL0     O 3469  10.163   1.736   4.525 -0.1552  0.2069 -0.5967
  767MOL0     C 3470  10.086   1.854   4.570 -0.1646 -0.8592  0.8621
  767MOL0     C 3471  10.163   1.941   4.670 -1.1268 -0.3527  0.0691
  767MOL0     C 3472  10.295   1.993   4.616  0.0304  0.0618  0.4051
  767MOL0     C 3473  10.290   2.096   4.495  0.3797 -0.2524  0.1408
  767MOL0     C 3474  10.229   2.226   4.527 -0.0295 -0.0719 -0.5740
  767MOL0     C 3475  10.210   2.337   4.572 -0.1103 -0.3745  0.9260
  767MOL0     C 3476  10.279   1.625   4.719  0.1171  0.1791  0.0921
  767MOL0     C 3477  10.276   1.543   4.830  1.1093 -0.0979 -0.1677
  767MOL0     H 3478  10.066   1.091   4.996 -0.8593 -0.4735  0.5264
  767MOL0     H 3479  10.062   0.889   5.138 -0.3482 -0.2053  0.3707
  767MOL0     H 3480  10.459   0.816   5.371  0.3645  2.2543  1.0886
  767MOL0     H 3481  10.334   0.900   5.447  1.0925 -2.8562  3.5532
  767MOL0     H 3482  10.228   0.646   5.439  0.4032 -2.0587  0.4590
  767MOL0     H 3483  10.391   0.609   5.364  0.3664  1.0888 -0.2890
  767MOL0     H 3484  10.395   0.740   5.633  0.9722  2.0781 -3.2849
  767MOL0     H 3485  10.331   0.576   5.622  0.0836  1.3925  0.0735
  767MOL0     H 3486  10.533   0.506   5.483  4.1691 -1.0606  0.7007
  767MOL0     H 3487  10.613   0.659   5.516  1.0226 -0.0276  1.0975
  767MOL0     H 3488  10.556   0.625   5.761 -0.6628  1.4209 -2.5936
  767MOL0     H 3489  10.529   0.456   5.715 -1.6181  0.6724 -3.0115
  767MOL0     H 3490  10.788   0.606   5.668  1.3907  1.1427  1.7642
  767MOL0     H 3491  10.761   0.511   5.814  1.2736  2.1665 -0.6303
  767MOL0     H 3492  10.748   0.293   5.664 -0.0301 -0.6759 -1.1543
  767MOL0     H 3493  10.753   0.397   5.526 -0.9830  5.7194  1.0409
  767MOL0     H 3494  10.958   0.339   5.757 -1.6794  0.1347  0.1144
  767MOL0     H 3495  11.001   0.453   5.627 -1.3404  0.0174 -2.2635
  767MOL0     H 3496  11.205   0.324   5.507  1.0490 -0.1602 -0.1376
  767MOL0     H 3497  11.185   0.097   5.218  0.0596 -2.7556  0.4857
  767MOL0     H 3498  11.295   0.189   5.314 -0.6785  0.7528  0.5679
  767MOL0     H 3499  11.357  -0.039   5.271 -0.4405  1.5166 -0.4528
  767MOL0     H 3500  11.223  -0.109   5.366  2.0307 -2.8666 -0.2521
  767MOL0     H 3501  11.387  -0.114   5.518 -0.1004  0.2565 -0.0684
  767MOL0     H 3502  11.322   0.050   5.552  0.6448 -0.7496  2.0691
  767MOL0     H 3503  11.524   0.127   5.391 -0.8185  0.4378 -0.8433
  767MOL0     H 3504  11.598  -0.023   5.448  1.2807 -0.0386 -0.4417
  767MOL0     H 3505  11.788   0.004   5.622 -0.1605  0.9387  0.6203
  767MOL0     H 3506  11.880  -0.293   5.790 -1.6689  0.4462  1.4126
  767MOL0     H 3507  11.927  -0.158   5.676  0.9831  1.2898  0.7500
  767MOL0     H 3508  11.946  -0.150   5.856  1.4483  0.0978 -0.6351
  767MOL0     H 3509  11.759  -0.552   5.989 -1.5692 -0.9821 -0.4621
  767MOL0     H 3510  11.810  -0.735   6.140  0.5741  0.1620  0.2876
  767MOL0     H 3511  11.763  -0.920   6.411 -0.2812  0.6177  0.1490
  767MOL0     H 3512  11.868  -0.778   6.442  0.5914  0.0657  2.7195
  767MOL0     H 3513  11.730  -0.734   6.644 -0.8199 -0.9589  1.5938
  767MOL0     H 3514  11.666  -0.901   6.632 -0.8396  0.4870  0.0055
  767MOL0     H 3515  11.947  -0.798   6.692  1.4706 -0.8233 -0.8738
  767MOL0     H 3516  11.923  -0.971   6.650 -0.2720 -0.3231 -0.9737
  767MOL0     H 3517  11.806  -0.834   6.893  2.8772  1.3354  0.0502
  767MOL0     H 3518  11.744  -0.988   6.823 -0.9562  0.3455  2.4076
  767MOL0     H 3519  12.025  -0.930   6.927 -0.2502  0.7594 -2.2856
  767MOL0     H 3520  11.973  -1.066   6.833  3.5367  2.0658 -0.1216
  767MOL0     H 3521  11.974  -1.112   7.090 -0.9285 -0.9136 -0.5194
  767MOL0     H 3522  11.889  -0.962   7.105  1.3943  1.6123  0.0480
  767MOL0     H 3523  11.761  -1.210   6.993 -2.0140 -1.1524  1.6665
  767MOL0     H 3524  11.673  -1.058   7.049 -0.3310 -1.2520  0.3203
  767MOL0     H 3525  11.764  -1.089   7.278 -2.1122 -0.0954  0.7977
  767MOL0     H 3526  11.827  -1.250   7.216  2.5887  1.7261 -0.8483
  767MOL0     H 3527  11.505  -0.582   6.407 -0.3332 -2.4547 -1.7293
  767MOL0     H 3528  11.443  -0.405   6.227  0.4873  2.1095  1.3843
  767MOL0     H 3529  11.447  -0.145   5.945 -1.8273 -0.3789 -1.5860
  767MOL0     H 3530  11.394   0.037   5.783  0.4042  0.0280  0.4914
  767MOL0     H 3531  10.489   0.947   5.192  1.0431  3.7593  0.0679
  767MOL0     H 3532  10.477   1.176   5.096  0.5771  0.5328  2.0549
  767MOL0     H 3533   9.962   1.400   4.764 -1.3163  1.5762  2.0635
  767MOL0     H 3534   9.975   1.555   4.584 -0.2791 -0.0854  0.8575
  767MOL0     H 3535  10.058   1.917   4.486  3.1956  1.5021  1.3136
  767MOL0     H 3536   9.988   1.827   4.611 -1.7714  0.6386 -1.7359
  767MOL0     H 3537  10.184   1.885   4.761  1.4744 -0.3614 -0.4495
  767MOL0     H 3538  10.109   2.028   4.710  1.8671  1.4102  0.5723
  767MOL0     H 3539  10.344   1.905   4.574  0.5013  0.2966  0.4539
  767MOL0     H 3540  10.356   2.040   4.693 -1.8970  1.1974  1.3189
  767MOL0     H 3541  10.238   2.049   4.411 -0.9924 -0.0817  0.8782
  767MOL0     H 3542  10.395   2.121   4.474  0.4314  1.5742  2.2042
  767MOL0     H 3543  10.197   2.430   4.624  1.3561  1.0729 -1.1791
  767MOL0     H 3544  10.368   1.674   4.681 -0.2381  0.1540 -0.8026
  767MOL0     H 3545  10.346   1.534   4.913  0.5840 -3.3167  0.0725
  768MOL0     O 3546  10.555   9.180   9.516 -0.2224  0.0155 -0.1272
  768MOL0     C 3547  10.529   9.289   9.467  0.4965 -0.2665 -0.4359
  768MOL0     O 3548  10.514   9.402   9.541  0.0450  0.0570  0.3062
  768MOL0     C 3549  10.529   9.377   9.675  0.6746  0.6329  0.7624
  768MOL0     C 3550  10.413   9.376   9.749 -0.4197  0.3948  0.0406
  768MOL0     C 3551  10.420   9.360   9.883  0.2163  0.6605  0.7074
  768MOL0     C 3552  10.543   9.354   9.954 -0.7028  0.4333 -0.2466
  768MOL0     O 3553  10.542   9.335  10.091  0.0754 -0.2063 -0.2176
  768MOL0     C 3554  10.621   9.422  10.167  0.5504 -0.0112 -0.3041
  768MOL0     C 3555  10.568   9.478  10.291  0.4927 -0.5461 -0.7582
  768MOL0     C 3556  10.684   9.570  10.359  0.5472 -0.4456  0.2910
  768MOL0     C 3557  10.622   9.683  10.444 -0.2631 -0.0186 -1.2936
  768MOL0     C 3558  10.565   9.601  10.573  0.7106 -0.0574 -0.4479
  768MOL0     C 3559  10.524   9.705  10.690  0.6070  0.3239 -0.7070
  768MOL0     C 3560  10.457   9.625  10.808 -0.2256  0.1849  0.0742
  768MOL0     C 3561  10.544   9.518  10.856  0.5283  0.4511  0.5978
  768MOL0     N 3562  10.486   9.444  10.954 -0.3423  0.0675 -0.6435
  768MOL0     C 3563  10.357   9.376  10.948 -0.3075  0.2518 -0.2763
  768MOL0     C 3564  10.351   9.320  11.066  0.2234 -0.5394 -0.1927
  768MOL0     C 3565  10.247   9.219  11.097  0.4638  0.0790  0.0841
  768MOL0     C 3566  10.124   9.311  11.143 -0.1842  1.0672  0.1600
  768MOL0     C 3567   9.997   9.230  11.187 -0.0703 -0.0550 -1.0777
  768MOL0     C 3568   9.880   9.317  11.190  0.4834  0.0084  0.9019
  768MOL0     O 3569   9.766   9.249  11.256  0.0128  0.2768  0.2176
  768MOL0     C 3570   9.722   9.131  11.199  0.1504 -0.2645  1.0181
  768MOL0     C 3571   9.663   9.130  11.070  0.1108 -0.0681 -0.7295
  768MOL0     C 3572   9.609   9.017  11.010 -0.9235 -0.0712 -0.1541
  768MOL0     C 3573   9.562   9.036  10.861  0.2100 -0.4849 -0.3218
  768MOL0     C 3574   9.600   8.896  11.081 -0.5732 -0.0549  0.8815
  768MOL0     C 3575   9.530   8.771  11.025  0.2446 -1.2344 -0.3819
  768MOL0     O 3576   9.545   8.661  11.103  0.0293  0.7884 -0.0704
  768MOL0     C 3577   9.474   8.546  11.064 -0.5531 -0.0887  0.2254
  768MOL0     C 3578   9.330   8.530  11.064 -0.7835 -0.1458 -0.2914
  768MOL0     C 3579   9.278   8.404  11.033  0.0581  0.5723  0.4678
  768MOL0     C 3580   9.359   8.293  11.002  0.9152 -1.3312  0.5921
  768MOL0     O 3581   9.306   8.165  10.981  0.6415 -0.9285 -0.6597
  768MOL0     C 3582   9.163   8.149  10.992 -0.7219 -0.0218 -0.5106
  768MOL0     C 3583   9.132   8.014  10.926 -0.8161 -0.5191 -0.0153
  768MOL0     C 3584   9.167   7.888  11.015 -0.2777 -0.0832 -0.3270
  768MOL0     C 3585   9.163   7.764  10.938  0.2477 -0.6105  1.1519
  768MOL0     C 3586   9.221   7.645  11.021  0.6855 -1.3878  0.6267
  768MOL0     C 3587   9.236   7.507  10.955 -0.1323  0.3777 -0.3414
  768MOL0     C 3588   9.321   7.429  11.042 -0.6071 -0.7687 -0.6057
  768MOL0     C 3589   9.375   7.291  11.002 -0.2827 -0.1146 -1.2956
  768MOL0    Cl 3590   9.464   7.306  10.844 -0.1358  0.0007  0.1120
  768MOL0     C 3591   9.496   8.318  10.982 -0.1103  0.2954  0.1867
  768MOL0     C 3592   9.556   8.440  11.017 -0.1130  0.9304 -0.2033
  768MOL0     O 3593   9.463   8.781  10.927 -0.3376  0.5219 -0.4359
  768MOL0     C 3594   9.651   8.895  11.214  0.3238  0.6175  2.0644
  768MOL0     C 3595   9.701   9.015  11.273 -0.3002  0.2672 -0.1507
  768MOL0     N 3596  10.463   9.353  11.139 -0.2976  1.0347 -0.2161
  768MOL0     N 3597  10.548   9.418  11.076  1.2859 -0.3636 -0.6079
  768MOL0     C 3598  10.662   9.366   9.884 -0.3984 -0.2383 -0.9189
  768MOL0     C 3599  10.658   9.372   9.743  0.3450  0.2503  0.7786
  768MOL0     C 3600  10.491   9.304   9.326  0.9510  0.5372  1.2861
  768MOL0     C 3601  10.495   9.186   9.250  0.2579 -0.5634  0.0577
  768MOL0     C 3602  10.443   9.188   9.117  0.0478  0.0895  0.3220
  768MOL0     C 3603  10.391   9.302   9.056  0.4320  0.1468  0.0601
  768MOL0     O 3604  10.360   9.316   8.922  0.3775 -0.3436 -0.3989
  768MOL0     C 3605  10.373   9.198   8.841 -0.5385 -0.2611  0.2956
  768MOL0     C 3606  10.241   9.125   8.863 -0.4064 -1.2936  0.3459
  768MOL0     C 3607  10.120   9.220   8.839 -0.0535  0.0996 -0.1966
  768MOL0     C 3608   9.986   9.147   8.839  0.2970  0.6098 -0.5064
  768MOL0     C 3609   9.941   9.102   8.974  0.0491 -0.3188 -0.1833
  768MOL0     C 3610   9.911   9.074   9.088 -0.7465  0.0711  0.4265
  768MOL0     C 3611  10.380   9.413   9.143 -0.5494  0.3427  0.5521
  768MOL0     C 3612  10.422   9.419   9.274  0.6523  0.0496  0.5046
  768MOL0     H 3613  10.323   9.402   9.695  0.6595 -0.2934 -2.1883
  768MOL0     H 3614  10.333   9.352   9.948  0.9014 -1.4546  1.4642
  768MOL0     H 3615  10.705   9.366  10.210 -1.1874 -1.3139  1.5920
  768MOL0     H 3616  10.648   9.510  10.107  1.5676  0.3117  0.5891
  768MOL0     H 3617  10.477   9.531  10.261 -3.1739 -4.4451  2.3230
  768MOL0     H 3618  10.540   9.397  10.359  0.8004  2.1357  2.8411
  768MOL0     H 3619  10.759   9.513  10.415  0.4190 -1.5891 -0.6877
  768MOL0     H 3620  10.753   9.613  10.287 -3.1527  3.2269 -1.4843
  768MOL0     H 3621  10.695   9.759  10.471 -0.2665  0.5036 -2.6627
  768MOL0     H 3622  10.546   9.746  10.396  0.1748 -0.0987 -2.1171
  768MOL0     H 3623  10.474   9.553  10.536 -1.3143  3.1185  0.0125
  768MOL0     H 3624  10.640   9.534  10.617 -0.7338 -1.7356 -0.4749
  768MOL0     H 3625  10.619   9.748  10.724  0.5211  0.5729 -0.7826
  768MOL0     H 3626  10.450   9.782  10.666  1.0041  1.4222  1.3564
  768MOL0     H 3627  10.445   9.691  10.894  1.1504 -0.6208  0.9224
  768MOL0     H 3628  10.360   9.591  10.770 -1.9203  3.2244  1.3606
  768MOL0     H 3629  10.638   9.553  10.900  1.3494  1.1339 -1.5614
  768MOL0     H 3630  10.561   9.452  10.770 -0.6603 -1.6457  1.8683
  768MOL0     H 3631  10.286   9.373  10.866 -0.0362 -2.0282 -0.4863
  768MOL0     H 3632  10.232   9.165  11.003  1.5886 -4.5766  2.3152
  768MOL0     H 3633  10.288   9.152  11.173  0.3514 -1.1693 -0.9202
  768MOL0     H 3634  10.094   9.375  11.060  3.6945  3.1190  0.1338
  768MOL0     H 3635  10.157   9.379  11.222  0.3271  1.6825 -0.5742
  768MOL0     H 3636  10.007   9.183  11.286 -0.3657 -6.0663 -3.4528
  768MOL0     H 3637   9.984   9.151  11.113  0.8694 -1.3130  0.0371
  768MOL0     H 3638   9.859   9.350  11.088  0.8401 -0.2311  0.7487
  768MOL0     H 3639   9.903   9.404  11.251  0.7424 -0.8225  2.0282
  768MOL0     H 3640   9.676   9.222  11.015  1.4525 -0.0595 -0.4122
  768MOL0     H 3641   9.461   8.998  10.843 -0.1668  0.0643  0.5468
  768MOL0     H 3642   9.541   9.142  10.851 -1.8102 -0.8382 -0.2659
  768MOL0     H 3643   9.633   8.992  10.790 -0.6190  1.2363 -2.3058
  768MOL0     H 3644   9.261   8.613  11.073 -2.3802 -1.1996 -2.0954
  768MOL0     H 3645   9.171   8.392  11.042  0.2867 -2.7112 -0.0941
  768MOL0     H 3646   9.123   8.152  11.094 -2.1965  0.2335 -1.0758
  768MOL0     H 3647   9.111   8.226  10.933 -1.1284 -0.3469 -0.5776
  768MOL0     H 3648   9.028   8.015  10.890 -0.8578 -1.4992  0.0365
  768MOL0     H 3649   9.210   8.000  10.851  0.3988  3.3576  0.2968
  768MOL0     H 3650   9.099   7.872  11.100 -2.0527 -0.8272 -1.8340
  768MOL0     H 3651   9.268   7.915  11.047 -0.2121  1.5274 -1.7777
  768MOL0     H 3652   9.059   7.734  10.922  0.8108 -1.0408 -2.3448
  768MOL0     H 3653   9.221   7.763  10.846 -0.0088 -2.3334  0.9754
  768MOL0     H 3654   9.173   7.637  11.119 -0.7464 -3.7870 -0.1976
  768MOL0     H 3655   9.325   7.675  11.042  1.0220 -0.7447 -1.7195
  768MOL0     H 3656   9.137   7.460  10.951 -0.6969  1.4530  0.2824
  768MOL0     H 3657   9.278   7.511  10.854 -2.0674  3.0596 -1.1709
  768MOL0     H 3658   9.278   7.443  11.141 -0.8531  3.5831 -1.1481
  768MOL0     H 3659   9.412   7.488  11.055 -0.8615 -0.5662  0.2746
  768MOL0     H 3660   9.294   7.219  10.996  0.3594 -0.8809 -0.9631
  768MOL0     H 3661   9.453   7.257  11.071  0.2084  0.8829 -1.3442
  768MOL0     H 3662   9.557   8.238  10.938 -1.5244 -1.7162  1.7005
  768MOL0     H 3663   9.662   8.457  11.005  0.0423  2.4038  2.5068
  768MOL0     H 3664   9.657   8.801  11.268  0.8315 -1.8408 -1.8930
  768MOL0     H 3665   9.735   9.009  11.376  0.8777 -0.6274 -0.5603
  768MOL0     H 3666  10.761   9.347   9.925 -1.2529 -2.8082  0.1462
  768MOL0     H 3667  10.750   9.363   9.686 -0.1532  0.4027 -0.0669
  768MOL0     H 3668  10.533   9.098   9.300  1.7072  0.8450  1.5990
  768MOL0     H 3669  10.443   9.099   9.054 -2.9324 -0.6042  1.1132
  768MOL0     H 3670  10.377   9.226   8.736  2.2875 -1.5127 -0.0156
  768MOL0     H 3671  10.467   9.144   8.857  0.7261  1.9445  0.6988
  768MOL0     H 3672  10.240   9.074   8.960 -0.6573 -1.7542  0.1063
  768MOL0     H 3673  10.235   9.034   8.802  0.7508 -1.1152 -0.0525
  768MOL0     H 3674  10.141   9.268   8.742  0.4483  0.8304  0.2640
  768MOL0     H 3675  10.123   9.298   8.915 -2.9525  0.0248  0.0922
  768MOL0     H 3676   9.989   9.059   8.775 -0.5298  1.4658 -1.7735
  768MOL0     H 3677   9.902   9.212   8.811 -2.4023 -1.7482  1.4406
  768MOL0     H 3678   9.881   9.058   9.190 -0.8688  4.7699  1.3475
  768MOL0     H 3679  10.345   9.501   9.090  0.7103  0.0489 -0.8349
  768MOL0     H 3680  10.401   9.508   9.334 -0.6671 -0.2138  0.4725
  769MOL0     O 3681  10.714   6.872   2.691  0.1763  0.1424  0.2720
  769MOL0     C 3682  10.645   6.883   2.794  0.0270 -0.4770 -0.0579
  769MOL0     O 3683  10.646   6.801   2.902 -0.1755  0.1916 -0.1459
  769MOL0     C 3684  10.715   6.686   2.905  0.0994 -0.0909  0.6350
  769MOL0     C 3685  10.678   6.583   2.808 -0.3042  0.1449  0.0537
  769MOL0     C 3686  10.748   6.463   2.813 -0.6847 -0.1625 -0.2335
  769MOL0     C 3687  10.847   6.444   2.907 -0.1652 -0.4184  0.3005
  769MOL0     O 3688  10.910   6.323   2.918  0.5696  0.0855  0.0763
  769MOL0     C 3689  10.828   6.229   2.990 -0.8814 -0.6434 -0.7497
  769MOL0     C 3690  10.890   6.185   3.122 -0.4171  0.6386 -0.4521
  769MOL0     C 3691  11.000   6.077   3.099 -0.2894 -0.0732 -0.3181
  769MOL0     C 3692  11.064   6.037   3.239  1.1035 -0.3579  0.3813
  769MOL0     C 3693  11.188   5.945   3.220 -0.0247 -0.6415  0.0936
  769MOL0     C 3694  11.196   5.851   3.104  0.2712 -0.5850  0.0107
  769MOL0     C 3695  11.325   5.773   3.122 -0.3530  0.3166  0.1465
  769MOL0     C 3696  11.336   5.644   3.039 -0.1769  0.6264  0.6657
  769MOL0     N 3697  11.445   5.646   2.953 -0.6619 -0.0286  0.0021
  769MOL0     C 3698  11.576   5.627   2.997 -0.3094 -0.2058 -0.4913
  769MOL0     C 3699  11.649   5.614   2.883  1.2307 -0.1438 -0.3213
  769MOL0     C 3700  11.799   5.617   2.882 -0.2297  0.1944 -0.7603
  769MOL0     C 3701  11.855   5.536   3.005 -0.1447 -0.7079  0.7485
  769MOL0     C 3702  11.994   5.483   2.996 -0.7213  0.1553 -0.1220
  769MOL0     C 3703  12.034   5.416   3.131  0.5893  0.0819 -0.1640
  769MOL0     O 3704  11.964   5.289   3.144 -0.3301 -0.3796 -0.4140
  769MOL0     C 3705  11.994   5.204   3.245 -0.3183  0.2534 -0.2079
  769MOL0     C 3706  12.096   5.220   3.339  0.7009 -0.5504 -0.1158
  769MOL0     C 3707  12.127   5.131   3.438 -0.1537  0.2105 -0.2189
  769MOL0     C 3708  12.263   5.163   3.513  0.6374  0.7739 -0.4895
  769MOL0     C 3709  12.044   5.016   3.453  0.1499  0.2575 -0.7213
  769MOL0     C 3710  12.058   4.924   3.572 -0.2272 -0.6948 -0.2032
  769MOL0     O 3711  12.173   4.928   3.639  1.0887 -0.3713 -0.6948
  769MOL0     C 3712  12.179   4.844   3.746  0.4632 -0.1233 -0.0948
  769MOL0     C 3713  12.242   4.716   3.745 -0.6198 -0.3548  0.5313
  769MOL0     C 3714  12.233   4.638   3.851 -0.0327  0.5302 -0.3145
  769MOL0     C 3715  12.172   4.677   3.971 -0.0888  0.6124  0.5599
  769MOL0     O 3716  12.192   4.586   4.077 -0.7785  0.4507  0.5037
  769MOL0     C 3717  12.219   4.653   4.200 -0.2852 -1.0317 -1.3161
  769MOL0     C 3718  12.311   4.579   4.300  0.5823 -0.4746 -0.3118
  769MOL0     C 3719  12.456   4.579   4.254 -0.1028 -0.6795 -1.1934
  769MOL0     C 3720  12.542   4.523   4.377  0.4868  0.7473  0.1514
  769MOL0     C 3721  12.694   4.542   4.364 -0.9254  0.1278 -0.1141
  769MOL0     C 3722  12.754   4.500   4.225  0.3929  0.4652  0.2385
  769MOL0     C 3723  12.900   4.469   4.209 -0.0940 -0.1541 -0.3987
  769MOL0     C 3724  12.922   4.348   4.132 -0.0443  0.0004  0.7199
  769MOL0    Cl 3725  12.980   4.386   3.979 -0.4238 -0.3879 -0.3715
  769MOL0     C 3726  12.102   4.799   3.978 -0.4564 -0.0880  0.4253
  769MOL0     C 3727  12.108   4.877   3.868  0.0923  0.8059 -1.3466
  769MOL0     O 3728  11.972   4.842   3.586 -0.2755  0.8891  0.3232
  769MOL0     C 3729  11.951   4.991   3.356  0.1149  0.0508 -1.3426
  769MOL0     C 3730  11.931   5.084   3.252  0.0178  0.1522  0.7930
  769MOL0     N 3731  11.573   5.616   2.775  0.7754 -0.4945 -0.8053
  769MOL0     N 3732  11.443   5.633   2.816 -0.3426 -0.2988  0.2723
  769MOL0     C 3733  10.888   6.541   2.992  0.3951  1.1326  0.5114
  769MOL0     C 3734  10.823   6.667   2.991  0.0367  0.2519 -0.1667
  769MOL0     C 3735  10.557   7.007   2.802 -0.0905  0.6377  0.2560
  769MOL0     C 3736  10.499   7.042   2.922  0.3839 -0.2166  0.4180
  769MOL0     C 3737  10.401   7.146   2.924  1.2335 -1.0830 -1.3492
  769MOL0     C 3738  10.372   7.219   2.812 -0.1700  0.1263 -0.7038
  769MOL0     O 3739  10.287   7.331   2.828  0.2177 -0.2421 -0.4933
  769MOL0     C 3740  10.234   7.397   2.713 -0.1694  0.7376  0.3351
  769MOL0     C 3741  10.141   7.512   2.756  0.1789  0.2995 -0.2482
  769MOL0     C 3742  10.036   7.483   2.865  0.7237 -0.2741 -0.1250
  769MOL0     C 3743   9.982   7.631   2.905 -0.4203  0.7307 -0.5511
  769MOL0     C 3744   9.883   7.620   3.010  0.2058  0.0368 -1.2545
  769MOL0     C 3745   9.810   7.604   3.107  0.2518  0.4413  0.2332
  769MOL0     C 3746  10.439   7.190   2.697 -0.2922  0.2147  0.2669
  769MOL0     C 3747  10.523   7.084   2.685 -0.3948 -0.0511 -0.0037
  769MOL0     H 3748  10.614   6.624   2.731 -0.6361  3.2568  1.8132
  769MOL0     H 3749  10.725   6.380   2.746 -1.9117 -1.9056  2.1832
  769MOL0     H 3750  10.732   6.272   3.019  0.2407  0.1025  2.1753
  769MOL0     H 3751  10.815   6.137   2.932 -1.3004  0.1420 -1.9493
  769MOL0     H 3752  10.936   6.272   3.170  0.0091  2.6013 -4.0495
  769MOL0     H 3753  10.821   6.138   3.192  1.3526 -1.0445  0.2329
  769MOL0     H 3754  10.959   5.985   3.056 -0.9015 -0.2249  0.5605
  769MOL0     H 3755  11.070   6.116   3.024  0.7405 -0.9050  0.1801
  769MOL0     H 3756  11.080   6.134   3.286 -0.0177 -0.6454  1.4017
  769MOL0     H 3757  10.990   5.989   3.304 -0.2318  3.6923  2.1656
  769MOL0     H 3758  11.279   6.006   3.224 -1.2951  1.5574 -2.2655
  769MOL0     H 3759  11.193   5.889   3.314  3.2100  0.5216  0.7556
  769MOL0     H 3760  11.109   5.785   3.106  1.5531 -2.4632 -1.8967
  769MOL0     H 3761  11.197   5.898   3.005  3.3608 -0.9017 -0.2217
  769MOL0     H 3762  11.416   5.835   3.115 -0.1475 -0.0660 -0.6543
  769MOL0     H 3763  11.328   5.719   3.217  0.7627 -2.0698 -1.1534
  769MOL0     H 3764  11.245   5.625   2.980 -1.4137  0.7416  2.4599
  769MOL0     H 3765  11.343   5.561   3.110  2.6116  0.1817 -0.0010
  769MOL0     H 3766  11.611   5.632   3.099  0.8426 -1.2230 -0.8086
  769MOL0     H 3767  11.835   5.558   2.796 -0.0797  0.1615 -0.6756
  769MOL0     H 3768  11.858   5.708   2.864  2.8570 -2.0086 -3.0078
  769MOL0     H 3769  11.787   5.454   3.031 -0.5067 -0.9972 -0.9857
  769MOL0     H 3770  11.848   5.607   3.088  1.5466  0.1724  0.1874
  769MOL0     H 3771  12.051   5.575   2.983 -2.2943  1.3572  1.1092
  769MOL0     H 3772  11.999   5.409   2.915 -3.5706  0.6678 -0.8777
  769MOL0     H 3773  12.012   5.486   3.212  1.5520  1.3103 -0.9259
  769MOL0     H 3774  12.141   5.397   3.138  0.4989 -0.3696 -0.0150
  769MOL0     H 3775  12.148   5.314   3.323 -1.6909  0.8800  0.1960
  769MOL0     H 3776  12.240   5.145   3.619 -0.2021 -0.6265 -0.8826
  769MOL0     H 3777  12.339   5.088   3.488 -0.5329 -0.2732 -1.0309
  769MOL0     H 3778  12.303   5.262   3.489  1.7456  0.5675  0.4350
  769MOL0     H 3779  12.285   4.677   3.653  0.2944 -2.4137  1.7732
  769MOL0     H 3780  12.301   4.554   3.848 -0.0652  0.5030 -0.3062
  769MOL0     H 3781  12.273   4.747   4.183  1.6202 -1.5464  1.2791
  769MOL0     H 3782  12.126   4.675   4.254  1.4412  1.3281  0.9207
  769MOL0     H 3783  12.291   4.625   4.397 -2.2699 -0.4871 -0.8046
  769MOL0     H 3784  12.280   4.475   4.310  2.2059 -1.0623 -1.0999
  769MOL0     H 3785  12.494   4.681   4.242 -0.5460 -0.4284 -0.4756
  769MOL0     H 3786  12.480   4.529   4.159  1.5733  0.7666 -1.5987
  769MOL0     H 3787  12.521   4.561   4.478  0.5297 -0.2511  0.5396
  769MOL0     H 3788  12.531   4.415   4.381  4.3675  0.2395  0.5864
  769MOL0     H 3789  12.760   4.502   4.442  2.4550  2.0089 -1.7984
  769MOL0     H 3790  12.714   4.647   4.386 -3.3700  0.1387  2.8011
  769MOL0     H 3791  12.700   4.407   4.203  4.8441 -3.2598  3.1081
  769MOL0     H 3792  12.725   4.577   4.154  3.3157  2.2368  0.8111
  769MOL0     H 3793  12.951   4.466   4.305 -3.6941  0.2433  1.7221
  769MOL0     H 3794  12.944   4.552   4.153 -1.1403 -1.5419 -3.4829
  769MOL0     H 3795  12.831   4.288   4.122  2.4671 -3.8038 -2.0143
  769MOL0     H 3796  12.998   4.284   4.178  1.2886  1.1236  0.1625
  769MOL0     H 3797  12.044   4.835   4.062 -1.8467 -1.9020  0.3158
  769MOL0     H 3798  12.052   4.969   3.881 -2.2203 -0.6548 -0.4925
  769MOL0     H 3799  11.883   4.907   3.345 -0.5683  0.3598  0.2255
  769MOL0     H 3800  11.846   5.068   3.186 -0.1890  0.4900  0.9766
  769MOL0     H 3801  10.964   6.531   3.069  1.8207 -0.8625 -1.0840
  769MOL0     H 3802  10.838   6.752   3.056 -0.1924 -1.1178  1.7826
  769MOL0     H 3803  10.515   6.991   3.016  1.7826  2.1736  1.5586
  769MOL0     H 3804  10.350   7.163   3.018  0.2505  2.8766 -2.4162
  769MOL0     H 3805  10.325   7.437   2.666  1.7001 -1.5718  1.7362
  769MOL0     H 3806  10.186   7.328   2.643  0.3307 -1.0631  1.6724
  769MOL0     H 3807  10.096   7.552   2.665 -0.3852 -0.8400 -0.4840
  769MOL0     H 3808  10.200   7.592   2.802 -0.6037 -0.2337  1.8501
  769MOL0     H 3809  10.086   7.435   2.949  0.2283  2.2859  1.7667
  769MOL0     H 3810   9.951   7.423   2.832  0.0038  1.7532 -2.2981
  769MOL0     H 3811   9.942   7.671   2.811  1.4230  2.2825 -0.7296
  769MOL0     H 3812  10.053   7.706   2.940 -1.4930  1.2337  0.6208
  769MOL0     H 3813   9.760   7.589   3.200 -2.7393 -1.2827 -1.4658
  769MOL0     H 3814  10.429   7.234   2.598 -0.6707 -0.9053 -0.2107
  769MOL0     H 3815  10.561   7.045   2.592  2.8592 -1.2529  1.6745
  770MOL0     O 3816   2.749   0.732   0.280 -0.4114  0.0123  0.1517
  770MOL0     C 3817   2.814   0.657   0.356  0.0848  0.5665 -0.2122
  770MOL0     O 3818   2.772   0.548   0.419  0.9944  1.3687 -0.1081
  770MOL0     C 3819   2.633   0.523   0.424  0.0672 -0.0658 -0.7291
  770MOL0     C 3820   2.559   0.458   0.326  0.7441 -0.6103 -0.0332
  770MOL0     C 3821   2.416   0.457   0.334  0.1172 -0.7903  0.0660
  770MOL0     C 3822   2.351   0.530   0.436 -0.0072 -0.4216  1.5364
  770MOL0     O 3823   2.210   0.554   0.436  0.3631 -0.0797 -0.2107
  770MOL0     C 3824   2.127   0.517   0.327  0.3289 -0.6653  0.6344
  770MOL0     C 3825   2.108   0.630   0.230  0.2849 -0.8375  0.4456
  770MOL0     C 3826   1.964   0.640   0.180 -1.4270 -0.2449 -0.3645
  770MOL0     C 3827   1.946   0.743   0.060  0.0786  0.0506  0.2327
  770MOL0     C 3828   1.806   0.729   0.020  0.1816  0.1615  0.4221
  770MOL0     C 3829   1.782   0.833  -0.090 -0.5717  0.8970 -0.5542
  770MOL0     C 3830   1.642   0.817  -0.147 -0.2233 -0.5466  0.0177
  770MOL0     C 3831   1.633   0.888  -0.283 -0.1165 -0.3667 -0.2073
  770MOL0     N 3832   1.503   0.949  -0.320 -0.0886  0.3438 -0.6349
  770MOL0     C 3833   1.393   0.886  -0.372  0.3393 -0.2288  0.3042
  770MOL0     C 3834   1.306   0.987  -0.405 -0.6554  0.1017 -0.1605
  770MOL0     C 3835   1.171   0.961  -0.459  0.3591 -0.4214 -0.2113
  770MOL0     C 3836   1.063   1.067  -0.431 -0.7504  0.5618  0.0468
  770MOL0     C 3837   1.087   1.203  -0.503 -0.6070 -0.0301  0.4003
  770MOL0     C 3838   0.979   1.301  -0.461  0.3118 -0.7390 -0.0688
  770MOL0     O 3839   0.846   1.257  -0.510  0.5232  0.0787 -0.1701
  770MOL0     C 3840   0.736   1.329  -0.479 -0.2536 -0.5889  0.7864
  770MOL0     C 3841   0.638   1.359  -0.575 -1.0455 -0.1310  0.5480
  770MOL0     C 3842   0.514   1.410  -0.550 -0.8008 -0.0991  0.4234
  770MOL0     C 3843   0.415   1.443  -0.663  0.5143  0.5689 -0.7403
  770MOL0     C 3844   0.483   1.436  -0.410 -0.9360 -0.8589  0.5435
  770MOL0     C 3845   0.345   1.489  -0.372  0.4760 -0.2860  0.2306
  770MOL0     O 3846   0.283   1.411  -0.271  0.5962 -0.1483  0.0905
  770MOL0     C 3847   0.147   1.431  -0.243  0.4937 -0.1660 -0.8469
  770MOL0     C 3848   0.112   1.529  -0.146  0.5100  0.2273 -0.3283
  770MOL0     C 3849  -0.012   1.533  -0.092  0.5805  0.7296  0.1490
  770MOL0     C 3850  -0.110   1.449  -0.138  0.5212  0.0502  0.8957
  770MOL0     O 3851  -0.234   1.477  -0.094  0.4821 -0.4352 -0.8411
  770MOL0     C 3852  -0.356   1.454  -0.175 -0.4421  0.7314  0.0500
  770MOL0     C 3853  -0.488   1.467  -0.106  0.3075 -1.1472 -0.9256
  770MOL0     C 3854  -0.540   1.614  -0.109  0.3060 -0.6621  0.4701
  770MOL0     C 3855  -0.685   1.611  -0.064 -0.0298 -0.5624 -0.2592
  770MOL0     C 3856  -0.749   1.752  -0.081  0.2727 -1.0397  0.7497
  770MOL0     C 3857  -0.888   1.747  -0.011  0.2176 -1.1291 -0.0154
  770MOL0     C 3858  -0.970   1.631  -0.065  0.1130  0.3157  0.3225
  770MOL0     C 3859  -1.121   1.635  -0.029  0.7410 -0.3990 -0.2483
  770MOL0    Cl 3860  -1.143   1.675   0.138  0.2450  0.0614 -0.3286
  770MOL0     C 3861  -0.084   1.359  -0.238 -0.5113  1.1452 -0.3841
  770MOL0     C 3862   0.047   1.344  -0.298 -0.0138 -0.0149 -0.0559
  770MOL0     O 3863   0.302   1.601  -0.411 -0.0880  0.2498  0.3805
  770MOL0     C 3864   0.577   1.395  -0.316  0.4672 -0.3967 -0.0145
  770MOL0     C 3865   0.696   1.349  -0.348  0.5183 -1.4284  0.2750
  770MOL0     N 3866   1.362   1.112  -0.376 -0.3292  0.0107 -0.2930
  770MOL0     N 3867   1.477   1.086  -0.319  0.1114  0.2973  0.1292
  770MOL0     C 3868   2.433   0.590   0.529 -0.2539 -0.7218 -0.6068
  770MOL0     C 3869   2.569   0.594   0.521  1.2566  0.3704 -0.1022
  770MOL0     C 3870   2.953   0.693   0.362 -0.0168  0.1208 -0.4230
  770MOL0     C 3871   3.013   0.814   0.299 -0.3869 -0.3558 -0.1521
  770MOL0     C 3872   3.148   0.832   0.305 -0.4340  0.5616  0.2418
  770MOL0     C 3873   3.236   0.756   0.370 -0.4702  0.7355  0.1842
  770MOL0     O 3874   3.372   0.783   0.377 -0.1040 -0.2739 -0.1414
  770MOL0     C 3875   3.423   0.919   0.353  1.1927  0.6710  0.3800
  770MOL0     C 3876   3.560   0.926   0.411 -1.3042  0.1308  0.6121
  770MOL0     C 3877   3.640   1.046   0.345  0.1235  0.3458  0.3459
  770MOL0     C 3878   3.782   1.055   0.413  0.1435  0.3586 -0.0304
  770MOL0     C 3879   3.862   1.172   0.355  0.0826  0.6580 -0.0289
  770MOL0     C 3880   3.946   1.253   0.322  0.2700 -0.9003  0.1085
  770MOL0     C 3881   3.179   0.647   0.430  1.3886  0.4732  0.2311
  770MOL0     C 3882   3.045   0.610   0.429 -0.0321 -0.0056  0.2159
  770MOL0     H 3883   2.612   0.403   0.249 -0.7745  0.1925 -1.7050
  770MOL0     H 3884   2.352   0.418   0.256 -2.5019 -2.0225  2.6578
  770MOL0     H 3885   2.151   0.420   0.284  0.3461 -0.6337  0.5731
  770MOL0     H 3886   2.029   0.513   0.377  0.4624  1.1757  1.1075
  770MOL0     H 3887   2.130   0.723   0.281  2.4638  0.9046 -3.2689
  770MOL0     H 3888   2.196   0.629   0.165  1.3991  3.6979  1.5773
  770MOL0     H 3889   1.928   0.548   0.134 -0.2280 -1.2813  0.7119
  770MOL0     H 3890   1.897   0.664   0.263  0.9854  1.2098  1.2907
  770MOL0     H 3891   1.961   0.839   0.110 -1.4704 -0.1557  1.1442
  770MOL0     H 3892   2.021   0.733  -0.019 -0.3216  1.6333 -0.3718
  770MOL0     H 3893   1.790   0.628  -0.020 -1.2679  0.2023  0.8407
  770MOL0     H 3894   1.738   0.748   0.103 -0.1517 -2.5772  0.8657
  770MOL0     H 3895   1.795   0.935  -0.054 -0.1627  0.8076 -0.4423
  770MOL0     H 3896   1.853   0.819  -0.172  0.3753 -2.7229  0.6783
  770MOL0     H 3897   1.612   0.713  -0.164  0.4671 -0.4664 -1.9868
  770MOL0     H 3898   1.574   0.863  -0.075  1.0213 -0.1447  0.9542
  770MOL0     H 3899   1.662   0.817  -0.361 -0.4754  0.8358 -1.4970
  770MOL0     H 3900   1.698   0.976  -0.282  1.1984 -1.1950 -2.8865
  770MOL0     H 3901   1.362   0.783  -0.388 -0.6879  0.4244 -2.6074
  770MOL0     H 3902   1.194   0.943  -0.564  2.0668  1.0051 -0.1232
  770MOL0     H 3903   1.129   0.865  -0.427 -0.0020  0.4121  2.0035
  770MOL0     H 3904   1.042   1.078  -0.324  2.4704  3.6129  0.5263
  770MOL0     H 3905   0.981   1.015  -0.482  1.6489 -2.0013 -1.4911
  770MOL0     H 3906   1.070   1.194  -0.611  1.3592  3.4283 -0.3472
  770MOL0     H 3907   1.187   1.246  -0.500  0.2972 -1.8696 -1.1573
  770MOL0     H 3908   1.014   1.391  -0.512 -0.9739 -0.3376 -0.2806
  770MOL0     H 3909   0.973   1.323  -0.354 -0.3971  0.9989 -0.4402
  770MOL0     H 3910   0.659   1.346  -0.681 -0.3119 -2.7006  0.9306
  770MOL0     H 3911   0.387   1.549  -0.664 -0.1511  0.3996 -0.8215
  770MOL0     H 3912   0.448   1.414  -0.763  1.5659  1.9896 -0.8281
  770MOL0     H 3913   0.324   1.387  -0.637  1.4264 -0.5015  0.2423
  770MOL0     H 3914   0.189   1.598  -0.114 -1.2106  2.6457 -1.1104
  770MOL0     H 3915  -0.041   1.608  -0.019 -0.9648 -1.3061  1.7504
  770MOL0     H 3916  -0.350   1.505  -0.272 -0.6881  0.7567  0.0462
  770MOL0     H 3917  -0.363   1.348  -0.203 -0.2168 -0.5431  4.1138
  770MOL0     H 3918  -0.557   1.397  -0.154  0.4867  0.2289 -3.3148
  770MOL0     H 3919  -0.482   1.445   0.001  1.3556  0.8506 -0.5241
  770MOL0     H 3920  -0.537   1.657  -0.210 -1.7442 -0.4490  0.4559
  770MOL0     H 3921  -0.488   1.683  -0.043 -1.9244  1.0916  0.5272
  770MOL0     H 3922  -0.737   1.532  -0.120  1.0829 -3.2479  2.2717
  770MOL0     H 3923  -0.679   1.581   0.041  0.4896 -1.4262 -0.5282
  770MOL0     H 3924  -0.774   1.772  -0.186  0.2699 -1.0778  0.7440
  770MOL0     H 3925  -0.690   1.832  -0.036  1.0658 -1.7137  0.9306
  770MOL0     H 3926  -0.873   1.733   0.096 -1.3299 -1.9665  0.1221
  770MOL0     H 3927  -0.913   1.853  -0.028 -0.8748 -0.9047  2.6010
  770MOL0     H 3928  -0.934   1.537  -0.022 -0.3508 -0.8947 -1.7698
  770MOL0     H 3929  -0.952   1.606  -0.170 -1.2901  3.2358 -0.6904
  770MOL0     H 3930  -1.175   1.541  -0.042 -0.8592 -0.0214  2.8180
  770MOL0     H 3931  -1.172   1.707  -0.094  1.0636  1.6152  1.6060
  770MOL0     H 3932  -0.165   1.298  -0.276  0.7833 -1.3292  0.5943
  770MOL0     H 3933   0.078   1.280  -0.380  0.7260  2.9748 -2.2493
  770MOL0     H 3934   0.566   1.425  -0.212  0.3145  2.0708 -0.6842
  770MOL0     H 3935   0.771   1.329  -0.272  1.5230 -2.3966 -0.9449
  770MOL0     H 3936   2.383   0.648   0.606 -0.0216 -1.4378  0.1089
  770MOL0     H 3937   2.632   0.649   0.590 -0.1222  0.5276  1.0840
  770MOL0     H 3938   2.952   0.887   0.247  0.6791  0.8691  0.2574
  770MOL0     H 3939   3.170   0.917   0.241 -0.2585 -1.1948 -2.1763
  770MOL0     H 3940   3.422   0.929   0.244  0.2127  0.1510  0.3326
  770MOL0     H 3941   3.358   1.001   0.386  0.7387  1.2629 -1.7860
  770MOL0     H 3942   3.612   0.833   0.387 -0.1783  0.9823 -0.3807
  770MOL0     H 3943   3.557   0.937   0.520  1.2193 -4.1835  1.3373
  770MOL0     H 3944   3.592   1.144   0.345 -0.2047  0.1881 -0.2648
  770MOL0     H 3945   3.657   1.020   0.240 -2.6293 -0.3870  0.0161
  770MOL0     H 3946   3.839   0.963   0.394 -0.0851 -0.0875  1.3679
  770MOL0     H 3947   3.778   1.063   0.522  2.8856 -3.6851  0.5817
  770MOL0     H 3948   4.012   1.336   0.306 -0.6951 -0.6821 -3.9488
  770MOL0     H 3949   3.238   0.573   0.483  2.5361  0.8932 -0.4048
  770MOL0     H 3950   3.010   0.520   0.477 -1.6350  2.0728  3.2657
  771MOL0     O 3951   5.546   4.036  10.650  0.4913  0.0758 -0.6540
  771MOL0     C 3952   5.579   3.970  10.548 -0.0561 -0.0369  0.4252
  771MOL0     O 3953   5.704   3.979  10.481  0.5694  0.3009  0.0912
  771MOL0     C 3954   5.795   4.069  10.533 -0.1819 -0.4344  0.3966
  771MOL0     C 3955   5.790   4.203  10.500  0.4056  0.8890 -1.3967
  771MOL0     C 3956   5.872   4.290  10.567  0.2308 -0.2164  0.3694
  771MOL0     C 3957   5.969   4.247  10.656  0.4857  0.2712  0.1077
  771MOL0     O 3958   6.056   4.345  10.702  0.6575  0.0734  0.4026
  771MOL0     C 3959   6.153   4.305  10.807  0.0359 -0.4855  0.0353
  771MOL0     C 3960   6.220   4.431  10.859  0.3090 -0.6000 -0.6612
  771MOL0     C 3961   6.348   4.404  10.941  0.8690  0.0337  0.7283
  771MOL0     C 3962   6.416   4.531  10.995  0.2313  0.5263 -0.6017
  771MOL0     C 3963   6.569   4.509  10.998  1.3565 -0.5940  0.1645
  771MOL0     C 3964   6.648   4.616  11.082 -0.8776  0.0007 -0.1281
  771MOL0     C 3965   6.798   4.587  11.077 -1.0402  0.3237 -0.0143
  771MOL0     C 3966   6.895   4.684  11.150 -0.5455  0.0914 -0.3387
  771MOL0     N 3967   6.901   4.822  11.080  0.1381 -0.4557  0.0947
  771MOL0     C 3968   6.893   4.841  10.945 -0.0202  0.9741 -0.4341
  771MOL0     C 3969   6.825   4.958  10.931 -0.3072 -0.6340 -0.7196
  771MOL0     C 3970   6.773   5.011  10.804 -1.3910  0.4604 -0.0222
  771MOL0     C 3971   6.625   5.012  10.796  1.1316 -0.4085 -0.2263
  771MOL0     C 3972   6.568   5.039  10.653 -0.3192  1.0924  0.1685
  771MOL0     C 3973   6.425   5.037  10.624  0.3762  0.4180 -0.1658
  771MOL0     O 3974   6.358   5.151  10.672 -0.4916 -0.6148 -0.3340
  771MOL0     C 3975   6.227   5.178  10.651 -0.1177 -0.0116 -0.0857
  771MOL0     C 3976   6.156   5.237  10.755  1.1898 -1.1189  0.4809
  771MOL0     C 3977   6.027   5.285  10.722 -0.2926  0.1631 -0.2038
  771MOL0     C 3978   5.966   5.367  10.829  0.5437 -0.3031 -0.6290
  771MOL0     C 3979   5.969   5.251  10.602  0.5801 -0.7573  0.1909
  771MOL0     C 3980   5.834   5.294  10.573  0.2233 -0.3878 -0.4878
  771MOL0     O 3981   5.744   5.260  10.668  0.7417 -0.2574 -0.4199
  771MOL0     C 3982   5.614   5.306  10.654 -0.3659  0.8546  0.8029
  771MOL0     C 3983   5.562   5.394  10.754  0.9852 -0.4388  0.5733
  771MOL0     C 3984   5.426   5.448  10.736  0.0203  0.8098 -0.8106
  771MOL0     C 3985   5.346   5.410  10.632  1.1829 -0.1753 -0.0170
  771MOL0     O 3986   5.213   5.460  10.624  0.2669  0.2067  0.1797
  771MOL0     C 3987   5.186   5.541  10.513  0.4474 -0.2342  0.2660
  771MOL0     C 3988   5.066   5.630  10.554  0.7341 -0.1166 -0.4922
  771MOL0     C 3989   4.932   5.565  10.557 -0.4237  0.0690  0.5976
  771MOL0     C 3990   4.832   5.668  10.601 -0.8911  0.1458 -1.0316
  771MOL0     C 3991   4.692   5.654  10.548  0.0845  0.3426 -0.3420
  771MOL0     C 3992   4.631   5.516  10.572  0.4327 -0.2821  0.1546
  771MOL0     C 3993   4.486   5.497  10.524 -0.4584  0.2179  0.1757
  771MOL0     C 3994   4.423   5.357  10.578 -0.1369  0.1848 -0.2002
  771MOL0    Cl 3995   4.532   5.216  10.534 -0.0039  0.1870  0.2948
  771MOL0     C 3996   5.394   5.321  10.533  0.8786 -0.7354 -0.6598
  771MOL0     C 3997   5.526   5.269  10.543 -0.2641 -0.3726  0.0168
  771MOL0     O 3998   5.812   5.353  10.467  0.1337 -0.2947  0.0069
  771MOL0     C 3999   6.035   5.173  10.508  0.4956 -1.0276 -0.0177
  771MOL0     C 4000   6.171   5.144  10.524 -1.2479 -0.4461 -0.2845
  771MOL0     N 4001   6.804   5.020  11.056 -0.2666  0.5949 -0.0006
  771MOL0     N 4002   6.860   4.943  11.141 -0.4719  0.0387 -0.9676
  771MOL0     C 4003   5.958   4.113  10.692  0.2212 -0.1986  0.0707
  771MOL0     C 4004   5.872   4.024  10.632  0.7276  0.1101 -1.0900
  771MOL0     C 4005   5.493   3.859  10.508 -0.3759  0.2284  0.0239
  771MOL0     C 4006   5.529   3.773  10.409  0.2335 -0.2341  1.0904
  771MOL0     C 4007   5.449   3.670  10.360 -0.7920 -0.0891 -0.2541
  771MOL0     C 4008   5.322   3.649  10.416 -0.9766  1.1909  0.7101
  771MOL0     O 4009   5.227   3.556  10.382 -0.1087  0.1950  0.0829
  771MOL0     C 4010   5.272   3.454  10.293 -0.2000 -0.2813 -0.3527
  771MOL0     C 4011   5.161   3.348  10.316 -0.4184 -1.4970  0.2421
  771MOL0     C 4012   5.022   3.404  10.262  0.2365 -0.2326  0.3063
  771MOL0     C 4013   4.931   3.289  10.248  0.1070  0.3798  0.2698
  771MOL0     C 4014   4.951   3.204  10.129  0.4508 -0.2851 -0.7868
  771MOL0     C 4015   4.972   3.122  10.041  0.2026 -0.4179 -0.6175
  771MOL0     C 4016   5.287   3.734  10.517  0.0382 -0.1009 -0.2731
  771MOL0     C 4017   5.366   3.844  10.561 -0.5312  0.1593 -1.0697
  771MOL0     H 4018   5.713   4.234  10.430 -2.8848  1.3764  2.0818
  771MOL0     H 4019   5.887   4.389  10.527  1.1265 -0.5738 -0.2059
  771MOL0     H 4020   6.104   4.255  10.892 -2.0983  1.2427 -0.0731
  771MOL0     H 4021   6.231   4.236  10.773  2.1829  1.8537 -0.1167
  771MOL0     H 4022   6.230   4.494  10.771 -1.2394  0.0178 -0.4400
  771MOL0     H 4023   6.145   4.486  10.917  0.7739 -0.5718 -0.0741
  771MOL0     H 4024   6.329   4.324  11.014  0.8706 -0.3259  0.3399
  771MOL0     H 4025   6.422   4.354  10.877  1.4987 -0.0035  1.4604
  771MOL0     H 4026   6.390   4.619  10.936 -3.5495  2.4728  3.3782
  771MOL0     H 4027   6.379   4.549  11.096 -0.1754  0.7744 -0.7932
  771MOL0     H 4028   6.593   4.408  11.033  1.6621  0.0169  1.8337
  771MOL0     H 4029   6.605   4.515  10.895 -0.5837 -0.9652 -0.5866
  771MOL0     H 4030   6.640   4.716  11.040 -0.2493  0.6879  1.3155
  771MOL0     H 4031   6.598   4.606  11.178 -1.6289 -0.8935 -0.5946
  771MOL0     H 4032   6.819   4.492  11.127 -0.9435 -0.0397 -0.7367
  771MOL0     H 4033   6.822   4.578  10.971  1.8204 -3.7818  0.7749
  771MOL0     H 4034   6.993   4.636  11.141  0.4680  1.8993  0.5443
  771MOL0     H 4035   6.885   4.693  11.258 -0.5585  0.8385 -0.3934
  771MOL0     H 4036   6.924   4.772  10.867 -0.8127 -2.0250  1.7347
  771MOL0     H 4037   6.815   5.108  10.775 -0.9736  0.1902 -0.3538
  771MOL0     H 4038   6.825   4.948  10.730 -1.1984 -1.0665  1.3512
  771MOL0     H 4039   6.588   5.085  10.868 -0.3711 -1.6915  0.3737
  771MOL0     H 4040   6.592   4.914  10.834 -0.1093  0.2412  0.4306
  771MOL0     H 4041   6.612   4.969  10.581 -2.0041 -1.0054  1.0634
  771MOL0     H 4042   6.594   5.138  10.614 -4.2229  2.2274  0.0044
  771MOL0     H 4043   6.377   4.948  10.667  0.9637  0.4075  0.4665
  771MOL0     H 4044   6.414   5.033  10.515  0.2465 -3.1739 -0.1619
  771MOL0     H 4045   6.202   5.266  10.849  1.4029  0.3960 -0.0690
  771MOL0     H 4046   5.908   5.304  10.897 -0.3540  1.4269  0.2916
  771MOL0     H 4047   6.046   5.426  10.874  1.5054 -0.5238 -1.9804
  771MOL0     H 4048   5.882   5.431  10.799 -0.8691 -0.6812  2.1960
  771MOL0     H 4049   5.617   5.426  10.842 -0.0769 -0.8577  1.4126
  771MOL0     H 4050   5.398   5.531  10.801  2.6838  0.6590  0.6973
  771MOL0     H 4051   5.275   5.598  10.484 -0.9102  1.2020 -1.2628
  771MOL0     H 4052   5.162   5.476  10.429 -1.4650  0.3559  0.3176
  771MOL0     H 4053   5.091   5.683  10.647  3.6795  2.0452 -2.3313
  771MOL0     H 4054   5.060   5.707  10.476 -4.0328 -0.0453 -0.3333
  771MOL0     H 4055   4.943   5.475  10.617  1.0629 -1.0057 -1.1802
  771MOL0     H 4056   4.915   5.534  10.454 -0.1561  1.8943 -0.0295
  771MOL0     H 4057   4.838   5.662  10.710 -0.9765  1.1740 -0.9654
  771MOL0     H 4058   4.858   5.771  10.574 -3.7364  0.7183 -1.9047
  771MOL0     H 4059   4.692   5.660  10.438 -0.7557 -5.2293 -0.9281
  771MOL0     H 4060   4.631   5.734  10.591  0.6827 -0.0503  1.3096
  771MOL0     H 4061   4.695   5.446  10.518  3.5898  2.3439  0.1560
  771MOL0     H 4062   4.634   5.504  10.680 -1.0903  0.8209  0.3516
  771MOL0     H 4063   4.470   5.521  10.419 -1.2071  0.8942  0.4356
  771MOL0     H 4064   4.434   5.578  10.576 -0.6332 -0.3933  0.9849
  771MOL0     H 4065   4.333   5.329  10.522 -0.9820 -0.0230  1.2129
  771MOL0     H 4066   4.414   5.357  10.687  0.4960 -2.8594 -0.0535
  771MOL0     H 4067   5.333   5.310  10.444  1.9785  2.5664 -1.9794
  771MOL0     H 4068   5.570   5.199  10.473  2.4745  1.1026  0.1545
  771MOL0     H 4069   5.987   5.154  10.412 -0.2994  0.5194  0.0486
  771MOL0     H 4070   6.212   5.086  10.442 -3.6614 -2.9171  0.0962
  771MOL0     H 4071   6.016   4.064  10.770 -0.7430 -2.0702 -0.3242
  771MOL0     H 4072   5.860   3.926  10.677  1.7593  1.5392  2.6275
  771MOL0     H 4073   5.627   3.778  10.364  0.1793 -3.7616  0.3170
  771MOL0     H 4074   5.490   3.612  10.278 -0.7253 -1.4781  0.7251
  771MOL0     H 4075   5.279   3.484  10.188 -0.4316  0.5995 -0.1226
  771MOL0     H 4076   5.367   3.410  10.326  0.6070  1.5127 -0.1798
  771MOL0     H 4077   5.168   3.325  10.423 -1.1123 -0.7565  0.4508
  771MOL0     H 4078   5.180   3.254  10.262  1.6637 -0.6777 -0.5651
  771MOL0     H 4079   5.026   3.446  10.161  3.9734 -3.4782 -1.1399
  771MOL0     H 4080   4.987   3.482  10.331  0.3618  0.2516 -0.1700
  771MOL0     H 4081   4.831   3.334  10.247 -1.1556 -2.1754  1.7846
  771MOL0     H 4082   4.948   3.225  10.335  4.2934  0.6624 -0.1354
  771MOL0     H 4083   4.992   3.051   9.964  0.3135 -1.0205 -0.0417
  771MOL0     H 4084   5.186   3.731  10.558 -0.4579  3.3980 -0.9668
  771MOL0     H 4085   5.332   3.904  10.644  0.9528  1.5352 -1.3946
  772MOL0     O 4086   9.741  11.202   6.404 -0.1957 -0.6531  0.2201
  772MOL0     C 4087   9.790  11.314   6.397  0.0058  0.5812  0.0283
  772MOL0     O 4088   9.722  11.427   6.390  0.3130  0.2812  0.0177
  772MOL0     C 4089   9.586  11.431   6.408 -0.1883  0.4754  0.8368
  772MOL0     C 4090   9.501  11.350   6.486 -0.7102 -0.6331  0.7461
  772MOL0     C 4091   9.359  11.354   6.459 -0.0856  0.1872  1.2574
  772MOL0     C 4092   9.304  11.449   6.373  0.5226  0.5563  0.2622
  772MOL0     O 4093   9.170  11.465   6.352 -0.5179 -0.6662  0.1387
  772MOL0     C 4094   9.073  11.369   6.402 -0.6291 -0.2802 -0.5664
  772MOL0     C 4095   8.935  11.407   6.358  0.6213 -0.1698 -0.1127
  772MOL0     C 4096   8.831  11.314   6.425  0.9953  0.0868  0.0199
  772MOL0     C 4097   8.688  11.365   6.381  0.8613  0.5594 -0.7428
  772MOL0     C 4098   8.583  11.274   6.448 -0.3126 -0.4300 -0.7776
  772MOL0     C 4099   8.444  11.308   6.403 -0.3063  0.2717  1.1689
  772MOL0     C 4100   8.345  11.203   6.458  0.3067  0.2611  0.3064
  772MOL0     C 4101   8.198  11.232   6.406  0.3973  0.1329  0.0559
  772MOL0     N 4102   8.101  11.124   6.442 -0.9348 -0.3881 -0.3537
  772MOL0     C 4103   8.077  11.010   6.367 -0.2789  0.0097  0.0578
  772MOL0     C 4104   7.985  10.945   6.453 -0.3685 -0.0698 -0.1890
  772MOL0     C 4105   7.943  10.803   6.420 -0.9818  0.0504  0.1342
  772MOL0     C 4106   7.830  10.750   6.504  0.1187  0.4247 -0.4370
  772MOL0     C 4107   7.778  10.620   6.439 -0.4512 -0.3296  0.0990
  772MOL0     C 4108   7.711  10.527   6.538 -0.2057  0.4853  1.0486
  772MOL0     O 4109   7.709  10.393   6.487 -0.4694 -0.2670 -0.2662
  772MOL0     C 4110   7.673  10.289   6.568  0.6499  0.2932  0.0917
  772MOL0     C 4111   7.671  10.286   6.709 -0.0916  0.1762 -0.4890
  772MOL0     C 4112   7.624  10.173   6.784  0.3725  0.1008  0.5324
  772MOL0     C 4113   7.619  10.196   6.940  0.3329 -0.3199  0.7356
  772MOL0     C 4114   7.580  10.055   6.724  0.1120 -1.0760 -0.0275
  772MOL0     C 4115   7.528   9.935   6.798  0.0048 -0.1871 -0.2792
  772MOL0     O 4116   7.493   9.829   6.718 -0.7602 -0.3364  0.5216
  772MOL0     C 4117   7.450   9.704   6.763 -0.4779  0.1982 -1.2242
  772MOL0     C 4118   7.422   9.663   6.894 -0.2610  0.3012  0.2294
  772MOL0     C 4119   7.347   9.537   6.904 -1.6522  0.0622 -0.3176
  772MOL0     C 4120   7.300   9.463   6.801  0.3626  0.2040 -0.2610
  772MOL0     O 4121   7.232   9.351   6.812  1.2001  0.2111  0.0365
  772MOL0     C 4122   7.087   9.362   6.811 -0.6465  0.6089 -0.0933
  772MOL0     C 4123   7.015   9.236   6.853 -0.9085 -0.1071  0.1824
  772MOL0     C 4124   7.053   9.123   6.757 -0.3285 -0.1293 -0.0477
  772MOL0     C 4125   6.961   9.005   6.738  0.2601  0.1524  0.5425
  772MOL0     C 4126   7.013   8.908   6.623  0.2315 -0.2315  1.1765
  772MOL0     C 4127   6.920   8.790   6.606 -0.1727 -0.3334 -0.5626
  772MOL0     C 4128   6.943   8.716   6.473 -0.0858  1.4292  0.4283
  772MOL0     C 4129   6.848   8.756   6.369  0.0349  0.1596 -0.2806
  772MOL0    Cl 4130   6.883   8.932   6.310  0.5796  0.2107 -0.6593
  772MOL0     C 4131   7.332   9.499   6.677  0.0961 -0.2838 -0.1841
  772MOL0     C 4132   7.403   9.622   6.656  0.0521 -0.3018 -0.9396
  772MOL0     O 4133   7.528   9.930   6.921  0.2997  0.3080 -0.8417
  772MOL0     C 4134   7.583  10.055   6.582  0.5254  0.7932  0.2246
  772MOL0     C 4135   7.633  10.164   6.508 -0.4698  0.6691  0.0080
  772MOL0     N 4136   7.952  11.018   6.566 -0.3489  0.0767 -0.1073
  772MOL0     N 4137   8.030  11.123   6.560 -0.2383  0.6285 -0.2607
  772MOL0     C 4138   9.388  11.530   6.308 -0.7568 -0.0817 -0.7389
  772MOL0     C 4139   9.529  11.524   6.325  0.6014  0.2500 -0.9518
  772MOL0     C 4140   9.939  11.340   6.406  0.4991 -0.4214  0.2039
  772MOL0     C 4141   9.994  11.457   6.345  0.4299  0.8046 -0.8185
  772MOL0     C 4142  10.110  11.498   6.382 -0.5099  0.6816 -1.0816
  772MOL0     C 4143  10.194  11.432   6.477  0.2264 -0.4652  0.2503
  772MOL0     O 4144  10.326  11.472   6.509 -0.7131 -0.6061  0.0659
  772MOL0     C 4145  10.363  11.609   6.514  0.5613 -0.3468 -0.2663
  772MOL0     C 4146  10.514  11.628   6.513 -0.7618  0.4584 -0.0048
  772MOL0     C 4147  10.584  11.581   6.381  1.1205  0.8247 -0.6316
  772MOL0     C 4148  10.750  11.562   6.385 -0.7967 -0.1481  0.2888
  772MOL0     C 4149  10.786  11.551   6.248 -0.8599  0.2435  0.0533
  772MOL0     C 4150  10.842  11.540   6.141 -0.1367  0.5124  0.0311
  772MOL0     C 4151  10.149  11.313   6.521  0.8257  1.2657 -0.2284
  772MOL0     C 4152  10.023  11.258   6.489 -0.1693  0.0520  0.7440
  772MOL0     H 4153   9.538  11.271   6.550  1.2333 -0.4849 -0.1271
  772MOL0     H 4154   9.288  11.275   6.481 -0.2997 -0.7472 -2.2296
  772MOL0     H 4155   9.102  11.267   6.375  1.6604 -0.5171  2.2593
  772MOL0     H 4156   9.076  11.380   6.510  2.2219  1.4192 -0.6924
  772MOL0     H 4157   8.919  11.508   6.399 -1.8909 -1.1642  1.6750
  772MOL0     H 4158   8.931  11.423   6.250  1.6600  3.0939  0.2215
  772MOL0     H 4159   8.836  11.207   6.400  0.1432  0.1731 -0.5958
  772MOL0     H 4160   8.834  11.327   6.533  1.0755 -1.5551  0.2450
  772MOL0     H 4161   8.664  11.468   6.408  0.6580  0.3531 -0.1126
  772MOL0     H 4162   8.660  11.357   6.275 -2.6184 -1.0785  0.1646
  772MOL0     H 4163   8.610  11.171   6.422 -1.5862 -1.4802  1.6957
  772MOL0     H 4164   8.591  11.293   6.556 -0.1798 -0.9392 -0.6928
  772MOL0     H 4165   8.409  11.411   6.402  2.0269  1.1807  2.9515
  772MOL0     H 4166   8.446  11.279   6.298  0.3286  0.3899  1.1449
  772MOL0     H 4167   8.382  11.105   6.427  1.4445  0.6839  0.2517
  772MOL0     H 4168   8.349  11.213   6.567 -1.2868  0.4881  0.3701
  772MOL0     H 4169   8.200  11.252   6.298 -3.1617 -0.4170 -0.2086
  772MOL0     H 4170   8.158  11.322   6.454 -0.9531  0.8470 -2.2401
  772MOL0     H 4171   8.123  10.971   6.277  1.9098 -0.4240  1.2877
  772MOL0     H 4172   7.916  10.793   6.314  0.9769  2.0410 -0.6157
  772MOL0     H 4173   8.023  10.732   6.439 -2.2284 -1.6307 -0.5930
  772MOL0     H 4174   7.753  10.827   6.509  3.7160  4.5650 -1.8069
  772MOL0     H 4175   7.867  10.718   6.602 -1.2844  0.1425  0.0163
  772MOL0     H 4176   7.863  10.558   6.409  2.9472  1.3245  5.0566
  772MOL0     H 4177   7.716  10.642   6.351  2.3554 -1.9571 -2.4655
  772MOL0     H 4178   7.616  10.569   6.571 -0.3934  0.5577  0.4339
  772MOL0     H 4179   7.779  10.523   6.624 -1.0600  1.2548  1.7875
  772MOL0     H 4180   7.708  10.376   6.757 -0.1962 -0.0433  0.0173
  772MOL0     H 4181   7.523  10.169   6.984  1.0011 -0.8689  1.8946
  772MOL0     H 4182   7.684  10.128   6.996  0.4417 -2.2057 -1.4979
  772MOL0     H 4183   7.645  10.301   6.957 -0.3809  0.1217 -0.6912
  772MOL0     H 4184   7.450   9.715   6.985 -1.8468 -2.0322  2.2202
  772MOL0     H 4185   7.310   9.498   6.998 -1.4646 -1.1177 -0.7260
  772MOL0     H 4186   7.038   9.435   6.876 -1.4752  0.3734 -0.4276
  772MOL0     H 4187   7.060   9.378   6.706  3.7340 -1.5522 -1.7675
  772MOL0     H 4188   7.056   9.215   6.953 -0.0039  1.5382  0.1992
  772MOL0     H 4189   6.907   9.252   6.850 -0.7626  0.7681 -2.1165
  772MOL0     H 4190   7.147   9.079   6.793 -1.0732  0.0108  2.2385
  772MOL0     H 4191   7.090   9.170   6.665  1.0039 -0.1941  0.4328
  772MOL0     H 4192   6.935   8.950   6.829 -2.0247  0.4860  0.1551
  772MOL0     H 4193   6.867   9.051   6.707 -0.3463 -1.5104 -0.2383
  772MOL0     H 4194   7.116   8.872   6.634  0.5977 -0.5344 -2.2411
  772MOL0     H 4195   7.019   8.976   6.538  2.1108 -1.8282 -0.0641
  772MOL0     H 4196   6.953   8.715   6.678  0.5139  1.3255  0.9120
  772MOL0     H 4197   6.813   8.809   6.621 -0.0938 -1.7272  2.5326
  772MOL0     H 4198   6.931   8.608   6.488  2.5272  1.3587  2.7811
  772MOL0     H 4199   7.048   8.721   6.442 -0.7845  4.1113 -1.8439
  772MOL0     H 4200   6.748   8.762   6.413  0.2969  1.9599  0.1493
  772MOL0     H 4201   6.832   8.683   6.289 -2.7133  1.3107 -0.9358
  772MOL0     H 4202   7.300   9.462   6.581  0.2591 -0.7799 -0.0533
  772MOL0     H 4203   7.414   9.655   6.553 -0.5095 -0.9199 -1.2080
  772MOL0     H 4204   7.545   9.973   6.522  2.4851 -1.5053  1.9037
  772MOL0     H 4205   7.628  10.162   6.400  0.3393  0.6342 -0.0406
  772MOL0     H 4206   9.353  11.606   6.239 -1.9129  1.3258  1.2980
  772MOL0     H 4207   9.599  11.594   6.281  2.0935 -0.0238  0.8606
  772MOL0     H 4208   9.927  11.518   6.285 -2.2612  0.7702  1.9296
  772MOL0     H 4209  10.138  11.600   6.357  1.4326  0.6677  0.6731
  772MOL0     H 4210  10.313  11.664   6.433 -0.0552 -2.0401 -1.0888
  772MOL0     H 4211  10.332  11.649   6.611  0.8149 -0.9288  0.0597
  772MOL0     H 4212  10.542  11.572   6.602 -4.5268  4.1031  4.0175
  772MOL0     H 4213  10.532  11.734   6.535  2.8841 -0.1740  0.6422
  772MOL0     H 4214  10.549  11.663   6.318 -3.6193 -0.4849 -0.0596
  772MOL0     H 4215  10.543  11.485   6.350  2.2923 -0.3200  1.2123
  772MOL0     H 4216  10.788  11.470   6.432  2.9098 -0.8213 -3.3677
  772MOL0     H 4217  10.802  11.648   6.428  1.6104 -1.2063 -0.3128
  772MOL0     H 4218  10.897  11.545   6.048  0.5813 -0.8240  0.3574
  772MOL0     H 4219  10.209  11.247   6.583 -1.2345  1.3946  2.0938
  772MOL0     H 4220   9.993  11.166   6.538  1.9613 -1.0366  0.1179
  773MOL0     O 4221   7.058   6.443   2.354  0.2435  0.2745  0.2607
  773MOL0     C 4222   7.177   6.455   2.374 -1.4829  0.4151  0.2241
  773MOL0     O 4223   7.234   6.536   2.470 -0.1641 -0.3106 -0.5411
  773MOL0     C 4224   7.178   6.654   2.506  0.1486 -0.1026  0.2859
  773MOL0     C 4225   7.130   6.675   2.637 -0.5280  0.6447  0.3500
  773MOL0     C 4226   7.058   6.785   2.664 -0.5402 -0.5422 -0.4961
  773MOL0     C 4227   7.030   6.890   2.572  0.8332 -0.1463 -0.3742
  773MOL0     O 4228   6.962   7.018   2.595 -0.6026  0.0969 -0.8214
  773MOL0     C 4229   6.959   7.067   2.734 -0.2581 -0.4216  0.2519
  773MOL0     C 4230   6.847   7.013   2.819  0.1284  0.2447  0.6700
  773MOL0     C 4231   6.854   7.055   2.971 -0.1904 -0.4183  0.0518
  773MOL0     C 4232   6.915   7.185   2.997 -0.0814 -0.3329 -0.0132
  773MOL0     C 4233   6.914   7.225   3.146  0.2991 -0.2141  0.3639
  773MOL0     C 4234   7.007   7.339   3.180 -0.0625 -0.2689  0.0321
  773MOL0     C 4235   6.971   7.472   3.118 -0.3933  0.7033 -0.0420
  773MOL0     C 4236   6.829   7.520   3.124  0.0748  0.2014  0.2939
  773MOL0     N 4237   6.790   7.568   3.261  0.4525  0.3068 -0.1469
  773MOL0     C 4238   6.667   7.531   3.312 -0.2186 -0.0868  0.3658
  773MOL0     C 4239   6.647   7.612   3.416  0.6377 -0.5727 -0.1890
  773MOL0     C 4240   6.540   7.594   3.514 -0.5270 -0.5855 -0.1520
  773MOL0     C 4241   6.399   7.640   3.456  1.0281 -0.3725  0.6937
  773MOL0     C 4242   6.367   7.788   3.485  0.8881 -0.9720  0.1104
  773MOL0     C 4243   6.219   7.832   3.474 -0.0666 -0.2298 -0.1989
  773MOL0     O 4244   6.158   7.771   3.362  0.0030 -0.0993 -0.9630
  773MOL0     C 4245   6.039   7.826   3.323 -0.0352  0.3324  0.0044
  773MOL0     C 4246   5.951   7.905   3.403  0.2373  0.0943 -0.2880
  773MOL0     C 4247   5.822   7.942   3.359  0.6822 -0.8778 -0.4461
  773MOL0     C 4248   5.745   8.032   3.452  0.0681 -0.6986 -0.1820
  773MOL0     C 4249   5.782   7.903   3.224 -0.5969 -0.4898 -0.5672
  773MOL0     C 4250   5.650   7.938   3.159 -0.5734  0.8149 -0.5153
  773MOL0     O 4251   5.643   7.903   3.024  0.4102  0.0898  0.6232
  773MOL0     C 4252   5.536   7.921   2.937  0.6266  0.1181  0.2005
  773MOL0     C 4253   5.412   7.987   2.953  0.0678  0.0537  0.1041
  773MOL0     C 4254   5.315   7.979   2.853 -0.3112 -0.0569 -0.5973
  773MOL0     C 4255   5.333   7.908   2.736  0.0089 -0.3160  0.0278
  773MOL0     O 4256   5.225   7.911   2.649  0.4809 -0.3593 -0.0102
  773MOL0     C 4257   5.268   7.946   2.512 -0.1069  0.1491  0.3122
  773MOL0     C 4258   5.252   7.817   2.422 -0.7055 -0.5081  0.1024
  773MOL0     C 4259   5.100   7.794   2.398  0.4987 -0.6550  0.3933
  773MOL0     C 4260   5.051   7.689   2.296 -0.4804  0.4507 -0.2438
  773MOL0     C 4261   4.904   7.665   2.302  0.2610 -0.7489 -0.3018
  773MOL0     C 4262   4.828   7.777   2.225  0.5632 -0.7758  0.2908
  773MOL0     C 4263   4.679   7.742   2.239 -0.5678  0.1867  0.4056
  773MOL0     C 4264   4.582   7.837   2.174  0.3602  0.2702 -0.7523
  773MOL0    Cl 4265   4.634   7.910   2.014  0.3441  0.5187  0.4002
  773MOL0     C 4266   5.448   7.837   2.720  0.6119  0.5205  0.8306
  773MOL0     C 4267   5.545   7.841   2.822  0.1033 -0.3277 -0.1389
  773MOL0     O 4268   5.561   7.983   3.233  0.6746  0.4964 -1.0474
  773MOL0     C 4269   5.873   7.830   3.146  0.4088  0.4189 -0.2820
  773MOL0     C 4270   5.990   7.786   3.193 -0.7229 -0.0716 -0.5158
  773MOL0     N 4271   6.747   7.709   3.423 -0.0139 -0.0453 -0.9779
  773MOL0     N 4272   6.828   7.690   3.319 -0.9114 -0.1434 -0.0009
  773MOL0     C 4273   7.074   6.867   2.443  0.1321  0.2712 -0.6864
  773MOL0     C 4274   7.150   6.759   2.414 -0.7167 -0.2279 -0.9508
  773MOL0     C 4275   7.266   6.376   2.285  0.8520  0.2824  0.1030
  773MOL0     C 4276   7.401   6.402   2.267 -0.7816 -0.2134 -0.7506
  773MOL0     C 4277   7.486   6.344   2.181  0.1341  0.3853  0.6555
  773MOL0     C 4278   7.431   6.251   2.084 -0.3816  0.1437  0.3593
  773MOL0     O 4279   7.527   6.199   1.991 -0.6939 -0.1195 -0.0742
  773MOL0     C 4280   7.483   6.099   1.894 -0.4245  0.6698 -0.3113
  773MOL0     C 4281   7.476   5.956   1.965 -0.8970  1.1447  0.6120
  773MOL0     C 4282   7.595   5.936   2.053  0.4807  0.8839 -0.4827
  773MOL0     C 4283   7.722   5.928   1.968  0.6196  0.2079  0.3462
  773MOL0     C 4284   7.812   5.826   2.008  0.8586 -0.2024  0.0256
  773MOL0     C 4285   7.878   5.736   2.052 -0.1526 -0.2398 -0.2211
  773MOL0     C 4286   7.297   6.219   2.095 -0.2243  1.0208  0.5532
  773MOL0     C 4287   7.221   6.276   2.196  0.4569 -0.5509  0.0252
  773MOL0     H 4288   7.137   6.588   2.701  1.5685  1.4644  1.3582
  773MOL0     H 4289   7.018   6.805   2.763  0.1801  1.1891 -0.5216
  773MOL0     H 4290   7.048   7.047   2.794 -1.5979 -2.6759  1.6162
  773MOL0     H 4291   6.937   7.174   2.735  1.5800  0.0561  3.6869
  773MOL0     H 4292   6.749   7.039   2.777  0.8373 -2.7547 -3.3974
  773MOL0     H 4293   6.842   6.905   2.833  0.8409  0.0774 -0.2811
  773MOL0     H 4294   6.754   7.046   3.014  0.2230 -0.5735  1.0038
  773MOL0     H 4295   6.911   6.976   3.020 -1.6371 -0.6451  1.4267
  773MOL0     H 4296   7.018   7.187   2.960  0.1887  0.9334  0.7568
  773MOL0     H 4297   6.864   7.262   2.937 -0.2065 -0.3517  0.0680
  773MOL0     H 4298   6.818   7.269   3.176  0.9245  1.0359  0.6073
  773MOL0     H 4299   6.935   7.135   3.203  0.2592 -0.5013 -0.0711
  773MOL0     H 4300   7.010   7.347   3.289 -2.5941  0.9810  0.0995
  773MOL0     H 4301   7.109   7.319   3.148  0.5277  2.3755 -0.0298
  773MOL0     H 4302   7.034   7.553   3.155 -0.3577  0.6869 -0.0669
  773MOL0     H 4303   6.996   7.466   3.012  0.1320  1.0575  0.0596
  773MOL0     H 4304   6.751   7.455   3.084  0.2582 -0.7457  1.4380
  773MOL0     H 4305   6.838   7.606   3.056  0.1384 -1.0217 -1.3102
  773MOL0     H 4306   6.604   7.450   3.276 -1.6641  0.8594  0.6814
  773MOL0     H 4307   6.539   7.492   3.552  1.1678  0.6169  3.5751
  773MOL0     H 4308   6.547   7.652   3.607 -0.0674 -2.1406  0.8114
  773MOL0     H 4309   6.318   7.582   3.500 -3.0834  1.8891 -3.1169
  773MOL0     H 4310   6.401   7.616   3.349  2.5948  2.8594 -0.1562
  773MOL0     H 4311   6.432   7.853   3.426 -0.0251  3.4860  3.4964
  773MOL0     H 4312   6.400   7.807   3.587 -1.6789 -0.3994  0.9197
  773MOL0     H 4313   6.209   7.941   3.472  1.5237 -0.0546 -0.6087
  773MOL0     H 4314   6.160   7.800   3.561 -2.4052  0.9692 -1.2635
  773MOL0     H 4315   5.980   7.933   3.504 -1.3304  2.5877 -0.4485
  773MOL0     H 4316   5.683   7.973   3.520  0.2739  0.3900  0.9955
  773MOL0     H 4317   5.799   8.103   3.515 -0.6316  1.3124 -1.7080
  773MOL0     H 4318   5.689   8.097   3.383 -0.2580 -1.4866 -0.6683
  773MOL0     H 4319   5.396   8.037   3.049 -0.9415  0.0435 -0.0500
  773MOL0     H 4320   5.220   8.028   2.871 -2.0911 -3.4835  0.1754
  773MOL0     H 4321   5.208   8.031   2.478  1.0445 -0.2781 -3.1698
  773MOL0     H 4322   5.372   7.978   2.503  0.4778 -1.9808 -1.4708
  773MOL0     H 4323   5.297   7.829   2.323 -0.8072 -0.3485  0.0754
  773MOL0     H 4324   5.294   7.730   2.473 -0.4789 -0.9809 -0.8545
  773MOL0     H 4325   5.055   7.884   2.356 -0.2677 -2.8597 -4.1939
  773MOL0     H 4326   5.057   7.762   2.493 -0.4869 -1.3345 -0.2611
  773MOL0     H 4327   5.083   7.720   2.196  2.3304 -0.2384  0.3527
  773MOL0     H 4328   5.099   7.592   2.308  1.4734  1.5871  1.8845
  773MOL0     H 4329   4.870   7.665   2.406 -0.8079 -0.7967 -0.6433
  773MOL0     H 4330   4.870   7.570   2.260  0.7337 -1.7619  1.4990
  773MOL0     H 4331   4.854   7.881   2.245 -1.6738 -0.5236  2.4330
  773MOL0     H 4332   4.861   7.766   2.121 -0.7259  1.4747 -0.4252
  773MOL0     H 4333   4.661   7.742   2.347 -0.9754  0.2774  0.3388
  773MOL0     H 4334   4.667   7.638   2.206 -2.7957  0.1056  1.3362
  773MOL0     H 4335   4.576   7.928   2.236 -1.6150  0.3521 -1.0259
  773MOL0     H 4336   4.488   7.783   2.167 -0.1212  0.5072  2.2744
  773MOL0     H 4337   5.470   7.770   2.638  2.5712  0.5191  1.2962
  773MOL0     H 4338   5.635   7.780   2.820  0.9057  0.8107 -0.1093
  773MOL0     H 4339   5.842   7.798   3.047  0.7386  0.6879 -0.4735
  773MOL0     H 4340   6.057   7.725   3.133 -0.7546 -3.0282  2.2635
  773MOL0     H 4341   7.039   6.951   2.384 -1.2333 -0.5714 -1.1291
  773MOL0     H 4342   7.182   6.728   2.315  3.9209 -0.7293  0.4541
  773MOL0     H 4343   7.446   6.470   2.339 -0.3265 -0.4236 -0.8308
  773MOL0     H 4344   7.590   6.375   2.183  0.8730 -1.5459 -2.0492
  773MOL0     H 4345   7.383   6.109   1.849 -1.1990  1.2858  1.4778
  773MOL0     H 4346   7.546   6.089   1.805 -2.4807 -0.0340 -1.7593
  773MOL0     H 4347   7.472   5.873   1.893  2.3486 -0.8704  2.5123
  773MOL0     H 4348   7.393   5.953   2.035 -0.0026 -1.4699  1.6672
  773MOL0     H 4349   7.594   5.841   2.107 -1.7987  1.8456  1.3529
  773MOL0     H 4350   7.596   6.011   2.133 -0.5060  0.1104  0.2831
  773MOL0     H 4351   7.778   6.021   1.960  0.5532  0.2384  0.2267
  773MOL0     H 4352   7.705   5.897   1.865 -0.2026 -1.8828  1.0501
  773MOL0     H 4353   7.941   5.659   2.092 -0.1342 -1.0815 -1.7634
  773MOL0     H 4354   7.248   6.146   2.031  1.4730 -0.3574  0.7474
  773MOL0     H 4355   7.114   6.255   2.207 -0.5166  2.2851 -2.8051
  774MOL0     O 4356  10.958   8.590   8.385 -0.1505 -0.3776 -0.4864
  774MOL0     C 4357  11.054   8.623   8.454 -0.4177  1.1442  0.8245
  774MOL0     O 4358  11.087   8.744   8.490 -0.4220 -0.3060 -0.1752
  774MOL0     C 4359  11.016   8.850   8.434 -0.8447 -0.7282  0.1633
  774MOL0     C 4360  11.068   8.917   8.322 -0.6167  0.4025  0.2750
  774MOL0     C 4361  11.002   9.018   8.255 -0.0824  0.0899  1.1500
  774MOL0     C 4362  10.880   9.060   8.308 -0.6765  0.2621 -0.2453
  774MOL0     O 4363  10.813   9.163   8.247  0.5563 -0.1362 -0.4831
  774MOL0     C 4364  10.806   9.178   8.104 -0.0307  0.2509 -0.7435
  774MOL0     C 4365  10.677   9.242   8.058  0.0873  0.4014  1.3220
  774MOL0     C 4366  10.673   9.398   8.062  0.3390  0.5376  0.4161
  774MOL0     C 4367  10.534   9.451   8.045  0.4135  0.7260 -0.4622
  774MOL0     C 4368  10.541   9.603   8.058 -0.7055  0.0338  0.5123
  774MOL0     C 4369  10.586   9.684   7.927  0.0182  0.5756  0.9201
  774MOL0     C 4370  10.584   9.837   7.945  0.2289 -0.4331  0.2780
  774MOL0     C 4371  10.616   9.925   7.826  0.1657  0.0096 -0.6784
  774MOL0     N 4372  10.567  10.060   7.861  0.7493  1.0386  0.0600
  774MOL0     C 4373  10.603  10.140   7.970 -0.2182  0.2749 -0.0454
  774MOL0     C 4374  10.539  10.257   7.951  0.7352 -0.6632  0.0040
  774MOL0     C 4375  10.535  10.387   8.033 -0.7379  0.8158 -1.2839
  774MOL0     C 4376  10.545  10.507   7.937  0.2754 -0.0787 -0.5393
  774MOL0     C 4377  10.676  10.505   7.856 -0.0416  0.1063  1.2614
  774MOL0     C 4378  10.661  10.635   7.762 -0.5893 -0.0730  0.2751
  774MOL0     O 4379  10.686  10.756   7.838  0.4152 -0.3073  0.0085
  774MOL0     C 4380  10.671  10.887   7.785  0.3735 -0.1620 -0.2853
  774MOL0     C 4381  10.636  10.915   7.653  0.2572  0.0437 -1.0957
  774MOL0     C 4382  10.615  11.046   7.617 -0.0949 -0.6839  1.0422
  774MOL0     C 4383  10.547  11.076   7.492  1.1452  0.0344  0.2274
  774MOL0     C 4384  10.640  11.156   7.700  0.6250 -0.2211  0.1365
  774MOL0     C 4385  10.631  11.303   7.665 -0.5017 -0.0356  0.4464
  774MOL0     O 4386  10.660  11.349   7.534  0.2138  0.2229 -0.3611
  774MOL0     C 4387  10.614  11.473   7.508 -0.1916  0.1747 -0.0458
  774MOL0     C 4388  10.696  11.584   7.542  0.4635 -0.4561  1.0324
  774MOL0     C 4389  10.640  11.702   7.502  0.6825 -1.1916 -0.1450
  774MOL0     C 4390  10.535  11.719   7.410 -0.2162 -0.1695 -1.0112
  774MOL0     O 4391  10.511  11.845   7.358 -0.5504 -0.1827 -0.0454
  774MOL0     C 4392  10.395  11.867   7.276 -0.1375 -0.8704  0.7332
  774MOL0     C 4393  10.399  12.023   7.247  0.2994 -0.5864  0.0200
  774MOL0     C 4394  10.326  12.065   7.120  0.5616 -0.8138 -0.7757
  774MOL0     C 4395  10.174  12.092   7.139  1.6875 -0.3349  0.2792
  774MOL0     C 4396  10.116  12.121   7.000  1.6050 -0.0761  0.5433
  774MOL0     C 4397  10.141  12.268   6.971 -0.4555  0.0988 -0.1614
  774MOL0     C 4398  10.112  12.311   6.833 -0.2842 -0.2416  0.9982
  774MOL0     C 4399   9.952  12.320   6.817 -0.2455 -0.3846 -0.3982
  774MOL0    Cl 4400   9.887  12.440   6.934  0.2723  0.0832  0.5330
  774MOL0     C 4401  10.454  11.613   7.374 -0.1208  0.7113 -0.3033
  774MOL0     C 4402  10.498  11.483   7.427  0.6884  0.2341 -0.4901
  774MOL0     O 4403  10.600  11.368   7.763 -0.0371  0.5866  1.2130
  774MOL0     C 4404  10.672  11.128   7.837 -0.1849  0.7286 -0.1380
  774MOL0     C 4405  10.692  10.992   7.879  0.1215  0.8801 -0.2271
  774MOL0     N 4406  10.459  10.246   7.842 -0.6247  0.4527 -0.2919
  774MOL0     N 4407  10.472  10.127   7.797  0.9597  0.0325  0.4811
  774MOL0     C 4408  10.838   9.002   8.425 -0.3877 -0.2343  0.1782
  774MOL0     C 4409  10.895   8.891   8.486 -0.2784 -0.8162  0.3329
  774MOL0     C 4410  11.130   8.511   8.517 -0.0183  0.2883  0.4154
  774MOL0     C 4411  11.198   8.532   8.639  0.4787 -0.1652 -0.5543
  774MOL0     C 4412  11.264   8.437   8.713 -0.6658 -0.2030 -0.8178
  774MOL0     C 4413  11.273   8.312   8.658  0.3804 -0.2711  0.0041
  774MOL0     O 4414  11.355   8.230   8.727 -0.5610  0.4580 -0.7974
  774MOL0     C 4415  11.431   8.133   8.652  0.0604 -0.8852 -0.8371
  774MOL0     C 4416  11.542   8.093   8.744 -0.0714 -0.8390 -0.1491
  774MOL0     C 4417  11.502   7.982   8.821  0.7956 -0.0457  0.3430
  774MOL0     C 4418  11.625   7.895   8.858  0.8658  0.2808  0.6704
  774MOL0     C 4419  11.720   7.978   8.937  0.4605  0.3361  0.2564
  774MOL0     C 4420  11.795   8.049   8.994 -0.2013 -0.0601 -0.3520
  774MOL0     C 4421  11.189   8.273   8.548  0.5969 -0.5948 -0.0568
  774MOL0     C 4422  11.116   8.371   8.492  0.4190 -1.0678 -0.4427
  774MOL0     H 4423  11.168   8.890   8.288 -0.1483 -1.5397  2.9178
  774MOL0     H 4424  11.038   9.070   8.167 -0.8315  0.3455  0.9930
  774MOL0     H 4425  10.895   9.233   8.072  0.8131  0.6721  2.0923
  774MOL0     H 4426  10.807   9.077   8.062 -1.9786 -1.0440  2.0080
  774MOL0     H 4427  10.673   9.207   7.954 -1.5979  2.8334  0.4894
  774MOL0     H 4428  10.595   9.207   8.121  1.1189  0.1434  2.5702
  774MOL0     H 4429  10.711   9.435   8.157  0.7527  1.2918 -0.0286
  774MOL0     H 4430  10.740   9.425   7.979 -0.0130 -3.5298 -1.4771
  774MOL0     H 4431  10.479   9.429   7.953 -1.1624  1.9296  0.1531
  774MOL0     H 4432  10.479   9.411   8.131  2.0492  2.9284  1.7719
  774MOL0     H 4433  10.445   9.642   8.092 -2.4202 -2.8526 -0.5528
  774MOL0     H 4434  10.612   9.633   8.135 -2.4963 -2.3145  3.3235
  774MOL0     H 4435  10.687   9.650   7.906 -0.1396  0.6830 -0.0454
  774MOL0     H 4436  10.519   9.658   7.844 -0.4793  0.1800  1.4301
  774MOL0     H 4437  10.483   9.857   7.981  0.5725 -1.0211  1.6469
  774MOL0     H 4438  10.652   9.846   8.030  0.2071 -3.3533  0.7098
  774MOL0     H 4439  10.563   9.891   7.736  3.5756  1.2196 -3.3366
  774MOL0     H 4440  10.722   9.921   7.798  1.0319  0.4814  2.2403
  774MOL0     H 4441  10.678  10.126   8.048  0.9499  2.7766 -0.6153
  774MOL0     H 4442  10.442  10.372   8.088  0.8736  2.0497  2.0424
  774MOL0     H 4443  10.615  10.382   8.107 -0.7219 -0.2263 -1.3537
  774MOL0     H 4444  10.544  10.604   7.987 -0.3427  1.4171 -3.2265
  774MOL0     H 4445  10.451  10.498   7.882  0.0110  1.0278 -0.2963
  774MOL0     H 4446  10.675  10.413   7.796 -2.1317 -2.1349  4.4682
  774MOL0     H 4447  10.766  10.513   7.918  2.2446  2.0658 -1.9047
  774MOL0     H 4448  10.566  10.645   7.710  0.2615  1.3955 -1.0714
  774MOL0     H 4449  10.743  10.627   7.690  1.3360  4.0926  1.6173
  774MOL0     H 4450  10.609  10.832   7.589 -3.1668 -1.1064  1.5527
  774MOL0     H 4451  10.470  11.153   7.504  1.3083  0.2558 -0.1126
  774MOL0     H 4452  10.625  11.102   7.420  0.9201 -3.0486 -1.2910
  774MOL0     H 4453  10.504  10.989   7.441  4.8320 -1.2276 -1.0667
  774MOL0     H 4454  10.778  11.584   7.613  2.2059  4.1096 -0.5689
  774MOL0     H 4455  10.694  11.792   7.530 -2.0984  0.5149  0.0858
  774MOL0     H 4456  10.407  11.814   7.181  4.0407 -0.5607  0.9146
  774MOL0     H 4457  10.309  11.827   7.330 -1.6978  1.8222  0.3950
  774MOL0     H 4458  10.362  12.081   7.333 -4.2232 -3.3866  0.3145
  774MOL0     H 4459  10.507  12.031   7.232  0.7681 -3.7983  0.9209
  774MOL0     H 4460  10.337  11.986   7.046 -2.3463 -0.2370 -1.9273
  774MOL0     H 4461  10.376  12.152   7.076  1.8848 -0.3312  1.5113
  774MOL0     H 4462  10.140  12.001   7.189  0.2687 -0.3161 -0.5936
  774MOL0     H 4463  10.168  12.176   7.208 -2.0618  0.8063 -1.1729
  774MOL0     H 4464  10.010  12.093   6.999  1.1680  1.3613  2.0585
  774MOL0     H 4465  10.178  12.069   6.927  0.0288 -0.7635 -0.3469
  774MOL0     H 4466  10.100  12.333   7.048  2.0662  0.2648  1.1395
  774MOL0     H 4467  10.248  12.285   6.988 -0.9710  0.7685  3.1196
  774MOL0     H 4468  10.143  12.237   6.758  0.0038  2.3902 -1.6402
  774MOL0     H 4469  10.159  12.407   6.809  0.6327 -0.1145  3.1365
  774MOL0     H 4470   9.914  12.220   6.841  1.4544 -1.6402 -2.5801
  774MOL0     H 4471   9.909  12.353   6.722 -3.3544 -2.3531  0.1625
  774MOL0     H 4472  10.369  11.620   7.307 -1.0411 -1.1016  0.5991
  774MOL0     H 4473  10.444  11.390   7.418  0.4754  0.4633 -1.6787
  774MOL0     H 4474  10.683  11.211   7.907 -0.5504  1.5830 -1.0705
  774MOL0     H 4475  10.705  10.971   7.985  0.5026 -1.1862 -0.6311
  774MOL0     H 4476  10.754   9.046   8.478  0.2877 -1.5016  2.4624
  774MOL0     H 4477  10.860   8.840   8.575  3.1957 -0.6318  1.9641
  774MOL0     H 4478  11.190   8.631   8.684 -0.9485 -0.5343  0.0647
  774MOL0     H 4479  11.312   8.448   8.809  1.3327  0.0737 -1.8008
  774MOL0     H 4480  11.360   8.054   8.627 -0.3608 -1.1806  1.1234
  774MOL0     H 4481  11.468   8.173   8.557 -0.1526 -0.8514 -0.9056
  774MOL0     H 4482  11.564   8.174   8.814 -1.7702  1.4236 -2.0835
  774MOL0     H 4483  11.623   8.065   8.676  0.6644 -1.5545  0.9939
  774MOL0     H 4484  11.427   7.922   8.769  2.6897 -1.4682 -0.8692
  774MOL0     H 4485  11.450   8.007   8.914 -2.3810 -0.7303 -1.0946
  774MOL0     H 4486  11.676   7.862   8.767  3.6302 -2.4057  2.9867
  774MOL0     H 4487  11.599   7.808   8.919 -0.4508  1.1819  1.4502
  774MOL0     H 4488  11.871   8.107   9.043  0.9837 -3.0365  1.5980
  774MOL0     H 4489  11.181   8.168   8.521 -2.0355 -0.2858 -0.7350
  774MOL0     H 4490  11.047   8.337   8.415 -0.7010 -1.6801  0.7946
  775MOL0     O 4491   7.848   9.394   3.667  0.3665  0.2896 -0.0563
  775MOL0     C 4492   7.811   9.367   3.783  0.5166 -0.3363  0.1669
  775MOL0     O 4493   7.680   9.352   3.823 -0.3978 -0.3851 -0.9642
  775MOL0     C 4494   7.588   9.367   3.721 -0.7170  0.4438  0.4478
  775MOL0     C 4495   7.511   9.479   3.697 -0.3859  0.2795  0.5353
  775MOL0     C 4496   7.406   9.486   3.610  0.2826  0.6720 -0.5993
  775MOL0     C 4497   7.382   9.371   3.529 -0.0465 -0.4532  0.2665
  775MOL0     O 4498   7.280   9.385   3.445 -0.7103  0.6804  0.5224
  775MOL0     C 4499   7.188   9.276   3.437 -0.6648 -0.5883  0.1772
  775MOL0     C 4500   7.079   9.330   3.345 -0.3071 -0.6836  0.2779
  775MOL0     C 4501   6.948   9.246   3.341  0.0409 -0.1869  0.4375
  775MOL0     C 4502   6.842   9.328   3.273 -0.5663  0.1427 -0.6148
  775MOL0     C 4503   6.723   9.251   3.213  0.2757 -0.7620  0.1713
  775MOL0     C 4504   6.602   9.339   3.171  1.1529 -0.7880  0.7718
  775MOL0     C 4505   6.477   9.280   3.084 -0.9221 -0.6721  0.6539
  775MOL0     C 4506   6.396   9.179   3.160  0.5508  0.0079  0.3712
  775MOL0     N 4507   6.455   9.049   3.187  0.3728  0.5247 -0.9019
  775MOL0     C 4508   6.468   8.999   3.313 -0.7621 -0.7201  0.9838
  775MOL0     C 4509   6.559   8.893   3.304  0.1012 -0.0920 -0.1169
  775MOL0     C 4510   6.606   8.811   3.424  0.8034 -0.1045  0.3771
  775MOL0     C 4511   6.758   8.828   3.443 -0.3652 -0.2604  0.2474
  775MOL0     C 4512   6.805   8.765   3.572 -0.4815  0.9489 -0.1989
  775MOL0     C 4513   6.950   8.793   3.602 -0.5468  0.2229 -0.7343
  775MOL0     O 4514   6.964   8.928   3.638  0.0646 -0.2065  0.5599
  775MOL0     C 4515   7.089   8.963   3.689  1.0709  0.1409  0.3946
  775MOL0     C 4516   7.109   9.098   3.723 -0.8578 -0.8550 -0.6241
  775MOL0     C 4517   7.209   9.148   3.798 -0.0408 -0.8398  0.5960
  775MOL0     C 4518   7.191   9.295   3.844 -0.0738  0.4609  0.2226
  775MOL0     C 4519   7.318   9.065   3.829 -0.1201 -0.0612 -0.8053
  775MOL0     C 4520   7.420   9.099   3.932  0.1625 -0.3631  0.3477
  775MOL0     O 4521   7.546   9.034   3.928  0.3830 -0.0763 -0.6704
  775MOL0     C 4522   7.619   9.024   4.042  0.4258 -1.0869 -0.1013
  775MOL0     C 4523   7.572   9.022   4.171 -0.8395  0.4369 -0.7410
  775MOL0     C 4524   7.660   9.000   4.278 -0.9006  0.4131  0.4421
  775MOL0     C 4525   7.798   8.975   4.269  0.6588 -0.3707  0.8950
  775MOL0     O 4526   7.865   8.938   4.383  0.1376  0.0136  0.5234
  775MOL0     C 4527   8.002   8.960   4.384  0.8032 -0.2440 -0.0582
  775MOL0     C 4528   8.031   9.091   4.466  0.0515  0.1920  0.4106
  775MOL0     C 4529   8.003   9.079   4.614 -0.3922 -0.8693 -0.2307
  775MOL0     C 4530   7.856   9.065   4.651  0.5545  0.0801 -0.4899
  775MOL0     C 4531   7.842   9.089   4.797 -0.5650 -0.3930  0.0365
  775MOL0     C 4532   7.911   8.975   4.876 -0.3181 -0.3557 -0.0676
  775MOL0     C 4533   7.888   8.989   5.038  0.3802  0.0960 -0.6220
  775MOL0     C 4534   7.925   8.860   5.113  0.2661 -0.5742  0.5205
  775MOL0    Cl 4535   7.878   8.701   5.035  0.2193  0.2492  0.4913
  775MOL0     C 4536   7.845   8.988   4.140 -0.3729  0.9524  0.6729
  775MOL0     C 4537   7.761   9.008   4.025  0.3126 -1.0095 -1.4131
  775MOL0     O 4538   7.387   9.186   4.004  0.0534 -0.0547 -0.6448
  775MOL0     C 4539   7.313   8.925   3.790 -0.3724 -0.8923 -0.5803
  775MOL0     C 4540   7.194   8.877   3.726  1.0264 -0.1475 -0.1443
  775MOL0     N 4541   6.591   8.894   3.166  0.5797  0.0081  0.0397
  775MOL0     N 4542   6.523   8.980   3.096  0.3829 -0.1701  0.1050
  775MOL0     C 4543   7.459   9.254   3.545  0.0455 -0.1562 -0.0332
  775MOL0     C 4544   7.563   9.251   3.642  0.2819  0.1959 -0.3473
  775MOL0     C 4545   7.916   9.347   3.880  0.1043 -0.8352 -0.0276
  775MOL0     C 4546   8.047   9.319   3.846 -0.5043 -0.6536  0.6097
  775MOL0     C 4547   8.144   9.299   3.941 -0.7468 -0.3100 -0.3448
  775MOL0     C 4548   8.108   9.307   4.079 -0.2813  1.3670  1.3672
  775MOL0     O 4549   8.184   9.273   4.190  0.2277 -0.6357 -0.1886
  775MOL0     C 4550   8.309   9.205   4.171  0.9870 -0.3371 -0.4524
  775MOL0     C 4551   8.429   9.294   4.132  0.2743  0.2777 -0.4687
  775MOL0     C 4552   8.458   9.407   4.234  0.0212 -0.3270 -0.3434
  775MOL0     C 4553   8.457   9.356   4.377  0.3376 -0.9129 -0.4726
  775MOL0     C 4554   8.517   9.452   4.465 -0.2756 -0.0622 -0.4665
  775MOL0     C 4555   8.565   9.522   4.548  0.7950 -1.1718 -0.2950
  775MOL0     C 4556   7.982   9.332   4.112  0.1728 -0.4781 -0.4230
  775MOL0     C 4557   7.881   9.352   4.015 -0.3576  0.3005  0.5160
  775MOL0     H 4558   7.527   9.566   3.759 -2.6257  2.0660 -1.1985
  775MOL0     H 4559   7.345   9.575   3.594 -3.5175 -1.6467 -0.3449
  775MOL0     H 4560   7.233   9.183   3.402  2.9687  0.6550  1.1476
  775MOL0     H 4561   7.154   9.261   3.540  2.9385 -2.8289  1.1933
  775MOL0     H 4562   7.058   9.428   3.389 -0.8875 -1.2189  1.2259
  775MOL0     H 4563   7.113   9.352   3.243 -0.9293  0.9086  0.3714
  775MOL0     H 4564   6.956   9.154   3.281 -1.5183  1.2855 -2.2145
  775MOL0     H 4565   6.920   9.231   3.446  2.8315  0.8358  1.4335
  775MOL0     H 4566   6.801   9.385   3.358 -1.2222  1.4136 -1.7407
  775MOL0     H 4567   6.877   9.400   3.199 -2.4362 -0.4621 -2.1771
  775MOL0     H 4568   6.752   9.201   3.120 -1.3340  1.1161 -1.4351
  775MOL0     H 4569   6.687   9.176   3.284 -3.0730  0.8247  0.3433
  775MOL0     H 4570   6.558   9.346   3.271  1.7161 -1.4928  1.0722
  775MOL0     H 4571   6.640   9.438   3.142 -1.4853  0.9533  2.7626
  775MOL0     H 4572   6.414   9.365   3.056  1.0907  0.4758 -0.6189
  775MOL0     H 4573   6.517   9.236   2.993  0.0563  1.5844 -0.0817
  775MOL0     H 4574   6.301   9.176   3.107  1.4957  3.4400 -1.8669
  775MOL0     H 4575   6.361   9.228   3.251 -1.6415  3.4771 -2.0621
  775MOL0     H 4576   6.429   9.047   3.402  1.5189  2.6477  0.3608
  775MOL0     H 4577   6.543   8.835   3.511  1.3496 -2.0734  1.3867
  775MOL0     H 4578   6.570   8.709   3.406 -0.3970  0.5001 -0.8131
  775MOL0     H 4579   6.780   8.935   3.437 -1.4653 -0.0922 -3.6809
  775MOL0     H 4580   6.816   8.781   3.362  0.5630  2.3275 -0.6876
  775MOL0     H 4581   6.801   8.658   3.551  0.7055  0.5255  1.5729
  775MOL0     H 4582   6.732   8.778   3.652  0.8677  0.1879  1.2197
  775MOL0     H 4583   7.003   8.785   3.506  0.6396 -2.8600  0.0709
  775MOL0     H 4584   6.975   8.722   3.681 -0.7870 -0.7016 -1.4584
  775MOL0     H 4585   7.030   9.162   3.685 -1.6332 -1.3881  0.0564
  775MOL0     H 4586   7.145   9.308   3.943  0.7184  1.5824  0.4617
  775MOL0     H 4587   7.280   9.356   3.827  0.6080 -1.0413 -2.0069
  775MOL0     H 4588   7.117   9.350   3.786 -0.3355  1.4693  1.4556
  775MOL0     H 4589   7.464   9.034   4.178 -0.4784  4.2393  0.6030
  775MOL0     H 4590   7.605   8.993   4.371  0.1664  0.3219  1.0823
  775MOL0     H 4591   8.046   8.868   4.423 -0.8710 -0.3202  1.8212
  775MOL0     H 4592   8.046   8.975   4.286 -2.1752 -0.7172 -1.5755
  775MOL0     H 4593   8.138   9.112   4.453 -0.0237  0.5556  0.3757
  775MOL0     H 4594   7.976   9.176   4.424  5.0644  2.4533 -2.5671
  775MOL0     H 4595   8.049   9.168   4.658 -0.9475 -1.5177  1.7430
  775MOL0     H 4596   8.050   8.989   4.654  1.4728  1.1237  2.4287
  775MOL0     H 4597   7.802   9.143   4.597  0.9266  0.9323  0.3454
  775MOL0     H 4598   7.819   8.967   4.619  2.0342 -0.4773 -0.5542
  775MOL0     H 4599   7.740   9.101   4.835 -0.8442  0.4549 -0.9342
  775MOL0     H 4600   7.892   9.185   4.815  1.3092 -1.3300  0.0154
  775MOL0     H 4601   7.868   8.882   4.838 -0.5229  0.8184 -2.9468
  775MOL0     H 4602   8.019   8.985   4.864 -0.6422  1.3682 -2.3095
  775MOL0     H 4603   7.782   9.010   5.058  0.0456  0.6207 -2.7209
  775MOL0     H 4604   7.943   9.074   5.078  0.4534 -0.1601 -0.1695
  775MOL0     H 4605   7.886   8.859   5.215  1.5475  0.1843  1.0478
  775MOL0     H 4606   8.034   8.857   5.118  0.2077 -1.0337  3.9864
  775MOL0     H 4607   7.948   8.981   4.107 -1.2346 -2.4806 -1.9304
  775MOL0     H 4608   7.807   9.009   3.926  1.3246 -2.4418 -0.9880
  775MOL0     H 4609   7.380   8.848   3.828  1.1214  0.3362 -0.6351
  775MOL0     H 4610   7.187   8.770   3.712 -1.2033 -0.1225  0.4644
  775MOL0     H 4611   7.432   9.175   3.476  0.1215 -0.8960  0.7809
  775MOL0     H 4612   7.627   9.165   3.657 -0.0545 -0.0282 -0.1903
  775MOL0     H 4613   8.062   9.302   3.740  0.4096  1.9624  0.2455
  775MOL0     H 4614   8.238   9.254   3.911  0.3646  1.0591  0.9531
  775MOL0     H 4615   8.330   9.143   4.259  2.2780 -0.7971 -1.0539
  775MOL0     H 4616   8.300   9.129   4.093  0.2665  0.9346 -1.6431
  775MOL0     H 4617   8.412   9.341   4.034  0.1547 -0.9134 -1.0349
  775MOL0     H 4618   8.521   9.237   4.124 -1.2294 -2.2884 -0.4829
  775MOL0     H 4619   8.378   9.478   4.215  0.2677 -0.0626 -0.3924
  775MOL0     H 4620   8.550   9.463   4.215 -0.2054  0.4966  0.8644
  775MOL0     H 4621   8.515   9.263   4.379  1.5229 -0.3614 -3.9116
  775MOL0     H 4622   8.355   9.336   4.411  0.3924 -0.6313 -0.1399
  775MOL0     H 4623   8.583   9.594   4.625  0.2028  0.1864 -1.3935
  775MOL0     H 4624   7.957   9.325   4.217  1.5717 -0.3784 -0.0649
  775MOL0     H 4625   7.777   9.368   4.043 -0.4292  0.4195  0.1854
  776MOL0     O 4626   6.821   5.604   6.189  0.0303 -0.3486 -0.0880
  776MOL0     C 4627   6.790   5.668   6.087 -0.9446 -0.3550  0.2156
  776MOL0     O 4628   6.878   5.699   5.985 -0.1714  0.2191  0.2258
  776MOL0     C 4629   6.993   5.630   5.998 -0.6493 -0.7797  0.4246
  776MOL0     C 4630   7.111   5.701   6.033  0.3499 -0.4953  0.5465
  776MOL0     C 4631   7.233   5.643   6.050 -0.0489  0.2973  0.0566
  776MOL0     C 4632   7.249   5.513   6.013 -0.3647  0.3968 -0.0236
  776MOL0     O 4633   7.371   5.453   6.028 -0.2717  0.4643  0.2788
  776MOL0     C 4634   7.495   5.522   6.014 -0.3998 -0.4861 -1.2708
  776MOL0     C 4635   7.607   5.428   6.000 -0.7433  0.5346 -0.4457
  776MOL0     C 4636   7.737   5.500   5.975 -0.1546 -0.2132  0.1668
  776MOL0     C 4637   7.755   5.519   5.827 -0.3965  0.0151  0.4972
  776MOL0     C 4638   7.878   5.607   5.785 -0.3574 -0.8352 -0.2072
  776MOL0     C 4639   7.868   5.649   5.637 -0.1119  0.2300  1.0909
  776MOL0     C 4640   7.989   5.730   5.593 -1.0254 -0.5936  0.3385
  776MOL0     C 4641   7.989   5.878   5.626 -0.2935 -0.3501 -0.1122
  776MOL0     N 4642   7.978   5.952   5.496 -0.5128  0.1575 -0.7493
  776MOL0     C 4643   8.092   5.962   5.414 -0.5975 -1.2205 -0.4418
  776MOL0     C 4644   8.051   6.043   5.314  0.2297 -0.5054  0.1799
  776MOL0     C 4645   8.127   6.076   5.186  0.2318 -0.9094  0.3484
  776MOL0     C 4646   8.090   6.205   5.108 -0.0747 -0.1053 -0.6501
  776MOL0     C 4647   8.117   6.206   4.961 -0.0556  0.2945  0.2152
  776MOL0     C 4648   7.989   6.268   4.891 -0.0481 -0.6761 -0.0071
  776MOL0     O 4649   7.980   6.408   4.915  0.5283 -0.9024  0.1550
  776MOL0     C 4650   8.041   6.497   4.826 -0.6989  0.2622 -0.9993
  776MOL0     C 4651   8.002   6.631   4.831  0.2614 -0.7204 -0.0310
  776MOL0     C 4652   8.053   6.732   4.744 -0.7598  0.0451 -0.3313
  776MOL0     C 4653   7.995   6.872   4.764  0.3710 -0.6502 -0.1672
  776MOL0     C 4654   8.145   6.686   4.640 -0.2713  0.4905 -0.0704
  776MOL0     C 4655   8.200   6.768   4.539  0.0951 -0.0015 -0.6132
  776MOL0     O 4656   8.260   6.705   4.433  0.1860 -0.3405 -1.0946
  776MOL0     C 4657   8.351   6.778   4.358 -0.6411  1.0904  0.0060
  776MOL0     C 4658   8.299   6.826   4.236 -0.0379 -0.3823  0.2443
  776MOL0     C 4659   8.383   6.892   4.146  0.0629 -0.4080 -0.8887
  776MOL0     C 4660   8.517   6.921   4.177  0.2340  0.2515  0.6213
  776MOL0     O 4661   8.587   6.984   4.077 -0.9203 -0.0794 -0.1355
  776MOL0     C 4662   8.674   7.091   4.112 -0.1226 -0.2594  0.8899
  776MOL0     C 4663   8.796   7.043   4.031 -0.9108  0.3867 -0.6027
  776MOL0     C 4664   8.870   6.919   4.103  0.1795 -0.0410 -1.5726
  776MOL0     C 4665   8.987   6.870   4.022 -0.1269 -0.4171  1.3220
  776MOL0     C 4666   9.064   6.757   4.082 -0.4246  0.8009  0.2909
  776MOL0     C 4667   9.153   6.793   4.203 -0.5179 -1.0431  0.4333
  776MOL0     C 4668   9.258   6.904   4.173  0.3857  0.3231 -0.6950
  776MOL0     C 4669   9.282   7.013   4.282  0.3595 -0.0038  0.8982
  776MOL0    Cl 4670   9.146   7.118   4.305  0.0312  0.0532 -0.1766
  776MOL0     C 4671   8.562   6.882   4.305 -0.0712  0.6016 -0.2170
  776MOL0     C 4672   8.479   6.817   4.401  0.4876  0.5315  0.6265
  776MOL0     O 4673   8.192   6.886   4.556  0.2332  0.5107  0.8226
  776MOL0     C 4674   8.188   6.548   4.639  0.0399 -0.2007 -1.1481
  776MOL0     C 4675   8.136   6.456   4.727 -0.2027 -0.1287  0.6354
  776MOL0     N 4676   7.914   6.073   5.338 -0.0298  0.9014 -0.2702
  776MOL0     N 4677   7.873   6.015   5.449  0.2361  0.6956  0.0190
  776MOL0     C 4678   7.136   5.440   5.973 -0.3081 -0.1348  0.4400
  776MOL0     C 4679   7.006   5.495   5.980  0.6787 -0.6479 -0.8379
  776MOL0     C 4680   6.651   5.717   6.097 -1.0095 -0.2101 -0.0453
  776MOL0     C 4681   6.589   5.780   5.983 -0.1751  0.0741 -0.1190
  776MOL0     C 4682   6.450   5.810   5.984 -0.3353  0.1602 -0.0424
  776MOL0     C 4683   6.369   5.793   6.095 -0.1544  0.3917 -0.3187
  776MOL0     O 4684   6.241   5.824   6.074 -0.3067  0.0958 -0.1248
  776MOL0     C 4685   6.154   5.769   6.169 -0.0695 -0.6007 -0.4142
  776MOL0     C 4686   6.009   5.755   6.111  0.1801 -0.6843 -0.1778
  776MOL0     C 4687   5.914   5.693   6.221 -0.0147 -0.8261 -1.2697
  776MOL0     C 4688   5.948   5.556   6.278 -0.1942  0.8021 -0.5848
  776MOL0     C 4689   5.886   5.534   6.409 -1.0139 -0.8187 -0.6944
  776MOL0     C 4690   5.847   5.511   6.527 -0.3766 -0.6080  0.0747
  776MOL0     C 4691   6.430   5.735   6.206  0.3120  0.5054 -0.5677
  776MOL0     C 4692   6.563   5.690   6.209  0.3697 -0.5229 -0.2905
  776MOL0     H 4693   7.111   5.808   6.050  1.0606 -0.7100  2.0874
  776MOL0     H 4694   7.316   5.699   6.093  1.7645 -1.2799 -1.1650
  776MOL0     H 4695   7.492   5.579   5.921  0.0998 -1.5671 -1.9792
  776MOL0     H 4696   7.506   5.595   6.094  1.3418  1.6557 -3.3041
  776MOL0     H 4697   7.607   5.372   6.094 -1.2555 -0.1115 -0.8190
  776MOL0     H 4698   7.578   5.354   5.925 -2.2045 -0.9952  1.5143
  776MOL0     H 4699   7.741   5.595   6.030  0.0595  0.7034 -1.3865
  776MOL0     H 4700   7.814   5.438   6.021 -1.6351  0.3353  3.7450
  776MOL0     H 4701   7.766   5.422   5.778 -0.4521 -0.1825  0.8730
  776MOL0     H 4702   7.676   5.581   5.783  2.0645  3.2868  0.2668
  776MOL0     H 4703   7.888   5.700   5.841  4.4039  0.1832 -2.2604
  776MOL0     H 4704   7.977   5.564   5.801  0.5436  1.9980  3.0654
  776MOL0     H 4705   7.870   5.550   5.590  1.0576  0.4165  0.7279
  776MOL0     H 4706   7.771   5.693   5.611  1.1848  1.4421 -2.2101
  776MOL0     H 4707   8.075   5.684   5.643 -2.4435 -2.5417  1.1441
  776MOL0     H 4708   7.995   5.705   5.487 -1.4766 -1.1739  0.4421
  776MOL0     H 4709   8.085   5.899   5.675 -0.0369 -1.7542  0.0461
  776MOL0     H 4710   7.910   5.911   5.694  1.3617  1.1881  1.1802
  776MOL0     H 4711   8.189   5.914   5.423 -1.6272 -3.6553 -1.4374
  776MOL0     H 4712   8.230   6.075   5.221 -0.7209  0.9843  3.5413
  776MOL0     H 4713   8.120   5.987   5.122  0.7542 -1.1383  0.6067
  776MOL0     H 4714   8.139   6.289   5.158  0.1878 -1.0137  0.6709
  776MOL0     H 4715   7.984   6.222   5.127  0.2340 -0.2353  1.4895
  776MOL0     H 4716   8.120   6.103   4.923 -1.9599  0.0968  0.4915
  776MOL0     H 4717   8.211   6.252   4.929 -0.0609  0.6411  0.6938
  776MOL0     H 4718   7.902   6.221   4.938 -1.8470  1.7669 -0.6963
  776MOL0     H 4719   7.981   6.240   4.786 -0.2900 -1.1612  0.1374
  776MOL0     H 4720   7.936   6.660   4.912 -0.8979 -0.5455 -1.0058
  776MOL0     H 4721   7.913   6.876   4.836  2.2258 -2.0777  2.1797
  776MOL0     H 4722   8.067   6.949   4.791 -1.2470  0.4360  1.2636
  776MOL0     H 4723   7.950   6.887   4.665  1.5705  0.9255 -0.5105
  776MOL0     H 4724   8.207   6.789   4.191 -0.0258  2.5883 -2.5886
  776MOL0     H 4725   8.334   6.930   4.057  0.8275  2.7211 -0.0948
  776MOL0     H 4726   8.632   7.180   4.063 -2.2831 -3.9105 -4.8084
  776MOL0     H 4727   8.688   7.105   4.220  2.6861  1.6811  0.3917
  776MOL0     H 4728   8.773   7.021   3.926 -0.6108  1.7050 -0.9580
  776MOL0     H 4729   8.864   7.128   4.021 -0.1066 -0.4747 -3.8421
  776MOL0     H 4730   8.807   6.833   4.125  0.1185  0.7615  1.9827
  776MOL0     H 4731   8.906   6.956   4.200  0.6051  4.5935 -3.2317
  776MOL0     H 4732   8.951   6.826   3.928 -1.5416  0.2516  1.5230
  776MOL0     H 4733   9.049   6.958   4.006  1.1786 -1.7595 -1.9338
  776MOL0     H 4734   9.127   6.700   4.013 -1.7260 -2.2740  1.4933
  776MOL0     H 4735   8.993   6.680   4.112  3.4166 -2.3633  2.1864
  776MOL0     H 4736   9.094   6.827   4.287  3.4852  0.2600  3.0130
  776MOL0     H 4737   9.215   6.707   4.231  2.0783  0.4562 -0.3930
  776MOL0     H 4738   9.236   6.954   4.078 -2.4176 -0.3644 -0.4938
  776MOL0     H 4739   9.345   6.841   4.153 -0.8815 -1.7679  0.0603
  776MOL0     H 4740   9.368   7.075   4.256 -1.2516  1.4865 -1.1721
  776MOL0     H 4741   9.296   6.953   4.372  0.2235 -2.5991 -0.6781
  776MOL0     H 4742   8.659   6.908   4.346  0.4800  0.4060 -1.3462
  776MOL0     H 4743   8.504   6.791   4.503 -1.7558 -0.3771  0.9939
  776MOL0     H 4744   8.263   6.520   4.566  1.6183  2.2641 -0.5705
  776MOL0     H 4745   8.177   6.355   4.726 -2.0267 -0.9242  1.7441
  776MOL0     H 4746   7.155   5.337   5.943  2.1944  0.3058  0.2724
  776MOL0     H 4747   6.913   5.438   5.976 -0.2250  0.5531  1.1761
  776MOL0     H 4748   6.641   5.793   5.889 -0.8573  0.5687 -0.4301
  776MOL0     H 4749   6.390   5.829   5.895 -3.5047 -1.3727  1.5954
  776MOL0     H 4750   6.185   5.669   6.199  1.1775 -0.0874  0.0475
  776MOL0     H 4751   6.154   5.837   6.254 -1.2029  1.1162 -1.7138
  776MOL0     H 4752   6.009   5.691   6.022  2.2502  4.2316 -4.1468
  776MOL0     H 4753   5.964   5.846   6.071  1.3997 -0.6215 -1.4708
  776MOL0     H 4754   5.811   5.696   6.184 -0.2106 -1.9585 -0.8555
  776MOL0     H 4755   5.917   5.759   6.308  1.3328  0.2773 -2.1175
  776MOL0     H 4756   6.053   5.538   6.299 -0.6202 -4.7239 -1.5707
  776MOL0     H 4757   5.913   5.479   6.208  3.5281  0.1644 -1.9409
  776MOL0     H 4758   5.817   5.482   6.626  1.3188 -0.1283  0.7610
  776MOL0     H 4759   6.375   5.720   6.299 -0.6532  2.7859 -0.7179
  776MOL0     H 4760   6.589   5.621   6.288  1.4966  0.2506  0.0478
  777MOL0     O 4761   8.459   4.755   0.331  0.0082  0.3073 -0.0543
  777MOL0     C 4762   8.471   4.729   0.452  0.3037  0.1125 -0.3476
  777MOL0     O 4763   8.573   4.747   0.535  0.2627  0.9408  0.7629
  777MOL0     C 4764   8.694   4.780   0.487  0.4932  0.6133  0.2150
  777MOL0     C 4765   8.790   4.783   0.584 -0.0710 -1.0764 -0.2687
  777MOL0     C 4766   8.919   4.797   0.562 -0.5586 -0.2025  0.4734
  777MOL0     C 4767   8.976   4.819   0.431 -0.0525  0.6533  0.3107
  777MOL0     O 4768   9.103   4.830   0.406 -0.2637  0.1806  1.1854
  777MOL0     C 4769   9.187   4.717   0.452  0.2104 -0.6148 -0.4574
  777MOL0     C 4770   9.317   4.700   0.368  0.0875  0.3899  0.1026
  777MOL0     C 4771   9.284   4.715   0.220  0.3276  0.0265 -1.2453
  777MOL0     C 4772   9.415   4.697   0.129  0.6461 -0.1197 -0.7818
  777MOL0     C 4773   9.380   4.673  -0.016  0.5695 -0.5170  0.1123
  777MOL0     C 4774   9.326   4.527  -0.048  0.6010 -1.2200  0.4755
  777MOL0     C 4775   9.290   4.512  -0.197 -0.4124 -0.4786 -0.5511
  777MOL0     C 4776   9.211   4.378  -0.226 -0.5186 -0.3964 -0.2666
  777MOL0     N 4777   9.085   4.379  -0.161 -0.2760 -0.1577  1.3386
  777MOL0     C 4778   8.993   4.480  -0.166  0.0760 -1.0206  0.2569
  777MOL0     C 4779   8.908   4.443  -0.069  0.4507  0.2084 -1.3619
  777MOL0     C 4780   8.807   4.528   0.000 -0.4783 -0.0043 -0.1020
  777MOL0     C 4781   8.665   4.536  -0.071 -1.2225 -0.2339 -0.1743
  777MOL0     C 4782   8.581   4.414  -0.025  0.2982  0.0758 -0.3044
  777MOL0     C 4783   8.510   4.448   0.115 -0.1456 -0.1245 -0.3922
  777MOL0     O 4784   8.377   4.456   0.081 -0.3297  0.2365  0.4466
  777MOL0     C 4785   8.291   4.388   0.163  0.4788  0.7442 -1.0775
  777MOL0     C 4786   8.156   4.382   0.124 -0.4204  0.5154  0.1591
  777MOL0     C 4787   8.060   4.307   0.199  0.5538 -1.2288  0.9399
  777MOL0     C 4788   7.922   4.337   0.139  1.2098  0.2732  0.1867
  777MOL0     C 4789   8.088   4.245   0.318  0.1345  0.3296 -0.0642
  777MOL0     C 4790   7.987   4.173   0.404 -1.0653 -0.5878  0.4196
  777MOL0     O 4791   8.030   4.061   0.465 -0.4501  0.3802 -0.2852
  777MOL0     C 4792   7.941   3.970   0.499  0.9009  0.2431 -0.5431
  777MOL0     C 4793   7.900   3.973   0.628 -0.1066 -0.5103 -0.4794
  777MOL0     C 4794   7.804   3.876   0.678 -1.0177 -0.7284  0.0762
  777MOL0     C 4795   7.745   3.785   0.596 -1.1158 -0.1504 -0.2428
  777MOL0     O 4796   7.640   3.712   0.638  0.4311 -0.1417  0.0924
  777MOL0     C 4797   7.653   3.573   0.601  0.3455 -0.7480  0.0447
  777MOL0     C 4798   7.550   3.488   0.678 -0.0950  0.3836  0.4499
  777MOL0     C 4799   7.511   3.525   0.822  0.0272  0.2225  0.2211
  777MOL0     C 4800   7.410   3.414   0.882 -0.1761  0.5839  0.0047
  777MOL0     C 4801   7.413   3.411   1.035 -0.5024  0.5346 -1.3826
  777MOL0     C 4802   7.548   3.400   1.118 -0.5011 -1.5196  0.6782
  777MOL0     C 4803   7.522   3.411   1.264 -0.1252  0.0073 -0.6003
  777MOL0     C 4804   7.470   3.550   1.309  0.9836  0.1219  0.3511
  777MOL0    Cl 4805   7.577   3.649   1.400 -0.1565 -0.1924  0.2124
  777MOL0     C 4806   7.799   3.778   0.466 -1.0983  0.8869 -0.0292
  777MOL0     C 4807   7.906   3.859   0.420  0.5555  0.0205 -0.1224
  777MOL0     O 4808   7.872   4.222   0.404  0.5312  0.2841 -0.4605
  777MOL0     C 4809   8.223   4.257   0.356  0.2795  0.8381  0.1781
  777MOL0     C 4810   8.322   4.324   0.281 -0.6987  0.9186  0.6120
  777MOL0     N 4811   8.948   4.316  -0.009 -0.8276 -0.2650  0.3236
  777MOL0     N 4812   9.058   4.282  -0.073 -0.0879 -0.8197  0.8815
  777MOL0     C 4813   8.879   4.808   0.329 -0.0456  0.2792  0.8476
  777MOL0     C 4814   8.749   4.777   0.349  0.4747 -0.7161 -0.8925
  777MOL0     C 4815   8.356   4.653   0.513 -0.4869 -0.3559  0.5405
  777MOL0     C 4816   8.238   4.612   0.450 -0.1689 -1.7015 -1.2202
  777MOL0     C 4817   8.127   4.559   0.512 -0.4188  0.8885  0.3805
  777MOL0     C 4818   8.135   4.523   0.649 -0.1621  0.0880 -0.0175
  777MOL0     O 4819   8.023   4.478   0.696 -0.2958  0.7494 -0.0183
  777MOL0     C 4820   8.035   4.389   0.809  0.8706 -0.5805 -0.3350
  777MOL0     C 4821   7.895   4.389   0.873  0.6664  0.4550 -0.0637
  777MOL0     C 4822   7.797   4.323   0.771 -0.5965  0.5242  0.2518
  777MOL0     C 4823   7.644   4.352   0.792 -0.0095 -0.0930 -0.7211
  777MOL0     C 4824   7.612   4.494   0.794  0.1288  0.7347  0.0521
  777MOL0     C 4825   7.588   4.609   0.781 -0.2238 -0.0724 -0.1430
  777MOL0     C 4826   8.256   4.542   0.709  1.1558  0.1624 -0.4378
  777MOL0     C 4827   8.364   4.613   0.647 -0.2509 -0.1189 -0.4754
  777MOL0     H 4828   8.773   4.780   0.692  3.7025  0.3309  0.5150
  777MOL0     H 4829   8.984   4.803   0.649  1.6010 -3.1494 -0.7715
  777MOL0     H 4830   9.207   4.728   0.559  1.1029 -0.4479 -0.6381
  777MOL0     H 4831   9.132   4.623   0.438  0.8714 -0.8800 -1.2836
  777MOL0     H 4832   9.392   4.776   0.395  1.0837 -1.1347  1.8233
  777MOL0     H 4833   9.356   4.601   0.393 -0.0504  0.7386  1.7952
  777MOL0     H 4834   9.210   4.638   0.196 -0.7284  0.5157  0.2728
  777MOL0     H 4835   9.243   4.813   0.195  0.0168 -0.1355 -1.3787
  777MOL0     H 4836   9.478   4.787   0.135 -0.4861  0.7640 -1.6287
  777MOL0     H 4837   9.478   4.616   0.168 -2.1046 -2.7974 -1.5713
  777MOL0     H 4838   9.305   4.747  -0.046 -0.2720 -1.4507 -0.1357
  777MOL0     H 4839   9.466   4.684  -0.083  0.0870 -1.5605 -0.7086
  777MOL0     H 4840   9.407   4.458  -0.023  3.1027  1.4816  0.3195
  777MOL0     H 4841   9.236   4.517   0.014  0.0342  2.4101  0.4629
  777MOL0     H 4842   9.232   4.599  -0.229  1.0650  1.8653  2.4929
  777MOL0     H 4843   9.382   4.513  -0.255  0.4280 -2.3696  0.6423
  777MOL0     H 4844   9.271   4.288  -0.208  1.8738  0.8494 -1.5804
  777MOL0     H 4845   9.181   4.377  -0.331 -2.2049  3.4919  0.0059
  777MOL0     H 4846   8.993   4.568  -0.229  1.6895 -0.5198  0.9036
  777MOL0     H 4847   8.799   4.488   0.102  0.9883  0.2117  0.1239
  777MOL0     H 4848   8.829   4.635  -0.006  0.2841 -0.2404 -2.1285
  777MOL0     H 4849   8.683   4.535  -0.179 -0.3346  1.6188 -0.0774
  777MOL0     H 4850   8.611   4.630  -0.056  0.0213  0.5807 -0.6925
  777MOL0     H 4851   8.639   4.322  -0.022 -4.3450 -3.3326 -2.2157
  777MOL0     H 4852   8.507   4.391  -0.103 -0.5477 -1.5076  0.9027
  777MOL0     H 4853   8.540   4.544   0.158 -3.7502  2.0542 -2.2407
  777MOL0     H 4854   8.541   4.367   0.181  0.8486  0.6746  0.1499
  777MOL0     H 4855   8.127   4.448   0.043  1.6539 -0.8098 -1.7841
  777MOL0     H 4856   7.839   4.324   0.208 -0.3345  0.1347 -1.6015
  777MOL0     H 4857   7.922   4.439   0.099  0.9750 -0.8873 -3.0896
  777MOL0     H 4858   7.910   4.269   0.053  1.3855 -0.5645  0.8136
  777MOL0     H 4859   7.927   4.051   0.698 -0.1341 -0.3376 -0.6622
  777MOL0     H 4860   7.766   3.884   0.779  0.0283 -2.6829  0.6632
  777MOL0     H 4861   7.617   3.568   0.498  1.2638  0.7898 -0.3771
  777MOL0     H 4862   7.756   3.542   0.620  1.4709  0.6551 -3.1446
  777MOL0     H 4863   7.458   3.499   0.620 -1.4110 -0.4827  2.2879
  777MOL0     H 4864   7.570   3.381   0.666  0.7990  0.1212  3.5140
  777MOL0     H 4865   7.468   3.625   0.833 -2.3459 -0.7316  0.1791
  777MOL0     H 4866   7.600   3.525   0.886  1.5017  1.0515 -1.6978
  777MOL0     H 4867   7.305   3.416   0.849  0.2490 -1.5180 -1.6926
  777MOL0     H 4868   7.441   3.315   0.848  0.4998  1.1435 -1.0685
  777MOL0     H 4869   7.356   3.324   1.068 -0.7874  0.8767 -0.9565
  777MOL0     H 4870   7.348   3.491   1.073 -1.4954 -0.0385 -1.8183
  777MOL0     H 4871   7.595   3.302   1.111  2.4910 -0.3182  1.8871
  777MOL0     H 4872   7.623   3.473   1.085 -2.1901 -0.0333 -0.0628
  777MOL0     H 4873   7.615   3.393   1.318 -0.9173  1.1772  1.2644
  777MOL0     H 4874   7.456   3.331   1.300 -0.0258 -0.7935 -2.1169
  777MOL0     H 4875   7.381   3.532   1.370  1.1113 -1.6149  0.0850
  777MOL0     H 4876   7.446   3.621   1.230  1.4271 -1.3616 -1.1737
  777MOL0     H 4877   7.762   3.703   0.396  4.4621 -1.2635 -1.2823
  777MOL0     H 4878   7.920   3.852   0.312 -1.4724 -3.9641 -0.3144
  777MOL0     H 4879   8.249   4.198   0.443 -4.5199 -0.4170  1.0230
  777MOL0     H 4880   8.418   4.330   0.331 -0.9320 -2.6019  1.7862
  777MOL0     H 4881   8.904   4.815   0.223 -1.5549  0.5090  0.4892
  777MOL0     H 4882   8.688   4.762   0.260 -2.9836 -0.4838  1.2557
  777MOL0     H 4883   8.228   4.637   0.345  0.0213  0.8865 -0.6905
  777MOL0     H 4884   8.034   4.542   0.458 -0.6014 -3.8174  1.7691
  777MOL0     H 4885   8.064   4.289   0.776  0.2872 -1.1480  0.8199
  777MOL0     H 4886   8.114   4.418   0.879  1.8258 -1.9161 -0.8159
  777MOL0     H 4887   7.858   4.492   0.888 -4.3897 -0.7846 -1.8806
  777MOL0     H 4888   7.896   4.338   0.970 -2.3706  0.3101 -0.0102
  777MOL0     H 4889   7.816   4.217   0.788  1.2090  0.6083 -1.0098
  777MOL0     H 4890   7.826   4.351   0.669  0.7778 -1.2986  0.1031
  777MOL0     H 4891   7.615   4.308   0.888 -1.4659  2.1033 -0.0874
  777MOL0     H 4892   7.575   4.297   0.727 -0.9098 -1.9510  1.6643
  777MOL0     H 4893   7.566   4.713   0.794 -1.3922 -0.1716 -1.0951
  777MOL0     H 4894   8.274   4.509   0.811  1.6558  2.2308  0.1734
  777MOL0     H 4895   8.448   4.650   0.705 -1.9499 -0.0468  2.1501
  778MOL0     O 4896   1.733   7.282   2.843 -0.1917  0.0056 -0.2375
  778MOL0     C 4897   1.745   7.407   2.844  0.0099  0.1994  0.2579
  778MOL0     O 4898   1.859   7.467   2.874  0.0024 -0.0442 -0.1516
  778MOL0     C 4899   1.970   7.397   2.904  0.9658 -0.8209  0.9342
  778MOL0     C 4900   1.976   7.308   3.011  0.5900 -0.0403 -0.3384
  778MOL0     C 4901   2.098   7.247   3.045  1.3731 -0.3895 -0.3667
  778MOL0     C 4902   2.207   7.267   2.970 -0.2027  0.1532 -0.2264
  778MOL0     O 4903   2.322   7.195   3.000  0.3605 -0.3617  0.4147
  778MOL0     C 4904   2.438   7.278   3.043  0.4530  1.0231 -1.1421
  778MOL0     C 4905   2.540   7.199   3.121 -0.6389  0.6309  0.0537
  778MOL0     C 4906   2.586   7.084   3.042  1.4015  0.3087  0.8451
  778MOL0     C 4907   2.681   6.993   3.105 -0.2045 -0.3804  0.1752
  778MOL0     C 4908   2.708   6.875   3.017  0.7976 -0.1187  0.5986
  778MOL0     C 4909   2.756   6.897   2.870 -0.5234  0.9063 -0.7797
  778MOL0     C 4910   2.782   6.764   2.795 -0.1343 -0.6420 -0.3895
  778MOL0     C 4911   2.843   6.802   2.658  0.1106  0.3938 -0.3771
  778MOL0     N 4912   2.847   6.672   2.580  0.1805  1.5177  0.7145
  778MOL0     C 4913   2.762   6.613   2.485 -0.4786 -0.0781 -0.9671
  778MOL0     C 4914   2.825   6.498   2.453 -0.0815 -0.4810  0.0624
  778MOL0     C 4915   2.771   6.403   2.352  0.1333  0.9062 -0.4384
  778MOL0     C 4916   2.883   6.357   2.256 -0.9767  0.8977  0.2225
  778MOL0     C 4917   2.825   6.329   2.123 -0.7800 -0.2080  0.2375
  778MOL0     C 4918   2.951   6.299   2.026  0.6351  1.2434 -0.2803
  778MOL0     O 4919   2.999   6.161   2.043  0.6898 -0.4257  0.2725
  778MOL0     C 4920   2.948   6.044   1.991  0.2427  0.3796 -0.4519
  778MOL0     C 4921   3.042   5.938   2.007 -0.1829 -0.6854  0.5942
  778MOL0     C 4922   3.010   5.812   1.954  0.4958 -0.3437  0.6182
  778MOL0     C 4923   3.125   5.726   1.953  0.5429  0.0433 -0.1519
  778MOL0     C 4924   2.872   5.786   1.910 -0.9398 -0.2026 -0.4872
  778MOL0     C 4925   2.834   5.646   1.875  0.3412 -0.4873  0.1316
  778MOL0     O 4926   2.699   5.621   1.875  0.7140 -0.9473  0.1922
  778MOL0     C 4927   2.648   5.497   1.852  0.5504 -0.4743  0.0077
  778MOL0     C 4928   2.565   5.434   1.948  0.4810 -1.6103 -0.1894
  778MOL0     C 4929   2.516   5.306   1.941 -0.8037  0.1879  0.4416
  778MOL0     C 4930   2.521   5.242   1.817 -0.0748  0.3623 -0.9540
  778MOL0     O 4931   2.471   5.122   1.768 -0.1237  0.4768 -0.4817
  778MOL0     C 4932   2.417   5.033   1.852 -0.2060 -0.9705 -0.1784
  778MOL0     C 4933   2.532   4.936   1.910  0.2502 -0.1587  0.2891
  778MOL0     C 4934   2.633   4.891   1.800 -0.3380  0.0611  0.1244
  778MOL0     C 4935   2.695   4.756   1.807  0.3751  0.1526  0.7829
  778MOL0     C 4936   2.812   4.711   1.711  0.3467  0.2683  0.4563
  778MOL0     C 4937   2.801   4.739   1.556  0.7682 -0.4635 -1.0328
  778MOL0     C 4938   2.929   4.677   1.490 -0.0232 -0.2399  0.7633
  778MOL0     C 4939   2.960   4.736   1.355  0.2695 -0.6743  0.2731
  778MOL0    Cl 4940   3.074   4.633   1.267  0.1503  0.1058  0.1095
  778MOL0     C 4941   2.608   5.300   1.719  0.9664 -0.2952  0.7111
  778MOL0     C 4942   2.670   5.424   1.742 -0.2138  0.0482  0.7280
  778MOL0     O 4943   2.915   5.557   1.849  0.3955 -0.6294  0.2743
  778MOL0     C 4944   2.778   5.896   1.906 -0.5163 -0.0450  0.0750
  778MOL0     C 4945   2.820   6.021   1.949  0.9032 -0.7438  0.7969
  778MOL0     N 4946   2.942   6.481   2.525 -0.1625  0.7504  0.7564
  778MOL0     N 4947   2.948   6.584   2.608  1.3704 -0.3275 -0.5359
  778MOL0     C 4948   2.202   7.352   2.869 -0.4943  0.1087  0.8246
  778MOL0     C 4949   2.088   7.418   2.832  1.3663  0.1128 -0.5431
  778MOL0     C 4950   1.615   7.483   2.826 -0.2931  0.1297  0.1514
  778MOL0     C 4951   1.612   7.616   2.860  0.8215 -0.0003 -0.6147
  778MOL0     C 4952   1.494   7.688   2.833  0.0927 -0.3328 -0.0376
  778MOL0     C 4953   1.379   7.621   2.787 -0.4548 -0.2978 -0.2758
  778MOL0     O 4954   1.257   7.673   2.776  0.0002 -0.0787  0.2945
  778MOL0     C 4955   1.208   7.772   2.875 -0.2425 -0.0008 -0.1261
  778MOL0     C 4956   1.202   7.697   3.015  0.1379  0.7692 -0.6769
  778MOL0     C 4957   1.059   7.660   3.045  0.1440 -0.8234  0.2504
  778MOL0     C 4958   1.036   7.570   3.174 -0.0490 -0.0771 -0.8836
  778MOL0     C 4959   1.109   7.446   3.144  0.3138  0.1269  1.1451
  778MOL0     C 4960   1.157   7.343   3.109  0.0341  0.6839  0.0510
  778MOL0     C 4961   1.385   7.492   2.749 -0.4311  0.5287  0.6021
  778MOL0     C 4962   1.498   7.421   2.766 -0.5809 -0.0302 -0.0562
  778MOL0     H 4963   1.884   7.299   3.068 -0.6697  0.4505 -2.1963
  778MOL0     H 4964   2.092   7.172   3.123  0.0894  0.5778  0.5192
  778MOL0     H 4965   2.488   7.332   2.962 -0.8209  4.7347  0.3248
  778MOL0     H 4966   2.408   7.363   3.106 -0.6731  0.9439 -1.5403
  778MOL0     H 4967   2.624   7.268   3.135  0.7490 -0.3057 -2.8517
  778MOL0     H 4968   2.503   7.167   3.219  1.5812 -1.1375  0.4058
  778MOL0     H 4969   2.493   7.035   3.012  0.1792  3.1689 -0.4816
  778MOL0     H 4970   2.629   7.129   2.952  3.4598 -0.6340  1.2875
  778MOL0     H 4971   2.771   7.045   3.138 -2.4028  2.7308  1.8102
  778MOL0     H 4972   2.636   6.945   3.192  0.0806 -1.9606 -0.5073
  778MOL0     H 4973   2.779   6.809   3.067  0.2517 -2.4465 -1.5067
  778MOL0     H 4974   2.618   6.815   3.005 -0.3665  1.4523  1.1259
  778MOL0     H 4975   2.684   6.951   2.808  1.2055 -0.8886 -4.6893
  778MOL0     H 4976   2.848   6.954   2.884  1.4016 -2.6835  3.6834
  778MOL0     H 4977   2.850   6.702   2.854 -0.5911  0.5417  1.4697
  778MOL0     H 4978   2.683   6.719   2.784  0.4729 -1.8174 -1.2483
  778MOL0     H 4979   2.945   6.841   2.662  1.5937 -3.1824  0.5525
  778MOL0     H 4980   2.776   6.879   2.621 -0.8962  0.3072  1.2239
  778MOL0     H 4981   2.662   6.645   2.460 -0.0852  1.9229 -0.2111
  778MOL0     H 4982   2.746   6.314   2.411  2.7976  0.3902  0.0251
  778MOL0     H 4983   2.681   6.442   2.303 -2.2574  1.0777  3.6170
  778MOL0     H 4984   2.934   6.269   2.296 -2.6866  0.2477  1.1119
  778MOL0     H 4985   2.961   6.434   2.254  0.6152 -0.5826  1.9116
  778MOL0     H 4986   2.777   6.414   2.075 -2.4601 -2.5886 -2.6702
  778MOL0     H 4987   2.749   6.250   2.135 -2.3547  0.9506 -1.5027
  778MOL0     H 4988   3.031   6.371   2.042  3.5738 -1.6495 -0.8339
  778MOL0     H 4989   2.910   6.310   1.926 -0.7178  0.9874  0.2238
  778MOL0     H 4990   3.139   5.968   2.046  0.0427  0.5750 -0.8603
  778MOL0     H 4991   3.137   5.666   1.863 -0.0389  0.5058 -0.5468
  778MOL0     H 4992   3.222   5.773   1.973  1.3845 -1.7812  0.2555
  778MOL0     H 4993   3.112   5.663   2.041  1.2048  1.0691  0.7108
  778MOL0     H 4994   2.547   5.485   2.042  0.4945  1.3645 -1.6873
  778MOL0     H 4995   2.447   5.273   2.018 -0.2620  2.2156  1.8797
  778MOL0     H 4996   2.366   5.084   1.935  2.0350  1.8850 -0.4061
  778MOL0     H 4997   2.349   4.966   1.798  1.7174 -1.4865 -2.1240
  778MOL0     H 4998   2.585   4.985   1.992 -2.6307  2.2436  0.9261
  778MOL0     H 4999   2.477   4.853   1.955 -0.5545  0.7354  1.0086
  778MOL0     H 5000   2.714   4.964   1.790 -0.8324  0.6205  0.1189
  778MOL0     H 5001   2.589   4.880   1.700  0.4402  2.3329 -0.5453
  778MOL0     H 5002   2.738   4.749   1.907 -3.6573  0.4658  2.7558
  778MOL0     H 5003   2.626   4.671   1.794  1.6293 -0.4829 -2.9374
  778MOL0     H 5004   2.835   4.604   1.715 -0.7615 -0.0297 -0.5651
  778MOL0     H 5005   2.905   4.761   1.738  1.0796 -0.2645 -0.9894
  778MOL0     H 5006   2.722   4.670   1.526 -1.3185  0.9295  0.9590
  778MOL0     H 5007   2.779   4.845   1.545 -0.6607 -0.3670  1.8341
  778MOL0     H 5008   2.911   4.571   1.473 -2.6585  0.5666 -2.7064
  778MOL0     H 5009   3.012   4.687   1.560 -0.0022  1.7230  0.5252
  778MOL0     H 5010   3.012   4.831   1.370  0.9358 -1.2117  1.4916
  778MOL0     H 5011   2.857   4.735   1.316  0.1500  2.5614  0.2212
  778MOL0     H 5012   2.618   5.250   1.623  0.1399 -0.4224  0.6778
  778MOL0     H 5013   2.732   5.464   1.661 -3.3003  0.5225 -1.5885
  778MOL0     H 5014   2.674   5.879   1.881 -0.1445 -0.7467 -1.1223
  778MOL0     H 5015   2.741   6.094   1.960  1.4688 -0.2974  2.2334
  778MOL0     H 5016   2.298   7.369   2.820 -0.1220  0.2807  1.5943
  778MOL0     H 5017   2.092   7.485   2.746  2.7451 -1.8628 -2.1010
  778MOL0     H 5018   1.699   7.667   2.900  0.7988  0.6429 -1.3578
  778MOL0     H 5019   1.488   7.792   2.861  2.4216 -0.2885  0.4966
  778MOL0     H 5020   1.273   7.859   2.872  1.6190 -1.3583 -1.0412
  778MOL0     H 5021   1.111   7.813   2.844 -0.4667  1.3977  2.1864
  778MOL0     H 5022   1.244   7.761   3.093 -0.7363 -1.7742  2.0502
  778MOL0     H 5023   1.273   7.614   3.009  0.1455  0.4889  2.1265
  778MOL0     H 5024   1.008   7.618   2.958 -0.6864  1.7402 -0.6003
  778MOL0     H 5025   1.006   7.754   3.066  1.7925  0.1361  0.3110
  778MOL0     H 5026   0.930   7.545   3.186 -0.2412  1.3381  0.7854
  778MOL0     H 5027   1.063   7.626   3.264 -1.3952 -0.3941 -0.2514
  778MOL0     H 5028   1.180   7.243   3.077  0.2181  0.8418 -0.3250
  778MOL0     H 5029   1.297   7.444   2.708  0.2435  1.3458 -1.9528
  778MOL0     H 5030   1.508   7.317   2.735  1.2722 -0.5455  1.9479
  779MOL0     O 5031   6.932   1.654  11.209 -0.1257  0.4635  0.8208
  779MOL0     C 5032   6.983   1.545  11.181 -0.8229  0.4243  0.1691
  779MOL0     O 5033   7.031   1.515  11.057  0.4865 -0.3386  0.2624
  779MOL0     C 5034   7.036   1.623  10.969 -0.2640  0.5095  0.2999
  779MOL0     C 5035   6.994   1.601  10.839 -0.3585  0.2603  0.6740
  779MOL0     C 5036   7.009   1.706  10.744  0.3782  0.2666  0.7578
  779MOL0     C 5037   7.066   1.830  10.776  0.2365 -0.4763  1.0323
  779MOL0     O 5038   7.101   1.921  10.679  0.0977  0.6722 -0.0113
  779MOL0     C 5039   6.989   1.990  10.617 -0.3951 -0.8245  0.7461
  779MOL0     C 5040   7.046   2.061  10.483  0.8868  0.3917  1.2242
  779MOL0     C 5041   6.938   2.146  10.410  0.6161  0.5936  0.0689
  779MOL0     C 5042   6.883   2.082  10.288 -0.4453 -0.7793  0.6811
  779MOL0     C 5043   6.787   2.164  10.208  0.1983 -0.2429  1.0949
  779MOL0     C 5044   6.636   2.174  10.245 -0.4777  0.1962 -0.1817
  779MOL0     C 5045   6.575   2.035  10.260  0.3692  0.0775  0.3158
  779MOL0     C 5046   6.414   2.032  10.273 -0.0402  0.3025 -0.2961
  779MOL0     N 5047   6.355   2.027  10.145 -0.5340  0.5812  0.1039
  779MOL0     C 5048   6.266   1.932  10.104  0.0288 -0.8856  0.6434
  779MOL0     C 5049   6.222   1.980   9.986  0.1861  0.2328 -0.0133
  779MOL0     C 5050   6.129   1.919   9.876 -0.3791 -0.6210  0.4740
  779MOL0     C 5051   6.170   1.914   9.732  0.1515  0.3168  0.9373
  779MOL0     C 5052   6.300   1.838   9.713  0.2225 -0.4862 -0.4505
  779MOL0     C 5053   6.351   1.857   9.571  0.5400  0.2689  0.7958
  779MOL0     O 5054   6.463   1.770   9.541  0.0056 -0.4650  0.1883
  779MOL0     C 5055   6.424   1.652   9.475  0.9127 -0.1892 -0.6430
  779MOL0     C 5056   6.435   1.650   9.336 -0.2569 -0.3384  0.0414
  779MOL0     C 5057   6.402   1.536   9.265 -0.7533  0.4851  0.5313
  779MOL0     C 5058   6.413   1.550   9.116 -0.0896  0.0953  0.1220
  779MOL0     C 5059   6.368   1.418   9.342  0.0195 -0.7801  0.0229
  779MOL0     C 5060   6.354   1.287   9.265  0.2356 -0.6094 -0.2519
  779MOL0     O 5061   6.246   1.281   9.177 -1.0573  0.3224 -1.3525
  779MOL0     C 5062   6.241   1.176   9.089  0.8870 -0.2124 -0.2111
  779MOL0     C 5063   6.238   1.042   9.132 -0.5922  0.4377  1.1101
  779MOL0     C 5064   6.230   0.936   9.036  0.0983  0.4729  0.0918
  779MOL0     C 5065   6.233   0.967   8.900  0.7162  0.3575 -0.3046
  779MOL0     O 5066   6.215   0.865   8.816 -0.4535 -0.5172  0.8803
  779MOL0     C 5067   6.249   0.874   8.670 -0.2206 -0.6288 -0.4930
  779MOL0     C 5068   6.125   0.934   8.605 -0.5183 -0.4709 -0.0005
  779MOL0     C 5069   6.156   0.993   8.463  0.2044 -0.5434  0.0965
  779MOL0     C 5070   6.214   0.886   8.361 -1.2476 -0.1784 -0.3563
  779MOL0     C 5071   6.166   0.915   8.215 -0.7302  0.3107 -0.3241
  779MOL0     C 5072   6.251   0.844   8.105  1.0998  0.1832  0.3455
  779MOL0     C 5073   6.198   0.887   7.964  0.0443 -0.1765 -0.1974
  779MOL0     C 5074   6.047   0.840   7.949 -0.0778 -1.1134  0.0950
  779MOL0    Cl 5075   5.977   0.872   7.784  0.1540  0.3894  0.0568
  779MOL0     C 5076   6.232   1.100   8.859  1.0120 -0.0270  0.1257
  779MOL0     C 5077   6.230   1.199   8.955  0.2211  1.0883  0.5058
  779MOL0     O 5078   6.425   1.186   9.299 -0.2565  0.1771  0.6067
  779MOL0     C 5079   6.368   1.419   9.483 -0.4509 -0.6328  0.0124
  779MOL0     C 5080   6.389   1.535   9.553 -0.3502  0.0703  0.0938
  779MOL0     N 5081   6.270   2.108   9.963  0.6369 -0.4539  0.2889
  779MOL0     N 5082   6.353   2.130  10.061  0.3012 -0.1951  0.2223
  779MOL0     C 5083   7.091   1.862  10.908  0.9901  0.1745  0.7619
  779MOL0     C 5084   7.084   1.756  10.996 -0.2285  0.7305 -1.1887
  779MOL0     C 5085   6.999   1.439  11.293 -0.9279  0.0633  0.9690
  779MOL0     C 5086   6.953   1.460  11.425  0.3453 -0.3858 -0.3920
  779MOL0     C 5087   6.970   1.361  11.522  0.8357 -0.1074 -0.1055
  779MOL0     C 5088   7.031   1.243  11.492 -1.4733  0.6178 -0.4285
  779MOL0     O 5089   7.069   1.162  11.602 -1.0831  0.1435  0.3792
  779MOL0     C 5090   7.151   1.046  11.593 -0.4733 -0.2781  0.1597
  779MOL0     C 5091   7.071   0.925  11.564 -0.4482  0.6449  0.6277
  779MOL0     C 5092   6.961   0.900  11.665  0.2535  0.6899  0.6133
  779MOL0     C 5093   6.871   0.789  11.630  0.1817  0.3696 -1.0449
  779MOL0     C 5094   6.743   0.790  11.708 -0.1727  0.4570  0.2076
  779MOL0     C 5095   6.640   0.797  11.762  0.2186  0.8295  0.3124
  779MOL0     C 5096   7.077   1.225  11.362  0.2718 -0.0168  0.0154
  779MOL0     C 5097   7.060   1.318  11.263 -0.0796 -0.3405 -0.6413
  779MOL0     H 5098   6.972   1.500  10.807  0.3937  0.6193 -1.1332
  779MOL0     H 5099   6.974   1.684  10.644  3.8577 -0.2174 -0.5196
  779MOL0     H 5100   6.910   1.922  10.584 -1.4235 -0.5136  2.4661
  779MOL0     H 5101   6.949   2.065  10.686 -1.2292 -1.2197  0.7062
  779MOL0     H 5102   7.126   2.128  10.515  0.3758  0.0325  3.4799
  779MOL0     H 5103   7.084   1.984  10.416  1.1853  1.2201  0.4223
  779MOL0     H 5104   6.853   2.182  10.468  1.0187  0.7774  0.5474
  779MOL0     H 5105   6.982   2.242  10.384  2.4548  0.2875  1.8173
  779MOL0     H 5106   6.972   2.065  10.227  0.6098 -1.0203  2.2496
  779MOL0     H 5107   6.836   1.986  10.311 -3.1933 -0.5332 -2.9427
  779MOL0     H 5108   6.829   2.265  10.208 -2.0671  0.7605  0.6761
  779MOL0     H 5109   6.791   2.137  10.102  0.4222  3.3941  0.0483
  779MOL0     H 5110   6.631   2.223  10.343 -0.8333 -2.6115  1.3297
  779MOL0     H 5111   6.585   2.227  10.165  0.0248  1.2667  0.1901
  779MOL0     H 5112   6.591   1.979  10.168  1.1010  0.4711  0.1917
  779MOL0     H 5113   6.621   1.984  10.345  0.5826  1.0283  0.7883
  779MOL0     H 5114   6.371   2.114  10.330  0.5676  0.0699  0.5119
  779MOL0     H 5115   6.385   1.939  10.322  1.1394  0.1305  0.1055
  779MOL0     H 5116   6.234   1.840  10.152 -0.5217 -1.7351 -1.2296
  779MOL0     H 5117   6.117   1.813   9.897  1.5176 -1.2083 -1.1063
  779MOL0     H 5118   6.036   1.977   9.876  0.4197  0.9856 -3.4927
  779MOL0     H 5119   6.180   2.013   9.686  1.0425 -1.3702 -2.9004
  779MOL0     H 5120   6.091   1.864   9.676 -0.1450  0.6628  1.0465
  779MOL0     H 5121   6.281   1.732   9.733 -2.1237 -0.1167 -0.4690
  779MOL0     H 5122   6.378   1.866   9.784 -2.4817  0.7613  2.2759
  779MOL0     H 5123   6.392   1.958   9.566  0.7423  0.1370 -0.9117
  779MOL0     H 5124   6.278   1.858   9.489  0.9211 -1.8271  0.3662
  779MOL0     H 5125   6.437   1.745   9.284 -2.2808 -0.8390 -1.0855
  779MOL0     H 5126   6.462   1.643   9.087  1.2428 -0.5214  0.3296
  779MOL0     H 5127   6.476   1.464   9.090 -1.8226 -1.7376  1.6861
  779MOL0     H 5128   6.318   1.527   9.066 -0.5554  0.7180  0.7163
  779MOL0     H 5129   6.228   1.034   9.240 -0.9015  2.8748  1.3162
  779MOL0     H 5130   6.208   0.841   9.083  1.4059  0.5307  0.8659
  779MOL0     H 5131   6.323   0.951   8.644 -1.7513  0.9998 -0.1588
  779MOL0     H 5132   6.265   0.775   8.625 -2.2157 -1.4024  0.3997
  779MOL0     H 5133   6.054   0.852   8.592  2.4711 -3.4326  0.8017
  779MOL0     H 5134   6.080   1.014   8.665 -1.6924  0.4865 -2.0501
  779MOL0     H 5135   6.223   1.078   8.476 -1.1110  0.8613 -1.7174
  779MOL0     H 5136   6.063   1.032   8.420  0.4772 -2.3140 -2.2766
  779MOL0     H 5137   6.323   0.894   8.370 -1.4203  0.6688  1.5738
  779MOL0     H 5138   6.177   0.787   8.388 -2.1219  0.4190  0.7130
  779MOL0     H 5139   6.182   1.022   8.198 -0.6291  0.5450  1.1049
  779MOL0     H 5140   6.058   0.900   8.213 -1.1863  3.1342 -1.6186
  779MOL0     H 5141   6.357   0.865   8.123  0.9887  0.4578  0.6968
  779MOL0     H 5142   6.234   0.736   8.114 -0.5160  0.1623 -2.0844
  779MOL0     H 5143   6.267   0.840   7.892  1.4684  0.1710  0.8935
  779MOL0     H 5144   6.208   0.995   7.950  3.1406 -0.5178 -1.5955
  779MOL0     H 5145   5.985   0.899   8.018 -1.0741 -2.9560  0.8237
  779MOL0     H 5146   6.033   0.733   7.965 -0.5003 -1.8049 -4.0122
  779MOL0     H 5147   6.224   1.138   8.758  0.5029  1.0452  0.5458
  779MOL0     H 5148   6.243   1.302   8.923  1.3014  0.1845 -2.2935
  779MOL0     H 5149   6.353   1.336   9.551 -0.1207  1.4071  2.7387
  779MOL0     H 5150   6.391   1.529   9.661 -5.6936 -1.6002  0.3741
  779MOL0     H 5151   7.133   1.961  10.925 -1.0063  1.2056 -0.0178
  779MOL0     H 5152   7.112   1.786  11.097  2.6922  0.9290 -1.9724
  779MOL0     H 5153   6.891   1.538  11.465  0.5094 -0.5674  0.2256
  779MOL0     H 5154   6.942   1.389  11.624  0.3844 -4.5529  1.1848
  779MOL0     H 5155   7.221   1.058  11.510  0.7314 -1.4857  0.9659
  779MOL0     H 5156   7.208   1.032  11.685 -1.6660  0.6950  1.0792
  779MOL0     H 5157   7.135   0.837  11.559 -2.5567 -0.9233 -1.6654
  779MOL0     H 5158   7.039   0.930  11.459  1.2082 -1.2402 -0.0331
  779MOL0     H 5159   6.903   0.991  11.679 -0.5716  0.3982 -0.7338
  779MOL0     H 5160   7.018   0.878  11.755  1.6041 -0.5545 -0.4896
  779MOL0     H 5161   6.926   0.697  11.652 -0.3144  0.6552  1.8893
  779MOL0     H 5162   6.849   0.790  11.523  0.2286 -3.0756 -1.1723
  779MOL0     H 5163   6.542   0.794  11.805 -0.7521  0.5468 -1.8083
  779MOL0     H 5164   7.137   1.136  11.348  0.7831  0.0863  1.3695
  779MOL0     H 5165   7.106   1.294  11.168  4.4188  0.2981  1.1536
  780MOL0     O 5166   6.475  10.958   4.868  0.3601 -0.7008  0.1041
  780MOL0     C 5167   6.477  10.935   4.988  0.5609 -0.1798 -0.1762
  780MOL0     O 5168   6.391  10.855   5.055  0.8663 -0.0554 -0.1038
  780MOL0     C 5169   6.339  10.764   4.974  0.5757 -0.0337 -0.8212
  780MOL0     C 5170   6.214  10.713   5.020 -1.1535  0.0883 -0.5456
  780MOL0     C 5171   6.156  10.601   4.953 -0.2940 -0.1100 -0.4002
  780MOL0     C 5172   6.232  10.530   4.857 -0.6348 -1.4117  0.5976
  780MOL0     O 5173   6.180  10.415   4.806  0.1483 -0.6292 -0.4801
  780MOL0     C 5174   6.278  10.307   4.803 -0.1485  0.0214 -0.2825
  780MOL0     C 5175   6.222  10.173   4.859 -0.6081 -0.6911 -0.1727
  780MOL0     C 5176   6.181  10.183   5.003  0.8693  0.2952  0.2983
  780MOL0     C 5177   6.106  10.049   5.030 -1.0538  0.0410  0.8918
  780MOL0     C 5178   6.053  10.008   5.170 -1.0626  0.3449 -0.5099
  780MOL0     C 5179   5.952   9.893   5.169  0.4667  0.1761 -0.2263
  780MOL0     C 5180   5.892   9.888   5.306  0.0121  0.1821  0.1182
  780MOL0     C 5181   5.775   9.788   5.321  0.4715  1.0652 -0.5422
  780MOL0     N 5182   5.810   9.647   5.316  0.1007  0.4867 -0.4419
  780MOL0     C 5183   5.830   9.565   5.211  0.5923 -1.2240 -0.0956
  780MOL0     C 5184   5.875   9.445   5.264  0.5475  0.4344 -0.4284
  780MOL0     C 5185   5.900   9.329   5.183 -0.0440  1.1799  0.5045
  780MOL0     C 5186   6.048   9.312   5.137 -0.2990  0.4261 -0.0191
  780MOL0     C 5187   6.074   9.393   5.007  0.0930  0.8885 -1.3211
  780MOL0     C 5188   5.993   9.345   4.887 -0.0567  0.6582  1.0368
  780MOL0     O 5189   6.077   9.359   4.776 -0.4882 -0.1874  0.2321
  780MOL0     C 5190   6.080   9.274   4.667 -0.5763  0.2101 -0.4549
  780MOL0     C 5191   5.983   9.170   4.630 -0.4936 -0.2660  0.6821
  780MOL0     C 5192   5.994   9.093   4.521  0.7378 -0.3067  0.0230
  780MOL0     C 5193   5.901   8.972   4.511 -1.0508 -0.3240 -0.4915
  780MOL0     C 5194   6.103   9.115   4.433  0.3060  0.3738 -0.3790
  780MOL0     C 5195   6.121   9.037   4.305  0.4910 -0.6527 -0.2350
  780MOL0     O 5196   6.010   8.979   4.245 -0.2114 -0.5107 -0.3707
  780MOL0     C 5197   6.025   8.907   4.132  0.7237  0.4801  0.0796
  780MOL0     C 5198   5.909   8.912   4.048 -0.7835  0.5980  0.5062
  780MOL0     C 5199   5.895   8.831   3.933 -0.4581 -0.6522  0.3229
  780MOL0     C 5200   6.002   8.752   3.896  0.0070 -0.3721  0.1240
  780MOL0     O 5201   6.007   8.677   3.784 -0.7008 -0.8250 -0.1962
  780MOL0     C 5202   5.908   8.676   3.669 -0.3911 -0.3838 -0.3460
  780MOL0     C 5203   5.978   8.655   3.532  0.4881 -0.4051 -0.0545
  780MOL0     C 5204   6.067   8.776   3.510  0.7082  0.2241  0.2400
  780MOL0     C 5205   5.994   8.906   3.480  0.0247  0.3406 -0.1205
  780MOL0     C 5206   6.090   9.011   3.440 -0.5231  0.0618 -1.5636
  780MOL0     C 5207   6.021   9.148   3.430  0.3250 -0.0285  0.0537
  780MOL0     C 5208   5.967   9.148   3.288 -0.0211  0.1002 -0.4010
  780MOL0     C 5209   5.885   9.273   3.264 -0.9261  0.0383 -0.8121
  780MOL0    Cl 5210   5.869   9.302   3.093 -0.4412  0.1221 -0.2235
  780MOL0     C 5211   6.119   8.757   3.973 -0.5260 -0.2212 -0.1400
  780MOL0     C 5212   6.131   8.825   4.088 -0.0634 -1.0413  0.2792
  780MOL0     O 5213   6.231   9.050   4.249 -0.5225  0.1938  0.0971
  780MOL0     C 5214   6.206   9.199   4.474 -0.3470 -0.3018 -0.4347
  780MOL0     C 5215   6.193   9.283   4.584  0.0269 -1.2174  0.2553
  780MOL0     N 5216   5.891   9.458   5.402 -0.2169  0.6016  0.5111
  780MOL0     N 5217   5.834   9.577   5.433  0.6990  0.2687  0.3247
  780MOL0     C 5218   6.361  10.582   4.822 -0.5117 -0.1534  0.9774
  780MOL0     C 5219   6.415  10.696   4.878  0.5962 -0.1616 -0.4738
  780MOL0     C 5220   6.581  11.018   5.067  0.3296  0.0230 -0.4819
  780MOL0     C 5221   6.583  10.990   5.201 -0.3387 -0.1191 -0.3822
  780MOL0     C 5222   6.680  11.055   5.288 -0.3137 -0.6592  0.3012
  780MOL0     C 5223   6.767  11.157   5.235 -0.0093 -0.1980 -0.2776
  780MOL0     O 5224   6.870  11.227   5.295 -1.1696  0.0762 -0.2942
  780MOL0     C 5225   6.897  11.189   5.431 -0.3269 -0.8146  0.3271
  780MOL0     C 5226   6.791  11.240   5.530  1.2006 -0.2510  0.1228
  780MOL0     C 5227   6.813  11.171   5.664  0.0555 -0.5942 -0.2913
  780MOL0     C 5228   6.922  11.235   5.751  0.1177 -0.9424  0.7411
  780MOL0     C 5229   6.914  11.172   5.878  0.1299 -0.5665  0.6554
  780MOL0     C 5230   6.923  11.123   5.990  0.2408 -0.2035 -0.6012
  780MOL0     C 5231   6.758  11.179   5.099 -0.5344 -0.8962 -0.5786
  780MOL0     C 5232   6.675  11.104   5.014  0.4520  0.1287 -0.0615
  780MOL0     H 5233   6.156  10.767   5.094  1.2171  0.9903  0.7501
  780MOL0     H 5234   6.067  10.556   4.995  0.0014 -0.6331 -0.3299
  780MOL0     H 5235   6.310  10.299   4.699 -1.6143 -2.6401 -0.6397
  780MOL0     H 5236   6.362  10.329   4.869  0.4169  0.6557 -1.1970
  780MOL0     H 5237   6.139  10.140   4.796  1.1014  0.7625 -3.4354
  780MOL0     H 5238   6.297  10.095   4.844 -1.9510 -1.8526 -1.0881
  780MOL0     H 5239   6.273  10.196   5.061 -0.2855 -0.5885  2.4687
  780MOL0     H 5240   6.113  10.263   5.033 -2.0652 -2.2678  0.9824
  780MOL0     H 5241   6.016  10.055   4.968 -1.1700 -3.2476  0.5688
  780MOL0     H 5242   6.167   9.964   4.997 -2.7859 -0.3118 -1.7302
  780MOL0     H 5243   6.134   9.976   5.237 -0.9391 -1.5500 -1.4962
  780MOL0     H 5244   6.010  10.095   5.220  0.5995  0.2177  1.2795
  780MOL0     H 5245   5.870   9.905   5.099 -0.5865  0.0411  0.9448
  780MOL0     H 5246   5.998   9.796   5.151 -0.4965 -0.6284  1.4443
  780MOL0     H 5247   5.956   9.863   5.391 -2.1834  3.5362  3.0531
  780MOL0     H 5248   5.856   9.987   5.337 -3.1708 -1.1555  1.0609
  780MOL0     H 5249   5.700   9.803   5.243 -1.9046  0.3625  1.4962
  780MOL0     H 5250   5.724   9.817   5.412 -1.2976  1.6783 -1.6782
  780MOL0     H 5251   5.813   9.593   5.107  0.5351 -0.5717  0.0826
  780MOL0     H 5252   5.880   9.238   5.240  0.3280  0.4236 -0.5392
  780MOL0     H 5253   5.832   9.314   5.098  0.3162 -1.5495  0.6276
  780MOL0     H 5254   6.084   9.210   5.122 -1.6242 -0.6561  3.2529
  780MOL0     H 5255   6.108   9.359   5.215 -0.9360 -1.9798  2.0918
  780MOL0     H 5256   6.179   9.384   4.976  0.3884  0.2269 -0.1860
  780MOL0     H 5257   6.067   9.500   5.028 -0.1057  1.0985 -2.3972
  780MOL0     H 5258   5.908   9.413   4.871 -1.0777 -1.2615 -2.7522
  780MOL0     H 5259   5.974   9.239   4.904  3.0598  0.3546  3.5127
  780MOL0     H 5260   5.900   9.152   4.697  0.3252 -1.3271  1.4582
  780MOL0     H 5261   5.835   8.990   4.426  0.4428 -2.8000 -2.2653
  780MOL0     H 5262   5.952   8.877   4.500  0.9701  0.7540 -0.8520
  780MOL0     H 5263   5.847   8.967   4.606  1.4350  0.8427  1.1001
  780MOL0     H 5264   5.839   8.985   4.086 -2.1228 -0.3731 -0.0406
  780MOL0     H 5265   5.807   8.839   3.870  0.7030 -1.0323 -1.4482
  780MOL0     H 5266   5.830   8.601   3.680 -0.7809 -0.5354 -3.3672
  780MOL0     H 5267   5.851   8.770   3.666 -1.1719 -0.7846  0.8848
  780MOL0     H 5268   6.041   8.565   3.539  0.7834 -0.2047 -0.1439
  780MOL0     H 5269   5.896   8.644   3.461  1.2349  0.3295 -1.0498
  780MOL0     H 5270   6.132   8.740   3.430  1.0354  0.5137  0.3700
  780MOL0     H 5271   6.138   8.790   3.593 -0.4449 -0.2453  1.3397
  780MOL0     H 5272   5.927   8.882   3.396  1.2727 -0.8318 -0.8040
  780MOL0     H 5273   5.926   8.931   3.563 -0.8867 -2.1053 -0.0466
  780MOL0     H 5274   6.144   8.993   3.347  2.1677 -0.8242  0.0604
  780MOL0     H 5275   6.169   8.995   3.514  0.1152 -1.3689 -2.5203
  780MOL0     H 5276   5.950   9.174   3.509 -1.0075 -0.9259 -0.7956
  780MOL0     H 5277   6.096   9.227   3.429 -1.3365  1.6322  0.5289
  780MOL0     H 5278   5.903   9.062   3.266  0.0946 -0.4546  1.2581
  780MOL0     H 5279   6.055   9.150   3.223  1.0358  0.1383  0.9913
  780MOL0     H 5280   5.937   9.357   3.310 -0.4375 -1.1642  0.9099
  780MOL0     H 5281   5.794   9.264   3.324  0.0595  0.0461  0.7199
  780MOL0     H 5282   6.197   8.688   3.943  2.0337  1.2481  2.5987
  780MOL0     H 5283   6.227   8.815   4.140 -0.2507  0.0630  0.8598
  780MOL0     H 5284   6.299   9.206   4.419 -0.7218 -0.8865 -1.1408
  780MOL0     H 5285   6.276   9.348   4.613  0.6302 -0.7961 -2.1845
  780MOL0     H 5286   6.428  10.527   4.756 -0.1365 -0.9793  2.0097
  780MOL0     H 5287   6.514  10.730   4.851  0.8512  0.2760  0.9417
  780MOL0     H 5288   6.503  10.930   5.242  1.9561 -2.6733  0.6313
  780MOL0     H 5289   6.657  11.048   5.394 -1.3093  0.2411  0.1719
  780MOL0     H 5290   6.898  11.080   5.426  1.6875 -0.8010 -0.4752
  780MOL0     H 5291   6.999  11.210   5.465 -0.2542 -0.8909  0.1598
  780MOL0     H 5292   6.688  11.229   5.496  0.4217 -0.0380  2.2945
  780MOL0     H 5293   6.816  11.346   5.543 -1.1331  0.4602 -0.7414
  780MOL0     H 5294   6.828  11.065   5.642  2.8878 -0.5950  1.1112
  780MOL0     H 5295   6.720  11.183   5.721 -0.3031  0.8642 -1.1308
  780MOL0     H 5296   6.906  11.342   5.768 -3.5133 -1.1876 -0.2520
  780MOL0     H 5297   7.022  11.226   5.706 -1.0200  2.2539 -3.0312
  780MOL0     H 5298   6.917  11.086   6.090  1.9260 -0.7013 -0.6510
  780MOL0     H 5299   6.834  11.248   5.064 -1.3630 -1.0977 -2.9697
  780MOL0     H 5300   6.692  11.112   4.907  2.1199 -0.8930  0.0964
  781MOL0     O 5301   0.617   9.918   2.389 -0.1156 -0.2508  0.5889
  781MOL0     C 5302   0.739   9.910   2.421 -0.2546 -0.3193  1.0946
  781MOL0     O 5303   0.793   9.800   2.488 -0.6346  0.4748 -1.0071
  781MOL0     C 5304   0.730   9.680   2.504  0.2951  0.5234  0.5027
  781MOL0     C 5305   0.636   9.618   2.409  0.1665 -0.0170  0.3497
  781MOL0     C 5306   0.578   9.492   2.436 -0.3117  0.2851  0.0351
  781MOL0     C 5307   0.616   9.429   2.559 -0.0330 -0.7557  0.2193
  781MOL0     O 5308   0.558   9.312   2.595 -0.7651 -0.0255  0.6008
  781MOL0     C 5309   0.419   9.322   2.623  0.0666  0.5787 -0.6650
  781MOL0     C 5310   0.407   9.298   2.776 -0.1097 -0.3583 -0.0468
  781MOL0     C 5311   0.410   9.152   2.819  0.5119 -0.5725  0.7518
  781MOL0     C 5312   0.265   9.078   2.822  0.0533 -0.5043  0.5323
  781MOL0     C 5313   0.278   8.937   2.879  0.0610 -0.3367 -0.6373
  781MOL0     C 5314   0.399   8.846   2.828 -0.3508  1.0217  0.1469
  781MOL0     C 5315   0.410   8.713   2.904 -0.0158 -0.6279 -0.9672
  781MOL0     C 5316   0.455   8.734   3.051  0.3981  0.6825 -0.7385
  781MOL0     N 5317   0.489   8.608   3.125 -0.4154 -0.4341  0.3723
  781MOL0     C 5318   0.397   8.504   3.127 -0.0861  0.3345  0.4182
  781MOL0     C 5319   0.473   8.414   3.192  0.2799 -0.2132 -0.3119
  781MOL0     C 5320   0.439   8.268   3.231  0.0214  0.1701 -0.5864
  781MOL0     C 5321   0.484   8.238   3.379 -0.1958 -0.1264 -0.2245
  781MOL0     C 5322   0.430   8.105   3.424  0.3607  0.5582  1.2671
  781MOL0     C 5323   0.412   8.082   3.574  1.0090  0.0264  0.0023
  781MOL0     O 5324   0.309   8.175   3.609 -0.1375  0.9873 -0.6540
  781MOL0     C 5325   0.244   8.167   3.732  0.3099  0.2569 -0.3634
  781MOL0     C 5326   0.127   8.244   3.744  1.0068  0.0149  0.4758
  781MOL0     C 5327   0.044   8.243   3.856  0.7000  0.3853 -0.6207
  781MOL0     C 5328  -0.085   8.332   3.851  0.3020 -0.1172  0.5808
  781MOL0     C 5329   0.091   8.174   3.977 -0.1842 -1.0310 -0.1813
  781MOL0     C 5330   0.017   8.162   4.106  0.0243  0.6675  0.0617
  781MOL0     O 5331  -0.076   8.260   4.136 -0.4706  0.4546  0.5218
  781MOL0     C 5332  -0.146   8.269   4.255  0.5930 -0.4347  0.6431
  781MOL0     C 5333  -0.125   8.207   4.373  0.6494 -0.5016 -0.6216
  781MOL0     C 5334  -0.224   8.219   4.467  0.1944  0.0581  0.0035
  781MOL0     C 5335  -0.329   8.309   4.456  0.4746  0.7526 -0.2913
  781MOL0     O 5336  -0.413   8.316   4.565 -0.3179  0.0115  0.0640
  781MOL0     C 5337  -0.551   8.334   4.542 -0.4541 -0.0049  0.1082
  781MOL0     C 5338  -0.604   8.214   4.461  0.6859 -0.2925 -0.2610
  781MOL0     C 5339  -0.651   8.097   4.550  0.7845  0.3990  0.0952
  781MOL0     C 5340  -0.709   7.989   4.460  0.3860 -0.4577 -0.4306
  781MOL0     C 5341  -0.776   7.856   4.514 -0.3894 -0.9004  0.9774
  781MOL0     C 5342  -0.701   7.806   4.639  0.2552 -0.0057  1.4240
  781MOL0     C 5343  -0.736   7.666   4.663  0.8496  0.2795 -0.8303
  781MOL0     C 5344  -0.737   7.558   4.545  0.8426 -0.3241 -0.8538
  781MOL0    Cl 5345  -0.730   7.407   4.645  0.0147  0.7214  0.0533
  781MOL0     C 5346  -0.332   8.405   4.353  1.0756  0.0328  1.1071
  781MOL0     C 5347  -0.246   8.373   4.241 -1.3248 -0.0436  0.6213
  781MOL0     O 5348   0.041   8.061   4.171 -0.6342 -0.1901 -0.8755
  781MOL0     C 5349   0.208   8.091   3.965 -0.2042 -0.5589  0.5056
  781MOL0     C 5350   0.279   8.085   3.850 -0.7245  0.8993 -0.0635
  781MOL0     N 5351   0.587   8.467   3.234 -0.0621 -0.2063 -0.2642
  781MOL0     N 5352   0.598   8.589   3.203  0.0444  0.2303  0.5053
  781MOL0     C 5353   0.700   9.493   2.646  0.0225  0.8665 -0.8944
  781MOL0     C 5354   0.760   9.615   2.624 -0.4693  0.1130  0.0033
  781MOL0     C 5355   0.814  10.035   2.415  0.3934  0.1558 -0.8527
  781MOL0     C 5356   0.893  10.074   2.518 -0.0846  0.5213 -0.0432
  781MOL0     C 5357   0.956  10.198   2.512  0.9967 -0.4677  0.0485
  781MOL0     C 5358   0.945  10.281   2.398  0.1178  0.1124  0.6575
  781MOL0     O 5359   1.009  10.400   2.392 -0.6183 -0.6248  0.4496
  781MOL0     C 5360   0.983  10.496   2.503  0.5557 -0.4754  0.0035
  781MOL0     C 5361   1.067  10.618   2.473 -0.0107 -1.3697 -0.0626
  781MOL0     C 5362   1.054  10.720   2.591  0.1225  0.0792  0.0176
  781MOL0     C 5363   1.131  10.849   2.559 -0.7255  0.3702 -0.7273
  781MOL0     C 5364   1.041  10.951   2.504  0.4248 -0.3433  0.2612
  781MOL0     C 5365   0.959  11.022   2.437  0.0904 -0.4636  0.4493
  781MOL0     C 5366   0.874  10.238   2.289  0.3340  0.2773  0.4806
  781MOL0     C 5367   0.803  10.121   2.299 -0.0571 -0.7879  0.8204
  781MOL0     H 5368   0.609   9.671   2.319  0.2119 -0.3130  0.1613
  781MOL0     H 5369   0.510   9.459   2.358  1.4637  0.2692 -1.5782
  781MOL0     H 5370   0.380   9.419   2.591  2.1697  1.2976 -1.2107
  781MOL0     H 5371   0.366   9.245   2.567  0.2246  0.5677 -0.8024
  781MOL0     H 5372   0.495   9.341   2.826 -0.2386  1.4175 -1.2448
  781MOL0     H 5373   0.316   9.349   2.809  0.3630  0.5912 -0.1668
  781MOL0     H 5374   0.477   9.091   2.758 -0.2465 -1.9322  1.2252
  781MOL0     H 5375   0.445   9.153   2.923  1.0285 -0.7361  0.5835
  781MOL0     H 5376   0.189   9.130   2.882 -0.5520  0.5319 -1.0598
  781MOL0     H 5377   0.230   9.075   2.718  0.5360 -0.8698  0.3791
  781MOL0     H 5378   0.302   8.947   2.985  1.7923 -1.3248 -0.9023
  781MOL0     H 5379   0.186   8.881   2.859  0.3777 -0.5227 -1.6263
  781MOL0     H 5380   0.384   8.834   2.721 -2.0880 -2.3171  0.6386
  781MOL0     H 5381   0.493   8.902   2.831 -0.9620  3.0079 -5.6300
  781MOL0     H 5382   0.323   8.652   2.881 -0.3148 -0.7219  0.3187
  781MOL0     H 5383   0.494   8.654   2.867  2.7964  0.3893  3.0426
  781MOL0     H 5384   0.365   8.767   3.104 -0.0808 -2.4606  0.6351
  781MOL0     H 5385   0.529   8.815   3.055 -0.7060  1.8804 -3.0357
  781MOL0     H 5386   0.302   8.496   3.075 -0.5399  0.1809  1.2563
  781MOL0     H 5387   0.332   8.245   3.237  0.4264 -1.6062  3.7535
  781MOL0     H 5388   0.487   8.204   3.157 -2.2815 -0.6799 -1.4080
  781MOL0     H 5389   0.437   8.323   3.430 -1.5521 -1.2085  0.3780
  781MOL0     H 5390   0.591   8.251   3.399  0.0847 -0.3381 -1.5199
  781MOL0     H 5391   0.484   8.020   3.381  2.4731  0.7122  3.4206
  781MOL0     H 5392   0.330   8.094   3.382  1.0782 -0.6866 -0.2185
  781MOL0     H 5393   0.492   8.109   3.643 -0.9064  0.0385  2.3359
  781MOL0     H 5394   0.380   7.978   3.580  1.5120 -0.1566 -0.3594
  781MOL0     H 5395   0.099   8.306   3.660 -2.5534  0.1911  1.6209
  781MOL0     H 5396  -0.178   8.279   3.868  0.1491  0.5343  1.9159
  781MOL0     H 5397  -0.082   8.418   3.919 -2.0348 -0.4042  1.1070
  781MOL0     H 5398  -0.093   8.375   3.750  2.8427 -1.5706 -0.3355
  781MOL0     H 5399  -0.044   8.135   4.373 -0.0715 -1.3254 -0.6955
  781MOL0     H 5400  -0.222   8.149   4.550 -0.7874  0.7183  0.6065
  781MOL0     H 5401  -0.595   8.337   4.642 -0.7942  1.5969 -0.0652
  781MOL0     H 5402  -0.566   8.429   4.489  0.2629  1.6322  2.6909
  781MOL0     H 5403  -0.676   8.260   4.393  1.3797  2.0363  0.4890
  781MOL0     H 5404  -0.525   8.175   4.395  0.8329  0.2956 -0.4375
  781MOL0     H 5405  -0.708   8.124   4.639  4.1378 -1.3924  3.0442
  781MOL0     H 5406  -0.559   8.056   4.592  0.3863  0.8814  1.4991
  781MOL0     H 5407  -0.794   8.032   4.407 -1.0383 -0.6534  1.6136
  781MOL0     H 5408  -0.621   7.960   4.401  3.2747  2.1719  2.2009
  781MOL0     H 5409  -0.775   7.784   4.431 -0.2158 -0.2559  0.4111
  781MOL0     H 5410  -0.880   7.886   4.531  0.0443  0.9954  0.4350
  781MOL0     H 5411  -0.594   7.799   4.616 -0.2068  0.4783 -1.2165
  781MOL0     H 5412  -0.721   7.874   4.722 -0.7940  1.1893  0.2445
  781MOL0     H 5413  -0.835   7.655   4.710  1.7060 -0.4961  0.8862
  781MOL0     H 5414  -0.678   7.629   4.748 -2.5237 -2.4507  0.5218
  781MOL0     H 5415  -0.658   7.592   4.477 -1.9888  2.3356 -3.0878
  781MOL0     H 5416  -0.837   7.563   4.502 -0.5108  6.8806  1.6428
  781MOL0     H 5417  -0.392   8.495   4.360  0.5263 -0.4407  3.0196
  781MOL0     H 5418  -0.243   8.425   4.146  2.6915 -2.0077 -0.5330
  781MOL0     H 5419   0.252   8.034   4.046 -0.2769 -1.5942 -0.1700
  781MOL0     H 5420   0.355   8.008   3.845 -0.7967  0.7620  0.9121
  781MOL0     H 5421   0.718   9.450   2.744  2.4726  4.0257  0.2230
  781MOL0     H 5422   0.835   9.657   2.690 -1.0641  0.9312  0.1758
  781MOL0     H 5423   0.895  10.013   2.608 -0.8539  0.1306 -0.2808
  781MOL0     H 5424   1.019  10.246   2.586  0.3943  1.9173 -0.8846
  781MOL0     H 5425   0.878  10.510   2.530  0.4875  0.6803 -0.7810
  781MOL0     H 5426   1.027  10.467   2.599  0.6401  2.2842  0.8781
  781MOL0     H 5427   1.023  10.660   2.382  4.1362  0.3493 -1.5292
  781MOL0     H 5428   1.171  10.587   2.459  0.8188  0.8648  0.6694
  781MOL0     H 5429   1.095  10.668   2.678 -3.1171  0.5265  1.9530
  781MOL0     H 5430   0.947  10.734   2.609  0.5393  1.5511  1.6116
  781MOL0     H 5431   1.215  10.822   2.493 -1.5732 -1.1160 -1.2653
  781MOL0     H 5432   1.172  10.892   2.650  1.4489 -3.5580  0.4045
  781MOL0     H 5433   0.877  11.076   2.394 -0.2730 -0.4058  1.1966
  781MOL0     H 5434   0.859  10.290   2.195  1.1480 -1.2455 -0.5319
  781MOL0     H 5435   0.734  10.095   2.220  1.8745 -0.6086 -1.0320
  782MOL0     O 5436   9.245   0.960   2.703  0.7308 -0.0125 -0.0530
  782MOL0     C 5437   9.134   0.992   2.749 -0.1703  0.8767  0.3379
  782MOL0     O 5438   9.036   0.903   2.777  0.1728 -0.2335  0.2652
  782MOL0     C 5439   9.054   0.764   2.752  0.1764  0.3251 -0.4538
  782MOL0     C 5440   9.028   0.668   2.849  0.8125 -0.7740  0.0164
  782MOL0     C 5441   9.032   0.526   2.836  0.6315 -0.7611  0.3934
  782MOL0     C 5442   9.074   0.478   2.714  0.4238 -0.6503  0.3148
  782MOL0     O 5443   9.102   0.348   2.696  0.5800 -0.2329  0.1881
  782MOL0     C 5444   9.076   0.242   2.794  0.5829 -1.3907  0.1074
  782MOL0     C 5445   8.938   0.177   2.769 -0.1063  0.8927  0.1684
  782MOL0     C 5446   8.823   0.260   2.832 -0.5590  0.4566 -0.1295
  782MOL0     C 5447   8.693   0.202   2.805  1.1109 -0.0324 -0.7080
  782MOL0     C 5448   8.593   0.253   2.902  0.0266  0.0807 -0.6996
  782MOL0     C 5449   8.579   0.394   2.934  0.3310  0.5826 -0.6662
  782MOL0     C 5450   8.458   0.431   3.031 -0.7324 -0.1124  0.1204
  782MOL0     C 5451   8.440   0.386   3.177 -0.0429  0.7140 -0.1640
  782MOL0     N 5452   8.540   0.442   3.269  0.4546  0.7010 -0.5677
  782MOL0     C 5453   8.668   0.404   3.290 -0.1822  0.8955 -0.5096
  782MOL0     C 5454   8.712   0.477   3.395  0.5844 -0.2007 -0.0215
  782MOL0     C 5455   8.850   0.496   3.447  0.2019 -0.7503 -0.1401
  782MOL0     C 5456   8.847   0.514   3.598 -0.1352 -0.2561  0.0524
  782MOL0     C 5457   8.985   0.478   3.661  0.1704 -0.7451  0.4644
  782MOL0     C 5458   8.994   0.516   3.815  0.4851  0.0604 -1.0618
  782MOL0     O 5459   8.936   0.642   3.836 -0.2519  0.2661 -0.8805
  782MOL0     C 5460   8.926   0.684   3.970  0.2048 -0.6932  0.3123
  782MOL0     C 5461   8.841   0.788   3.984  0.2745  0.3846 -1.1026
  782MOL0     C 5462   8.806   0.848   4.108 -0.2275  0.4358  0.2262
  782MOL0     C 5463   8.717   0.971   4.118 -0.2757 -0.3622  0.0836
  782MOL0     C 5464   8.849   0.784   4.232  0.1126 -0.0247  0.8610
  782MOL0     C 5465   8.811   0.827   4.370 -0.0864  0.5796 -0.0104
  782MOL0     O 5466   8.682   0.863   4.407  0.1110  0.3377 -0.3673
  782MOL0     C 5467   8.665   0.918   4.541  0.0087  0.6931  0.0201
  782MOL0     C 5468   8.550   0.882   4.605  0.9139  0.6065 -0.3456
  782MOL0     C 5469   8.520   0.930   4.737 -0.0558  0.4727  0.3675
  782MOL0     C 5470   8.610   1.006   4.814 -0.0599 -0.2557 -0.3127
  782MOL0     O 5471   8.589   1.055   4.940 -0.9389  0.1884 -0.3121
  782MOL0     C 5472   8.457   1.045   4.994 -1.1347  0.0714  0.2058
  782MOL0     C 5473   8.441   1.069   5.140  0.0699 -0.2712 -0.3361
  782MOL0     C 5474   8.288   1.096   5.180 -0.2598  0.3071  0.3078
  782MOL0     C 5475   8.218   0.961   5.192 -1.3368  0.1019 -0.9527
  782MOL0     C 5476   8.067   0.972   5.159 -0.4301  0.2772 -0.0792
  782MOL0     C 5477   8.011   0.828   5.140 -0.4880  0.2310  0.1864
  782MOL0     C 5478   8.009   0.737   5.266 -0.3137 -0.3371 -0.5619
  782MOL0     C 5479   7.900   0.796   5.356 -0.2061  0.0642  0.7741
  782MOL0    Cl 5480   7.865   0.683   5.490 -0.2012 -0.2212  0.7071
  782MOL0     C 5481   8.725   1.049   4.745 -1.1694  0.0924 -1.0161
  782MOL0     C 5482   8.755   0.998   4.619 -0.0965  0.1514  0.8618
  782MOL0     O 5483   8.907   0.823   4.446  0.6516  0.3878 -0.6161
  782MOL0     C 5484   8.942   0.680   4.210  0.3749 -0.2376 -0.0756
  782MOL0     C 5485   8.977   0.625   4.084 -0.0853  0.7935 -0.4926
  782MOL0     N 5486   8.607   0.558   3.438  0.5358  0.4835 -0.0985
  782MOL0     N 5487   8.503   0.533   3.369 -0.2155 -0.4357 -0.2866
  782MOL0     C 5488   9.099   0.574   2.613  0.0119 -0.0613  0.2191
  782MOL0     C 5489   9.093   0.711   2.630  0.0465  0.4476 -0.0962
  782MOL0     C 5490   9.109   1.131   2.743  0.6981  0.5860  0.6878
  782MOL0     C 5491   8.977   1.168   2.783 -0.5654 -0.0758 -0.0535
  782MOL0     C 5492   8.931   1.298   2.768 -0.0955  0.7698  0.4703
  782MOL0     C 5493   9.006   1.405   2.741 -0.1820 -0.0623  1.2297
  782MOL0     O 5494   8.961   1.535   2.720 -0.8686  0.1618 -0.3642
  782MOL0     C 5495   8.839   1.574   2.791 -0.1950  0.3479 -0.7698
  782MOL0     C 5496   8.865   1.717   2.838 -0.4518 -0.6669  0.4921
  782MOL0     C 5497   8.909   1.812   2.719  0.6580  0.1174 -0.6179
  782MOL0     C 5498   8.914   1.954   2.766 -0.5251 -0.1330  0.2592
  782MOL0     C 5499   8.975   1.965   2.903  0.1731 -0.2471  0.2682
  782MOL0     C 5500   9.030   1.986   3.009  0.3356 -0.0833 -0.5643
  782MOL0     C 5501   9.135   1.371   2.698 -0.6473  0.3051  0.4487
  782MOL0     C 5502   9.184   1.238   2.694  0.3998  0.7528 -0.1818
  782MOL0     H 5503   8.996   0.705   2.946  1.4973 -1.0812  0.3669
  782MOL0     H 5504   9.016   0.455   2.917  1.5389 -0.7122  0.6239
  782MOL0     H 5505   9.154   0.169   2.769  3.2042  1.6518 -1.4462
  782MOL0     H 5506   9.081   0.270   2.899  1.7948 -0.7785 -0.0977
  782MOL0     H 5507   8.918   0.176   2.661  0.5294  2.5923  0.0060
  782MOL0     H 5508   8.930   0.076   2.809 -1.8684 -0.3397 -2.9229
  782MOL0     H 5509   8.845   0.267   2.939 -0.8549 -3.1976  0.3139
  782MOL0     H 5510   8.829   0.358   2.783  1.5992  0.1017 -0.6725
  782MOL0     H 5511   8.657   0.221   2.704 -0.6530 -1.2767 -0.3628
  782MOL0     H 5512   8.698   0.094   2.824  0.7439 -0.3964 -2.4745
  782MOL0     H 5513   8.496   0.212   2.876 -0.0591 -0.4770  0.4214
  782MOL0     H 5514   8.619   0.204   2.996 -1.0111 -1.5339 -1.2209
  782MOL0     H 5515   8.680   0.422   2.964  0.6833 -0.8937 -0.4363
  782MOL0     H 5516   8.558   0.440   2.836  0.8412  0.4718 -0.8282
  782MOL0     H 5517   8.452   0.540   3.036 -1.7558  0.3487 -5.4262
  782MOL0     H 5518   8.366   0.405   2.978  0.3377  2.0840 -3.1254
  782MOL0     H 5519   8.443   0.277   3.187 -1.3821  0.7073  0.3497
  782MOL0     H 5520   8.339   0.412   3.208  0.4380  2.6438 -0.0662
  782MOL0     H 5521   8.711   0.335   3.219 -1.0985 -1.8199  1.4151
  782MOL0     H 5522   8.918   0.413   3.423  1.9129 -0.8454  4.1126
  782MOL0     H 5523   8.889   0.589   3.405  0.1474  0.4701  2.3078
  782MOL0     H 5524   8.781   0.445   3.652  1.8647 -1.9114  0.5062
  782MOL0     H 5525   8.811   0.615   3.621 -0.1406  0.0577 -1.2423
  782MOL0     H 5526   9.065   0.529   3.606 -2.8427  0.5394 -3.0887
  782MOL0     H 5527   9.013   0.373   3.647  0.3226 -0.9169  1.9206
  782MOL0     H 5528   9.094   0.520   3.861  0.5053 -1.6953 -0.8935
  782MOL0     H 5529   8.938   0.440   3.870 -1.3235  0.4116 -2.3135
  782MOL0     H 5530   8.795   0.832   3.896  1.3551  3.0594 -0.4262
  782MOL0     H 5531   8.696   1.008   4.017  0.7965 -0.7565 -0.2999
  782MOL0     H 5532   8.623   0.936   4.162  0.0522 -2.4789 -0.7434
  782MOL0     H 5533   8.775   1.044   4.176 -1.1598  2.0937 -1.9366
  782MOL0     H 5534   8.476   0.819   4.556  1.9002 -1.7669  1.0924
  782MOL0     H 5535   8.417   0.909   4.761 -0.8514  1.4474 -1.8438
  782MOL0     H 5536   8.392   1.110   4.936 -2.9075 -2.7145 -1.1378
  782MOL0     H 5537   8.419   0.944   4.979 -2.4182  0.1095  2.7186
  782MOL0     H 5538   8.482   0.984   5.195  0.4837 -0.9204 -1.6238
  782MOL0     H 5539   8.504   1.153   5.171 -2.0573  0.9039  1.1475
  782MOL0     H 5540   8.242   1.145   5.094 -0.1130 -0.3666 -0.1663
  782MOL0     H 5541   8.274   1.153   5.272  2.4613 -0.3441  1.2444
  782MOL0     H 5542   8.259   0.883   5.127 -2.1520 -1.3111  0.1919
  782MOL0     H 5543   8.220   0.932   5.297 -2.0907  0.8238 -0.7269
  782MOL0     H 5544   8.054   1.025   5.064 -1.6882 -2.7395 -1.7360
  782MOL0     H 5545   8.000   1.012   5.235  0.0162 -3.7794  2.7857
  782MOL0     H 5546   7.905   0.835   5.115 -0.4461  2.3232  0.4088
  782MOL0     H 5547   8.056   0.773   5.057 -1.2760  1.5370 -1.1527
  782MOL0     H 5548   8.108   0.731   5.312 -0.4905  1.8392  0.2188
  782MOL0     H 5549   7.974   0.638   5.236 -1.1332  0.2463 -1.6023
  782MOL0     H 5550   7.808   0.813   5.299  1.7908 -0.5948 -2.9540
  782MOL0     H 5551   7.918   0.891   5.407 -4.3427  0.2594  2.2333
  782MOL0     H 5552   8.787   1.123   4.794 -2.5509 -1.3268  3.3296
  782MOL0     H 5553   8.845   1.037   4.573 -1.4147  1.7101 -0.5213
  782MOL0     H 5554   8.984   0.632   4.297 -0.0508 -2.8661 -1.2296
  782MOL0     H 5555   9.046   0.541   4.089  3.4850  3.4369 -1.5562
  782MOL0     H 5556   9.139   0.553   2.514 -0.6826 -0.3260 -0.0084
  782MOL0     H 5557   9.111   0.770   2.541  1.9019 -0.8685 -0.6562
  782MOL0     H 5558   8.902   1.097   2.817  0.4708 -0.4155  1.6815
  782MOL0     H 5559   8.823   1.310   2.780 -0.4037 -1.7494  0.8147
  782MOL0     H 5560   8.759   1.558   2.718 -0.2951 -0.6048 -0.4737
  782MOL0     H 5561   8.800   1.515   2.874  1.2454  0.0722 -0.2643
  782MOL0     H 5562   8.932   1.714   2.924  0.1748 -1.2003 -0.0075
  782MOL0     H 5563   8.769   1.752   2.877  0.1771  0.4461  1.0753
  782MOL0     H 5564   8.831   1.793   2.645 -1.1463 -0.6940  1.4084
  782MOL0     H 5565   9.008   1.788   2.678  0.2442 -0.5349 -1.2530
  782MOL0     H 5566   8.814   1.998   2.774 -0.1581  0.4909  2.2113
  782MOL0     H 5567   8.958   2.013   2.685 -1.7940  2.0582  1.0608
  782MOL0     H 5568   9.070   1.993   3.108  1.0646  0.1624 -0.8637
  782MOL0     H 5569   9.202   1.450   2.665 -0.3639  0.0761  0.4722
  782MOL0     H 5570   9.282   1.215   2.653  0.2578 -1.2687  0.4841
  783MOL0     O 5571  10.901   9.515   6.300  0.3728 -0.2969  0.4421
  783MOL0     C 5572  10.877   9.597   6.212  0.1203 -0.6094  0.1124
  783MOL0     O 5573  10.917   9.729   6.216 -0.0471  0.1216  0.5429
  783MOL0     C 5574  10.969   9.788   6.331  1.1221  0.6589 -0.1842
  783MOL0     C 5575  11.064   9.878   6.297  0.2311  0.3521 -0.0389
  783MOL0     C 5576  11.127   9.944   6.401  0.0752  0.6370 -0.3213
  783MOL0     C 5577  11.075   9.940   6.531  1.1689 -1.3521  0.6996
  783MOL0     O 5578  11.122  10.033   6.626  0.4368  0.0885  0.2043
  783MOL0     C 5579  11.142   9.977   6.752  0.0969  0.1060 -0.4485
  783MOL0     C 5580  11.182  10.091   6.843  0.0331  0.2661  0.3747
  783MOL0     C 5581  11.223  10.061   6.990  0.0642  0.3809  0.2522
  783MOL0     C 5582  11.136   9.948   7.047  0.0582  0.4311 -0.1284
  783MOL0     C 5583  11.154   9.942   7.198  0.0456  0.1806  0.3855
  783MOL0     C 5584  11.086   9.812   7.236 -0.5302 -0.2124 -0.5030
  783MOL0     C 5585  11.080   9.821   7.386 -0.4828 -0.1559 -0.7219
  783MOL0     C 5586  10.981   9.907   7.457  1.1732 -0.1711 -0.2507
  783MOL0     N 5587  10.848   9.884   7.402  0.1400  0.1920  0.4761
  783MOL0     C 5588  10.758   9.773   7.419 -0.2804 -0.5876  0.4603
  783MOL0     C 5589  10.663   9.794   7.331 -0.5341 -0.2148  0.1123
  783MOL0     C 5590  10.537   9.714   7.319 -0.3706 -0.3120  0.5830
  783MOL0     C 5591  10.466   9.689   7.441  0.7496  0.3291  0.5788
  783MOL0     C 5592  10.403   9.803   7.516 -0.8205  0.5929 -0.1391
  783MOL0     C 5593  10.289   9.858   7.432  0.2116 -0.1849 -0.6845
  783MOL0     O 5594  10.222   9.959   7.515 -0.6123 -0.2934  0.6610
  783MOL0     C 5595  10.111  10.021   7.468  0.9262  0.9645 -0.0614
  783MOL0     C 5596  10.092  10.153   7.501 -0.7195  0.3774 -0.1730
  783MOL0     C 5597   9.981  10.231   7.455 -0.7195 -0.0732 -0.2704
  783MOL0     C 5598   9.968  10.367   7.500  0.0564 -0.3546  0.0664
  783MOL0     C 5599   9.898  10.176   7.357  0.7402 -0.2157 -0.7965
  783MOL0     C 5600   9.800  10.261   7.280  0.4988 -0.5963 -0.2419
  783MOL0     O 5601   9.755  10.379   7.349  0.1410 -0.2753  0.8196
  783MOL0     C 5602   9.627  10.417   7.315  0.4441 -0.8778 -0.0330
  783MOL0     C 5603   9.613  10.534   7.232 -0.5253 -0.0183 -0.5171
  783MOL0     C 5604   9.489  10.578   7.197  0.3998 -0.4233  0.2906
  783MOL0     C 5605   9.368  10.518   7.249  0.1538 -0.6789 -0.1233
  783MOL0     O 5606   9.244  10.559   7.232  0.6884 -0.2475  0.4432
  783MOL0     C 5607   9.228  10.670   7.143 -0.2607 -0.0971 -0.0687
  783MOL0     C 5608   9.081  10.724   7.154 -0.5102  0.1652 -0.0165
  783MOL0     C 5609   9.090  10.873   7.190  0.1844 -0.5321  0.2261
  783MOL0     C 5610   8.949  10.934   7.208  0.5476  0.3319 -1.1286
  783MOL0     C 5611   8.958  11.039   7.318  0.1257 -0.2826 -0.0647
  783MOL0     C 5612   9.029  11.172   7.301 -0.5407 -0.3781  0.8673
  783MOL0     C 5613   9.057  11.250   7.429 -0.5766 -0.5205  0.6469
  783MOL0     C 5614   9.074  11.403   7.406 -0.9839  1.2380  0.2049
  783MOL0    Cl 5615   9.027  11.477   7.561 -0.1138 -0.4569 -0.3211
  783MOL0     C 5616   9.385  10.411   7.334 -0.5081 -1.2406 -0.1439
  783MOL0     C 5617   9.513  10.358   7.363  1.3022 -0.1933 -0.9818
  783MOL0     O 5618   9.753  10.222   7.172  0.4409  0.6900 -1.0062
  783MOL0     C 5619   9.930  10.050   7.311  0.7913 -0.5899 -0.3793
  783MOL0     C 5620  10.026   9.972   7.371 -1.0179 -0.2275 -0.1491
  783MOL0     N 5621  10.692   9.921   7.270  0.5462 -0.6279 -1.2107
  783MOL0     N 5622  10.798   9.971   7.308  0.0859  0.3190  0.4200
  783MOL0     C 5623  10.968   9.858   6.562 -0.1805  0.8893  0.8951
  783MOL0     C 5624  10.929   9.763   6.464  0.1031 -0.0301  0.1678
  783MOL0     C 5625  10.809   9.551   6.092 -0.4267  0.2671  0.4398
  783MOL0     C 5626  10.795   9.632   5.975 -0.9047 -0.3103 -0.0843
  783MOL0     C 5627  10.740   9.576   5.860 -0.0495  0.9572 -0.4882
  783MOL0     C 5628  10.675   9.454   5.859  0.6814 -0.5522 -0.2017
  783MOL0     O 5629  10.607   9.419   5.747 -0.2062  0.4088  0.9239
  783MOL0     C 5630  10.509   9.315   5.751  0.4995 -1.4034 -0.1693
  783MOL0     C 5631  10.413   9.300   5.630  0.6106 -0.4724 -0.8224
  783MOL0     C 5632  10.313   9.187   5.629  0.1665  0.2051  0.1015
  783MOL0     C 5633  10.369   9.040   5.619  0.0648  0.4148  0.0278
  783MOL0     C 5634  10.441   9.018   5.491 -0.2278  0.3144  0.3666
  783MOL0     C 5635  10.521   8.989   5.405 -0.2314  0.7375  0.4266
  783MOL0     C 5636  10.682   9.383   5.977 -0.5313  0.1242 -0.8078
  783MOL0     C 5637  10.753   9.427   6.089 -0.5249  0.8024  0.4038
  783MOL0     H 5638  11.092   9.904   6.196  1.0225  2.3115  0.6301
  783MOL0     H 5639  11.203  10.020   6.388  0.4024  0.3746  0.0829
  783MOL0     H 5640  11.052   9.929   6.790  0.3997 -1.3123 -1.4407
  783MOL0     H 5641  11.225   9.905   6.753  0.4517  0.4871  1.2100
  783MOL0     H 5642  11.262  10.143   6.790 -1.0731 -0.0177 -1.6557
  783MOL0     H 5643  11.092  10.153   6.847 -0.8818 -0.8157 -1.9301
  783MOL0     H 5644  11.330  10.042   7.006  0.2934  0.4034 -1.0954
  783MOL0     H 5645  11.204  10.155   7.042 -1.7305  1.4902 -2.2087
  783MOL0     H 5646  11.028   9.959   7.027 -0.9421 -2.5715  2.8533
  783MOL0     H 5647  11.162   9.849   7.010 -1.3070 -1.7379  4.1013
  783MOL0     H 5648  11.255   9.928   7.238  0.6478  0.7447 -0.9057
  783MOL0     H 5649  11.114  10.035   7.240  0.8280 -0.5692  2.9628
  783MOL0     H 5650  10.989   9.807   7.186 -0.3065  2.0066 -1.2808
  783MOL0     H 5651  11.158   9.735   7.209 -0.0294  1.0228 -2.9722
  783MOL0     H 5652  11.055   9.722   7.426 -1.0388 -0.1919 -1.1452
  783MOL0     H 5653  11.181   9.838   7.425  0.6832 -4.7330 -1.2217
  783MOL0     H 5654  11.003  10.013   7.440 -1.4137  0.6590  0.9684
  783MOL0     H 5655  10.974   9.891   7.565  0.4098 -1.1494 -0.4281
  783MOL0     H 5656  10.761   9.696   7.495 -2.2612  1.2991  2.6114
  783MOL0     H 5657  10.477   9.775   7.250  0.9452  0.3414 -0.0259
  783MOL0     H 5658  10.569   9.622   7.270  0.3823 -0.9481  2.2242
  783MOL0     H 5659  10.542   9.648   7.509  3.1600  0.2394 -2.0088
  783MOL0     H 5660  10.389   9.613   7.432 -0.5012  1.7338 -1.3221
  783MOL0     H 5661  10.481   9.879   7.526  0.6256 -0.4266 -2.6973
  783MOL0     H 5662  10.354   9.776   7.610 -0.6292  2.2138  0.4579
  783MOL0     H 5663  10.220   9.777   7.407 -1.6002  0.3534  2.1421
  783MOL0     H 5664  10.319   9.897   7.334  0.7072  2.3619  0.3929
  783MOL0     H 5665  10.174  10.200   7.555 -0.2404 -1.4047  0.7268
  783MOL0     H 5666   9.969  10.431   7.411 -1.7673 -0.3414  0.0233
  783MOL0     H 5667   9.871  10.370   7.551 -0.5117 -2.7437 -0.7160
  783MOL0     H 5668  10.038  10.381   7.583 -0.7601 -0.8555  0.8661
  783MOL0     H 5669   9.691  10.602   7.200 -0.8201  1.1200  1.0508
  783MOL0     H 5670   9.493  10.655   7.121  0.0024  1.0996  1.7470
  783MOL0     H 5671   9.304  10.748   7.156  0.2071 -0.3055 -1.4414
  783MOL0     H 5672   9.246  10.645   7.039  0.8199 -1.8225  0.4891
  783MOL0     H 5673   9.033  10.724   7.056  1.1210  0.0262 -0.8510
  783MOL0     H 5674   9.018  10.668   7.224  2.6476 -2.3159  1.0571
  783MOL0     H 5675   9.145  10.932   7.116  0.0772 -0.1988  0.4132
  783MOL0     H 5676   9.131  10.874   7.291 -3.4542  0.1454  1.8773
  783MOL0     H 5677   8.929  10.989   7.116  0.4749  1.1902 -0.6065
  783MOL0     H 5678   8.873  10.857   7.223 -0.1645  1.1140 -0.6476
  783MOL0     H 5679   8.985  10.986   7.409 -0.9394 -1.9156 -0.6474
  783MOL0     H 5680   8.859  11.083   7.333 -0.0860  0.3879 -2.8122
  783MOL0     H 5681   9.130  11.146   7.267 -0.8349 -0.6382  0.1896
  783MOL0     H 5682   8.976  11.232   7.227  1.8530  1.6809  0.6814
  783MOL0     H 5683   9.143  11.215   7.486  1.2313  3.0891  0.4559
  783MOL0     H 5684   8.964  11.232   7.483 -0.9576 -2.2444 -0.4918
  783MOL0     H 5685   8.997  11.436   7.335 -0.9826  1.5170  0.3331
  783MOL0     H 5686   9.176  11.437   7.387 -1.1769  2.0394  0.5658
  783MOL0     H 5687   9.294  10.376   7.383 -0.4435 -0.5886  0.4638
  783MOL0     H 5688   9.514  10.271   7.427  0.0479 -0.3540 -1.1408
  783MOL0     H 5689   9.879  10.008   7.225 -1.9998  2.5255 -0.4330
  783MOL0     H 5690  10.029   9.871   7.332  1.1264  0.6316 -2.4162
  783MOL0     H 5691  10.921   9.863   6.659 -3.9065  1.1463 -0.7620
  783MOL0     H 5692  10.867   9.684   6.503  1.1139 -0.5169  0.8320
  783MOL0     H 5693  10.849   9.726   5.977 -2.4233  0.5739  0.3334
  783MOL0     H 5694  10.731   9.620   5.761 -1.4776 -1.6576 -1.5920
  783MOL0     H 5695  10.561   9.220   5.764  0.5393 -1.8253 -2.8094
  783MOL0     H 5696  10.449   9.345   5.838  2.1511  4.1243 -0.5043
  783MOL0     H 5697  10.471   9.294   5.537  0.4868  0.9426 -1.0191
  783MOL0     H 5698  10.357   9.394   5.620 -0.2462 -0.9627 -0.6705
  783MOL0     H 5699  10.250   9.214   5.544 -0.6219  1.2660  0.9792
  783MOL0     H 5700  10.250   9.202   5.717 -0.3675  1.1430 -0.4237
  783MOL0     H 5701  10.286   8.969   5.630 -1.9910  2.4454 -1.2326
  783MOL0     H 5702  10.427   9.013   5.707 -1.9089 -2.6856  0.5465
  783MOL0     H 5703  10.593   8.967   5.329 -2.5429  1.2380 -2.1170
  783MOL0     H 5704  10.664   9.276   5.970 -0.0024 -0.2049  1.8679
  783MOL0     H 5705  10.785   9.355   6.164 -1.1457  0.6855  0.5573
  784MOL0     O 5706  10.989   6.497  11.091  0.4550 -0.2085  0.5384
  784MOL0     C 5707  10.988   6.416  11.179  0.1168 -0.0112  0.9789
  784MOL0     O 5708  10.993   6.285  11.163  0.5261 -0.5537 -0.5002
  784MOL0     C 5709  11.011   6.253  11.029 -1.3055 -0.4737 -0.3484
  784MOL0     C 5710  11.139   6.259  10.980 -0.2385  0.5642 -0.4242
  784MOL0     C 5711  11.169   6.191  10.859 -0.4869 -0.9671 -0.9568
  784MOL0     C 5712  11.069   6.138  10.787 -0.5491  0.2499  0.2288
  784MOL0     O 5713  11.109   6.081  10.669  0.1133  0.5028 -0.7104
  784MOL0     C 5714  11.043   5.970  10.626  0.0902  0.6961  0.5820
  784MOL0     C 5715  11.085   5.829  10.692  0.2559  0.1539 -0.8642
  784MOL0     C 5716  10.957   5.749  10.740  0.7644 -0.8939  0.4652
  784MOL0     C 5717  10.984   5.645  10.848 -0.2433  0.0490 -0.5497
  784MOL0     C 5718  10.857   5.557  10.889  0.3976 -0.0917 -0.2591
  784MOL0     C 5719  10.878   5.464  11.008  0.3305  0.2977 -0.3867
  784MOL0     C 5720  10.759   5.430  11.088  0.7574 -0.1628 -0.4655
  784MOL0     C 5721  10.744   5.541  11.191 -0.5211 -0.8127 -0.4367
  784MOL0     N 5722  10.642   5.528  11.290  0.1592  0.2601 -0.3658
  784MOL0     C 5723  10.517   5.472  11.257  1.0673 -0.5499 -0.6837
  784MOL0     C 5724  10.455   5.466  11.381  0.4697  0.3682  0.9375
  784MOL0     C 5725  10.327   5.412  11.404  0.1740 -0.2632 -0.2258
  784MOL0     C 5726  10.314   5.267  11.372  0.1184  0.1136  0.1573
  784MOL0     C 5727  10.192   5.197  11.432 -0.4751  0.9936  0.2581
  784MOL0     C 5728  10.214   5.152  11.578 -0.8609  0.6194 -0.5677
  784MOL0     O 5729  10.096   5.088  11.628 -0.4786  0.1155  0.2364
  784MOL0     C 5730  10.095   5.081  11.763  0.2101 -0.4375 -0.1544
  784MOL0     C 5731  10.010   5.168  11.822 -0.7347 -0.0418 -0.0203
  784MOL0     C 5732  10.013   5.193  11.966  0.1062  0.1927 -0.7529
  784MOL0     C 5733   9.907   5.291  12.020 -0.0888 -0.1584  0.3093
  784MOL0     C 5734  10.089   5.124  12.052 -0.0242  0.0103 -0.5887
  784MOL0     C 5735  10.110   5.159  12.191 -0.0693  0.1750  0.4393
  784MOL0     O 5736  10.010   5.131  12.270 -0.1363 -0.1970  0.1338
  784MOL0     C 5737  10.003   5.163  12.404 -0.1747  0.3629  0.4909
  784MOL0     C 5738  10.094   5.232  12.491 -0.3702 -0.3084 -0.4360
  784MOL0     C 5739  10.054   5.274  12.617  0.1026 -0.7897 -0.3002
  784MOL0     C 5740   9.929   5.234  12.670 -0.5560 -0.5588 -0.9583
  784MOL0     O 5741   9.893   5.252  12.803 -0.1522  0.1444 -0.0512
  784MOL0     C 5742   9.990   5.275  12.898  0.1500 -0.0588  0.4990
  784MOL0     C 5743  10.073   5.145  12.917  0.4528 -0.1566  1.4212
  784MOL0     C 5744  10.158   5.153  13.041 -0.3999 -0.0825  0.6769
  784MOL0     C 5745  10.259   5.029  13.030  0.4742 -0.0791  0.0286
  784MOL0     C 5746  10.278   4.969  13.167  1.2088 -0.2473 -0.3620
  784MOL0     C 5747  10.382   4.863  13.179  0.0167 -0.3159  0.0051
  784MOL0     C 5748  10.397   4.798  13.321  0.1731  0.5319  0.0857
  784MOL0     C 5749  10.513   4.698  13.331  0.3164  0.0848 -0.2191
  784MOL0    Cl 5750  10.668   4.781  13.347 -0.5629  0.3170 -0.4515
  784MOL0     C 5751   9.845   5.163  12.584  0.0114  0.3658  0.0623
  784MOL0     C 5752   9.872   5.139  12.449  0.0713 -0.3871  0.1927
  784MOL0     O 5753  10.227   5.187  12.224  0.8354  0.7795 -0.4907
  784MOL0     C 5754  10.172   5.021  11.993 -0.2214  0.2248  0.4563
  784MOL0     C 5755  10.173   5.008  11.851 -0.2926  0.4734 -0.3115
  784MOL0     N 5756  10.546   5.500  11.480  0.1899  0.9230 -0.0438
  784MOL0     N 5757  10.658   5.544  11.423 -0.2675 -0.0769 -0.4492
  784MOL0     C 5758  10.938   6.141  10.833  0.0877 -0.3409 -0.1209
  784MOL0     C 5759  10.909   6.191  10.952 -0.3327 -0.4763 -0.9463
  784MOL0     C 5760  10.954   6.463  11.312 -0.1240  0.5245 -0.5024
  784MOL0     C 5761  10.935   6.369  11.422  0.4545 -0.2111  0.2675
  784MOL0     C 5762  10.905   6.427  11.546  0.0972 -0.1199 -0.0484
  784MOL0     C 5763  10.896   6.568  11.564 -0.4518  0.5334  0.4483
  784MOL0     O 5764  10.850   6.611  11.681 -0.2076  0.1192 -0.6951
  784MOL0     C 5765  10.799   6.749  11.711 -0.7488  0.9123  0.6509
  784MOL0     C 5766  10.697   6.744  11.833 -0.6816 -0.1666  0.3567
  784MOL0     C 5767  10.755   6.661  11.957 -0.8782 -0.6689  0.2353
  784MOL0     C 5768  10.676   6.537  11.991 -0.8809 -0.1236  0.4984
  784MOL0     C 5769  10.761   6.447  12.067  0.4437  0.1467  0.3871
  784MOL0     C 5770  10.824   6.368  12.143 -0.6048  0.2484  0.1408
  784MOL0     C 5771  10.914   6.658  11.454  0.8172 -0.2374 -0.8126
  784MOL0     C 5772  10.938   6.601  11.330  0.5629 -0.1263  0.4735
  784MOL0     H 5773  11.219   6.303  11.038 -1.5125 -0.3840  2.1798
  784MOL0     H 5774  11.271   6.197  10.821  0.3175  4.4996  1.1040
  784MOL0     H 5775  10.933   5.973  10.625 -0.0692 -0.7141 -3.1322
  784MOL0     H 5776  11.063   5.963  10.519  0.6279 -0.9050  0.7682
  784MOL0     H 5777  11.148   5.768  10.627 -0.9787  0.1111 -2.0597
  784MOL0     H 5778  11.142   5.842  10.785  0.2836  1.0578 -1.0055
  784MOL0     H 5779  10.894   5.814  10.802 -0.2341  0.5670 -1.9532
  784MOL0     H 5780  10.899   5.705  10.658  0.1146  2.8581 -1.2677
  784MOL0     H 5781  11.065   5.575  10.824  0.1791  1.0807 -2.3180
  784MOL0     H 5782  11.021   5.698  10.937 -0.3888  1.2378 -1.1832
  784MOL0     H 5783  10.769   5.620  10.906 -0.9070 -2.3496  1.9559
  784MOL0     H 5784  10.834   5.489  10.806 -2.2142  0.7472 -0.3071
  784MOL0     H 5785  10.906   5.367  10.965 -0.5044  1.0080 -2.6785
  784MOL0     H 5786  10.964   5.483  11.073 -1.5120  0.4102  2.1726
  784MOL0     H 5787  10.672   5.410  11.024 -2.9889  1.6997  3.5564
  784MOL0     H 5788  10.778   5.336  11.141  0.2165  1.0200  1.9441
  784MOL0     H 5789  10.727   5.629  11.127 -3.9510 -1.2302 -0.2772
  784MOL0     H 5790  10.828   5.559  11.258 -2.5867  3.4245  1.3984
  784MOL0     H 5791  10.483   5.441  11.159 -1.7038 -1.6422  0.5263
  784MOL0     H 5792  10.308   5.416  11.512  0.6801 -1.0181 -0.0958
  784MOL0     H 5793  10.251   5.467  11.349 -2.2138 -1.8474  1.3207
  784MOL0     H 5794  10.407   5.214  11.397 -1.6253 -2.6437  1.2994
  784MOL0     H 5795  10.299   5.257  11.264  2.6144 -0.7779 -0.1907
  784MOL0     H 5796  10.176   5.100  11.383  3.5127 -0.5752  1.6277
  784MOL0     H 5797  10.108   5.265  11.420 -0.5067  0.8298 -0.5117
  784MOL0     H 5798  10.240   5.240  11.638 -2.4276  1.0344 -0.4603
  784MOL0     H 5799  10.300   5.084  11.579 -1.2783  0.0171 -2.2921
  784MOL0     H 5800   9.948   5.226  11.753  1.6023  3.9046  0.8392
  784MOL0     H 5801   9.966   5.369  12.069  2.5114 -0.3802 -2.1577
  784MOL0     H 5802   9.837   5.344  11.954 -2.5475 -0.5565  2.4414
  784MOL0     H 5803   9.838   5.246  12.091  0.4223 -3.2214 -0.9561
  784MOL0     H 5804  10.196   5.252  12.461 -0.2786 -1.7153 -1.0988
  784MOL0     H 5805  10.127   5.323  12.680  1.6523 -1.6433 -1.3827
  784MOL0     H 5806  10.050   5.364  12.880 -1.0283  0.5541 -0.5391
  784MOL0     H 5807   9.944   5.289  12.996  1.3172  0.6347  0.9670
  784MOL0     H 5808   9.999   5.064  12.919 -0.6248  0.1490 -4.8756
  784MOL0     H 5809  10.138   5.128  12.831  1.0565 -0.2146  1.8828
  784MOL0     H 5810  10.085   5.141  13.121 -0.9821  1.8710  0.4945
  784MOL0     H 5811  10.212   5.247  13.056  0.4075 -0.5869  1.0247
  784MOL0     H 5812  10.219   4.963  12.952 -0.5540  1.4894 -0.8137
  784MOL0     H 5813  10.355   5.057  12.986 -0.6071  3.8410 -0.2414
  784MOL0     H 5814  10.183   4.919  13.187  0.5661  1.3643  0.8814
  784MOL0     H 5815  10.291   5.050  13.240 -2.6868  1.8469 -1.6870
  784MOL0     H 5816  10.360   4.792  13.098  1.2718  0.7847 -1.3516
  784MOL0     H 5817  10.480   4.908  13.162 -1.0557  1.3721 -2.4041
  784MOL0     H 5818  10.315   4.729  13.344 -0.4862  1.0878 -0.5401
  784MOL0     H 5819  10.411   4.865  13.406  2.1274 -0.3715  0.5249
  784MOL0     H 5820  10.512   4.627  13.247  1.5630 -0.8394  0.5050
  784MOL0     H 5821  10.493   4.633  13.416  0.7713 -2.3339 -1.8579
  784MOL0     H 5822   9.752   5.123  12.623  1.4997 -0.4471  3.0473
  784MOL0     H 5823   9.794   5.095  12.389 -1.0933  1.9210 -0.0987
  784MOL0     H 5824  10.253   4.965  12.038 -0.0359  1.6817  2.0321
  784MOL0     H 5825  10.229   4.929  11.802 -1.5588  0.0932 -1.2009
  784MOL0     H 5826  10.857   6.097  10.776 -0.3486  1.4212 -0.9134
  784MOL0     H 5827  10.807   6.193  10.989  0.4474 -2.6332  1.6467
  784MOL0     H 5828  10.943   6.262  11.405 -0.1502 -0.3256  0.6534
  784MOL0     H 5829  10.868   6.365  11.627 -1.5361  1.8555  0.8150
  784MOL0     H 5830  10.884   6.807  11.748 -1.6849  0.9688  2.8615
  784MOL0     H 5831  10.752   6.795  11.624  0.2556  2.1383  0.7306
  784MOL0     H 5832  10.597   6.712  11.802 -0.7811  0.2061  0.2953
  784MOL0     H 5833  10.695   6.846  11.872  1.6440 -0.1730  0.6267
  784MOL0     H 5834  10.750   6.730  12.042 -0.9785  0.2896 -0.5244
  784MOL0     H 5835  10.862   6.639  11.946 -0.3084  2.1017 -0.8203
  784MOL0     H 5836  10.637   6.489  11.901 -0.2151  0.3554 -0.0587
  784MOL0     H 5837  10.599   6.581  12.055  0.5503  1.4827  1.1949
  784MOL0     H 5838  10.871   6.308  12.218 -0.0590 -0.5953 -0.8471
  784MOL0     H 5839  10.901   6.765  11.463  0.6166 -0.1125 -2.3306
  784MOL0     H 5840  10.926   6.671  11.248  1.5129  0.0315  0.4657
  785MOL0     O 5841  10.081   9.427   4.222  0.4371  0.6667 -0.9713
  785MOL0     C 5842  10.025   9.317   4.205 -0.5243 -0.9135  0.3357
  785MOL0     O 5843   9.897   9.299   4.169  0.1774 -0.4074 -0.1531
  785MOL0     C 5844   9.800   9.404   4.171 -1.1817 -0.1839  0.4148
  785MOL0     C 5845   9.671   9.367   4.188 -0.2785 -0.5511 -0.7227
  785MOL0     C 5846   9.558   9.450   4.174  0.0614 -0.5735 -0.0469
  785MOL0     C 5847   9.577   9.583   4.139  0.3981  0.0109  0.4958
  785MOL0     O 5848   9.461   9.648   4.117 -0.6887 -0.7608 -0.3172
  785MOL0     C 5849   9.400   9.710   4.230 -0.2226  0.7013  0.4267
  785MOL0     C 5850   9.438   9.858   4.235 -0.9599 -0.3203  0.2761
  785MOL0     C 5851   9.448   9.904   4.385  0.3928  0.6064 -0.4101
  785MOL0     C 5852   9.492  10.050   4.391  0.1934 -0.1789  0.0886
  785MOL0     C 5853   9.510  10.115   4.532  0.7000  1.3245 -0.4101
  785MOL0     C 5854   9.582  10.247   4.515 -0.2553 -1.5074  0.8753
  785MOL0     C 5855   9.589  10.314   4.659 -0.1067 -0.8609 -0.5982
  785MOL0     C 5856   9.683  10.431   4.657 -0.0936 -0.4801  0.1026
  785MOL0     N 5857   9.643  10.540   4.563 -0.4711 -0.2630  0.6174
  785MOL0     C 5858   9.522  10.603   4.551  0.0908 -0.3263  0.5131
  785MOL0     C 5859   9.527  10.690   4.442  0.3419  0.8112  1.4047
  785MOL0     C 5860   9.428  10.792   4.387 -0.4967 -0.6636 -0.1415
  785MOL0     C 5861   9.303  10.816   4.481  0.4630 -0.4989  0.2399
  785MOL0     C 5862   9.197  10.698   4.484  0.8053 -0.1662  0.2660
  785MOL0     C 5863   9.144  10.649   4.350  0.9780 -0.0451 -1.1941
  785MOL0     O 5864   9.231  10.543   4.306  0.4325  0.0190 -0.2479
  785MOL0     C 5865   9.219  10.482   4.181  0.3852 -0.2782 -0.1155
  785MOL0     C 5866   9.291  10.366   4.149 -0.5605 -0.2432  0.3467
  785MOL0     C 5867   9.297  10.296   4.029  0.6156 -0.6533 -0.7685
  785MOL0     C 5868   9.394  10.177   4.024  0.6343 -0.9784  0.6053
  785MOL0     C 5869   9.203  10.334   3.935 -0.2940 -0.7896 -0.5357
  785MOL0     C 5870   9.173  10.263   3.808 -0.3407  0.1508  0.5333
  785MOL0     O 5871   9.260  10.166   3.759 -0.1620 -0.0351 -0.0150
  785MOL0     C 5872   9.228  10.083   3.649  0.3240 -0.5281 -0.1663
  785MOL0     C 5873   9.098  10.065   3.592  0.7406  0.0062  0.3165
  785MOL0     C 5874   9.088   9.986   3.477  0.1769  0.9353  0.0898
  785MOL0     C 5875   9.200   9.924   3.422  0.1929 -0.2815  0.1619
  785MOL0     O 5876   9.180   9.863   3.304 -1.1460  0.2683  0.5854
  785MOL0     C 5877   9.271   9.913   3.202  0.2467 -0.3055  0.0463
  785MOL0     C 5878   9.221  10.050   3.143 -0.5378  0.2367 -0.0229
  785MOL0     C 5879   9.083  10.034   3.073  0.0753 -0.4170 -0.0429
  785MOL0     C 5880   9.070   9.973   2.936  0.1342 -0.0676 -0.2483
  785MOL0     C 5881   8.919   9.956   2.906 -1.0485 -0.4830 -0.1790
  785MOL0     C 5882   8.814  10.069   2.949 -0.0704  0.8085 -0.1644
  785MOL0     C 5883   8.667  10.029   2.916 -0.6747 -0.2207  0.3511
  785MOL0     C 5884   8.572  10.007   3.040  0.3168 -0.0717 -0.7335
  785MOL0    Cl 5885   8.410  10.104   3.018 -0.2722 -0.4294 -0.2222
  785MOL0     C 5886   9.319   9.929   3.478 -0.2594  0.1659 -0.5299
  785MOL0     C 5887   9.330   9.999   3.596  0.0486  0.3465  0.2413
  785MOL0     O 5888   9.082  10.315   3.738 -0.9709  0.0047 -0.1610
  785MOL0     C 5889   9.136  10.462   3.959 -0.5813  0.3591  1.5131
  785MOL0     C 5890   9.137  10.529   4.078 -1.9047  0.1510 -0.0357
  785MOL0     N 5891   9.652  10.664   4.388  0.0880 -0.4131  0.0331
  785MOL0     N 5892   9.717  10.575   4.460 -0.3870  0.6389  0.7032
  785MOL0     C 5893   9.708   9.637   4.121 -0.3986  0.0717 -0.0866
  785MOL0     C 5894   9.816   9.549   4.139  0.2180 -0.8073  0.5302
  785MOL0     C 5895  10.111   9.192   4.200 -0.5851 -0.0269  0.2383
  785MOL0     C 5896  10.047   9.061   4.191  0.1068  0.2827 -0.2950
  785MOL0     C 5897  10.132   8.955   4.210 -0.3902  1.4395 -0.7372
  785MOL0     C 5898  10.276   8.968   4.214  1.3698  0.4909  0.6203
  785MOL0     O 5899  10.362   8.857   4.209 -0.1423  0.8355 -0.1652
  785MOL0     C 5900  10.326   8.754   4.125 -0.5329 -0.3121 -0.4352
  785MOL0     C 5901  10.435   8.647   4.134 -1.1558  0.4934 -0.3979
  785MOL0     C 5902  10.564   8.678   4.050 -0.2782  0.4993 -0.6483
  785MOL0     C 5903  10.674   8.571   4.093 -0.1741 -0.0445  0.2250
  785MOL0     C 5904  10.807   8.629   4.094 -1.2147 -0.4649 -0.2874
  785MOL0     C 5905  10.926   8.666   4.107  0.7397 -0.1848  0.5201
  785MOL0     C 5906  10.329   9.095   4.232 -0.2187  0.3021 -0.2029
  785MOL0     C 5907  10.252   9.207   4.214  0.3508  0.7349 -0.4266
  785MOL0     H 5908   9.649   9.262   4.203 -0.3288 -0.7248 -1.9015
  785MOL0     H 5909   9.455   9.418   4.164 -0.4866  1.1442 -0.1583
  785MOL0     H 5910   9.293   9.696   4.211 -0.1890  0.1532  0.6204
  785MOL0     H 5911   9.440   9.654   4.315  2.8657 -3.0916 -3.1526
  785MOL0     H 5912   9.537   9.871   4.191 -1.2758 -1.9788 -1.0180
  785MOL0     H 5913   9.361   9.921   4.189 -0.2099  0.9273  0.6749
  785MOL0     H 5914   9.345   9.893   4.419 -0.0855 -4.7112 -2.5936
  785MOL0     H 5915   9.519   9.856   4.454 -1.0799  0.8947  1.3671
  785MOL0     H 5916   9.582  10.060   4.329 -0.4274  1.3861 -0.6168
  785MOL0     H 5917   9.425  10.119   4.338  1.2143  2.2419  1.7509
  785MOL0     H 5918   9.407  10.125   4.566  0.9477 -1.6728  1.5912
  785MOL0     H 5919   9.568  10.045   4.594  2.7963  3.0944 -0.2584
  785MOL0     H 5920   9.687  10.245   4.486 -0.1561  0.7542  0.8750
  785MOL0     H 5921   9.525  10.305   4.441 -0.2497 -2.0150  0.4712
  785MOL0     H 5922   9.493  10.336   4.706  0.0259 -1.9759  0.2475
  785MOL0     H 5923   9.642  10.239   4.718 -0.1491 -1.6615 -1.5415
  785MOL0     H 5924   9.783  10.393   4.636 -1.0210 -3.7066  0.8991
  785MOL0     H 5925   9.709  10.469   4.756  3.2407 -0.6507 -0.6091
  785MOL0     H 5926   9.432  10.585   4.608 -0.9029  4.0172  0.6555
  785MOL0     H 5927   9.475  10.890   4.371 -1.4439  0.0669  1.3116
  785MOL0     H 5928   9.393  10.761   4.288  0.4922 -0.2900 -0.6219
  785MOL0     H 5929   9.262  10.910   4.444  0.6128 -1.4774 -2.6935
  785MOL0     H 5930   9.343  10.843   4.579 -2.2205  1.0774  0.9946
  785MOL0     H 5931   9.119  10.742   4.548 -0.8072 -1.7569 -0.5329
  785MOL0     H 5932   9.228  10.610   4.541  1.5990  0.6897  1.2188
  785MOL0     H 5933   9.143  10.723   4.270  0.5402  0.3652 -0.8126
  785MOL0     H 5934   9.043  10.610   4.366  1.1490  0.5541  2.0287
  785MOL0     H 5935   9.353  10.336   4.233  0.3125  1.4665  0.3671
  785MOL0     H 5936   9.341  10.081   4.015 -2.3263  0.7323 -1.9583
  785MOL0     H 5937   9.445  10.182   3.928 -1.8636 -1.9438 -0.8688
  785MOL0     H 5938   9.457  10.165   4.113 -1.9690 -3.2286  2.3267
  785MOL0     H 5939   9.008  10.115   3.626 -0.2005 -1.0869 -0.4902
  785MOL0     H 5940   8.993   9.972   3.425 -0.0647 -1.0818  0.9900
  785MOL0     H 5941   9.370   9.938   3.241 -0.1514  0.9670  0.2911
  785MOL0     H 5942   9.275   9.839   3.121  1.3180 -0.1816 -0.0370
  785MOL0     H 5943   9.213  10.124   3.223 -1.0477 -0.0186  0.1695
  785MOL0     H 5944   9.291  10.086   3.067 -0.3561 -1.7483 -0.8513
  785MOL0     H 5945   9.043  10.135   3.062  0.3082 -0.5314 -2.3781
  785MOL0     H 5946   9.025   9.977   3.146  0.9293  2.1720  2.9003
  785MOL0     H 5947   9.115  10.047   2.869 -0.4819  0.9865  0.4619
  785MOL0     H 5948   9.119   9.877   2.922 -1.5310 -0.9528 -0.2854
  785MOL0     H 5949   8.895   9.870   2.970  0.1843  0.8029  2.1436
  785MOL0     H 5950   8.912   9.930   2.800  0.8991  0.3564 -0.5479
  785MOL0     H 5951   8.826  10.073   3.058  0.9351 -4.3153  0.1440
  785MOL0     H 5952   8.837  10.169   2.911  1.5830  2.4059  4.3250
  785MOL0     H 5953   8.663   9.936   2.858 -0.2831  0.5424 -0.9559
  785MOL0     H 5954   8.633  10.111   2.851  0.2460 -1.3134 -1.5945
  785MOL0     H 5955   8.620  10.022   3.138  2.3067 -1.4755 -1.4051
  785MOL0     H 5956   8.554   9.899   3.035 -0.3855 -0.3191  3.3915
  785MOL0     H 5957   9.406   9.881   3.434  0.0706  0.6110 -0.3726
  785MOL0     H 5958   9.427  10.013   3.644 -1.0799 -0.1371  2.8515
  785MOL0     H 5959   9.066  10.501   3.886  0.4123 -0.3540  0.1333
  785MOL0     H 5960   9.081  10.622   4.084 -3.0530 -0.5951  1.0467
  785MOL0     H 5961   9.715   9.741   4.090 -1.1285 -0.9972 -4.5987
  785MOL0     H 5962   9.909   9.595   4.105 -1.7017  2.3158 -0.9330
  785MOL0     H 5963   9.940   9.051   4.181  0.2094  0.2097 -1.4946
  785MOL0     H 5964  10.085   8.858   4.220  0.8776  0.9072  0.3736
  785MOL0     H 5965  10.230   8.712   4.155  0.4962 -2.9542 -0.6066
  785MOL0     H 5966  10.308   8.786   4.022 -2.3021 -3.1187 -1.1024
  785MOL0     H 5967  10.402   8.554   4.087 -1.4167  0.7042 -0.6380
  785MOL0     H 5968  10.461   8.630   4.239 -0.0929  1.5032 -0.4843
  785MOL0     H 5969  10.597   8.776   4.086  0.1624 -0.6235  2.2852
  785MOL0     H 5970  10.531   8.680   3.946 -1.2669  2.0588 -0.3334
  785MOL0     H 5971  10.680   8.488   4.022  0.0607 -0.9288  1.2349
  785MOL0     H 5972  10.644   8.526   4.189 -2.3392 -0.4828 -0.6031
  785MOL0     H 5973  11.031   8.685   4.109  1.1704 -1.6523 -2.2964
  785MOL0     H 5974  10.436   9.100   4.254 -0.4673 -0.4233  1.3012
  785MOL0     H 5975  10.296   9.305   4.230  2.9194 -0.5022  0.6934
  786MOL0     O 5976   6.740   0.526   0.714 -0.6349  0.5592 -0.0318
  786MOL0     C 5977   6.753   0.465   0.612  0.0403 -0.6504  0.1386
  786MOL0     O 5978   6.654   0.373   0.566 -0.0719  0.0683 -0.3729
  786MOL0     C 5979   6.544   0.356   0.644 -0.6009 -0.3542 -0.5308
  786MOL0     C 5980   6.422   0.352   0.580 -0.6981  0.5325  0.2016
  786MOL0     C 5981   6.320   0.312   0.648  0.7079 -0.0713  0.1015
  786MOL0     C 5982   6.315   0.267   0.782  0.1574  0.7826  0.0862
  786MOL0     O 5983   6.195   0.224   0.847 -0.5746 -0.4727  1.1472
  786MOL0     C 5984   6.151   0.302   0.956 -1.3803 -0.8054 -0.0524
  786MOL0     C 5985   6.021   0.249   1.015  0.0378  0.8573  0.4929
  786MOL0     C 5986   5.904   0.253   0.914 -0.3467 -0.4827  0.7080
  786MOL0     C 5987   5.800   0.359   0.957  0.9570  0.4932  0.7675
  786MOL0     C 5988   5.666   0.349   0.879 -0.0200 -0.3592 -0.1341
  786MOL0     C 5989   5.661   0.368   0.731 -0.7743  0.4647 -0.2314
  786MOL0     C 5990   5.701   0.507   0.690 -0.1365 -0.7501 -0.2351
  786MOL0     C 5991   5.677   0.521   0.536 -0.3717 -0.5262 -0.3543
  786MOL0     N 5992   5.793   0.485   0.456 -0.1570 -0.0887 -0.2136
  786MOL0     C 5993   5.913   0.557   0.444 -0.4724 -0.2295 -0.3840
  786MOL0     C 5994   5.987   0.476   0.374 -1.2231  1.1957  0.3924
  786MOL0     C 5995   6.135   0.506   0.344 -0.5866 -0.6273 -0.4527
  786MOL0     C 5996   6.133   0.615   0.226 -0.9863  0.2551  0.0241
  786MOL0     C 5997   6.279   0.666   0.205 -0.0220 -0.2387  0.2046
  786MOL0     C 5998   6.280   0.722   0.057 -0.1956 -0.1873 -0.2672
  786MOL0     O 5999   6.417   0.773   0.041  0.2732  0.4316  0.3005
  786MOL0     C 6000   6.428   0.897  -0.020 -0.3589  0.1902 -0.5119
  786MOL0     C 6001   6.554   0.955  -0.007 -0.3293 -0.0989  0.2342
  786MOL0     C 6002   6.585   1.080  -0.048  0.2301 -0.0525 -0.2405
  786MOL0     C 6003   6.731   1.123  -0.049  0.4706  0.1405  0.0626
  786MOL0     C 6004   6.480   1.154  -0.112 -0.1012 -0.6742 -1.3003
  786MOL0     C 6005   6.493   1.292  -0.162 -0.0883 -0.3602  0.6082
  786MOL0     O 6006   6.594   1.378  -0.112  0.2439 -1.0655  0.4805
  786MOL0     C 6007   6.599   1.502  -0.156  0.5702  0.8545  0.1535
  786MOL0     C 6008   6.560   1.603  -0.073  0.1758 -0.0754 -0.7804
  786MOL0     C 6009   6.578   1.734  -0.100  0.4144  0.0456 -1.0199
  786MOL0     C 6010   6.623   1.765  -0.232  0.8500  0.3393 -0.8447
  786MOL0     O 6011   6.631   1.892  -0.276  0.1451  0.4293 -0.0070
  786MOL0     C 6012   6.740   1.936  -0.363 -0.8357  0.6734  0.6483
  786MOL0     C 6013   6.768   2.088  -0.341 -0.4338 -0.3473 -0.8287
  786MOL0     C 6014   6.908   2.129  -0.407 -0.0849  0.4123 -0.7836
  786MOL0     C 6015   6.941   2.271  -0.409  0.8298 -0.4665  0.4586
  786MOL0     C 6016   7.086   2.276  -0.470  0.4086  0.3152 -0.2330
  786MOL0     C 6017   7.129   2.407  -0.533  1.1256 -0.6888  0.1329
  786MOL0     C 6018   7.280   2.419  -0.540 -0.9553 -1.2266  0.8634
  786MOL0     C 6019   7.353   2.304  -0.603  0.2693  0.4764  0.1333
  786MOL0    Cl 6020   7.276   2.259  -0.757  0.1247 -0.1524 -0.2041
  786MOL0     C 6021   6.643   1.662  -0.328 -0.9172 -0.2625  0.0762
  786MOL0     C 6022   6.640   1.530  -0.288 -0.2443 -0.0849 -0.1135
  786MOL0     O 6023   6.415   1.325  -0.249 -0.1949 -0.0954  0.6444
  786MOL0     C 6024   6.350   1.093  -0.132  0.3101 -2.2110  0.0593
  786MOL0     C 6025   6.329   0.966  -0.088  0.0091  0.4548  1.3319
  786MOL0     N 6026   5.913   0.362   0.343 -0.3094 -0.0117  0.4469
  786MOL0     N 6027   5.802   0.367   0.397  0.5216 -0.5130 -0.7334
  786MOL0     C 6028   6.434   0.270   0.854  0.5538 -0.4812  0.9917
  786MOL0     C 6029   6.543   0.319   0.780  0.0990 -0.2829 -0.7062
  786MOL0     C 6030   6.883   0.486   0.550  0.0732  1.0815  0.6105
  786MOL0     C 6031   6.918   0.400   0.445 -0.1394  0.1600 -0.5864
  786MOL0     C 6032   7.025   0.419   0.366  0.4689  0.7471  1.4045
  786MOL0     C 6033   7.112   0.525   0.391 -0.5959  0.0183  0.3536
  786MOL0     O 6034   7.228   0.556   0.321  0.3885 -0.1453  0.2151
  786MOL0     C 6035   7.247   0.480   0.194 -0.9484 -0.1523  0.2225
  786MOL0     C 6036   7.364   0.541   0.109  0.4481  0.6756  1.0710
  786MOL0     C 6037   7.485   0.559   0.193 -0.8428  0.2955  0.6962
  786MOL0     C 6038   7.508   0.704   0.239 -0.2649 -0.2437  0.3962
  786MOL0     C 6039   7.614   0.743   0.334  0.1364 -0.2557  0.5743
  786MOL0     C 6040   7.696   0.780   0.414 -0.4699 -0.0454  0.5103
  786MOL0     C 6041   7.094   0.605   0.501  0.4239  0.4266  0.8781
  786MOL0     C 6042   6.981   0.581   0.585  0.6077  0.7988  0.5893
  786MOL0     H 6043   6.404   0.369   0.475  0.4414 -0.2162 -0.1343
  786MOL0     H 6044   6.226   0.306   0.595  0.5845  1.6379  0.0908
  786MOL0     H 6045   6.219   0.299   1.041  0.2877 -1.9028 -1.3482
  786MOL0     H 6046   6.127   0.403   0.923 -0.4232 -0.7670 -0.6877
  786MOL0     H 6047   6.038   0.146   1.046 -1.0458  0.6403  0.4129
  786MOL0     H 6048   5.992   0.303   1.105 -3.7663  0.4352 -0.3123
  786MOL0     H 6049   5.935   0.272   0.811 -2.5174  0.5649  0.2030
  786MOL0     H 6050   5.851   0.157   0.922  1.0701 -1.3123  0.6271
  786MOL0     H 6051   5.773   0.347   1.063 -0.7239 -1.4700  0.1794
  786MOL0     H 6052   5.834   0.462   0.946 -0.9294  1.2652  1.6270
  786MOL0     H 6053   5.617   0.254   0.901 -1.0654  0.3648  0.7588
  786MOL0     H 6054   5.599   0.428   0.916 -0.9237  0.0994 -2.5528
  786MOL0     H 6055   5.723   0.292   0.683 -1.4824 -1.4083  1.7006
  786MOL0     H 6056   5.563   0.350   0.686  0.1269 -1.0964 -1.6706
  786MOL0     H 6057   5.635   0.578   0.741  1.6698 -0.2915  1.5687
  786MOL0     H 6058   5.803   0.533   0.718 -0.5562 -0.0370  0.7185
  786MOL0     H 6059   5.652   0.625   0.515  1.3271  0.2700  1.2704
  786MOL0     H 6060   5.597   0.452   0.504  0.7522 -2.1902  0.2756
  786MOL0     H 6061   5.934   0.653   0.491 -0.5389 -0.7514  0.7317
  786MOL0     H 6062   6.181   0.551   0.432 -0.0559  1.5125 -1.7572
  786MOL0     H 6063   6.196   0.418   0.321 -1.7629 -1.5446 -0.1894
  786MOL0     H 6064   6.075   0.691   0.280  0.1560  0.2780  1.2927
  786MOL0     H 6065   6.087   0.569   0.139 -1.1831 -2.3414  1.4058
  786MOL0     H 6066   6.355   0.587   0.211 -0.2744 -0.5692 -0.7614
  786MOL0     H 6067   6.310   0.740   0.279  0.5159 -0.8628  0.6218
  786MOL0     H 6068   6.205   0.802   0.065  1.0204  0.8805  1.0770
  786MOL0     H 6069   6.260   0.646  -0.018  2.1857 -0.6755 -0.4940
  786MOL0     H 6070   6.637   0.907   0.044  0.2999 -0.5374 -1.1445
  786MOL0     H 6071   6.757   1.211  -0.107  1.8127 -0.0475  0.3329
  786MOL0     H 6072   6.773   1.133   0.052 -0.1087  1.0396  0.2234
  786MOL0     H 6073   6.774   1.034  -0.096 -0.2887 -0.5827  0.6894
  786MOL0     H 6074   6.521   1.583   0.027  3.2830  1.9197  0.9911
  786MOL0     H 6075   6.560   1.812  -0.026  1.9569  1.2659 -1.8731
  786MOL0     H 6076   6.826   1.873  -0.338 -0.5398  0.4063 -0.9811
  786MOL0     H 6077   6.703   1.914  -0.463 -4.2122 -4.0884  2.5552
  786MOL0     H 6078   6.692   2.161  -0.371 -1.3110 -1.7622 -2.2251
  786MOL0     H 6079   6.784   2.114  -0.236  0.2859 -0.8859 -0.7971
  786MOL0     H 6080   6.905   2.095  -0.511  0.0527 -0.8334 -0.4023
  786MOL0     H 6081   6.987   2.081  -0.348 -0.9789  0.6048  0.6112
  786MOL0     H 6082   6.868   2.317  -0.476  1.5564  0.6206  0.4013
  786MOL0     H 6083   6.935   2.319  -0.311  1.2348  4.7065 -1.7386
  786MOL0     H 6084   7.105   2.199  -0.546  1.9950  0.3446  0.0858
  786MOL0     H 6085   7.158   2.244  -0.394 -0.3454  1.5952  1.0459
  786MOL0     H 6086   7.075   2.424  -0.627 -0.5371 -0.5408  1.0655
  786MOL0     H 6087   7.082   2.489  -0.478 -1.9801 -2.4866  0.3938
  786MOL0     H 6088   7.319   2.439  -0.439 -0.2023 -0.1328  0.3711
  786MOL0     H 6089   7.297   2.505  -0.605 -0.8986 -0.9039  1.2970
  786MOL0     H 6090   7.344   2.230  -0.523  0.4437 -0.3065 -0.5574
  786MOL0     H 6091   7.458   2.325  -0.625  0.7594 -3.1746 -1.7544
  786MOL0     H 6092   6.661   1.682  -0.433 -6.5209 -0.2625 -1.1744
  786MOL0     H 6093   6.650   1.448  -0.358 -0.5987 -1.0230  0.9031
  786MOL0     H 6094   6.286   1.149  -0.200 -0.2310 -0.6416  1.7907
  786MOL0     H 6095   6.245   0.910  -0.127  1.2900  0.0279 -0.9496
  786MOL0     H 6096   6.431   0.233   0.956  1.8084  0.1677  1.2825
  786MOL0     H 6097   6.641   0.311   0.827  0.8889 -1.8453 -2.4833
  786MOL0     H 6098   6.852   0.314   0.440  1.0179 -0.9598  1.8028
  786MOL0     H 6099   7.033   0.355   0.279  0.2317  2.0525  0.3807
  786MOL0     H 6100   7.249   0.371   0.199 -0.3333 -0.1071  1.5153
  786MOL0     H 6101   7.163   0.489   0.125  1.3332  1.4888 -2.5367
  786MOL0     H 6102   7.337   0.637   0.063 -1.3718 -0.2777  0.0412
  786MOL0     H 6103   7.382   0.479   0.020  3.2144  0.6448  1.5558
  786MOL0     H 6104   7.566   0.527   0.128 -2.1326  0.0660 -0.8461
  786MOL0     H 6105   7.492   0.490   0.278  2.8077  0.0453  0.3155
  786MOL0     H 6106   7.419   0.736   0.294  1.6448  0.8921  3.0866
  786MOL0     H 6107   7.514   0.773   0.155  0.5884  2.1216  2.2853
  786MOL0     H 6108   7.782   0.775   0.479  0.1762 -0.2341 -0.3365
  786MOL0     H 6109   7.172   0.680   0.511  0.7098  1.0083 -3.5673
  786MOL0     H 6110   6.967   0.651   0.666  0.4764 -0.6051  1.8297
  787MOL0     O 6111   0.506   4.915   6.489 -0.2738 -1.1457 -0.6170
  787MOL0     C 6112   0.457   5.015   6.552 -0.6999 -0.5098  0.3101
  787MOL0     O 6113   0.393   5.020   6.671  1.2620  0.3068  0.6881
  787MOL0     C 6114   0.395   4.926   6.765 -0.0294  0.3999  0.6873
  787MOL0     C 6115   0.487   4.832   6.764 -0.1821 -0.5193  0.3891
  787MOL0     C 6116   0.484   4.731   6.857 -0.3095  0.3517  0.3938
  787MOL0     C 6117   0.376   4.708   6.942  0.3769  0.4064  0.1245
  787MOL0     O 6118   0.363   4.613   7.040  0.6109  0.2479  0.2538
  787MOL0     C 6119   0.488   4.550   7.087  0.9063 -0.9939  0.5438
  787MOL0     C 6120   0.486   4.507   7.233  1.2891  1.5215 -0.0234
  787MOL0     C 6121   0.357   4.425   7.261  0.5226 -0.1858  0.2752
  787MOL0     C 6122   0.373   4.273   7.262 -0.3732 -0.5536 -1.0502
  787MOL0     C 6123   0.238   4.208   7.270  1.2571 -0.1181 -0.5256
  787MOL0     C 6124   0.181   4.216   7.412  0.6259  0.5528 -0.8811
  787MOL0     C 6125   0.036   4.166   7.413 -0.0689  0.5516  0.2333
  787MOL0     C 6126   0.025   4.008   7.409  1.0269 -0.6208 -0.3342
  787MOL0     N 6127   0.042   3.962   7.550  0.0824  0.1646  0.0946
  787MOL0     C 6128  -0.058   3.950   7.647 -0.3765  0.5718 -0.6145
  787MOL0     C 6129   0.002   3.902   7.758  0.5738  0.3442  0.3051
  787MOL0     C 6130  -0.073   3.876   7.885  0.4097 -0.2510 -0.7184
  787MOL0     C 6131  -0.073   4.006   7.971 -0.1443 -0.2966  0.8088
  787MOL0     C 6132  -0.032   4.003   8.115  0.1332  0.7327 -0.5507
  787MOL0     C 6133  -0.109   3.897   8.185  0.0731 -0.2967 -0.8501
  787MOL0     O 6134  -0.091   3.903   8.335 -0.2472 -0.7116  0.2727
  787MOL0     C 6135  -0.169   3.982   8.421  0.4874 -0.4612 -0.6280
  787MOL0     C 6136  -0.267   4.065   8.381  0.4464 -0.0379  0.3110
  787MOL0     C 6137  -0.333   4.159   8.457 -0.1823 -0.0709 -0.6223
  787MOL0     C 6138  -0.433   4.244   8.385 -0.0490 -0.8493  0.4744
  787MOL0     C 6139  -0.311   4.169   8.596 -0.1054 -0.1580  0.1616
  787MOL0     C 6140  -0.370   4.260   8.693 -0.2278 -0.0074  0.1004
  787MOL0     O 6141  -0.444   4.353   8.634 -0.3380  1.0091 -0.0261
  787MOL0     C 6142  -0.467   4.482   8.690  0.8277  0.4955  0.0866
  787MOL0     C 6143  -0.404   4.535   8.806 -0.6385  0.0471 -0.6786
  787MOL0     C 6144  -0.452   4.652   8.863  0.1389  0.2853 -0.3775
  787MOL0     C 6145  -0.553   4.721   8.811 -1.5734 -0.1706 -1.0261
  787MOL0     O 6146  -0.598   4.834   8.887  1.0371 -0.8784 -0.5158
  787MOL0     C 6147  -0.673   4.794   9.005  0.0596  0.3671 -0.1200
  787MOL0     C 6148  -0.746   4.913   9.068  0.2297  0.4418 -0.1264
  787MOL0     C 6149  -0.647   5.024   9.103 -1.1232 -0.6157  0.2889
  787MOL0     C 6150  -0.721   5.147   9.152  0.3124 -0.3117 -0.3921
  787MOL0     C 6151  -0.786   5.122   9.291  0.2509 -1.0087  0.3299
  787MOL0     C 6152  -0.818   5.251   9.373  0.7629  0.0491  0.1537
  787MOL0     C 6153  -0.715   5.363   9.401  0.1155 -0.6784  0.1392
  787MOL0     C 6154  -0.600   5.330   9.494 -0.4910  1.2590 -0.2271
  787MOL0    Cl 6155  -0.492   5.480   9.503  0.0867 -0.2601 -0.7626
  787MOL0     C 6156  -0.596   4.683   8.684  0.3650  0.0708  0.0913
  787MOL0     C 6157  -0.560   4.566   8.628  0.6215  0.2399  0.4715
  787MOL0     O 6158  -0.342   4.246   8.816  0.1230 -0.0586  0.3762
  787MOL0     C 6159  -0.199   4.087   8.644  0.5621  0.3756  1.4916
  787MOL0     C 6160  -0.138   3.993   8.559 -0.2433 -0.1788 -0.2022
  787MOL0     N 6161   0.137   3.906   7.738 -0.0014  0.0943  0.1463
  787MOL0     N 6162   0.158   3.940   7.614 -0.0145  0.5978  0.0661
  787MOL0     C 6163   0.271   4.795   6.935 -0.8870 -0.0737 -0.3133
  787MOL0     C 6164   0.278   4.909   6.844  0.2938  0.8966 -0.2243
  787MOL0     C 6165   0.471   5.144   6.468  0.1125 -0.0681  0.6520
  787MOL0     C 6166   0.487   5.134   6.327  0.6048  0.3127  0.7445
  787MOL0     C 6167   0.500   5.241   6.244  0.8663 -0.1588 -0.0538
  787MOL0     C 6168   0.495   5.371   6.295  0.6856  0.0578 -0.9721
  787MOL0     O 6169   0.531   5.480   6.220  0.5533  0.8879 -0.1797
  787MOL0     C 6170   0.461   5.519   6.098 -0.3631 -0.2132 -0.6265
  787MOL0     C 6171   0.315   5.551   6.123  0.6076  0.2022 -0.7342
  787MOL0     C 6172   0.247   5.652   6.032  0.6946 -0.5883 -0.2074
  787MOL0     C 6173   0.101   5.686   6.065  1.0084  0.1787 -0.1750
  787MOL0     C 6174   0.015   5.576   6.028  0.2487  0.8737  0.1590
  787MOL0     C 6175  -0.052   5.476   6.007 -0.5527  0.2992  0.3298
  787MOL0     C 6176   0.483   5.381   6.432 -0.2680  0.0086  0.7186
  787MOL0     C 6177   0.470   5.277   6.514 -0.6897  0.3548  0.7894
  787MOL0     H 6178   0.574   4.850   6.703 -0.5768  0.7890  0.1701
  787MOL0     H 6179   0.565   4.658   6.867 -1.3366 -0.6001  2.4077
  787MOL0     H 6180   0.496   4.464   7.021  0.3335 -0.1208 -0.6961
  787MOL0     H 6181   0.577   4.609   7.065  1.1240 -1.8126 -0.8486
  787MOL0     H 6182   0.581   4.455   7.250 -0.1819 -0.9715  1.0656
  787MOL0     H 6183   0.493   4.592   7.302 -2.5186  0.2229  2.2431
  787MOL0     H 6184   0.318   4.446   7.361  0.8481 -4.6784  1.5365
  787MOL0     H 6185   0.278   4.454   7.191 -0.6189  0.4656  1.7815
  787MOL0     H 6186   0.431   4.246   7.173  0.1511 -1.3639 -0.4791
  787MOL0     H 6187   0.436   4.233   7.342  0.6531 -0.2839 -1.7060
  787MOL0     H 6188   0.174   4.263   7.200 -0.6358 -1.1028  0.3499
  787MOL0     H 6189   0.244   4.107   7.228 -1.1154 -0.3414 -0.4887
  787MOL0     H 6190   0.237   4.154   7.482 -0.9817 -1.3767 -1.1822
  787MOL0     H 6191   0.166   4.319   7.445 -2.0390 -0.2661  0.7974
  787MOL0     H 6192  -0.023   4.203   7.497 -2.7300  0.1335 -1.3145
  787MOL0     H 6193  -0.026   4.215   7.337 -2.5893  0.2004  1.9291
  787MOL0     H 6194   0.091   3.956   7.339 -1.4088 -2.8893 -1.1250
  787MOL0     H 6195  -0.076   3.991   7.370  1.5378 -1.7404 -1.2217
  787MOL0     H 6196  -0.163   3.979   7.642 -0.7045 -0.4059  0.2468
  787MOL0     H 6197  -0.174   3.854   7.849 -0.2971 -0.7688  1.4419
  787MOL0     H 6198  -0.034   3.790   7.941 -2.4220 -0.5387  1.0259
  787MOL0     H 6199  -0.176   4.039   7.957 -0.2785 -1.5420 -1.5675
  787MOL0     H 6200  -0.003   4.081   7.931  1.1577  0.2635  3.8511
  787MOL0     H 6201  -0.045   4.097   8.170  1.5293 -0.2632  1.5895
  787MOL0     H 6202   0.076   3.990   8.123  0.4668  2.6166 -1.3762
  787MOL0     H 6203  -0.090   3.792   8.159 -0.7476 -0.8258  0.5407
  787MOL0     H 6204  -0.212   3.909   8.152  0.7751  0.2681 -2.9314
  787MOL0     H 6205  -0.289   4.052   8.276  1.5623  1.3287 -0.1120
  787MOL0     H 6206  -0.419   4.224   8.279 -0.1623  3.6142 -0.5759
  787MOL0     H 6207  -0.534   4.223   8.423 -1.3400 -0.3917 -2.4114
  787MOL0     H 6208  -0.393   4.346   8.378  4.3848 -2.4843 -3.8485
  787MOL0     H 6209  -0.320   4.488   8.856 -2.8413 -3.5930 -0.0106
  787MOL0     H 6210  -0.409   4.668   8.962  1.3483  1.3875 -1.0497
  787MOL0     H 6211  -0.744   4.718   8.970  0.7249  0.4817 -1.7945
  787MOL0     H 6212  -0.604   4.756   9.081  0.9436 -1.7187 -1.8407
  787MOL0     H 6213  -0.834   4.935   9.008  0.4764  0.5528 -0.4515
  787MOL0     H 6214  -0.783   4.878   9.165  0.2848 -4.2175 -1.5585
  787MOL0     H 6215  -0.603   5.045   9.004 -2.6536  2.6075  0.1592
  787MOL0     H 6216  -0.565   4.999   9.170  1.4930  0.4916 -2.2536
  787MOL0     H 6217  -0.658   5.235   9.164 -0.0668 -0.3208  2.3231
  787MOL0     H 6218  -0.800   5.171   9.080 -2.0426  0.6651  2.3065
  787MOL0     H 6219  -0.709   5.073   9.351  0.2320  1.4300  2.5260
  787MOL0     H 6220  -0.876   5.063   9.267  0.6535 -0.3432 -3.4818
  787MOL0     H 6221  -0.889   5.299   9.305  0.7968  0.4793  0.4142
  787MOL0     H 6222  -0.874   5.224   9.462 -0.8263  3.3381  0.3090
  787MOL0     H 6223  -0.763   5.443   9.457  0.2482 -0.7000  0.2859
  787MOL0     H 6224  -0.679   5.415   9.312  0.9779  0.9393  1.3917
  787MOL0     H 6225  -0.539   5.252   9.449  0.5458  1.3729  0.9466
  787MOL0     H 6226  -0.628   5.289   9.591  4.9688 -3.9631 -0.2933
  787MOL0     H 6227  -0.653   4.759   8.631  2.0969 -1.2538 -4.0452
  787MOL0     H 6228  -0.600   4.545   8.530 -0.6176 -0.4907  1.1221
  787MOL0     H 6229  -0.169   4.088   8.749  1.3016  1.4517  1.2910
  787MOL0     H 6230  -0.060   3.929   8.598 -1.9399 -2.8724 -0.9855
  787MOL0     H 6231   0.194   4.777   7.009  0.2721 -1.0062  0.7139
  787MOL0     H 6232   0.190   4.973   6.850 -3.3608 -3.7214  0.7723
  787MOL0     H 6233   0.478   5.033   6.288 -2.0836 -0.0131  2.0120
  787MOL0     H 6234   0.510   5.235   6.136  3.8833 -0.1075  0.1348
  787MOL0     H 6235   0.515   5.596   6.043  0.0177  0.4453  0.6187
  787MOL0     H 6236   0.465   5.435   6.029  3.4070  0.1971 -1.1190
  787MOL0     H 6237   0.303   5.581   6.228  0.4288 -0.9619 -0.4170
  787MOL0     H 6238   0.263   5.456   6.110 -1.0474  1.2318 -2.2029
  787MOL0     H 6239   0.252   5.611   5.931  1.7067  0.3319 -0.5320
  787MOL0     H 6240   0.306   5.744   6.035  0.5438 -0.4981  0.1286
  787MOL0     H 6241   0.082   5.775   6.005  1.7722 -0.4426 -1.3857
  787MOL0     H 6242   0.097   5.716   6.170  0.2447 -2.5714  0.6779
  787MOL0     H 6243  -0.081   5.374   5.995 -0.1507 -0.0137  1.8391
  787MOL0     H 6244   0.511   5.477   6.474 -0.5280  0.7333 -0.6832
  787MOL0     H 6245   0.494   5.299   6.618  2.0636  3.6629 -0.3251
  788MOL0     O 6246   0.806   0.836   7.568 -0.4113  0.0960 -0.4166
  788MOL0     C 6247   0.899   0.766   7.536 -0.4706  0.6801 -0.3703
  788MOL0     O 6248   1.030   0.788   7.554  0.4599  0.9368  0.0592
  788MOL0     C 6249   1.071   0.895   7.625  0.9289  0.3250  0.3273
  788MOL0     C 6250   1.014   1.031   7.634 -0.2326  0.0338  0.1973
  788MOL0     C 6251   1.080   1.141   7.693  0.3125  0.4822 -0.8615
  788MOL0     C 6252   1.205   1.116   7.755 -0.0014  0.0823  0.1770
  788MOL0     O 6253   1.273   1.209   7.829 -0.1160  0.0217  0.2143
  788MOL0     C 6254   1.221   1.202   7.960 -0.0920  0.0607 -0.0186
  788MOL0     C 6255   1.230   1.332   8.024 -0.7844  0.7290  0.0704
  788MOL0     C 6256   1.362   1.410   8.040 -0.3478  0.9459 -0.2163
  788MOL0     C 6257   1.347   1.557   8.097 -0.2209  0.8076 -0.8211
  788MOL0     C 6258   1.460   1.624   8.177  0.9853  0.3682  0.0569
  788MOL0     C 6259   1.431   1.776   8.177 -0.6305  0.2551  0.2784
  788MOL0     C 6260   1.552   1.847   8.234 -0.2601 -0.6450  0.6476
  788MOL0     C 6261   1.581   1.979   8.162 -0.3947  0.0282  0.5759
  788MOL0     N 6262   1.728   2.004   8.150  0.2241  0.1435  0.0122
  788MOL0     C 6263   1.823   1.990   8.248 -0.0841 -0.9448  0.0878
  788MOL0     C 6264   1.939   2.016   8.191 -0.1485  0.9650 -0.0814
  788MOL0     C 6265   2.076   2.022   8.263  0.3753 -0.8338 -0.9383
  788MOL0     C 6266   2.200   2.005   8.182  0.6236  0.7763 -0.2936
  788MOL0     C 6267   2.199   1.879   8.093 -0.6660  0.0180 -0.3922
  788MOL0     C 6268   2.339   1.824   8.069 -0.5718  0.2361 -0.4308
  788MOL0     O 6269   2.403   1.779   8.190  0.1704 -1.0920 -0.6829
  788MOL0     C 6270   2.507   1.694   8.179  0.3381  0.5983  0.1936
  788MOL0     C 6271   2.580   1.661   8.067 -0.6126  0.4412  0.5605
  788MOL0     C 6272   2.681   1.566   8.066 -0.1256  0.2178  0.6298
  788MOL0     C 6273   2.754   1.543   7.936  0.1367  0.5061  1.2384
  788MOL0     C 6274   2.704   1.484   8.190 -0.3779 -0.4007 -1.1809
  788MOL0     C 6275   2.793   1.368   8.197 -0.4982  0.1006  0.2041
  788MOL0     O 6276   2.817   1.295   8.091  0.2848  0.1023 -0.0500
  788MOL0     C 6277   2.886   1.177   8.101 -0.6788 -0.8426  0.4806
  788MOL0     C 6278   2.972   1.155   7.991  0.3387  0.0398 -0.6454
  788MOL0     C 6279   3.049   1.037   7.986  0.5644 -0.3993  0.8768
  788MOL0     C 6280   3.043   0.944   8.087 -0.2802  0.6859 -0.2943
  788MOL0     O 6281   3.135   0.848   8.113 -0.7999  0.6237  0.1038
  788MOL0     C 6282   3.272   0.858   8.063  0.6929 -0.1158 -0.6767
  788MOL0     C 6283   3.365   0.770   8.137 -0.0599  1.1322  0.6220
  788MOL0     C 6284   3.338   0.748   8.283  0.9153  0.1028  0.1429
  788MOL0     C 6285   3.347   0.608   8.343 -0.3853 -0.9699 -0.1832
  788MOL0     C 6286   3.229   0.518   8.327  0.1227  0.6899 -0.8259
  788MOL0     C 6287   3.251   0.370   8.379 -0.8818  0.3071 -0.7918
  788MOL0     C 6288   3.110   0.305   8.413 -0.0619 -0.4004  0.0017
  788MOL0     C 6289   3.121   0.167   8.472 -0.0811  0.1399 -0.1292
  788MOL0    Cl 6290   2.963   0.103   8.510  0.1029  0.0955 -0.3449
  788MOL0     C 6291   2.958   0.961   8.189 -0.6171  0.5525 -0.2513
  788MOL0     C 6292   2.885   1.073   8.198  0.4752  0.2467  0.0661
  788MOL0     O 6293   2.838   1.345   8.306 -0.9102  0.8893  0.0028
  788MOL0     C 6294   2.632   1.526   8.306  0.2813  0.4478  0.0140
  788MOL0     C 6295   2.536   1.624   8.298 -0.2838 -0.8303  0.0319
  788MOL0     N 6296   1.913   2.023   8.056 -0.0399  0.0776  0.3569
  788MOL0     N 6297   1.790   2.012   8.026 -0.0994  0.0733  0.2280
  788MOL0     C 6298   1.266   0.984   7.757 -0.7807 -0.6106 -0.0081
  788MOL0     C 6299   1.200   0.884   7.685  0.3419  0.6946  0.5547
  788MOL0     C 6300   0.861   0.656   7.446 -0.2557  0.9363  0.1870
  788MOL0     C 6301   0.947   0.611   7.344 -0.5986  0.0583  0.2931
  788MOL0     C 6302   0.904   0.510   7.263  0.1870  0.1477 -0.6487
  788MOL0     C 6303   0.790   0.434   7.277  1.1480 -0.3321 -0.0350
  788MOL0     O 6304   0.780   0.315   7.214 -0.1965  1.0688 -0.0748
  788MOL0     C 6305   0.675   0.225   7.235  0.5085 -0.0947 -0.3730
  788MOL0     C 6306   0.729   0.087   7.177  0.9592  0.6277  0.3421
  788MOL0     C 6307   0.618   0.023   7.086  0.7264  0.0559  0.0334
  788MOL0     C 6308   0.674  -0.059   6.975 -0.8313  0.5417  0.2926
  788MOL0     C 6309   0.765  -0.163   7.031 -0.6416 -0.9037  0.1793
  788MOL0     C 6310   0.840  -0.250   7.050 -0.7164 -0.7950 -0.2756
  788MOL0     C 6311   0.701   0.479   7.374  0.0242  0.1427  0.7469
  788MOL0     C 6312   0.737   0.588   7.456  0.5677  0.2217  1.5044
  788MOL0     H 6313   0.919   1.057   7.589 -0.0533  0.4565  0.0579
  788MOL0     H 6314   1.035   1.240   7.695 -1.0367 -0.1060 -0.9037
  788MOL0     H 6315   1.123   1.159   7.986 -0.1117  0.9992  1.5863
  788MOL0     H 6316   1.283   1.132   8.016 -0.0266  1.3167  1.5677
  788MOL0     H 6317   1.163   1.400   7.971 -2.0021  0.0699  0.7057
  788MOL0     H 6318   1.195   1.338   8.128 -0.1721  2.0358  0.2241
  788MOL0     H 6319   1.428   1.358   8.110 -2.3943  1.3887  2.2324
  788MOL0     H 6320   1.404   1.414   7.940 -0.8667 -1.4146 -0.5932
  788MOL0     H 6321   1.331   1.624   8.012 -2.2116  1.7042  0.1762
  788MOL0     H 6322   1.256   1.550   8.158  1.9018  0.4744  2.5247
  788MOL0     H 6323   1.462   1.579   8.276  1.2547  1.7371  0.7022
  788MOL0     H 6324   1.555   1.602   8.127  0.5542  2.5283 -1.9065
  788MOL0     H 6325   1.418   1.812   8.074 -2.0238  1.2049  0.7495
  788MOL0     H 6326   1.342   1.801   8.236 -2.6779 -3.3700 -0.9208
  788MOL0     H 6327   1.559   1.848   8.343 -2.2514  0.9010  0.8312
  788MOL0     H 6328   1.637   1.787   8.200  1.4888  1.7446  0.5717
  788MOL0     H 6329   1.546   2.067   8.217 -2.3258  2.1413 -3.5768
  788MOL0     H 6330   1.540   1.988   8.061  0.8421 -0.8202 -0.0351
  788MOL0     H 6331   1.809   1.970   8.353  3.5051  0.4876  0.9690
  788MOL0     H 6332   2.079   2.118   8.314  0.0301  0.0961 -2.5708
  788MOL0     H 6333   2.072   1.939   8.334  0.2982  0.3340  0.4560
  788MOL0     H 6334   2.290   2.001   8.243  1.4679 -1.2457 -1.5425
  788MOL0     H 6335   2.216   2.093   8.118 -2.1660  2.0665  0.6185
  788MOL0     H 6336   2.161   1.910   7.995 -0.7649  1.1344 -0.0210
  788MOL0     H 6337   2.138   1.799   8.136 -0.0051  0.7580  2.0995
  788MOL0     H 6338   2.399   1.913   8.046 -0.3047 -0.0791 -0.9686
  788MOL0     H 6339   2.339   1.758   7.982 -1.5926 -1.0737  0.5243
  788MOL0     H 6340   2.575   1.719   7.975  2.5045 -2.0957 -1.4215
  788MOL0     H 6341   2.702   1.461   7.885  0.1076  0.5621  1.1766
  788MOL0     H 6342   2.757   1.637   7.880  0.2064 -0.2444 -0.0660
  788MOL0     H 6343   2.856   1.514   7.960 -0.4711 -2.3129  0.8121
  788MOL0     H 6344   2.981   1.236   7.918 -3.1240  2.5012  1.3568
  788MOL0     H 6345   3.112   1.020   7.900 -1.7504 -4.5584 -0.2627
  788MOL0     H 6346   3.291   0.840   7.957 -1.0427 -3.1385 -0.5892
  788MOL0     H 6347   3.314   0.956   8.087 -1.8240  1.9612 -3.9527
  788MOL0     H 6348   3.338   0.671   8.100  0.9425  0.4639  1.6111
  788MOL0     H 6349   3.473   0.782   8.118 -0.1762  0.6312 -0.4579
  788MOL0     H 6350   3.238   0.782   8.312  1.3036  0.3156  1.2484
  788MOL0     H 6351   3.409   0.806   8.342  0.0021 -0.4523  1.8440
  788MOL0     H 6352   3.432   0.551   8.304  2.0085  1.9010  0.4619
  788MOL0     H 6353   3.357   0.625   8.450  0.3404  0.3788 -0.4431
  788MOL0     H 6354   3.200   0.501   8.223 -0.2608  2.0887 -0.9604
  788MOL0     H 6355   3.155   0.574   8.384  0.3844  0.8450 -0.6331
  788MOL0     H 6356   3.314   0.303   8.321 -0.6340  0.5596 -0.8170
  788MOL0     H 6357   3.314   0.377   8.468 -1.9327  3.4241 -0.1590
  788MOL0     H 6358   3.038   0.309   8.331 -1.7122  1.8906  1.4508
  788MOL0     H 6359   3.048   0.368   8.478 -0.4922  0.0359 -0.8137
  788MOL0     H 6360   3.181   0.189   8.561  0.6015  1.1045 -0.7923
  788MOL0     H 6361   3.174   0.097   8.406  1.6884 -0.6667  2.0133
  788MOL0     H 6362   2.951   0.891   8.272  1.1355 -0.5459 -0.9730
  788MOL0     H 6363   2.802   1.081   8.267 -0.4078 -0.0381 -0.9334
  788MOL0     H 6364   2.646   1.464   8.394  0.2906 -2.1649 -1.7067
  788MOL0     H 6365   2.473   1.638   8.384 -1.7051 -3.1392 -0.5485
  788MOL0     H 6366   1.354   0.957   7.813 -2.1823 -3.5264  1.0342
  788MOL0     H 6367   1.240   0.784   7.696 -1.3507  0.1100  2.1577
  788MOL0     H 6368   1.050   0.635   7.320  0.8426 -5.2277 -0.0165
  788MOL0     H 6369   0.975   0.468   7.192 -0.0028  1.0511 -1.3872
  788MOL0     H 6370   0.651   0.209   7.340  0.5011  0.0604 -0.3509
  788MOL0     H 6371   0.578   0.253   7.193  0.0988 -0.5238  0.2682
  788MOL0     H 6372   0.743   0.013   7.256  3.0462  1.7375  1.1044
  788MOL0     H 6373   0.822   0.105   7.121 -0.8080  2.3518 -2.3265
  788MOL0     H 6374   0.548   0.098   7.048 -0.1038 -1.1144 -0.7990
  788MOL0     H 6375   0.559  -0.040   7.153  3.3861 -1.5969  0.9537
  788MOL0     H 6376   0.734  -0.008   6.899  1.4514 -1.2130  0.8240
  788MOL0     H 6377   0.599  -0.109   6.914 -1.2157  2.0404 -0.5267
  788MOL0     H 6378   0.909  -0.330   7.068  2.3397  1.3382 -1.5780
  788MOL0     H 6379   0.601   0.438   7.381 -1.2620  2.3298 -2.3499
  788MOL0     H 6380   0.667   0.623   7.531 -0.7893 -2.6222  1.6939
  789MOL0     O 6381   1.732   9.142   7.692 -0.5777 -0.6447 -0.6398
  789MOL0     C 6382   1.837   9.106   7.630 -0.1530  0.0989 -0.1001
  789MOL0     O 6383   1.860   8.974   7.584 -0.5556 -0.2008  0.4192
  789MOL0     C 6384   1.770   8.882   7.624  0.3821 -0.2033 -0.0675
  789MOL0     C 6385   1.756   8.845   7.759  0.9460 -0.0775 -0.6296
  789MOL0     C 6386   1.659   8.744   7.801 -0.4947  0.5145 -0.1531
  789MOL0     C 6387   1.576   8.687   7.702 -0.0500  0.1021  1.7456
  789MOL0     O 6388   1.477   8.600   7.725  0.1100  0.4686  0.2878
  789MOL0     C 6389   1.415   8.610   7.851 -0.1280  0.9432 -0.4621
  789MOL0     C 6390   1.279   8.548   7.851  0.2442  0.1894  0.0183
  789MOL0     C 6391   1.277   8.400   7.807  0.4284 -0.0217  0.0565
  789MOL0     C 6392   1.133   8.353   7.806  0.4512  0.7907 -0.0751
  789MOL0     C 6393   1.115   8.198   7.779 -0.6247  0.3187  0.1063
  789MOL0     C 6394   1.148   8.164   7.635 -0.2041 -0.2182  0.6235
  789MOL0     C 6395   1.149   8.010   7.613 -0.1859  0.2606 -0.6171
  789MOL0     C 6396   1.193   7.962   7.479  0.6510  0.2153 -0.1790
  789MOL0     N 6397   1.101   8.016   7.372 -0.2068 -0.1909  1.0863
  789MOL0     C 6398   1.144   8.109   7.274  0.5997  0.4698 -1.2475
  789MOL0     C 6399   1.044   8.101   7.185  0.9829  0.0161  0.6666
  789MOL0     C 6400   1.048   8.153   7.042  0.6221 -0.4872 -0.0516
  789MOL0     C 6401   1.142   8.275   7.012  0.7149 -0.5791  0.0437
  789MOL0     C 6402   1.145   8.288   6.858 -0.3702  0.3574  0.1334
  789MOL0     C 6403   1.236   8.404   6.809  0.0202 -0.7506 -0.1573
  789MOL0     O 6404   1.378   8.384   6.834  0.1383  0.3646 -0.0504
  789MOL0     C 6405   1.458   8.483   6.784  0.1651 -1.3776 -0.2330
  789MOL0     C 6406   1.412   8.612   6.735  0.0383 -0.5365  0.2300
  789MOL0     C 6407   1.503   8.716   6.705 -0.1770 -0.7634 -0.1351
  789MOL0     C 6408   1.448   8.840   6.635 -0.1030  0.6230  0.8589
  789MOL0     C 6409   1.638   8.710   6.726  0.9235  0.7012 -0.3371
  789MOL0     C 6410   1.740   8.819   6.723 -0.0141  0.4518 -0.3818
  789MOL0     O 6411   1.872   8.776   6.699  0.2756 -0.1902 -0.6302
  789MOL0     C 6412   1.977   8.867   6.708 -0.3716  0.1971  0.0761
  789MOL0     C 6413   1.974   8.977   6.618  0.8541  0.0033  0.0424
  789MOL0     C 6414   2.082   9.070   6.624 -1.2622  0.4580  0.6833
  789MOL0     C 6415   2.199   9.056   6.709  0.5785  0.5864  0.1989
  789MOL0     O 6416   2.312   9.124   6.706  0.4354 -0.1088 -0.7620
  789MOL0     C 6417   2.325   9.236   6.607 -0.7558 -0.6810  0.5021
  789MOL0     C 6418   2.459   9.212   6.541  0.2635  0.8056 -0.5650
  789MOL0     C 6419   2.527   9.342   6.490  0.6150  0.6856 -0.6583
  789MOL0     C 6420   2.683   9.329   6.482  0.1679 -0.0441 -0.2358
  789MOL0     C 6421   2.743   9.436   6.390 -0.2345 -0.9288 -0.3247
  789MOL0     C 6422   2.889   9.464   6.442 -0.1690  0.9949  0.1331
  789MOL0     C 6423   2.949   9.577   6.366 -0.0559 -0.2243  1.0220
  789MOL0     C 6424   3.059   9.651   6.437  0.1728 -0.1854 -0.4954
  789MOL0    Cl 6425   3.213   9.564   6.428 -0.1652 -0.1553 -0.3029
  789MOL0     C 6426   2.199   8.936   6.788  0.7245 -0.1397  0.9476
  789MOL0     C 6427   2.093   8.850   6.789  0.8671  0.3177  0.8105
  789MOL0     O 6428   1.712   8.935   6.758 -0.5005 -0.0900 -0.2577
  789MOL0     C 6429   1.687   8.580   6.769  0.2666 -0.6961 -0.5869
  789MOL0     C 6430   1.599   8.470   6.803 -0.1153  0.2496 -0.4387
  789MOL0     N 6431   0.940   8.024   7.230 -0.2724 -0.5438 -0.8096
  789MOL0     N 6432   0.981   7.965   7.342  0.3915 -0.1531 -0.0444
  789MOL0     C 6433   1.595   8.722   7.567  0.3241  0.5574  0.4990
  789MOL0     C 6434   1.693   8.803   7.531  0.7998 -0.7971  0.2146
  789MOL0     C 6435   1.942   9.210   7.614 -0.3365 -0.6241 -0.2635
  789MOL0     C 6436   2.063   9.184   7.545 -0.1027  0.6220  0.1925
  789MOL0     C 6437   2.166   9.271   7.541  0.5379 -0.0923  0.8371
  789MOL0     C 6438   2.147   9.400   7.589 -0.0737  0.8052 -0.0739
  789MOL0     O 6439   2.249   9.484   7.563 -0.2444  0.0322  0.0836
  789MOL0     C 6440   2.264   9.619   7.620  0.3331  0.0206 -0.1831
  789MOL0     C 6441   2.216   9.711   7.500 -0.3921 -0.0513 -0.5533
  789MOL0     C 6442   2.265   9.858   7.496  0.4315  0.0980  0.0851
  789MOL0     C 6443   2.159   9.965   7.465 -0.6998 -0.2961 -0.0143
  789MOL0     C 6444   2.105   9.963   7.327 -0.5378 -0.9686 -0.3652
  789MOL0     C 6445   2.062   9.945   7.214  0.8986  0.0896  0.4719
  789MOL0     C 6446   2.025   9.436   7.651  0.1411  0.1892  0.9774
  789MOL0     C 6447   1.919   9.348   7.664 -1.0787  0.0802 -0.0800
  789MOL0     H 6448   1.829   8.896   7.821  1.3018  2.4234 -2.9231
  789MOL0     H 6449   1.662   8.702   7.901  1.7774 -2.3425 -1.2781
  789MOL0     H 6450   1.484   8.562   7.921  3.0556  2.9885 -1.9344
  789MOL0     H 6451   1.400   8.714   7.879 -3.0198  0.5541 -0.3022
  789MOL0     H 6452   1.239   8.545   7.952 -0.8639 -0.9055 -0.4304
  789MOL0     H 6453   1.222   8.606   7.778  0.0876 -1.1377 -0.9472
  789MOL0     H 6454   1.313   8.411   7.704 -0.7131  0.0046 -0.3562
  789MOL0     H 6455   1.335   8.329   7.866 -3.9219 -2.4514  1.9500
  789MOL0     H 6456   1.079   8.391   7.893  1.7061  0.0951  1.0338
  789MOL0     H 6457   1.075   8.393   7.722 -0.7920  4.9310  2.4766
  789MOL0     H 6458   1.176   8.140   7.849  0.7707 -0.7278 -1.8645
  789MOL0     H 6459   1.009   8.175   7.791 -1.6273  4.4285  0.4896
  789MOL0     H 6460   1.079   8.215   7.567  0.6176  0.8876  0.5882
  789MOL0     H 6461   1.240   8.216   7.608 -0.9621  1.2096  0.6850
  789MOL0     H 6462   1.192   7.952   7.695 -1.8392 -1.5046 -0.9384
  789MOL0     H 6463   1.046   7.974   7.623 -0.1672  0.8295  2.9763
  789MOL0     H 6464   1.183   7.853   7.485  0.6699  0.2269  0.0393
  789MOL0     H 6465   1.299   7.978   7.455  0.9373 -3.2384 -1.9803
  789MOL0     H 6466   1.234   8.165   7.253  0.2552  1.8375  0.6750
  789MOL0     H 6467   1.071   8.068   6.976  1.0199 -0.8093  0.4966
  789MOL0     H 6468   0.945   8.174   7.011 -0.3722 -2.9382  1.2946
  789MOL0     H 6469   1.245   8.254   7.043  2.1574  0.9141 -3.2304
  789MOL0     H 6470   1.104   8.367   7.057  0.6433 -0.5972  0.0198
  789MOL0     H 6471   1.040   8.303   6.831 -0.4087  1.0257  0.6180
  789MOL0     H 6472   1.175   8.192   6.814  2.9866  0.2689  2.2375
  789MOL0     H 6473   1.195   8.490   6.863  1.2182  0.6663 -1.4059
  789MOL0     H 6474   1.211   8.428   6.705  0.3354 -0.5487 -0.1871
  789MOL0     H 6475   1.308   8.639   6.718  0.0257  0.2221  1.4130
  789MOL0     H 6476   1.470   8.927   6.698 -3.3174  3.4563 -1.5549
  789MOL0     H 6477   1.490   8.851   6.535 -0.2594 -0.5912  0.6564
  789MOL0     H 6478   1.340   8.850   6.622 -0.1448  3.7290  2.4872
  789MOL0     H 6479   1.890   8.997   6.552 -0.3577 -0.5792  1.3435
  789MOL0     H 6480   2.063   9.150   6.553  0.5866 -0.5978 -1.1026
  789MOL0     H 6481   2.251   9.239   6.527  1.5260 -0.9219 -1.7698
  789MOL0     H 6482   2.348   9.328   6.663  1.9016  0.2170 -1.8089
  789MOL0     H 6483   2.528   9.162   6.610  0.1455 -0.4899 -1.3562
  789MOL0     H 6484   2.438   9.144   6.457 -0.2975 -0.4709  0.5683
  789MOL0     H 6485   2.501   9.424   6.557 -0.4121  0.6584 -1.0097
  789MOL0     H 6486   2.484   9.363   6.392 -1.1661 -0.9048 -0.2944
  789MOL0     H 6487   2.724   9.335   6.583 -0.9104 -3.3024  0.5110
  789MOL0     H 6488   2.721   9.233   6.445  2.0205  0.1743  0.9809
  789MOL0     H 6489   2.680   9.524   6.404  0.1555 -0.4786 -1.2896
  789MOL0     H 6490   2.730   9.410   6.284  1.6689 -0.6294 -0.6728
  789MOL0     H 6491   2.891   9.493   6.547  2.0642  2.5145 -0.2665
  789MOL0     H 6492   2.945   9.371   6.435 -1.7702  0.0101 -0.3076
  789MOL0     H 6493   2.867   9.650   6.358  1.4941  1.3543 -3.4966
  789MOL0     H 6494   2.975   9.549   6.264  0.0976 -0.6128  1.1651
  789MOL0     H 6495   3.052   9.676   6.543 -0.9315  1.8352 -0.9799
  789MOL0     H 6496   3.056   9.751   6.392  0.3986  0.0281 -0.0408
  789MOL0     H 6497   2.284   8.916   6.852  0.1516  0.7820  2.0213
  789MOL0     H 6498   2.103   8.756   6.843 -0.7366  0.4114  1.3265
  789MOL0     H 6499   1.791   8.574   6.797  0.0594  1.6259  0.9325
  789MOL0     H 6500   1.638   8.377   6.844 -0.0942  0.1000 -0.7983
  789MOL0     H 6501   1.534   8.687   7.484 -0.2383  3.6977 -0.5654
  789MOL0     H 6502   1.693   8.837   7.428  0.1344 -0.2939  0.3759
  789MOL0     H 6503   2.077   9.086   7.500 -4.7476 -0.2482  0.2024
  789MOL0     H 6504   2.258   9.252   7.486 -1.0227  3.0490 -3.4996
  789MOL0     H 6505   2.196   9.623   7.706  0.3348  0.1139 -0.1858
  789MOL0     H 6506   2.368   9.625   7.651 -0.0355  0.3961  1.0389
  789MOL0     H 6507   2.109   9.707   7.524 -0.3136  1.8198  0.2225
  789MOL0     H 6508   2.245   9.660   7.407 -0.0516 -1.6160  0.3779
  789MOL0     H 6509   2.346   9.868   7.422  0.0012 -2.6667 -0.8734
  789MOL0     H 6510   2.304   9.876   7.597 -3.3051  1.4653  1.4669
  789MOL0     H 6511   2.215  10.059   7.474  1.9128 -1.6540 -0.9236
  789MOL0     H 6512   2.077   9.958   7.537 -0.8486 -1.8318 -0.3118
  789MOL0     H 6513   2.006   9.937   7.123 -1.3701  1.7188  1.6421
  789MOL0     H 6514   1.998   9.537   7.679 -2.0972 -0.5199  1.5367
  789MOL0     H 6515   1.825   9.392   7.695 -0.5963  2.1282 -1.3515
  790MOL0     O 6516   4.556  10.845   6.192  0.5709 -0.5686  0.5761
  790MOL0     C 6517   4.649  10.772   6.212  0.9995  0.7052  1.0184
  790MOL0     O 6518   4.742  10.745   6.117  0.5338 -0.0238  0.4071
  790MOL0     C 6519   4.724  10.792   5.981  0.1004 -0.4864 -0.6297
  790MOL0     C 6520   4.825  10.864   5.919  0.4169  0.1181 -0.4470
  790MOL0     C 6521   4.809  10.910   5.788  0.5772  0.2472 -0.0362
  790MOL0     C 6522   4.696  10.893   5.717  0.4593 -1.1541  0.3644
  790MOL0     O 6523   4.674  10.946   5.591  0.2878  0.2213  0.5988
  790MOL0     C 6524   4.733  11.065   5.558 -0.4571  0.1385  0.2369
  790MOL0     C 6525   4.672  11.136   5.440  0.2398  0.5721  0.4764
  790MOL0     C 6526   4.716  11.265   5.404 -0.0810  0.1371 -0.0797
  790MOL0     C 6527   4.872  11.273   5.373 -0.4330  0.0936  0.1734
  790MOL0     C 6528   4.907  11.383   5.271 -0.4653  0.3548 -0.5228
  790MOL0     C 6529   5.057  11.405   5.269 -0.1623 -0.5818  0.0886
  790MOL0     C 6530   5.124  11.318   5.172  0.2528 -0.6732  0.0428
  790MOL0     C 6531   5.270  11.310   5.206 -0.7847 -0.7083  0.7303
  790MOL0     N 6532   5.345  11.216   5.120  0.4249  0.0936 -0.2979
  790MOL0     C 6533   5.372  11.242   4.991 -0.4896 -0.3702 -0.1135
  790MOL0     C 6534   5.421  11.121   4.948 -0.1590 -0.2026  1.1328
  790MOL0     C 6535   5.458  11.092   4.803  0.0022 -0.2698 -0.3236
  790MOL0     C 6536   5.419  10.945   4.765  1.1106 -1.0506  0.1056
  790MOL0     C 6537   5.488  10.923   4.624  0.0182  0.2945 -0.0884
  790MOL0     C 6538   5.464  10.782   4.575  0.2444 -0.7135 -0.1358
  790MOL0     O 6539   5.580  10.740   4.493  0.1399 -0.0783 -0.4671
  790MOL0     C 6540   5.563  10.628   4.419  0.0085  0.2608  0.6159
  790MOL0     C 6541   5.461  10.530   4.440  0.6857 -1.0370 -0.7623
  790MOL0     C 6542   5.441  10.426   4.351  0.0730  0.8440 -0.4720
  790MOL0     C 6543   5.332  10.324   4.380 -0.1982 -0.5580 -0.5416
  790MOL0     C 6544   5.540  10.411   4.247  0.4407  0.9795 -0.1821
  790MOL0     C 6545   5.532  10.307   4.135 -0.4078 -0.4912 -0.2519
  790MOL0     O 6546   5.409  10.261   4.108 -0.3410  0.6606 -0.3991
  790MOL0     C 6547   5.381  10.209   3.988  0.0637 -0.0494  1.3668
  790MOL0     C 6548   5.386  10.292   3.882 -1.0143  0.3290  0.3506
  790MOL0     C 6549   5.335  10.248   3.759 -0.5322  1.1897 -0.2891
  790MOL0     C 6550   5.284  10.106   3.757  0.1402 -0.9377 -0.8442
  790MOL0     O 6551   5.226  10.050   3.652 -0.3945 -0.2525 -0.1358
  790MOL0     C 6552   5.117  10.126   3.598 -0.3402 -0.8951 -0.0092
  790MOL0     C 6553   5.047  10.084   3.465 -1.1182  0.0406  0.6399
  790MOL0     C 6554   5.062   9.928   3.443  0.0289  0.0963  0.5774
  790MOL0     C 6555   4.966   9.880   3.338 -0.3479 -0.5566 -0.1097
  790MOL0     C 6556   5.005   9.738   3.285 -0.6950  0.1232 -1.0734
  790MOL0     C 6557   4.902   9.677   3.201  0.0362  0.4419  0.7974
  790MOL0     C 6558   4.927   9.526   3.172 -0.2518  0.1819  0.1407
  790MOL0     C 6559   4.811   9.483   3.092 -0.1657 -0.2511 -0.4185
  790MOL0    Cl 6560   4.853   9.317   3.031  0.4816  0.1062  0.2805
  790MOL0     C 6561   5.304  10.017   3.861  0.2958  0.0836  0.4297
  790MOL0     C 6562   5.351  10.071   3.979 -0.1912  0.1069  0.0919
  790MOL0     O 6563   5.632  10.274   4.074  0.4548 -1.0986 -0.4476
  790MOL0     C 6564   5.655  10.483   4.249 -0.5457 -0.2499 -0.4363
  790MOL0     C 6565   5.664  10.597   4.329 -0.0208  0.2447  0.7367
  790MOL0     N 6566   5.427  11.032   5.052 -0.1989  0.2020 -0.5109
  790MOL0     N 6567   5.360  11.087   5.153 -0.4789 -0.6245  0.1739
  790MOL0     C 6568   4.591  10.818   5.782 -0.0475  0.4377 -0.0920
  790MOL0     C 6569   4.604  10.774   5.917 -0.1170  0.6820 -0.0528
  790MOL0     C 6570   4.664  10.706   6.343  0.3614  0.1553 -0.5178
  790MOL0     C 6571   4.790  10.679   6.390 -0.0440  0.0265  0.1724
  790MOL0     C 6572   4.805  10.605   6.515 -0.0283  0.4982  0.2067
  790MOL0     C 6573   4.690  10.546   6.575 -0.2252 -0.0507 -1.0725
  790MOL0     O 6574   4.707  10.449   6.670 -0.4863 -0.4715 -0.4754
  790MOL0     C 6575   4.606  10.432   6.776  1.0745 -0.6069 -0.1507
  790MOL0     C 6576   4.653  10.427   6.923 -0.4317  1.5983  0.3579
  790MOL0     C 6577   4.737  10.303   6.927 -0.7294  0.5025 -0.6063
  790MOL0     C 6578   4.802  10.298   7.066 -1.3561  0.3369 -0.1205
  790MOL0     C 6579   4.711  10.275   7.173 -1.0818  0.1823  0.7056
  790MOL0     C 6580   4.611  10.246   7.239 -0.1852 -0.3840 -0.6419
  790MOL0     C 6581   4.572  10.587   6.537  0.9645  0.3046  0.5884
  790MOL0     C 6582   4.556  10.670   6.424  0.3086  0.1264  0.1601
  790MOL0     H 6583   4.911  10.886   5.981  0.2899  0.1987 -0.2990
  790MOL0     H 6584   4.891  10.970   5.750  1.6059 -2.0514 -1.7213
  790MOL0     H 6585   4.729  11.137   5.640  0.2384  0.0148  0.3895
  790MOL0     H 6586   4.841  11.058   5.539 -0.5863  0.7759 -0.7906
  790MOL0     H 6587   4.683  11.077   5.349  0.0950  1.9699 -0.4584
  790MOL0     H 6588   4.563  11.144   5.450 -0.1398  1.6575 -3.3079
  790MOL0     H 6589   4.656  11.298   5.318  1.8994  0.4394 -1.3970
  790MOL0     H 6590   4.693  11.334   5.486  1.0138 -0.7801  1.0291
  790MOL0     H 6591   4.929  11.298   5.462  3.0922  1.2481 -2.1997
  790MOL0     H 6592   4.914  11.177   5.339  0.9102 -0.2261  2.5380
  790MOL0     H 6593   4.863  11.364   5.173 -1.3118  1.3480 -0.3456
  790MOL0     H 6594   4.858  11.476   5.300 -1.4944 -0.1523 -0.5822
  790MOL0     H 6595   5.084  11.501   5.224 -0.2228  0.6825  2.5573
  790MOL0     H 6596   5.101  11.407   5.369  1.5632 -1.3555 -0.6057
  790MOL0     H 6597   5.086  11.216   5.159 -1.5488  0.0718 -0.9686
  790MOL0     H 6598   5.120  11.371   5.077 -1.0882  0.4994  0.7144
  790MOL0     H 6599   5.274  11.263   5.305 -2.1812  0.5329  1.4258
  790MOL0     H 6600   5.325  11.403   5.217 -0.8558 -0.8339  2.4542
  790MOL0     H 6601   5.359  11.333   4.934 -1.0835  0.6602  1.5659
  790MOL0     H 6602   5.414  11.170   4.741  1.8916  1.0995 -0.0407
  790MOL0     H 6603   5.567  11.101   4.801  0.2801 -2.9242  0.0620
  790MOL0     H 6604   5.311  10.927   4.760  1.0668 -0.4618 -1.3476
  790MOL0     H 6605   5.463  10.880   4.842 -0.9085 -0.8601  1.5184
  790MOL0     H 6606   5.595  10.937   4.637 -0.3373  1.2245  2.4498
  790MOL0     H 6607   5.434  10.984   4.550 -0.5512 -1.2904 -1.0273
  790MOL0     H 6608   5.371  10.785   4.518  0.8437 -0.6956 -1.1314
  790MOL0     H 6609   5.456  10.711   4.657  1.0946 -0.5143  0.1340
  790MOL0     H 6610   5.393  10.549   4.523  1.3078 -0.4720 -0.3677
  790MOL0     H 6611   5.363  10.219   4.377 -3.1754 -1.5867  0.4695
  790MOL0     H 6612   5.287  10.334   4.480 -0.8905 -2.7292 -0.5726
  790MOL0     H 6613   5.251  10.343   4.308 -0.3181  0.6160 -0.1268
  790MOL0     H 6614   5.419  10.395   3.886 -0.8731  0.3511 -0.8043
  790MOL0     H 6615   5.332  10.303   3.665  0.2417 -0.7990 -1.5283
  790MOL0     H 6616   5.037  10.133   3.672 -3.4178  0.3898 -3.1827
  790MOL0     H 6617   5.159  10.224   3.574 -2.8853  1.0787  2.8595
  790MOL0     H 6618   4.945  10.122   3.457 -1.2015  0.4901  2.9337
  790MOL0     H 6619   5.105  10.125   3.382 -1.0492 -3.4227 -1.1997
  790MOL0     H 6620   5.040   9.869   3.532  1.3544 -1.4187 -0.0408
  790MOL0     H 6621   5.165   9.902   3.417  0.8873 -2.0531  5.2713
  790MOL0     H 6622   4.870   9.871   3.389  0.7743  2.3213  2.9122
  790MOL0     H 6623   4.960   9.963   3.266  3.7884 -0.8044 -0.9627
  790MOL0     H 6624   5.013   9.685   3.380  1.1594  0.4815 -0.9777
  790MOL0     H 6625   5.097   9.745   3.227  0.4628  0.4959  0.7228
  790MOL0     H 6626   4.799   9.681   3.240 -1.8423  0.6584 -3.6097
  790MOL0     H 6627   4.909   9.725   3.103  5.1750 -0.7139  0.3377
  790MOL0     H 6628   4.933   9.465   3.262  1.3982  1.3038  0.8171
  790MOL0     H 6629   5.027   9.517   3.128  0.0456 -1.3944  1.0667
  790MOL0     H 6630   4.783   9.550   3.010  0.4132  0.6150  0.0752
  790MOL0     H 6631   4.722   9.483   3.155 -0.6134 -2.1124 -0.9827
  790MOL0     H 6632   5.274   9.913   3.855  0.7003  0.0585 -1.8200
  790MOL0     H 6633   5.372  10.015   4.070  1.8505  1.2176  0.3787
  790MOL0     H 6634   5.738  10.476   4.179  2.1584 -1.2760  2.6008
  790MOL0     H 6635   5.752  10.660   4.320  0.6151 -0.4366  1.9614
  790MOL0     H 6636   4.498  10.806   5.728  1.5040  2.8086 -3.6854
  790MOL0     H 6637   4.512  10.738   5.961 -1.5983  2.1086 -1.8341
  790MOL0     H 6638   4.879  10.719   6.342  0.1062 -0.3628  0.1224
  790MOL0     H 6639   4.908  10.593   6.544  0.5247  1.9414 -1.0398
  790MOL0     H 6640   4.548  10.524   6.777  0.0502 -1.2310  1.7209
  790MOL0     H 6641   4.550  10.343   6.747  1.7719 -0.8324 -0.8497
  790MOL0     H 6642   4.566  10.424   6.989 -0.3451  0.0991  0.4387
  790MOL0     H 6643   4.711  10.517   6.947 -0.6524  2.0276 -0.6659
  790MOL0     H 6644   4.825  10.321   6.865 -0.6775  2.4043 -0.0459
  790MOL0     H 6645   4.682  10.215   6.894  0.7302 -0.2579 -1.0942
  790MOL0     H 6646   4.847  10.395   7.089  0.1992 -0.1954 -0.7837
  790MOL0     H 6647   4.876  10.217   7.067  0.4044  1.8315  2.3003
  790MOL0     H 6648   4.521  10.209   7.284 -0.2204 -2.7510 -2.4657
  790MOL0     H 6649   4.477  10.552   6.575  0.5509 -2.9090 -2.7949
  790MOL0     H 6650   4.455  10.706   6.407  0.2228 -0.6266 -1.0350
  791MOL0     O 6651   6.135   9.481   8.862  0.0849  0.0953 -0.4875
  791MOL0     C 6652   6.179   9.532   8.762  0.0857  0.0966  0.0345
  791MOL0     O 6653   6.250   9.649   8.759  0.0802  0.5724  0.2492
  791MOL0     C 6654   6.321   9.709   8.864 -0.2969 -0.3272  0.8063
  791MOL0     C 6655   6.376   9.640   8.968  0.4355  0.6393  0.8523
  791MOL0     C 6656   6.432   9.701   9.079  0.5848 -0.4680  0.9472
  791MOL0     C 6657   6.436   9.835   9.088 -0.2139  0.0423  0.9088
  791MOL0     O 6658   6.517   9.880   9.192  0.2131 -0.8302  0.1227
  791MOL0     C 6659   6.441   9.927   9.303 -0.4745 -0.8424  0.2563
  791MOL0     C 6660   6.364  10.054   9.283 -0.2437  0.0332 -0.3412
  791MOL0     C 6661   6.318  10.125   9.425 -0.1083  0.1032 -0.1289
  791MOL0     C 6662   6.434  10.206   9.488  0.5491 -0.1766 -0.0647
  791MOL0     C 6663   6.411  10.225   9.642 -1.0928 -0.0161 -0.2471
  791MOL0     C 6664   6.540  10.295   9.684 -0.0827  0.0291 -0.4633
  791MOL0     C 6665   6.566  10.291   9.835  0.1802  0.4976 -0.5453
  791MOL0     C 6666   6.454  10.363   9.927  0.0113 -0.3314 -0.2887
  791MOL0     N 6667   6.477  10.309  10.061 -0.0985 -0.3752  0.8297
  791MOL0     C 6668   6.601  10.286  10.116  0.5212  0.6621  0.0818
  791MOL0     C 6669   6.579  10.189  10.214 -0.3007  0.9209 -0.5556
  791MOL0     C 6670   6.699  10.125  10.281 -0.1373 -0.0928 -0.2139
  791MOL0     C 6671   6.661  10.003  10.361 -0.2864 -0.0023  0.4375
  791MOL0     C 6672   6.781   9.942  10.433 -1.0164 -0.8961  0.3755
  791MOL0     C 6673   6.758   9.846  10.549  0.1649  0.1493  0.7624
  791MOL0     O 6674   6.678   9.728  10.515 -0.4016 -1.0749  0.3731
  791MOL0     C 6675   6.548   9.721  10.555  1.3090  0.3560  0.7778
  791MOL0     C 6676   6.497   9.776  10.672  0.4963 -0.3411 -0.3899
  791MOL0     C 6677   6.362   9.766  10.709 -0.0359  0.9846  0.3842
  791MOL0     C 6678   6.322   9.818  10.852 -0.0262 -0.2203  0.0234
  791MOL0     C 6679   6.276   9.692  10.632  0.6555 -0.2621  0.0671
  791MOL0     C 6680   6.138   9.666  10.677 -0.1894  0.2667  0.1475
  791MOL0     O 6681   6.106   9.534  10.672 -0.3082 -0.3649 -0.3039
  791MOL0     C 6682   5.976   9.498  10.676 -0.0995 -0.3109  0.2089
  791MOL0     C 6683   5.905   9.492  10.553 -0.1486 -0.5910 -0.2318
  791MOL0     C 6684   5.768   9.463  10.559 -0.3129  0.5957  0.8788
  791MOL0     C 6685   5.704   9.453  10.676 -0.4150  1.1978  0.0059
  791MOL0     O 6686   5.582   9.390  10.677  0.4210 -0.3442 -0.1585
  791MOL0     C 6687   5.578   9.248  10.720  1.0154 -0.5767  0.1619
  791MOL0     C 6688   5.467   9.165  10.653  0.7578 -0.6496 -0.2204
  791MOL0     C 6689   5.335   9.241  10.638 -0.1919  1.0025 -0.0671
  791MOL0     C 6690   5.264   9.274  10.774  0.1284 -0.7077 -0.4510
  791MOL0     C 6691   5.107   9.255  10.765  0.8441  0.1451  0.5917
  791MOL0     C 6692   5.050   9.313  10.892  0.4114  0.3018 -1.0681
  791MOL0     C 6693   4.893   9.340  10.878 -0.5210  1.0925  0.3017
  791MOL0     C 6694   4.845   9.486  10.873 -0.4001 -0.2514 -0.6238
  791MOL0    Cl 6695   4.905   9.578  10.726 -0.4871  0.0530 -0.2732
  791MOL0     C 6696   5.767   9.481  10.794  1.1650 -0.1110 -0.1087
  791MOL0     C 6697   5.899   9.508  10.794 -0.0421 -0.6821 -0.3170
  791MOL0     O 6698   6.066   9.768  10.695 -0.3992 -0.0777 -0.1514
  791MOL0     C 6699   6.322   9.633  10.514 -0.0646 -1.1549  0.0890
  791MOL0     C 6700   6.456   9.642  10.481 -0.4188  0.3935 -0.0104
  791MOL0     N 6701   6.448  10.162  10.219 -0.0258  0.0086 -0.2972
  791MOL0     N 6702   6.381  10.241  10.134 -0.2452 -0.0690 -0.2193
  791MOL0     C 6703   6.370   9.920   8.995 -0.7139  0.2470 -0.7137
  791MOL0     C 6704   6.317   9.851   8.882 -0.3491  0.0524 -0.3404
  791MOL0     C 6705   6.149   9.472   8.624 -0.9225 -0.7527  0.0267
  791MOL0     C 6706   6.170   9.554   8.512  0.3602 -0.1207 -0.6658
  791MOL0     C 6707   6.125   9.510   8.389  0.1538  0.2365  0.3330
  791MOL0     C 6708   6.070   9.382   8.374  0.7460 -0.4318  0.4417
  791MOL0     O 6709   6.006   9.335   8.261 -0.3280 -0.0500 -0.2447
  791MOL0     C 6710   5.985   9.424   8.151  0.6743 -0.4914  0.1143
  791MOL0     C 6711   5.906   9.362   8.038  0.6103  0.3759 -0.3538
  791MOL0     C 6712   5.755   9.351   8.065  0.9601  0.0767 -0.5910
  791MOL0     C 6713   5.674   9.255   7.961  0.3780  0.1940 -1.5304
  791MOL0     C 6714   5.632   9.324   7.841 -0.3620 -0.2228  0.1625
  791MOL0     C 6715   5.607   9.392   7.745  0.5710  0.8745 -0.1658
  791MOL0     C 6716   6.056   9.295   8.491  0.4608 -0.5776  0.9890
  791MOL0     C 6717   6.098   9.343   8.615 -1.2796  0.2503 -0.7672
  791MOL0     H 6718   6.377   9.532   8.972  1.5003  0.5920 -0.1864
  791MOL0     H 6719   6.485   9.643   9.154  2.7545 -0.5685 -0.5753
  791MOL0     H 6720   6.365   9.851   9.324 -0.7572 -1.6260 -3.0127
  791MOL0     H 6721   6.500   9.944   9.394  0.4123 -3.0403  0.1367
  791MOL0     H 6722   6.419  10.126   9.221 -2.5458  0.2656 -2.2548
  791MOL0     H 6723   6.274  10.035   9.224  1.3272  0.2614 -2.9832
  791MOL0     H 6724   6.234  10.190   9.400 -2.3859 -2.8063 -0.6151
  791MOL0     H 6725   6.283  10.043   9.490  1.2297 -2.1219 -2.0720
  791MOL0     H 6726   6.531  10.158   9.477  1.4986  1.6284  0.0193
  791MOL0     H 6727   6.443  10.302   9.436  0.4287 -0.6737 -1.0375
  791MOL0     H 6728   6.321  10.281   9.667 -0.0910  2.2320 -1.3556
  791MOL0     H 6729   6.404  10.124   9.683  1.3661 -0.1498  0.0420
  791MOL0     H 6730   6.618  10.238   9.632 -1.4565 -2.6063  0.2008
  791MOL0     H 6731   6.550  10.396   9.643  0.9485  0.1738  0.1077
  791MOL0     H 6732   6.560  10.187   9.870  0.7188  0.9973  1.1640
  791MOL0     H 6733   6.670  10.324   9.849  1.1107 -0.7038 -3.8006
  791MOL0     H 6734   6.357  10.335   9.885 -1.3983  0.8721  1.9892
  791MOL0     H 6735   6.460  10.472   9.915 -0.3374 -0.1921  0.7145
  791MOL0     H 6736   6.694  10.333  10.084  1.5829  0.7049  2.9606
  791MOL0     H 6737   6.759  10.074  10.206  1.0287 -2.7170  2.3285
  791MOL0     H 6738   6.757  10.200  10.336 -0.1229  0.2935 -0.7472
  791MOL0     H 6739   6.628   9.923  10.293  3.0188 -1.0131 -0.1600
  791MOL0     H 6740   6.583  10.030  10.433 -2.7506  0.4199 -2.1766
  791MOL0     H 6741   6.843  10.022  10.473  1.4898 -0.7138 -3.3386
  791MOL0     H 6742   6.844   9.895  10.357  2.2514 -0.7774  2.8026
  791MOL0     H 6743   6.732   9.914  10.630  1.7271  0.3998  1.0695
  791MOL0     H 6744   6.859   9.817  10.580  0.3926  0.4348  0.2990
  791MOL0     H 6745   6.559   9.837  10.736 -2.7553  0.7970  1.9447
  791MOL0     H 6746   6.223   9.791  10.889  1.3235 -0.6577  3.7677
  791MOL0     H 6747   6.403   9.787  10.919 -0.8483  0.1164  1.2045
  791MOL0     H 6748   6.310   9.927  10.847 -1.5389 -0.2019  2.3216
  791MOL0     H 6749   5.950   9.497  10.455 -1.1051  3.7524 -0.6336
  791MOL0     H 6750   5.720   9.431  10.467 -0.0124 -0.7264  1.1636
  791MOL0     H 6751   5.673   9.199  10.695  0.0731 -1.6917 -1.3870
  791MOL0     H 6752   5.558   9.254  10.827 -1.2947  3.5949 -0.2513
  791MOL0     H 6753   5.501   9.131  10.555 -0.3323  1.2384 -1.3148
  791MOL0     H 6754   5.460   9.073  10.711  2.4457 -0.4404  0.3759
  791MOL0     H 6755   5.267   9.177  10.580  0.7946 -1.2851  1.1560
  791MOL0     H 6756   5.347   9.334  10.583 -0.4445  1.9477  1.4257
  791MOL0     H 6757   5.303   9.219  10.860 -1.3458  1.5335  1.7895
  791MOL0     H 6758   5.281   9.380  10.795  2.8587 -1.5680  2.4595
  791MOL0     H 6759   5.074   9.154  10.740  2.8300 -0.1529 -1.1646
  791MOL0     H 6760   5.067   9.308  10.678 -0.9302  0.5947  1.6488
  791MOL0     H 6761   5.061   9.240  10.973 -1.7059  0.5924 -0.4503
  791MOL0     H 6762   5.083   9.414  10.921 -0.2150 -0.6545  3.8221
  791MOL0     H 6763   4.848   9.289  10.964 -2.4337 -0.2299 -1.4056
  791MOL0     H 6764   4.868   9.289  10.785  0.1427 -1.1356  1.2636
  791MOL0     H 6765   4.886   9.527  10.966 -0.9708 -0.9921 -0.0279
  791MOL0     H 6766   4.736   9.490  10.866 -0.5662 -1.7976  0.4373
  791MOL0     H 6767   5.718   9.475  10.891  3.8801 -1.3194  1.2998
  791MOL0     H 6768   5.939   9.528  10.893 -0.5394 -2.4544  0.2645
  791MOL0     H 6769   6.256   9.569  10.456  0.3869 -3.4753  1.9665
  791MOL0     H 6770   6.504   9.594  10.396  3.1526 -1.7669  2.9506
  791MOL0     H 6771   6.370  10.028   9.006  1.3539  0.1906  0.2391
  791MOL0     H 6772   6.271   9.923   8.816  0.9492  1.0589 -0.1898
  791MOL0     H 6773   6.208   9.656   8.515 -0.8307  0.3153  0.5575
  791MOL0     H 6774   6.133   9.575   8.303 -0.2704 -0.2636 -0.0892
  791MOL0     H 6775   5.928   9.510   8.185 -1.1950 -1.1837 -1.0737
  791MOL0     H 6776   6.070   9.467   8.097 -1.8496  1.0263 -2.9982
  791MOL0     H 6777   5.947   9.266   8.006  1.2291  0.5516 -0.1038
  791MOL0     H 6778   5.918   9.436   7.958  3.4778  2.0695  1.4531
  791MOL0     H 6779   5.711   9.451   8.061  1.1071  0.1585 -0.1279
  791MOL0     H 6780   5.729   9.322   8.167 -1.8120  0.7189 -1.0383
  791MOL0     H 6781   5.578   9.235   8.009 -0.3264  2.9346 -1.6287
  791MOL0     H 6782   5.738   9.168   7.943 -0.5472 -1.4419  2.0600
  791MOL0     H 6783   5.595   9.442   7.651  1.5272  1.3536 -0.0409
  791MOL0     H 6784   6.011   9.197   8.479  0.2750 -0.4314  0.4949
  791MOL0     H 6785   6.081   9.287   8.706 -3.3181 -0.0246 -1.2515
  792MOL0     O 6786   0.678   5.587   5.759 -0.4884  0.1505  0.8142
  792MOL0     C 6787   0.765   5.603   5.846  0.6480 -0.0666  0.1156
  792MOL0     O 6788   0.806   5.719   5.899 -0.2431 -0.4146 -0.0556
  792MOL0     C 6789   0.799   5.826   5.812 -0.6750 -0.8420  0.2539
  792MOL0     C 6790   0.697   5.925   5.810 -0.4998 -0.1610 -0.2551
  792MOL0     C 6791   0.706   6.037   5.729  0.4440  0.3632 -0.1879
  792MOL0     C 6792   0.814   6.063   5.645 -0.5068 -0.4626 -0.6007
  792MOL0     O 6793   0.830   6.188   5.583 -0.3762  0.3512  0.3128
  792MOL0     C 6794   0.957   6.224   5.525  0.3132  0.8992 -0.7285
  792MOL0     C 6795   0.958   6.377   5.506  0.6541  0.5154 -0.1406
  792MOL0     C 6796   0.918   6.455   5.636 -0.4505 -0.2021 -0.7600
  792MOL0     C 6797   0.936   6.600   5.617  0.6064  0.0161 -1.1985
  792MOL0     C 6798   0.857   6.685   5.720  0.3841 -0.8227 -0.3291
  792MOL0     C 6799   0.869   6.835   5.697 -0.7698 -0.1603 -0.4280
  792MOL0     C 6800   0.787   6.916   5.795 -0.9706 -0.0717  0.3875
  792MOL0     C 6801   0.778   6.870   5.946  0.1002  0.2829  0.7714
  792MOL0     N 6802   0.714   6.967   6.029  0.3543 -0.4049  0.5513
  792MOL0     C 6803   0.760   7.090   6.069 -0.6614  0.7689  0.6200
  792MOL0     C 6804   0.659   7.139   6.157 -0.5968  0.5602  0.0226
  792MOL0     C 6805   0.647   7.277   6.229  0.4750  0.1478 -0.0422
  792MOL0     C 6806   0.729   7.382   6.158  0.5176 -0.8097  0.3283
  792MOL0     C 6807   0.674   7.536   6.185  0.2417  0.0777 -0.4068
  792MOL0     C 6808   0.742   7.602   6.304 -0.2308  0.1933  0.0903
  792MOL0     O 6809   0.881   7.628   6.280  0.8455 -0.5616  0.4947
  792MOL0     C 6810   0.948   7.742   6.322 -0.5517  0.1666 -0.4816
  792MOL0     C 6811   0.907   7.807   6.444  0.1094  1.1640 -0.0655
  792MOL0     C 6812   0.943   7.941   6.480  0.1998  0.2863 -0.1182
  792MOL0     C 6813   0.866   7.991   6.601  0.1524  1.0939  0.6400
  792MOL0     C 6814   1.036   8.013   6.396 -0.2097  0.2251 -0.1711
  792MOL0     C 6815   1.070   8.150   6.422  0.1707 -1.1091 -1.0339
  792MOL0     O 6816   1.126   8.214   6.318 -0.3547  0.2422 -0.0126
  792MOL0     C 6817   1.125   8.354   6.325 -0.0412  0.2007 -0.3459
  792MOL0     C 6818   1.216   8.431   6.408  0.0281  0.4772 -0.3699
  792MOL0     C 6819   1.208   8.570   6.420 -0.9823  0.4084  0.3510
  792MOL0     C 6820   1.122   8.644   6.341 -0.1947 -0.0024 -0.9656
  792MOL0     O 6821   1.126   8.778   6.356 -0.2327  0.2672 -0.0917
  792MOL0     C 6822   1.072   8.849   6.240 -0.6002 -0.2163  0.3276
  792MOL0     C 6823   1.100   9.000   6.239 -0.9967  0.7716  0.3391
  792MOL0     C 6824   1.096   9.068   6.367 -0.9232 -0.4141 -0.5298
  792MOL0     C 6825   0.955   9.058   6.438 -0.3356  0.1156 -0.9293
  792MOL0     C 6826   0.955   9.142   6.566 -0.3520 -0.0920  0.3587
  792MOL0     C 6827   0.839   9.117   6.662 -0.3275  0.3263 -0.5493
  792MOL0     C 6828   0.709   9.140   6.586  1.0403 -0.0217  0.2236
  792MOL0     C 6829   0.598   9.194   6.688  0.6664  1.1806  0.1013
  792MOL0    Cl 6830   0.443   9.179   6.600 -0.2651  0.0372  0.0771
  792MOL0     C 6831   1.037   8.571   6.250 -0.3581  0.1801  0.5135
  792MOL0     C 6832   1.042   8.429   6.247  0.9539 -0.2389  0.4609
  792MOL0     O 6833   1.033   8.206   6.523 -0.1458  0.2333  0.8211
  792MOL0     C 6834   1.074   7.945   6.275 -0.7653 -0.4952  0.8101
  792MOL0     C 6835   1.042   7.807   6.244  0.1051 -0.2086 -0.1658
  792MOL0     N 6836   0.565   7.036   6.166 -0.4229  0.4095  0.5733
  792MOL0     N 6837   0.602   6.933   6.097 -0.0096 -0.0312  0.5875
  792MOL0     C 6838   0.907   5.954   5.634 -0.4470 -0.8905  0.8492
  792MOL0     C 6839   0.898   5.839   5.716  0.2224  0.4877 -0.2369
  792MOL0     C 6840   0.806   5.482   5.926  1.0600  0.0503  0.6768
  792MOL0     C 6841   0.920   5.497   5.998  0.7640  0.6036  0.0448
  792MOL0     C 6842   0.963   5.389   6.071 -1.0357 -0.2286  0.1396
  792MOL0     C 6843   0.879   5.269   6.073 -0.3113 -0.0428  0.0796
  792MOL0     O 6844   0.931   5.161   6.140 -0.1699 -0.5375  0.4390
  792MOL0     C 6845   0.922   5.036   6.078 -0.5373  0.5195 -0.7739
  792MOL0     C 6846   1.009   4.946   6.146  0.3551  1.4489  0.0931
  792MOL0     C 6847   0.954   4.881   6.275 -0.0802  0.3949 -0.2411
  792MOL0     C 6848   0.914   4.978   6.382 -1.0814 -0.4926 -0.5398
  792MOL0     C 6849   0.880   4.916   6.501  1.4807 -0.2615 -0.3846
  792MOL0     C 6850   0.835   4.835   6.579  0.3013 -0.0872  0.3795
  792MOL0     C 6851   0.768   5.259   5.993 -0.1483 -0.0694  0.1879
  792MOL0     C 6852   0.738   5.363   5.914  0.5123 -0.2589 -0.0024
  792MOL0     H 6853   0.611   5.903   5.872  1.6985 -3.4060  1.9989
  792MOL0     H 6854   0.631   6.113   5.746  0.2251  0.3110 -0.9259
  792MOL0     H 6855   1.038   6.174   5.579  1.3342  2.8574 -0.3652
  792MOL0     H 6856   0.955   6.185   5.422 -1.3497  1.6590 -1.0161
  792MOL0     H 6857   1.063   6.400   5.484  0.1429  1.5989 -1.5760
  792MOL0     H 6858   0.890   6.402   5.424  2.0727 -0.2934 -1.6282
  792MOL0     H 6859   0.816   6.434   5.672  0.7375 -2.1294  1.8159
  792MOL0     H 6860   0.978   6.415   5.718  2.0187  0.5667 -2.1187
  792MOL0     H 6861   1.041   6.630   5.624  1.3381 -2.5202 -0.1979
  792MOL0     H 6862   0.884   6.621   5.524  0.9678  1.8913 -1.0075
  792MOL0     H 6863   0.754   6.655   5.736 -0.7529  2.9578  0.4173
  792MOL0     H 6864   0.903   6.661   5.817 -1.7005 -0.6795  0.7419
  792MOL0     H 6865   0.976   6.851   5.716 -0.8946 -0.2251  0.3748
  792MOL0     H 6866   0.844   6.855   5.592 -0.7133  0.3172 -0.3534
  792MOL0     H 6867   0.833   7.015   5.786  0.3776 -0.4644  2.4374
  792MOL0     H 6868   0.686   6.922   5.753 -1.0013 -2.6083 -0.0763
  792MOL0     H 6869   0.877   6.843   5.982  0.1079  0.8668  1.1946
  792MOL0     H 6870   0.721   6.777   5.948  0.0701  0.2570 -0.5559
  792MOL0     H 6871   0.837   7.148   6.018  1.3186 -1.9965  0.2453
  792MOL0     H 6872   0.542   7.305   6.239 -0.0992 -1.7979 -0.2801
  792MOL0     H 6873   0.689   7.264   6.329 -4.6081  0.4104  2.4324
  792MOL0     H 6874   0.726   7.371   6.049  0.6196  3.7036 -0.3161
  792MOL0     H 6875   0.831   7.377   6.199 -0.1860  1.8819  2.7502
  792MOL0     H 6876   0.566   7.525   6.204  0.2391  1.8465  0.7991
  792MOL0     H 6877   0.702   7.604   6.104 -2.3534 -0.9131 -2.3055
  792MOL0     H 6878   0.729   7.543   6.394 -2.5035 -1.1371 -1.0131
  792MOL0     H 6879   0.680   7.692   6.318 -0.9446  0.4016 -3.3763
  792MOL0     H 6880   0.836   7.754   6.507 -1.0724  1.0675 -1.4209
  792MOL0     H 6881   0.908   8.020   6.698 -3.0749  1.6295  2.0227
  792MOL0     H 6882   0.813   8.079   6.563 -0.3691  0.2705 -0.6003
  792MOL0     H 6883   0.784   7.923   6.627 -1.1557  1.2830 -2.5605
  792MOL0     H 6884   1.287   8.371   6.465 -0.7626 -1.2695 -1.1591
  792MOL0     H 6885   1.281   8.609   6.490 -0.3685 -1.8879  1.0828
  792MOL0     H 6886   1.119   8.813   6.148 -0.2694  2.9068 -0.8485
  792MOL0     H 6887   0.964   8.838   6.237 -0.6675  0.6353 -1.0884
  792MOL0     H 6888   1.205   9.001   6.209 -1.1307 -1.2188 -0.3960
  792MOL0     H 6889   1.035   9.040   6.161  0.2084 -2.4148 -2.5826
  792MOL0     H 6890   1.131   9.170   6.350  2.4715 -1.5908 -1.3691
  792MOL0     H 6891   1.168   9.011   6.427  0.7239 -0.6189 -2.5863
  792MOL0     H 6892   0.876   9.094   6.371  0.2256 -0.7217 -2.0789
  792MOL0     H 6893   0.933   8.957   6.475 -1.9437  1.4355  2.0403
  792MOL0     H 6894   0.948   9.245   6.532 -0.4874 -0.6003 -1.2365
  792MOL0     H 6895   1.048   9.138   6.624 -0.2924 -0.2161  0.2566
  792MOL0     H 6896   0.844   9.014   6.698 -3.7251 -0.6236 -2.3764
  792MOL0     H 6897   0.851   9.189   6.743  1.3633 -0.5892  0.0539
  792MOL0     H 6898   0.679   9.047   6.537 -2.1899  0.1345  1.6219
  792MOL0     H 6899   0.719   9.221   6.514  0.6371  0.7141  0.9693
  792MOL0     H 6900   0.620   9.297   6.716 -0.5466  1.5239 -0.1513
  792MOL0     H 6901   0.591   9.120   6.768  1.3081  0.3597 -0.5750
  792MOL0     H 6902   0.949   8.618   6.206  0.8862  1.2117 -0.9758
  792MOL0     H 6903   0.967   8.377   6.188 -0.1572  0.5792  1.1084
  792MOL0     H 6904   1.141   7.987   6.200  2.6409 -1.6863  2.9636
  792MOL0     H 6905   1.087   7.758   6.158  2.1479  2.2054 -0.6097
  792MOL0     H 6906   0.991   5.946   5.565 -0.0149 -0.7794  1.3512
  792MOL0     H 6907   0.965   5.754   5.724 -1.3572 -0.7156  0.9336
  792MOL0     H 6908   0.978   5.588   5.991  1.3561  0.3624  1.5557
  792MOL0     H 6909   1.064   5.382   6.111  0.2033 -0.1461 -2.7568
  792MOL0     H 6910   0.819   5.001   6.090 -0.1576 -0.5943 -0.6798
  792MOL0     H 6911   0.953   5.044   5.973  1.3345  1.3094 -0.1883
  792MOL0     H 6912   1.103   4.995   6.173 -0.0668  1.4336  1.6542
  792MOL0     H 6913   1.026   4.863   6.077 -2.8288  0.0883  0.7278
  792MOL0     H 6914   1.018   4.804   6.319 -2.5203 -0.5115  1.9631
  792MOL0     H 6915   0.861   4.831   6.248  0.0179  0.5702 -0.9141
  792MOL0     H 6916   0.823   5.028   6.349 -3.0281 -2.5264  1.3832
  792MOL0     H 6917   1.000   5.040   6.410 -1.3923  0.0447 -0.7482
  792MOL0     H 6918   0.793   4.781   6.661 -1.2847 -0.2381 -0.5107
  792MOL0     H 6919   0.711   5.167   5.990  0.3251 -0.3421 -1.0396
  792MOL0     H 6920   0.662   5.357   5.837  0.2941  0.3149  0.1555
  793MOL0     O 6921   9.544   7.624   8.162 -0.3198 -0.1468 -0.4210
  793MOL0     C 6922   9.581   7.606   8.278 -0.0251  1.0581  0.5265
  793MOL0     O 6923   9.561   7.496   8.349  0.6401  0.7587  0.2556
  793MOL0     C 6924   9.518   7.381   8.279 -0.9710  0.1737 -0.2986
  793MOL0     C 6925   9.616   7.290   8.236  0.1940  0.3100 -0.4601
  793MOL0     C 6926   9.578   7.181   8.153 -0.5747  0.4096 -0.2007
  793MOL0     C 6927   9.442   7.158   8.130 -0.6756  0.3248  0.3083
  793MOL0     O 6928   9.405   7.036   8.062 -0.0266  0.3459  0.1031
  793MOL0     C 6929   9.268   7.021   8.012 -0.0304 -0.3386  0.5375
  793MOL0     C 6930   9.245   6.884   7.949  0.8646  0.0352  0.0145
  793MOL0     C 6931   9.313   6.766   8.031  0.0604 -0.8448 -1.4455
  793MOL0     C 6932   9.239   6.748   8.172 -0.3394  0.9426 -1.1862
  793MOL0     C 6933   9.237   6.606   8.239 -0.3358  0.4218  0.5129
  793MOL0     C 6934   9.190   6.609   8.391 -0.2111 -0.1522  0.4080
  793MOL0     C 6935   9.094   6.491   8.420  0.7901  0.7881 -0.7235
  793MOL0     C 6936   8.992   6.529   8.527 -0.2927  0.8965  0.2318
  793MOL0     N 6937   8.901   6.631   8.484  0.1131 -0.0695  0.8380
  793MOL0     C 6938   8.804   6.607   8.395 -0.1477 -0.2766 -0.2366
  793MOL0     C 6939   8.754   6.722   8.358  0.1575  0.4073 -0.0106
  793MOL0     C 6940   8.627   6.744   8.274  0.5298 -0.1942 -0.0093
  793MOL0     C 6941   8.562   6.615   8.209 -0.5619 -0.2116 -0.7933
  793MOL0     C 6942   8.482   6.539   8.320 -0.4670 -0.6888  0.3439
  793MOL0     C 6943   8.454   6.390   8.281 -0.0914 -0.1997 -0.7066
  793MOL0     O 6944   8.569   6.306   8.314 -0.3680 -0.4016  0.3858
  793MOL0     C 6945   8.624   6.217   8.221  0.2410  0.2715 -0.1917
  793MOL0     C 6946   8.655   6.095   8.268  0.5727  0.5838 -0.4336
  793MOL0     C 6947   8.716   5.992   8.190  0.7904 -0.6378  0.5575
  793MOL0     C 6948   8.751   5.861   8.256 -0.7885 -0.0105 -0.1648
  793MOL0     C 6949   8.733   6.026   8.054 -0.4838  0.8576  0.1850
  793MOL0     C 6950   8.793   5.931   7.953 -0.2162  0.2639  1.0594
  793MOL0     O 6951   8.838   5.985   7.833 -0.3711 -0.1032 -0.0377
  793MOL0     C 6952   8.862   5.910   7.721  0.1472  0.4305  0.3528
  793MOL0     C 6953   8.973   5.938   7.639  0.0467 -0.0016  0.3901
  793MOL0     C 6954   8.983   5.874   7.517  0.4833 -0.1406  0.5111
  793MOL0     C 6955   8.884   5.804   7.468  0.1304  0.7252  0.0006
  793MOL0     O 6956   8.904   5.754   7.345  0.6441  0.6636  1.1691
  793MOL0     C 6957   8.822   5.661   7.274  0.3154 -0.3056  0.1154
  793MOL0     C 6958   8.851   5.694   7.128  0.2021  0.6995 -1.1678
  793MOL0     C 6959   8.717   5.707   7.050 -0.2109 -0.7550 -0.1486
  793MOL0     C 6960   8.755   5.767   6.910  0.0465  0.8764 -0.4528
  793MOL0     C 6961   8.646   5.738   6.806 -0.9533 -0.6913  0.0969
  793MOL0     C 6962   8.675   5.820   6.676 -0.9113  0.4015 -0.3360
  793MOL0     C 6963   8.543   5.827   6.595 -0.0484 -0.0122  0.5890
  793MOL0     C 6964   8.549   5.932   6.489  0.6850  0.3580  0.6773
  793MOL0    Cl 6965   8.387   5.961   6.418 -0.6083 -0.5170  0.2848
  793MOL0     C 6966   8.779   5.767   7.550  0.3575  0.1282 -0.3420
  793MOL0     C 6967   8.770   5.815   7.678  0.6472 -0.8589  0.3517
  793MOL0     O 6968   8.816   5.816   7.977 -0.5651 -0.6464 -0.9519
  793MOL0     C 6969   8.719   6.157   8.001 -0.3717 -0.2699  0.3542
  793MOL0     C 6970   8.667   6.247   8.094 -0.1648  0.6177  0.0761
  793MOL0     N 6971   8.824   6.820   8.428 -0.4900 -0.7215  0.2739
  793MOL0     N 6972   8.910   6.764   8.500  0.4640  0.2354  0.3878
  793MOL0     C 6973   9.346   7.247   8.178 -0.0060 -0.3982 -0.5975
  793MOL0     C 6974   9.383   7.370   8.243 -0.6502 -0.5109 -0.1672
  793MOL0     C 6975   9.656   7.719   8.345 -0.4543 -0.1910 -0.4915
  793MOL0     C 6976   9.691   7.702   8.482  0.4589 -0.4215 -0.2962
  793MOL0     C 6977   9.768   7.804   8.542  0.8475 -0.1470 -0.2578
  793MOL0     C 6978   9.798   7.923   8.474  0.4912  0.0678  0.2893
  793MOL0     O 6979   9.882   8.016   8.531  0.1539  0.2180 -0.6877
  793MOL0     C 6980   9.813   8.116   8.612 -0.0893 -0.3304  0.4271
  793MOL0     C 6981   9.746   8.230   8.535 -0.9537 -0.2079  1.6703
  793MOL0     C 6982   9.847   8.315   8.456 -0.7669 -0.1736 -0.1736
  793MOL0     C 6983   9.781   8.444   8.411 -0.4703 -0.2081 -0.5215
  793MOL0     C 6984   9.883   8.535   8.370 -0.4978  0.2520  0.6120
  793MOL0     C 6985   9.961   8.621   8.330 -0.1061 -0.1618 -0.1215
  793MOL0     C 6986   9.772   7.928   8.342 -0.8540 -0.1958 -0.2107
  793MOL0     C 6987   9.696   7.831   8.274  0.9840 -0.3144  0.6721
  793MOL0     H 6988   9.718   7.304   8.269 -0.1064  1.1061  0.1700
  793MOL0     H 6989   9.657   7.121   8.108 -2.4321 -1.8582 -0.6462
  793MOL0     H 6990   9.206   7.033   8.101 -0.1331  1.2305  0.2725
  793MOL0     H 6991   9.250   7.107   7.948 -4.3086 -0.8226  0.7908
  793MOL0     H 6992   9.141   6.866   7.920 -0.4509  3.3557  2.0286
  793MOL0     H 6993   9.299   6.903   7.856 -0.9569  1.2629 -0.8699
  793MOL0     H 6994   9.305   6.673   7.974  1.0905 -2.5436  1.0149
  793MOL0     H 6995   9.418   6.792   8.046 -0.0082  0.0581 -2.3895
  793MOL0     H 6996   9.273   6.818   8.248 -0.5787 -0.9164  0.7322
  793MOL0     H 6997   9.133   6.759   8.145 -0.4436  1.0671 -0.7357
  793MOL0     H 6998   9.176   6.535   8.180 -1.5061  1.5653  0.2971
  793MOL0     H 6999   9.339   6.569   8.234  0.1955  1.9562 -0.7311
  793MOL0     H 7000   9.281   6.603   8.450  0.3500  1.6179 -0.2078
  793MOL0     H 7001   9.142   6.706   8.408 -1.4382 -0.2690 -1.9293
  793MOL0     H 7002   9.037   6.456   8.333 -1.1487 -1.3499  1.2201
  793MOL0     H 7003   9.148   6.401   8.452 -1.3902  0.7634  3.6567
  793MOL0     H 7004   9.048   6.540   8.621  0.9605 -4.0622  0.3741
  793MOL0     H 7005   8.936   6.440   8.559 -0.7807  2.4933  4.4875
  793MOL0     H 7006   8.764   6.512   8.361  0.8125 -0.8735  0.2661
  793MOL0     H 7007   8.556   6.811   8.323  3.2005  1.8163  1.3691
  793MOL0     H 7008   8.657   6.808   8.191 -0.8217 -0.7291 -0.9300
  793MOL0     H 7009   8.643   6.554   8.168 -0.0385 -1.9836  2.5344
  793MOL0     H 7010   8.485   6.637   8.134 -2.3426  0.7324  1.2187
  793MOL0     H 7011   8.387   6.590   8.337  0.1844  0.4985  0.5218
  793MOL0     H 7012   8.535   6.547   8.414  0.7335  3.5308 -0.4961
  793MOL0     H 7013   8.434   6.372   8.175 -3.6418 -3.9438  0.3344
  793MOL0     H 7014   8.379   6.360   8.355  2.0796  0.9069  2.1305
  793MOL0     H 7015   8.635   6.074   8.373 -1.9673 -0.8142 -1.1222
  793MOL0     H 7016   8.699   5.783   8.200  0.9404 -2.0942  0.9934
  793MOL0     H 7017   8.855   5.830   8.244  0.4455  4.0330 -1.4945
  793MOL0     H 7018   8.735   5.857   8.364  1.4555  1.6620  0.2909
  793MOL0     H 7019   9.048   6.001   7.688  1.4185 -1.9263  0.8848
  793MOL0     H 7020   9.081   5.889   7.471  1.0919  1.0987  2.0968
  793MOL0     H 7021   8.842   5.555   7.292 -2.0684 -0.8308 -0.0920
  793MOL0     H 7022   8.721   5.682   7.309  1.3503 -0.7388  3.8015
  793MOL0     H 7023   8.907   5.788   7.127  2.8339 -0.7701 -1.2659
  793MOL0     H 7024   8.901   5.608   7.081 -0.3701  0.4258 -1.2955
  793MOL0     H 7025   8.635   5.760   7.100  0.1513 -0.5549  0.2374
  793MOL0     H 7026   8.678   5.606   7.037  1.7713 -1.2951 -2.6011
  793MOL0     H 7027   8.793   5.869   6.916 -2.1256  1.6833  0.2974
  793MOL0     H 7028   8.836   5.702   6.874 -2.4593 -2.0559 -1.3124
  793MOL0     H 7029   8.552   5.779   6.843 -0.1210 -0.9373  2.6886
  793MOL0     H 7030   8.630   5.632   6.784 -0.0554 -0.3356 -2.6543
  793MOL0     H 7031   8.702   5.924   6.701  0.6030  1.2635 -4.7250
  793MOL0     H 7032   8.750   5.780   6.608 -1.1750 -3.0860  1.2271
  793MOL0     H 7033   8.456   5.839   6.661 -0.4825 -0.2143  0.0593
  793MOL0     H 7034   8.530   5.729   6.548  0.8013 -0.5523  1.4333
  793MOL0     H 7035   8.623   5.916   6.410 -0.8081 -2.5869 -0.2480
  793MOL0     H 7036   8.563   6.027   6.541  0.6081  1.2631 -0.8910
  793MOL0     H 7037   8.693   5.717   7.506  0.4177 -0.1228 -0.1780
  793MOL0     H 7038   8.680   5.793   7.734 -0.2722  1.8474  0.0720
  793MOL0     H 7039   8.744   6.189   7.901 -0.4419 -1.3848 -0.0321
  793MOL0     H 7040   8.654   6.353   8.076  0.8033  1.6392  4.2311
  793MOL0     H 7041   9.241   7.228   8.155  0.9060 -0.8953 -5.5884
  793MOL0     H 7042   9.309   7.438   8.286  0.6662  1.4103 -0.7802
  793MOL0     H 7043   9.663   7.608   8.529  0.8912  0.6125  2.1231
  793MOL0     H 7044   9.790   7.781   8.646 -0.3515  0.6300  0.1875
  793MOL0     H 7045   9.725   8.070   8.658 -2.6367  2.8134 -0.8603
  793MOL0     H 7046   9.881   8.159   8.686  0.1075 -1.5863  1.0008
  793MOL0     H 7047   9.690   8.299   8.598 -1.9956  0.4921  0.0520
  793MOL0     H 7048   9.672   8.194   8.463  0.3816  0.0269  0.1034
  793MOL0     H 7049   9.890   8.264   8.369  1.8823  0.7708  0.4971
  793MOL0     H 7050   9.937   8.344   8.512 -0.9962  1.5206 -0.6277
  793MOL0     H 7051   9.732   8.493   8.496 -1.1909  0.9818 -1.5947
  793MOL0     H 7052   9.712   8.431   8.327  2.8064 -0.6625 -3.3780
  793MOL0     H 7053  10.028   8.699   8.299 -0.6604  1.0244  1.4809
  793MOL0     H 7054   9.824   8.010   8.292  0.0421 -0.4242  0.3172
  793MOL0     H 7055   9.670   7.848   8.170 -2.2029 -0.1059  1.4210
  794MOL0     O 7056   2.617   0.767  11.337 -0.3897 -0.2469  0.0734
  794MOL0     C 7057   2.731   0.725  11.362 -0.0158 -0.3680  0.2691
  794MOL0     O 7058   2.767   0.592  11.393 -0.2897  0.2936 -0.5811
  794MOL0     C 7059   2.680   0.484  11.409  0.0326  0.7685 -0.1007
  794MOL0     C 7060   2.734   0.359  11.431 -0.5555  0.4378  1.4854
  794MOL0     C 7061   2.658   0.243  11.431 -0.5247  0.2473  0.3371
  794MOL0     C 7062   2.521   0.247  11.409  1.0605 -0.4075  0.1340
  794MOL0     O 7063   2.452   0.127  11.411 -0.6336 -0.4352  0.0178
  794MOL0     C 7064   2.308   0.133  11.376 -0.3709  0.3026  0.3741
  794MOL0     C 7065   2.246  -0.010  11.367  0.5659  0.7436  0.4999
  794MOL0     C 7066   2.249  -0.088  11.500  0.1582  0.0276 -0.4324
  794MOL0     C 7067   2.100  -0.138  11.522 -0.2388  0.3018 -0.6360
  794MOL0     C 7068   2.095  -0.209  11.663  0.8402  0.7618 -0.7947
  794MOL0     C 7069   2.128  -0.116  11.782 -0.1013 -0.8136 -0.4552
  794MOL0     C 7070   2.139  -0.205  11.908 -0.4020 -0.2843 -0.4802
  794MOL0     C 7071   2.188  -0.128  12.027  0.3734 -0.5690 -0.6743
  794MOL0     N 7072   2.186  -0.219  12.145 -0.2938 -0.2274 -0.4595
  794MOL0     C 7073   2.305  -0.284  12.169  0.8851 -0.1355 -0.7205
  794MOL0     C 7074   2.267  -0.352  12.277  0.3543 -0.6766  1.6556
  794MOL0     C 7075   2.364  -0.442  12.342 -0.6433  0.1812  0.0299
  794MOL0     C 7076   2.441  -0.364  12.452 -0.3424  0.3607 -0.6373
  794MOL0     C 7077   2.480  -0.473  12.558 -0.1825 -0.1082  0.6025
  794MOL0     C 7078   2.588  -0.422  12.658  0.2365 -0.3851 -0.2384
  794MOL0     O 7079   2.636  -0.520  12.752 -0.2335  0.3653  0.5726
  794MOL0     C 7080   2.743  -0.484  12.824  0.2762 -0.4704  0.9586
  794MOL0     C 7081   2.826  -0.373  12.806  0.1356 -0.1514 -0.2583
  794MOL0     C 7082   2.936  -0.344  12.887 -1.4146 -0.2570 -0.3821
  794MOL0     C 7083   3.022  -0.220  12.874 -0.0089  0.3114 -0.5096
  794MOL0     C 7084   2.965  -0.439  12.986  0.0868 -1.0985  0.3899
  794MOL0     C 7085   3.065  -0.413  13.083 -0.8867  0.0470 -0.0144
  794MOL0     O 7086   3.022  -0.333  13.183 -0.6180 -0.4081  0.5288
  794MOL0     C 7087   3.109  -0.305  13.287  0.3788 -0.1485 -0.4479
  794MOL0     C 7088   3.133  -0.182  13.323 -0.3657  0.3254  0.0219
  794MOL0     C 7089   3.224  -0.156  13.434 -0.0473 -0.0917  1.7684
  794MOL0     C 7090   3.273  -0.261  13.510 -0.1124 -0.7347  0.4781
  794MOL0     O 7091   3.367  -0.233  13.609 -0.0768  0.4851  0.2560
  794MOL0     C 7092   3.491  -0.178  13.551 -0.0896 -0.5114  0.3375
  794MOL0     C 7093   3.610  -0.173  13.656  0.6047  0.7895  0.2700
  794MOL0     C 7094   3.716  -0.072  13.613  0.4162 -0.0563 -1.0039
  794MOL0     C 7095   3.818  -0.055  13.728 -0.1431  0.3942  0.0540
  794MOL0     C 7096   3.935   0.032  13.687 -0.1045 -0.0374 -0.1261
  794MOL0     C 7097   4.062   0.017  13.768 -0.3744 -0.2777  0.6465
  794MOL0     C 7098   4.039   0.075  13.911 -1.3301 -0.4451  0.0144
  794MOL0     C 7099   4.170   0.097  13.983 -0.1701  0.6547  0.2542
  794MOL0    Cl 7100   4.274  -0.063  13.977 -0.0387  0.2468 -0.0532
  794MOL0     C 7101   3.246  -0.382  13.473 -0.1799  0.5570 -0.6467
  794MOL0     C 7102   3.165  -0.410  13.367  0.7842 -0.0839  0.7865
  794MOL0     O 7103   3.174  -0.472  13.079  0.0692  0.2460  0.3165
  794MOL0     C 7104   2.897  -0.560  12.991  0.5517  0.3526  0.8062
  794MOL0     C 7105   2.786  -0.581  12.906 -0.8546 -0.2761  0.0279
  794MOL0     N 7106   2.134  -0.339  12.303 -0.4129 -0.3790  0.0821
  794MOL0     N 7107   2.087  -0.261  12.213  0.1438  0.8751  0.7790
  794MOL0     C 7108   2.456   0.377  11.391  0.5195 -0.1242  0.4395
  794MOL0     C 7109   2.534   0.490  11.393  0.6223  0.1253  0.3600
  794MOL0     C 7110   2.846   0.822  11.358 -0.1712 -0.2514 -0.2824
  794MOL0     C 7111   2.975   0.783  11.388 -0.1839  0.6085  0.4429
  794MOL0     C 7112   3.087   0.864  11.372 -0.5041 -0.3378  0.8609
  794MOL0     C 7113   3.064   0.997  11.321 -0.4800  0.5451  0.7610
  794MOL0     O 7114   3.177   1.075  11.317 -0.6574  0.3610  0.0984
  794MOL0     C 7115   3.181   1.190  11.400  0.3375 -0.1296  0.2357
  794MOL0     C 7116   3.283   1.175  11.507  0.3283  0.5925 -0.2525
  794MOL0     C 7117   3.424   1.129  11.460 -0.5437 -0.6087  0.7802
  794MOL0     C 7118   3.519   1.236  11.411 -0.7050  0.2487  0.1920
  794MOL0     C 7119   3.513   1.271  11.269  0.3292  0.5485  0.3050
  794MOL0     C 7120   3.474   1.291  11.154 -0.4887  0.6539 -0.4443
  794MOL0     C 7121   2.928   1.038  11.294 -0.2810 -0.1613  0.4403
  794MOL0     C 7122   2.817   0.952  11.308  0.1255 -0.5211  0.1892
  794MOL0     H 7123   2.842   0.367  11.444 -0.0462 -3.5941  1.1232
  794MOL0     H 7124   2.707   0.146  11.436  1.6347  0.9088 -3.7677
  794MOL0     H 7125   2.250   0.197  11.444 -1.3854 -1.3194  1.1214
  794MOL0     H 7126   2.296   0.192  11.285 -1.2266  0.7224  0.7410
  794MOL0     H 7127   2.144  -0.010  11.330 -0.3351 -4.3597  2.0775
  794MOL0     H 7128   2.294  -0.068  11.287 -1.4385 -0.2608 -0.0492
  794MOL0     H 7129   2.326  -0.165  11.498  0.4725  0.1264  2.4940
  794MOL0     H 7130   2.268  -0.025  11.588  1.8286 -0.8117 -0.1530
  794MOL0     H 7131   2.037  -0.049  11.532 -1.7820 -0.9565  1.6538
  794MOL0     H 7132   2.069  -0.210  11.445  1.2311 -0.5404 -0.4874
  794MOL0     H 7133   1.996  -0.253  11.672  0.8704  0.8373 -0.0438
  794MOL0     H 7134   2.165  -0.293  11.665 -1.1446 -0.9389  0.5230
  794MOL0     H 7135   2.230  -0.077  11.777  0.8044 -2.2875  3.1683
  794MOL0     H 7136   2.048  -0.042  11.792 -0.9095 -1.5092 -1.5435
  794MOL0     H 7137   2.041  -0.246  11.936  0.4473 -0.1919  3.2411
  794MOL0     H 7138   2.202  -0.293  11.892 -0.1396 -0.0985 -0.4712
  794MOL0     H 7139   2.114  -0.053  12.054  0.9022 -0.6388  1.0491
  794MOL0     H 7140   2.291  -0.094  12.014  0.2707 -0.8071 -2.3392
  794MOL0     H 7141   2.404  -0.285  12.123  0.1943 -0.2628 -2.2671
  794MOL0     H 7142   2.306  -0.517  12.397  0.6773 -1.4148 -0.6916
  794MOL0     H 7143   2.434  -0.496  12.279 -1.7168 -0.9827 -0.2093
  794MOL0     H 7144   2.383  -0.292  12.510  1.2633  0.6962  0.5986
  794MOL0     H 7145   2.524  -0.311  12.405 -0.6064  2.7651  1.4130
  794MOL0     H 7146   2.535  -0.550  12.504  1.3006  1.9482 -0.9842
  794MOL0     H 7147   2.393  -0.509  12.614 -0.1564 -1.3154 -0.1047
  794MOL0     H 7148   2.547  -0.333  12.707 -0.7221 -0.4661 -0.8765
  794MOL0     H 7149   2.668  -0.388  12.592  0.3586 -3.1212 -1.6322
  794MOL0     H 7150   2.798  -0.291  12.741  0.7207 -0.0173 -0.3459
  794MOL0     H 7151   3.127  -0.250  12.879 -0.4944 -1.2744  0.8332
  794MOL0     H 7152   3.004  -0.174  12.776 -1.7984 -1.6513 -1.1688
  794MOL0     H 7153   3.000  -0.148  12.953 -0.3220 -2.5221  2.1201
  794MOL0     H 7154   3.108  -0.105  13.250 -0.0335  0.6543  0.2488
  794MOL0     H 7155   3.246  -0.050  13.439 -0.1487  0.0383  0.1666
  794MOL0     H 7156   3.526  -0.234  13.463  2.7197 -0.0408  1.0526
  794MOL0     H 7157   3.474  -0.075  13.520 -2.9850 -1.1809 -0.5966
  794MOL0     H 7158   3.569  -0.157  13.756 -0.9988  1.6036 -0.4678
  794MOL0     H 7159   3.653  -0.272  13.641  1.7733  1.7022 -3.5615
  794MOL0     H 7160   3.661   0.022  13.599  0.5996  0.0061 -1.3256
  794MOL0     H 7161   3.750  -0.116  13.519 -0.1746 -2.0964 -0.3098
  794MOL0     H 7162   3.771  -0.035  13.825  0.4149  0.3132  0.3433
  794MOL0     H 7163   3.864  -0.151  13.753  0.2986  1.0404  1.8443
  794MOL0     H 7164   3.909   0.138  13.677  1.5701  0.2501 -2.2744
  794MOL0     H 7165   3.982   0.005  13.592  1.1363  1.9725 -0.1451
  794MOL0     H 7166   4.091  -0.086  13.787  0.9143 -0.2092 -0.7227
  794MOL0     H 7167   4.145   0.059  13.709 -0.4373 -0.2867  0.5516
  794MOL0     H 7168   3.974   0.011  13.971 -1.2877  1.1990  1.8947
  794MOL0     H 7169   3.994   0.174  13.899 -0.6212 -0.0933  0.2158
  794MOL0     H 7170   4.152   0.121  14.088  0.6568  2.2014  0.0676
  794MOL0     H 7171   4.225   0.186  13.951  0.7688  0.3633  0.9961
  794MOL0     H 7172   3.291  -0.461  13.531  0.4432  1.5617  0.2837
  794MOL0     H 7173   3.152  -0.514  13.336  1.7883  0.2575 -0.9153
  794MOL0     H 7174   2.925  -0.628  13.071  0.4217 -0.8790 -0.1631
  794MOL0     H 7175   2.724  -0.670  12.913  1.9772 -2.5534 -1.5894
  794MOL0     H 7176   2.348   0.393  11.390  0.4181 -0.7876  0.2487
  794MOL0     H 7177   2.485   0.587  11.384 -0.7025 -0.5849 -0.3741
  794MOL0     H 7178   2.994   0.695  11.450  0.2731  0.6009  0.2931
  794MOL0     H 7179   3.186   0.821  11.379 -0.4470 -1.9722 -4.9416
  794MOL0     H 7180   3.217   1.276  11.343 -0.5152 -0.3957 -0.7459
  794MOL0     H 7181   3.076   1.214  11.420 -0.3731 -0.8848 -2.2499
  794MOL0     H 7182   3.255   1.091  11.572 -3.0469  0.0251 -2.2275
  794MOL0     H 7183   3.288   1.260  11.575  0.8235  1.2715 -1.1213
  794MOL0     H 7184   3.401   1.053  11.385 -0.9352  1.0819 -0.8921
  794MOL0     H 7185   3.489   1.091  11.539  0.8948  0.3504  0.0849
  794MOL0     H 7186   3.621   1.204  11.433 -1.5821 -0.9172  3.0082
  794MOL0     H 7187   3.516   1.330  11.467  0.4698  1.0398 -1.0072
  794MOL0     H 7188   3.445   1.315  11.054  0.5041 -0.0553 -0.9117
  794MOL0     H 7189   2.908   1.143  11.275 -0.7218 -0.6942 -2.4911
  794MOL0     H 7190   2.715   0.988  11.301 -0.4607 -1.3720  2.9328
  795MOL0     O 7191   1.353   8.961   1.482 -0.2953  0.6696 -0.5057
  795MOL0     C 7192   1.262   8.910   1.539 -0.4182  0.5509 -0.3924
  795MOL0     O 7193   1.253   8.891   1.673  0.4554 -0.1356  0.1594
  795MOL0     C 7194   1.334   8.945   1.777  0.3516  0.3118  0.6537
  795MOL0     C 7195   1.289   8.914   1.905 -0.3024  0.1290 -0.4568
  795MOL0     C 7196   1.354   8.963   2.021  0.7431 -1.5989 -0.8729
  795MOL0     C 7197   1.478   9.023   2.005  0.3729  0.1339  0.0035
  795MOL0     O 7198   1.560   9.044   2.116  0.8416  0.2158 -0.5466
  795MOL0     C 7199   1.706   9.057   2.104 -0.4950  0.3291 -1.4226
  795MOL0     C 7200   1.782   8.931   2.072  0.4586  0.0421  0.1846
  795MOL0     C 7201   1.804   8.833   2.188 -0.5203 -0.1819  0.4708
  795MOL0     C 7202   1.750   8.693   2.154 -0.5895 -0.8964  0.1458
  795MOL0     C 7203   1.700   8.619   2.263  0.5219  0.7119  0.2680
  795MOL0     C 7204   1.674   8.466   2.237  0.2199 -0.1908  0.5173
  795MOL0     C 7205   1.700   8.384   2.368  0.2694 -0.3874  0.1893
  795MOL0     C 7206   1.626   8.255   2.362  0.3732 -0.4669 -0.6112
  795MOL0     N 7207   1.679   8.156   2.267  0.8332 -0.0018 -0.0742
  795MOL0     C 7208   1.736   8.033   2.285 -0.9157 -0.5852 -0.2291
  795MOL0     C 7209   1.770   7.978   2.164  0.7324 -0.1974 -0.5545
  795MOL0     C 7210   1.828   7.842   2.138 -0.7243  0.5713  0.2726
  795MOL0     C 7211   1.958   7.830   2.048 -0.9962  0.0482 -0.3298
  795MOL0     C 7212   1.991   7.688   2.004  0.1354 -0.2451 -0.2189
  795MOL0     C 7213   2.133   7.690   1.965 -1.1675  0.0253  0.4818
  795MOL0     O 7214   2.182   7.557   1.936 -0.4706  0.4551 -0.5552
  795MOL0     C 7215   2.322   7.552   1.929  0.6508  0.1239 -0.0613
  795MOL0     C 7216   2.390   7.438   1.981  0.5545 -0.1202  0.0495
  795MOL0     C 7217   2.525   7.410   1.980 -0.3941 -0.5148  0.5774
  795MOL0     C 7218   2.587   7.293   2.052 -0.0917  0.5407 -0.3622
  795MOL0     C 7219   2.608   7.511   1.922  0.3513  0.9791  0.8673
  795MOL0     C 7220   2.756   7.507   1.896  0.4938  0.7608 -0.4532
  795MOL0     O 7221   2.824   7.452   1.992 -0.8654 -0.0664 -1.3770
  795MOL0     C 7222   2.960   7.419   1.980 -0.0270 -0.0727 -0.0366
  795MOL0     C 7223   3.007   7.290   2.019  0.1625  0.6797  0.5402
  795MOL0     C 7224   3.144   7.251   2.041  0.3506 -0.0469 -0.1211
  795MOL0     C 7225   3.244   7.332   1.992  0.0782  0.2334 -0.0097
  795MOL0     O 7226   3.380   7.300   2.005  0.2468  0.0592 -0.5497
  795MOL0     C 7227   3.420   7.187   2.091 -1.3085 -0.6925  0.6441
  795MOL0     C 7228   3.452   7.246   2.222 -0.3715  0.0116 -0.1491
  795MOL0     C 7229   3.571   7.348   2.217  0.0099 -0.6717 -0.0682
  795MOL0     C 7230   3.606   7.378   2.361 -0.5305  0.4806  0.0572
  795MOL0     C 7231   3.723   7.467   2.360 -1.0504 -0.2909  0.0792
  795MOL0     C 7232   3.761   7.508   2.502 -0.6046 -0.1257 -0.5874
  795MOL0     C 7233   3.898   7.580   2.510  0.4679 -0.1844  0.5773
  795MOL0     C 7234   3.943   7.622   2.648  0.0046  0.2568 -0.1275
  795MOL0    Cl 7235   3.864   7.775   2.697  0.2324  0.1193 -0.0206
  795MOL0     C 7236   3.200   7.455   1.917 -0.0272  0.2097 -0.1896
  795MOL0     C 7237   3.064   7.493   1.920  0.3266 -0.0935  0.8599
  795MOL0     O 7238   2.802   7.560   1.797 -0.9715 -0.2282 -0.1596
  795MOL0     C 7239   2.545   7.619   1.867  0.0586  0.4216 -0.0348
  795MOL0     C 7240   2.407   7.641   1.866 -0.2540  0.4105 -0.1505
  795MOL0     N 7241   1.747   8.075   2.069  0.4847  0.4684  0.5251
  795MOL0     N 7242   1.697   8.169   2.131 -1.2303 -0.2998 -0.1723
  795MOL0     C 7243   1.527   9.068   1.880  0.0284 -0.6286 -0.7940
  795MOL0     C 7244   1.454   9.030   1.767 -0.5952  0.6137  1.1904
  795MOL0     C 7245   1.146   8.866   1.467  0.0005 -0.4290  0.7141
  795MOL0     C 7246   1.022   8.874   1.520  1.0713 -0.3996  0.2292
  795MOL0     C 7247   0.903   8.848   1.447 -0.5906  0.7143 -0.0969
  795MOL0     C 7248   0.914   8.801   1.316  1.4284 -0.3628  0.2834
  795MOL0     O 7249   0.792   8.787   1.252  0.2110  0.3833 -0.1801
  795MOL0     C 7250   0.789   8.735   1.120 -0.3761 -0.2851 -0.4255
  795MOL0     C 7251   0.789   8.840   1.008  0.0868  0.2084 -0.6424
  795MOL0     C 7252   0.754   8.767   0.875  0.0887  0.3634 -0.6796
  795MOL0     C 7253   0.841   8.648   0.830  0.1943  0.2371 -0.3444
  795MOL0     C 7254   0.827   8.625   0.690  0.3861  1.1556 -0.9516
  795MOL0     C 7255   0.802   8.601   0.578  0.4060  0.4299  0.4694
  795MOL0     C 7256   1.041   8.807   1.252  0.3377  1.2834 -0.3920
  795MOL0     C 7257   1.156   8.826   1.328 -0.2528  0.4731 -0.4537
  795MOL0     H 7258   1.201   8.853   1.923  0.7344 -2.1311 -2.3927
  795MOL0     H 7259   1.331   8.932   2.122 -0.7640  0.0541 -0.6654
  795MOL0     H 7260   1.735   9.137   2.036 -0.5212  0.8586 -0.8267
  795MOL0     H 7261   1.738   9.093   2.202  0.9693 -1.4867 -1.1733
  795MOL0     H 7262   1.724   8.875   1.997  0.2203 -2.5895  2.1767
  795MOL0     H 7263   1.878   8.959   2.027  0.0890 -0.0786 -0.6990
  795MOL0     H 7264   1.912   8.827   2.207 -0.1579  2.5807 -0.2972
  795MOL0     H 7265   1.758   8.879   2.276  0.3025 -2.4034  2.1488
  795MOL0     H 7266   1.672   8.697   2.077 -0.8176  4.0201  0.3511
  795MOL0     H 7267   1.835   8.634   2.117  1.0266  0.9596  0.7301
  795MOL0     H 7268   1.770   8.634   2.346 -1.8041  3.0609  1.9804
  795MOL0     H 7269   1.608   8.670   2.292  0.4377 -1.3609  4.3284
  795MOL0     H 7270   1.571   8.452   2.203  0.6288  1.4833 -1.6216
  795MOL0     H 7271   1.736   8.424   2.157 -3.1031 -1.5609 -1.5377
  795MOL0     H 7272   1.807   8.361   2.371 -0.0707 -1.9658  1.9787
  795MOL0     H 7273   1.668   8.436   2.459 -0.9319 -0.4184 -0.1980
  795MOL0     H 7274   1.519   8.272   2.344 -0.0889 -0.8960  1.4613
  795MOL0     H 7275   1.626   8.206   2.460  1.4404  0.5476 -0.0735
  795MOL0     H 7276   1.733   7.962   2.367  0.1231  1.3455  1.5875
  795MOL0     H 7277   1.850   7.784   2.229  3.9555 -0.9990 -1.6117
  795MOL0     H 7278   1.749   7.787   2.085 -1.1858 -0.9880  2.4293
  795MOL0     H 7279   2.041   7.875   2.103 -2.8062 -1.2488  3.8890
  795MOL0     H 7280   1.952   7.885   1.954  0.7783 -0.5989 -0.8560
  795MOL0     H 7281   1.928   7.662   1.918 -1.2815  0.8313  0.4592
  795MOL0     H 7282   1.978   7.614   2.083 -0.2959 -1.1211 -1.0821
  795MOL0     H 7283   2.193   7.724   2.050  0.8344 -0.8351 -0.5099
  795MOL0     H 7284   2.158   7.758   1.882 -1.6109 -3.3093 -2.6483
  795MOL0     H 7285   2.319   7.375   2.034  2.7276 -0.8351  2.3324
  795MOL0     H 7286   2.626   7.343   2.141  0.1153  1.7333 -1.1062
  795MOL0     H 7287   2.513   7.221   2.088  0.2278  1.0499  1.4049
  795MOL0     H 7288   2.663   7.244   1.990 -1.5445 -0.8677 -1.1021
  795MOL0     H 7289   2.931   7.230   2.067 -0.5720  1.5785  0.5388
  795MOL0     H 7290   3.159   7.151   2.078  2.0933 -1.0785 -3.2573
  795MOL0     H 7291   3.348   7.106   2.103 -1.9010 -0.0855  1.3144
  795MOL0     H 7292   3.513   7.144   2.052 -1.1082  0.0739  0.2520
  795MOL0     H 7293   3.360   7.292   2.259  0.4229  2.2058 -0.7426
  795MOL0     H 7294   3.473   7.163   2.291  1.0325 -1.5522 -2.3379
  795MOL0     H 7295   3.547   7.445   2.172  1.7820  0.8582  2.0689
  795MOL0     H 7296   3.661   7.311   2.168  0.0189 -0.7769  0.0294
  795MOL0     H 7297   3.523   7.431   2.409  1.3896  0.4008  3.8613
  795MOL0     H 7298   3.633   7.288   2.418 -1.4893 -1.0617 -1.7919
  795MOL0     H 7299   3.712   7.560   2.304  2.9807 -0.6232 -1.6164
  795MOL0     H 7300   3.812   7.414   2.325  1.3009  4.6439 -2.3881
  795MOL0     H 7301   3.680   7.573   2.538  0.2298  0.1204  0.9718
  795MOL0     H 7302   3.757   7.416   2.561  0.3129 -0.1538 -0.5513
  795MOL0     H 7303   3.893   7.672   2.451 -1.7081 -1.2380 -1.0082
  795MOL0     H 7304   3.970   7.509   2.470 -0.2394  0.1030 -1.2706
  795MOL0     H 7305   4.049   7.646   2.658 -0.3212  1.4987  0.5820
  795MOL0     H 7306   3.905   7.545   2.715 -2.8589  0.3664 -1.4844
  795MOL0     H 7307   3.286   7.511   1.884  1.2156 -2.5587 -2.0710
  795MOL0     H 7308   3.042   7.594   1.885 -2.0329 -0.3438  1.4458
  795MOL0     H 7309   2.608   7.685   1.809  1.8398 -3.0267 -2.3298
  795MOL0     H 7310   2.377   7.733   1.815  0.5703 -0.4964 -2.4026
  795MOL0     H 7311   1.619   9.124   1.869  0.1719 -0.2672  1.6692
  795MOL0     H 7312   1.480   9.076   1.672  0.7889 -4.2709 -1.1232
  795MOL0     H 7313   1.002   8.894   1.624  1.2005 -1.2381  0.4186
  795MOL0     H 7314   0.809   8.853   1.502  0.8986  2.3254  2.5375
  795MOL0     H 7315   0.869   8.661   1.116 -1.7441 -1.8832  0.3591
  795MOL0     H 7316   0.697   8.676   1.119  0.3244 -1.5239 -3.4792
  795MOL0     H 7317   0.890   8.882   1.003  0.5947 -0.8163  0.5035
  795MOL0     H 7318   0.730   8.929   1.030  1.0336  0.1210  2.8393
  795MOL0     H 7319   0.761   8.838   0.792 -1.2616 -0.4011 -1.4873
  795MOL0     H 7320   0.650   8.734   0.872 -0.3303  1.5148  0.5052
  795MOL0     H 7321   0.807   8.560   0.884 -2.5433  0.5346 -1.3813
  795MOL0     H 7322   0.947   8.661   0.853 -0.0881 -0.8325  1.7874
  795MOL0     H 7323   0.770   8.591   0.476 -2.2104  3.9615  0.7689
  795MOL0     H 7324   1.054   8.768   1.152 -3.0016  3.2677 -1.7753
  795MOL0     H 7325   1.249   8.831   1.272 -1.8963 -1.2655 -3.6341
  796MOL0     O 7326   0.931  10.727   8.131 -0.1784  0.2485  0.3615
  796MOL0     C 7327   0.877  10.634   8.199 -0.1208 -0.5529  0.3966
  796MOL0     O 7328   0.759  10.571   8.169  0.8158  0.4317  0.5507
  796MOL0     C 7329   0.664  10.634   8.086 -0.5968 -0.3632 -0.0154
  796MOL0     C 7330   0.538  10.672   8.120  0.0763  0.5157  0.4659
  796MOL0     C 7331   0.457  10.747   8.024 -0.3193  0.3455  0.3840
  796MOL0     C 7332   0.510  10.785   7.901 -0.4208 -0.3254  0.7033
  796MOL0     O 7333   0.436  10.854   7.800 -0.6519 -0.7695 -0.7106
  796MOL0     C 7334   0.296  10.887   7.825  0.6874 -1.0756 -0.0395
  796MOL0     C 7335   0.233  10.940   7.694  0.3855  0.5186 -0.9157
  796MOL0     C 7336   0.095  11.003   7.712  0.4996 -0.0187 -0.2834
  796MOL0     C 7337   0.076  11.154   7.728 -0.5493 -0.6180  0.3548
  796MOL0     C 7338   0.123  11.218   7.861 -0.7068 -0.0091  0.8766
  796MOL0     C 7339   0.055  11.354   7.866 -0.0402 -0.6066  0.5337
  796MOL0     C 7340   0.047  11.398   8.012  0.6307 -0.1284 -0.4695
  796MOL0     C 7341  -0.060  11.500   8.039 -0.2745  0.1464  0.4887
  796MOL0     N 7342  -0.025  11.621   7.972  0.1454  0.0297  0.2695
  796MOL0     C 7343  -0.040  11.660   7.840  0.5226 -0.1469  0.6409
  796MOL0     C 7344  -0.004  11.790   7.824 -0.6216 -0.4700 -0.2606
  796MOL0     C 7345  -0.004  11.864   7.707  0.9379 -0.9977  0.9926
  796MOL0     C 7346   0.079  12.002   7.703  1.0564  0.2266  0.4655
  796MOL0     C 7347  -0.011  12.122   7.676  0.7844  0.9331  0.7077
  796MOL0     C 7348  -0.067  12.128   7.529  0.9340  0.5163  0.0974
  796MOL0     O 7349   0.007  12.034   7.444  0.2556  0.5219 -1.4115
  796MOL0     C 7350   0.074  12.069   7.332  0.5706 -0.1955 -0.5367
  796MOL0     C 7351   0.180  11.997   7.292  0.0034 -0.8441  0.1826
  796MOL0     C 7352   0.234  12.017   7.164 -0.5826 -1.3059 -0.2059
  796MOL0     C 7353   0.337  11.914   7.131 -0.0047  0.5314  0.5575
  796MOL0     C 7354   0.191  12.123   7.079  0.6627  0.8574  0.5505
  796MOL0     C 7355   0.255  12.163   6.949 -0.3410  0.1710 -0.1473
  796MOL0     O 7356   0.220  12.283   6.885  0.3138 -0.5794  0.3958
  796MOL0     C 7357   0.268  12.307   6.754  0.4626  0.0455 -0.1217
  796MOL0     C 7358   0.404  12.331   6.737 -0.2279 -0.4612  0.3793
  796MOL0     C 7359   0.460  12.361   6.602 -0.0443 -0.2075 -0.6684
  796MOL0     C 7360   0.374  12.366   6.498  0.3306  1.1664 -0.3343
  796MOL0     O 7361   0.429  12.418   6.388  0.1174  0.3495 -0.1556
  796MOL0     C 7362   0.385  12.364   6.258  0.0873  0.5153 -1.0635
  796MOL0     C 7363   0.479  12.409   6.143 -1.4726  0.4325  0.5409
  796MOL0     C 7364   0.625  12.355   6.153 -0.6270 -0.1800  0.2690
  796MOL0     C 7365   0.651  12.205   6.138 -0.1619 -0.2903  0.2776
  796MOL0     C 7366   0.611  12.151   5.998 -0.0428  0.3139 -0.0968
  796MOL0     C 7367   0.627  12.008   5.976  0.6896 -0.4944  0.3399
  796MOL0     C 7368   0.773  11.960   5.977  0.3641  0.2896 -0.4173
  796MOL0     C 7369   0.784  11.819   5.911 -0.7995  0.3710  0.2617
  796MOL0    Cl 7370   0.958  11.769   5.925  0.1713  0.1094 -0.7349
  796MOL0     C 7371   0.239  12.352   6.516 -0.5511  0.7221 -0.3641
  796MOL0     C 7372   0.179  12.315   6.649 -0.2538  0.0812  0.4425
  796MOL0     O 7373   0.330  12.083   6.904 -0.4095 -0.3854  0.1380
  796MOL0     C 7374   0.086  12.201   7.126  0.1741  0.7095 -0.9172
  796MOL0     C 7375   0.023  12.166   7.247 -0.7115  0.6228 -0.5190
  796MOL0     N 7376   0.037  11.826   7.954 -0.0929 -0.4418 -0.2374
  796MOL0     N 7377   0.025  11.722   8.042  0.4463 -0.0787 -0.8523
  796MOL0     C 7378   0.633  10.746   7.862 -1.4996  0.7645  0.5198
  796MOL0     C 7379   0.703  10.663   7.949  0.7597  0.6643 -0.7853
  796MOL0     C 7380   0.952  10.597   8.320 -0.6381 -0.9033 -0.9456
  796MOL0     C 7381   1.091  10.622   8.327 -0.1751 -0.2199 -0.7845
  796MOL0     C 7382   1.156  10.591   8.450  0.2368  0.4881  0.7600
  796MOL0     C 7383   1.092  10.536   8.563  0.0830 -0.8425 -0.4163
  796MOL0     O 7384   1.149  10.490   8.676  0.3083  0.3977 -0.2542
  796MOL0     C 7385   1.295  10.454   8.664 -0.2611 -1.1445  0.0775
  796MOL0     C 7386   1.350  10.445   8.803 -1.0002  0.5264 -0.3976
  796MOL0     C 7387   1.504  10.417   8.814  0.6235  0.2980  0.3377
  796MOL0     C 7388   1.559  10.428   8.957 -0.7781 -0.7327  0.0418
  796MOL0     C 7389   1.505  10.336   9.052  0.9141  0.7810 -0.2125
  796MOL0     C 7390   1.463  10.255   9.132  0.3339 -0.0005 -0.3201
  796MOL0     C 7391   0.948  10.519   8.552  0.2601  0.4440 -0.1404
  796MOL0     C 7392   0.882  10.549   8.437  0.6511  0.7720 -0.2079
  796MOL0     H 7393   0.503  10.654   8.222 -0.9286  1.2958  0.2666
  796MOL0     H 7394   0.361  10.788   8.051  0.3549  2.1810  0.1590
  796MOL0     H 7395   0.239  10.795   7.843 -0.0524 -1.4261 -3.4244
  796MOL0     H 7396   0.295  10.958   7.907  1.9183 -2.8865  1.6241
  796MOL0     H 7397   0.295  11.001   7.627  0.8018 -0.2592 -1.2520
  796MOL0     H 7398   0.232  10.846   7.638 -0.0813 -1.5636  2.3636
  796MOL0     H 7399   0.030  10.977   7.628 -1.2767  0.4693  0.8796
  796MOL0     H 7400   0.053  10.961   7.804  1.4924 -0.3493  0.0372
  796MOL0     H 7401   0.113  11.214   7.644  3.7782 -0.5419  2.0858
  796MOL0     H 7402  -0.031  11.178   7.723 -0.6871 -1.4649 -1.9299
  796MOL0     H 7403   0.071  11.156   7.934 -1.7401  0.4738  0.5708
  796MOL0     H 7404   0.231  11.209   7.872 -0.6661 -1.6494 -0.3891
  796MOL0     H 7405   0.091  11.435   7.801  0.7091 -2.3817 -1.3639
  796MOL0     H 7406  -0.051  11.352   7.838 -0.8079  0.9231  3.0329
  796MOL0     H 7407   0.022  11.310   8.072  1.6294 -0.1838 -0.1162
  796MOL0     H 7408   0.149  11.432   8.033  0.1385  1.0812  0.0103
  796MOL0     H 7409  -0.076  11.522   8.145 -2.0392  0.5358  0.1640
  796MOL0     H 7410  -0.154  11.464   7.997 -0.9391  1.8906  0.4284
  796MOL0     H 7411  -0.089  11.614   7.755 -0.0605  0.5702  0.5735
  796MOL0     H 7412   0.050  11.803   7.633  4.6085 -1.2319  3.5877
  796MOL0     H 7413  -0.109  11.871   7.679  1.3544  1.8253 -0.1689
  796MOL0     H 7414   0.157  11.994   7.626  0.9721  2.2393  0.1169
  796MOL0     H 7415   0.119  12.015   7.804  1.1962  0.0722  0.4313
  796MOL0     H 7416   0.055  12.206   7.698  2.0895 -0.3152  1.7731
  796MOL0     H 7417  -0.092  12.127   7.749 -2.9075 -0.5008 -2.8776
  796MOL0     H 7418  -0.081  12.228   7.487 -1.9175 -1.5915 -4.9137
  796MOL0     H 7419  -0.173  12.105   7.540  0.1593  3.6726  0.1448
  796MOL0     H 7420   0.212  11.904   7.338  3.1144 -2.6870 -4.8012
  796MOL0     H 7421   0.442  11.946   7.130 -0.2243  1.2530 -0.4101
  796MOL0     H 7422   0.333  11.823   7.192 -2.0497  0.4752  0.3925
  796MOL0     H 7423   0.311  11.875   7.032 -2.3128  0.3781  1.1738
  796MOL0     H 7424   0.478  12.320   6.816 -1.1484 -0.3502  1.2745
  796MOL0     H 7425   0.565  12.378   6.583  1.0095 -2.5167  2.3671
  796MOL0     H 7426   0.390  12.255   6.260  1.9881  0.5346 -2.4333
  796MOL0     H 7427   0.284  12.399   6.236  0.8731  3.8122  0.0663
  796MOL0     H 7428   0.438  12.377   6.047 -0.4820  3.0138 -0.8000
  796MOL0     H 7429   0.478  12.516   6.163 -0.1511  0.4402  0.6157
  796MOL0     H 7430   0.684  12.383   6.241  0.1600 -1.2334  0.0958
  796MOL0     H 7431   0.682  12.408   6.075 -0.8349 -2.5379 -1.5942
  796MOL0     H 7432   0.758  12.185   6.146 -0.4878 -1.9328  0.9215
  796MOL0     H 7433   0.602  12.151   6.219  0.3289 -0.6363  0.3488
  796MOL0     H 7434   0.665  12.207   5.920  2.4652 -0.2699  1.1247
  796MOL0     H 7435   0.504  12.175   5.997 -0.5119 -1.2792  2.7215
  796MOL0     H 7436   0.562  11.955   6.046 -0.0754 -0.0555 -0.0278
  796MOL0     H 7437   0.600  11.999   5.870 -1.9530 -1.2129  1.0069
  796MOL0     H 7438   0.806  11.951   6.081 -1.3937 -3.2087  0.0195
  796MOL0     H 7439   0.845  12.021   5.923 -1.2203  1.3017 -1.4901
  796MOL0     H 7440   0.766  11.836   5.805 -0.5945  0.8330  0.2977
  796MOL0     H 7441   0.701  11.756   5.944 -0.2360 -0.3623  0.3078
  796MOL0     H 7442   0.177  12.360   6.427  3.6963 -0.6004 -3.7680
  796MOL0     H 7443   0.071  12.314   6.658 -0.7724  1.2830 -3.5102
  796MOL0     H 7444   0.054  12.284   7.065 -0.5901  2.1989  1.3719
  796MOL0     H 7445  -0.069  12.219   7.271 -0.1055  0.4015  2.6707
  796MOL0     H 7446   0.670  10.791   7.771 -1.5310 -0.8202 -0.3045
  796MOL0     H 7447   0.808  10.637   7.940  1.3175  1.9975  1.1944
  796MOL0     H 7448   1.145  10.662   8.242 -0.6963 -1.1055 -1.5507
  796MOL0     H 7449   1.262  10.611   8.433  0.2722 -0.4381 -0.2387
  796MOL0     H 7450   1.313  10.365   8.604 -1.9259  0.0546 -2.3518
  796MOL0     H 7451   1.346  10.534   8.610 -1.7209 -0.1698  0.0946
  796MOL0     H 7452   1.296  10.365   8.854  0.8582  0.4663  1.5986
  796MOL0     H 7453   1.339  10.542   8.854  0.1112  1.2962 -1.5904
  796MOL0     H 7454   1.548  10.494   8.751  0.2307 -0.2878 -0.6869
  796MOL0     H 7455   1.535  10.324   8.765  0.7393  1.7751 -2.6441
  796MOL0     H 7456   1.535  10.528   8.993 -0.9501 -1.0069  0.7204
  796MOL0     H 7457   1.669  10.433   8.959 -0.8125 -0.0529  1.0545
  796MOL0     H 7458   1.440  10.184   9.209 -1.8121  1.6926  0.7608
  796MOL0     H 7459   0.906  10.493   8.649  1.4207 -4.3467 -0.6681
  796MOL0     H 7460   0.775  10.539   8.425  0.6367 -0.5762  0.7766
  797MOL0     O 7461  11.122   2.447   6.877  0.2840  0.7012 -0.0507
  797MOL0     C 7462  11.123   2.419   7.002 -0.6803 -0.2526  0.2181
  797MOL0     O 7463  11.031   2.447   7.094 -0.0436 -0.4187  0.4760
  797MOL0     C 7464  10.905   2.485   7.052 -0.3058  0.2270  0.0443
  797MOL0     C 7465  10.810   2.396   7.000  0.4962 -0.8720 -0.1023
  797MOL0     C 7466  10.678   2.438   6.966 -0.3785  0.9480  0.7923
  797MOL0     C 7467  10.653   2.577   6.975  0.7762  0.1354  0.1453
  797MOL0     O 7468  10.534   2.617   6.938  0.3520 -0.4959 -0.1592
  797MOL0     C 7469  10.444   2.599   7.042  1.1492 -0.3986  0.2174
  797MOL0     C 7470  10.304   2.578   6.981  0.4237  0.3365 -0.0378
  797MOL0     C 7471  10.303   2.467   6.874 -0.0305  0.4013  0.2469
  797MOL0     C 7472  10.167   2.455   6.805  0.2642  0.3774  0.0359
  797MOL0     C 7473  10.067   2.365   6.887 -0.4239  0.0505  0.2454
  797MOL0     C 7474   9.932   2.388   6.830  0.5918 -0.0120 -0.0201
  797MOL0     C 7475   9.926   2.338   6.683 -0.1949  0.2723 -0.4067
  797MOL0     C 7476   9.796   2.381   6.612 -0.1302 -0.1588 -0.5568
  797MOL0     N 7477   9.751   2.268   6.536 -0.2925  0.3123 -0.1189
  797MOL0     C 7478   9.753   2.261   6.398 -0.6387  0.8050  0.1316
  797MOL0     C 7479   9.654   2.170   6.378  0.7819  0.2735 -0.4378
  797MOL0     C 7480   9.583   2.155   6.248 -0.1569 -0.6562 -0.3855
  797MOL0     C 7481   9.572   2.275   6.162  0.3763  0.5969 -0.1460
  797MOL0     C 7482   9.473   2.266   6.044 -0.6241 -0.0978  0.4732
  797MOL0     C 7483   9.459   2.402   5.978 -0.5503 -0.8247 -0.2852
  797MOL0     O 7484   9.576   2.433   5.900 -0.1653  0.1422 -0.6223
  797MOL0     C 7485   9.538   2.444   5.770 -0.9561 -0.3379 -0.3513
  797MOL0     C 7486   9.479   2.565   5.731  0.3020 -0.2356 -0.2946
  797MOL0     C 7487   9.444   2.575   5.593 -0.2176  0.1367  0.3033
  797MOL0     C 7488   9.356   2.697   5.560  0.4271 -0.3718 -0.2974
  797MOL0     C 7489   9.487   2.483   5.494  0.2493  0.4894 -0.1270
  797MOL0     C 7490   9.473   2.505   5.350 -0.1109  0.6223  0.6731
  797MOL0     O 7491   9.493   2.391   5.267 -0.3161 -0.1374  0.4864
  797MOL0     C 7492   9.489   2.420   5.131  1.0245 -0.8086 -0.2431
  797MOL0     C 7493   9.567   2.512   5.058 -0.6510  0.2991  0.2633
  797MOL0     C 7494   9.566   2.512   4.911 -1.4305  0.1857 -0.8372
  797MOL0     C 7495   9.484   2.423   4.839  0.0816 -0.6606 -0.4170
  797MOL0     O 7496   9.489   2.434   4.700  0.4770  0.0946 -0.8328
  797MOL0     C 7497   9.438   2.335   4.613 -0.5632 -0.1135  0.0869
  797MOL0     C 7498   9.321   2.399   4.546 -0.6876  0.1466  0.3812
  797MOL0     C 7499   9.235   2.306   4.460 -1.3134 -0.2953 -0.3497
  797MOL0     C 7500   9.313   2.244   4.340 -0.8396  0.4230 -0.3846
  797MOL0     C 7501   9.208   2.179   4.244 -1.4207  0.6953  0.7510
  797MOL0     C 7502   9.262   2.055   4.184  0.3466  0.0541 -0.5810
  797MOL0     C 7503   9.179   1.999   4.065  0.1328 -0.2528  0.9077
  797MOL0     C 7504   9.224   1.861   4.010 -0.1104 -0.2305  0.2045
  797MOL0    Cl 7505   9.116   1.831   3.878 -0.3345  0.2078  0.5480
  797MOL0     C 7506   9.397   2.351   4.913  0.7962  0.6205  0.1402
  797MOL0     C 7507   9.400   2.345   5.053 -0.7474 -0.3476  0.4170
  797MOL0     O 7508   9.472   2.623   5.313  0.0174  0.3274  0.1319
  797MOL0     C 7509   9.553   2.364   5.549 -0.1372 -0.4973  0.5212
  797MOL0     C 7510   9.570   2.343   5.677  0.1988 -0.6662 -0.2559
  797MOL0     N 7511   9.591   2.114   6.495  0.0410 -0.4438  0.7082
  797MOL0     N 7512   9.658   2.171   6.589  0.2403 -0.4778 -0.5881
  797MOL0     C 7513  10.746   2.668   7.024  0.0391  0.3771  0.3437
  797MOL0     C 7514  10.870   2.618   7.064  0.0411  0.6643 -0.6313
  797MOL0     C 7515  11.233   2.331   7.048 -0.8536 -0.7569 -0.4338
  797MOL0     C 7516  11.328   2.271   6.957 -0.0366 -0.1051 -0.1629
  797MOL0     C 7517  11.431   2.188   7.006  0.2713 -0.3169  0.1698
  797MOL0     C 7518  11.441   2.155   7.136 -0.1886 -0.5467  0.2483
  797MOL0     O 7519  11.530   2.053   7.165 -0.7001  0.1572  0.0048
  797MOL0     C 7520  11.552   2.026   7.304  0.3681  0.3421  0.3879
  797MOL0     C 7521  11.630   2.128   7.388 -0.3764  0.1250 -0.2103
  797MOL0     C 7522  11.751   2.175   7.309 -0.1751 -0.1659  0.0190
  797MOL0     C 7523  11.854   2.215   7.407 -0.5372  0.5962 -0.6491
  797MOL0     C 7524  11.819   2.326   7.501 -0.0092  0.2840 -0.4443
  797MOL0     C 7525  11.802   2.411   7.590 -1.4583  0.3471  0.2288
  797MOL0     C 7526  11.356   2.219   7.230 -0.6068 -0.1915 -0.0252
  797MOL0     C 7527  11.245   2.299   7.189  0.3647  0.0455 -0.5675
  797MOL0     H 7528  10.838   2.291   7.010  1.1485 -1.1585 -3.5574
  797MOL0     H 7529  10.594   2.383   6.926  2.3969 -0.7265 -3.4762
  797MOL0     H 7530  10.461   2.507   7.099 -1.1699  0.7771  3.1077
  797MOL0     H 7531  10.436   2.686   7.109 -1.5320  0.1954 -0.7260
  797MOL0     H 7532  10.237   2.551   7.063  3.0455  1.4251  2.6652
  797MOL0     H 7533  10.282   2.676   6.938  3.4001  0.7000 -1.0043
  797MOL0     H 7534  10.379   2.496   6.801  1.3935  0.3864  1.6652
  797MOL0     H 7535  10.339   2.370   6.908  0.5115  1.1102  1.8322
  797MOL0     H 7536  10.133   2.558   6.798 -2.9962 -0.3398  2.8727
  797MOL0     H 7537  10.184   2.407   6.708 -0.2205 -0.8933  0.5505
  797MOL0     H 7538  10.107   2.262   6.887 -0.4540  0.0352 -0.2769
  797MOL0     H 7539  10.057   2.384   6.994 -1.7868 -4.3262  1.1184
  797MOL0     H 7540   9.862   2.334   6.894  2.3489 -1.3018  0.8958
  797MOL0     H 7541   9.918   2.497   6.828  1.2258  0.1095  1.2222
  797MOL0     H 7542  10.006   2.374   6.618 -1.0797  4.2692  0.4662
  797MOL0     H 7543   9.931   2.229   6.677 -0.8330  0.2418 -0.4931
  797MOL0     H 7544   9.805   2.467   6.545  1.0386  0.0399 -0.1704
  797MOL0     H 7545   9.723   2.411   6.688  1.8542  1.8194  0.6927
  797MOL0     H 7546   9.805   2.315   6.319 -0.4989  0.5765  0.0664
  797MOL0     H 7547   9.635   2.079   6.189  0.9393 -1.3516  1.3981
  797MOL0     H 7548   9.492   2.099   6.274 -0.4777  0.2614  0.5490
  797MOL0     H 7549   9.666   2.298   6.110  1.0159  1.4138  1.2990
  797MOL0     H 7550   9.540   2.361   6.222  2.0373  1.1359  0.0154
  797MOL0     H 7551   9.372   2.241   6.077 -0.7281  0.4828  0.6035
  797MOL0     H 7552   9.515   2.192   5.976  0.2765  1.4617 -0.7310
  797MOL0     H 7553   9.440   2.485   6.046 -2.0364 -0.1349 -1.4785
  797MOL0     H 7554   9.375   2.399   5.908 -1.2838  1.1092  0.4474
  797MOL0     H 7555   9.468   2.655   5.791 -0.6163  1.0467 -2.2783
  797MOL0     H 7556   9.326   2.736   5.657 -2.3904 -2.0457 -0.3615
  797MOL0     H 7557   9.403   2.775   5.500  1.8461 -0.6777  0.3680
  797MOL0     H 7558   9.267   2.656   5.511  0.0676  1.4494 -1.2568
  797MOL0     H 7559   9.629   2.591   5.101  0.4014  0.1010 -0.8458
  797MOL0     H 7560   9.631   2.580   4.857  0.4199 -0.9056 -0.0532
  797MOL0     H 7561   9.516   2.302   4.545 -1.0932  2.0051 -1.6716
  797MOL0     H 7562   9.396   2.252   4.671  2.9873 -2.7820 -0.8170
  797MOL0     H 7563   9.252   2.442   4.620  1.2926  2.2806  1.1014
  797MOL0     H 7564   9.358   2.482   4.486  1.3999 -2.5094 -2.3002
  797MOL0     H 7565   9.164   2.372   4.410  1.1379  1.5465 -1.6328
  797MOL0     H 7566   9.179   2.238   4.525  1.4218 -1.5093  0.9225
  797MOL0     H 7567   9.382   2.314   4.292 -0.4884 -0.9092 -1.9024
  797MOL0     H 7568   9.376   2.167   4.386 -0.3101  1.7044  1.1326
  797MOL0     H 7569   9.171   2.245   4.164 -2.4542 -0.6112  0.1089
  797MOL0     H 7570   9.114   2.155   4.295 -2.1396  1.0875 -0.3504
  797MOL0     H 7571   9.357   2.079   4.134  0.9084 -2.0824 -0.6556
  797MOL0     H 7572   9.282   1.977   4.258  2.0803  0.9154 -0.0805
  797MOL0     H 7573   9.162   2.070   3.984 -3.3521  0.1738  1.8205
  797MOL0     H 7574   9.078   1.978   4.104 -1.1075 -1.8167 -2.7356
  797MOL0     H 7575   9.219   1.776   4.079 -0.1630 -1.8812 -1.7374
  797MOL0     H 7576   9.326   1.863   3.970 -0.3652  0.9755 -0.4128
  797MOL0     H 7577   9.329   2.281   4.865  0.8432  0.0134  0.9322
  797MOL0     H 7578   9.334   2.268   5.094 -5.0781  2.0248 -1.3743
  797MOL0     H 7579   9.605   2.299   5.479  2.9496  2.6546 -0.3864
  797MOL0     H 7580   9.617   2.259   5.727 -2.3311 -1.2704  1.3256
  797MOL0     H 7581  10.709   2.768   7.042 -1.5550 -0.5947  3.0992
  797MOL0     H 7582  10.948   2.683   7.103  0.3665  0.8120 -1.5052
  797MOL0     H 7583  11.322   2.291   6.851 -1.4463  0.0275 -0.0801
  797MOL0     H 7584  11.506   2.146   6.940  1.6452  1.6282  0.3951
  797MOL0     H 7585  11.458   2.016   7.358 -0.7631  2.6696 -0.9832
  797MOL0     H 7586  11.602   1.929   7.306 -3.6989 -1.9680  0.2406
  797MOL0     H 7587  11.658   2.064   7.472  0.9298 -3.4524 -3.0804
  797MOL0     H 7588  11.567   2.212   7.419 -4.2840 -3.0637  1.4724
  797MOL0     H 7589  11.728   2.256   7.240 -0.0772  0.6877  0.9719
  797MOL0     H 7590  11.801   2.095   7.253 -0.2268  0.5097 -1.0180
  797MOL0     H 7591  11.946   2.242   7.353 -0.1306  1.4989  0.4412
  797MOL0     H 7592  11.877   2.124   7.463 -2.8615  1.8158  2.5977
  797MOL0     H 7593  11.821   2.480   7.670 -0.1454 -0.7550  0.9197
  797MOL0     H 7594  11.378   2.206   7.336 -1.3809 -1.0372  0.0499
  797MOL0     H 7595  11.186   2.353   7.263  3.4924  2.2324  0.5428
  798MOL0     O 7596   0.644  10.723  11.340  0.3773 -0.3589 -0.7999
  798MOL0     C 7597   0.587  10.824  11.292  0.0670 -0.2245 -0.5011
  798MOL0     O 7598   0.464  10.823  11.256  0.6693  0.1816 -0.2239
  798MOL0     C 7599   0.387  10.710  11.254 -0.1541 -0.5146  0.9429
  798MOL0     C 7600   0.266  10.708  11.327  0.0022  0.7102 -0.3199
  798MOL0     C 7601   0.184  10.599  11.327  0.6928 -0.3820 -0.0536
  798MOL0     C 7602   0.206  10.485  11.247  0.5936 -1.0999 -0.0592
  798MOL0     O 7603   0.114  10.382  11.251 -0.2422 -0.1708 -0.5507
  798MOL0     C 7604  -0.014  10.418  11.291  0.3547 -0.2880 -0.5390
  798MOL0     C 7605  -0.109  10.308  11.253  0.2796  0.2063  0.5443
  798MOL0     C 7606  -0.137  10.307  11.103  0.6008  0.0175  0.2097
  798MOL0     C 7607  -0.243  10.212  11.067  0.5770  0.4799  0.5479
  798MOL0     C 7608  -0.266  10.190  10.920  0.0571  0.1295 -0.5870
  798MOL0     C 7609  -0.372  10.102  10.867 -0.0060  0.5930 -0.6161
  798MOL0     C 7610  -0.505  10.169  10.883  0.4286 -0.2709  0.8389
  798MOL0     C 7611  -0.616  10.090  10.825  0.0413 -0.2685  0.7975
  798MOL0     N 7612  -0.660   9.979  10.907  0.3142  0.0744  1.3970
  798MOL0     C 7613  -0.734   9.971  11.021 -0.5154 -1.3512 -0.0377
  798MOL0     C 7614  -0.736   9.838  11.045 -1.1949 -0.4278 -0.2505
  798MOL0     C 7615  -0.794   9.779  11.171  1.3475  0.6326  1.1202
  798MOL0     C 7616  -0.920   9.850  11.213 -0.5665 -0.3497 -0.6374
  798MOL0     C 7617  -0.969   9.810  11.349 -0.0297  0.0039 -0.1910
  798MOL0     C 7618  -0.990   9.658  11.379  0.1448  0.2447 -0.1899
  798MOL0     O 7619  -1.052   9.654  11.503  0.1120 -0.3889 -0.5727
  798MOL0     C 7620  -1.126   9.542  11.507  0.9793 -0.2278  0.3763
  798MOL0     C 7621  -1.263   9.556  11.544  0.3227 -0.6904 -0.7522
  798MOL0     C 7622  -1.352   9.448  11.565  0.1791 -0.3709  0.7658
  798MOL0     C 7623  -1.493   9.475  11.618  0.7406 -0.2452  0.1369
  798MOL0     C 7624  -1.302   9.313  11.542  0.3664  0.7541  0.0757
  798MOL0     C 7625  -1.386   9.190  11.555  0.3527  0.9599 -0.3570
  798MOL0     O 7626  -1.312   9.066  11.562 -0.0254  0.3337  0.7475
  798MOL0     C 7627  -1.371   8.947  11.574  0.0849 -0.1202  0.5312
  798MOL0     C 7628  -1.387   8.864  11.463  0.4689 -0.5031 -0.4442
  798MOL0     C 7629  -1.467   8.752  11.492  0.5314  0.6340  1.0148
  798MOL0     C 7630  -1.503   8.709  11.616 -0.1077 -1.0956 -0.3559
  798MOL0     O 7631  -1.552   8.581  11.620  0.2737  0.6304  0.5841
  798MOL0     C 7632  -1.452   8.472  11.617  0.1600  0.1590 -0.3141
  798MOL0     C 7633  -1.400   8.408  11.489  0.2224 -0.3841  0.1023
  798MOL0     C 7634  -1.506   8.345  11.406 -1.2376  0.1232  0.1853
  798MOL0     C 7635  -1.445   8.270  11.280 -0.9819 -0.0694  0.5435
  798MOL0     C 7636  -1.548   8.255  11.169 -0.3161 -0.4452 -0.0877
  798MOL0     C 7637  -1.479   8.196  11.047  0.4097  0.1250 -0.2942
  798MOL0     C 7638  -1.583   8.183  10.936 -0.5320  0.1933 -0.4772
  798MOL0     C 7639  -1.511   8.135  10.818  0.8844  0.6089 -0.0468
  798MOL0    Cl 7640  -1.420   8.262  10.728  0.3767 -0.0967  0.4489
  798MOL0     C 7641  -1.482   8.800  11.725  1.4942 -0.3682  0.6916
  798MOL0     C 7642  -1.417   8.919  11.703 -0.2610  0.4857  0.6055
  798MOL0     O 7643  -1.513   9.191  11.553 -0.8220 -0.4110  0.3339
  798MOL0     C 7644  -1.165   9.303  11.508  0.2497  0.1444  0.4780
  798MOL0     C 7645  -1.082   9.413  11.489  1.3447 -0.0467 -0.1356
  798MOL0     N 7646  -0.666   9.767  10.948  0.0152 -0.1386  0.7013
  798MOL0     N 7647  -0.626   9.859  10.863  0.1341  0.9039 -0.4275
  798MOL0     C 7648   0.330  10.484  11.179 -0.5945 -0.4030  0.5430
  798MOL0     C 7649   0.417  10.594  11.179  0.0099  0.3452 -0.4676
  798MOL0     C 7650   0.652  10.957  11.292  0.7532 -0.0328  0.6019
  798MOL0     C 7651   0.601  11.054  11.205 -0.6224  0.0863  0.2055
  798MOL0     C 7652   0.664  11.179  11.200  0.4112 -0.3651  1.2098
  798MOL0     C 7653   0.762  11.222  11.289 -0.3541  0.0954 -0.6552
  798MOL0     O 7654   0.838  11.342  11.284  0.3426  0.4250  0.0300
  798MOL0     C 7655   0.804  11.434  11.187 -0.3967 -1.2174  0.2019
  798MOL0     C 7656   0.881  11.565  11.185  0.7982 -1.3486 -0.9564
  798MOL0     C 7657   1.029  11.546  11.220  0.0192  0.2076 -0.5719
  798MOL0     C 7658   1.060  11.533  11.380  1.1795  0.1830  0.1829
  798MOL0     C 7659   1.201  11.523  11.393 -1.4605 -0.0456 -0.0161
  798MOL0     C 7660   1.323  11.500  11.394 -1.1433  0.1144  0.4391
  798MOL0     C 7661   0.809  11.118  11.371 -1.2945 -0.5801 -0.3313
  798MOL0     C 7662   0.769  10.990  11.373  0.4338  0.1545 -0.1738
  798MOL0     H 7663   0.242  10.794  11.388  1.8048  0.8445  0.2694
  798MOL0     H 7664   0.098  10.602  11.394 -0.0294 -1.2931 -0.9014
  798MOL0     H 7665  -0.017  10.408  11.400  0.0021  0.8289 -0.4317
  798MOL0     H 7666  -0.057  10.513  11.258 -0.6219 -1.9031 -4.4367
  798MOL0     H 7667  -0.063  10.212  11.279  0.9000  0.9967  2.5367
  798MOL0     H 7668  -0.209  10.324  11.295 -0.5006  1.2785 -1.5609
  798MOL0     H 7669  -0.165  10.408  11.071 -3.1171 -0.1004  2.4939
  798MOL0     H 7670  -0.044  10.278  11.052 -1.2903 -0.8180 -3.0365
  798MOL0     H 7671  -0.207  10.118  11.111 -0.3657 -0.2973 -0.2640
  798MOL0     H 7672  -0.337  10.232  11.119  0.1601 -1.9252  0.8296
  798MOL0     H 7673  -0.272  10.290  10.876  0.9150  1.2072  1.5827
  798MOL0     H 7674  -0.172  10.144  10.887  0.4023 -0.3684  1.0068
  798MOL0     H 7675  -0.349  10.074  10.764  1.1005 -1.2916  0.1000
  798MOL0     H 7676  -0.368  10.009  10.924  3.2023  1.6773  1.2254
  798MOL0     H 7677  -0.526  10.197  10.987  0.9233 -0.3165  0.9571
  798MOL0     H 7678  -0.499  10.260  10.823 -1.6804  0.1066  1.1307
  798MOL0     H 7679  -0.585  10.047  10.729  0.4994  0.0813  0.7877
  798MOL0     H 7680  -0.700  10.157  10.807 -0.3441 -0.3171  2.2362
  798MOL0     H 7681  -0.751  10.060  11.080  2.8230  1.5669 -3.0295
  798MOL0     H 7682  -0.813   9.675  11.142 -5.5729  1.7139  0.2414
  798MOL0     H 7683  -0.720   9.786  11.252  0.4931  3.5832  1.7423
  798MOL0     H 7684  -0.986   9.838  11.127  1.1554 -0.0326 -2.0565
  798MOL0     H 7685  -0.894   9.957  11.218  2.0232 -0.9221 -0.2597
  798MOL0     H 7686  -1.063   9.863  11.369  0.7656  1.7204 -0.7754
  798MOL0     H 7687  -0.893   9.847  11.418 -2.3740  1.5673  1.7023
  798MOL0     H 7688  -0.893   9.607  11.377 -0.3392 -0.6859 -0.6041
  798MOL0     H 7689  -1.059   9.627  11.300  0.8026  0.1401 -0.7340
  798MOL0     H 7690  -1.307   9.651  11.572  1.3250 -0.8291  1.5427
  798MOL0     H 7691  -1.518   9.581  11.633  3.5296  0.4847  0.0265
  798MOL0     H 7692  -1.580   9.435  11.565  0.1045  1.7986 -0.4602
  798MOL0     H 7693  -1.503   9.434  11.719 -1.7272  4.4858  2.1247
  798MOL0     H 7694  -1.363   8.896  11.362 -1.4573  2.2738 -0.1493
  798MOL0     H 7695  -1.479   8.688  11.404 -0.7494  1.6047  0.4440
  798MOL0     H 7696  -1.364   8.510  11.669 -0.0223  0.2199 -0.0524
  798MOL0     H 7697  -1.491   8.391  11.680 -0.6662  1.6307  1.1356
  798MOL0     H 7698  -1.358   8.489  11.428 -0.5669 -0.3251 -0.3784
  798MOL0     H 7699  -1.327   8.333  11.520  0.9971 -0.3593 -1.5158
  798MOL0     H 7700  -1.574   8.417  11.359  0.7537 -0.2367 -3.6163
  798MOL0     H 7701  -1.560   8.273  11.469 -1.5575 -0.3848 -0.6470
  798MOL0     H 7702  -1.362   8.329  11.241 -2.3865  0.7427 -1.3933
  798MOL0     H 7703  -1.414   8.168  11.304 -1.0743 -0.2346 -0.0308
  798MOL0     H 7704  -1.592   8.350  11.139 -0.3702  0.0922  1.6207
  798MOL0     H 7705  -1.625   8.191  11.213  0.5187  0.4702  2.9377
  798MOL0     H 7706  -1.398   8.262  11.013 -0.7221  1.2655 -0.8338
  798MOL0     H 7707  -1.433   8.099  11.069  3.0761  0.7265 -2.5973
  798MOL0     H 7708  -1.628   8.280  10.913  1.4599  0.8378 -1.9105
  798MOL0     H 7709  -1.650   8.105  10.973 -0.9999  0.8397  0.0540
  798MOL0     H 7710  -1.597   8.097  10.763  0.3490 -1.9570  2.3646
  798MOL0     H 7711  -1.443   8.054  10.846 -0.3837 -1.0724 -1.6275
  798MOL0     H 7712  -1.532   8.770  11.817 -1.5081  1.3221 -0.2383
  798MOL0     H 7713  -1.417   8.987  11.788 -1.1084  2.5522 -0.9616
  798MOL0     H 7714  -1.124   9.206  11.483 -2.5079 -0.6926 -1.1541
  798MOL0     H 7715  -0.978   9.407  11.458  1.5131  0.2476  0.3666
  798MOL0     H 7716   0.365  10.389  11.139 -0.7646 -1.2507  2.3293
  798MOL0     H 7717   0.508  10.596  11.119 -0.9691 -3.5739 -2.4255
  798MOL0     H 7718   0.516  11.039  11.139 -0.1998  0.5184 -0.4478
  798MOL0     H 7719   0.619  11.248  11.130  0.6156 -2.2250 -0.8954
  798MOL0     H 7720   0.827  11.386  11.091 -0.3886 -1.3648  0.2790
  798MOL0     H 7721   0.695  11.447  11.179 -0.2467  1.4193  1.4331
  798MOL0     H 7722   0.841  11.636  11.259  1.7748 -1.3651 -0.3959
  798MOL0     H 7723   0.878  11.612  11.086 -1.4890 -0.1230 -0.3681
  798MOL0     H 7724   1.078  11.632  11.174 -1.7961  1.1770 -0.7811
  798MOL0     H 7725   1.044  11.452  11.167  1.5782  0.1982 -0.1485
  798MOL0     H 7726   1.009  11.445  11.420 -1.5399 -0.2704 -3.6856
  798MOL0     H 7727   1.019  11.619  11.433 -2.5539  1.8079 -4.5753
  798MOL0     H 7728   1.430  11.492  11.388 -1.2284 -0.1150 -1.5402
  798MOL0     H 7729   0.895  11.144  11.431 -0.5730 -0.9083 -1.1943
  798MOL0     H 7730   0.805  10.911  11.438 -2.3110 -1.1720 -0.1039
  799MOL0     O 7731   9.464   5.036  11.270 -0.7933  0.1413  0.6806
  799MOL0     C 7732   9.363   5.102  11.260 -0.1099 -0.3061 -0.5475
  799MOL0     O 7733   9.289   5.158  11.362 -0.4264  0.2306 -0.4011
  799MOL0     C 7734   9.328   5.162  11.485 -0.2158 -0.2528 -1.2073
  799MOL0     C 7735   9.363   5.045  11.565 -0.4797  1.5360  0.2656
  799MOL0     C 7736   9.416   5.062  11.692 -0.0128  0.6054  0.7932
  799MOL0     C 7737   9.437   5.187  11.743 -0.5735  0.8396 -0.4593
  799MOL0     O 7738   9.500   5.204  11.863 -0.0534 -0.2451 -0.9264
  799MOL0     C 7739   9.424   5.145  11.976  0.3627 -0.0621  0.1646
  799MOL0     C 7740   9.485   5.199  12.108  0.6051 -0.6946  0.2668
  799MOL0     C 7741   9.521   5.353  12.105  0.6224 -0.1511  0.4044
  799MOL0     C 7742   9.396   5.435  12.055 -1.2126  0.5097  0.1995
  799MOL0     C 7743   9.425   5.591  12.076  0.1149 -0.0858  0.0790
  799MOL0     C 7744   9.418   5.648  12.215 -0.3974  0.5154 -0.0495
  799MOL0     C 7745   9.429   5.803  12.222 -0.3275  0.8081 -0.8057
  799MOL0     C 7746   9.534   5.869  12.142 -0.0475 -0.5557  0.2559
  799MOL0     N 7747   9.675   5.843  12.188  0.1605 -0.0532 -0.2128
  799MOL0     C 7748   9.756   5.757  12.119 -0.1504 -0.4368  0.1808
  799MOL0     C 7749   9.882   5.793  12.159  0.9707  0.0417  0.6467
  799MOL0     C 7750  10.013   5.767  12.102 -0.8008 -0.2303 -0.6121
  799MOL0     C 7751  10.103   5.696  12.200  0.4109  0.7257  0.3292
  799MOL0     C 7752  10.229   5.634  12.133  0.2927  0.2200  0.5247
  799MOL0     C 7753  10.290   5.531  12.226 -0.7276 -0.1970 -0.2731
  799MOL0     O 7754  10.299   5.596  12.361 -0.8426 -0.6671 -0.8280
  799MOL0     C 7755  10.367   5.523  12.461 -0.0322  0.0360  0.3160
  799MOL0     C 7756  10.427   5.397  12.458  1.2613 -0.0367 -0.4201
  799MOL0     C 7757  10.461   5.320  12.576 -0.0290  0.2754 -0.3237
  799MOL0     C 7758  10.479   5.178  12.558  0.0845 -0.2313 -0.5463
  799MOL0     C 7759  10.459   5.388  12.699  0.1935  1.1298  0.1059
  799MOL0     C 7760  10.512   5.313  12.822  0.2486 -1.1695  0.1762
  799MOL0     O 7761  10.448   5.353  12.942  0.2158  0.3084 -0.0771
  799MOL0     C 7762  10.496   5.326  13.070  0.0657 -0.0496 -1.2231
  799MOL0     C 7763  10.579   5.214  13.095  0.4668  0.0939  0.4061
  799MOL0     C 7764  10.610   5.187  13.230  0.2381  0.3550  0.5289
  799MOL0     C 7765  10.562   5.265  13.336 -0.1059 -1.1842  0.5498
  799MOL0     O 7766  10.590   5.247  13.471  0.4280 -0.3095 -0.0443
  799MOL0     C 7767  10.665   5.129  13.508 -0.1949  0.3983 -0.1738
  799MOL0     C 7768  10.657   5.111  13.659 -0.4861  0.0594 -1.0521
  799MOL0     C 7769  10.739   4.997  13.724 -0.2771 -0.7890  0.7877
  799MOL0     C 7770  10.656   4.917  13.818 -0.4864 -0.0482 -0.5881
  799MOL0     C 7771  10.735   4.796  13.877  0.6893  0.5871 -0.4285
  799MOL0     C 7772  10.656   4.717  13.984  0.1199  0.4205  0.2742
  799MOL0     C 7773  10.740   4.598  14.013 -0.2039  0.4453 -0.3538
  799MOL0     C 7774  10.662   4.502  14.102 -0.7010  0.5399  0.3628
  799MOL0    Cl 7775  10.619   4.565  14.265  0.0770  0.0131 -0.1198
  799MOL0     C 7776  10.477   5.376  13.304  1.2060 -0.1450 -0.5070
  799MOL0     C 7777  10.440   5.403  13.179 -0.4946  0.6340  0.4550
  799MOL0     O 7778  10.615   5.245  12.809  0.0669  0.4056 -0.3792
  799MOL0     C 7779  10.402   5.509  12.707  0.1284 -0.1468 -0.0887
  799MOL0     C 7780  10.352   5.576  12.587  0.3833  0.0625  0.3886
  799MOL0     N 7781   9.866   5.885  12.260  0.1671  0.0562  0.0175
  799MOL0     N 7782   9.740   5.894  12.295  0.1150 -0.6238  0.0418
  799MOL0     C 7783   9.390   5.304  11.682  0.2966  0.9010 -0.5816
  799MOL0     C 7784   9.327   5.285  11.557  0.1284 -0.0169 -0.0798
  799MOL0     C 7785   9.313   5.132  11.122 -0.9286  0.7772  0.0623
  799MOL0     C 7786   9.375   5.073  11.009  0.6649  0.1442  1.2360
  799MOL0     C 7787   9.325   5.110  10.878 -0.1963  0.5225 -0.2375
  799MOL0     C 7788   9.213   5.196  10.871 -0.0504 -0.3606 -0.6280
  799MOL0     O 7789   9.133   5.219  10.768  0.1589  0.4295 -0.8329
  799MOL0     C 7790   9.153   5.180  10.635 -0.2313  0.6236  0.4844
  799MOL0     C 7791   9.029   5.092  10.601 -0.7350  0.0463  0.3123
  799MOL0     C 7792   8.898   5.175  10.600 -0.0707 -0.6604  0.0347
  799MOL0     C 7793   8.774   5.089  10.593  0.4003 -0.2642 -1.2049
  799MOL0     C 7794   8.785   5.002  10.476  0.3847 -0.0706 -0.2573
  799MOL0     C 7795   8.789   4.922  10.382 -1.0685  0.4429  0.4715
  799MOL0     C 7796   9.145   5.240  10.986  0.0108 -0.1850 -0.1668
  799MOL0     C 7797   9.194   5.207  11.106 -0.1586 -0.9407 -0.6922
  799MOL0     H 7798   9.366   4.949  11.514  3.1306  1.1408  0.9249
  799MOL0     H 7799   9.459   4.990  11.761 -0.0553 -1.7742 -1.5089
  799MOL0     H 7800   9.317   5.167  11.980  0.0319 -0.9867 -2.1928
  799MOL0     H 7801   9.446   5.038  11.969  1.5982  0.0774  1.4757
  799MOL0     H 7802   9.421   5.180  12.195  1.2891  1.1986  1.2483
  799MOL0     H 7803   9.583   5.151  12.119 -0.0885 -2.5024 -0.9057
  799MOL0     H 7804   9.553   5.386  12.204  0.4534  0.8559  0.1318
  799MOL0     H 7805   9.603   5.363  12.032 -2.3483 -3.0759 -3.8000
  799MOL0     H 7806   9.395   5.423  11.946 -0.1256  2.8569 -0.1443
  799MOL0     H 7807   9.302   5.395  12.093  0.8412 -4.1858  1.0684
  799MOL0     H 7808   9.528   5.600  12.039 -0.2994  1.9437 -0.7420
  799MOL0     H 7809   9.357   5.647  12.011 -0.9596  0.5243  1.6693
  799MOL0     H 7810   9.321   5.615  12.252 -0.8514  1.0492 -0.7371
  799MOL0     H 7811   9.497   5.598  12.271 -1.5641 -0.9070  0.3672
  799MOL0     H 7812   9.332   5.840  12.187 -0.1367  2.3923  0.2413
  799MOL0     H 7813   9.439   5.839  12.324 -0.3230  0.9460 -0.8541
  799MOL0     H 7814   9.516   5.976  12.157  1.0940 -0.2535 -0.4092
  799MOL0     H 7815   9.531   5.846  12.035 -0.4469 -0.2922  0.2078
  799MOL0     H 7816   9.736   5.701  12.028 -0.2715  0.5864 -0.4326
  799MOL0     H 7817  10.006   5.709  12.009  1.6147  1.8597 -2.2085
  799MOL0     H 7818  10.062   5.863  12.084 -0.3541 -0.5530 -1.1360
  799MOL0     H 7819  10.052   5.617  12.255  0.1194  1.3006  0.9093
  799MOL0     H 7820  10.138   5.770  12.272 -3.6665  3.0758  0.2054
  799MOL0     H 7821  10.302   5.715  12.116  0.8744 -0.3433  0.2997
  799MOL0     H 7822  10.209   5.579  12.041 -1.7057  1.8398 -0.0904
  799MOL0     H 7823  10.391   5.505  12.194 -1.3087 -3.6286  0.2965
  799MOL0     H 7824  10.213   5.454  12.228 -3.6228  2.4390 -1.1962
  799MOL0     H 7825  10.432   5.348  12.361  3.4730  1.1257 -0.9730
  799MOL0     H 7826  10.410   5.135  12.485  0.7997 -1.1190 -0.7170
  799MOL0     H 7827  10.580   5.155  12.525  0.0515  0.5888 -1.2616
  799MOL0     H 7828  10.450   5.128  12.651 -0.7191  0.6001 -0.3329
  799MOL0     H 7829  10.608   5.132  13.031 -1.2880 -2.3161  2.4892
  799MOL0     H 7830  10.671   5.104  13.264  1.5839  1.4118  0.8068
  799MOL0     H 7831  10.617   5.043  13.461  0.1778 -2.0227  3.4521
  799MOL0     H 7832  10.766   5.141  13.469 -0.9214  1.7953 -1.7153
  799MOL0     H 7833  10.686   5.206  13.706  0.4790 -1.2203  1.0843
  799MOL0     H 7834  10.550   5.104  13.680 -0.6440  0.8359 -1.5388
  799MOL0     H 7835  10.821   5.047  13.777 -1.5779  2.1088  0.2377
  799MOL0     H 7836  10.786   4.945  13.640 -4.7572 -0.3023 -2.3522
  799MOL0     H 7837  10.609   4.974  13.899 -1.3047 -0.9127 -0.4336
  799MOL0     H 7838  10.573   4.868  13.766 -0.2179 -2.9138  1.4080
  799MOL0     H 7839  10.823   4.834  13.929  1.6302 -0.1144 -1.4545
  799MOL0     H 7840  10.757   4.733  13.790 -0.9366  0.6022 -0.8943
  799MOL0     H 7841  10.643   4.789  14.065 -1.4818  0.6628 -0.1588
  799MOL0     H 7842  10.558   4.686  13.947  0.6238  0.4385 -1.1403
  799MOL0     H 7843  10.834   4.627  14.060 -0.6322  0.0831  0.7576
  799MOL0     H 7844  10.769   4.553  13.918  1.8832  1.0169 -0.0307
  799MOL0     H 7845  10.722   4.411  14.113  1.4451  1.8796  0.2244
  799MOL0     H 7846  10.574   4.465  14.048 -0.9947  0.0966  1.1276
  799MOL0     H 7847  10.440   5.433  13.389  3.3221  0.5868 -0.0066
  799MOL0     H 7848  10.384   5.488  13.143  1.5067  1.0515 -1.9283
  799MOL0     H 7849  10.394   5.556  12.805 -0.5252 -2.1612  0.8684
  799MOL0     H 7850  10.300   5.670  12.601  0.9253  0.3635  0.4025
  799MOL0     H 7851   9.392   5.407  11.716 -0.4690  1.7837 -3.0044
  799MOL0     H 7852   9.283   5.371  11.507  3.2029  3.3140  2.3870
  799MOL0     H 7853   9.462   5.008  11.016  1.7201  1.0071 -2.2255
  799MOL0     H 7854   9.371   5.078  10.785 -0.7061 -1.8885  0.2890
  799MOL0     H 7855   9.161   5.267  10.568  2.2137  2.9872  3.5136
  799MOL0     H 7856   9.246   5.122  10.625 -1.2358 -0.7545 -1.4103
  799MOL0     H 7857   9.012   5.015  10.676 -3.7361 -1.7294 -1.9688
  799MOL0     H 7858   9.035   5.057  10.497  0.7055  0.3713  0.2636
  799MOL0     H 7859   8.901   5.244  10.516 -1.5798  0.0704  0.5583
  799MOL0     H 7860   8.901   5.237  10.691  0.1183 -2.9474  1.6856
  799MOL0     H 7861   8.686   5.155  10.588  0.6048  0.0133 -1.1806
  799MOL0     H 7862   8.762   5.034  10.687  1.4376  0.7865 -0.4189
  799MOL0     H 7863   8.796   4.839  10.314 -0.8524  0.1428  0.8584
  799MOL0     H 7864   9.048   5.289  10.985  0.4754  0.8077 -2.0247
  799MOL0     H 7865   9.129   5.233  11.189  1.0202 -0.1808  0.0216
  800MOL0     O 7866  10.032  11.401   9.190  0.5130  0.3110 -0.2314
  800MOL0     C 7867  10.107  11.361   9.099  0.2216  0.6156 -0.4736
  800MOL0     O 7868  10.181  11.449   9.021 -0.3575 -0.1969  0.2754
  800MOL0     C 7869  10.189  11.577   9.056 -0.4073  0.5310  0.5708
  800MOL0     C 7870  10.246  11.626   9.173 -0.3350  0.1825 -0.1011
  800MOL0     C 7871  10.288  11.755   9.193  0.4959 -0.5490  0.3712
  800MOL0     C 7872  10.272  11.844   9.090  0.9883  0.2013  0.4778
  800MOL0     O 7873  10.310  11.976   9.111 -0.3029 -0.8928  0.6621
  800MOL0     C 7874  10.330  12.067   9.006  0.5939 -0.5025  0.7058
  800MOL0     C 7875  10.426  12.160   9.068 -0.4803 -0.7774  1.0849
  800MOL0     C 7876  10.452  12.290   8.991  0.6120 -0.1175  0.1910
  800MOL0     C 7877  10.560  12.261   8.893 -0.4395  0.4600 -0.0542
  800MOL0     C 7878  10.582  12.377   8.793 -0.5103 -0.9893  0.0367
  800MOL0     C 7879  10.709  12.373   8.722 -0.5049  0.5214  0.6108
  800MOL0     C 7880  10.694  12.435   8.581 -0.3756 -0.9772 -0.0300
  800MOL0     C 7881  10.827  12.405   8.506  0.5171  0.2048  0.3744
  800MOL0     N 7882  10.831  12.440   8.362 -0.2106  0.2232 -0.5608
  800MOL0     C 7883  10.738  12.505   8.286 -0.8029  0.8346 -0.3952
  800MOL0     C 7884  10.791  12.530   8.165  0.3865 -0.8447  1.0023
  800MOL0     C 7885  10.722  12.617   8.065 -0.4867 -0.5345  0.5430
  800MOL0     C 7886  10.715  12.547   7.923 -0.1104  0.6633  0.7853
  800MOL0     C 7887  10.735  12.654   7.809 -0.3841 -0.6670 -0.7396
  800MOL0     C 7888  10.616  12.736   7.787 -0.6545 -0.1802  0.0317
  800MOL0     O 7889  10.510  12.661   7.729  0.4326 -0.6087  0.3875
  800MOL0     C 7890  10.502  12.643   7.590  0.4342 -0.8174  0.5427
  800MOL0     C 7891  10.442  12.526   7.536 -0.3088 -0.1957 -1.8057
  800MOL0     C 7892  10.442  12.502   7.398  0.6226  0.2101 -0.8518
  800MOL0     C 7893  10.354  12.389   7.352 -0.4929 -0.0351 -0.0866
  800MOL0     C 7894  10.506  12.594   7.303 -0.6457  0.2877 -0.9227
  800MOL0     C 7895  10.508  12.583   7.151 -0.9161  0.4048 -0.3705
  800MOL0     O 7896  10.493  12.456   7.099  0.7513  0.0910  1.0510
  800MOL0     C 7897  10.492  12.445   6.958 -0.1675  0.7504  0.0976
  800MOL0     C 7898  10.397  12.500   6.871  0.2851 -0.9907  0.0959
  800MOL0     C 7899  10.408  12.485   6.734  0.0812  1.9896 -0.6065
  800MOL0     C 7900  10.511  12.408   6.677 -0.0764  0.8059 -0.8212
  800MOL0     O 7901  10.535  12.391   6.545 -0.3196 -0.5446  0.0615
  800MOL0     C 7902  10.418  12.396   6.460  0.1156 -0.5053 -0.4005
  800MOL0     C 7903  10.454  12.339   6.328  0.3530  0.6529 -0.7223
  800MOL0     C 7904  10.518  12.197   6.340  0.6151 -0.2007 -0.6431
  800MOL0     C 7905  10.513  12.121   6.210  0.1413 -0.1406 -1.1941
  800MOL0     C 7906  10.550  11.966   6.223  0.3125 -0.1319 -0.0694
  800MOL0     C 7907  10.696  11.933   6.254  0.8112  0.7021 -0.3953
  800MOL0     C 7908  10.793  11.968   6.139  0.2041  0.1405  0.0775
  800MOL0     C 7909  10.936  11.934   6.193 -0.5265 -0.0920  0.0381
  800MOL0    Cl 7910  11.057  11.949   6.052 -0.2774  0.1291 -0.0268
  800MOL0     C 7911  10.595  12.336   6.762 -0.4008  0.0280  0.4779
  800MOL0     C 7912  10.587  12.358   6.896  0.9435  0.3796  0.2397
  800MOL0     O 7913  10.511  12.686   7.089  0.4840 -0.4478 -0.0303
  800MOL0     C 7914  10.566  12.703   7.355 -0.5907 -0.3129  0.2054
  800MOL0     C 7915  10.561  12.724   7.493  0.1358  0.1536  0.6860
  800MOL0     N 7916  10.930  12.513   8.174  0.4295  0.3289 -1.0545
  800MOL0     N 7917  10.949  12.450   8.291 -0.0116  0.0734  0.4396
  800MOL0     C 7918  10.196  11.807   8.983  0.1324 -0.3387  0.0756
  800MOL0     C 7919  10.165  11.674   8.957  0.4696  0.2804 -0.3877
  800MOL0     C 7920  10.089  11.223   9.062  0.1718  0.1621 -1.3865
  800MOL0     C 7921  10.182  11.153   8.977 -0.2166  0.3177 -0.4242
  800MOL0     C 7922  10.169  11.018   8.950  0.7001 -0.7695 -0.2277
  800MOL0     C 7923  10.048  10.948   8.989 -0.1505  1.0436  0.3103
  800MOL0     O 7924  10.034  10.812   8.959  0.0870 -1.0408  0.1010
  800MOL0     C 7925  10.123  10.748   8.864 -0.8108 -0.4753  0.2692
  800MOL0     C 7926  10.114  10.599   8.870  0.3288  0.8745 -0.9289
  800MOL0     C 7927  10.134  10.548   9.019  0.2402 -1.1190  0.6720
  800MOL0     C 7928  10.240  10.431   9.038  0.3432  0.2150  0.3259
  800MOL0     C 7929  10.185  10.300   8.985 -0.2127 -1.2715 -0.5650
  800MOL0     C 7930  10.121  10.198   8.951  0.0349  0.8762  0.0582
  800MOL0     C 7931   9.947  11.014   9.069  0.0152 -0.4069  0.1083
  800MOL0     C 7932   9.968  11.152   9.105  0.2337  0.2324 -0.1156
  800MOL0     H 7933  10.258  11.549   9.249  1.2891  0.2429 -0.2453
  800MOL0     H 7934  10.351  11.792   9.273  0.4910  0.4244 -0.0529
  800MOL0     H 7935  10.373  12.027   8.914 -1.1145  0.6561 -0.6695
  800MOL0     H 7936  10.234  12.120   8.997 -0.6994 -2.9974 -1.6368
  800MOL0     H 7937  10.383  12.191   9.163 -3.5728  2.8098 -1.1814
  800MOL0     H 7938  10.520  12.109   9.091 -1.2131 -1.8056  1.8483
  800MOL0     H 7939  10.361  12.322   8.939 -0.1539 -0.4256  1.3125
  800MOL0     H 7940  10.489  12.366   9.059  1.5373  1.4058 -1.8991
  800MOL0     H 7941  10.653  12.229   8.941  0.1628 -0.1101 -1.5347
  800MOL0     H 7942  10.537  12.175   8.829 -0.0836  2.0983 -2.5200
  800MOL0     H 7943  10.508  12.392   8.713 -0.5736 -3.0035 -0.3374
  800MOL0     H 7944  10.586  12.467   8.855  1.6852 -1.4708  0.6949
  800MOL0     H 7945  10.792  12.412   8.781  1.7096 -0.6236 -1.5374
  800MOL0     H 7946  10.729  12.266   8.709  2.8390  1.0080  0.8074
  800MOL0     H 7947  10.620  12.390   8.514  0.0061 -1.4851 -0.1162
  800MOL0     H 7948  10.667  12.540   8.593 -1.0354 -0.8818 -1.9673
  800MOL0     H 7949  10.862  12.302   8.514 -3.4701 -1.5168 -1.4068
  800MOL0     H 7950  10.902  12.460   8.564  0.4028 -0.6088  1.3148
  800MOL0     H 7951  10.634  12.520   8.314 -0.9196 -3.0276  1.8345
  800MOL0     H 7952  10.620  12.636   8.100 -1.1449  2.5955 -2.4290
  800MOL0     H 7953  10.781  12.708   8.072 -0.0909 -0.7138 -0.2778
  800MOL0     H 7954  10.621  12.492   7.909  0.2782  0.0374  0.6037
  800MOL0     H 7955  10.797  12.477   7.906 -1.4614 -0.2282 -3.1497
  800MOL0     H 7956  10.765  12.612   7.712 -2.9901  2.5621 -3.1703
  800MOL0     H 7957  10.818  12.719   7.839  0.2682 -1.4417 -0.8119
  800MOL0     H 7958  10.643  12.824   7.728  0.1453 -0.1980  0.3603
  800MOL0     H 7959  10.573  12.774   7.880 -0.2447  0.5455 -0.0647
  800MOL0     H 7960  10.393  12.461   7.608  3.6936  0.8193  2.3209
  800MOL0     H 7961  10.422  12.318   7.303 -0.9209 -1.4096  1.2607
  800MOL0     H 7962  10.310  12.340   7.438  1.5284 -2.1134 -0.1457
  800MOL0     H 7963  10.273  12.426   7.289 -0.9689  0.9777  1.0860
  800MOL0     H 7964  10.316  12.555   6.918 -3.1498 -5.0081 -0.4306
  800MOL0     H 7965  10.336  12.524   6.663  0.0912  1.5302 -0.8772
  800MOL0     H 7966  10.338  12.329   6.493  0.0292  0.0543  0.5372
  800MOL0     H 7967  10.376  12.497   6.451 -3.5281 -1.9425 -1.5724
  800MOL0     H 7968  10.362  12.343   6.268 -0.0394  1.1294 -0.0994
  800MOL0     H 7969  10.530  12.399   6.276  1.7875 -0.4704 -0.0019
  800MOL0     H 7970  10.454  12.144   6.412  2.4679 -0.4308  0.8977
  800MOL0     H 7971  10.618  12.204   6.383  1.5982 -0.8521 -2.7354
  800MOL0     H 7972  10.407  12.122   6.182 -0.4750 -2.2174  0.7812
  800MOL0     H 7973  10.576  12.171   6.136 -0.7134  1.2475 -1.0087
  800MOL0     H 7974  10.514  11.915   6.133 -1.1923  0.1391  0.3538
  800MOL0     H 7975  10.491  11.925   6.306 -0.8559  3.2101  0.9247
  800MOL0     H 7976  10.724  11.987   6.345  1.5891  2.0888 -1.4200
  800MOL0     H 7977  10.698  11.827   6.278  1.8089  0.7621 -0.1739
  800MOL0     H 7978  10.789  12.075   6.115  0.1936 -0.1294 -1.1681
  800MOL0     H 7979  10.773  11.907   6.051  0.7042 -1.9784  1.3624
  800MOL0     H 7980  10.941  11.837   6.242  3.2434 -0.4142 -0.7068
  800MOL0     H 7981  10.967  12.007   6.269 -0.4063  0.5905 -0.6514
  800MOL0     H 7982  10.675  12.280   6.714  0.6729  1.0214  1.0687
  800MOL0     H 7983  10.665  12.314   6.958 -1.4743 -1.4732  2.1556
  800MOL0     H 7984  10.610  12.775   7.287  0.5351  1.1328  2.3586
  800MOL0     H 7985  10.596  12.824   7.517  5.0794 -1.3942  1.0633
  800MOL0     H 7986  10.161  11.880   8.911 -0.6402 -1.1527 -0.3841
  800MOL0     H 7987  10.097  11.654   8.875 -0.5642  2.4556 -0.1236
  800MOL0     H 7988  10.271  11.206   8.945 -1.0214  1.6211 -0.5683
  800MOL0     H 7989  10.255  10.965   8.909  2.4361 -0.1455  2.4009
  800MOL0     H 7990  10.125  10.791   8.764  2.3993  1.0993  0.8681
  800MOL0     H 7991  10.225  10.780   8.888 -1.2514  1.2508 -0.0111
  800MOL0     H 7992  10.199  10.563   8.812 -0.2403 -0.0228 -1.2169
  800MOL0     H 7993  10.015  10.574   8.830 -0.3224  1.6622  0.1383
  800MOL0     H 7994  10.032  10.522   9.051 -0.4338 -2.4671 -2.2212
  800MOL0     H 7995  10.173  10.626   9.085  0.4183 -2.1692  1.8401
  800MOL0     H 7996  10.258  10.419   9.145  0.2847  0.7113  0.3929
  800MOL0     H 7997  10.329  10.454   8.980 -1.5206  1.2802 -2.3270
  800MOL0     H 7998  10.057  10.116   8.928  1.6366 -0.1356 -1.0491
  800MOL0     H 7999   9.860  10.966   9.112  0.1842 -0.0354  0.8744
  800MOL0     H 8000   9.891  11.205   9.160 -0.5577 -1.6671  0.7149
  801MOL0     O 8001   0.851   2.344   8.015  0.1791 -0.4067  0.3292
  801MOL0     C 8002   0.771   2.406   7.936 -0.5589  0.1035  0.4889
  801MOL0     O 8003   0.683   2.495   7.972  0.0813 -0.2782  0.5137
  801MOL0     C 8004   0.661   2.518   8.105 -0.0107 -0.1601  0.0931
  801MOL0     C 8005   0.528   2.536   8.145  0.2539  0.3204 -0.4212
  801MOL0     C 8006   0.488   2.571   8.272  0.6071 -0.2288 -0.4052
  801MOL0     C 8007   0.592   2.597   8.369 -0.2381  0.2041  0.7171
  801MOL0     O 8008   0.579   2.656   8.496 -0.6998 -0.4360  0.3137
  801MOL0     C 8009   0.473   2.748   8.513  0.5163  0.0864 -0.4243
  801MOL0     C 8010   0.490   2.840   8.634 -0.2167  0.1937 -0.4918
  801MOL0     C 8011   0.452   2.774   8.765  0.5261 -0.0357 -0.6941
  801MOL0     C 8012   0.472   2.866   8.887  0.1890 -0.2331 -0.0275
  801MOL0     C 8013   0.623   2.865   8.926  0.3112  1.1990  0.3097
  801MOL0     C 8014   0.658   2.953   9.048 -0.0607  0.8483  0.4995
  801MOL0     C 8015   0.805   2.980   9.045 -0.5275 -0.2924  0.8363
  801MOL0     C 8016   0.900   2.871   9.090 -0.3676  0.1581 -0.1077
  801MOL0     N 8017   1.013   2.929   9.171 -0.0884 -0.0875 -0.8863
  801MOL0     C 8018   1.102   3.017   9.125 -0.0538 -0.5100 -0.0885
  801MOL0     C 8019   1.180   3.038   9.240 -0.5105  0.6435  0.8293
  801MOL0     C 8020   1.325   3.109   9.238  0.1171  0.8969 -0.3279
  801MOL0     C 8021   1.385   3.133   9.377  0.1759 -0.1901  0.0789
  801MOL0     C 8022   1.322   3.258   9.444  0.1118 -0.1713 -0.1791
  801MOL0     C 8023   1.383   3.285   9.582  1.1857  0.2082  0.2627
  801MOL0     O 8024   1.360   3.425   9.598  0.5232 -0.1251 -0.1817
  801MOL0     C 8025   1.389   3.491   9.715  0.6397  0.7241  0.6670
  801MOL0     C 8026   1.373   3.631   9.702  0.3936  0.3771 -0.5746
  801MOL0     C 8027   1.414   3.713   9.808 -0.7963  0.1125  0.2128
  801MOL0     C 8028   1.414   3.859   9.787 -0.1154  0.1528  0.5432
  801MOL0     C 8029   1.452   3.652   9.938 -0.4592 -0.9166 -0.4289
  801MOL0     C 8030   1.496   3.735  10.061 -0.4914  0.7647 -0.3222
  801MOL0     O 8031   1.461   3.876  10.068 -0.5848 -0.6659 -0.2332
  801MOL0     C 8032   1.462   3.952  10.177 -0.2151 -0.3856 -0.4438
  801MOL0     C 8033   1.400   4.078  10.155 -1.3155  0.3381  0.3904
  801MOL0     C 8034   1.396   4.167  10.262 -0.3652 -0.2950  0.4798
  801MOL0     C 8035   1.449   4.151  10.389 -0.6190  0.6688  0.3406
  801MOL0     O 8036   1.446   4.257  10.475  0.0511 -0.0626  0.1284
  801MOL0     C 8037   1.518   4.248  10.602 -0.3145 -0.6363 -0.2906
  801MOL0     C 8038   1.653   4.299  10.581  0.3696  0.5926  0.3620
  801MOL0     C 8039   1.675   4.444  10.568 -0.4729  0.2400 -0.1095
  801MOL0     C 8040   1.788   4.461  10.459 -0.7327 -0.3483 -0.5254
  801MOL0     C 8041   1.851   4.589  10.425 -0.1443  0.0420  0.0580
  801MOL0     C 8042   1.767   4.682  10.357 -0.5918 -0.8850  0.2017
  801MOL0     C 8043   1.854   4.804  10.302  0.9774  0.2302  0.7937
  801MOL0     C 8044   1.766   4.905  10.222  0.2347 -0.5669  0.2621
  801MOL0    Cl 8045   1.704   4.835  10.072 -0.1720 -0.1197  0.3201
  801MOL0     C 8046   1.508   4.024  10.408 -0.6732 -0.0047 -0.4080
  801MOL0     C 8047   1.517   3.925  10.307  0.4067  1.3248 -0.2771
  801MOL0     O 8048   1.571   3.675  10.139  0.5664  0.6151  0.2752
  801MOL0     C 8049   1.475   3.510   9.938  0.5387 -0.0940 -1.2534
  801MOL0     C 8050   1.441   3.435   9.829 -1.0637 -0.2706  0.7845
  801MOL0     N 8051   1.149   2.948   9.334  0.3050 -0.5268  0.3548
  801MOL0     N 8052   1.041   2.886   9.292 -1.0994  0.2418  0.6971
  801MOL0     C 8053   0.723   2.565   8.332  0.3481  0.2140 -0.5398
  801MOL0     C 8054   0.765   2.532   8.203 -0.2533  0.5672  0.1234
  801MOL0     C 8055   0.776   2.380   7.788  0.7824  0.5289  0.1342
  801MOL0     C 8056   0.873   2.295   7.738 -0.3852 -0.3386  0.3114
  801MOL0     C 8057   0.871   2.263   7.603  0.6776  0.4802 -0.3142
  801MOL0     C 8058   0.791   2.329   7.511  0.4185  0.0837  0.0700
  801MOL0     O 8059   0.804   2.316   7.371  0.8372  0.1067 -0.4839
  801MOL0     C 8060   0.797   2.175   7.334 -0.6011 -0.9305  0.5104
  801MOL0     C 8061   0.849   2.154   7.187  0.0199  0.1477  0.6446
  801MOL0     C 8062   0.797   2.023   7.137 -1.1687  0.4834  0.5043
  801MOL0     C 8063   0.873   1.888   7.170 -0.1859 -0.9146 -0.0354
  801MOL0     C 8064   1.020   1.900   7.133 -0.5287 -0.1454  0.6282
  801MOL0     C 8065   1.132   1.922   7.094  0.5349 -0.8457 -0.4486
  801MOL0     C 8066   0.693   2.406   7.566 -0.1240 -0.1679  0.5410
  801MOL0     C 8067   0.680   2.448   7.695 -0.0649  0.4233 -0.9388
  801MOL0     H 8068   0.444   2.511   8.080 -1.2561 -0.7328  1.8026
  801MOL0     H 8069   0.387   2.595   8.303  1.3559  2.2872  0.3419
  801MOL0     H 8070   0.457   2.801   8.419 -2.8295 -0.5788 -0.3495
  801MOL0     H 8071   0.379   2.693   8.523  0.5467 -0.4610 -2.5062
  801MOL0     H 8072   0.597   2.865   8.634  0.1949 -1.4292  0.0310
  801MOL0     H 8073   0.424   2.926   8.621  1.1418  1.5288  0.9817
  801MOL0     H 8074   0.347   2.744   8.762 -0.0855  1.9014  0.0839
  801MOL0     H 8075   0.516   2.686   8.779 -0.8584 -1.2643 -1.8204
  801MOL0     H 8076   0.437   2.968   8.873 -0.0215 -0.7241 -4.6810
  801MOL0     H 8077   0.418   2.829   8.975  0.4283 -0.6834 -0.0692
  801MOL0     H 8078   0.669   2.768   8.947  0.0188  0.8965 -0.4038
  801MOL0     H 8079   0.682   2.893   8.838 -1.0999 -1.6781 -1.7197
  801MOL0     H 8080   0.599   3.045   9.041 -1.7942 -0.1686  1.0609
  801MOL0     H 8081   0.621   2.909   9.141 -2.3342  4.0077  1.2625
  801MOL0     H 8082   0.835   3.016   8.947  1.2664 -1.3279  0.9453
  801MOL0     H 8083   0.829   3.064   9.111 -0.2746  0.6485 -0.4248
  801MOL0     H 8084   0.946   2.812   9.011  0.2722 -0.5417  0.7629
  801MOL0     H 8085   0.840   2.798   9.145  1.0695 -0.4170  0.7480
  801MOL0     H 8086   1.139   3.053   9.029  0.1675 -2.9380 -0.9872
  801MOL0     H 8087   1.379   3.025   9.192 -0.9099  1.0279 -1.8070
  801MOL0     H 8088   1.343   3.193   9.171  1.3255 -0.0474 -1.2217
  801MOL0     H 8089   1.494   3.140   9.365  0.2117  0.7324  0.8842
  801MOL0     H 8090   1.370   3.050   9.447 -0.9924  1.7142  2.2011
  801MOL0     H 8091   1.216   3.248   9.472  0.7808  2.9390  4.5229
  801MOL0     H 8092   1.338   3.337   9.370 -2.3090 -1.1097 -1.8457
  801MOL0     H 8093   1.490   3.264   9.579  1.1059 -0.0918 -0.5297
  801MOL0     H 8094   1.334   3.223   9.657 -0.3539  1.1730  0.0969
  801MOL0     H 8095   1.333   3.671   9.609  2.5017  1.2966 -1.1574
  801MOL0     H 8096   1.333   3.906   9.843 -0.2848 -0.4430  0.7976
  801MOL0     H 8097   1.509   3.908   9.812  0.3345  1.1776 -2.6359
  801MOL0     H 8098   1.387   3.886   9.684  1.3079 -0.2347  0.0454
  801MOL0     H 8099   1.372   4.113  10.056 -1.8993 -2.4721 -0.5234
  801MOL0     H 8100   1.366   4.268  10.237 -0.9320 -0.2448  1.3094
  801MOL0     H 8101   1.478   4.330  10.662 -1.3985  1.4657 -3.5970
  801MOL0     H 8102   1.503   4.156  10.660 -0.3242  0.6157  1.8147
  801MOL0     H 8103   1.728   4.271  10.656  1.0752  0.5710 -0.3292
  801MOL0     H 8104   1.683   4.241  10.493 -0.1401  1.7339 -0.6025
  801MOL0     H 8105   1.685   4.499  10.662  0.2880 -0.7690  0.4155
  801MOL0     H 8106   1.595   4.482  10.504 -2.8439 -3.6631  0.2405
  801MOL0     H 8107   1.867   4.398  10.500 -2.2764 -1.0343  1.5829
  801MOL0     H 8108   1.757   4.428  10.359  0.7867 -3.6581 -0.0249
  801MOL0     H 8109   1.939   4.565  10.365  2.2049  2.9095  2.0522
  801MOL0     H 8110   1.898   4.643  10.508  0.6294 -0.2044 -0.2093
  801MOL0     H 8111   1.726   4.635  10.267  2.5765 -1.3823 -1.0897
  801MOL0     H 8112   1.685   4.717  10.421  0.2920  1.7783 -0.0139
  801MOL0     H 8113   1.941   4.772  10.245  0.3860  2.6343 -1.6420
  801MOL0     H 8114   1.895   4.865  10.383  2.9959  1.7990 -1.3118
  801MOL0     H 8115   1.831   4.989  10.196  0.6412 -1.1161 -0.5246
  801MOL0     H 8116   1.681   4.937  10.283  1.6786  2.7896  0.7583
  801MOL0     H 8117   1.549   4.001  10.506  2.0542  1.0459 -1.2132
  801MOL0     H 8118   1.554   3.824  10.319 -1.6835  0.1974 -2.4922
  801MOL0     H 8119   1.510   3.456  10.025  0.6194  1.3237 -0.3818
  801MOL0     H 8120   1.462   3.328   9.831 -1.6796 -0.3926  2.5019
  801MOL0     H 8121   0.799   2.575   8.409  0.5022  1.7763 -0.8565
  801MOL0     H 8122   0.871   2.510   8.197 -0.5994 -1.3456  0.4006
  801MOL0     H 8123   0.948   2.238   7.792 -0.9044  1.4209  3.1094
  801MOL0     H 8124   0.946   2.189   7.575 -1.2723 -1.8862  0.3855
  801MOL0     H 8125   0.866   2.115   7.393  1.7507  1.6983  0.6463
  801MOL0     H 8126   0.690   2.153   7.348 -1.1628  0.6077 -0.9894
  801MOL0     H 8127   0.958   2.154   7.185  0.0382  1.2405 -1.8724
  801MOL0     H 8128   0.816   2.223   7.110  2.0655 -0.2637 -0.6662
  801MOL0     H 8129   0.787   2.015   7.028  4.1779 -1.1838 -0.1512
  801MOL0     H 8130   0.692   2.031   7.166 -2.1672  4.0771 -3.1558
  801MOL0     H 8131   0.832   1.793   7.134 -2.4352 -0.4806  1.2098
  801MOL0     H 8132   0.868   1.870   7.277  1.5399  0.6914  0.3649
  801MOL0     H 8133   1.228   1.946   7.054  1.0393 -0.3050  1.0076
  801MOL0     H 8134   0.627   2.452   7.493 -0.6276 -0.4782  0.7926
  801MOL0     H 8135   0.611   2.524   7.730  0.6639  0.0576  1.4358
  802MOL0     O 8136   0.204   8.880   1.859  0.0240 -1.1168 -0.0507
  802MOL0     C 8137   0.303   8.945   1.824 -0.2568  0.4010 -1.0686
  802MOL0     O 8138   0.428   8.900   1.854 -0.6288 -0.0309 -0.1297
  802MOL0     C 8139   0.447   8.779   1.920 -0.4475  0.5155  0.1187
  802MOL0     C 8140   0.415   8.762   2.058 -0.7537  0.4224  0.3929
  802MOL0     C 8141   0.418   8.627   2.104  0.0022  0.3041 -0.0907
  802MOL0     C 8142   0.452   8.514   2.031  0.0005 -1.2237 -0.8540
  802MOL0     O 8143   0.467   8.386   2.086  0.0017  0.0522 -0.1225
  802MOL0     C 8144   0.429   8.354   2.224 -0.5346 -1.2017 -0.4395
  802MOL0     C 8145   0.396   8.213   2.238 -0.0090  0.4275  0.8758
  802MOL0     C 8146   0.507   8.107   2.223  0.4954 -0.2222 -0.6203
  802MOL0     C 8147   0.455   7.970   2.182 -0.2280  0.0997 -0.0225
  802MOL0     C 8148   0.561   7.866   2.199 -0.7891  0.5951 -0.5075
  802MOL0     C 8149   0.510   7.722   2.174  0.5428 -0.6563 -0.2107
  802MOL0     C 8150   0.492   7.685   2.025  0.2884 -0.6712  0.3772
  802MOL0     C 8151   0.619   7.667   1.943  0.2653 -0.5561  0.1982
  802MOL0     N 8152   0.701   7.558   1.987  0.2127  0.2504 -0.8166
  802MOL0     C 8153   0.791   7.568   2.098 -0.6253 -0.0868  0.3860
  802MOL0     C 8154   0.850   7.447   2.104  0.0395 -0.4402 -0.0380
  802MOL0     C 8155   0.961   7.412   2.188  1.2396  0.4924 -0.4738
  802MOL0     C 8156   0.919   7.343   2.318  0.1285 -0.2597 -0.5638
  802MOL0     C 8157   0.832   7.221   2.293  0.4267  0.0118 -0.3638
  802MOL0     C 8158   0.840   7.136   2.429 -0.3967  0.2402  0.3413
  802MOL0     O 8159   0.783   7.006   2.397 -0.1094  0.5509  0.1708
  802MOL0     C 8160   0.808   6.893   2.482  0.1010 -0.7118  0.1997
  802MOL0     C 8161   0.720   6.792   2.458 -0.8917 -0.0439 -0.0708
  802MOL0     C 8162   0.718   6.673   2.533  0.4183  0.0171  0.2992
  802MOL0     C 8163   0.624   6.565   2.487 -0.4794 -0.2573 -0.6219
  802MOL0     C 8164   0.818   6.645   2.630 -0.4756 -0.7582  0.3081
  802MOL0     C 8165   0.837   6.519   2.707  0.3118 -0.8982  1.0524
  802MOL0     O 8166   0.970   6.480   2.710  0.1529 -0.1193  0.3741
  802MOL0     C 8167   0.999   6.348   2.740 -0.2705  0.4187 -0.1267
  802MOL0     C 8168   1.051   6.280   2.625  0.2222 -0.0282 -0.5611
  802MOL0     C 8169   1.085   6.148   2.633  0.2120 -0.6641  1.0511
  802MOL0     C 8170   1.075   6.079   2.753 -0.7577  0.1912 -0.3066
  802MOL0     O 8171   1.112   5.950   2.752 -1.0068  0.3218  0.2426
  802MOL0     C 8172   1.133   5.876   2.876 -0.0553  0.0926 -0.0835
  802MOL0     C 8173   1.224   5.750   2.865  1.0124 -0.2751 -0.1629
  802MOL0     C 8174   1.169   5.661   2.755  0.1606 -0.1095  0.1282
  802MOL0     C 8175   1.270   5.546   2.733  0.3789 -0.1914 -1.4910
  802MOL0     C 8176   1.249   5.472   2.605 -1.0881  0.2508 -0.0580
  802MOL0     C 8177   1.347   5.356   2.600 -0.2510 -0.0000  0.7073
  802MOL0     C 8178   1.310   5.263   2.484  0.4136 -0.6861  0.0365
  802MOL0     C 8179   1.387   5.136   2.522 -0.4487  0.4853  0.4187
  802MOL0    Cl 8180   1.394   5.063   2.355 -0.1091  0.1604  0.2869
  802MOL0     C 8181   1.018   6.140   2.868  0.9748 -0.4526 -0.0978
  802MOL0     C 8182   0.985   6.281   2.861  0.1528 -0.5089  0.2297
  802MOL0     O 8183   0.748   6.468   2.770 -0.1784 -0.7518 -0.0780
  802MOL0     C 8184   0.924   6.739   2.637 -0.4768  1.3117  0.1915
  802MOL0     C 8185   0.918   6.869   2.567  0.1875 -0.2829 -0.4735
  802MOL0     N 8186   0.784   7.368   2.009  0.2680 -0.9115 -0.1485
  802MOL0     N 8187   0.705   7.433   1.935 -0.3214 -0.6611 -0.2941
  802MOL0     C 8188   0.468   8.540   1.894  1.7502 -0.0198  0.9224
  802MOL0     C 8189   0.480   8.672   1.838 -0.5340  0.3837  0.2733
  802MOL0     C 8190   0.285   9.076   1.757  0.2605  0.5355  0.1755
  802MOL0     C 8191   0.391   9.137   1.687  0.1859 -0.4815  0.0963
  802MOL0     C 8192   0.387   9.261   1.633  0.6911 -0.2065  0.2845
  802MOL0     C 8193   0.268   9.336   1.636 -0.5626 -0.8814  0.6130
  802MOL0     O 8194   0.278   9.460   1.581  0.9137  0.0281 -0.3037
  802MOL0     C 8195   0.175   9.556   1.611 -0.9501  0.4075  0.6795
  802MOL0     C 8196   0.217   9.701   1.561  0.5671  0.3322  1.2775
  802MOL0     C 8197   0.240   9.701   1.404 -0.0802  0.2435 -0.5321
  802MOL0     C 8198   0.211   9.834   1.337  1.0232 -0.3483  0.7030
  802MOL0     C 8199   0.057   9.850   1.317  0.4853 -0.6469 -0.4229
  802MOL0     C 8200  -0.063   9.860   1.302 -0.3346  0.2218 -0.0778
  802MOL0     C 8201   0.158   9.265   1.686 -0.2662  0.2312 -0.2350
  802MOL0     C 8202   0.160   9.136   1.743  0.3474 -0.6651  0.4965
  802MOL0     H 8203   0.395   8.853   2.113  2.6408 -0.0130  2.6646
  802MOL0     H 8204   0.387   8.620   2.208 -1.2478 -4.0922 -0.5628
  802MOL0     H 8205   0.511   8.379   2.293  2.3858 -1.3647 -3.5490
  802MOL0     H 8206   0.344   8.413   2.259 -0.6166 -0.6073 -1.6141
  802MOL0     H 8207   0.362   8.207   2.342  0.6297 -2.5402  0.9954
  802MOL0     H 8208   0.315   8.185   2.171  0.2418 -0.3619  0.8923
  802MOL0     H 8209   0.582   8.148   2.155  0.0922 -0.5960 -1.3054
  802MOL0     H 8210   0.549   8.084   2.321 -1.4144  1.0079  0.5497
  802MOL0     H 8211   0.372   7.944   2.249 -0.4383  1.4831  0.2898
  802MOL0     H 8212   0.411   7.965   2.082  0.7867 -2.7567 -0.4065
  802MOL0     H 8213   0.647   7.890   2.136 -1.0182  1.1665 -0.6053
  802MOL0     H 8214   0.583   7.877   2.305 -2.9674  3.9888 -0.2594
  802MOL0     H 8215   0.577   7.652   2.223 -3.1370 -1.4884  4.4376
  802MOL0     H 8216   0.411   7.713   2.220  1.2624  0.9410  1.7889
  802MOL0     H 8217   0.426   7.598   2.018 -2.0860  1.1675 -3.5354
  802MOL0     H 8218   0.432   7.763   1.977 -0.4717 -1.7423 -0.4522
  802MOL0     H 8219   0.679   7.756   1.966 -0.5198 -0.4032  1.7799
  802MOL0     H 8220   0.585   7.651   1.841 -1.1482 -1.8317  0.8331
  802MOL0     H 8221   0.823   7.662   2.143 -1.1399  0.0529  0.4611
  802MOL0     H 8222   1.016   7.345   2.122 -2.2409 -2.9644 -0.2084
  802MOL0     H 8223   1.017   7.502   2.215 -0.2745  1.1080  0.8350
  802MOL0     H 8224   0.856   7.412   2.375  3.7862  0.3138  3.2999
  802MOL0     H 8225   1.004   7.324   2.384  0.5930 -2.4708 -1.6940
  802MOL0     H 8226   0.869   7.166   2.207  2.6186 -0.8666  1.0635
  802MOL0     H 8227   0.728   7.250   2.274 -0.1813 -0.3449  2.0336
  802MOL0     H 8228   0.780   7.183   2.508  1.0223 -0.0399  1.6400
  802MOL0     H 8229   0.947   7.126   2.453  0.0935 -0.1865 -1.7713
  802MOL0     H 8230   0.636   6.809   2.392 -2.1985 -1.5475  1.1300
  802MOL0     H 8231   0.594   6.583   2.383 -0.5205 -2.1182 -0.9760
  802MOL0     H 8232   0.679   6.471   2.491  4.7506  2.5047  0.7065
  802MOL0     H 8233   0.544   6.546   2.559  0.2409  0.2539  0.3239
  802MOL0     H 8234   1.061   6.330   2.529  1.9342 -3.1174 -2.1501
  802MOL0     H 8235   1.121   6.095   2.546  1.9316  0.6186  0.9225
  802MOL0     H 8236   1.208   5.939   2.926  1.5064 -2.9862  1.7916
  802MOL0     H 8237   1.040   5.875   2.932  1.0093  1.3122  1.8249
  802MOL0     H 8238   1.325   5.781   2.836  0.8762  1.5573  1.1769
  802MOL0     H 8239   1.225   5.685   2.953 -0.0257  3.0009  2.4473
  802MOL0     H 8240   1.178   5.710   2.657 -0.3831  2.5624  1.3431
  802MOL0     H 8241   1.068   5.630   2.784  1.0541 -0.3383  3.3312
  802MOL0     H 8242   1.374   5.580   2.728  0.7045 -1.2357 -2.1292
  802MOL0     H 8243   1.268   5.489   2.826  1.2862  4.4185  1.7246
  802MOL0     H 8244   1.260   5.536   2.516 -0.8378  1.8448  1.0786
  802MOL0     H 8245   1.145   5.438   2.602 -2.3815  3.7600 -2.0397
  802MOL0     H 8246   1.447   5.398   2.585 -1.2651  1.9290 -1.1082
  802MOL0     H 8247   1.355   5.290   2.688  1.1779 -4.6094 -2.4870
  802MOL0     H 8248   1.326   5.310   2.387 -0.5351  2.7485  1.4160
  802MOL0     H 8249   1.205   5.232   2.481 -0.0045  0.6326  0.3426
  802MOL0     H 8250   1.327   5.081   2.595 -2.8160  2.8817  0.4415
  802MOL0     H 8251   1.488   5.162   2.555 -0.7582  2.8510 -0.2946
  802MOL0     H 8252   0.998   6.095   2.964  1.0434 -0.0901  0.0865
  802MOL0     H 8253   0.945   6.330   2.950  1.7339  0.3225  0.5111
  802MOL0     H 8254   1.010   6.712   2.698 -0.1650  3.0097  0.5622
  802MOL0     H 8255   0.998   6.941   2.579  1.2601 -1.3960 -0.7646
  802MOL0     H 8256   0.480   8.446   1.840 -3.8039 -0.3237 -0.4255
  802MOL0     H 8257   0.482   8.685   1.730 -2.5668 -0.0233  0.1326
  802MOL0     H 8258   0.489   9.091   1.692 -0.0816 -0.9665  1.4484
  802MOL0     H 8259   0.469   9.314   1.585  1.3601  0.4060  2.0219
  802MOL0     H 8260   0.078   9.528   1.568 -2.0622  0.8342  2.7607
  802MOL0     H 8261   0.161   9.560   1.720  0.1487  0.7129  0.8201
  802MOL0     H 8262   0.314   9.727   1.605  2.0323 -3.2191  0.5381
  802MOL0     H 8263   0.138   9.772   1.584 -0.2484  0.1113 -0.6157
  802MOL0     H 8264   0.174   9.626   1.359 -0.3125 -1.0956  1.8577
  802MOL0     H 8265   0.345   9.681   1.381  1.0395  0.6870  3.4278
  802MOL0     H 8266   0.266   9.826   1.243 -0.8396 -2.4822 -0.3161
  802MOL0     H 8267   0.260   9.916   1.391  0.9698  0.8614 -0.9823
  802MOL0     H 8268  -0.167   9.858   1.274  0.2089 -2.8976 -2.4795
  802MOL0     H 8269   0.057   9.303   1.696 -0.0305  0.5989  0.8693
  802MOL0     H 8270   0.066   9.103   1.784 -0.3061  1.9207  1.2437
  803MOL0     O 8271   1.547   6.059   1.487  0.9342  0.1574  0.3177
  803MOL0     C 8272   1.644   6.102   1.552  0.2566  0.2914 -0.5172
  803MOL0     O 8273   1.705   6.033   1.649 -0.7067 -0.2058  0.0862
  803MOL0     C 8274   1.680   5.900   1.668  0.3908 -0.3862  0.0750
  803MOL0     C 8275   1.787   5.819   1.700  0.3740  0.1593  0.8291
  803MOL0     C 8276   1.772   5.688   1.736 -0.0106 -0.7186  0.2560
  803MOL0     C 8277   1.646   5.630   1.738 -0.0914 -0.0712  0.3591
  803MOL0     O 8278   1.621   5.507   1.804 -0.2095  0.0281  0.3717
  803MOL0     C 8279   1.721   5.408   1.798 -0.3672 -0.6054  0.5752
  803MOL0     C 8280   1.669   5.273   1.824  0.2507  0.1357 -0.7380
  803MOL0     C 8281   1.625   5.276   1.976 -0.5366 -0.1556  0.0211
  803MOL0     C 8282   1.643   5.131   2.032  0.4150 -0.1708 -0.2040
  803MOL0     C 8283   1.554   5.027   1.962 -0.4228 -0.0964  0.2798
  803MOL0     C 8284   1.619   4.887   1.986 -0.0499 -0.4157 -0.1162
  803MOL0     C 8285   1.592   4.836   2.127 -0.3085  0.0459  0.3013
  803MOL0     C 8286   1.678   4.707   2.141 -0.0478  0.4800  1.0398
  803MOL0     N 8287   1.635   4.608   2.045  0.0689  0.0909  0.1671
  803MOL0     C 8288   1.517   4.537   2.051  0.3709 -0.0323  1.0704
  803MOL0     C 8289   1.529   4.449   1.942  0.5006 -0.6857 -0.4085
  803MOL0     C 8290   1.414   4.362   1.893 -1.1146  0.4648  0.2471
  803MOL0     C 8291   1.331   4.419   1.773  0.7338 -0.0007  0.0826
  803MOL0     C 8292   1.280   4.565   1.801  0.0604  0.4053  0.2142
  803MOL0     C 8293   1.179   4.628   1.707  0.7443 -0.1477 -0.0059
  803MOL0     O 8294   1.217   4.600   1.572 -0.5360  0.4100 -0.2559
  803MOL0     C 8295   1.119   4.627   1.474  0.0478  0.0417 -0.0742
  803MOL0     C 8296   1.049   4.745   1.472  0.2574 -0.1764  1.0276
  803MOL0     C 8297   0.949   4.773   1.375  0.2011  0.4918 -0.5618
  803MOL0     C 8298   0.889   4.913   1.384 -0.0560 -0.6940  0.0611
  803MOL0     C 8299   0.923   4.683   1.268 -0.0244  0.5866 -0.0406
  803MOL0     C 8300   0.833   4.704   1.155  0.7512 -0.1254 -0.9002
  803MOL0     O 8301   0.857   4.627   1.054  0.3812  0.3524  0.2537
  803MOL0     C 8302   0.797   4.651   0.935  1.4365 -0.4517 -0.9318
  803MOL0     C 8303   0.769   4.550   0.842 -0.3592 -0.0504  0.0423
  803MOL0     C 8304   0.709   4.558   0.716 -0.2948  0.2024 -0.4816
  803MOL0     C 8305   0.687   4.690   0.667 -0.4758 -0.1281  0.3008
  803MOL0     O 8306   0.627   4.724   0.543 -0.6354  0.5835  0.0878
  803MOL0     C 8307   0.494   4.774   0.556 -0.5062  0.3421  0.4047
  803MOL0     C 8308   0.436   4.814   0.417 -0.3218 -0.4247 -0.8386
  803MOL0     C 8309   0.521   4.927   0.350 -0.5850 -0.4965  0.3177
  803MOL0     C 8310   0.492   4.945   0.200 -0.7264  0.4223 -0.3710
  803MOL0     C 8311   0.583   5.063   0.154  0.0240 -0.0520 -0.1946
  803MOL0     C 8312   0.539   5.120   0.015 -0.1151  0.4837  0.4207
  803MOL0     C 8313   0.641   5.184  -0.071 -0.0258 -0.1320  0.1044
  803MOL0     C 8314   0.582   5.203  -0.214 -0.8409  0.6507 -0.2915
  803MOL0    Cl 8315   0.447   5.320  -0.212 -0.5759  0.5325  0.2911
  803MOL0     C 8316   0.728   4.795   0.750 -0.4010  0.4169 -0.0629
  803MOL0     C 8317   0.780   4.775   0.880 -0.7101 -0.2915  0.2992
  803MOL0     O 8318   0.747   4.793   1.160  0.1652  0.9363  0.1820
  803MOL0     C 8319   0.994   4.557   1.281  0.1420 -0.2646 -0.5132
  803MOL0     C 8320   1.092   4.535   1.370  1.2142  0.7681 -0.3607
  803MOL0     N 8321   1.654   4.467   1.887  0.9245  0.4040 -0.5308
  803MOL0     N 8322   1.713   4.565   1.937 -0.2027 -0.6058  0.1910
  803MOL0     C 8323   1.538   5.704   1.701 -0.5398  0.1485 -0.1996
  803MOL0     C 8324   1.554   5.837   1.663 -0.0302 -0.6711  0.9881
  803MOL0     C 8325   1.682   6.239   1.524 -0.0151  0.4867  0.2131
  803MOL0     C 8326   1.635   6.299   1.401  0.1898 -0.3155  0.0503
  803MOL0     C 8327   1.712   6.408   1.360  0.7522 -0.4969  0.1050
  803MOL0     C 8328   1.805   6.469   1.445  0.2413  0.7146  0.0637
  803MOL0     O 8329   1.891   6.577   1.412 -0.6635 -0.3444 -0.2947
  803MOL0     C 8330   1.849   6.696   1.336  0.1832  0.4590 -0.2303
  803MOL0     C 8331   1.939   6.727   1.221 -0.6701  1.0834  0.0130
  803MOL0     C 8332   1.950   6.624   1.106  0.4885 -0.0998  0.4673
  803MOL0     C 8333   2.067   6.653   1.018 -0.1797 -0.4528 -0.1951
  803MOL0     C 8334   2.079   6.551   0.919 -0.9580 -0.7973 -0.0094
  803MOL0     C 8335   2.083   6.460   0.840 -0.8581  0.0399 -0.1935
  803MOL0     C 8336   1.832   6.412   1.567 -0.1730  0.1637 -0.6446
  803MOL0     C 8337   1.779   6.287   1.603 -0.5813  0.1103  0.8377
  803MOL0     H 8338   1.882   5.873   1.704 -1.2213  3.3299 -0.4636
  803MOL0     H 8339   1.862   5.634   1.766  1.5990  1.6157 -0.0825
  803MOL0     H 8340   1.767   5.412   1.699 -0.3133  0.3123  0.6344
  803MOL0     H 8341   1.796   5.429   1.874  1.3627 -0.3608 -1.1280
  803MOL0     H 8342   1.582   5.245   1.764 -2.1013 -0.8092  2.7937
  803MOL0     H 8343   1.753   5.205   1.811  0.7174  0.6189 -0.3270
  803MOL0     H 8344   1.679   5.354   2.029  1.8276  1.2459 -4.0012
  803MOL0     H 8345   1.516   5.286   1.985 -0.7646  0.3726 -2.5583
  803MOL0     H 8346   1.749   5.102   2.026  0.0886 -1.4432 -0.1058
  803MOL0     H 8347   1.622   5.131   2.139  2.3006 -2.2366  0.2573
  803MOL0     H 8348   1.450   5.028   1.998 -0.7204  1.9003 -0.5058
  803MOL0     H 8349   1.560   5.051   1.856  1.1624 -1.6816 -0.0394
  803MOL0     H 8350   1.566   4.822   1.916 -1.8243  0.5497  0.2874
  803MOL0     H 8351   1.728   4.901   1.982 -0.1440  2.8535  3.5599
  803MOL0     H 8352   1.632   4.912   2.194  0.4128  1.5406 -1.7245
  803MOL0     H 8353   1.487   4.817   2.148 -0.3122 -0.3494 -0.0501
  803MOL0     H 8354   1.638   4.658   2.230 -1.1672 -3.1945 -1.2419
  803MOL0     H 8355   1.787   4.722   2.137 -0.1236  0.8304 -0.4167
  803MOL0     H 8356   1.430   4.561   2.111  0.4326 -0.4657  1.3352
  803MOL0     H 8357   1.445   4.259   1.874 -2.8636  0.1974 -1.5453
  803MOL0     H 8358   1.349   4.349   1.980  0.5093 -2.8953  1.1365
  803MOL0     H 8359   1.244   4.355   1.754  0.7431  0.4958 -1.8030
  803MOL0     H 8360   1.392   4.417   1.682 -0.3257 -0.7993 -0.6307
  803MOL0     H 8361   1.365   4.633   1.816 -0.3989  0.8124  0.9809
  803MOL0     H 8362   1.219   4.550   1.890  0.6282 -1.8597  0.2829
  803MOL0     H 8363   1.142   4.730   1.719 -1.4205 -0.5330 -2.4666
  803MOL0     H 8364   1.090   4.570   1.731  0.7430  0.7843  2.6119
  803MOL0     H 8365   1.079   4.830   1.533 -2.2856  2.5951 -1.2662
  803MOL0     H 8366   0.912   4.970   1.293 -0.7883 -0.7648 -0.1767
  803MOL0     H 8367   0.783   4.911   1.412  0.7041  1.6325  3.8361
  803MOL0     H 8368   0.932   4.977   1.462 -1.9894 -1.7911  2.1434
  803MOL0     H 8369   0.784   4.450   0.881 -2.2026 -0.1156  0.6902
  803MOL0     H 8370   0.682   4.471   0.657 -0.9559  1.2725 -1.7978
  803MOL0     H 8371   0.443   4.692   0.608  2.3280 -1.6630  0.2504
  803MOL0     H 8372   0.489   4.865   0.617  0.1415  0.1591  0.7468
  803MOL0     H 8373   0.439   4.726   0.352  0.5005 -0.8117 -0.2999
  803MOL0     H 8374   0.337   4.855   0.437  0.1051 -0.8156  2.5449
  803MOL0     H 8375   0.627   4.900   0.362 -0.1354  0.1306 -1.7757
  803MOL0     H 8376   0.511   5.026   0.396 -1.0853  0.5987 -2.0385
  803MOL0     H 8377   0.508   4.848   0.152 -0.9472  0.4835 -0.5695
  803MOL0     H 8378   0.386   4.971   0.187 -1.0441  0.3196  1.5907
  803MOL0     H 8379   0.685   5.027   0.137  0.9962  2.0911  0.7133
  803MOL0     H 8380   0.588   5.149   0.222  1.6184  0.5196 -1.0080
  803MOL0     H 8381   0.491   5.035  -0.033 -1.3504  0.6628  1.2789
  803MOL0     H 8382   0.457   5.191   0.032  0.5283  2.0851 -2.4296
  803MOL0     H 8383   0.733   5.125  -0.073  1.8506  2.5585  1.5774
  803MOL0     H 8384   0.668   5.283  -0.032 -1.0053 -1.4231  4.6806
  803MOL0     H 8385   0.548   5.110  -0.262 -1.3833 -0.0773  1.3917
  803MOL0     H 8386   0.663   5.251  -0.268  2.2093 -1.3048  2.1688
  803MOL0     H 8387   0.711   4.895   0.712 -0.8800  0.4635  0.2536
  803MOL0     H 8388   0.812   4.863   0.934 -0.3246  1.9119 -3.2353
  803MOL0     H 8389   0.983   4.467   1.220  3.8445 -1.2739  0.0901
  803MOL0     H 8390   1.145   4.441   1.381 -1.0514 -0.4812  0.7337
  803MOL0     H 8391   1.440   5.658   1.702 -0.4719  0.0051  0.0091
  803MOL0     H 8392   1.464   5.891   1.638 -0.0154 -1.4157 -0.8233
  803MOL0     H 8393   1.557   6.265   1.333 -0.9516 -0.1666  1.2403
  803MOL0     H 8394   1.702   6.443   1.258 -0.3235  0.5109  0.5421
  803MOL0     H 8395   1.745   6.683   1.306  0.2476 -0.7902  0.0357
  803MOL0     H 8396   1.841   6.777   1.409 -4.8241 -1.4337  1.7258
  803MOL0     H 8397   2.037   6.716   1.269 -1.2635  0.7973  1.1960
  803MOL0     H 8398   1.921   6.830   1.188 -1.0467  0.9378 -0.2341
  803MOL0     H 8399   1.856   6.621   1.050 -0.9178  0.8664  2.6267
  803MOL0     H 8400   1.963   6.525   1.152  1.2020  0.6107  1.8810
  803MOL0     H 8401   2.162   6.654   1.073 -1.0135 -0.6888  1.2988
  803MOL0     H 8402   2.050   6.749   0.969 -3.2811  0.1684  1.8590
  803MOL0     H 8403   2.095   6.386   0.763  0.1389  0.3652 -0.3698
  803MOL0     H 8404   1.902   6.465   1.631 -2.8430  2.1080  0.8958
  803MOL0     H 8405   1.816   6.234   1.690  1.9989  1.1978  0.4970
  804MOL0     O 8406   7.418   4.414   6.061  0.2637  0.3850  0.3900
  804MOL0     C 8407   7.352   4.427   5.960  0.1830  0.5303 -0.3543
  804MOL0     O 8408   7.388   4.496   5.846 -0.2054  0.0820  0.2885
  804MOL0     C 8409   7.519   4.527   5.840  0.4347 -0.5246 -0.8385
  804MOL0     C 8410   7.536   4.666   5.815  1.0451  0.0041 -0.4803
  804MOL0     C 8411   7.666   4.714   5.792  0.6929  0.2509 -1.0985
  804MOL0     C 8412   7.776   4.617   5.790  0.4552 -0.2298 -0.4444
  804MOL0     O 8413   7.902   4.680   5.778 -0.0579 -0.5473 -0.3070
  804MOL0     C 8414   8.023   4.611   5.806  0.5942 -0.0699  0.4983
  804MOL0     C 8415   8.150   4.689   5.805 -0.3650 -0.1486 -0.7749
  804MOL0     C 8416   8.161   4.785   5.690  0.1947  0.3629  0.5381
  804MOL0     C 8417   8.305   4.831   5.657 -0.4295  0.6080  0.7210
  804MOL0     C 8418   8.323   4.831   5.503 -0.6361  0.2308  0.3944
  804MOL0     C 8419   8.227   4.937   5.428  1.1018  0.0561 -0.3263
  804MOL0     C 8420   8.239   4.927   5.274 -0.5368  0.1568 -0.3620
  804MOL0     C 8421   8.167   4.801   5.207  0.1039 -0.4624  0.0082
  804MOL0     N 8422   8.023   4.783   5.231  0.7106  0.0698  0.2381
  804MOL0     C 8423   7.913   4.839   5.172  0.3694 -0.3986  0.0371
  804MOL0     C 8424   7.802   4.795   5.242 -0.5512  0.6902 -0.1677
  804MOL0     C 8425   7.654   4.834   5.210 -0.4021 -0.3153  0.1731
  804MOL0     C 8426   7.617   4.757   5.084  0.3450  0.3273  0.5745
  804MOL0     C 8427   7.469   4.768   5.043  0.0881  0.1031 -0.8501
  804MOL0     C 8428   7.427   4.656   4.957 -0.2085  0.2144  0.1439
  804MOL0     O 8429   7.537   4.604   4.870  0.8935 -0.1620 -1.3581
  804MOL0     C 8430   7.560   4.469   4.855  0.4901  0.2148 -1.5088
  804MOL0     C 8431   7.485   4.362   4.902 -0.4991  0.1477  0.0011
  804MOL0     C 8432   7.521   4.224   4.880  0.5658  0.4116 -0.1855
  804MOL0     C 8433   7.409   4.119   4.920 -0.0537  0.5432  0.8842
  804MOL0     C 8434   7.642   4.203   4.810 -1.0727  0.7493 -0.3293
  804MOL0     C 8435   7.701   4.072   4.776 -0.1840  0.1841 -0.1105
  804MOL0     O 8436   7.807   4.072   4.682 -0.2465 -0.3503 -0.2722
  804MOL0     C 8437   7.897   3.966   4.699  0.0395 -0.0860  0.9752
  804MOL0     C 8438   8.005   3.967   4.788 -0.2981  0.1962  0.3476
  804MOL0     C 8439   8.087   3.850   4.814 -0.2960 -0.8228 -0.4978
  804MOL0     C 8440   8.052   3.729   4.755 -0.2757 -0.5498 -0.4739
  804MOL0     O 8441   8.132   3.611   4.776 -0.0026  0.0668  1.0688
  804MOL0     C 8442   8.208   3.609   4.901 -0.4812 -0.4999 -0.2255
  804MOL0     C 8443   8.255   3.462   4.919 -0.7724 -0.0021  0.7468
  804MOL0     C 8444   8.357   3.411   4.818 -0.7400 -0.4151 -1.0259
  804MOL0     C 8445   8.496   3.503   4.821  0.8991  0.7164 -0.8794
  804MOL0     C 8446   8.596   3.474   4.921 -0.2601  0.3089  0.2966
  804MOL0     C 8447   8.648   3.324   4.907  0.8388  0.1028  0.2862
  804MOL0     C 8448   8.719   3.272   5.038 -0.2450 -0.2379 -0.1417
  804MOL0     C 8449   8.834   3.372   5.085  0.6158  0.7805  0.2720
  804MOL0    Cl 8450   8.943   3.301   5.201  0.2484  0.3637 -0.2253
  804MOL0     C 8451   7.947   3.725   4.664  0.8459  0.7253 -0.3619
  804MOL0     C 8452   7.863   3.840   4.643 -0.0904  1.0112  0.7914
  804MOL0     O 8453   7.655   3.968   4.832  0.3960 -0.6382 -0.1974
  804MOL0     C 8454   7.707   4.318   4.763  0.0394 -0.1028 -0.6365
  804MOL0     C 8455   7.672   4.444   4.791 -0.5413  0.2468  0.8209
  804MOL0     N 8456   7.845   4.710   5.344  0.6025 -0.2340  0.2794
  804MOL0     N 8457   7.975   4.704   5.337  0.0676  0.6439  0.9100
  804MOL0     C 8458   7.749   4.482   5.813  0.3653 -0.5322 -0.6966
  804MOL0     C 8459   7.624   4.439   5.846  0.2266 -0.3811  0.2968
  804MOL0     C 8460   7.219   4.367   5.970 -0.3995 -0.3370  1.0309
  804MOL0     C 8461   7.119   4.404   5.877  0.4040 -0.9399  0.0821
  804MOL0     C 8462   7.002   4.338   5.868 -0.2242  0.7693  0.1383
  804MOL0     C 8463   6.969   4.240   5.961  0.2843  0.2085  0.4895
  804MOL0     O 8464   6.843   4.188   5.968  0.5712 -0.2567  0.0053
  804MOL0     C 8465   6.731   4.221   5.887  0.4422 -0.1144 -0.0269
  804MOL0     C 8466   6.679   4.359   5.941  0.3786 -0.7578  0.7077
  804MOL0     C 8467   6.614   4.435   5.824 -0.2402 -1.2647 -0.1626
  804MOL0     C 8468   6.574   4.576   5.866 -0.3291 -0.5050  0.3719
  804MOL0     C 8469   6.682   4.666   5.907  0.0198  0.0623  1.3230
  804MOL0     C 8470   6.781   4.737   5.933 -0.1212  0.5525  0.2526
  804MOL0     C 8471   7.069   4.198   6.054  0.3539 -0.2475 -0.3951
  804MOL0     C 8472   7.195   4.266   6.061  0.2521 -0.6344 -0.8282
  804MOL0     H 8473   7.448   4.728   5.800  1.3501  1.0280  1.5175
  804MOL0     H 8474   7.669   4.823   5.793 -1.1634  0.3338  0.1890
  804MOL0     H 8475   8.014   4.579   5.910 -4.0780 -2.8290 -0.4829
  804MOL0     H 8476   8.025   4.525   5.738 -1.9462  0.7426 -0.7249
  804MOL0     H 8477   8.179   4.740   5.898  3.3017 -2.2900 -0.5250
  804MOL0     H 8478   8.229   4.614   5.796  0.3373  0.6247 -1.2042
  804MOL0     H 8479   8.119   4.736   5.602  0.8127  0.9386 -0.0950
  804MOL0     H 8480   8.105   4.878   5.704  0.5006  0.3253  2.1308
  804MOL0     H 8481   8.306   4.932   5.699  1.9082  0.2459  1.6873
  804MOL0     H 8482   8.391   4.776   5.696  1.1262  3.0942  0.9894
  804MOL0     H 8483   8.428   4.858   5.484 -0.6600 -0.2668 -0.5169
  804MOL0     H 8484   8.301   4.733   5.460  1.5918  0.2450 -0.9288
  804MOL0     H 8485   8.120   4.930   5.452  0.0328 -0.6916 -4.5921
  804MOL0     H 8486   8.267   5.037   5.447  1.9539 -0.0134 -1.6681
  804MOL0     H 8487   8.185   5.014   5.235 -0.1449  0.3361 -0.5098
  804MOL0     H 8488   8.343   4.935   5.239  0.1554  0.1180  1.5984
  804MOL0     H 8489   8.220   4.713   5.243 -0.6236 -0.1905  1.8633
  804MOL0     H 8490   8.185   4.809   5.099  1.5364 -2.2735  0.0628
  804MOL0     H 8491   7.896   4.908   5.090  1.6480 -0.3013 -0.1592
  804MOL0     H 8492   7.586   4.819   5.294 -2.2424  0.4982 -1.0929
  804MOL0     H 8493   7.645   4.941   5.191 -3.1036 -0.7290 -1.3944
  804MOL0     H 8494   7.650   4.653   5.080  1.5751  0.7320 -1.7057
  804MOL0     H 8495   7.680   4.796   5.004 -0.2804  0.6645  0.2394
  804MOL0     H 8496   7.449   4.859   4.987 -0.3544  2.1041  2.3053
  804MOL0     H 8497   7.406   4.756   5.131  1.0402  2.0072  0.1354
  804MOL0     H 8498   7.352   4.689   4.885 -0.4473  0.1746  0.3745
  804MOL0     H 8499   7.381   4.577   5.016 -0.7650 -1.9205 -2.8956
  804MOL0     H 8500   7.392   4.373   4.958 -0.5122 -1.8824  0.4505
  804MOL0     H 8501   7.359   4.140   5.015 -3.2939  0.7564 -0.7558
  804MOL0     H 8502   7.326   4.130   4.850  0.8446  1.9416 -0.0119
  804MOL0     H 8503   7.445   4.015   4.928 -1.2375 -0.2991 -2.8465
  804MOL0     H 8504   8.027   4.065   4.829 -1.7672  0.4267  0.6474
  804MOL0     H 8505   8.177   3.867   4.873 -1.2680  0.9556  0.5648
  804MOL0     H 8506   8.292   3.679   4.896 -0.7678 -0.1393 -0.0151
  804MOL0     H 8507   8.130   3.636   4.972 -2.6398 -3.3707 -1.2975
  804MOL0     H 8508   8.290   3.429   5.018  0.8574  0.1249  0.2390
  804MOL0     H 8509   8.169   3.396   4.904 -0.7221  0.5218 -2.5566
  804MOL0     H 8510   8.315   3.412   4.717 -1.6570  0.3618 -0.6560
  804MOL0     H 8511   8.370   3.303   4.831 -2.7833 -0.5885 -0.1452
  804MOL0     H 8512   8.552   3.501   4.726  0.1978 -2.7410 -1.3511
  804MOL0     H 8513   8.463   3.605   4.841 -1.3544 -0.2641  0.8519
  804MOL0     H 8514   8.560   3.493   5.022  0.9165 -0.1205  0.8000
  804MOL0     H 8515   8.674   3.548   4.900  1.6200 -0.4178  4.0556
  804MOL0     H 8516   8.559   3.264   4.885  0.1590  1.3648 -0.6009
  804MOL0     H 8517   8.719   3.308   4.825  1.2205 -3.0798  1.1214
  804MOL0     H 8518   8.768   3.177   5.016  2.3857  0.7616  0.9236
  804MOL0     H 8519   8.657   3.252   5.126  0.4593 -0.0407  0.4098
  804MOL0     H 8520   8.793   3.469   5.114  1.9883  1.5198 -0.1632
  804MOL0     H 8521   8.893   3.392   4.995 -0.5274  1.9477 -0.2467
  804MOL0     H 8522   7.903   3.632   4.630 -0.7779  0.2938  2.5981
  804MOL0     H 8523   7.783   3.835   4.570  2.6527 -0.0402 -2.3932
  804MOL0     H 8524   7.809   4.301   4.729 -0.1334 -0.7569 -0.8445
  804MOL0     H 8525   7.730   4.523   4.745 -1.4445  0.3755 -0.1288
  804MOL0     H 8526   7.828   4.407   5.821  0.2467 -0.4415  2.0396
  804MOL0     H 8527   7.613   4.333   5.868 -0.9704 -0.4435 -0.5317
  804MOL0     H 8528   7.129   4.484   5.805  3.8367  2.2944  3.6405
  804MOL0     H 8529   6.921   4.375   5.806 -2.0226 -0.7874  1.4186
  804MOL0     H 8530   6.764   4.221   5.783  1.7205  0.7327  0.3597
  804MOL0     H 8531   6.642   4.157   5.895 -0.1454  0.9139  2.8012
  804MOL0     H 8532   6.763   4.418   5.979  1.8731 -2.5204  0.2722
  804MOL0     H 8533   6.612   4.333   6.024 -1.7338  0.1080 -0.6368
  804MOL0     H 8534   6.522   4.384   5.795 -1.5078  0.1851  1.0543
  804MOL0     H 8535   6.687   4.443   5.744  0.2341  0.7458  0.4019
  804MOL0     H 8536   6.503   4.562   5.947 -0.4826  1.2185  0.5670
  804MOL0     H 8537   6.512   4.624   5.790  1.2797  1.4876  0.2303
  804MOL0     H 8538   6.870   4.787   5.966 -0.9544  2.9492 -0.9099
  804MOL0     H 8539   7.026   4.136   6.131 -1.2967  1.0141 -0.2477
  804MOL0     H 8540   7.268   4.231   6.134  1.2728 -0.1385 -1.5906
  805MOL0     O 8541   9.646   8.398   2.411  0.4015 -0.2912  0.7489
  805MOL0     C 8542   9.636   8.495   2.485 -0.6701 -0.5040  0.4241
  805MOL0     O 8543   9.723   8.531   2.590 -0.4003 -1.0426  0.2617
  805MOL0     C 8544   9.844   8.478   2.594 -0.4334  0.0603  1.3188
  805MOL0     C 8545   9.877   8.341   2.564  0.3837 -0.7394 -1.0681
  805MOL0     C 8546  10.009   8.301   2.574  0.0079 -0.2637  0.5496
  805MOL0     C 8547  10.116   8.387   2.594  0.6606 -0.0158  0.1487
  805MOL0     O 8548  10.248   8.338   2.614 -0.8884  0.0038  0.9048
  805MOL0     C 8549  10.273   8.211   2.546 -0.0264 -0.1772 -0.1807
  805MOL0     C 8550  10.419   8.192   2.526  0.8264 -0.8095  0.2289
  805MOL0     C 8551  10.484   8.308   2.451 -0.7193  0.1860 -0.3343
  805MOL0     C 8552  10.641   8.299   2.446  0.4046  0.3296  0.6323
  805MOL0     C 8553  10.704   8.417   2.364  0.1169  0.0276  0.9399
  805MOL0     C 8554  10.696   8.384   2.209  0.1956  0.1323  0.9519
  805MOL0     C 8555  10.743   8.495   2.107  0.1174  0.5472  0.2591
  805MOL0     C 8556  10.699   8.643   2.125  0.2710  1.2605 -0.1935
  805MOL0     N 8557  10.734   8.730   2.022 -0.1161  0.7765 -0.2032
  805MOL0     C 8558  10.706   8.706   1.895 -0.0213  0.0212  0.5188
  805MOL0     C 8559  10.760   8.813   1.828  0.7971  0.0882 -0.2262
  805MOL0     C 8560  10.763   8.813   1.676 -0.3664  0.5349 -0.1711
  805MOL0     C 8561  10.637   8.863   1.605 -0.7251  0.2132 -0.0363
  805MOL0     C 8562  10.665   9.002   1.545  0.0284  1.0931 -0.4602
  805MOL0     C 8563  10.664   9.108   1.662 -0.1208 -0.0230 -0.2806
  805MOL0     O 8564  10.691   9.239   1.600 -1.3521  0.5867  0.6226
  805MOL0     C 8565  10.730   9.350   1.670 -0.5188 -0.7159  0.9768
  805MOL0     C 8566  10.767   9.349   1.802 -0.0434  0.4497  0.6110
  805MOL0     C 8567  10.823   9.457   1.869 -0.1976 -0.4620  0.6639
  805MOL0     C 8568  10.882   9.419   1.995 -0.4427  0.1444 -0.2986
  805MOL0     C 8569  10.825   9.586   1.802  0.0433 -0.9474  0.0012
  805MOL0     C 8570  10.883   9.708   1.854  0.0366 -0.1010 -0.4717
  805MOL0     O 8571  10.954   9.788   1.776  0.4152 -0.1913  0.0046
  805MOL0     C 8572  10.967   9.925   1.788 -0.2773  0.0666  0.9177
  805MOL0     C 8573  10.885  10.008   1.862  0.2557 -0.1492  0.7425
  805MOL0     C 8574  10.890  10.149   1.852 -0.0637 -0.2361  0.2794
  805MOL0     C 8575  10.981  10.207   1.763 -0.3488 -0.0499 -0.1793
  805MOL0     O 8576  10.985  10.342   1.737  0.1174 -0.2737  0.0164
  805MOL0     C 8577  10.874  10.387   1.654  0.3387 -0.1861  0.1234
  805MOL0     C 8578  10.763  10.447   1.744  0.1392 -0.3389 -0.2001
  805MOL0     C 8579  10.636  10.475   1.657  0.7770 -0.1131  0.2952
  805MOL0     C 8580  10.548  10.568   1.740  0.1130 -0.0516 -0.3335
  805MOL0     C 8581  10.421  10.599   1.661 -0.6589  0.8660  0.5161
  805MOL0     C 8582  10.328  10.709   1.717 -0.3670 -0.0864 -0.6122
  805MOL0     C 8583  10.194  10.718   1.643 -0.7257 -0.5446  0.0841
  805MOL0     C 8584  10.092  10.815   1.693  0.3021  0.3597  0.3037
  805MOL0    Cl 8585  10.012  10.731   1.834 -0.0216 -0.6190 -0.2069
  805MOL0     C 8586  11.071  10.124   1.698 -0.2222  0.5907  1.0356
  805MOL0     C 8587  11.060   9.985   1.703  1.1711  0.1803  0.4747
  805MOL0     O 8588  10.870   9.721   1.975  0.5575 -0.8522  0.5528
  805MOL0     C 8589  10.788   9.583   1.660 -0.0488  0.1781 -0.3252
  805MOL0     C 8590  10.743   9.467   1.601 -0.9321 -0.8968 -0.3038
  805MOL0     N 8591  10.823   8.894   1.911 -0.0897 -0.9199 -0.2193
  805MOL0     N 8592  10.805   8.850   2.028  0.6005  0.0519  0.2258
  805MOL0     C 8593  10.091   8.515   2.632 -0.4181  0.0275  1.4733
  805MOL0     C 8594   9.963   8.560   2.618  0.8363 -0.0694  1.0143
  805MOL0     C 8595   9.518   8.574   2.451  0.1975 -0.5333 -0.9996
  805MOL0     C 8596   9.430   8.552   2.346  0.0020  1.0772 -0.5391
  805MOL0     C 8597   9.317   8.628   2.315  0.9269 -0.7064 -0.4732
  805MOL0     C 8598   9.272   8.723   2.406  0.4589 -0.0941 -0.4382
  805MOL0     O 8599   9.145   8.781   2.394  0.6164 -0.6129 -0.6761
  805MOL0     C 8600   9.043   8.726   2.311  0.2372  0.1029 -0.6766
  805MOL0     C 8601   8.904   8.767   2.362  0.1428 -0.0651  0.2871
  805MOL0     C 8602   8.866   8.914   2.320  0.0647  0.0753 -0.4053
  805MOL0     C 8603   8.826   8.919   2.173 -0.6445 -0.8476 -0.1772
  805MOL0     C 8604   8.779   9.060   2.147 -0.1182 -0.0457  0.0596
  805MOL0     C 8605   8.735   9.172   2.142  0.2216 -0.1539  0.5920
  805MOL0     C 8606   9.357   8.749   2.517  0.2625 -0.3114  0.0257
  805MOL0     C 8607   9.479   8.679   2.532  0.2031  0.1818 -0.9767
  805MOL0     H 8608   9.795   8.271   2.546 -1.7583  2.0564 -2.9839
  805MOL0     H 8609  10.030   8.196   2.552 -3.1490 -0.7835 -0.5751
  805MOL0     H 8610  10.244   8.124   2.606  2.1943 -0.1485  1.0434
  805MOL0     H 8611  10.228   8.201   2.447  0.0264 -0.8436 -0.1394
  805MOL0     H 8612  10.473   8.198   2.621  1.0292  2.8299  0.0177
  805MOL0     H 8613  10.439   8.098   2.473 -0.9475 -1.2766  0.3518
  805MOL0     H 8614  10.443   8.312   2.350 -2.5406 -2.0416  0.2416
  805MOL0     H 8615  10.453   8.404   2.494  3.1515  3.2319 -3.5828
  805MOL0     H 8616  10.688   8.307   2.545 -0.0262  2.0329  0.7418
  805MOL0     H 8617  10.671   8.205   2.400 -3.1210 -1.9121  2.5230
  805MOL0     H 8618  10.640   8.503   2.384 -0.8784 -0.8880  1.8249
  805MOL0     H 8619  10.808   8.443   2.388  0.7987 -0.5113 -1.2080
  805MOL0     H 8620  10.737   8.286   2.182  1.3118  0.5048  1.2750
  805MOL0     H 8621  10.588   8.370   2.193 -0.0711  1.1983  1.6876
  805MOL0     H 8622  10.852   8.497   2.115  0.1065  0.9140  0.3518
  805MOL0     H 8623  10.728   8.464   2.004  3.7854  2.2065 -0.9283
  805MOL0     H 8624  10.739   8.679   2.221  0.9146 -1.6841  0.7436
  805MOL0     H 8625  10.590   8.646   2.137 -0.1046 -1.4536 -1.9841
  805MOL0     H 8626  10.654   8.625   1.845 -0.8062  1.6138 -1.3582
  805MOL0     H 8627  10.846   8.879   1.649 -0.7628  1.1480  0.1017
  805MOL0     H 8628  10.806   8.716   1.649  3.4182  2.1003 -0.3720
  805MOL0     H 8629  10.549   8.859   1.670 -1.2804 -0.4230 -0.8079
  805MOL0     H 8630  10.607   8.795   1.524  2.0545 -1.5520  0.2766
  805MOL0     H 8631  10.590   9.024   1.468 -0.9749 -0.2191  0.0877
  805MOL0     H 8632  10.757   9.002   1.486  0.1703  2.5063 -0.2636
  805MOL0     H 8633  10.736   9.087   1.742 -0.0468 -1.6774 -0.7341
  805MOL0     H 8634  10.567   9.124   1.709 -0.5808  1.0819 -1.5460
  805MOL0     H 8635  10.767   9.258   1.860  2.2342  2.4622  4.1874
  805MOL0     H 8636  10.849   9.482   2.078  1.1786 -0.8953  1.1982
  805MOL0     H 8637  10.877   9.313   2.019 -0.0213 -0.4290 -2.5675
  805MOL0     H 8638  10.987   9.448   1.985 -1.2555  3.7075 -0.0002
  805MOL0     H 8639  10.818   9.961   1.934 -0.2383 -0.5002  0.0723
  805MOL0     H 8640  10.817  10.219   1.893  1.4391  2.7842 -1.8125
  805MOL0     H 8641  10.908  10.467   1.588 -0.8419  0.1391 -0.1110
  805MOL0     H 8642  10.827  10.316   1.585 -0.7956  2.2528 -1.7741
  805MOL0     H 8643  10.742  10.394   1.837 -0.9239 -2.5523 -1.6334
  805MOL0     H 8644  10.805  10.543   1.779  1.1184 -1.1354  0.9219
  805MOL0     H 8645  10.579  10.382   1.649  0.2714  0.2373 -0.2868
  805MOL0     H 8646  10.665  10.522   1.563 -1.5646  1.0918  0.0944
  805MOL0     H 8647  10.523  10.512   1.831  2.4713  1.9245  1.7098
  805MOL0     H 8648  10.600  10.662   1.762  1.2366 -0.9316  0.9842
  805MOL0     H 8649  10.362  10.507   1.653 -0.3663  0.2245  4.0518
  805MOL0     H 8650  10.449  10.627   1.559 -3.5879  0.2588 -0.5411
  805MOL0     H 8651  10.311  10.686   1.823 -0.1192  0.0074 -0.5512
  805MOL0     H 8652  10.387  10.801   1.715 -0.5569  0.0523 -0.1600
  805MOL0     H 8653  10.144  10.622   1.627 -2.3840  0.5030 -1.4055
  805MOL0     H 8654  10.216  10.759   1.543  1.2833  0.5411  0.9037
  805MOL0     H 8655  10.014  10.834   1.619  0.8133 -0.2586 -0.4149
  805MOL0     H 8656  10.139  10.906   1.732 -2.4810  1.1086  2.2098
  805MOL0     H 8657  11.139  10.155   1.619 -0.5084 -1.4827 -0.0687
  805MOL0     H 8658  11.121   9.930   1.632 -0.3569  0.9182 -1.5301
  805MOL0     H 8659  10.800   9.676   1.606  1.4314 -1.6734 -3.4573
  805MOL0     H 8660  10.725   9.478   1.495  1.5264  1.2553 -0.5913
  805MOL0     H 8661  10.165   8.592   2.651  0.1597  0.8719 -3.0891
  805MOL0     H 8662   9.933   8.657   2.656 -1.6462 -0.1479 -0.5361
  805MOL0     H 8663   9.443   8.470   2.277  1.7420  1.2375 -0.4530
  805MOL0     H 8664   9.263   8.589   2.229  1.9689  0.1211 -1.5318
  805MOL0     H 8665   9.055   8.768   2.211  1.1562 -2.7267 -1.8686
  805MOL0     H 8666   9.051   8.616   2.310  0.8863  0.0782  1.7331
  805MOL0     H 8667   8.909   8.768   2.471  2.3319  0.2302  0.2319
  805MOL0     H 8668   8.835   8.691   2.323  1.3836 -1.7948  1.3478
  805MOL0     H 8669   8.954   8.975   2.343  1.2024 -2.1965  1.7823
  805MOL0     H 8670   8.789   8.947   2.390 -0.0880 -0.2263 -0.4318
  805MOL0     H 8671   8.748   8.844   2.159  1.4079 -3.1439  0.0241
  805MOL0     H 8672   8.907   8.903   2.101 -0.1875  0.5230 -0.0079
  805MOL0     H 8673   8.692   9.270   2.137 -0.9016 -0.4892  2.4777
  805MOL0     H 8674   9.328   8.816   2.598  1.8928 -0.3596  0.6799
  805MOL0     H 8675   9.550   8.709   2.609  1.2041  1.3196 -2.2862
  806MOL0     O 8676   6.355   2.926   9.185 -0.2616 -0.0652 -0.4259
  806MOL0     C 8677   6.275   2.973   9.275  0.0710  0.0953 -0.1900
  806MOL0     O 8678   6.294   2.975   9.406 -0.1369  0.0778  0.8290
  806MOL0     C 8679   6.415   2.954   9.472  0.1215 -1.5121 -0.0288
  806MOL0     C 8680   6.541   2.932   9.415 -0.0085 -0.9072  0.0357
  806MOL0     C 8681   6.654   2.914   9.502 -0.0839  0.8801  0.2503
  806MOL0     C 8682   6.647   2.917   9.641  0.5364  0.9641  0.4286
  806MOL0     O 8683   6.772   2.910   9.716 -0.1595  0.4829  0.5919
  806MOL0     C 8684   6.797   2.770   9.771  0.2678 -0.1709 -0.6374
  806MOL0     C 8685   6.950   2.767   9.818 -0.2928 -0.2540 -0.0272
  806MOL0     C 8686   6.972   2.875   9.928  0.6974 -0.2814  0.4640
  806MOL0     C 8687   7.108   2.871   9.981 -0.4475 -0.7348 -0.2103
  806MOL0     C 8688   7.127   2.993  10.069 -0.4569  0.5943  0.5289
  806MOL0     C 8689   7.049   2.990  10.206 -0.0550 -0.5509  0.9503
  806MOL0     C 8690   7.120   3.094  10.287 -0.1392  0.1837  0.7990
  806MOL0     C 8691   7.045   3.121  10.415 -0.5881 -0.5451  0.2915
  806MOL0     N 8692   7.150   3.173  10.505 -1.2982  0.5571 -0.0557
  806MOL0     C 8693   7.201   3.306  10.495 -0.2863 -0.1745 -0.2949
  806MOL0     C 8694   7.275   3.328  10.607 -0.5328  0.8918 -0.2493
  806MOL0     C 8695   7.326   3.453  10.656  0.2522  0.9206  0.2652
  806MOL0     C 8696   7.425   3.444  10.771  0.2746  0.9324 -1.1331
  806MOL0     C 8697   7.432   3.573  10.865 -0.8171  0.2548 -0.1667
  806MOL0     C 8698   7.534   3.569  10.987  0.2954 -0.3254 -0.1160
  806MOL0     O 8699   7.474   3.505  11.095  0.7704 -0.3442 -0.4650
  806MOL0     C 8700   7.373   3.566  11.175 -1.0317  0.3026 -0.5341
  806MOL0     C 8701   7.304   3.485  11.266  0.4221  0.9091 -0.0577
  806MOL0     C 8702   7.207   3.536  11.354 -0.2817  0.0736  0.1498
  806MOL0     C 8703   7.106   3.443  11.418 -0.1862 -0.4830 -0.4704
  806MOL0     C 8704   7.197   3.676  11.363  0.3721  0.4402  0.1846
  806MOL0     C 8705   7.110   3.749  11.458 -0.0212  0.5323  0.2014
  806MOL0     O 8706   7.105   3.885  11.435  0.2533  0.4580 -0.6095
  806MOL0     C 8707   7.049   3.957  11.536  0.5247  0.4676  0.6074
  806MOL0     C 8708   6.909   3.950  11.564  0.6914 -0.1835 -1.1271
  806MOL0     C 8709   6.864   4.037  11.662  0.1494 -0.7464 -0.0589
  806MOL0     C 8710   6.952   4.097  11.758 -0.4682 -0.8083  0.8385
  806MOL0     O 8711   6.917   4.154  11.865 -0.0959 -0.0756 -0.3340
  806MOL0     C 8712   6.780   4.166  11.886  0.2157  0.4325 -0.1443
  806MOL0     C 8713   6.731   4.230  12.024 -0.6985  0.1967 -0.3899
  806MOL0     C 8714   6.785   4.373  12.056 -0.1929  0.3892 -0.8110
  806MOL0     C 8715   6.928   4.393  12.103 -0.0122  0.1869  0.0161
  806MOL0     C 8716   6.939   4.353  12.256 -1.2236  0.1065  0.2362
  806MOL0     C 8717   7.071   4.415  12.318 -0.0673  0.2285  0.2647
  806MOL0     C 8718   7.076   4.373  12.472 -0.2917 -0.0961  0.3834
  806MOL0     C 8719   7.211   4.413  12.540 -0.0586 -0.6941 -0.6910
  806MOL0    Cl 8720   7.220   4.359  12.708 -0.1882 -0.1199 -0.4203
  806MOL0     C 8721   7.084   4.098  11.734  0.5875  1.1875 -0.7657
  806MOL0     C 8722   7.132   4.024  11.627 -0.1542 -0.1643 -0.4467
  806MOL0     O 8723   7.084   3.681  11.562 -0.1986 -0.6023  0.1432
  806MOL0     C 8724   7.269   3.753  11.265  0.7461  1.1045 -0.1009
  806MOL0     C 8725   7.360   3.698  11.174  0.2323 -0.0907 -0.2946
  806MOL0     N 8726   7.289   3.206  10.677  0.3167 -0.1164  0.0065
  806MOL0     N 8727   7.217   3.112  10.613  0.2218 -0.0439 -0.0353
  806MOL0     C 8728   6.523   2.967   9.694 -0.8344  0.7225 -0.5917
  806MOL0     C 8729   6.408   2.967   9.613 -0.4014 -1.2025  0.8984
  806MOL0     C 8730   6.152   3.045   9.229  0.5986  0.2646  1.3655
  806MOL0     C 8731   6.092   3.005   9.110  0.3519 -0.5072 -0.3183
  806MOL0     C 8732   5.984   3.067   9.055  0.3879  0.4861  0.5098
  806MOL0     C 8733   5.949   3.197   9.109 -0.1604  0.0374  0.1037
  806MOL0     O 8734   5.847   3.273   9.061 -0.5892 -0.7306 -0.7837
  806MOL0     C 8735   5.767   3.217   8.950  0.5404 -0.5191 -0.7549
  806MOL0     C 8736   5.660   3.114   8.982 -0.2998  1.0690 -0.4213
  806MOL0     C 8737   5.563   3.156   9.088 -0.8780  0.4907  0.5438
  806MOL0     C 8738   5.456   3.044   9.115 -0.2071 -0.4951 -0.6793
  806MOL0     C 8739   5.329   3.048   9.026 -0.4541  0.0781 -0.0876
  806MOL0     C 8740   5.250   3.067   8.942 -0.4749 -0.3273  0.8257
  806MOL0     C 8741   6.006   3.241   9.224 -0.6763  0.4965 -0.2431
  806MOL0     C 8742   6.098   3.161   9.290  0.0030  0.1920  0.1793
  806MOL0     H 8743   6.555   2.934   9.307  3.6019 -2.6017  0.3048
  806MOL0     H 8744   6.754   2.919   9.461  0.0062  2.8972  0.6251
  806MOL0     H 8745   6.736   2.741   9.856 -1.7037  1.2505 -1.5066
  806MOL0     H 8746   6.780   2.698   9.690  1.2187  0.8037 -1.7555
  806MOL0     H 8747   6.967   2.666   9.856 -0.4166 -0.7840 -1.3254
  806MOL0     H 8748   7.008   2.779   9.726 -0.4699 -2.3956 -0.4713
  806MOL0     H 8749   6.947   2.980   9.907  0.8268 -0.2002  0.7213
  806MOL0     H 8750   6.896   2.853  10.004 -0.6146  0.0021 -0.7156
  806MOL0     H 8751   7.130   2.778  10.034  1.3145 -0.5094 -0.4628
  806MOL0     H 8752   7.176   2.879   9.896 -0.6606 -2.4224 -0.5754
  806MOL0     H 8753   7.235   3.006  10.083 -0.3809  0.7118 -0.1494
  806MOL0     H 8754   7.102   3.075  10.001  1.1259  1.5752  1.0717
  806MOL0     H 8755   6.947   3.028  10.192 -0.1995 -1.6721 -1.6050
  806MOL0     H 8756   7.062   2.897  10.263 -0.4725  0.5396  2.9202
  806MOL0     H 8757   7.222   3.058  10.301  1.9240  4.6211 -0.9878
  806MOL0     H 8758   7.131   3.183  10.225 -0.6050 -0.0644  0.3569
  806MOL0     H 8759   7.022   3.027  10.466  0.7092 -0.9767  0.1276
  806MOL0     H 8760   6.970   3.200  10.408  0.5623  0.5796  0.2558
  806MOL0     H 8761   7.167   3.383  10.427  0.3940  0.7742  0.4291
  806MOL0     H 8762   7.366   3.487  10.561  0.7142 -1.1144 -0.3215
  806MOL0     H 8763   7.243   3.518  10.688 -1.0974  0.0078 -1.2418
  806MOL0     H 8764   7.522   3.409  10.734  0.4422 -1.2800  1.1202
  806MOL0     H 8765   7.388   3.367  10.839  0.2017  0.6971 -1.4365
  806MOL0     H 8766   7.329   3.584  10.901 -1.4652  0.6600 -2.0131
  806MOL0     H 8767   7.455   3.659  10.800 -1.2701 -0.6753 -1.6128
  806MOL0     H 8768   7.567   3.672  11.003 -1.1724  0.3495 -1.2236
  806MOL0     H 8769   7.620   3.508  10.957  0.1785  0.7913 -3.1084
  806MOL0     H 8770   7.322   3.379  11.249 -2.4872  0.5069 -1.2832
  806MOL0     H 8771   7.090   3.357  11.351  2.0752 -0.9032 -0.5440
  806MOL0     H 8772   7.151   3.403  11.509 -0.3682 -0.8299 -0.5309
  806MOL0     H 8773   7.014   3.501  11.424  0.5269  0.5927  0.3866
  806MOL0     H 8774   6.849   3.889  11.497 -0.9001  0.7305 -0.5897
  806MOL0     H 8775   6.755   4.040  11.664  0.1118 -1.5120  2.3610
  806MOL0     H 8776   6.750   4.216  11.794 -1.8362 -3.6855 -1.9580
  806MOL0     H 8777   6.738   4.066  11.888 -0.5114  0.7411  0.7067
  806MOL0     H 8778   6.624   4.249  12.012 -0.7443 -0.3754 -0.9021
  806MOL0     H 8779   6.749   4.160  12.106 -1.9999  0.6957  0.3433
  806MOL0     H 8780   6.720   4.420  12.130 -1.1234 -0.3838 -1.1144
  806MOL0     H 8781   6.774   4.437  11.968 -1.5042  0.4006 -0.6536
  806MOL0     H 8782   7.005   4.339  12.046  3.1897  1.7043  2.5799
  806MOL0     H 8783   6.949   4.499  12.091 -2.3517  0.7216  0.2139
  806MOL0     H 8784   6.923   4.246  12.275  3.2661 -0.5611  1.2255
  806MOL0     H 8785   6.868   4.405  12.321 -0.9686  0.7474  0.0035
  806MOL0     H 8786   7.156   4.385  12.255  0.6752 -0.6520  1.6295
  806MOL0     H 8787   7.077   4.524  12.323  2.8786  0.1098  1.1012
  806MOL0     H 8788   7.055   4.267  12.486  0.4351 -0.0513  2.1807
  806MOL0     H 8789   7.000   4.433  12.524  1.9416  2.5278  0.8539
  806MOL0     H 8790   7.231   4.520  12.540 -2.2159 -0.2256  0.7871
  806MOL0     H 8791   7.293   4.375  12.479 -0.6017 -0.8830 -1.3310
  806MOL0     H 8792   7.150   4.169  11.783 -0.3261  2.0421 -0.7452
  806MOL0     H 8793   7.239   4.037  11.615  0.1274  1.0362  2.3685
  806MOL0     H 8794   7.251   3.860  11.264 -0.3119  0.9430 -1.0856
  806MOL0     H 8795   7.413   3.754  11.098  1.1373  2.0359  1.7768
  806MOL0     H 8796   6.503   2.975   9.800 -0.2150  1.7942 -0.5455
  806MOL0     H 8797   6.309   2.977   9.655 -1.5347 -0.2412 -1.7779
  806MOL0     H 8798   6.126   2.910   9.069  0.0411 -2.1658  2.9519
  806MOL0     H 8799   5.940   3.025   8.965 -1.4016  0.5488  1.3044
  806MOL0     H 8800   5.719   3.303   8.902 -0.5661 -0.5168  0.3033
  806MOL0     H 8801   5.836   3.181   8.873  0.2238 -2.0000 -0.3800
  806MOL0     H 8802   5.708   3.017   8.999 -0.6931  0.8277 -0.6884
  806MOL0     H 8803   5.602   3.089   8.893 -0.9947 -2.3681  0.8280
  806MOL0     H 8804   5.508   3.247   9.060 -2.3777 -0.7096 -0.5580
  806MOL0     H 8805   5.628   3.166   9.176 -1.4725 -2.5320  1.4505
  806MOL0     H 8806   5.428   3.056   9.220  0.5700  1.3670 -0.6512
  806MOL0     H 8807   5.504   2.946   9.110  1.9124  0.5023 -0.6304
  806MOL0     H 8808   5.185   3.090   8.860  2.6204 -0.0600 -1.7215
  806MOL0     H 8809   5.962   3.331   9.267 -3.0493 -0.1336 -1.2314
  806MOL0     H 8810   6.141   3.196   9.383 -2.8231  0.6595  1.4093
  807MOL0     O 8811   3.689   9.928   2.367 -0.1828  0.7377  0.1484
  807MOL0     C 8812   3.665   9.990   2.267  0.3033 -0.1520  1.2928
  807MOL0     O 8813   3.759  10.058   2.193 -0.5997 -0.6723  0.0367
  807MOL0     C 8814   3.882  10.084   2.249  0.2135 -1.2501 -0.1717
  807MOL0     C 8815   3.909  10.216   2.301 -0.4113  0.5072 -0.4805
  807MOL0     C 8816   4.035  10.245   2.356  0.3424  0.8058 -0.9893
  807MOL0     C 8817   4.133  10.145   2.365 -0.9086 -0.2035 -0.4381
  807MOL0     O 8818   4.268  10.172   2.394 -0.0726 -0.3491  0.2281
  807MOL0     C 8819   4.319  10.304   2.371 -0.2926  0.4750  0.3704
  807MOL0     C 8820   4.449  10.291   2.301 -0.1140  0.2733  0.1196
  807MOL0     C 8821   4.510  10.425   2.275 -0.1874 -0.8398  0.1782
  807MOL0     C 8822   4.658  10.406   2.275 -0.2047  0.1858 -0.6457
  807MOL0     C 8823   4.732  10.538   2.254  0.3400 -0.4650 -0.3951
  807MOL0     C 8824   4.888  10.513   2.266 -0.6379  0.5342 -0.2905
  807MOL0     C 8825   4.942  10.656   2.287  0.4742  0.2071 -0.0566
  807MOL0     C 8826   5.091  10.667   2.286 -0.7220 -0.2595 -0.1566
  807MOL0     N 8827   5.160  10.543   2.252  0.7923  1.0786  0.6911
  807MOL0     C 8828   5.223  10.467   2.346  0.5175 -0.6358 -0.2341
  807MOL0     C 8829   5.297  10.382   2.265  0.7521  0.2307  0.9231
  807MOL0     C 8830   5.385  10.270   2.316 -0.0445  0.2462 -0.4428
  807MOL0     C 8831   5.309  10.140   2.346  0.2871  0.4549  0.2856
  807MOL0     C 8832   5.386  10.018   2.377 -0.0539 -0.8405 -0.4909
  807MOL0     C 8833   5.471  10.030   2.513  0.1947 -1.0377  0.0918
  807MOL0     O 8834   5.396  10.041   2.631 -0.4722  0.2764 -0.2192
  807MOL0     C 8835   5.465  10.051   2.749  0.3951 -0.3913  0.5149
  807MOL0     C 8836   5.384  10.059   2.876 -0.3146  0.3384 -0.5526
  807MOL0     C 8837   5.442  10.069   3.000  0.1250  1.0824 -0.7307
  807MOL0     C 8838   5.353  10.029   3.114  0.2051 -0.0474  0.5353
  807MOL0     C 8839   5.581  10.090   3.012  0.1521  0.3687  1.1077
  807MOL0     C 8840   5.659  10.127   3.139  0.8647  1.1209 -0.1584
  807MOL0     O 8841   5.586  10.135   3.249  0.1707  0.3155 -0.1735
  807MOL0     C 8842   5.636  10.204   3.355  0.1495  0.8932 -0.0800
  807MOL0     C 8843   5.629  10.145   3.479  0.1338 -0.0393 -0.6480
  807MOL0     C 8844   5.688  10.214   3.585  0.2099 -0.2314 -0.2125
  807MOL0     C 8845   5.754  10.337   3.568 -1.0521  0.5316  0.4841
  807MOL0     O 8846   5.815  10.405   3.671 -0.5232  0.1728  0.1595
  807MOL0     C 8847   5.853  10.334   3.783  0.0410 -0.1518  0.1552
  807MOL0     C 8848   5.980  10.396   3.838 -0.1215 -0.9437  0.1254
  807MOL0     C 8849   6.019  10.360   3.991  0.3470 -0.2555  0.5293
  807MOL0     C 8850   6.065  10.210   4.001  0.2925 -0.5624 -1.0244
  807MOL0     C 8851   6.091  10.155   4.137 -0.4974  0.3395 -0.0405
  807MOL0     C 8852   6.161  10.014   4.135 -0.3920  0.0843 -0.5359
  807MOL0     C 8853   6.203   9.962   4.275  0.3314  0.4373 -0.5641
  807MOL0     C 8854   6.084   9.885   4.320  0.6082  0.3555 -0.0766
  807MOL0    Cl 8855   6.081   9.724   4.226 -0.1253 -0.5132  0.1138
  807MOL0     C 8856   5.750  10.394   3.434 -0.8010 -0.1433 -0.3220
  807MOL0     C 8857   5.687  10.330   3.333 -0.2240  1.0669 -0.4540
  807MOL0     O 8858   5.775  10.130   3.134  0.4636 -0.4953  0.0817
  807MOL0     C 8859   5.656  10.076   2.891  0.0592 -0.4975  0.2270
  807MOL0     C 8860   5.602  10.061   2.764 -0.0634  0.1187 -0.3251
  807MOL0     N 8861   5.286  10.419   2.128  0.0108  0.2351 -0.3107
  807MOL0     N 8862   5.195  10.511   2.128  0.0779  0.3848  0.6431
  807MOL0     C 8863   4.104  10.022   2.309 -0.2255  0.6341 -0.4039
  807MOL0     C 8864   3.979   9.989   2.254 -0.0502 -0.0223  0.0030
  807MOL0     C 8865   3.524  10.003   2.222  0.6396 -1.1929  0.3221
  807MOL0     C 8866   3.421   9.984   2.312 -0.3866 -0.3908  0.5207
  807MOL0     C 8867   3.287  10.010   2.268 -0.0180  0.1972 -1.0089
  807MOL0     C 8868   3.256  10.049   2.143 -0.0954 -0.2467 -0.0417
  807MOL0     O 8869   3.124  10.071   2.103  0.5533 -0.4287 -0.2658
  807MOL0     C 8870   3.091  10.146   1.983 -0.8131 -0.9622  0.0128
  807MOL0     C 8871   2.941  10.162   1.972  0.6991  0.5223 -0.8931
  807MOL0     C 8872   2.869  10.020   1.964  0.2173 -0.4617 -0.3142
  807MOL0     C 8873   2.718  10.034   2.005 -0.3883  0.2898  0.0622
  807MOL0     C 8874   2.648   9.899   1.980 -1.2857 -0.2915 -1.0229
  807MOL0     C 8875   2.598   9.792   1.980 -1.1107  0.3122  0.2657
  807MOL0     C 8876   3.363  10.058   2.056  0.0283  0.5954  0.0611
  807MOL0     C 8877   3.498  10.041   2.092 -0.1776  0.0796 -1.3540
  807MOL0     H 8878   3.822  10.281   2.293 -0.8271 -0.2539 -4.6484
  807MOL0     H 8879   4.053  10.340   2.405 -0.1664  0.1429  0.5287
  807MOL0     H 8880   4.252  10.369   2.313 -2.1964 -2.2293 -0.6379
  807MOL0     H 8881   4.333  10.355   2.467 -0.5128 -2.3875  2.0323
  807MOL0     H 8882   4.516  10.235   2.368  0.0941  2.6492  2.0187
  807MOL0     H 8883   4.432  10.237   2.207 -1.3614  0.4465  0.2232
  807MOL0     H 8884   4.484  10.452   2.172  1.4058  1.2235  0.2499
  807MOL0     H 8885   4.486  10.506   2.344  0.0358 -2.0038  1.6681
  807MOL0     H 8886   4.685  10.361   2.370  2.1885 -1.0903 -1.8378
  807MOL0     H 8887   4.686  10.330   2.201 -3.1169 -1.8054  0.1168
  807MOL0     H 8888   4.707  10.579   2.156  1.5312  2.9847  0.5960
  807MOL0     H 8889   4.705  10.622   2.319  0.3847 -2.1246  1.9025
  807MOL0     H 8890   4.907  10.449   2.353 -1.6455 -0.5817 -0.8518
  807MOL0     H 8891   4.936  10.477   2.174 -1.4241  1.8169 -1.2399
  807MOL0     H 8892   4.907  10.718   2.204  3.3856  2.5790  0.2734
  807MOL0     H 8893   4.915  10.694   2.386 -0.9615 -0.0830 -0.3219
  807MOL0     H 8894   5.115  10.712   2.383 -0.3168 -1.3637  0.2754
  807MOL0     H 8895   5.123  10.738   2.209 -1.2608 -0.2553 -0.3769
  807MOL0     H 8896   5.194  10.443   2.448  0.3272  0.9664  0.1119
  807MOL0     H 8897   5.453  10.245   2.233  2.0376  1.6655  0.7359
  807MOL0     H 8898   5.446  10.302   2.401 -2.8199  0.2743  1.6817
  807MOL0     H 8899   5.250  10.119   2.256 -1.9136 -0.1841  1.8069
  807MOL0     H 8900   5.233  10.167   2.420 -0.7617 -0.8060 -0.2863
  807MOL0     H 8901   5.463  10.008   2.301  0.1227 -0.3438 -0.3837
  807MOL0     H 8902   5.317   9.933   2.375 -1.2938  0.1392 -2.4245
  807MOL0     H 8903   5.541  10.113   2.501  2.4533 -3.1266 -2.0314
  807MOL0     H 8904   5.542   9.949   2.528  2.5091  1.1725  1.9863
  807MOL0     H 8905   5.277  10.045   2.873 -0.4351  1.1804 -0.1810
  807MOL0     H 8906   5.399   9.945   3.168 -3.7103 -1.9777  1.2414
  807MOL0     H 8907   5.333  10.107   3.188 -0.5469 -2.2442  2.8125
  807MOL0     H 8908   5.258   9.989   3.077  0.0028 -0.9036  1.8776
  807MOL0     H 8909   5.563  10.059   3.487 -0.0395  0.0104 -1.4504
  807MOL0     H 8910   5.677  10.156   3.677 -1.1626 -1.4342 -1.0912
  807MOL0     H 8911   5.770  10.350   3.853 -2.2140 -1.0713 -2.1597
  807MOL0     H 8912   5.869  10.227   3.769  0.0696 -0.4196  1.9163
  807MOL0     H 8913   6.062  10.368   3.770  1.5981  0.9962  1.2804
  807MOL0     H 8914   5.967  10.505   3.836  2.3081 -0.5891  0.0068
  807MOL0     H 8915   5.928  10.375   4.049 -0.0695  0.8079 -0.3710
  807MOL0     H 8916   6.097  10.421   4.037  1.9905 -1.1422 -0.9565
  807MOL0     H 8917   5.999  10.141   3.948 -0.2419  1.2809 -2.9034
  807MOL0     H 8918   6.157  10.200   3.942 -0.1798 -0.1747 -1.8505
  807MOL0     H 8919   5.997  10.139   4.192 -0.1931 -0.1666  0.3459
  807MOL0     H 8920   6.154  10.224   4.195  0.6848 -0.8590  0.1506
  807MOL0     H 8921   6.098   9.938   4.088 -2.3952  1.0455  0.4818
  807MOL0     H 8922   6.248  10.028   4.071  1.7815  0.2075  2.2558
  807MOL0     H 8923   6.234  10.048   4.336 -0.2943  0.7048 -0.6129
  807MOL0     H 8924   6.285   9.891   4.265  1.2448  1.4099 -0.2039
  807MOL0     H 8925   6.000   9.954   4.306 -0.0748 -0.0934  1.5281
  807MOL0     H 8926   6.087   9.874   4.429 -3.3520  0.1200  0.1633
  807MOL0     H 8927   5.798  10.486   3.402 -0.9548 -0.4482 -1.4785
  807MOL0     H 8928   5.687  10.379   3.236 -1.5398 -2.6164 -2.5380
  807MOL0     H 8929   5.765  10.073   2.889  0.0405 -0.7555 -0.4187
  807MOL0     H 8930   5.676  10.075   2.686  1.6922 -0.7650  1.0976
  807MOL0     H 8931   4.172   9.938   2.302 -0.0087  0.8571 -1.0319
  807MOL0     H 8932   3.940   9.891   2.228 -1.1310  0.7208 -1.3097
  807MOL0     H 8933   3.445   9.954   2.413  0.4147 -2.6842 -0.2830
  807MOL0     H 8934   3.207  10.002   2.341  1.2653 -0.6525  0.3690
  807MOL0     H 8935   3.140  10.244   1.990  0.1641 -1.4842  0.8896
  807MOL0     H 8936   3.132  10.094   1.896  0.0155 -1.6882  0.8066
  807MOL0     H 8937   2.908  10.222   1.887  0.3110 -1.7303 -2.4107
  807MOL0     H 8938   2.910  10.224   2.057  1.7819 -0.6877  0.4228
  807MOL0     H 8939   2.911   9.946   2.032 -0.4551 -0.4002  0.1824
  807MOL0     H 8940   2.861   9.977   1.864 -2.0707  2.0305 -1.3370
  807MOL0     H 8941   2.674  10.109   1.939  0.5486 -1.4949 -2.7832
  807MOL0     H 8942   2.702  10.065   2.109  3.9951 -0.2609  1.1269
  807MOL0     H 8943   2.546   9.704   1.948 -3.3027  1.7630 -0.4324
  807MOL0     H 8944   3.352  10.086   1.952 -0.0223  1.6361  0.3360
  807MOL0     H 8945   3.569  10.060   2.013  2.6651 -3.6839  0.0185
  808MOL0     O 8946   8.376   1.369   1.692  0.1359  0.2406  0.6250
  808MOL0     C 8947   8.313   1.410   1.587 -0.1908  0.8920  0.0267
  808MOL0     O 8948   8.244   1.526   1.577 -0.4971 -0.0369 -0.7171
  808MOL0     C 8949   8.282   1.622   1.671  0.3741 -0.0799 -0.2987
  808MOL0     C 8950   8.205   1.668   1.771  0.2649 -0.2865  0.3199
  808MOL0     C 8951   8.247   1.767   1.866  0.7620  0.0961 -0.4307
  808MOL0     C 8952   8.377   1.818   1.854  0.3151  0.2780 -0.3051
  808MOL0     O 8953   8.431   1.898   1.952 -0.8955  0.1799  0.0270
  808MOL0     C 8954   8.349   2.010   1.989 -0.1824 -0.2126  0.3658
  808MOL0     C 8955   8.411   2.093   2.088  0.9168  0.0721  0.0621
  808MOL0     C 8956   8.342   2.231   2.100  0.6411 -0.5533 -0.4037
  808MOL0     C 8957   8.354   2.294   2.236  0.6046  0.9351  0.1950
  808MOL0     C 8958   8.273   2.428   2.245 -0.4226  1.1401  0.6455
  808MOL0     C 8959   8.128   2.424   2.235  0.0737 -0.7148  0.3187
  808MOL0     C 8960   8.066   2.556   2.263 -0.0379  0.8514 -0.6019
  808MOL0     C 8961   8.096   2.662   2.158 -0.8398  0.5811 -0.1142
  808MOL0     N 8962   8.023   2.783   2.201  0.7859 -0.2164 -0.8392
  808MOL0     C 8963   7.912   2.831   2.147  0.1195 -0.2720 -0.1974
  808MOL0     C 8964   7.897   2.953   2.209 -0.2846  0.3807  1.0976
  808MOL0     C 8965   7.796   3.061   2.160 -1.1043  0.0952 -0.9016
  808MOL0     C 8966   7.692   3.094   2.270  0.9950  0.5878 -0.4456
  808MOL0     C 8967   7.618   2.971   2.316  0.8875  0.1408  0.0669
  808MOL0     C 8968   7.471   2.979   2.345  0.6707  0.8127 -0.0460
  808MOL0     O 8969   7.393   3.051   2.256  0.3139 -0.5607  0.9091
  808MOL0     C 8970   7.267   3.094   2.300 -0.5169  0.5265  0.0897
  808MOL0     C 8971   7.196   3.193   2.226  0.2684 -0.4453  0.0607
  808MOL0     C 8972   7.077   3.247   2.267  0.5444 -0.4908  0.0017
  808MOL0     C 8973   7.010   3.338   2.163 -0.1661  0.9891 -0.4759
  808MOL0     C 8974   7.023   3.215   2.396 -0.1310  0.0333  0.5705
  808MOL0     C 8975   6.913   3.290   2.454  0.5266  0.1565  0.3274
  808MOL0     O 8976   6.919   3.424   2.455  0.0084 -0.4512  1.0482
  808MOL0     C 8977   6.811   3.507   2.485 -0.3820 -0.0998 -0.0558
  808MOL0     C 8978   6.840   3.627   2.548  0.4503  0.0037 -0.4741
  808MOL0     C 8979   6.740   3.716   2.589  0.1437  0.5633  0.1824
  808MOL0     C 8980   6.604   3.688   2.562  0.0141  0.0028 -0.7405
  808MOL0     O 8981   6.490   3.761   2.587  0.1747  0.3950  0.0868
  808MOL0     C 8982   6.488   3.860   2.701  0.4369  0.1496 -0.0433
  808MOL0     C 8983   6.348   3.908   2.715  0.5382 -0.0556  0.4436
  808MOL0     C 8984   6.236   3.794   2.724  0.4928  0.4154  0.3693
  808MOL0     C 8985   6.222   3.725   2.861  0.2619 -0.7075  0.2399
  808MOL0     C 8986   6.101   3.639   2.883  0.2643 -0.0151 -1.3734
  808MOL0     C 8987   6.147   3.503   2.945  0.5033 -0.3681  0.1654
  808MOL0     C 8988   6.021   3.408   2.960 -0.9327  0.4447 -0.7301
  808MOL0     C 8989   6.045   3.274   3.035  0.2589 -0.7331  0.3362
  808MOL0    Cl 8990   5.965   3.285   3.194 -0.0843  0.0551  0.1215
  808MOL0     C 8991   6.576   3.566   2.505  0.6659 -0.4307 -0.1002
  808MOL0     C 8992   6.678   3.479   2.472  0.4854  0.1671  0.0915
  808MOL0     O 8993   6.823   3.225   2.504 -0.3521  0.0081 -0.1385
  808MOL0     C 8994   7.090   3.124   2.464 -0.0671  0.7107  0.9996
  808MOL0     C 8995   7.200   3.052   2.422 -0.5780  1.0609  0.6551
  808MOL0     N 8996   8.006   2.979   2.289 -0.7789 -0.3981 -0.6321
  808MOL0     N 8997   8.085   2.877   2.281 -0.5890 -0.4930 -0.5188
  808MOL0     C 8998   8.460   1.774   1.751 -0.2024 -0.1614 -0.3831
  808MOL0     C 8999   8.407   1.684   1.661  0.5480 -0.5730 -0.2358
  808MOL0     C 9000   8.315   1.325   1.468 -0.0184  0.3693  0.1417
  808MOL0     C 9001   8.384   1.202   1.469 -0.3478  0.6950 -1.8489
  808MOL0     C 9002   8.358   1.109   1.368  0.6193  0.6859  0.0021
  808MOL0     C 9003   8.270   1.133   1.262 -0.5355  0.7240 -0.3001
  808MOL0     O 9004   8.254   1.035   1.175 -0.4614  0.1913 -0.0887
  808MOL0     C 9005   8.173   1.071   1.054 -0.1793 -0.4588 -0.5696
  808MOL0     C 9006   8.040   1.024   1.073 -0.4781  0.7409 -0.7776
  808MOL0     C 9007   8.025   0.872   1.104  0.7484  0.3374 -0.3120
  808MOL0     C 9008   8.020   0.793   0.971  0.1235 -0.0467 -0.5226
  808MOL0     C 9009   7.904   0.804   0.882  0.8137 -0.9176 -0.7992
  808MOL0     C 9010   7.808   0.825   0.804 -0.8026  0.0419 -0.2372
  808MOL0     C 9011   8.212   1.263   1.260 -0.8117  0.7469 -0.3053
  808MOL0     C 9012   8.236   1.358   1.357 -0.1559 -0.4525 -0.7201
  808MOL0     H 9013   8.102   1.635   1.771 -0.5967  2.0219 -2.4478
  808MOL0     H 9014   8.169   1.794   1.936  1.4763 -1.8532  1.2123
  808MOL0     H 9015   8.332   2.070   1.899 -0.4124  0.2771  0.7289
  808MOL0     H 9016   8.248   1.990   2.027 -0.6163  0.6766 -0.2810
  808MOL0     H 9017   8.404   2.047   2.187  2.6167  1.5571  0.9328
  808MOL0     H 9018   8.521   2.094   2.083  1.0479 -1.3451  1.5188
  808MOL0     H 9019   8.388   2.304   2.033  0.3374  1.6744  1.7100
  808MOL0     H 9020   8.235   2.221   2.077  0.8569 -3.1631 -0.6120
  808MOL0     H 9021   8.331   2.221   2.315  0.3612  1.8236  0.9656
  808MOL0     H 9022   8.460   2.306   2.261  1.0261 -2.8943  0.9874
  808MOL0     H 9023   8.298   2.478   2.339  2.4715  0.7405  0.1618
  808MOL0     H 9024   8.328   2.487   2.171  1.3210  0.8273  1.6495
  808MOL0     H 9025   8.094   2.396   2.135  1.2136 -0.9937 -0.0085
  808MOL0     H 9026   8.096   2.349   2.308 -4.0818  0.0836 -0.4747
  808MOL0     H 9027   7.957   2.558   2.261 -0.0892 -0.9105 -1.7898
  808MOL0     H 9028   8.096   2.606   2.355 -1.1548  2.7354 -1.2134
  808MOL0     H 9029   8.079   2.615   2.060  2.3193 -0.0632 -0.4427
  808MOL0     H 9030   8.201   2.690   2.152 -0.9873  1.0459 -0.6291
  808MOL0     H 9031   7.846   2.796   2.068  0.6706 -0.8987 -0.3869
  808MOL0     H 9032   7.843   3.159   2.151 -0.3575 -0.2176 -0.5386
  808MOL0     H 9033   7.762   3.022   2.064  2.1881 -3.2863 -0.8935
  808MOL0     H 9034   7.626   3.176   2.241  0.8218  0.2471 -1.0343
  808MOL0     H 9035   7.748   3.133   2.355  1.1197 -0.3632 -0.0735
  808MOL0     H 9036   7.661   2.954   2.415 -0.0795 -1.4187  0.2436
  808MOL0     H 9037   7.633   2.882   2.255 -0.9432 -1.4816  1.8572
  808MOL0     H 9038   7.465   3.025   2.444  0.5252  1.5117 -0.3714
  808MOL0     H 9039   7.430   2.878   2.346  1.8568  0.3096 -0.8687
  808MOL0     H 9040   7.232   3.206   2.125  0.7806  1.1764  0.4149
  808MOL0     H 9041   6.970   3.280   2.079  1.5266  0.0441 -0.6866
  808MOL0     H 9042   6.939   3.404   2.213  1.3521  0.7810  2.1437
  808MOL0     H 9043   7.071   3.410   2.109 -1.2664  0.8608 -1.9463
  808MOL0     H 9044   6.948   3.640   2.544  0.2431  1.8124 -0.7879
  808MOL0     H 9045   6.767   3.811   2.633  0.3115  0.2944  0.6764
  808MOL0     H 9046   6.517   3.809   2.793  2.9132  4.1099  1.5853
  808MOL0     H 9047   6.555   3.945   2.684  0.5143 -0.1653 -1.4361
  808MOL0     H 9048   6.339   3.968   2.806  0.2885  0.7798 -0.1196
  808MOL0     H 9049   6.339   3.985   2.637  3.3945 -0.0283  0.0124
  808MOL0     H 9050   6.260   3.722   2.645  1.5073  0.8358  0.2838
  808MOL0     H 9051   6.144   3.848   2.700  0.8979  2.3445  2.8073
  808MOL0     H 9052   6.319   3.680   2.887  1.1885  0.8112 -0.4402
  808MOL0     H 9053   6.216   3.811   2.930  0.8804  0.8248 -1.5326
  808MOL0     H 9054   6.066   3.614   2.782 -1.9247  1.2956 -0.9866
  808MOL0     H 9055   6.023   3.691   2.938 -1.9918 -1.9257 -2.5895
  808MOL0     H 9056   6.226   3.448   2.893 -0.4780 -2.7870  1.1164
  808MOL0     H 9057   6.180   3.524   3.047 -1.2995 -1.9342  1.1448
  808MOL0     H 9058   5.993   3.395   2.855  0.3316  1.8882 -1.2805
  808MOL0     H 9059   5.948   3.465   3.017 -1.1516  1.3050 -1.8373
  808MOL0     H 9060   6.152   3.257   3.049  0.1952 -0.1495  1.6981
  808MOL0     H 9061   6.008   3.189   2.978 -0.6353  2.5375 -4.6156
  808MOL0     H 9062   6.472   3.534   2.503  0.4648  0.1996 -0.1691
  808MOL0     H 9063   6.654   3.384   2.425  3.4595 -0.7867  0.2761
  808MOL0     H 9064   7.045   3.108   2.561 -1.3485 -1.1364  0.1670
  808MOL0     H 9065   7.223   2.969   2.489  0.6776  1.2152  0.4472
  808MOL0     H 9066   8.562   1.806   1.733  0.7916 -0.8239  3.3500
  808MOL0     H 9067   8.479   1.663   1.583  0.8204 -0.1286 -0.1023
  808MOL0     H 9068   8.462   1.173   1.538 -1.0837 -1.1122 -1.7269
  808MOL0     H 9069   8.412   1.016   1.354  0.6917  0.8585 -0.9920
  808MOL0     H 9070   8.182   1.173   1.014  2.2472 -1.8997 -4.2549
  808MOL0     H 9071   8.220   1.024   0.967 -2.3273  0.5702 -2.4104
  808MOL0     H 9072   7.982   1.068   0.991  0.8776 -0.6009 -2.5446
  808MOL0     H 9073   8.010   1.078   1.163 -1.1915 -2.2305  0.8986
  808MOL0     H 9074   7.925   0.855   1.145  1.9367  4.5633  5.7599
  808MOL0     H 9075   8.091   0.825   1.177 -1.1348 -1.5929  0.2629
  808MOL0     H 9076   8.030   0.689   1.002 -2.1023  0.1192  1.0085
  808MOL0     H 9077   8.113   0.824   0.922  0.0864 -0.8089 -1.0880
  808MOL0     H 9078   7.715   0.843   0.754 -1.1365  1.3532  0.7990
  808MOL0     H 9079   8.139   1.298   1.188 -0.2587 -1.6999 -2.1831
  808MOL0     H 9080   8.191   1.457   1.348 -1.7302 -1.1452 -0.8370
  809MOL0     O 9081   5.035   1.433   5.585 -0.4426  0.0453 -0.2496
  809MOL0     C 9082   5.142   1.411   5.636  0.5892  0.6293  0.3291
  809MOL0     O 9083   5.166   1.342   5.744 -0.2185  0.4070  0.0897
  809MOL0     C 9084   5.061   1.284   5.812  0.8502  0.2661  0.3768
  809MOL0     C 9085   5.111   1.198   5.915  0.1431 -0.1157 -0.7685
  809MOL0     C 9086   5.024   1.116   5.991 -0.3776  0.6338  0.6524
  809MOL0     C 9087   4.891   1.117   5.969  0.6319  0.2566 -0.1163
  809MOL0     O 9088   4.813   1.021   6.031 -0.5411 -0.0284 -0.3245
  809MOL0     C 9089   4.675   0.985   5.994 -0.5679  0.8884  0.4026
  809MOL0     C 9090   4.645   0.834   6.041  0.6729  0.4259 -0.4260
  809MOL0     C 9091   4.759   0.735   5.995  1.4117 -0.0830 -0.3683
  809MOL0     C 9092   4.768   0.614   6.089 -0.0648  0.4186  0.1781
  809MOL0     C 9093   4.804   0.490   6.000 -0.4994 -0.3254  0.1831
  809MOL0     C 9094   4.812   0.367   6.082  0.6580 -0.7458 -0.5871
  809MOL0     C 9095   4.788   0.242   6.000 -1.7121 -0.3754  0.5151
  809MOL0     C 9096   4.759   0.122   6.093 -0.2785 -0.4513 -0.0026
  809MOL0     N 9097   4.621   0.119   6.154 -0.1304  0.0342  0.0562
  809MOL0     C 9098   4.498   0.135   6.092 -0.9672  0.6881 -0.3939
  809MOL0     C 9099   4.411   0.165   6.195 -0.4556  0.5619 -0.4700
  809MOL0     C 9100   4.269   0.207   6.182  0.0321 -0.6911 -0.4405
  809MOL0     C 9101   4.256   0.345   6.255  0.0185  0.3592 -0.5799
  809MOL0     C 9102   4.100   0.391   6.243 -0.1402  0.3281  0.1200
  809MOL0     C 9103   4.086   0.519   6.153  0.2918 -0.7747  0.3101
  809MOL0     O 9104   4.180   0.621   6.204  0.2471  0.3057 -0.1510
  809MOL0     C 9105   4.118   0.741   6.240 -0.1658  0.4805  0.5871
  809MOL0     C 9106   4.108   0.838   6.146  0.8652  0.1692  0.2063
  809MOL0     C 9107   4.077   0.975   6.170  0.7512  0.0283 -0.9714
  809MOL0     C 9108   4.023   1.053   6.056  0.4127 -0.5604 -0.3980
  809MOL0     C 9109   4.053   1.008   6.303 -0.0999  0.2359  0.2580
  809MOL0     C 9110   4.065   1.145   6.354 -0.2715  0.1861 -0.2455
  809MOL0     O 9111   4.008   1.161   6.485  0.0173  0.7893  0.1242
  809MOL0     C 9112   3.972   1.291   6.509 -0.2115  1.2810  0.3105
  809MOL0     C 9113   3.835   1.319   6.499  0.8624  0.7236  0.4242
  809MOL0     C 9114   3.790   1.449   6.515  0.4948  0.9734  0.4101
  809MOL0     C 9115   3.878   1.559   6.550 -0.5160 -0.0791 -0.3126
  809MOL0     O 9116   3.841   1.689   6.576 -0.1216 -0.0446  0.3541
  809MOL0     C 9117   3.716   1.741   6.516 -0.1256 -0.1898  0.4501
  809MOL0     C 9118   3.655   1.839   6.609  0.2380  0.7444 -0.5153
  809MOL0     C 9119   3.530   1.897   6.544 -0.0968  0.0222  0.1061
  809MOL0     C 9120   3.475   2.020   6.623  0.5498  0.4510  0.5406
  809MOL0     C 9121   3.362   2.103   6.553 -0.8328  0.0282 -0.2175
  809MOL0     C 9122   3.231   2.033   6.537  0.7658 -0.3762 -0.1593
  809MOL0     C 9123   3.134   2.107   6.441  0.5892  0.3270  0.5337
  809MOL0     C 9124   2.992   2.054   6.439  0.3156  0.0331  0.4565
  809MOL0    Cl 9125   2.912   2.164   6.317  0.0600 -0.2308 -0.4278
  809MOL0     C 9126   4.019   1.519   6.558  1.3490 -0.5627 -0.6030
  809MOL0     C 9127   4.064   1.392   6.540  0.0508  0.7692 -0.6487
  809MOL0     O 9128   4.112   1.236   6.280  0.2689 -0.8497  0.0005
  809MOL0     C 9129   4.056   0.900   6.399  0.3538  0.3310 -0.3547
  809MOL0     C 9130   4.085   0.772   6.368  0.2012  0.6918  1.3014
  809MOL0     N 9131   4.474   0.167   6.315  0.1501 -0.4624 -0.2966
  809MOL0     N 9132   4.605   0.138   6.292  0.8521  0.2361  0.6805
  809MOL0     C 9133   4.833   1.215   5.883 -1.1531 -0.6193  1.0700
  809MOL0     C 9134   4.917   1.301   5.803  0.5243  0.1235 -0.5630
  809MOL0     C 9135   5.266   1.470   5.558  0.4209 -0.0281 -0.2027
  809MOL0     C 9136   5.247   1.514   5.427 -0.6004 -0.0419  0.7554
  809MOL0     C 9137   5.349   1.587   5.358 -0.1534 -0.0663 -0.9671
  809MOL0     C 9138   5.474   1.606   5.426 -0.1853  0.8385  1.3048
  809MOL0     O 9139   5.575   1.681   5.365  0.2560  0.8305 -0.3428
  809MOL0     C 9140   5.713   1.659   5.403  0.6813 -0.1481 -0.7564
  809MOL0     C 9141   5.807   1.738   5.308  1.0535  0.0920 -0.1644
  809MOL0     C 9142   5.762   1.890   5.278  0.3636 -0.2245  0.3983
  809MOL0     C 9143   5.729   1.976   5.389 -0.2040 -0.8077 -0.5902
  809MOL0     C 9144   5.841   1.980   5.486 -0.1157 -0.3257 -1.5163
  809MOL0     C 9145   5.913   1.971   5.580  0.3310 -0.4771 -0.4008
  809MOL0     C 9146   5.495   1.553   5.557  0.9858  1.2182  0.4025
  809MOL0     C 9147   5.392   1.495   5.618  0.1652 -0.4933 -0.2739
  809MOL0     H 9148   5.218   1.190   5.930  0.1324  0.0419 -0.6042
  809MOL0     H 9149   5.059   1.037   6.056  1.5363  0.8747 -0.0186
  809MOL0     H 9150   4.607   1.056   6.043 -1.4640  0.0467  0.4148
  809MOL0     H 9151   4.657   1.012   5.889  0.4257  2.4289  0.6027
  809MOL0     H 9152   4.628   0.840   6.149  4.2795 -0.4273  0.2991
  809MOL0     H 9153   4.550   0.804   5.995  0.5080 -0.1326  0.2747
  809MOL0     H 9154   4.720   0.708   5.896 -0.2355 -2.1341  0.7713
  809MOL0     H 9155   4.856   0.785   5.986  1.3960  0.0232  0.0385
  809MOL0     H 9156   4.843   0.629   6.167  2.2983 -3.3557 -1.0650
  809MOL0     H 9157   4.666   0.610   6.130  0.4284  2.8874  1.8621
  809MOL0     H 9158   4.725   0.475   5.926  0.9267 -4.0159 -0.8317
  809MOL0     H 9159   4.896   0.515   5.947  0.4372  0.4372  2.0830
  809MOL0     H 9160   4.895   0.368   6.154  0.6932 -2.6557 -0.5312
  809MOL0     H 9161   4.717   0.377   6.136  0.2709 -0.8720 -1.2374
  809MOL0     H 9162   4.708   0.250   5.926 -0.5161  0.7616 -0.6919
  809MOL0     H 9163   4.873   0.218   5.936  0.6954  3.1093  2.0884
  809MOL0     H 9164   4.836   0.114   6.170  0.4715  3.0207 -0.2022
  809MOL0     H 9165   4.760   0.030   6.034  1.2274 -0.7792  0.4847
  809MOL0     H 9166   4.470   0.136   5.988 -2.1228 -1.3871 -0.1642
  809MOL0     H 9167   4.235   0.207   6.078  1.3144  1.4851 -0.9250
  809MOL0     H 9168   4.203   0.139   6.236 -0.8354 -0.7753 -1.5671
  809MOL0     H 9169   4.325   0.424   6.222  0.5685 -0.9175 -2.6745
  809MOL0     H 9170   4.274   0.319   6.359 -2.2538  2.1769  0.3526
  809MOL0     H 9171   4.062   0.417   6.342 -0.3829  0.7166 -0.0675
  809MOL0     H 9172   4.028   0.315   6.210  3.8951 -3.0471 -1.7062
  809MOL0     H 9173   3.986   0.561   6.143  0.7621  1.1639  2.7963
  809MOL0     H 9174   4.107   0.489   6.049  0.2599 -2.2160  0.6985
  809MOL0     H 9175   4.129   0.814   6.042  2.3318 -0.4593  0.6264
  809MOL0     H 9176   3.918   1.071   6.082  0.7930 -1.5557  2.1105
  809MOL0     H 9177   4.071   1.150   6.041  0.5095  0.3838  4.2992
  809MOL0     H 9178   4.042   0.995   5.966 -0.5539 -1.6154  0.0461
  809MOL0     H 9179   3.769   1.236   6.476 -0.1213  1.3858  0.7847
  809MOL0     H 9180   3.683   1.461   6.508  0.7231  2.4945 -2.0115
  809MOL0     H 9181   3.730   1.773   6.412 -0.7814 -0.6068  0.2261
  809MOL0     H 9182   3.636   1.668   6.504 -1.6361  0.9818  2.6298
  809MOL0     H 9183   3.634   1.801   6.710 -2.2707  1.1423 -0.8349
  809MOL0     H 9184   3.737   1.909   6.628  0.9521 -0.5330  1.5699
  809MOL0     H 9185   3.455   1.819   6.524 -0.8880  1.0278 -0.9008
  809MOL0     H 9186   3.561   1.939   6.449  1.6700 -1.3993 -0.0026
  809MOL0     H 9187   3.436   1.979   6.717  1.0353  2.3878  1.6414
  809MOL0     H 9188   3.567   2.073   6.648  1.8103 -2.7547  3.5384
  809MOL0     H 9189   3.386   2.136   6.451 -2.4508 -2.0130 -1.3269
  809MOL0     H 9190   3.342   2.192   6.614  0.9739 -0.0815  0.5640
  809MOL0     H 9191   3.245   1.932   6.498 -2.9113 -1.4910  0.9528
  809MOL0     H 9192   3.190   2.030   6.638 -2.7919  2.7334 -1.2639
  809MOL0     H 9193   3.164   2.097   6.336 -0.0719 -0.6199  0.4162
  809MOL0     H 9194   3.124   2.211   6.471 -1.5937  0.1021  0.7930
  809MOL0     H 9195   2.952   2.044   6.540 -1.1323 -3.7474 -0.3340
  809MOL0     H 9196   2.983   1.954   6.395 -0.8883  1.2842 -2.3744
  809MOL0     H 9197   4.081   1.602   6.593 -1.6682  1.6134  0.0633
  809MOL0     H 9198   4.171   1.376   6.554  0.4338  2.8140 -0.9355
  809MOL0     H 9199   4.064   0.935   6.501  1.1470  1.7573 -0.8651
  809MOL0     H 9200   4.096   0.694   6.443 -1.4092 -2.9742 -1.9387
  809MOL0     H 9201   4.729   1.239   5.860 -0.2812  1.1393 -1.4675
  809MOL0     H 9202   4.872   1.369   5.731 -0.9964 -1.4549 -1.1789
  809MOL0     H 9203   5.158   1.476   5.377 -0.0464 -1.6725  0.9380
  809MOL0     H 9204   5.347   1.605   5.251  1.4867  2.6660 -0.6375
  809MOL0     H 9205   5.729   1.686   5.508  3.5412 -1.3141 -0.7859
  809MOL0     H 9206   5.736   1.554   5.381  0.0528 -0.5128  0.2823
  809MOL0     H 9207   5.819   1.685   5.213 -0.2569 -0.1467 -0.2068
  809MOL0     H 9208   5.907   1.743   5.352  0.7658 -1.4942  0.7624
  809MOL0     H 9209   5.682   1.875   5.205 -3.0914 -0.9583  4.0186
  809MOL0     H 9210   5.846   1.947   5.237 -0.1829  2.6112  2.8789
  809MOL0     H 9211   5.632   1.947   5.432 -0.0547 -0.5395 -0.0571
  809MOL0     H 9212   5.717   2.077   5.347  1.3024  0.3576  1.5511
  809MOL0     H 9213   5.991   1.963   5.653  0.5347  5.0500  0.4256
  809MOL0     H 9214   5.592   1.562   5.606  0.1879 -1.9865  2.8949
  809MOL0     H 9215   5.419   1.458   5.717 -2.5532  1.0958  1.1613
  810MOL0     O 9216   7.295   2.417   3.036 -0.5590 -0.0786  0.4233
  810MOL0     C 9217   7.332   2.355   3.133  0.1696  0.2786 -0.4560
  810MOL0     O 9218   7.454   2.381   3.195  0.3724 -0.4043  0.1073
  810MOL0     C 9219   7.547   2.477   3.163 -0.7599  0.5051 -0.3878
  810MOL0     C 9220   7.556   2.547   3.044 -0.1169  0.1589  0.0623
  810MOL0     C 9221   7.644   2.661   3.037  0.7150  1.3605  0.4835
  810MOL0     C 9222   7.727   2.694   3.137  0.0798 -0.0909 -0.0737
  810MOL0     O 9223   7.834   2.776   3.139  0.3781 -0.2869  0.1259
  810MOL0     C 9224   7.825   2.898   3.066  0.0673  0.2879  1.5401
  810MOL0     C 9225   7.723   2.997   3.113 -0.4204 -0.1645 -0.0900
  810MOL0     C 9226   7.579   2.961   3.071  0.3235  0.0974 -0.3649
  810MOL0     C 9227   7.484   3.080   3.106 -0.0452 -0.1693  1.2916
  810MOL0     C 9228   7.337   3.071   3.046 -0.3474  0.0203 -0.4580
  810MOL0     C 9229   7.306   2.944   2.979  0.1644  0.2143 -0.1355
  810MOL0     C 9230   7.167   2.936   2.912  0.0920  0.0482  0.5967
  810MOL0     C 9231   7.169   2.813   2.822  0.8200 -0.6206  0.2794
  810MOL0     N 9232   7.058   2.813   2.722 -0.1551  0.0466 -0.0002
  810MOL0     C 9233   6.921   2.813   2.755  0.9201 -0.2609 -0.8418
  810MOL0     C 9234   6.854   2.809   2.640  0.0327  0.3805 -1.2490
  810MOL0     C 9235   6.708   2.808   2.617  1.4519  0.3996  0.5524
  810MOL0     C 9236   6.620   2.833   2.744  0.6665  0.1553 -0.3540
  810MOL0     C 9237   6.474   2.861   2.721  0.2317  0.1157  0.5333
  810MOL0     C 9238   6.406   2.883   2.856 -0.1621  0.5183  0.4409
  810MOL0     O 9239   6.275   2.941   2.836  0.3322 -0.7887  0.7390
  810MOL0     C 9240   6.167   2.870   2.874  0.0411  1.0880 -1.0285
  810MOL0     C 9241   6.165   2.732   2.914 -0.8884  0.5523 -0.1118
  810MOL0     C 9242   6.039   2.669   2.936 -0.7251 -0.4607  1.6508
  810MOL0     C 9243   6.039   2.531   2.998  0.3248  0.4105 -0.0027
  810MOL0     C 9244   5.919   2.730   2.905 -0.5904 -0.0476 -0.5682
  810MOL0     C 9245   5.781   2.664   2.912  0.2886 -0.4319  0.7251
  810MOL0     O 9246   5.690   2.728   2.839  0.5768  0.2378  0.2670
  810MOL0     C 9247   5.558   2.713   2.873 -0.2391 -0.4066  0.2446
  810MOL0     C 9248   5.501   2.712   3.002 -0.1353 -0.3768  0.5224
  810MOL0     C 9249   5.357   2.710   3.018  0.0512  0.8320  0.0201
  810MOL0     C 9250   5.276   2.702   2.903  0.3785 -0.3222 -1.1596
  810MOL0     O 9251   5.148   2.699   2.916 -0.1584 -0.2455  0.4009
  810MOL0     C 9252   5.058   2.692   2.806 -1.0563 -0.2994  0.2513
  810MOL0     C 9253   4.913   2.719   2.849  0.0664 -0.2372  0.6462
  810MOL0     C 9254   4.877   2.621   2.957 -0.3329 -0.1467 -0.7235
  810MOL0     C 9255   4.727   2.630   2.986 -0.5847 -0.4991 -0.6918
  810MOL0     C 9256   4.689   2.527   3.103 -0.0666 -0.3543  0.2399
  810MOL0     C 9257   4.752   2.576   3.231  0.3836  0.7733  0.4163
  810MOL0     C 9258   4.735   2.483   3.354 -0.0626 -0.7988 -0.5500
  810MOL0     C 9259   4.872   2.426   3.399  0.1921  0.4918 -0.1257
  810MOL0    Cl 9260   4.881   2.260   3.336 -0.3779 -0.2689 -0.3662
  810MOL0     C 9261   5.328   2.714   2.775 -0.7977  0.2590  0.8748
  810MOL0     C 9262   5.469   2.721   2.759 -0.0411  0.5261 -0.4329
  810MOL0     O 9263   5.754   2.574   2.992  0.0766 -0.2041 -0.0570
  810MOL0     C 9264   5.926   2.864   2.868 -1.2199  0.7772 -0.0343
  810MOL0     C 9265   6.043   2.931   2.845 -0.8078 -0.6949  0.4423
  810MOL0     N 9266   6.944   2.810   2.535  0.2026 -0.4021 -1.0636
  810MOL0     N 9267   7.063   2.817   2.590 -0.3268 -0.1763  0.3222
  810MOL0     C 9268   7.725   2.615   3.255  0.1744 -0.8684  0.1039
  810MOL0     C 9269   7.633   2.507   3.266 -0.4002  0.4793 -0.5761
  810MOL0     C 9270   7.241   2.257   3.191  1.1966  0.3455 -0.3946
  810MOL0     C 9271   7.103   2.264   3.154 -0.6475  0.1773  0.4228
  810MOL0     C 9272   7.007   2.171   3.187  0.2590 -0.0537  0.9513
  810MOL0     C 9273   7.046   2.061   3.268 -0.0700  0.0192  0.3325
  810MOL0     O 9274   6.947   1.970   3.300 -0.0582  0.3315  0.4359
  810MOL0     C 9275   6.984   1.849   3.375 -1.1573  0.1722  0.2935
  810MOL0     C 9276   6.868   1.748   3.368 -0.4279  0.6573 -0.6944
  810MOL0     C 9277   6.833   1.687   3.230  0.2948 -0.5889  0.3928
  810MOL0     C 9278   6.714   1.596   3.221  0.2479 -0.0490 -0.3159
  810MOL0     C 9279   6.668   1.575   3.087  0.5575 -0.1482 -0.0819
  810MOL0     C 9280   6.634   1.576   2.977 -0.6988  0.6033  0.6063
  810MOL0     C 9281   7.182   2.055   3.313 -0.4832  0.8782  0.2758
  810MOL0     C 9282   7.272   2.144   3.270 -1.2169  0.6676 -0.3292
  810MOL0     H 9283   7.500   2.506   2.959  1.0402 -1.2687 -0.0475
  810MOL0     H 9284   7.655   2.698   2.936  1.5235  0.2012  0.1208
  810MOL0     H 9285   7.923   2.945   3.067 -0.5379  1.5894  1.2334
  810MOL0     H 9286   7.788   2.873   2.966  0.7201  1.3360  1.0240
  810MOL0     H 9287   7.738   3.005   3.221  4.4685 -0.9599 -0.4732
  810MOL0     H 9288   7.735   3.094   3.065 -3.3205 -0.3461 -1.3668
  810MOL0     H 9289   7.596   2.942   2.964  1.1897 -0.5771 -0.1228
  810MOL0     H 9290   7.538   2.863   3.099 -2.6807  0.7334 -2.0939
  810MOL0     H 9291   7.473   3.102   3.212 -1.1108 -2.0567  1.6232
  810MOL0     H 9292   7.523   3.176   3.071  1.0756 -0.1071  2.6324
  810MOL0     H 9293   7.273   3.069   3.135 -2.6795 -1.4126 -2.0550
  810MOL0     H 9294   7.305   3.161   2.992  0.0394 -0.2513 -1.1443
  810MOL0     H 9295   7.373   2.918   2.896 -1.9870 -0.9586 -1.6046
  810MOL0     H 9296   7.321   2.857   3.044  0.5727 -0.9302 -1.6721
  810MOL0     H 9297   7.076   2.941   2.972 -1.6480  2.8621 -1.9703
  810MOL0     H 9298   7.164   3.020   2.842  1.4617  0.5777  1.1284
  810MOL0     H 9299   7.146   2.722   2.879 -1.9181 -0.9253 -1.1325
  810MOL0     H 9300   7.270   2.798   2.784  0.9927 -0.9377  0.8435
  810MOL0     H 9301   6.874   2.817   2.853 -0.2759 -2.3241 -1.2720
  810MOL0     H 9302   6.696   2.892   2.548  1.4946 -1.0015 -1.2363
  810MOL0     H 9303   6.678   2.723   2.555  0.3033  0.7568  0.6020
  810MOL0     H 9304   6.662   2.913   2.806 -3.6216 -0.8930  4.6405
  810MOL0     H 9305   6.636   2.743   2.803 -2.6029 -0.4321 -0.1616
  810MOL0     H 9306   6.424   2.778   2.669 -0.7751  1.7966 -1.3054
  810MOL0     H 9307   6.472   2.956   2.667  2.2171  1.1132  2.0814
  810MOL0     H 9308   6.464   2.955   2.915 -1.0886  0.2895  1.6646
  810MOL0     H 9309   6.403   2.787   2.907  0.2273 -0.8870 -2.0209
  810MOL0     H 9310   6.253   2.669   2.927 -0.9219 -0.0407 -2.3249
  810MOL0     H 9311   6.024   2.449   2.928  0.0617  0.9231 -0.5601
  810MOL0     H 9312   6.129   2.517   3.059 -1.4032 -2.4162  2.1789
  810MOL0     H 9313   5.965   2.518   3.078  1.6560 -2.3567  0.8814
  810MOL0     H 9314   5.565   2.717   3.089  0.0758 -0.9545  0.4069
  810MOL0     H 9315   5.296   2.704   3.108  0.1105 -2.5471 -0.0111
  810MOL0     H 9316   5.083   2.775   2.740  0.8374 -0.2328  0.9789
  810MOL0     H 9317   5.066   2.590   2.769  2.7132  0.1016 -0.4271
  810MOL0     H 9318   4.897   2.822   2.882 -3.6641 -0.8595  1.1819
  810MOL0     H 9319   4.854   2.705   2.758  2.5654 -0.4000 -1.0626
  810MOL0     H 9320   4.920   2.651   3.053 -3.7189 -1.2556  1.3094
  810MOL0     H 9321   4.911   2.520   2.934 -0.0101  0.3123 -2.4390
  810MOL0     H 9322   4.698   2.728   3.025 -0.2770 -0.0676 -1.5270
  810MOL0     H 9323   4.670   2.622   2.893 -0.3274  2.3412 -1.1938
  810MOL0     H 9324   4.723   2.425   3.083  0.6195 -0.0247 -0.2795
  810MOL0     H 9325   4.581   2.513   3.109  0.1708 -2.2163  0.8062
  810MOL0     H 9326   4.854   2.617   3.224  1.6840 -1.8901  2.0400
  810MOL0     H 9327   4.688   2.662   3.252 -2.1228 -1.2340  1.6200
  810MOL0     H 9328   4.666   2.401   3.332  1.1802 -1.7295 -1.1210
  810MOL0     H 9329   4.694   2.541   3.438 -0.7964 -0.9509 -0.7990
  810MOL0     H 9330   4.866   2.410   3.508 -2.6568 -1.7862 -0.4851
  810MOL0     H 9331   4.954   2.491   3.367  0.1881  1.6105  1.9479
  810MOL0     H 9332   5.271   2.711   2.682  1.2365 -3.4346 -0.4648
  810MOL0     H 9333   5.513   2.715   2.660  0.4175  1.6513 -0.3144
  810MOL0     H 9334   5.841   2.931   2.853 -0.0522  2.5037  0.7809
  810MOL0     H 9335   6.044   3.031   2.801 -1.2851  0.3035  2.5703
  810MOL0     H 9336   7.793   2.639   3.337  0.5826  1.5861 -0.8852
  810MOL0     H 9337   7.616   2.467   3.365 -3.1464  2.3470 -0.1770
  810MOL0     H 9338   7.084   2.340   3.078  1.6220 -0.7753 -1.2348
  810MOL0     H 9339   6.907   2.173   3.144  0.5559 -0.4670  0.2275
  810MOL0     H 9340   7.077   1.799   3.345 -2.7639 -0.7830 -3.7129
  810MOL0     H 9341   6.989   1.881   3.480  1.6067 -0.9654  0.6016
  810MOL0     H 9342   6.774   1.786   3.409  1.3083  1.4828  2.9525
  810MOL0     H 9343   6.894   1.666   3.435  2.7399 -0.2897 -2.8310
  810MOL0     H 9344   6.923   1.634   3.197  0.1947  0.8777 -2.5543
  810MOL0     H 9345   6.810   1.780   3.177 -1.2002  0.2582  2.3816
  810MOL0     H 9346   6.642   1.640   3.291  0.2433 -1.6988  0.7698
  810MOL0     H 9347   6.729   1.496   3.262 -2.9808  0.1585  1.7080
  810MOL0     H 9348   6.585   1.577   2.881  0.6209 -2.7619 -0.2389
  810MOL0     H 9349   7.213   1.965   3.367 -2.5156 -1.0191 -1.5197
  810MOL0     H 9350   7.371   2.111   3.299 -2.6001 -2.0750  1.6721
  811MOL0     O 9351   0.437   9.806   1.899 -0.9071  0.3259 -0.5178
  811MOL0     C 9352   0.363   9.811   1.999 -0.1195  0.7903 -0.6325
  811MOL0     O 9353   0.347   9.927   2.070 -0.2854  0.2281  0.1330
  811MOL0     C 9354   0.412  10.044   2.032  0.3492 -0.0434  0.7897
  811MOL0     C 9355   0.351  10.170   2.054  0.2293  0.2324 -0.9207
  811MOL0     C 9356   0.411  10.298   2.040 -0.5246 -0.0535  0.3892
  811MOL0     C 9357   0.552  10.294   2.015 -0.0897 -0.7935  0.2418
  811MOL0     O 9358   0.628  10.407   1.991  0.6691  0.2348  0.2691
  811MOL0     C 9359   0.558  10.518   1.929 -0.0390 -1.0544  0.0451
  811MOL0     C 9360   0.667  10.609   1.863  0.4343  0.3060 -0.3309
  811MOL0     C 9361   0.705  10.566   1.724 -0.0321  0.0353  0.2225
  811MOL0     C 9362   0.846  10.614   1.684  1.1332 -0.2737 -0.4008
  811MOL0     C 9363   0.889  10.597   1.546 -0.3836 -0.0473 -0.3239
  811MOL0     C 9364   1.040  10.624   1.533 -0.4361 -0.2418  0.1942
  811MOL0     C 9365   1.069  10.634   1.382 -1.0727  0.2541 -0.3367
  811MOL0     C 9366   1.214  10.666   1.349  0.4987 -0.0400 -0.0155
  811MOL0     N 9367   1.240  10.813   1.361  0.4828 -0.1062  0.1145
  811MOL0     C 9368   1.194  10.916   1.284 -0.1998  0.7824  0.2117
  811MOL0     C 9369   1.239  11.033   1.335 -1.1781  0.3243  0.4070
  811MOL0     C 9370   1.226  11.168   1.264 -0.1350  0.6033 -0.0789
  811MOL0     C 9371   1.364  11.231   1.253 -0.1041  0.3904  0.1774
  811MOL0     C 9372   1.441  11.155   1.151 -0.3340 -0.4491 -0.9691
  811MOL0     C 9373   1.495  11.016   1.171  0.7780 -0.4249  0.1557
  811MOL0     O 9374   1.610  11.000   1.084  0.3989  0.2697  0.3447
  811MOL0     C 9375   1.685  10.886   1.091  0.8219  0.7788 -0.1895
  811MOL0     C 9376   1.795  10.876   1.010 -0.4444  0.2672 -0.0610
  811MOL0     C 9377   1.882  10.772   1.000  0.6003 -0.1759  0.2596
  811MOL0     C 9378   2.014  10.801   0.929 -0.1535  0.2306 -0.0647
  811MOL0     C 9379   1.852  10.646   1.071  0.4394  0.8226  0.4221
  811MOL0     C 9380   1.946  10.532   1.092 -0.8705  0.0872 -0.3118
  811MOL0     O 9381   1.976  10.501   1.222 -0.2789 -0.4042 -0.5741
  811MOL0     C 9382   2.093  10.429   1.238  0.2973  0.2870  0.0615
  811MOL0     C 9383   2.100  10.293   1.278 -0.5404 -0.4251 -0.0367
  811MOL0     C 9384   2.221  10.226   1.288 -0.1432  0.5225  0.2059
  811MOL0     C 9385   2.341  10.289   1.289 -0.3561 -0.5377 -0.5704
  811MOL0     O 9386   2.462  10.216   1.291 -0.5883  0.0891  0.4009
  811MOL0     C 9387   2.590  10.278   1.312  0.1201 -0.2807  0.5100
  811MOL0     C 9388   2.696  10.173   1.317 -0.2506  1.2354 -0.1239
  811MOL0     C 9389   2.690  10.084   1.184 -0.1135  0.4966 -0.6161
  811MOL0     C 9390   2.737  10.140   1.045 -0.5755 -0.5007 -0.1518
  811MOL0     C 9391   2.690  10.061   0.920  0.3907 -0.4499  0.6753
  811MOL0     C 9392   2.760   9.929   0.917  0.3484  0.1355 -0.2218
  811MOL0     C 9393   2.728   9.843   0.785 -0.1406 -0.3343 -0.3593
  811MOL0     C 9394   2.801   9.702   0.800  0.4468  0.2589  0.7312
  811MOL0    Cl 9395   2.974   9.745   0.836 -0.6146 -0.0526  0.1167
  811MOL0     C 9396   2.338  10.429   1.292  0.5515  0.1761  0.6749
  811MOL0     C 9397   2.220  10.497   1.255 -0.7650 -0.4662 -0.0529
  811MOL0     O 9398   2.009  10.491   0.992  0.4820  0.8473  0.1166
  811MOL0     C 9399   1.732  10.646   1.145 -0.6350 -0.3138 -0.8752
  811MOL0     C 9400   1.651  10.759   1.155  0.4437 -0.5046 -0.4132
  811MOL0     N 9401   1.311  10.997   1.452 -0.0181  0.6389  0.0215
  811MOL0     N 9402   1.313  10.875   1.464 -0.0409  0.1451 -0.5539
  811MOL0     C 9403   0.611  10.177   1.993 -0.0956 -0.2117 -0.1445
  811MOL0     C 9404   0.548  10.054   1.993  0.8685  1.3747  0.2968
  811MOL0     C 9405   0.294   9.693   2.047 -0.0009  0.8983 -0.4141
  811MOL0     C 9406   0.218   9.691   2.167 -0.2394 -0.2924  0.3185
  811MOL0     C 9407   0.139   9.580   2.191 -0.4351  0.9884 -0.5501
  811MOL0     C 9408   0.124   9.470   2.102 -0.1706 -1.0647  0.2054
  811MOL0     O 9409   0.052   9.353   2.129  0.6439 -0.8138 -0.5994
  811MOL0     C 9410  -0.053   9.352   2.236 -0.3150 -0.4972  0.0431
  811MOL0     C 9411  -0.130   9.223   2.226 -0.7070 -0.5428 -0.0842
  811MOL0     C 9412  -0.061   9.099   2.287  0.1839  0.2324 -0.7391
  811MOL0     C 9413   0.077   9.070   2.233  0.2702  0.1595  1.0339
  811MOL0     C 9414   0.128   8.942   2.275  0.7130  0.3996 -0.1088
  811MOL0     C 9415   0.178   8.831   2.301  0.7701 -1.2921  0.4784
  811MOL0     C 9416   0.200   9.469   1.981 -0.6763  0.3372 -0.9132
  811MOL0     C 9417   0.283   9.578   1.963  0.4393 -0.9790 -0.3329
  811MOL0     H 9418   0.247  10.173   2.085  0.3628  4.2312 -0.3668
  811MOL0     H 9419   0.353  10.389   2.046 -0.5688 -0.0407 -0.1286
  811MOL0     H 9420   0.487  10.488   1.851 -0.7731 -0.3926  0.4498
  811MOL0     H 9421   0.516  10.576   2.011  0.8053 -2.3180  1.4274
  811MOL0     H 9422   0.632  10.712   1.861 -2.0215 -0.3455  2.5254
  811MOL0     H 9423   0.759  10.615   1.922 -0.0349  1.3654  0.3097
  811MOL0     H 9424   0.704  10.457   1.721 -0.0569 -0.0049 -4.3829
  811MOL0     H 9425   0.621  10.599   1.662 -2.6800 -3.9171  1.3419
  811MOL0     H 9426   0.858  10.721   1.706 -0.3138 -0.7700  3.4532
  811MOL0     H 9427   0.919  10.568   1.750 -0.5054  1.6659  3.0064
  811MOL0     H 9428   0.884  10.493   1.512 -0.6812 -1.0602  2.5947
  811MOL0     H 9429   0.820  10.657   1.485 -1.4713  1.4964  2.2770
  811MOL0     H 9430   1.057  10.719   1.585  0.9151 -1.7939  2.8294
  811MOL0     H 9431   1.107  10.557   1.587  0.2492  0.7306  0.5781
  811MOL0     H 9432   1.043  10.540   1.332  0.1426  0.4091 -1.3081
  811MOL0     H 9433   1.015  10.719   1.339  0.3984  0.7654 -1.2595
  811MOL0     H 9434   1.231  10.628   1.248  1.5447  0.0877  0.1045
  811MOL0     H 9435   1.295  10.617   1.403  1.9416  1.7301 -0.4819
  811MOL0     H 9436   1.145  10.909   1.188 -1.0499 -0.5068  0.7173
  811MOL0     H 9437   1.177  11.169   1.166  0.5557 -0.7896 -0.4595
  811MOL0     H 9438   1.167  11.229   1.333 -2.9800  0.3926 -2.1510
  811MOL0     H 9439   1.422  11.224   1.346 -0.2635  1.7862  0.4117
  811MOL0     H 9440   1.361  11.335   1.218 -0.1159  0.0813 -0.7515
  811MOL0     H 9441   1.524  11.219   1.121  0.6773  0.0380  2.4242
  811MOL0     H 9442   1.374  11.154   1.064  0.7808  0.4394 -1.8579
  811MOL0     H 9443   1.417  10.951   1.132  0.1781 -0.5446  1.4891
  811MOL0     H 9444   1.505  10.997   1.279 -0.5848 -0.7501  0.2347
  811MOL0     H 9445   1.803  10.970   0.956  1.5130 -0.5923 -1.3847
  811MOL0     H 9446   2.053  10.725   0.861 -1.4958 -2.1869  1.7288
  811MOL0     H 9447   2.006  10.893   0.870  2.2948 -0.0510 -0.9456
  811MOL0     H 9448   2.096  10.820   0.998  1.8927 -1.7569 -1.7947
  811MOL0     H 9449   2.012  10.230   1.274  0.6240 -2.0875 -0.9670
  811MOL0     H 9450   2.216  10.118   1.296  0.3468  0.3901 -1.0798
  811MOL0     H 9451   2.607  10.351   1.233 -3.0451  1.4845  1.2667
  811MOL0     H 9452   2.590  10.335   1.405  5.0186  1.7130 -0.4076
  811MOL0     H 9453   2.793  10.223   1.321 -0.0506  0.7738  0.9734
  811MOL0     H 9454   2.678  10.111   1.405  2.6124 -0.5305 -0.6487
  811MOL0     H 9455   2.590  10.042   1.170 -0.7930  1.2825  1.4609
  811MOL0     H 9456   2.755   9.999   1.209  3.6807  1.9728 -4.3374
  811MOL0     H 9457   2.719  10.247   1.033  2.3741  0.4471  2.6191
  811MOL0     H 9458   2.845  10.125   1.048 -0.8122 -2.2787  1.2945
  811MOL0     H 9459   2.723  10.125   0.837 -1.3800 -2.6433 -1.9020
  811MOL0     H 9460   2.582  10.055   0.935  0.2959  2.8191  2.0905
  811MOL0     H 9461   2.865   9.960   0.920  0.2052  0.8102 -1.5689
  811MOL0     H 9462   2.729   9.879   1.010  1.6269 -0.4391 -0.0826
  811MOL0     H 9463   2.775   9.905   0.709  0.7619  0.5981  0.9070
  811MOL0     H 9464   2.621   9.825   0.769 -0.4412 -0.3099  1.4192
  811MOL0     H 9465   2.797   9.647   0.706 -0.7137  0.9979  0.3177
  811MOL0     H 9466   2.755   9.643   0.880 -1.4608  2.3403  1.2789
  811MOL0     H 9467   2.426  10.489   1.313 -0.3406  1.4661  0.8078
  811MOL0     H 9468   2.202  10.602   1.231  0.6084 -0.0712  0.5459
  811MOL0     H 9469   1.697  10.556   1.194 -0.7011  0.4265  0.4923
  811MOL0     H 9470   1.571  10.764   1.228  2.0548  1.9614  1.3173
  811MOL0     H 9471   0.718  10.181   1.973 -0.3703 -1.0367 -1.9476
  811MOL0     H 9472   0.609   9.965   1.984  2.7616  2.5340  1.1735
  811MOL0     H 9473   0.224   9.770   2.241 -2.5527  1.3851 -1.1451
  811MOL0     H 9474   0.086   9.581   2.286  1.1654 -1.4363  0.4546
  811MOL0     H 9475  -0.010   9.363   2.336  1.0707  2.1583 -0.7376
  811MOL0     H 9476  -0.121   9.437   2.222 -1.6901 -1.4806  0.4946
  811MOL0     H 9477  -0.176   9.209   2.128 -0.7463 -5.1556  0.3995
  811MOL0     H 9478  -0.206   9.249   2.301 -0.6265  0.4908 -0.3448
  811MOL0     H 9479  -0.128   9.017   2.260  0.0601  1.2592 -3.9068
  811MOL0     H 9480  -0.065   9.110   2.396  1.1724 -2.6065 -0.3118
  811MOL0     H 9481   0.144   9.149   2.266 -1.7021  0.3648  5.0774
  811MOL0     H 9482   0.085   9.058   2.124 -1.0083 -0.6821  1.0063
  811MOL0     H 9483   0.213   8.731   2.315  4.1606 -0.3127  0.0796
  811MOL0     H 9484   0.184   9.386   1.913  0.0415  1.3735 -2.3989
  811MOL0     H 9485   0.346   9.576   1.875 -0.1576  2.7544 -1.0121
  812MOL0     O 9486   2.202   6.226   4.161 -0.2415 -0.4325 -0.4996
  812MOL0     C 9487   2.244   6.200   4.054 -0.1329  0.1954 -0.4978
  812MOL0     O 9488   2.373   6.200   4.016 -0.1924 -0.3668 -0.1578
  812MOL0     C 9489   2.456   6.240   4.119 -0.4560 -0.6024  0.7571
  812MOL0     C 9490   2.457   6.368   4.176  0.5551  0.5104  0.7285
  812MOL0     C 9491   2.548   6.394   4.271  0.7635  0.0904  0.4868
  812MOL0     C 9492   2.647   6.301   4.303  0.1003  0.0384 -0.2280
  812MOL0     O 9493   2.747   6.315   4.395 -0.6020 -0.2058  0.3295
  812MOL0     C 9494   2.803   6.456   4.413 -0.0670 -0.6698  1.1127
  812MOL0     C 9495   2.943   6.461   4.477  0.2355  1.1599  0.5024
  812MOL0     C 9496   3.039   6.346   4.422 -0.4169 -0.0354  0.0030
  812MOL0     C 9497   3.143   6.315   4.527  0.0541  0.2565 -0.5332
  812MOL0     C 9498   3.236   6.195   4.486 -0.6099  0.5042 -0.8786
  812MOL0     C 9499   3.333   6.225   4.369  0.2900  0.2081  0.8201
  812MOL0     C 9500   3.427   6.100   4.355  0.4805  1.7155 -0.3732
  812MOL0     C 9501   3.472   6.086   4.206 -1.1369 -0.1562  0.1771
  812MOL0     N 9502   3.551   5.968   4.176  0.2580 -0.1618  0.3610
  812MOL0     C 9503   3.508   5.836   4.177  0.0170  0.1631  0.2774
  812MOL0     C 9504   3.606   5.764   4.106  0.0792 -0.5499  0.1834
  812MOL0     C 9505   3.589   5.628   4.043  0.1906  0.1311 -0.4421
  812MOL0     C 9506   3.532   5.521   4.147  0.1035 -0.2638  0.1711
  812MOL0     C 9507   3.378   5.503   4.152  0.2174  0.5627 -1.0532
  812MOL0     C 9508   3.341   5.375   4.227  0.6869  0.1524  1.1999
  812MOL0     O 9509   3.373   5.379   4.363 -0.0046  0.1759 -0.1407
  812MOL0     C 9510   3.437   5.250   4.383 -0.3964  0.0847 -0.2438
  812MOL0     C 9511   3.372   5.131   4.397 -0.3851  0.5434 -0.7411
  812MOL0     C 9512   3.441   5.013   4.430 -0.6228 -0.9891  0.3669
  812MOL0     C 9513   3.356   4.899   4.469  0.1820 -1.4492  0.1584
  812MOL0     C 9514   3.586   5.013   4.439 -0.1766 -0.4613 -0.1446
  812MOL0     C 9515   3.654   4.886   4.481 -0.2982 -0.3935 -0.3756
  812MOL0     O 9516   3.786   4.906   4.533  0.0341 -0.2757  0.3036
  812MOL0     C 9517   3.857   4.792   4.551  0.6624  1.0298  1.0110
  812MOL0     C 9518   3.996   4.782   4.512  0.3255 -1.0724 -0.0163
  812MOL0     C 9519   4.079   4.666   4.547 -0.1147 -0.4073  0.1148
  812MOL0     C 9520   4.021   4.557   4.608  0.5420  0.1413 -0.7441
  812MOL0     O 9521   4.085   4.437   4.641  0.5296 -0.2214 -0.1221
  812MOL0     C 9522   4.214   4.425   4.595  0.1636 -0.0122 -0.0058
  812MOL0     C 9523   4.318   4.491   4.691  0.1920 -0.2715 -0.2297
  812MOL0     C 9524   4.471   4.466   4.646  0.1026 -0.0454 -0.5504
  812MOL0     C 9525   4.500   4.511   4.504  0.2806  0.4791  0.1482
  812MOL0     C 9526   4.644   4.479   4.464 -0.6830 -0.3200  0.0545
  812MOL0     C 9527   4.733   4.596   4.508  0.3045  0.2501 -0.5648
  812MOL0     C 9528   4.874   4.612   4.438  0.2583  0.9315  0.2970
  812MOL0     C 9529   4.979   4.521   4.481  0.8253 -0.0649 -0.4211
  812MOL0    Cl 9530   5.032   4.565   4.649  0.2105 -0.3363 -0.1957
  812MOL0     C 9531   3.889   4.575   4.649  0.0333 -0.5605  0.1280
  812MOL0     C 9532   3.811   4.683   4.629 -0.3545 -0.0995  1.0262
  812MOL0     O 9533   3.602   4.772   4.466 -0.3631 -0.4106  0.2505
  812MOL0     C 9534   3.646   5.138   4.438  1.7871 -0.0549  0.2384
  812MOL0     C 9535   3.575   5.254   4.404  1.3877 -0.3556  0.4206
  812MOL0     N 9536   3.709   5.858   4.081 -0.1933  1.0095  0.1446
  812MOL0     N 9537   3.682   5.975   4.131 -0.3101  0.1256 -0.4688
  812MOL0     C 9538   2.637   6.173   4.262 -0.4637 -1.6963  0.1638
  812MOL0     C 9539   2.552   6.146   4.157  0.0515 -0.2647  0.0546
  812MOL0     C 9540   2.145   6.155   3.957 -0.0086 -0.1820 -0.7033
  812MOL0     C 9541   2.013   6.205   3.949  0.4313  0.7662 -0.8265
  812MOL0     C 9542   1.924   6.159   3.847  0.1805 -0.3367  0.3139
  812MOL0     C 9543   1.972   6.074   3.737 -0.3826 -0.0607 -0.3793
  812MOL0     O 9544   1.880   6.045   3.640  0.5542  0.3755  0.2592
  812MOL0     C 9545   1.937   5.977   3.529 -0.4786 -0.1555  0.7975
  812MOL0     C 9546   1.831   5.891   3.438 -0.1623 -0.2767 -0.6188
  812MOL0     C 9547   1.728   5.805   3.508  0.4436  1.0297  0.5366
  812MOL0     C 9548   1.647   5.710   3.408 -0.2850 -0.4131  0.5077
  812MOL0     C 9549   1.553   5.626   3.479 -0.3937 -0.0752  0.7254
  812MOL0     C 9550   1.444   5.564   3.515 -0.7703  0.0954  0.2925
  812MOL0     C 9551   2.107   6.042   3.742 -0.5968  0.8667  0.8092
  812MOL0     C 9552   2.189   6.073   3.853  0.6408 -0.5466  0.5187
  812MOL0     H 9553   2.379   6.442   4.155  3.5512  3.9659  0.7695
  812MOL0     H 9554   2.543   6.496   4.309  0.6828  0.7888 -1.3283
  812MOL0     H 9555   2.816   6.504   4.316 -0.9776  0.1499  1.3827
  812MOL0     H 9556   2.739   6.506   4.487 -1.3504 -0.9828  0.2369
  812MOL0     H 9557   2.981   6.563   4.470  0.0269  1.1583 -1.1263
  812MOL0     H 9558   2.939   6.432   4.582  0.5228 -2.4287 -0.3389
  812MOL0     H 9559   2.988   6.251   4.404  0.6125 -0.5839 -0.0756
  812MOL0     H 9560   3.084   6.380   4.328 -1.4339  0.8751 -0.1769
  812MOL0     H 9561   3.214   6.393   4.556  1.7634 -1.1144 -0.8549
  812MOL0     H 9562   3.094   6.286   4.621  1.2527 -3.7879 -0.9688
  812MOL0     H 9563   3.300   6.183   4.574  1.0378  2.0543 -1.8048
  812MOL0     H 9564   3.181   6.103   4.466  1.0897  0.0257 -3.7633
  812MOL0     H 9565   3.281   6.215   4.273  0.3615 -3.8202  1.0437
  812MOL0     H 9566   3.378   6.322   4.390  1.7735  0.1554 -1.7858
  812MOL0     H 9567   3.514   6.109   4.421 -0.2023  2.0857  0.4977
  812MOL0     H 9568   3.372   6.011   4.387 -2.1037  3.1977 -0.4759
  812MOL0     H 9569   3.528   6.175   4.175 -1.0125 -0.6572 -1.0938
  812MOL0     H 9570   3.387   6.082   4.137 -0.0276  0.0564 -1.2277
  812MOL0     H 9571   3.408   5.800   4.200 -1.4842  3.7475 -0.0318
  812MOL0     H 9572   3.532   5.629   3.950  0.4615  0.6235 -0.6032
  812MOL0     H 9573   3.690   5.589   4.026  1.0403  0.8614  2.3544
  812MOL0     H 9574   3.580   5.540   4.243 -0.0510 -1.4204  0.4949
  812MOL0     H 9575   3.583   5.430   4.111 -0.7147 -0.0777 -1.5896
  812MOL0     H 9576   3.326   5.523   4.058 -0.7815  0.3979 -0.5427
  812MOL0     H 9577   3.328   5.574   4.218 -1.3003 -0.9569 -0.5254
  812MOL0     H 9578   3.384   5.302   4.158  5.0474  2.5211  1.0847
  812MOL0     H 9579   3.232   5.365   4.233  0.7138 -2.0192 -0.7400
  812MOL0     H 9580   3.264   5.131   4.402 -0.3433 -0.5813  1.0473
  812MOL0     H 9581   3.366   4.825   4.388  1.3658 -1.0522 -0.0808
  812MOL0     H 9582   3.385   4.850   4.563  2.3167  0.8146  0.7828
  812MOL0     H 9583   3.256   4.939   4.487  0.8405  0.4227 -0.0931
  812MOL0     H 9584   4.043   4.866   4.461  0.8463  0.1742  2.3543
  812MOL0     H 9585   4.185   4.656   4.526  0.4032  1.2956  1.5948
  812MOL0     H 9586   4.234   4.318   4.581  3.2336  0.5881 -0.7863
  812MOL0     H 9587   4.231   4.463   4.494 -1.2030 -2.7449 -1.3891
  812MOL0     H 9588   4.288   4.595   4.707 -0.3833 -0.6901  1.6243
  812MOL0     H 9589   4.303   4.441   4.788 -0.8432  0.1794 -0.1447
  812MOL0     H 9590   4.500   4.362   4.664 -1.5242 -0.5177 -0.5188
  812MOL0     H 9591   4.536   4.534   4.702 -1.2578  0.0776  0.9589
  812MOL0     H 9592   4.429   4.456   4.440 -2.3363  0.2557  3.0265
  812MOL0     H 9593   4.479   4.615   4.478  0.6820  0.5038 -0.1015
  812MOL0     H 9594   4.657   4.491   4.356 -1.2900 -0.2871 -0.0195
  812MOL0     H 9595   4.691   4.383   4.486  0.4039 -0.7931 -3.6840
  812MOL0     H 9596   4.667   4.684   4.501 -0.5763 -0.4652 -1.7327
  812MOL0     H 9597   4.748   4.583   4.615  1.2451 -0.2084 -0.7415
  812MOL0     H 9598   4.913   4.711   4.465  1.6332  0.5180 -0.0971
  812MOL0     H 9599   4.862   4.608   4.329  0.7686 -2.2198  0.2833
  812MOL0     H 9600   5.058   4.515   4.405  1.5156 -0.3801  0.3112
  812MOL0     H 9601   4.937   4.420   4.479  0.0234  0.0302  3.5186
  812MOL0     H 9602   3.841   4.488   4.693 -2.8133  0.5322 -0.6247
  812MOL0     H 9603   3.706   4.675   4.656 -0.4784  2.4459  1.4963
  812MOL0     H 9604   3.749   5.150   4.469  1.9773 -1.4460  0.2007
  812MOL0     H 9605   3.635   5.342   4.384  6.7839 -3.5252  0.4995
  812MOL0     H 9606   2.711   6.102   4.296  2.1386  0.0745 -1.4292
  812MOL0     H 9607   2.536   6.044   4.124  0.4614 -1.2030  2.5790
  812MOL0     H 9608   1.970   6.269   4.025 -1.8244 -1.0653 -0.4470
  812MOL0     H 9609   1.825   6.202   3.834  0.5357  0.5434  0.4658
  812MOL0     H 9610   1.998   6.040   3.465 -0.1237  0.4565  1.7173
  812MOL0     H 9611   2.005   5.900   3.568 -1.7691 -0.5204  2.4672
  812MOL0     H 9612   1.896   5.841   3.367  0.3638  0.2002 -0.4832
  812MOL0     H 9613   1.765   5.956   3.380 -0.7324  0.6907  1.0241
  812MOL0     H 9614   1.661   5.873   3.560 -0.7146  2.2267 -2.3314
  812MOL0     H 9615   1.779   5.729   3.568  2.5627  1.6718 -0.3488
  812MOL0     H 9616   1.729   5.664   3.353  1.5993  1.8979  1.2550
  812MOL0     H 9617   1.597   5.780   3.340  0.4133 -0.3223  0.0824
  812MOL0     H 9618   1.353   5.520   3.552  0.3344 -0.8653  2.0208
  812MOL0     H 9619   2.148   5.984   3.660  0.0096  1.7291  0.4897
  812MOL0     H 9620   2.292   6.041   3.846  0.4194 -1.1601 -0.0634
  813MOL0     O 9621   5.236   0.345   3.871  0.3250 -0.3782 -0.3293
  813MOL0     C 9622   5.245   0.292   3.759  0.7190  0.2191 -0.5399
  813MOL0     O 9623   5.270   0.362   3.645 -0.3356 -0.0820  0.5085
  813MOL0     C 9624   5.270   0.502   3.659 -0.7004  1.1137 -0.1140
  813MOL0     C 9625   5.148   0.570   3.661  0.2947 -0.0354  0.0225
  813MOL0     C 9626   5.155   0.706   3.674 -0.1490 -0.4394 -0.3849
  813MOL0     C 9627   5.281   0.780   3.667 -0.3578 -0.3634 -0.2578
  813MOL0     O 9628   5.273   0.925   3.664 -0.2846  0.4604  0.8751
  813MOL0     C 9629   5.391   0.999   3.694  0.4368  0.5805  0.0808
  813MOL0     C 9630   5.348   1.148   3.716 -0.4679  0.1383 -1.0978
  813MOL0     C 9631   5.448   1.226   3.792 -0.9808 -0.1095  0.1431
  813MOL0     C 9632   5.440   1.215   3.945  0.5670 -0.5035  0.8859
  813MOL0     C 9633   5.557   1.302   4.000 -0.4272  0.1520 -0.2933
  813MOL0     C 9634   5.580   1.276   4.153 -0.0471  0.4816 -0.4594
  813MOL0     C 9635   5.469   1.336   4.245  0.0962  0.3959 -0.6258
  813MOL0     C 9636   5.520   1.363   4.390 -0.2225  0.2911  0.9663
  813MOL0     N 9637   5.425   1.437   4.452  0.3666  0.2929 -0.8931
  813MOL0     C 9638   5.326   1.385   4.540 -0.5358  0.3362  0.1113
  813MOL0     C 9639   5.266   1.488   4.586 -0.3290  0.2301 -0.5158
  813MOL0     C 9640   5.158   1.481   4.690  0.3680 -0.2913  0.1625
  813MOL0     C 9641   5.180   1.569   4.814  0.3000  0.8661 -0.0427
  813MOL0     C 9642   5.044   1.605   4.876  0.1723  1.1900 -0.4435
  813MOL0     C 9643   5.061   1.693   5.007 -0.2233  1.0260  1.1379
  813MOL0     O 9644   4.951   1.668   5.095 -0.4513 -0.1230 -0.2822
  813MOL0     C 9645   4.829   1.721   5.074  0.5999  0.4211 -0.4930
  813MOL0     C 9646   4.778   1.785   4.968 -0.4870  0.2540 -0.8328
  813MOL0     C 9647   4.650   1.836   4.969 -0.5972  1.7133 -0.2441
  813MOL0     C 9648   4.616   1.917   4.845  0.1515  0.3619  0.1800
  813MOL0     C 9649   4.569   1.802   5.084  1.3656 -0.5454  0.1846
  813MOL0     C 9650   4.424   1.835   5.086  0.0479  0.3581 -0.5551
  813MOL0     O 9651   4.358   1.822   5.201 -0.0197 -0.8058 -0.5081
  813MOL0     C 9652   4.221   1.849   5.213  0.7325 -0.6770  0.2156
  813MOL0     C 9653   4.169   1.830   5.345  0.6524  0.3255  0.1488
  813MOL0     C 9654   4.038   1.856   5.388  0.1089 -0.4341 -0.4943
  813MOL0     C 9655   3.953   1.918   5.296 -0.3675 -1.0827 -0.5162
  813MOL0     O 9656   3.827   1.953   5.332  0.2686  0.1010  0.1729
  813MOL0     C 9657   3.752   2.061   5.285  0.2251  0.0124  0.1358
  813MOL0     C 9658   3.648   2.104   5.389  0.3096  0.1063 -0.6033
  813MOL0     C 9659   3.699   2.205   5.495 -0.1178  0.4727 -0.0066
  813MOL0     C 9660   3.570   2.279   5.557 -0.1417  0.2527 -0.1899
  813MOL0     C 9661   3.496   2.197   5.657 -0.4844 -0.6633 -0.5311
  813MOL0     C 9662   3.403   2.278   5.740  0.8180 -0.3480  0.4982
  813MOL0     C 9663   3.303   2.201   5.824 -0.3053  0.6525  0.9497
  813MOL0     C 9664   3.201   2.294   5.881  0.2487 -0.6406 -0.1857
  813MOL0    Cl 9665   3.060   2.224   5.962  0.0418 -0.2108  0.0904
  813MOL0     C 9666   4.001   1.949   5.168 -0.9567  0.2802 -0.6506
  813MOL0     C 9667   4.133   1.916   5.126  0.1487 -0.2741 -0.2340
  813MOL0     O 9668   4.368   1.843   4.976 -0.1744 -0.1001 -0.2748
  813MOL0     C 9669   4.623   1.751   5.197  0.2491  0.2963 -0.8021
  813MOL0     C 9670   4.756   1.712   5.189  0.5847 -0.1598  0.0457
  813MOL0     N 9671   5.308   1.600   4.522  0.4181 -0.2107 -0.1939
  813MOL0     N 9672   5.396   1.567   4.434 -0.2285 -0.5111  1.1036
  813MOL0     C 9673   5.399   0.702   3.672 -0.1636 -0.5468 -0.2295
  813MOL0     C 9674   5.394   0.560   3.664 -0.0444  0.5095 -0.3725
  813MOL0     C 9675   5.279   0.152   3.759 -0.8638  0.4706  0.3952
  813MOL0     C 9676   5.307   0.094   3.635  0.2159  0.0038  0.6317
  813MOL0     C 9677   5.350  -0.039   3.624  1.0772 -0.0156 -0.6409
  813MOL0     C 9678   5.363  -0.121   3.736 -0.3324  0.7803 -1.4499
  813MOL0     O 9679   5.398  -0.254   3.727 -0.7087  0.3240 -0.8459
  813MOL0     C 9680   5.331  -0.350   3.808  0.6370 -0.6714  0.7073
  813MOL0     C 9681   5.351  -0.486   3.767 -0.8854  0.4440  0.9538
  813MOL0     C 9682   5.501  -0.537   3.790  0.8998 -1.0926  0.4333
  813MOL0     C 9683   5.495  -0.686   3.824 -0.6624  0.4443 -0.0313
  813MOL0     C 9684   5.609  -0.746   3.899  0.2787  0.3539 -0.2536
  813MOL0     C 9685   5.698  -0.801   3.945 -0.4386  0.1617 -0.7174
  813MOL0     C 9686   5.341  -0.059   3.862 -0.2953 -0.3265 -0.3334
  813MOL0     C 9687   5.298   0.076   3.876 -0.3999  0.5304 -0.2188
  813MOL0     H 9688   5.049   0.524   3.655  0.5189 -0.4222 -0.8498
  813MOL0     H 9689   5.064   0.765   3.671  0.7277  0.9902 -0.1317
  813MOL0     H 9690   5.446   0.956   3.778  2.5099 -2.1618 -2.4665
  813MOL0     H 9691   5.462   1.002   3.611  1.8940 -1.2284  1.1859
  813MOL0     H 9692   5.335   1.196   3.619  0.4374  2.0927 -0.2942
  813MOL0     H 9693   5.255   1.157   3.774  1.1060 -2.0071  2.0402
  813MOL0     H 9694   5.552   1.200   3.768 -1.1261  0.1498 -0.8462
  813MOL0     H 9695   5.440   1.333   3.767  2.0370  0.7370  2.2360
  813MOL0     H 9696   5.339   1.239   3.978  0.2607  4.0449 -2.4714
  813MOL0     H 9697   5.464   1.113   3.977  1.7374 -1.0226 -1.4171
  813MOL0     H 9698   5.651   1.271   3.951 -2.3344 -2.2623 -2.7814
  813MOL0     H 9699   5.545   1.410   3.986 -0.5626  0.6805  3.0641
  813MOL0     H 9700   5.617   1.175   4.172 -3.4943 -0.6511  0.9509
  813MOL0     H 9701   5.665   1.338   4.185  0.0838  0.7879 -1.3708
  813MOL0     H 9702   5.421   1.425   4.203  0.8853  1.0573 -0.1612
  813MOL0     H 9703   5.395   1.258   4.262 -0.6482  0.9596 -1.2370
  813MOL0     H 9704   5.614   1.418   4.388 -0.4024  0.6109 -1.3451
  813MOL0     H 9705   5.531   1.265   4.438 -0.9109  1.0914  2.8650
  813MOL0     H 9706   5.286   1.285   4.554  2.0370 -0.7950 -0.0318
  813MOL0     H 9707   5.065   1.503   4.636  1.5524  3.6506 -0.5448
  813MOL0     H 9708   5.155   1.376   4.721  0.7332  0.4047  2.8091
  813MOL0     H 9709   5.231   1.662   4.786  0.6604  0.5809 -0.3521
  813MOL0     H 9710   5.229   1.511   4.893  3.0426  2.3233 -0.5356
  813MOL0     H 9711   4.995   1.510   4.897  2.1714 -0.3347 -2.3219
  813MOL0     H 9712   4.979   1.645   4.797 -2.2266  0.0334  0.8168
  813MOL0     H 9713   5.071   1.801   4.994  0.6539  0.9281  0.9195
  813MOL0     H 9714   5.154   1.663   5.055 -0.9121  1.1318  2.5824
  813MOL0     H 9715   4.848   1.815   4.891 -1.4829 -1.4315 -2.4939
  813MOL0     H 9716   4.602   2.022   4.872  0.2327  0.8927 -1.7202
  813MOL0     H 9717   4.700   1.906   4.775  2.0568  2.3786  1.9880
  813MOL0     H 9718   4.526   1.885   4.792  1.9586 -1.5229 -1.9593
  813MOL0     H 9719   4.232   1.782   5.419  0.4813 -1.6534 -0.8998
  813MOL0     H 9720   3.993   1.835   5.484 -2.2246  0.4929 -1.3025
  813MOL0     H 9721   3.822   2.142   5.263  0.1449  0.1734  0.4701
  813MOL0     H 9722   3.709   2.031   5.189  1.2450  1.4567 -0.8251
  813MOL0     H 9723   3.564   2.145   5.331 -1.8505 -2.1335  0.7235
  813MOL0     H 9724   3.606   2.015   5.437  1.4594  0.9652  2.1487
  813MOL0     H 9725   3.757   2.283   5.444  4.2688 -1.2705  1.7251
  813MOL0     H 9726   3.769   2.162   5.568 -3.1827 -3.2639  1.0148
  813MOL0     H 9727   3.621   2.362   5.607 -0.7332  2.2314 -2.6471
  813MOL0     H 9728   3.503   2.322   5.481 -0.2656 -0.3030 -0.4073
  813MOL0     H 9729   3.573   2.147   5.717 -1.3749 -0.4259  0.8597
  813MOL0     H 9730   3.431   2.127   5.604 -3.4847  2.3462 -1.2254
  813MOL0     H 9731   3.450   2.350   5.807 -1.7603  1.3217  0.6410
  813MOL0     H 9732   3.348   2.335   5.665  3.0734  1.5704  0.1721
  813MOL0     H 9733   3.351   2.149   5.908  0.1657 -0.4855  0.0095
  813MOL0     H 9734   3.245   2.138   5.756  1.2095 -0.7704  0.9021
  813MOL0     H 9735   3.154   2.368   5.815 -0.1528 -1.9572 -1.4333
  813MOL0     H 9736   3.254   2.349   5.959  1.5178  0.1056 -1.5211
  813MOL0     H 9737   3.934   1.980   5.089  0.6137  2.6961 -1.1427
  813MOL0     H 9738   4.168   1.946   5.028 -1.4838 -1.1235 -1.1205
  813MOL0     H 9739   4.565   1.735   5.287  1.4831  1.5038  0.2471
  813MOL0     H 9740   4.793   1.649   5.269 -1.3540 -3.2990 -1.3039
  813MOL0     H 9741   5.494   0.749   3.690  1.0856 -2.0819 -2.3840
  813MOL0     H 9742   5.467   0.485   3.691 -1.8991 -0.1519  3.4296
  813MOL0     H 9743   5.295   0.148   3.542  0.5610 -1.8972 -0.5607
  813MOL0     H 9744   5.364  -0.072   3.521 -0.8904  3.1754 -2.0806
  813MOL0     H 9745   5.364  -0.335   3.912  0.0194  0.0104  0.8123
  813MOL0     H 9746   5.223  -0.335   3.796  0.3887 -3.1205 -0.6854
  813MOL0     H 9747   5.322  -0.500   3.662 -1.7236 -3.9225  1.5803
  813MOL0     H 9748   5.287  -0.546   3.833  0.3711  0.2461  2.0292
  813MOL0     H 9749   5.551  -0.489   3.875  2.4206 -1.8371  0.0061
  813MOL0     H 9750   5.560  -0.522   3.700 -0.4346 -0.0256 -0.3014
  813MOL0     H 9751   5.486  -0.740   3.729  2.2674  0.9516 -0.7154
  813MOL0     H 9752   5.411  -0.713   3.888 -0.8303 -0.4018 -0.5796
  813MOL0     H 9753   5.778  -0.853   3.993 -3.5765  0.4639  5.9901
  813MOL0     H 9754   5.376  -0.107   3.953 -1.4650 -0.9476 -0.1841
  813MOL0     H 9755   5.284   0.129   3.969  0.1054 -0.4681  0.4527
  814MOL0     O 9756   7.387   7.347   3.000 -0.0774  0.0817  0.4495
  814MOL0     C 9757   7.464   7.340   3.096  0.7245  0.6830  0.1110
  814MOL0     O 9758   7.490   7.222   3.169  0.7919  0.2101  0.2575
  814MOL0     C 9759   7.404   7.115   3.139  0.6334  0.0783  0.0452
  814MOL0     C 9760   7.444   7.017   3.050 -0.3253 -0.1097  0.0821
  814MOL0     C 9761   7.359   6.914   3.029 -0.0591 -0.5417  0.2687
  814MOL0     C 9762   7.242   6.887   3.096 -0.2730 -0.7364  0.0378
  814MOL0     O 9763   7.159   6.777   3.059 -0.2030  0.4277 -0.0857
  814MOL0     C 9764   7.065   6.754   3.157 -0.0319 -0.1173  0.1682
  814MOL0     C 9765   6.993   6.624   3.118 -0.4378 -0.3433  0.3181
  814MOL0     C 9766   6.913   6.560   3.229  1.0335  0.3115 -0.1871
  814MOL0     C 9767   6.775   6.620   3.238 -0.2420  0.3179  0.5371
  814MOL0     C 9768   6.728   6.634   3.381 -0.1524 -0.0422  0.0910
  814MOL0     C 9769   6.585   6.692   3.379  0.0701 -0.6163  0.2413
  814MOL0     C 9770   6.523   6.705   3.512  0.3997  0.1891  0.1441
  814MOL0     C 9771   6.575   6.832   3.587  0.6995  0.0419 -0.6587
  814MOL0     N 9772   6.497   6.855   3.710 -0.3358 -0.8596 -0.0044
  814MOL0     C 9773   6.488   6.776   3.821 -0.4513  0.1891 -0.9529
  814MOL0     C 9774   6.407   6.848   3.914 -0.4620 -0.1291 -0.9158
  814MOL0     C 9775   6.353   6.803   4.045  0.0259  0.0457 -0.9719
  814MOL0     C 9776   6.406   6.899   4.162  0.4368  0.2256 -0.8874
  814MOL0     C 9777   6.387   6.834   4.294  0.3829  0.2735 -0.4293
  814MOL0     C 9778   6.409   6.938   4.415  0.1790 -0.5541  0.8290
  814MOL0     O 9779   6.361   6.876   4.528  0.4542 -0.4446 -0.0877
  814MOL0     C 9780   6.234   6.918   4.566 -0.2582  0.0262  0.4010
  814MOL0     C 9781   6.205   6.940   4.699  0.8860 -0.6463 -0.9605
  814MOL0     C 9782   6.080   6.985   4.747  0.6629  0.1728 -0.0389
  814MOL0     C 9783   6.074   7.027   4.898  0.0516  1.0426  0.4015
  814MOL0     C 9784   5.972   6.988   4.650  0.1087  0.1084  0.0383
  814MOL0     C 9785   5.843   7.041   4.678 -0.1453  0.1529  0.1106
  814MOL0     O 9786   5.785   7.136   4.597 -0.2127  0.4272  0.0100
  814MOL0     C 9787   5.670   7.198   4.638  0.0415  0.6475  0.2623
  814MOL0     C 9788   5.663   7.283   4.751  0.7504 -0.4240  0.3460
  814MOL0     C 9789   5.542   7.350   4.780  0.0846 -0.9109 -0.4797
  814MOL0     C 9790   5.428   7.346   4.699 -0.4190  0.5252 -0.1538
  814MOL0     O 9791   5.313   7.410   4.725  0.0379 -0.6618 -0.3334
  814MOL0     C 9792   5.284   7.452   4.860  0.1040  0.0036  0.1870
  814MOL0     C 9793   5.143   7.516   4.880 -0.7264  0.1094  0.5705
  814MOL0     C 9794   5.130   7.640   4.800 -0.5955 -0.1400  0.2597
  814MOL0     C 9795   5.004   7.721   4.811  0.6592 -0.2705 -0.4576
  814MOL0     C 9796   5.008   7.842   4.734  0.3728 -0.3677  0.6508
  814MOL0     C 9797   4.888   7.933   4.774  0.3323 -0.4473 -0.2178
  814MOL0     C 9798   4.852   8.047   4.685 -0.8509 -0.0246  0.9467
  814MOL0     C 9799   4.822   8.007   4.543 -0.1497  0.4997  0.5572
  814MOL0    Cl 9800   4.983   7.982   4.437  0.4592  0.3030  0.1041
  814MOL0     C 9801   5.438   7.275   4.581 -0.4791  1.2385 -0.5429
  814MOL0     C 9802   5.556   7.189   4.551  0.9010 -0.2917  0.3798
  814MOL0     O 9803   5.783   6.995   4.777 -0.8289 -0.0320  0.0527
  814MOL0     C 9804   5.994   6.957   4.514 -0.5554 -0.1114 -0.2333
  814MOL0     C 9805   6.122   6.919   4.472  0.0466  0.8106  0.0191
  814MOL0     N 9806   6.381   6.970   3.853  0.7039  0.3475 -0.1660
  814MOL0     N 9807   6.438   6.973   3.736 -0.0343  0.1353  0.8575
  814MOL0     C 9808   7.214   6.977   3.202  0.4654  0.2892 -0.5920
  814MOL0     C 9809   7.289   7.092   3.217  0.4632 -0.7912 -1.1172
  814MOL0     C 9810   7.532   7.463   3.146 -0.0108 -0.8082 -0.6136
  814MOL0     C 9811   7.472   7.590   3.129  0.4763  0.3573 -0.5314
  814MOL0     C 9812   7.517   7.704   3.197 -0.4643 -0.9548  0.1801
  814MOL0     C 9813   7.633   7.702   3.274  0.3977 -0.5673 -0.4004
  814MOL0     O 9814   7.650   7.825   3.334  0.6536  0.2442 -0.0498
  814MOL0     C 9815   7.764   7.850   3.414 -0.7953  0.0837 -0.6705
  814MOL0     C 9816   7.766   7.993   3.476  0.9433  0.2696 -0.3652
  814MOL0     C 9817   7.634   8.030   3.534 -0.3226  0.2107 -0.4483
  814MOL0     C 9818   7.647   8.134   3.648 -0.2149 -1.0052  0.1229
  814MOL0     C 9819   7.529   8.186   3.703 -0.5265 -0.2791  0.6266
  814MOL0     C 9820   7.441   8.227   3.769  0.4051  0.0863  0.7571
  814MOL0     C 9821   7.693   7.581   3.288 -0.1831 -0.1553  0.0334
  814MOL0     C 9822   7.651   7.453   3.234 -0.3406 -0.4274  1.0608
  814MOL0     H 9823   7.528   7.049   2.989 -0.4953 -1.4960 -0.9332
  814MOL0     H 9824   7.399   6.855   2.947  3.9145  0.4907  1.2302
  814MOL0     H 9825   7.100   6.749   3.261 -0.3974 -0.2887  0.2850
  814MOL0     H 9826   6.990   6.833   3.147 -1.1669 -1.2537 -0.6090
  814MOL0     H 9827   6.930   6.644   3.031  0.2259  0.3670 -0.0141
  814MOL0     H 9828   7.065   6.548   3.086  1.9909  1.7901  0.3460
  814MOL0     H 9829   6.893   6.454   3.209  0.4106  0.9639 -3.6190
  814MOL0     H 9830   6.969   6.576   3.322 -1.4256  2.9115  0.9895
  814MOL0     H 9831   6.756   6.718   3.194 -1.6883  0.5022  1.4772
  814MOL0     H 9832   6.706   6.554   3.186 -1.8045  2.6740 -0.5307
  814MOL0     H 9833   6.723   6.542   3.440  0.4996  0.9709  1.8237
  814MOL0     H 9834   6.800   6.698   3.433  0.5390  0.1370 -1.0726
  814MOL0     H 9835   6.582   6.785   3.321 -0.0964 -1.1876 -0.7022
  814MOL0     H 9836   6.533   6.630   3.305  0.2015 -1.0205  0.4847
  814MOL0     H 9837   6.414   6.710   3.504  0.1323  2.1131  3.2368
  814MOL0     H 9838   6.555   6.626   3.581 -0.4294  2.3765  3.2513
  814MOL0     H 9839   6.567   6.909   3.510  2.0533 -0.7095 -1.5805
  814MOL0     H 9840   6.679   6.818   3.618  0.4756  0.6742  0.4447
  814MOL0     H 9841   6.517   6.672   3.821 -1.1291 -0.0064 -1.3315
  814MOL0     H 9842   6.244   6.813   4.043 -0.0289  0.1275  0.7144
  814MOL0     H 9843   6.371   6.696   4.056 -2.6399 -0.5400 -1.5504
  814MOL0     H 9844   6.350   6.993   4.161  1.0266  0.6030  0.1392
  814MOL0     H 9845   6.511   6.923   4.142  0.1480  0.3192 -2.4166
  814MOL0     H 9846   6.447   6.743   4.306  0.1907 -0.1340 -2.3792
  814MOL0     H 9847   6.286   6.794   4.297 -0.2606  1.8198 -0.9240
  814MOL0     H 9848   6.378   7.042   4.400  3.1600  0.2135 -0.9977
  814MOL0     H 9849   6.516   6.946   4.436 -0.2384  0.7258  2.7065
  814MOL0     H 9850   6.284   6.946   4.773  0.1408 -1.5264 -0.0695
  814MOL0     H 9851   5.969   7.055   4.913 -0.7599 -1.5393  0.1790
  814MOL0     H 9852   6.098   6.944   4.965 -2.2372  1.4432  1.8498
  814MOL0     H 9853   6.138   7.114   4.910  1.8583 -0.0078 -1.0200
  814MOL0     H 9854   5.743   7.288   4.824  0.2241  2.4824  0.8696
  814MOL0     H 9855   5.552   7.398   4.877 -1.0606 -1.3903 -0.1049
  814MOL0     H 9856   5.302   7.371   4.931 -1.9277  0.7377  1.6453
  814MOL0     H 9857   5.356   7.525   4.899 -0.3218  1.1186 -1.0114
  814MOL0     H 9858   5.069   7.448   4.837  1.7652 -1.5935 -1.3396
  814MOL0     H 9859   5.125   7.533   4.987  1.4619  0.6790  0.8965
  814MOL0     H 9860   5.150   7.625   4.694 -1.4924  1.6075 -0.1953
  814MOL0     H 9861   5.214   7.703   4.831  1.0319 -1.9686 -0.2110
  814MOL0     H 9862   4.922   7.658   4.775  2.3063 -1.4310 -2.3631
  814MOL0     H 9863   4.989   7.748   4.916  1.5527  1.8824 -0.8234
  814MOL0     H 9864   4.985   7.809   4.632  0.5923 -0.5973  0.6770
  814MOL0     H 9865   5.100   7.901   4.735  0.8479 -1.1024  0.5565
  814MOL0     H 9866   4.803   7.864   4.781 -0.0338 -0.1252 -1.2812
  814MOL0     H 9867   4.922   7.968   4.872 -0.0916  3.6942 -1.3716
  814MOL0     H 9868   4.946   8.102   4.684  1.3186 -3.2514 -2.7510
  814MOL0     H 9869   4.767   8.102   4.727 -1.2553 -0.5162  0.7852
  814MOL0     H 9870   4.746   8.072   4.500  0.2672  0.4116 -0.3388
  814MOL0     H 9871   4.762   7.917   4.554  0.8220 -0.2230  0.0842
  814MOL0     H 9872   5.353   7.264   4.515 -0.6365 -0.6262 -0.0714
  814MOL0     H 9873   5.566   7.123   4.466  0.4242  0.5292 -0.3342
  814MOL0     H 9874   5.922   6.977   4.435  1.1215 -0.8835 -2.0485
  814MOL0     H 9875   6.137   6.904   4.365  1.2055  0.1147  0.2657
  814MOL0     H 9876   7.120   6.970   3.257 -0.7182  1.0648 -2.4428
  814MOL0     H 9877   7.269   7.169   3.291  3.9467 -1.9701  1.3250
  814MOL0     H 9878   7.382   7.593   3.069 -0.5014 -2.8841  0.5267
  814MOL0     H 9879   7.447   7.786   3.185 -0.2238 -0.9159 -1.1695
  814MOL0     H 9880   7.767   7.775   3.494 -1.9682 -1.4567 -2.0188
  814MOL0     H 9881   7.858   7.842   3.359 -1.8320 -1.1120 -2.3640
  814MOL0     H 9882   7.797   8.077   3.415  1.2177  1.8394  1.8037
  814MOL0     H 9883   7.825   7.981   3.568 -1.9104 -1.9823  1.3554
  814MOL0     H 9884   7.593   7.950   3.597  2.2146  0.8813  2.3037
  814MOL0     H 9885   7.565   8.067   3.458 -0.4845 -0.1257 -0.4649
  814MOL0     H 9886   7.706   8.215   3.605  2.1197 -0.9127  3.1363
  814MOL0     H 9887   7.705   8.084   3.727  1.1579 -0.8809 -0.7794
  814MOL0     H 9888   7.363   8.279   3.821 -0.0218  0.1211  0.0933
  814MOL0     H 9889   7.773   7.590   3.361 -0.4353  3.5391  0.0522
  814MOL0     H 9890   7.710   7.362   3.235  0.8998  0.0101 -4.1199
  815MOL0     O 9891   8.075   5.489   5.306  0.5176 -0.1007 -0.2988
  815MOL0     C 9892   8.177   5.419   5.288 -0.2153  0.0265  0.4753
  815MOL0     O 9893   8.235   5.338   5.385 -0.2479  0.3428  0.0996
  815MOL0     C 9894   8.175   5.320   5.505 -0.2053  0.5293 -0.1250
  815MOL0     C 9895   8.252   5.337   5.621 -0.2829 -0.4150 -0.3533
  815MOL0     C 9896   8.207   5.297   5.746 -0.5834 -0.4443 -0.2623
  815MOL0     C 9897   8.068   5.254   5.757 -0.5548 -0.0976 -0.5700
  815MOL0     O 9898   8.000   5.219   5.872 -0.6386  0.1463  0.2614
  815MOL0     C 9899   8.070   5.225   5.999  0.1251  0.0412 -0.6314
  815MOL0     C 9900   8.028   5.108   6.082  0.6302 -0.4055 -1.0526
  815MOL0     C 9901   8.019   4.973   6.005  0.0942  0.1923 -0.4191
  815MOL0     C 9902   7.992   4.851   6.099 -0.8008 -0.6344 -0.0273
  815MOL0     C 9903   7.868   4.860   6.183  0.7173 -0.1987 -0.4812
  815MOL0     C 9904   7.842   4.721   6.230 -0.3273 -0.9273 -0.1121
  815MOL0     C 9905   7.728   4.711   6.336  0.5822  0.6880 -0.0315
  815MOL0     C 9906   7.589   4.749   6.284  0.6754  0.3049 -0.0852
  815MOL0     N 9907   7.480   4.706   6.376 -0.7375  1.1923  0.7813
  815MOL0     C 9908   7.419   4.586   6.366  0.2845  0.9962  0.5279
  815MOL0     C 9909   7.313   4.590   6.454  0.0275 -0.6694 -0.0894
  815MOL0     C 9910   7.210   4.487   6.474  1.3173 -0.6700  0.0562
  815MOL0     C 9911   7.262   4.354   6.537 -1.3288 -0.1398 -0.2279
  815MOL0     C 9912   7.168   4.237   6.504 -0.4866 -0.5213  0.4516
  815MOL0     C 9913   7.025   4.261   6.570 -0.4024 -0.2652  1.0836
  815MOL0     O 9914   7.036   4.300   6.705  0.2792  0.0879 -1.0794
  815MOL0     C 9915   7.085   4.210   6.795 -0.8840 -0.8132  1.3713
  815MOL0     C 9916   7.097   4.068   6.782 -0.0052  0.5733  0.3338
  815MOL0     C 9917   7.141   3.987   6.887 -0.0989  0.0458 -0.0003
  815MOL0     C 9918   7.142   3.835   6.870 -0.8117 -0.2955  0.3958
  815MOL0     C 9919   7.197   4.045   7.005  0.2432 -0.7183 -0.0645
  815MOL0     C 9920   7.254   3.971   7.129  0.5959 -0.3895  0.1578
  815MOL0     O 9921   7.292   4.046   7.241  0.0733  0.0369 -0.8993
  815MOL0     C 9922   7.349   3.984   7.345  0.2578  0.2127  0.3691
  815MOL0     C 9923   7.480   3.944   7.332 -0.4886 -0.6266 -0.2384
  815MOL0     C 9924   7.552   3.877   7.434 -0.0168 -0.1022  0.6877
  815MOL0     C 9925   7.490   3.840   7.555  0.8538 -0.1128  0.1574
  815MOL0     O 9926   7.543   3.755   7.649  0.1078 -0.5164  0.4626
  815MOL0     C 9927   7.636   3.824   7.730  0.0556  0.4870  0.1050
  815MOL0     C 9928   7.687   3.739   7.853  0.0714 -0.1154  0.1977
  815MOL0     C 9929   7.822   3.676   7.819  0.1318 -0.7437  0.3999
  815MOL0     C 9930   7.925   3.793   7.808 -0.2503  0.2350 -0.4501
  815MOL0     C 9931   8.068   3.727   7.832 -0.1128 -0.5150  0.1538
  815MOL0     C 9932   8.181   3.802   7.769  0.1980  0.4207  0.1500
  815MOL0     C 9933   8.229   3.922   7.865 -0.1836  0.5422  0.3917
  815MOL0     C 9934   8.369   3.979   7.837 -1.0790 -0.3643 -0.1538
  815MOL0    Cl 9935   8.382   4.149   7.905  0.5402 -0.1606 -0.1382
  815MOL0     C 9936   7.352   3.878   7.564 -0.9804 -0.3047 -0.7360
  815MOL0     C 9937   7.282   3.946   7.466  0.8401  0.7121 -0.0703
  815MOL0     O 9938   7.273   3.852   7.123  0.1035  0.6206  0.4405
  815MOL0     C 9939   7.196   4.187   7.005 -0.0298 -0.1413 -0.3944
  815MOL0     C 9940   7.146   4.263   6.903 -0.0341 -0.8679 -0.6688
  815MOL0     N 9941   7.307   4.712   6.508 -0.0594 -0.4667  0.0442
  815MOL0     N 9942   7.408   4.783   6.457  0.3340  0.2168  1.4457
  815MOL0     C 9943   7.998   5.248   5.638 -0.1574  0.7726  0.1973
  815MOL0     C 9944   8.048   5.276   5.509  0.5925  0.0484  0.5701
  815MOL0     C 9945   8.245   5.416   5.163 -0.8051  0.3161  0.3840
  815MOL0     C 9946   8.222   5.510   5.071  0.3789 -0.5953  0.2115
  815MOL0     C 9947   8.292   5.509   4.954 -0.6338  0.2760  0.5619
  815MOL0     C 9948   8.398   5.421   4.925  0.3868  0.3225 -0.3950
  815MOL0     O 9949   8.455   5.424   4.801 -0.6937  0.6354 -0.1305
  815MOL0     C 9950   8.589   5.361   4.799 -0.1848  1.2682 -0.1353
  815MOL0     C 9951   8.660   5.385   4.668 -1.2286  0.1149  0.2758
  815MOL0     C 9952   8.708   5.527   4.652 -0.6537 -0.2954  0.1545
  815MOL0     C 9953   8.834   5.561   4.569  0.0814 -1.1327  0.2259
  815MOL0     C 9954   8.809   5.554   4.417 -0.6670 -0.2950  0.3139
  815MOL0     C 9955   8.798   5.546   4.296  1.1025  0.0871  0.5436
  815MOL0     C 9956   8.432   5.327   5.028  0.3839 -0.0644  0.0078
  815MOL0     C 9957   8.348   5.319   5.141  0.4089 -0.4571  0.2948
  815MOL0     H 9958   8.353   5.378   5.617  0.0525 -1.2029 -0.1631
  815MOL0     H 9959   8.266   5.294   5.838  0.2422 -1.4211 -0.8028
  815MOL0     H 9960   8.178   5.210   5.989 -0.1076 -2.6838  0.1472
  815MOL0     H 9961   8.061   5.326   6.040 -0.5496 -0.2521 -0.0415
  815MOL0     H 9962   8.095   5.080   6.164 -4.9064 -3.1557  3.2468
  815MOL0     H 9963   7.935   5.127   6.137  1.4583 -0.8262  0.5526
  815MOL0     H 9964   7.939   4.981   5.932  1.1556  4.0161 -1.3668
  815MOL0     H 9965   8.111   4.964   5.946  0.7660  2.5430  0.1773
  815MOL0     H 9966   7.992   4.764   6.032 -0.0455 -1.5645  1.1233
  815MOL0     H 9967   8.081   4.817   6.153  1.3200 -0.9228 -3.3990
  815MOL0     H 9968   7.883   4.924   6.270  0.4747 -1.6009  0.6238
  815MOL0     H 9969   7.784   4.899   6.124  0.1679  3.5352  2.4467
  815MOL0     H 9970   7.812   4.661   6.143  0.7885 -1.7358  0.0365
  815MOL0     H 9971   7.935   4.686   6.275 -0.5861  0.4952  1.6339
  815MOL0     H 9972   7.734   4.606   6.367 -1.3236  1.8068  5.3295
  815MOL0     H 9973   7.749   4.768   6.427 -3.7577  1.9484  0.4121
  815MOL0     H 9974   7.559   4.706   6.188  0.0377 -2.8285  1.3691
  815MOL0     H 9975   7.595   4.858   6.279  1.6298  0.3699  1.5016
  815MOL0     H 9976   7.450   4.496   6.313  2.1108  2.5738 -1.2444
  815MOL0     H 9977   7.142   4.533   6.546  2.3190  2.0123 -0.6236
  815MOL0     H 9978   7.152   4.467   6.383  1.2835 -1.8703  0.3183
  815MOL0     H 9979   7.263   4.370   6.645 -2.0609 -1.2299 -0.0494
  815MOL0     H 9980   7.362   4.332   6.498 -1.4917  1.6933 -1.8188
  815MOL0     H 9981   7.216   4.145   6.537 -0.5683 -0.5174  0.5829
  815MOL0     H 9982   7.157   4.234   6.395  0.5516  1.8874  0.2201
  815MOL0     H 9983   6.963   4.174   6.547 -1.7154  1.0173 -0.4921
  815MOL0     H 9984   6.970   4.341   6.519 -3.3819 -1.1346  2.6898
  815MOL0     H 9985   7.061   4.016   6.693 -0.8458  1.0278  0.3962
  815MOL0     H 9986   7.107   3.783   6.959  0.2570 -2.0829 -0.1878
  815MOL0     H 9987   7.091   3.795   6.781  0.9933  0.4560 -1.0473
  815MOL0     H 9988   7.250   3.825   6.856 -1.0234 -0.6866 -1.2454
  815MOL0     H 9989   7.531   3.952   7.237  2.1000 -2.2038  0.9171
  815MOL0     H 9990   7.653   3.854   7.403 -1.2080 -1.6914 -2.5192
  815MOL0     H 9991   7.717   3.862   7.667 -0.6975 -1.1668 -1.9580
  815MOL0     H 9992   7.598   3.914   7.780 -0.0292  1.3115 -1.3898
  815MOL0     H 9993   7.704   3.805   7.939 -4.8555  2.3445 -0.3708
  815MOL0     H 9994   7.607   3.667   7.871 -3.1825  2.6410 -2.1641
  815MOL0     H 9995   7.829   3.633   7.719  0.6970  4.5444 -2.1896
  815MOL0     H 9996   7.837   3.603   7.899  0.3299 -3.3070 -1.8253
  815MOL0     H 9997   7.917   3.828   7.704 -3.7973 -0.7563 -0.6488
  815MOL0     H 9998   7.907   3.875   7.878 -3.6158 -1.0972  0.4109
  815MOL0     H 9999   8.058   3.635   7.774 -1.4736 -0.0230 -0.4568
  815MOL0     H10000   8.084   3.706   7.938 -0.1942 -0.8226  0.1052
  815MOL0     H10001   8.263   3.730   7.764 -0.1707  0.0623 -3.1020
  815MOL0     H10002   8.157   3.839   7.669 -2.7843  4.7250  2.1253
  815MOL0     H10003   8.228   3.887   7.969 -1.0760 -2.2153 -0.4667
  815MOL0     H10004   8.162   4.006   7.846  3.0928  3.6399  1.2279
  815MOL0     H10005   8.393   3.968   7.730 -0.3759 -2.7757  0.1909
  815MOL0     H10006   8.438   3.915   7.892  1.5609  0.6823 -2.0059
  815MOL0     H10007   7.294   3.846   7.651 -0.9151 -1.3087 -1.0437
  815MOL0     H10008   7.175   3.962   7.475  0.4850  0.0175 -2.3554
  815MOL0     H10009   7.223   4.249   7.090 -2.3220  0.2888  0.0845
  815MOL0     H10010   7.129   4.370   6.914 -0.3541 -0.7141 -2.3975
  815MOL0     H10011   7.893   5.221   5.640 -0.0441  0.1345 -1.2970
  815MOL0     H10012   7.987   5.276   5.419 -1.1479 -1.0040  1.6794
  815MOL0     H10013   8.148   5.588   5.080 -1.2205 -1.4661 -3.5344
  815MOL0     H10014   8.263   5.580   4.878  3.2370  0.1192 -1.2959
  815MOL0     H10015   8.643   5.394   4.888 -0.5043 -0.2493  0.6543
  815MOL0     H10016   8.589   5.256   4.826  1.0930  1.9376  2.7960
  815MOL0     H10017   8.603   5.351   4.581  0.7048 -1.2927 -0.5166
  815MOL0     H10018   8.749   5.322   4.666 -1.7825 -0.6788  0.2681
  815MOL0     H10019   8.728   5.554   4.756 -1.4518 -0.7885  0.4399
  815MOL0     H10020   8.630   5.596   4.619  1.9597  2.5181 -0.6269
  815MOL0     H10021   8.908   5.485   4.597 -0.3350 -1.1361  1.3720
  815MOL0     H10022   8.881   5.658   4.587 -0.3894 -0.4687 -1.8452
  815MOL0     H10023   8.783   5.532   4.191 -1.7629 -0.5033  0.9604
  815MOL0     H10024   8.522   5.266   5.027 -0.1439 -0.8686  0.1660
  815MOL0     H10025   8.377   5.249   5.218  0.1077  0.2622  1.0774
  816MOL0     O10026   6.858   5.071   9.824 -0.1150 -0.5873 -0.1908
  816MOL0     C10027   6.847   5.172   9.887 -0.9225  0.8155  1.1426
  816MOL0     O10028   6.740   5.244   9.903  0.4523 -0.3663 -0.6375
  816MOL0     C10029   6.628   5.212   9.842 -0.0222  0.6181 -0.3313
  816MOL0     C10030   6.548   5.099   9.892 -0.1965  0.6582 -0.3255
  816MOL0     C10031   6.419   5.068   9.838  0.1732  0.0045  0.6228
  816MOL0     C10032   6.367   5.153   9.731  0.2182  0.0877  0.2007
  816MOL0     O10033   6.239   5.145   9.679 -0.5071 -0.1019  0.0114
  816MOL0     C10034   6.214   5.007   9.634  0.3459 -0.0125 -0.0422
  816MOL0     C10035   6.150   5.012   9.499  0.3480 -0.5329 -0.6484
  816MOL0     C10036   6.084   4.877   9.464 -0.0321 -0.6019  0.9276
  816MOL0     C10037   5.985   4.809   9.555 -0.2736  0.0601  0.5654
  816MOL0     C10038   5.939   4.670   9.489 -0.0869 -0.5198 -0.5221
  816MOL0     C10039   5.846   4.601   9.583 -0.0453 -0.6380 -0.4425
  816MOL0     C10040   5.697   4.630   9.545  0.5958  1.0080 -0.1581
  816MOL0     C10041   5.599   4.543   9.631 -0.3889 -0.3412 -0.4711
  816MOL0     N10042   5.625   4.401   9.632  0.1090  0.2086 -0.0777
  816MOL0     C10043   5.650   4.332   9.516 -0.6984 -0.0984 -0.1356
  816MOL0     C10044   5.672   4.205   9.557 -0.0255  1.1031  0.1031
  816MOL0     C10045   5.684   4.081   9.462  0.6146  0.8736  0.0133
  816MOL0     C10046   5.559   4.069   9.371 -0.6158 -0.3089 -0.5918
  816MOL0     C10047   5.575   4.004   9.236  0.2906 -0.1464 -0.3499
  816MOL0     C10048   5.623   4.094   9.127 -0.4138  0.1103  0.7915
  816MOL0     O10049   5.657   4.021   9.004  0.7253  0.2694 -0.3043
  816MOL0     C10050   5.706   4.090   8.898 -0.5711  0.7073 -0.7398
  816MOL0     C10051   5.723   4.230   8.894  0.0407  0.2130  0.2269
  816MOL0     C10052   5.766   4.291   8.777  0.6931 -0.4138  1.3719
  816MOL0     C10053   5.757   4.442   8.790 -0.6478 -1.3024  0.2741
  816MOL0     C10054   5.807   4.219   8.659 -0.2156  0.4535  0.0049
  816MOL0     C10055   5.853   4.278   8.526 -0.0457 -0.5384 -0.2591
  816MOL0     O10056   5.882   4.191   8.432 -0.2587  0.2564  0.1937
  816MOL0     C10057   5.925   4.233   8.309 -0.1567  0.0705 -0.7773
  816MOL0     C10058   6.039   4.322   8.303 -0.1570  0.2332  0.0359
  816MOL0     C10059   6.079   4.363   8.178 -0.0268 -0.1951 -0.3966
  816MOL0     C10060   6.022   4.316   8.055  1.2369  0.8441  0.0663
  816MOL0     O10061   6.054   4.360   7.926 -0.2966  0.5778  0.2075
  816MOL0     C10062   5.953   4.364   7.828 -0.1964 -0.9824  0.2635
  816MOL0     C10063   5.995   4.480   7.728 -0.4980  0.2931 -0.5907
  816MOL0     C10064   6.133   4.451   7.672  0.4419  1.6009 -0.6301
  816MOL0     C10065   6.156   4.538   7.548  0.0935  0.1356 -0.9776
  816MOL0     C10066   6.299   4.550   7.507 -0.2251  0.0403  0.6450
  816MOL0     C10067   6.338   4.668   7.420  0.2919  0.5709 -0.7207
  816MOL0     C10068   6.279   4.666   7.277 -0.0767  0.5619  0.6139
  816MOL0     C10069   6.344   4.746   7.168 -0.0990  1.3029 -0.5106
  816MOL0    Cl10070   6.493   4.656   7.140 -0.0558 -0.2718  0.0114
  816MOL0     C10071   5.929   4.204   8.072  1.8019 -0.5191  0.7583
  816MOL0     C10072   5.884   4.169   8.193  0.4582 -0.3221 -0.3387
  816MOL0     O10073   5.831   4.401   8.506 -0.1802  0.0625 -0.6826
  816MOL0     C10074   5.783   4.077   8.665 -0.4007 -0.7355 -0.3670
  816MOL0     C10075   5.748   4.015   8.780  0.3753 -0.4579  0.2287
  816MOL0     N10076   5.702   4.204   9.689  0.1772 -0.9605 -0.5845
  816MOL0     N10077   5.675   4.319   9.731 -0.5725  0.0320 -0.2391
  816MOL0     C10078   6.436   5.273   9.714 -0.4249  0.5509  0.4091
  816MOL0     C10079   6.570   5.293   9.753 -0.1367 -0.0847  0.2962
  816MOL0     C10080   6.975   5.218   9.956  0.2339  0.7917 -0.2262
  816MOL0     C10081   7.089   5.131   9.969 -0.0823  0.4685 -0.6956
  816MOL0     C10082   7.208   5.181  10.016 -0.3927 -1.2844  0.3228
  816MOL0     C10083   7.217   5.316  10.051 -0.6484 -0.6568 -0.5700
  816MOL0     O10084   7.337   5.363  10.095  0.2059 -0.0127  0.2431
  816MOL0     C10085   7.345   5.488  10.168  0.2146  0.4917  0.4368
  816MOL0     C10086   7.492   5.515  10.197 -0.1932 -0.6565  0.0056
  816MOL0     C10087   7.582   5.389  10.245  0.1510 -0.0241  0.3087
  816MOL0     C10088   7.540   5.326  10.374 -0.0494 -0.5358  0.4444
  816MOL0     C10089   7.494   5.414  10.480 -0.0104  0.2049 -0.0937
  816MOL0     C10090   7.455   5.494  10.556 -0.5844 -0.6653 -0.4560
  816MOL0     C10091   7.104   5.405  10.032 -0.5100  0.1225 -0.2644
  816MOL0     C10092   6.982   5.351   9.985 -0.7298  0.3491  0.6747
  816MOL0     H10093   6.587   5.032   9.968 -4.7972 -0.6845  1.1573
  816MOL0     H10094   6.370   4.976   9.868  0.2239 -0.3990 -0.5130
  816MOL0     H10095   6.307   4.950   9.621 -0.9963 -2.1965 -0.5888
  816MOL0     H10096   6.157   4.952   9.709 -1.4526 -0.6686 -1.8242
  816MOL0     H10097   6.069   5.085   9.503  2.2174  1.6277 -0.3945
  816MOL0     H10098   6.221   5.049   9.424 -0.0938  0.5067 -0.5591
  816MOL0     H10099   6.041   4.877   9.364 -0.3008 -2.5232  1.0003
  816MOL0     H10100   6.164   4.804   9.448 -3.6544 -4.3285 -2.5450
  816MOL0     H10101   6.035   4.783   9.649 -1.1120  0.8612  1.2385
  816MOL0     H10102   5.905   4.883   9.563  2.0655  3.1687 -1.9895
  816MOL0     H10103   5.880   4.682   9.398 -0.9505 -1.7880 -0.1542
  816MOL0     H10104   6.027   4.607   9.470  0.1790 -0.2860 -0.0965
  816MOL0     H10105   5.870   4.496   9.602  2.4998  0.3745  3.0438
  816MOL0     H10106   5.858   4.643   9.684 -5.2882  0.7103 -0.0881
  816MOL0     H10107   5.680   4.738   9.555  0.4916  1.0384 -0.6022
  816MOL0     H10108   5.689   4.607   9.438 -0.9278 -0.1686  0.1863
  816MOL0     H10109   5.495   4.557   9.599 -0.5197 -2.7580 -1.3418
  816MOL0     H10110   5.600   4.574   9.735  0.7671  2.5301 -1.2403
  816MOL0     H10111   5.636   4.369   9.415 -0.7763 -0.4701 -0.2625
  816MOL0     H10112   5.771   4.079   9.397 -1.9769 -0.8698 -3.7381
  816MOL0     H10113   5.698   3.993   9.526  0.8102 -0.3319 -1.6271
  816MOL0     H10114   5.494   4.155   9.353 -1.9011 -1.5406 -2.2127
  816MOL0     H10115   5.492   4.007   9.432  0.6993  0.5363  1.8725
  816MOL0     H10116   5.479   3.962   9.207  0.3042  0.7809 -1.8256
  816MOL0     H10117   5.647   3.922   9.246  2.1169  1.6314  2.6211
  816MOL0     H10118   5.719   4.137   9.158  2.4607 -2.6299 -3.2484
  816MOL0     H10119   5.549   4.172   9.111 -1.0860 -0.6205  0.2589
  816MOL0     H10120   5.688   4.288   8.979 -0.3609  1.3409 -0.7017
  816MOL0     H10121   5.729   4.476   8.890  1.5873  0.2800  0.4309
  816MOL0     H10122   5.854   4.485   8.764 -2.0111 -0.1176 -3.6046
  816MOL0     H10123   5.690   4.485   8.715  1.6047 -0.5407 -1.4149
  816MOL0     H10124   6.077   4.362   8.397 -2.0582 -3.4741  2.6622
  816MOL0     H10125   6.148   4.447   8.169 -2.0290  1.4507 -1.2763
  816MOL0     H10126   5.949   4.270   7.773 -1.1323 -0.3664 -0.7410
  816MOL0     H10127   5.856   4.388   7.872  0.1324  1.7114 -0.2805
  816MOL0     H10128   5.913   4.487   7.656 -2.9213  1.5565  2.0638
  816MOL0     H10129   5.997   4.577   7.779 -0.3669  0.3697 -0.7398
  816MOL0     H10130   6.148   4.346   7.647  2.6263  1.9004 -0.7745
  816MOL0     H10131   6.207   4.485   7.745  1.0544  0.2001 -0.5731
  816MOL0     H10132   6.092   4.493   7.471  0.3812 -1.4966 -0.3126
  816MOL0     H10133   6.118   4.638   7.571 -0.1634  0.0865 -1.1840
  816MOL0     H10134   6.314   4.448   7.469  1.6712 -0.7020  3.1334
  816MOL0     H10135   6.369   4.552   7.591 -1.1520  0.8839  1.4227
  816MOL0     H10136   6.301   4.762   7.463  1.8082  1.2913 -0.9091
  816MOL0     H10137   6.446   4.686   7.411  0.4754 -0.7113 -1.2875
  816MOL0     H10138   6.178   4.706   7.290 -0.1904  0.3943  0.2747
  816MOL0     H10139   6.286   4.559   7.251  3.2811  0.2060  2.4262
  816MOL0     H10140   6.358   4.851   7.193  1.1346  1.0739 -0.1719
  816MOL0     H10141   6.271   4.739   7.087  0.3840 -0.6463 -0.8387
  816MOL0     H10142   5.876   4.154   7.993  1.9582 -1.2776  1.1193
  816MOL0     H10143   5.805   4.094   8.198 -1.6003  1.6826 -0.8879
  816MOL0     H10144   5.803   4.020   8.575 -0.8366  0.5552 -1.3264
  816MOL0     H10145   5.731   3.909   8.769 -1.0659 -0.2347  0.0855
  816MOL0     H10146   6.405   5.346   9.640  1.7758 -1.3148 -2.5885
  816MOL0     H10147   6.615   5.389   9.731 -0.0845  0.0213  0.8613
  816MOL0     H10148   7.087   5.023   9.959 -3.0880  0.4661 -1.0078
  816MOL0     H10149   7.294   5.118   9.994  1.9441  1.6374  0.5518
  816MOL0     H10150   7.306   5.560  10.096 -2.5900 -0.1195  1.2159
  816MOL0     H10151   7.296   5.484  10.266  3.9417 -0.4751  2.4821
  816MOL0     H10152   7.506   5.599  10.265 -0.4079 -0.6966  0.0994
  816MOL0     H10153   7.538   5.547  10.103 -0.5638 -3.7377 -1.3636
  816MOL0     H10154   7.681   5.434  10.256  0.3740 -0.2410 -0.6891
  816MOL0     H10155   7.590   5.315  10.165  1.8414 -1.1303  1.4265
  816MOL0     H10156   7.639   5.283  10.393  0.5967  0.1061 -1.3154
  816MOL0     H10157   7.471   5.242  10.365 -3.3157  1.9179  0.6517
  816MOL0     H10158   7.422   5.563  10.632  3.1216 -0.6371  1.3392
  816MOL0     H10159   7.113   5.512  10.042  4.0796 -0.0420 -0.5408
  816MOL0     H10160   6.905   5.419   9.952 -1.5550 -2.0274 -2.9242
  817MOL0     O10161   1.453   2.983   1.037 -0.2649 -0.3140 -0.1805
  817MOL0     C10162   1.571   2.980   1.072  0.8270  0.8345 -0.6492
  817MOL0     O10163   1.666   2.998   0.986 -0.3438 -0.7937  0.7139
  817MOL0     C10164   1.646   3.031   0.854 -0.3461 -0.0563  0.4166
  817MOL0     C10165   1.713   3.143   0.797 -0.0939  0.9140 -0.1795
  817MOL0     C10166   1.711   3.171   0.656  0.8556 -0.3268  0.6766
  817MOL0     C10167   1.635   3.087   0.566 -0.3423  0.2434 -0.0880
  817MOL0     O10168   1.628   3.125   0.429  0.0551 -0.5822  0.2556
  817MOL0     C10169   1.498   3.132   0.368 -0.7934  0.9973 -0.7066
  817MOL0     C10170   1.505   3.126   0.210 -0.3004 -0.6726 -0.1306
  817MOL0     C10171   1.586   3.254   0.171 -0.5521  0.8840 -0.0998
  817MOL0     C10172   1.486   3.376   0.167  0.0404 -0.0098 -0.1226
  817MOL0     C10173   1.520   3.468   0.046  0.4637 -0.0158 -0.3953
  817MOL0     C10174   1.487   3.397  -0.077  0.4448 -0.3477 -0.2308
  817MOL0     C10175   1.540   3.464  -0.199 -0.0118 -0.4794  0.9021
  817MOL0     C10176   1.692   3.494  -0.213 -0.3242 -0.1167  0.0287
  817MOL0     N10177   1.790   3.387  -0.186 -0.0948 -0.3614 -0.1471
  817MOL0     C10178   1.861   3.377  -0.067 -0.9070 -0.2608 -0.7837
  817MOL0     C10179   1.944   3.265  -0.090  0.3068  0.0004  0.5905
  817MOL0     C10180   2.054   3.217   0.001  0.4096  0.4090 -0.6607
  817MOL0     C10181   1.993   3.172   0.136  0.3190 -0.3563 -0.0269
  817MOL0     C10182   2.094   3.103   0.228 -0.6765 -0.3197  0.7568
  817MOL0     C10183   2.035   3.033   0.352 -0.5367  0.2418  0.2298
  817MOL0     O10184   2.015   3.126   0.453  0.6250 -0.1740 -0.3754
  817MOL0     C10185   2.002   3.082   0.585 -0.2390 -0.8567  0.2219
  817MOL0     C10186   2.058   3.166   0.686  0.0664 -0.0944 -0.2868
  817MOL0     C10187   2.082   3.117   0.818  0.3836 -0.2604  0.5533
  817MOL0     C10188   2.159   3.198   0.914  0.2041 -0.7053 -0.2223
  817MOL0     C10189   2.024   2.989   0.860 -0.7752  0.3954 -0.3041
  817MOL0     C10190   2.032   2.926   1.001  0.2222  0.0334  0.7302
  817MOL0     O10191   1.959   2.814   1.016 -0.5802 -0.3661  0.4690
  817MOL0     C10192   1.938   2.758   1.140  0.7849 -0.6208  0.7294
  817MOL0     C10193   1.817   2.686   1.165  0.6069  1.0414  0.3592
  817MOL0     C10194   1.792   2.616   1.279 -0.1944 -0.5831 -0.2586
  817MOL0     C10195   1.893   2.603   1.371  0.1517  0.3517 -0.8554
  817MOL0     O10196   1.892   2.532   1.486  0.1323  1.2502 -0.4072
  817MOL0     C10197   1.772   2.490   1.545 -0.7209 -0.3688  0.6017
  817MOL0     C10198   1.798   2.404   1.666  0.1233  0.4183  0.6715
  817MOL0     C10199   1.827   2.247   1.635  0.5442  0.2977 -0.1199
  817MOL0     C10200   1.956   2.237   1.558 -0.4463  0.3608  0.3742
  817MOL0     C10201   2.006   2.095   1.559  0.2976  0.4061  0.2260
  817MOL0     C10202   2.158   2.084   1.523 -0.4733 -0.1184  0.4519
  817MOL0     C10203   2.220   1.954   1.573 -0.3271 -1.0458  1.2523
  817MOL0     C10204   2.192   1.835   1.481 -0.8522  0.2451 -0.8853
  817MOL0    Cl10205   2.313   1.818   1.353  0.3039  0.2597  0.3849
  817MOL0     C10206   2.017   2.667   1.347  0.3153  0.2485  0.4055
  817MOL0     C10207   2.041   2.742   1.233 -0.3712  0.0878 -1.4163
  817MOL0     O10208   2.103   2.971   1.088  0.1722 -0.1495 -0.1022
  817MOL0     C10209   1.958   2.921   0.759 -0.1323  0.5953 -0.4699
  817MOL0     C10210   1.948   2.957   0.624 -0.0460 -0.8153 -1.1315
  817MOL0     N10211   1.918   3.219  -0.221 -0.0454 -0.4754 -0.5008
  817MOL0     N10212   1.834   3.298  -0.275  0.1695 -0.3479 -0.1392
  817MOL0     C10213   1.559   2.985   0.634  0.7625  0.4408  0.9980
  817MOL0     C10214   1.564   2.957   0.767  0.0510 -0.0658 -0.1471
  817MOL0     C10215   1.608   2.945   1.218 -0.6144  0.4098 -0.9559
  817MOL0     C10216   1.516   2.886   1.307 -0.9553  0.6644  0.6296
  817MOL0     C10217   1.558   2.851   1.438  0.8349  0.0697  0.4162
  817MOL0     C10218   1.685   2.881   1.493  0.6809  0.1781 -0.1289
  817MOL0     O10219   1.694   2.849   1.626  0.9746  0.4939  0.4754
  817MOL0     C10220   1.833   2.852   1.670  0.0370  1.0552  0.2048
  817MOL0     C10221   1.857   2.816   1.819  0.2568 -0.1954  0.3714
  817MOL0     C10222   2.008   2.843   1.847  0.0167 -0.0671 -0.4351
  817MOL0     C10223   2.032   2.831   1.996 -0.2247  0.0615 -0.6315
  817MOL0     C10224   2.160   2.778   2.040 -0.5729  0.3220  0.0875
  817MOL0     C10225   2.267   2.734   2.076 -0.5094 -0.2197  0.2843
  817MOL0     C10226   1.762   2.958   1.405  0.0554 -0.2266 -0.7140
  817MOL0     C10227   1.728   2.976   1.272 -0.1390 -1.0256  0.1378
  817MOL0     H10228   1.772   3.197   0.870  1.4197 -0.1541 -0.5509
  817MOL0     H10229   1.749   3.264   0.614 -1.9110  1.2989  1.4989
  817MOL0     H10230   1.438   3.041   0.376 -0.6867  0.5902 -3.4162
  817MOL0     H10231   1.435   3.200   0.424 -0.1169  1.0831 -0.0303
  817MOL0     H10232   1.575   3.049   0.177  1.5411  0.3650  1.1712
  817MOL0     H10233   1.413   3.122   0.150  1.2922  2.4801 -3.1959
  817MOL0     H10234   1.679   3.277   0.222  0.3148 -1.6020 -0.4003
  817MOL0     H10235   1.629   3.235   0.073  2.1191  3.2662  0.4915
  817MOL0     H10236   1.379   3.355   0.168 -0.0159  0.1483  1.7708
  817MOL0     H10237   1.499   3.435   0.259 -0.6122 -0.4923  0.2815
  817MOL0     H10238   1.463   3.561   0.052 -0.6050 -0.7045  0.7246
  817MOL0     H10239   1.627   3.491   0.048  0.1024  1.8120 -0.4470
  817MOL0     H10240   1.518   3.292  -0.087 -2.0131 -1.4635  2.4387
  817MOL0     H10241   1.378   3.392  -0.075  0.4358 -0.0991 -0.1660
  817MOL0     H10242   1.523   3.384  -0.271 -0.3781  0.3432  0.0505
  817MOL0     H10243   1.488   3.557  -0.220 -0.5527 -0.9426  0.1544
  817MOL0     H10244   1.723   3.573  -0.144 -1.8803  2.9344 -2.5218
  817MOL0     H10245   1.700   3.537  -0.313 -1.5849  0.1045  0.0037
  817MOL0     H10246   1.867   3.441   0.020 -1.4519 -2.1476  0.7013
  817MOL0     H10247   2.096   3.133  -0.055  1.0342  1.2068 -1.4109
  817MOL0     H10248   2.126   3.299   0.011  1.1741 -0.4723  1.7506
  817MOL0     H10249   1.918   3.094   0.120  2.4678 -2.9461  1.7337
  817MOL0     H10250   1.948   3.266   0.171  0.9172  0.9650 -2.5916
  817MOL0     H10251   2.167   3.181   0.252  1.5049 -1.0515 -2.7873
  817MOL0     H10252   2.150   3.035   0.164 -2.5256  2.2730 -4.1312
  817MOL0     H10253   2.105   2.957   0.386 -1.0178 -0.2232  0.1911
  817MOL0     H10254   1.951   2.972   0.318  1.5171 -1.9810 -1.1884
  817MOL0     H10255   2.101   3.253   0.639  1.1113 -1.6802 -2.4568
  817MOL0     H10256   2.250   3.140   0.933 -0.0122 -1.8548 -2.3373
  817MOL0     H10257   2.194   3.294   0.875  0.7194 -0.3445  1.0692
  817MOL0     H10258   2.106   3.216   1.008 -1.1613 -0.5452 -0.9854
  817MOL0     H10259   1.744   2.695   1.085  1.5195  2.7326 -0.3370
  817MOL0     H10260   1.696   2.567   1.286 -1.5447  1.9978  1.0046
  817MOL0     H10261   1.717   2.575   1.585 -1.9291 -0.5680 -0.5735
  817MOL0     H10262   1.704   2.427   1.486  0.2602 -4.1064  3.0433
  817MOL0     H10263   1.883   2.446   1.722  0.7152  1.7717 -1.1348
  817MOL0     H10264   1.713   2.393   1.733 -0.4838 -0.7215 -0.2340
  817MOL0     H10265   1.745   2.182   1.604 -1.8022  2.7098  0.5971
  817MOL0     H10266   1.853   2.210   1.734  1.1856 -1.1105 -0.7853
  817MOL0     H10267   1.947   2.271   1.454 -1.4420 -1.4068 -0.1551
  817MOL0     H10268   2.035   2.297   1.603  0.3938  0.4816 -1.1958
  817MOL0     H10269   1.939   2.025   1.507 -2.2244 -0.5897  4.3541
  817MOL0     H10270   2.004   2.074   1.666  1.4370 -0.4585  0.1091
  817MOL0     H10271   2.154   2.093   1.414 -1.0324 -0.4253  0.4439
  817MOL0     H10272   2.201   2.175   1.566 -2.0802  1.8405 -1.8378
  817MOL0     H10273   2.184   1.932   1.674 -3.0112  0.7172  0.7981
  817MOL0     H10274   2.327   1.970   1.587 -0.4255 -1.4322  2.5664
  817MOL0     H10275   2.090   1.859   1.450 -1.2106 -0.0346  0.0354
  817MOL0     H10276   2.185   1.742   1.538 -0.1656  0.2336 -0.8035
  817MOL0     H10277   2.092   2.655   1.425  1.3350 -0.0880 -0.5983
  817MOL0     H10278   2.132   2.800   1.223  0.1180 -0.0007  1.6024
  817MOL0     H10279   1.897   2.836   0.789  1.9641 -0.6165  0.6179
  817MOL0     H10280   1.904   2.896   0.545 -0.6645  2.7952 -3.8537
  817MOL0     H10281   1.509   2.925   0.558  1.6919  0.2223  0.5380
  817MOL0     H10282   1.506   2.881   0.818  0.5943  1.2167  2.5430
  817MOL0     H10283   1.421   2.864   1.260  0.9101 -1.3118 -2.5973
  817MOL0     H10284   1.485   2.797   1.498  1.3864 -0.8810  0.2567
  817MOL0     H10285   1.889   2.782   1.608 -0.9965 -0.5863  1.0414
  817MOL0     H10286   1.869   2.954   1.654  0.2602  0.7088 -1.7771
  817MOL0     H10287   1.828   2.712   1.834  1.0524 -0.2214  1.9158
  817MOL0     H10288   1.795   2.875   1.887 -0.7839 -0.1409 -0.6032
  817MOL0     H10289   2.037   2.945   1.818  1.0231  0.1597  1.2410
  817MOL0     H10290   2.084   2.783   1.796 -1.1971  1.4449 -4.3739
  817MOL0     H10291   1.971   2.743   2.020  0.3554 -0.7870 -2.1735
  817MOL0     H10292   2.007   2.922   2.051 -0.1446 -0.2721 -0.0218
  817MOL0     H10293   2.371   2.714   2.094  0.0240  1.4048 -0.8678
  817MOL0     H10294   1.857   2.991   1.445 -0.5916  3.1070 -1.5898
  817MOL0     H10295   1.802   3.018   1.205  2.5845 -3.3701  1.4664
  818MOL0     O10296   7.407   8.307   9.483  0.3000  0.9005  0.3160
  818MOL0     C10297   7.516   8.259   9.508  0.6948 -0.3297 -0.5286
  818MOL0     O10298   7.631   8.307   9.462 -0.3988 -0.2796  0.1008
  818MOL0     C10299   7.617   8.410   9.372 -0.4582 -1.1963 -0.3318
  818MOL0     C10300   7.693   8.527   9.408  0.9462  0.5224 -0.9776
  818MOL0     C10301   7.701   8.635   9.325  0.4301 -1.0132  0.8844
  818MOL0     C10302   7.623   8.632   9.212  0.0759 -0.2343  0.1004
  818MOL0     O10303   7.625   8.745   9.133 -0.0806 -0.1576  0.7143
  818MOL0     C10304   7.670   8.729   8.998  1.2615  1.2028 -0.4676
  818MOL0     C10305   7.706   8.869   8.953  0.1669  0.2728  0.1940
  818MOL0     C10306   7.779   8.865   8.813  0.8189  0.5863  0.6008
  818MOL0     C10307   7.830   9.008   8.779 -0.4612 -0.1435  0.3200
  818MOL0     C10308   7.933   9.010   8.661 -0.3076  0.2501 -0.2012
  818MOL0     C10309   8.081   9.008   8.705  0.0333  0.3555 -0.2612
  818MOL0     C10310   8.145   8.870   8.725  0.3969  0.6153  0.9447
  818MOL0     C10311   8.165   8.787   8.591 -0.7461 -0.4481  0.1586
  818MOL0     N10312   8.217   8.648   8.615  0.1194  1.2250  0.3752
  818MOL0     C10313   8.139   8.534   8.643  0.8285 -0.0282  1.1158
  818MOL0     C10314   8.237   8.433   8.649  1.3057 -0.2964  0.3219
  818MOL0     C10315   8.197   8.286   8.659  0.7046 -0.4664  0.2019
  818MOL0     C10316   8.085   8.241   8.560 -0.5013 -0.2087 -0.1266
  818MOL0     C10317   8.048   8.091   8.579  0.1016  0.2357 -0.2071
  818MOL0     C10318   7.932   8.049   8.490 -0.0202  0.8068  1.3847
  818MOL0     O10319   7.869   7.946   8.566 -0.1736  0.0099 -0.0834
  818MOL0     C10320   7.886   7.821   8.513 -0.1515 -0.1875  1.0267
  818MOL0     C10321   8.000   7.750   8.547  0.5021 -0.0860 -0.9206
  818MOL0     C10322   8.024   7.614   8.515 -0.6078 -0.3665 -0.0371
  818MOL0     C10323   8.149   7.554   8.578  0.5449  0.7083  0.4088
  818MOL0     C10324   7.923   7.542   8.434  0.0430  0.4108 -0.4895
  818MOL0     C10325   7.937   7.411   8.379 -0.3859 -0.0296  0.1715
  818MOL0     O10326   7.824   7.364   8.331 -0.3777  0.8525  0.0544
  818MOL0     C10327   7.817   7.245   8.262 -0.5903  0.1117 -0.6552
  818MOL0     C10328   7.798   7.250   8.127 -0.1758  0.0696 -0.1344
  818MOL0     C10329   7.766   7.135   8.061  0.2001 -0.7280 -0.4789
  818MOL0     C10330   7.767   7.013   8.127  1.0634  0.7664  0.3485
  818MOL0     O10331   7.731   6.906   8.052 -0.4861  0.2799 -0.1409
  818MOL0     C10332   7.608   6.910   7.975  0.1471 -0.1737 -0.9516
  818MOL0     C10333   7.620   6.845   7.844 -0.2393 -0.0294 -0.2645
  818MOL0     C10334   7.555   6.705   7.844 -0.0670  0.4443  0.2709
  818MOL0     C10335   7.622   6.587   7.916  0.1401 -0.0557 -0.1604
  818MOL0     C10336   7.558   6.462   7.855 -1.2867 -0.3279 -0.7299
  818MOL0     C10337   7.576   6.339   7.949  0.1364 -0.5503 -0.4298
  818MOL0     C10338   7.477   6.227   7.920  1.0873  0.2348 -1.0823
  818MOL0     C10339   7.461   6.183   7.778  0.1939 -0.7868  0.2023
  818MOL0    Cl10340   7.577   6.076   7.697 -0.5060  0.2758  0.0314
  818MOL0     C10341   7.795   7.002   8.259  0.3149 -0.9435  0.0387
  818MOL0     C10342   7.812   7.125   8.329 -0.2751  0.0579  0.1194
  818MOL0     O10343   8.038   7.352   8.388  0.0719  0.1342  0.2047
  818MOL0     C10344   7.804   7.616   8.399 -0.0082 -0.6882 -0.0334
  818MOL0     C10345   7.782   7.752   8.436 -0.9230 -0.1627 -0.5572
  818MOL0     N10346   8.360   8.480   8.637  0.4788  1.1194 -0.8649
  818MOL0     N10347   8.351   8.608   8.615  0.0300  0.0736  0.0444
  818MOL0     C10348   7.546   8.523   9.174  1.4305  0.1871  0.1880
  818MOL0     C10349   7.545   8.402   9.252 -0.6872 -0.5021 -0.2184
  818MOL0     C10350   7.525   8.156   9.607  0.3153 -0.4286  0.2252
  818MOL0     C10351   7.411   8.124   9.680 -1.3185 -0.3806 -0.6374
  818MOL0     C10352   7.428   8.018   9.769  0.4026 -0.1141 -1.2751
  818MOL0     C10353   7.544   7.947   9.787  0.2206  0.7291 -0.0360
  818MOL0     O10354   7.538   7.859   9.895 -0.3235 -0.6221  0.3126
  818MOL0     C10355   7.655   7.793   9.943  0.3166 -0.8805  0.7024
  818MOL0     C10356   7.633   7.684  10.030  0.2146 -0.7085 -0.6431
  818MOL0     C10357   7.751   7.612  10.061 -0.2845 -0.8509 -0.4615
  818MOL0     C10358   7.737   7.483  10.128  0.3907 -0.3267 -0.5316
  818MOL0     C10359   7.655   7.382  10.061 -0.6041  0.1881  0.6971
  818MOL0     C10360   7.603   7.283  10.020  1.6968 -0.3033  0.2009
  818MOL0     C10361   7.661   7.982   9.719  0.6109 -0.6929  0.9686
  818MOL0     C10362   7.652   8.097   9.635  0.4017 -0.3838  0.0659
  818MOL0     H10363   7.768   8.531   9.486 -1.0169  3.0086  0.9691
  818MOL0     H10364   7.759   8.725   9.344 -1.2014  0.1035  0.7718
  818MOL0     H10365   7.760   8.666   9.000 -0.6804 -1.7138  1.6054
  818MOL0     H10366   7.597   8.677   8.935  2.1024 -0.5045 -0.0937
  818MOL0     H10367   7.614   8.926   8.939 -1.1448 -1.5322  0.9963
  818MOL0     H10368   7.769   8.911   9.032  1.7863  0.2328 -1.0175
  818MOL0     H10369   7.868   8.801   8.806 -0.7526 -1.5632 -1.3966
  818MOL0     H10370   7.712   8.832   8.734  2.5786 -0.1335 -0.6615
  818MOL0     H10371   7.746   9.077   8.766 -1.3801 -1.2354  0.3110
  818MOL0     H10372   7.889   9.048   8.861  3.8717 -1.0510 -2.0632
  818MOL0     H10373   7.910   8.928   8.593 -2.9850 -2.4372  3.5407
  818MOL0     H10374   7.925   9.108   8.613  4.3172  0.6538 -0.6028
  818MOL0     H10375   8.145   9.062   8.634 -0.0821 -1.0335 -1.4546
  818MOL0     H10376   8.087   9.061   8.801 -0.3463 -2.3642  1.3656
  818MOL0     H10377   8.245   8.882   8.768  0.9466  1.1997 -0.4251
  818MOL0     H10378   8.090   8.811   8.799 -3.1621 -0.8559 -2.5482
  818MOL0     H10379   8.240   8.845   8.535  0.9461  0.4607  3.1376
  818MOL0     H10380   8.076   8.788   8.528 -1.3166 -0.6771  0.9532
  818MOL0     H10381   8.032   8.523   8.653  0.8810  0.6040  2.8638
  818MOL0     H10382   8.285   8.226   8.635 -1.5320 -3.5706 -0.8286
  818MOL0     H10383   8.167   8.270   8.763  2.0783  2.3509  1.1248
  818MOL0     H10384   8.121   8.259   8.459  1.0255  2.2459  0.7812
  818MOL0     H10385   8.003   8.313   8.569  0.0709  0.7878 -2.2433
  818MOL0     H10386   8.020   8.075   8.683 -1.9772 -2.3593 -1.0698
  818MOL0     H10387   8.141   8.040   8.549  0.8945  1.8029 -0.5373
  818MOL0     H10388   7.980   8.020   8.395 -0.6634 -0.9876  1.5824
  818MOL0     H10389   7.867   8.133   8.463  0.1568  0.2856 -0.9383
  818MOL0     H10390   8.066   7.805   8.614  0.4383 -2.9799  1.7723
  818MOL0     H10391   8.131   7.531   8.684 -3.4495  1.4040  0.0265
  818MOL0     H10392   8.186   7.466   8.524  0.4199  0.6545  0.4114
  818MOL0     H10393   8.224   7.631   8.558  0.3848  0.2183 -2.4639
  818MOL0     H10394   7.810   7.341   8.069 -1.0789 -0.8998 -1.9259
  818MOL0     H10395   7.747   7.125   7.954  0.4823 -2.6217 -0.3889
  818MOL0     H10396   7.536   6.854   8.034  3.4834 -1.1161  2.5937
  818MOL0     H10397   7.551   7.002   7.963 -0.4706  0.1395  3.0856
  818MOL0     H10398   7.568   6.904   7.769  1.4575  4.2868  1.6570
  818MOL0     H10399   7.724   6.832   7.811 -0.8311 -3.2843 -1.2834
  818MOL0     H10400   7.556   6.684   7.737  1.0567  2.0049 -0.0584
  818MOL0     H10401   7.456   6.726   7.886 -0.0315  0.7111  0.2228
  818MOL0     H10402   7.729   6.581   7.893  0.1978 -0.9428  0.3006
  818MOL0     H10403   7.595   6.600   8.021 -3.4105  1.3258 -1.0939
  818MOL0     H10404   7.608   6.434   7.761  3.3063 -2.2536  1.9664
  818MOL0     H10405   7.451   6.479   7.841 -1.2910  1.5679  1.0930
  818MOL0     H10406   7.679   6.304   7.947  1.4280  2.8446  0.2169
  818MOL0     H10407   7.566   6.367   8.054  0.2912 -0.4204 -0.4496
  818MOL0     H10408   7.375   6.251   7.951  2.1437  1.3711  1.9608
  818MOL0     H10409   7.508   6.146   7.987  2.2706  0.9684 -0.7161
  818MOL0     H10410   7.449   6.273   7.716  3.1628 -0.6934 -0.4004
  818MOL0     H10411   7.372   6.121   7.772 -0.6966  0.4777 -0.0475
  818MOL0     H10412   7.774   6.911   8.316 -1.5946 -0.5155  0.1033
  818MOL0     H10413   7.836   7.140   8.433  1.8320  2.7974 -0.6303
  818MOL0     H10414   7.727   7.576   8.334  3.7812 -1.9180 -4.2701
  818MOL0     H10415   7.690   7.807   8.418 -1.0333 -0.1909 -0.0891
  818MOL0     H10416   7.486   8.522   9.084  1.0916 -2.7006  0.3510
  818MOL0     H10417   7.493   8.312   9.222  1.3409 -1.4330 -1.0952
  818MOL0     H10418   7.320   8.181   9.680 -1.0611  0.4258 -5.3625
  818MOL0     H10419   7.345   7.991   9.834  0.7791 -1.3853 -1.2977
  818MOL0     H10420   7.716   7.763   9.857  1.2508  0.1314  0.9997
  818MOL0     H10421   7.701   7.873  10.001  0.0302  2.0019 -2.6836
  818MOL0     H10422   7.570   7.618   9.970  1.0201 -1.3820 -0.7653
  818MOL0     H10423   7.576   7.709  10.120  0.5751 -0.7539 -0.4012
  818MOL0     H10424   7.820   7.676  10.118  1.3565 -1.3268 -1.8235
  818MOL0     H10425   7.804   7.594   9.967 -0.6075 -3.2707 -0.2423
  818MOL0     H10426   7.683   7.504  10.221  0.9787 -4.4803  0.9447
  818MOL0     H10427   7.837   7.444  10.149  0.5446  0.3358  0.0250
  818MOL0     H10428   7.556   7.190   9.994  4.6385 -2.9126  3.2271
  818MOL0     H10429   7.762   7.944   9.734  1.5070  1.6435  1.3554
  818MOL0     H10430   7.736   8.124   9.573 -1.6286 -0.9902 -3.2126
  819MOL0     O10431   2.177   9.203   9.197  0.1611 -0.1918 -0.1440
  819MOL0     C10432   2.083   9.265   9.237  0.0010  1.0910 -0.5101
  819MOL0     O10433   2.026   9.370   9.182 -0.0692 -0.0813  0.7690
  819MOL0     C10434   2.061   9.433   9.060 -0.6781  0.9864  0.3715
  819MOL0     C10435   2.093   9.366   8.943  0.7087  0.8695  0.1970
  819MOL0     C10436   2.128   9.442   8.830  0.7213 -0.3041  0.0949
  819MOL0     C10437   2.119   9.580   8.829  0.7349 -0.1288  0.3327
  819MOL0     O10438   2.137   9.644   8.711 -0.5828 -0.4542 -0.7414
  819MOL0     C10439   2.092   9.776   8.701  0.1564  0.5379 -0.0254
  819MOL0     C10440   2.076   9.806   8.552  0.3774 -0.2843 -0.4246
  819MOL0     C10441   1.996   9.942   8.524 -0.4041 -0.3372  0.1932
  819MOL0     C10442   2.014   9.982   8.380 -0.3597  0.2908 -0.2268
  819MOL0     C10443   1.931  10.103   8.331 -0.1719  0.0828 -0.2607
  819MOL0     C10444   1.976  10.239   8.390  0.0397 -1.7732  0.7949
  819MOL0     C10445   2.098  10.316   8.333 -0.5476  0.0345 -0.1910
  819MOL0     C10446   2.220  10.232   8.312 -0.5287 -0.6192 -0.1282
  819MOL0     N10447   2.320  10.310   8.245  0.9268 -0.1962 -0.3175
  819MOL0     C10448   2.454  10.318   8.276  0.2766  0.0129  0.0131
  819MOL0     C10449   2.510  10.387   8.169  0.7923 -0.3148 -0.0580
  819MOL0     C10450   2.651  10.434   8.160 -1.0666  0.1822 -0.9462
  819MOL0     C10451   2.665  10.578   8.218 -0.3829  0.4380 -0.1208
  819MOL0     C10452   2.613  10.680   8.124 -0.6242 -0.2486  0.1520
  819MOL0     C10453   2.633  10.818   8.168 -0.7244  0.1179  0.9429
  819MOL0     O10454   2.507  10.886   8.170  0.5681  0.2549 -0.4486
  819MOL0     C10455   2.436  10.908   8.283  0.4013 -0.1639 -0.3329
  819MOL0     C10456   2.326  10.992   8.265  0.7418 -0.6787 -0.2556
  819MOL0     C10457   2.261  11.052   8.374 -0.5735 -0.0465 -0.2689
  819MOL0     C10458   2.153  11.157   8.337 -0.6323 -0.9190  0.7544
  819MOL0     C10459   2.282  11.003   8.509 -0.3597 -0.5351 -0.2485
  819MOL0     C10460   2.210  11.056   8.628  0.7417 -1.5722 -0.3131
  819MOL0     O10461   2.258  11.010   8.750  0.8047  0.5828 -0.5655
  819MOL0     C10462   2.205  11.071   8.868 -0.3808 -0.2625 -0.1501
  819MOL0     C10463   2.100  11.005   8.938 -0.2669  1.0816  0.6117
  819MOL0     C10464   2.057  11.058   9.064  0.1501  0.3768 -0.0248
  819MOL0     C10465   2.101  11.186   9.110 -0.3908  0.1500  0.5464
  819MOL0     O10466   2.043  11.250   9.210  0.1328 -0.4383 -0.4705
  819MOL0     C10467   2.049  11.395   9.197 -0.3127 -0.2744 -0.3120
  819MOL0     C10468   1.950  11.451   9.292  0.5106 -0.0883 -0.6695
  819MOL0     C10469   1.880  11.580   9.246 -0.7205 -0.4909  0.6641
  819MOL0     C10470   1.981  11.694   9.219  0.5077 -0.6465  0.5859
  819MOL0     C10471   1.900  11.828   9.192  0.2674  0.4675 -0.1349
  819MOL0     C10472   1.996  11.956   9.179 -0.3365 -0.4230  0.1027
  819MOL0     C10473   2.136  11.931   9.118  0.7059 -0.7035 -0.2362
  819MOL0     C10474   2.201  12.069   9.088 -0.2797 -0.0950  0.0960
  819MOL0    Cl10475   2.333  12.045   8.967  0.3826  0.2953  0.7048
  819MOL0     C10476   2.211  11.239   9.038  0.6100 -0.0546 -0.2858
  819MOL0     C10477   2.261  11.186   8.922 -0.1048  0.1481  0.3839
  819MOL0     O10478   2.112  11.138   8.619  0.0507  0.6544  0.0593
  819MOL0     C10479   2.396  10.913   8.528  0.4116 -0.4904  0.3840
  819MOL0     C10480   2.467  10.880   8.417  0.1020  0.8309 -0.7104
  819MOL0     N10481   2.409  10.426   8.087 -0.0361 -0.1139  0.9219
  819MOL0     N10482   2.299  10.378   8.128  0.2067 -0.2298 -0.1397
  819MOL0     C10483   2.064   9.639   8.951  0.4352 -0.3597 -0.9376
  819MOL0     C10484   2.040   9.568   9.059  0.1956 -0.5230  0.5055
  819MOL0     C10485   2.026   9.209   9.354 -0.8759  0.2261 -0.5668
  819MOL0     C10486   2.034   9.073   9.387  0.2199 -0.3857  0.2528
  819MOL0     C10487   1.955   9.012   9.483  0.1586 -0.5385 -0.5251
  819MOL0     C10488   1.877   9.094   9.570 -0.4940  0.4897 -0.0329
  819MOL0     O10489   1.797   9.056   9.681 -0.5979  0.7403 -0.3606
  819MOL0     C10490   1.773   8.910   9.686 -0.3943  0.0331 -0.0332
  819MOL0     C10491   1.687   8.846   9.571 -0.0656  0.7995 -0.4679
  819MOL0     C10492   1.663   8.694   9.592  0.3641 -0.5920  0.0307
  819MOL0     C10493   1.529   8.671   9.675  0.4613  0.0257  0.7286
  819MOL0     C10494   1.543   8.705   9.814  0.2765  0.1439  0.4171
  819MOL0     C10495   1.549   8.731   9.923  0.4389 -0.0823 -0.1004
  819MOL0     C10496   1.871   9.228   9.542 -0.0038 -0.2403 -0.6568
  819MOL0     C10497   1.941   9.288   9.440 -0.1197  0.6312  0.5437
  819MOL0     H10498   2.097   9.258   8.954 -0.5444  0.9823  2.4325
  819MOL0     H10499   2.154   9.395   8.735  1.1702  0.8933 -0.3986
  819MOL0     H10500   1.995   9.792   8.751 -0.3758  2.7973 -1.6367
  819MOL0     H10501   2.152   9.864   8.728 -1.1498  1.9152 -1.3928
  819MOL0     H10502   2.174   9.807   8.502  0.2023 -0.3064 -0.7751
  819MOL0     H10503   2.010   9.729   8.510 -0.3516  0.6197 -0.9817
  819MOL0     H10504   1.893   9.919   8.552 -0.5385 -3.4869 -2.3045
  819MOL0     H10505   2.044  10.015   8.590 -2.2832 -0.6446  2.0123
  819MOL0     H10506   2.116  10.015   8.360  0.1151 -1.0183 -0.0301
  819MOL0     H10507   2.001   9.896   8.314  2.6682 -1.9523  1.8704
  819MOL0     H10508   1.936  10.100   8.221  1.6436  0.2922 -0.2215
  819MOL0     H10509   1.827  10.081   8.357 -0.7195  2.2832 -0.4188
  819MOL0     H10510   1.893  10.305   8.362  1.2961 -0.8501 -0.9250
  819MOL0     H10511   1.997  10.237   8.497 -1.7246 -1.1832  1.1800
  819MOL0     H10512   2.069  10.355   8.235 -1.2782 -3.4775 -1.5261
  819MOL0     H10513   2.118  10.403   8.396 -0.1370  0.5392 -1.0049
  819MOL0     H10514   2.200  10.152   8.240  1.2937  0.4182 -1.8884
  819MOL0     H10515   2.248  10.190   8.409 -3.5166  0.5139  1.3549
  819MOL0     H10516   2.509  10.281   8.362 -0.6019  0.1809  0.6539
  819MOL0     H10517   2.704  10.360   8.221 -1.0106 -0.6840 -2.0143
  819MOL0     H10518   2.688  10.431   8.057 -0.1985 -0.9894 -0.6178
  819MOL0     H10519   2.774  10.582   8.229 -0.2729  0.5312 -1.1705
  819MOL0     H10520   2.618  10.587   8.316  0.7174  1.7943  0.3119
  819MOL0     H10521   2.507  10.659   8.111 -0.7059 -0.3681  0.9504
  819MOL0     H10522   2.667  10.667   8.030  0.1696  0.9317  0.4195
  819MOL0     H10523   2.708  10.873   8.109 -1.1996  0.2551  0.4587
  819MOL0     H10524   2.685  10.817   8.264  0.1076  1.0823  0.5275
  819MOL0     H10525   2.292  11.015   8.165 -0.9935  1.0383  0.6375
  819MOL0     H10526   2.052  11.135   8.374 -1.0549 -2.6088 -1.2390
  819MOL0     H10527   2.203  11.247   8.375 -0.8008  0.1167 -1.3314
  819MOL0     H10528   2.147  11.162   8.228  1.2836  1.2922  0.6755
  819MOL0     H10529   2.052  10.914   8.905  1.3670  0.3568  0.1363
  819MOL0     H10530   1.971  11.013   9.112  0.6775 -2.0018 -1.1876
  819MOL0     H10531   2.149  11.430   9.221 -0.4454  0.9321 -1.3895
  819MOL0     H10532   2.015  11.426   9.098 -1.7452 -0.7752 -0.0118
  819MOL0     H10533   1.862  11.388   9.306  0.0439  1.2524  3.7863
  819MOL0     H10534   1.989  11.464   9.393 -0.4526  1.9675 -0.5158
  819MOL0     H10535   1.813  11.618   9.324  0.0622  1.0888  0.6056
  819MOL0     H10536   1.825  11.568   9.152 -0.1205 -2.2536  0.5136
  819MOL0     H10537   2.050  11.707   9.303 -1.0736 -3.1412  2.4287
  819MOL0     H10538   2.037  11.661   9.132 -0.0316  0.1411 -0.0665
  819MOL0     H10539   1.847  11.862   9.282  1.7055  2.3197  0.0790
  819MOL0     H10540   1.841  11.815   9.101  0.7990 -0.4734 -0.3657
  819MOL0     H10541   1.945  12.033   9.121 -3.1762 -0.9142  1.7921
  819MOL0     H10542   2.015  11.996   9.280 -1.0153 -2.7607  1.2226
  819MOL0     H10543   2.128  11.880   9.022  0.8171  0.1020 -0.6847
  819MOL0     H10544   2.200  11.869   9.181 -0.3894 -0.9058  0.7138
  819MOL0     H10545   2.240  12.108   9.182  1.8287 -2.3447  0.2531
  819MOL0     H10546   2.129  12.137   9.041  1.1862 -0.0010 -2.1568
  819MOL0     H10547   2.273  11.326   9.057  1.4950  0.0272 -2.9865
  819MOL0     H10548   2.342  11.239   8.872 -1.5926  0.8007 -1.4472
  819MOL0     H10549   2.425  10.870   8.623  0.6426 -3.9854 -1.0934
  819MOL0     H10550   2.556  10.823   8.444  0.3632  2.3090  1.8692
  819MOL0     H10551   2.027   9.740   8.959  1.5784 -0.0411  1.0115
  819MOL0     H10552   2.002   9.627   9.142  1.4569  0.2309  0.5697
  819MOL0     H10553   2.090   9.009   9.319  0.2008 -2.5464  2.1504
  819MOL0     H10554   1.958   8.904   9.489  0.5964 -0.5481 -0.8554
  819MOL0     H10555   1.870   8.860   9.693  0.3611  1.2955 -0.9839
  819MOL0     H10556   1.717   8.890   9.777  1.5708 -2.0336  0.8307
  819MOL0     H10557   1.732   8.873   9.475 -0.1415  3.0670  0.0960
  819MOL0     H10558   1.587   8.890   9.577 -2.1389 -3.5027  1.4058
  819MOL0     H10559   1.734   8.634   9.650  1.7008  1.2298  0.3591
  819MOL0     H10560   1.646   8.653   9.493 -0.0167  0.5104 -0.3785
  819MOL0     H10561   1.494   8.568   9.672  1.9591 -0.5182  1.1046
  819MOL0     H10562   1.455   8.733   9.623  1.3133  1.4558  1.1747
  819MOL0     H10563   1.536   8.769  10.022  1.9113 -1.2187  0.5713
  819MOL0     H10564   1.807   9.292   9.602  1.0989 -1.3470  1.8012
  819MOL0     H10565   1.914   9.392   9.425 -0.9135  0.3261 -0.1911
  820MOL0     O10566   5.990  10.333   5.311 -0.2149  0.7927 -0.6104
  820MOL0     C10567   5.940  10.450   5.319 -0.5338 -0.6301 -0.1469
  820MOL0     O10568   6.009  10.557   5.352  0.2720  0.0529  0.1467
  820MOL0     C10569   6.125  10.552   5.418  0.1478  0.8142 -0.8722
  820MOL0     C10570   6.140  10.578   5.556 -0.1455 -0.8836  0.0496
  820MOL0     C10571   6.257  10.619   5.614 -0.1515  0.3302  0.0869
  820MOL0     C10572   6.372  10.616   5.539 -0.2407  0.2414 -0.0439
  820MOL0     O10573   6.486  10.656   5.605  0.2586 -0.5045 -1.6336
  820MOL0     C10574   6.607  10.672   5.533  0.5522  0.5683  0.6587
  820MOL0     C10575   6.709  10.713   5.638  0.8456  0.4331  0.3562
  820MOL0     C10576   6.851  10.736   5.591 -0.1038  0.4248  0.7172
  820MOL0     C10577   6.935  10.786   5.711 -0.1004 -1.0510  1.0039
  820MOL0     C10578   7.088  10.813   5.690 -0.2263  0.9639  0.3070
  820MOL0     C10579   7.135  10.908   5.576  0.3542 -0.8717 -0.7856
  820MOL0     C10580   7.273  10.969   5.610 -0.4909 -0.3430  1.0670
  820MOL0     C10581   7.381  10.860   5.615 -0.1550  0.1668  0.1077
  820MOL0     N10582   7.515  10.912   5.631 -0.2898 -0.2612  0.0374
  820MOL0     C10583   7.585  10.986   5.536 -0.1583 -0.3926  0.4212
  820MOL0     C10584   7.705  11.003   5.592  0.3159  0.5914  0.3190
  820MOL0     C10585   7.804  11.096   5.531 -0.0700 -0.4683  0.1502
  820MOL0     C10586   7.760  11.243   5.537  0.4194 -1.4741 -0.5790
  820MOL0     C10587   7.772  11.306   5.680  0.1639 -0.8208  0.7004
  820MOL0     C10588   7.692  11.438   5.702 -1.0106  0.9665 -0.4451
  820MOL0     O10589   7.717  11.525   5.588  0.5242  0.1201  0.0010
  820MOL0     C10590   7.827  11.597   5.570 -0.1167  0.6714 -0.2547
  820MOL0     C10591   7.916  11.631   5.673 -1.1751  0.7714 -0.1577
  820MOL0     C10592   8.025  11.720   5.647  0.3650  0.2658  0.7829
  820MOL0     C10593   8.107  11.765   5.768  0.6242 -0.4404 -0.5855
  820MOL0     C10594   8.036  11.785   5.518  0.0898 -0.3953  0.0005
  820MOL0     C10595   8.137  11.888   5.483  0.1273 -0.3870  0.2956
  820MOL0     O10596   8.173  11.899   5.353 -0.5221  0.0762 -0.0043
  820MOL0     C10597   8.279  11.967   5.297 -0.0352  0.2771  0.0102
  820MOL0     C10598   8.280  11.962   5.158  0.1759 -0.6274  0.7385
  820MOL0     C10599   8.372  12.034   5.093 -1.0698 -0.4854  0.6450
  820MOL0     C10600   8.473  12.111   5.158 -1.2169 -0.0012  0.6682
  820MOL0     O10601   8.564  12.192   5.083  0.4775 -0.1287  0.2661
  820MOL0     C10602   8.699  12.194   5.125 -0.3805 -0.6118  0.3000
  820MOL0     C10603   8.788  12.200   5.005  0.1406  0.1000 -0.9976
  820MOL0     C10604   8.764  12.076   4.919 -0.1683  0.5506 -0.5778
  820MOL0     C10605   8.861  12.061   4.809 -1.1858  0.7890  0.6160
  820MOL0     C10606   8.905  11.932   4.745  0.2806  0.1443 -0.1061
  820MOL0     C10607   9.004  11.958   4.638  0.5016  0.2040 -0.2371
  820MOL0     C10608   9.046  11.839   4.557 -0.5982 -0.4073 -0.2005
  820MOL0     C10609   8.937  11.789   4.453 -0.2213  0.6728 -0.0006
  820MOL0    Cl10610   8.978  11.802   4.275  0.1024  0.2876  0.2315
  820MOL0     C10611   8.478  12.117   5.293  0.4853  0.5487 -0.2909
  820MOL0     C10612   8.382  12.039   5.362  0.4321 -0.1146 -0.0836
  820MOL0     O10613   8.184  11.957   5.572 -0.2018 -0.3915  0.0168
  820MOL0     C10614   7.947  11.744   5.419  1.2551 -0.1759  0.0544
  820MOL0     C10615   7.851  11.651   5.448  0.2915  0.5317  0.0415
  820MOL0     N10616   7.711  10.956   5.727  0.2094 -0.0808  1.0697
  820MOL0     N10617   7.596  10.903   5.745  0.0798  0.5505  0.6995
  820MOL0     C10618   6.366  10.586   5.402 -1.3090  0.5609  0.3005
  820MOL0     C10619   6.243  10.545   5.349 -0.1350  0.2164  0.4197
  820MOL0     C10620   5.793  10.467   5.300  0.2834 -0.1840 -0.2428
  820MOL0     C10621   5.722  10.591   5.314 -0.8808  1.1846 -1.3092
  820MOL0     C10622   5.580  10.598   5.303  0.6641 -0.1202 -0.5740
  820MOL0     C10623   5.502  10.470   5.298 -0.0116 -0.4311  0.7764
  820MOL0     O10624   5.367  10.477   5.294  0.6626 -0.2572  0.0868
  820MOL0     C10625   5.302  10.348   5.259  0.3587 -0.6784 -0.4316
  820MOL0     C10626   5.149  10.364   5.250  0.0107 -0.3048  0.5199
  820MOL0     C10627   5.104  10.455   5.131 -0.7411 -0.4643 -0.5035
  820MOL0     C10628   4.958  10.458   5.111  0.0569  0.1253 -0.0692
  820MOL0     C10629   4.875  10.489   5.232 -0.8280 -0.0067 -0.1553
  820MOL0     C10630   4.817  10.492   5.333  0.7017  0.1238  0.2042
  820MOL0     C10631   5.573  10.345   5.292  0.9374 -0.7695 -0.6975
  820MOL0     C10632   5.713  10.350   5.290  1.3926 -0.1961  0.2201
  820MOL0     H10633   6.049  10.596   5.612  0.2477  0.1891  0.3532
  820MOL0     H10634   6.248  10.649   5.718  1.3457 -1.8255  0.9040
  820MOL0     H10635   6.647  10.580   5.490 -2.2734 -1.2184  1.5257
  820MOL0     H10636   6.603  10.751   5.457  2.1059 -0.0286 -0.0758
  820MOL0     H10637   6.675  10.801   5.692  1.8463  0.1679  1.4451
  820MOL0     H10638   6.719  10.639   5.717  1.4953  0.5707  0.4148
  820MOL0     H10639   6.904  10.653   5.543 -0.9809  0.5259 -0.4695
  820MOL0     H10640   6.833  10.813   5.516 -2.0792 -0.0274  0.6661
  820MOL0     H10641   6.892  10.882   5.741 -0.5169 -1.3095  1.2531
  820MOL0     H10642   6.937  10.712   5.792  2.5439 -0.9578  1.1198
  820MOL0     H10643   7.111  10.859   5.786 -0.8424  1.6120  0.1510
  820MOL0     H10644   7.148  10.724   5.668  0.1598  0.3162  3.4066
  820MOL0     H10645   7.144  10.865   5.476 -1.6165 -0.8248 -1.0114
  820MOL0     H10646   7.069  10.995   5.581  3.8210  2.1766 -2.7877
  820MOL0     H10647   7.306  11.025   5.522  0.3410  1.1620  2.3073
  820MOL0     H10648   7.275  11.036   5.696 -0.2106  0.6275  0.3212
  820MOL0     H10649   7.380  10.795   5.527 -0.5403  2.8961 -2.0268
  820MOL0     H10650   7.361  10.799   5.703 -1.5446  0.8402  0.2861
  820MOL0     H10651   7.560  11.021   5.437  0.5701 -1.4184 -0.1481
  820MOL0     H10652   7.900  11.080   5.580  0.1474 -2.9913 -0.9221
  820MOL0     H10653   7.817  11.073   5.425  3.2658  0.4919  0.2543
  820MOL0     H10654   7.658  11.243   5.497 -0.0667  0.5842  0.5152
  820MOL0     H10655   7.809  11.308   5.463  0.1884  1.9275  1.9763
  820MOL0     H10656   7.877  11.316   5.710  1.0388 -1.0732 -2.0688
  820MOL0     H10657   7.730  11.236   5.753  0.4470  0.2146  1.8988
  820MOL0     H10658   7.703  11.475   5.805 -0.0479  1.5301 -0.7311
  820MOL0     H10659   7.587  11.415   5.683 -0.6396  0.2746 -1.7995
  820MOL0     H10660   7.889  11.618   5.777  0.6772  0.3520  0.3212
  820MOL0     H10661   8.071  11.864   5.798  0.8887 -0.2850 -0.7800
  820MOL0     H10662   8.076  11.700   5.850  2.8160  1.7641  2.2084
  820MOL0     H10663   8.214  11.774   5.747  1.1168  1.0092  2.1607
  820MOL0     H10664   8.194  11.920   5.107  0.3714 -0.7779  0.5248
  820MOL0     H10665   8.371  12.041   4.985  0.0699 -1.0110  0.5846
  820MOL0     H10666   8.724  12.283   5.184 -1.4867 -0.0679 -0.0244
  820MOL0     H10667   8.731  12.105   5.181  0.7100  0.3853  1.3127
  820MOL0     H10668   8.765  12.290   4.946  0.0135  0.3012 -0.6472
  820MOL0     H10669   8.888  12.214   5.046 -0.5324  2.0412  0.1253
  820MOL0     H10670   8.660  12.070   4.886 -0.2418  1.7326 -0.6141
  820MOL0     H10671   8.762  11.983   4.976 -0.8491  2.3447  2.5401
  820MOL0     H10672   8.836  12.142   4.739 -1.6098  1.5314  1.5895
  820MOL0     H10673   8.955  12.082   4.861 -1.2125  1.5096  0.3900
  820MOL0     H10674   8.817  11.888   4.697 -0.8593  3.7415 -1.6475
  820MOL0     H10675   8.950  11.868   4.822  3.4398 -0.1805 -2.0332
  820MOL0     H10676   8.972  12.042   4.576  0.6785  1.7161  1.6137
  820MOL0     H10677   9.097  11.992   4.683 -0.6337  1.1193  1.5458
  820MOL0     H10678   9.064  11.768   4.638  2.0813  1.5777  1.1064
  820MOL0     H10679   9.139  11.856   4.503  0.5318  0.5327  1.9084
  820MOL0     H10680   8.838  11.834   4.469 -0.8349 -0.3398 -0.8000
  820MOL0     H10681   8.916  11.685   4.480  2.5047  0.3258  1.0546
  820MOL0     H10682   8.551  12.169   5.354  0.4352  0.1309  0.1265
  820MOL0     H10683   8.379  12.035   5.470 -0.5542 -2.1903 -0.1507
  820MOL0     H10684   7.946  11.793   5.322  1.4117  1.3870  0.7991
  820MOL0     H10685   7.780  11.630   5.369  0.0298  0.4237  0.3039
  820MOL0     H10686   6.457  10.601   5.345 -1.6447 -0.8277 -0.6795
  820MOL0     H10687   6.250  10.536   5.241 -1.1471  0.7654  0.2992
  820MOL0     H10688   5.777  10.681   5.341  1.6792 -0.9661  1.3771
  820MOL0     H10689   5.532  10.691   5.329 -0.0623 -0.6745  0.1160
  820MOL0     H10690   5.334  10.308   5.162 -2.5984 -0.7003 -1.4934
  820MOL0     H10691   5.333  10.275   5.334 -1.0894  0.2987  1.1807
  820MOL0     H10692   5.104  10.399   5.343 -2.2589 -1.1924 -0.1618
  820MOL0     H10693   5.107  10.266   5.225  1.2240 -0.4193 -1.2464
  820MOL0     H10694   5.149  10.420   5.037 -2.5861  2.7319 -2.7910
  820MOL0     H10695   5.142  10.552   5.164  1.4673 -2.2370  2.7155
  820MOL0     H10696   4.923  10.365   5.064 -1.6753  0.8391 -0.2424
  820MOL0     H10697   4.940  10.528   5.030  0.7042  2.5394  1.7727
  820MOL0     H10698   4.759  10.485   5.423 -0.6712  0.7030 -0.6005
  820MOL0     H10699   5.543  10.240   5.295  0.8438 -0.7280 -0.0840
  820MOL0     H10700   5.772  10.260   5.275  2.4448  0.8212 -2.2427
  821MOL0     O10701   0.042  11.136  10.761  0.4191  0.2212  0.3512
  821MOL0     C10702   0.092  11.030  10.790 -0.4478 -0.4890 -0.5810
  821MOL0     O10703   0.197  10.979  10.734  0.0534 -0.5363  0.6731
  821MOL0     C10704   0.243  11.044  10.619 -0.0244 -0.1204  1.1099
  821MOL0     C10705   0.216  10.996  10.485 -0.5104 -0.2923 -0.1739
  821MOL0     C10706   0.278  11.047  10.370 -1.7183  0.8125 -0.8633
  821MOL0     C10707   0.392  11.145  10.388  0.9565  0.4306  0.5356
  821MOL0     O10708   0.462  11.196  10.280 -0.1717  0.1403 -0.2153
  821MOL0     C10709   0.417  11.180  10.146 -0.1083 -0.3373  1.2311
  821MOL0     C10710   0.505  11.282  10.069  0.5717 -0.0061  0.6004
  821MOL0     C10711   0.650  11.233  10.048  0.4399  0.2176  0.5922
  821MOL0     C10712   0.716  11.320   9.942  0.1480 -1.1403  0.3852
  821MOL0     C10713   0.843  11.257   9.885 -0.3898 -0.0165  0.5833
  821MOL0     C10714   0.814  11.176   9.764 -0.1213  0.0202  0.0827
  821MOL0     C10715   0.942  11.111   9.716 -0.9274 -0.1006 -0.4940
  821MOL0     C10716   0.948  11.108   9.560 -0.1977 -0.3947  0.8937
  821MOL0     N10717   0.925  11.241   9.495  0.8023 -0.5843  0.4080
  821MOL0     C10718   1.017  11.350   9.476 -0.1794  0.6389 -0.4898
  821MOL0     C10719   0.947  11.434   9.394  0.2042 -0.1549 -0.4486
  821MOL0     C10720   1.006  11.558   9.336 -0.2696  0.4111 -0.5741
  821MOL0     C10721   0.916  11.679   9.359 -0.0430  0.6509 -0.2186
  821MOL0     C10722   0.991  11.796   9.306 -0.3398 -0.6784 -0.2931
  821MOL0     C10723   0.901  11.921   9.304  0.2756 -0.4768 -0.4000
  821MOL0     O10724   0.981  12.038   9.329 -0.3914 -0.2667 -0.3234
  821MOL0     C10725   1.021  12.043   9.459 -0.2173 -1.3745  0.2385
  821MOL0     C10726   0.933  12.103   9.547  0.1275  0.3792 -0.1323
  821MOL0     C10727   0.968  12.117   9.677  0.6390 -0.0309 -0.6135
  821MOL0     C10728   0.878  12.194   9.770  0.4025  0.1072 -0.2652
  821MOL0     C10729   1.090  12.066   9.727  0.5400  0.8682  0.1321
  821MOL0     C10730   1.139  12.060   9.860  0.6136  0.1585  0.4520
  821MOL0     O10731   1.049  12.051   9.960 -0.9403  0.1016 -0.3630
  821MOL0     C10732   1.091  12.039  10.096  0.8371 -0.5230  0.7935
  821MOL0     C10733   1.015  12.109  10.192 -0.3925 -0.3930  0.1873
  821MOL0     C10734   1.042  12.100  10.324 -0.1013 -0.4208  0.6292
  821MOL0     C10735   1.146  12.026  10.369  0.6695  0.5539 -0.4591
  821MOL0     O10736   1.169  12.051  10.505 -0.5975  0.0317  0.4307
  821MOL0     C10737   1.179  11.932  10.589  0.0539  1.1410 -0.7176
  821MOL0     C10738   1.193  11.978  10.745  0.4271 -0.5743 -0.0826
  821MOL0     C10739   1.330  12.041  10.796  0.7598  0.4907 -0.3225
  821MOL0     C10740   1.450  11.979  10.728  0.2888  0.6330  0.1871
  821MOL0     C10741   1.580  12.015  10.803 -0.3391  0.0968  0.5955
  821MOL0     C10742   1.702  11.964  10.721  0.1301  0.5260 -0.2840
  821MOL0     C10743   1.817  12.059  10.738  0.4484  0.0794 -0.6201
  821MOL0     C10744   1.940  12.033  10.653  0.0348  0.2208  0.5183
  821MOL0    Cl10745   1.900  12.005  10.470 -0.0162  0.3510 -0.0699
  821MOL0     C10746   1.221  11.948  10.279 -0.0964 -0.2419 -0.5012
  821MOL0     C10747   1.196  11.955  10.139  0.3473 -0.1384 -1.0915
  821MOL0     O10748   1.263  12.057   9.867 -0.2144  1.0452 -0.4170
  821MOL0     C10749   1.177  12.018   9.629  0.5458 -0.0542  0.4194
  821MOL0     C10750   1.146  12.008   9.497 -1.7460 -0.0287 -0.0637
  821MOL0     N10751   0.814  11.403   9.386  0.2069  0.4269 -0.6566
  821MOL0     N10752   0.806  11.277   9.434 -0.4083 -0.1904 -0.5483
  821MOL0     C10753   0.415  11.196  10.514  0.7219 -0.2704 -0.5077
  821MOL0     C10754   0.346  11.141  10.626 -0.3415  0.2643 -0.2874
  821MOL0     C10755   0.037  10.959  10.909 -1.1123  0.1386 -0.4487
  821MOL0     C10756   0.088  10.840  10.954  0.3164  1.2916 -0.0268
  821MOL0     C10757   0.036  10.781  11.067  0.0614  0.6401  0.3093
  821MOL0     C10758  -0.071  10.836  11.135  1.4177  0.1809 -0.8092
  821MOL0     O10759  -0.112  10.766  11.250  0.3516  0.1626  0.1109
  821MOL0     C10760  -0.226  10.800  11.332  0.7433 -0.5190 -0.3021
  821MOL0     C10761  -0.233  10.698  11.446  0.9657 -0.5544 -0.0035
  821MOL0     C10762  -0.366  10.704  11.530  0.8403 -0.5061 -0.8123
  821MOL0     C10763  -0.496  10.679  11.469 -0.0009  0.6569  0.1258
  821MOL0     C10764  -0.596  10.675  11.579  0.5913  0.0767  0.5155
  821MOL0     C10765  -0.673  10.678  11.667  0.2154  0.5781 -1.1022
  821MOL0     C10766  -0.124  10.959  11.100  0.4657  0.5278  1.4266
  821MOL0     C10767  -0.059  11.023  10.997  0.1493 -0.6227  0.1654
  821MOL0     H10768   0.123  10.944  10.465 -1.2307  1.5658 -1.9675
  821MOL0     H10769   0.251  11.008  10.273 -1.5473  0.6828 -0.8594
  821MOL0     H10770   0.438  11.082  10.102  2.0995  1.3666 -1.9430
  821MOL0     H10771   0.313  11.211  10.134  0.2333  1.0178  1.4939
  821MOL0     H10772   0.457  11.277   9.970  1.1325 -0.8340  0.3522
  821MOL0     H10773   0.495  11.385  10.102 -0.0596 -0.0722  0.6415
  821MOL0     H10774   0.703  11.233  10.144  0.0973 -0.0582  0.7830
  821MOL0     H10775   0.666  11.140   9.993  1.1090  1.4879 -1.5208
  821MOL0     H10776   0.648  11.347   9.860  1.2082  2.2362  0.4712
  821MOL0     H10777   0.747  11.412   9.992 -0.7244 -0.1422 -0.8408
  821MOL0     H10778   0.909  11.340   9.856 -1.0347  0.1723 -0.3825
  821MOL0     H10779   0.900  11.194   9.954  1.2460 -1.6059 -2.0464
  821MOL0     H10780   0.740  11.098   9.778 -0.9251  0.2636 -2.2927
  821MOL0     H10781   0.769  11.240   9.687 -1.0428 -1.1820 -0.3982
  821MOL0     H10782   1.025  11.168   9.759 -1.5079 -1.3389  2.4580
  821MOL0     H10783   0.956  11.013   9.761 -0.4746  0.2899  0.2316
  821MOL0     H10784   0.872  11.034   9.534 -0.7164  0.8932 -1.4952
  821MOL0     H10785   1.049  11.082   9.528  0.6571  1.9169  1.5140
  821MOL0     H10786   1.121  11.343   9.506  0.3428 -4.1798 -2.4193
  821MOL0     H10787   1.099  11.580   9.388 -1.6143 -0.8232  2.5760
  821MOL0     H10788   1.026  11.536   9.230  3.0691 -3.2840  0.5789
  821MOL0     H10789   0.895  11.697   9.465 -0.7654 -0.5263 -0.1415
  821MOL0     H10790   0.822  11.666   9.305 -0.1652 -2.0463  0.4771
  821MOL0     H10791   1.012  11.782   9.199 -2.8513  2.7184 -1.3931
  821MOL0     H10792   1.090  11.800   9.353 -0.9261 -1.5132  1.0916
  821MOL0     H10793   0.829  11.914   9.386  1.1626  1.7231  0.6279
  821MOL0     H10794   0.853  11.922   9.205 -0.2833  1.7513 -0.1679
  821MOL0     H10795   0.842  12.143   9.505  0.4183 -0.7727 -1.9895
  821MOL0     H10796   0.844  12.132   9.853  1.6055  0.4044  0.4687
  821MOL0     H10797   0.953  12.266   9.805  0.6589 -0.9433  1.4380
  821MOL0     H10798   0.788  12.233   9.721 -0.0469 -2.5867 -1.7838
  821MOL0     H10799   0.932  12.173  10.167 -0.8334  0.3878  3.2772
  821MOL0     H10800   1.002  12.156  10.408  2.7133 -0.2776  1.9866
  821MOL0     H10801   1.088  11.872  10.578 -2.0383  4.0800 -0.6537
  821MOL0     H10802   1.270  11.883  10.553  1.2941  1.9102  1.2195
  821MOL0     H10803   1.122  12.059  10.765 -2.7478 -3.1053 -0.3477
  821MOL0     H10804   1.171  11.893  10.810 -2.9691 -0.1144 -0.4461
  821MOL0     H10805   1.339  12.051  10.904 -0.0096  3.2265 -0.4157
  821MOL0     H10806   1.331  12.145  10.760  1.5134 -0.0713 -2.0113
  821MOL0     H10807   1.458  11.871  10.714  1.4204  0.5960  0.9775
  821MOL0     H10808   1.458  12.025  10.629 -1.1889  1.7689  0.5527
  821MOL0     H10809   1.578  11.978  10.905  1.5977 -1.9657 -0.0441
  821MOL0     H10810   1.577  12.124  10.803 -0.5329  0.0948  1.4720
  821MOL0     H10811   1.730  11.859  10.736  2.4586  1.1390  0.1597
  821MOL0     H10812   1.679  11.987  10.617  0.3835 -0.2358 -0.5137
  821MOL0     H10813   1.848  12.059  10.843  0.1707 -2.5431 -0.4576
  821MOL0     H10814   1.771  12.153  10.706 -0.8123 -1.1317 -2.5102
  821MOL0     H10815   1.995  11.948  10.695 -0.3853 -0.5453 -0.4366
  821MOL0     H10816   2.005  12.121  10.656 -0.2454  0.5244 -1.3851
  821MOL0     H10817   1.301  11.886  10.317  0.0887 -0.3793 -1.1018
  821MOL0     H10818   1.257  11.897  10.070  0.5733 -2.0975  0.6714
  821MOL0     H10819   1.281  11.994   9.652  0.8548  0.7280 -0.1147
  821MOL0     H10820   1.231  11.987   9.432 -1.4228 -3.4729  1.2610
  821MOL0     H10821   0.499  11.261  10.531 -0.3060  1.9460 -3.1832
  821MOL0     H10822   0.391  11.161  10.723 -0.3017 -2.3557  0.2865
  821MOL0     H10823   0.169  10.789  10.901 -2.2232 -1.3229 -1.7093
  821MOL0     H10824   0.085  10.692  11.107  0.5371  1.3121  1.2746
  821MOL0     H10825  -0.196  10.902  11.360  2.3699 -1.1025  0.1810
  821MOL0     H10826  -0.312  10.783  11.267  0.8454 -3.2758  0.1755
  821MOL0     H10827  -0.140  10.701  11.504  1.1926 -1.7041 -0.2895
  821MOL0     H10828  -0.224  10.604  11.390  2.4254 -0.7227  0.4699
  821MOL0     H10829  -0.366  10.800  11.582  1.3683 -0.6673 -0.5091
  821MOL0     H10830  -0.356  10.631  11.611  0.6160 -0.5402 -0.8137
  821MOL0     H10831  -0.497  10.574  11.437  0.0396  0.1406  1.7498
  821MOL0     H10832  -0.522  10.740  11.382  0.8871  0.2631 -0.4301
  821MOL0     H10833  -0.719  10.667  11.763  0.7947  1.0711 -0.7617
  821MOL0     H10834  -0.205  11.010  11.152 -0.1784  0.0180  0.9293
  821MOL0     H10835  -0.086  11.125  10.970 -2.8351 -1.9589 -2.5343
  822MOL0     O10836   3.048   9.125   2.355 -0.4128 -0.2790  0.0149
  822MOL0     C10837   3.104   9.017   2.372 -0.6181 -0.4351  0.3720
  822MOL0     O10838   3.048   8.888   2.348  0.1370 -0.6174 -0.4163
  822MOL0     C10839   2.950   8.882   2.249  0.0661  0.5507  0.6064
  822MOL0     C10840   2.970   8.791   2.143  0.1708  0.0564 -0.1499
  822MOL0     C10841   2.869   8.781   2.041 -0.5781 -0.1476 -0.2166
  822MOL0     C10842   2.753   8.848   2.047  0.9310 -0.3466  0.8667
  822MOL0     O10843   2.665   8.818   1.945  0.1717 -0.2152  0.8049
  822MOL0     C10844   2.545   8.894   1.934  0.0503  0.6518 -0.1269
  822MOL0     C10845   2.450   8.834   1.825 -0.1703 -0.3972 -1.0931
  822MOL0     C10846   2.314   8.920   1.813  0.4795  0.9359  0.5356
  822MOL0     C10847   2.226   8.846   1.707  0.2372  0.6946  0.4593
  822MOL0     C10848   2.078   8.895   1.695  0.3861 -0.2854 -0.7514
  822MOL0     C10849   2.016   8.868   1.559 -0.1643  1.7878  0.0795
  822MOL0     C10850   1.877   8.939   1.533 -1.2784 -0.8003 -0.1012
  822MOL0     C10851   1.796   8.874   1.428  0.3052 -0.1578 -0.3014
  822MOL0     N10852   1.742   8.750   1.480 -0.6983  0.2482 -0.5725
  822MOL0     C10853   1.657   8.726   1.580 -0.9994 -0.6000  0.8701
  822MOL0     C10854   1.631   8.593   1.591 -0.1364 -0.7336  0.0509
  822MOL0     C10855   1.536   8.534   1.692  0.1674 -0.0011  0.0215
  822MOL0     C10856   1.563   8.583   1.834 -0.4074 -0.1029 -0.7520
  822MOL0     C10857   1.459   8.538   1.928  0.5536 -0.7544  0.0790
  822MOL0     C10858   1.417   8.394   1.935  0.5454 -0.4308 -0.1140
  822MOL0     O10859   1.318   8.366   2.037 -0.4071 -0.0509  0.1673
  822MOL0     C10860   1.319   8.236   2.086  1.1905 -0.1634 -0.3724
  822MOL0     C10861   1.287   8.226   2.227 -0.0530  1.0315 -0.3259
  822MOL0     C10862   1.284   8.098   2.291 -0.1745 -0.7061 -0.6652
  822MOL0     C10863   1.244   8.109   2.435  0.8822  0.1080 -0.3167
  822MOL0     C10864   1.312   7.978   2.214  0.1970 -1.1479 -0.5611
  822MOL0     C10865   1.306   7.846   2.269  1.5655  0.0068 -0.2426
  822MOL0     O10866   1.402   7.754   2.221 -0.4114 -0.2190  0.4382
  822MOL0     C10867   1.442   7.642   2.292  0.3952 -0.2889 -0.2004
  822MOL0     C10868   1.373   7.573   2.384  0.1999 -0.0346 -0.0015
  822MOL0     C10869   1.418   7.457   2.447 -0.5712 -0.3131 -0.2264
  822MOL0     C10870   1.542   7.408   2.411  0.0108  0.7666  0.5033
  822MOL0     O10871   1.582   7.287   2.467 -0.2457 -0.1357  0.7342
  822MOL0     C10872   1.725   7.257   2.455  0.1202  0.2774  0.0308
  822MOL0     C10873   1.746   7.125   2.523  0.7687  0.5021 -0.2332
  822MOL0     C10874   1.892   7.083   2.554  0.1532 -0.2259  0.4045
  822MOL0     C10875   1.908   6.942   2.620 -0.5838 -0.3508 -0.0096
  822MOL0     C10876   2.031   6.925   2.717  0.2171 -0.7311 -0.2478
  822MOL0     C10877   2.173   6.933   2.649  0.7006  0.1072 -0.4084
  822MOL0     C10878   2.297   6.942   2.753  0.3165  0.1104  0.4475
  822MOL0     C10879   2.301   6.828   2.852  0.5870  0.4135 -0.1746
  822MOL0    Cl10880   2.283   6.669   2.768 -0.1596  0.3374 -0.1135
  822MOL0     C10881   1.623   7.484   2.325  0.3950  0.2607 -0.3889
  822MOL0     C10882   1.569   7.600   2.269 -0.1534  0.0947  0.0525
  822MOL0     O10883   1.216   7.825   2.354  0.5799 -0.2838  0.5314
  822MOL0     C10884   1.351   7.995   2.079 -0.8056  0.0556 -0.6544
  822MOL0     C10885   1.357   8.126   2.020  0.1568 -0.3603  0.3721
  822MOL0     N10886   1.690   8.538   1.484  0.1209  0.4226 -0.6406
  822MOL0     N10887   1.750   8.630   1.415 -0.4645  0.8286  0.3069
  822MOL0     C10888   2.725   8.928   2.159  0.3653 -0.0866 -0.3240
  822MOL0     C10889   2.820   8.938   2.261 -0.5749  0.2691  0.3084
  822MOL0     C10890   3.242   9.005   2.419 -0.2808 -0.5550 -0.2682
  822MOL0     C10891   3.306   9.122   2.449 -0.7582  0.2426 -0.3245
  822MOL0     C10892   3.448   9.124   2.477  0.0439 -0.0614  0.3391
  822MOL0     C10893   3.525   9.007   2.488 -0.1169  0.5550 -0.3075
  822MOL0     O10894   3.660   8.992   2.513  0.0114 -0.0371 -0.4892
  822MOL0     C10895   3.731   9.118   2.531  0.5139  0.3081  0.5383
  822MOL0     C10896   3.880   9.098   2.552 -0.7479 -0.0885 -0.5037
  822MOL0     C10897   3.965   9.215   2.578  0.2093 -0.3083  0.1884
  822MOL0     C10898   4.104   9.178   2.634 -0.3734 -0.4646  0.2978
  822MOL0     C10899   4.091   9.130   2.771 -0.0545  0.4479 -0.3006
  822MOL0     C10900   4.098   9.066   2.878  0.0596 -0.5510  0.1734
  822MOL0     C10901   3.456   8.888   2.462 -1.1055 -1.4517  0.3237
  822MOL0     C10902   3.316   8.888   2.422 -0.1382 -0.1506 -0.5275
  822MOL0     H10903   3.059   8.729   2.138 -0.8003 -2.0371  3.9265
  822MOL0     H10904   2.880   8.713   1.957  0.5418 -1.7965  1.1728
  822MOL0     H10905   2.481   8.885   2.022  1.0614  1.5107  0.7301
  822MOL0     H10906   2.561   8.997   1.901  1.0246  1.0959  1.6099
  822MOL0     H10907   2.501   8.850   1.730 -0.7428  0.9154 -1.2109
  822MOL0     H10908   2.424   8.730   1.846 -1.0515 -0.0794 -0.5450
  822MOL0     H10909   2.260   8.909   1.908  0.5348  0.3800  0.5104
  822MOL0     H10910   2.335   9.026   1.802 -3.6602  2.1957  2.8390
  822MOL0     H10911   2.269   8.856   1.608  2.0518 -1.0190  1.0044
  822MOL0     H10912   2.207   8.739   1.718  0.3297  0.4669 -1.3158
  822MOL0     H10913   2.013   8.867   1.779  0.4203 -0.6203 -0.8331
  822MOL0     H10914   2.070   9.003   1.706 -2.4086 -0.5159  0.2809
  822MOL0     H10915   2.079   8.920   1.487 -0.3009  0.8301 -0.7464
  822MOL0     H10916   2.007   8.760   1.545  1.6923  1.3027  2.0936
  822MOL0     H10917   1.816   8.946   1.624  1.8751  1.8164  2.0585
  822MOL0     H10918   1.904   9.043   1.514  4.6670 -1.1865  3.6584
  822MOL0     H10919   1.868   8.853   1.349  1.9591  2.2914  0.4555
  822MOL0     H10920   1.712   8.929   1.385  0.0406 -0.6901 -0.4776
  822MOL0     H10921   1.603   8.803   1.635  0.8252 -0.6684  2.8857
  822MOL0     H10922   1.438   8.554   1.649 -0.1656  0.5285  1.0039
  822MOL0     H10923   1.542   8.425   1.700 -0.7151  0.0615  1.9185
  822MOL0     H10924   1.554   8.692   1.835 -1.4055 -0.1784  0.0923
  822MOL0     H10925   1.663   8.558   1.870 -1.3790 -0.1104  2.2364
  822MOL0     H10926   1.375   8.601   1.899  0.1332 -1.2078  0.2958
  822MOL0     H10927   1.494   8.576   2.024  2.0084  0.1612 -0.7716
  822MOL0     H10928   1.506   8.330   1.947  0.5379 -1.0794 -2.8000
  822MOL0     H10929   1.369   8.374   1.839  0.7970  1.9110 -0.7797
  822MOL0     H10930   1.255   8.313   2.282 -1.4970  0.4627 -0.2239
  822MOL0     H10931   1.142   8.072   2.444  1.8109 -2.6940 -0.4268
  822MOL0     H10932   1.310   8.047   2.496 -0.1093  0.8809  1.6394
  822MOL0     H10933   1.236   8.210   2.476  1.6966  0.1362 -0.2158
  822MOL0     H10934   1.286   7.621   2.427  0.4953  1.8453 -1.3649
  822MOL0     H10935   1.359   7.403   2.522 -0.3998 -1.7879 -1.1038
  822MOL0     H10936   1.769   7.246   2.355  0.3629 -1.8032  0.3228
  822MOL0     H10937   1.778   7.334   2.511 -0.6988  1.3481 -0.6229
  822MOL0     H10938   1.689   7.140   2.616  2.5730  0.6533  0.8883
  822MOL0     H10939   1.697   7.058   2.452  0.4613  0.5677 -0.0845
  822MOL0     H10940   1.932   7.162   2.618 -1.2434  0.4687  0.4684
  822MOL0     H10941   1.945   7.080   2.459  0.2966  2.7928  0.2883
  822MOL0     H10942   1.824   6.932   2.688  1.0770 -2.0830  1.8955
  822MOL0     H10943   1.909   6.862   2.546  0.2025 -2.9032  2.6177
  822MOL0     H10944   2.022   6.822   2.752 -1.1992 -0.6817 -0.4065
  822MOL0     H10945   2.020   6.996   2.799  3.0939 -0.9365  0.4200
  822MOL0     H10946   2.187   6.859   2.569  2.0442 -1.2042  0.9560
  822MOL0     H10947   2.182   7.027   2.595  0.9845 -1.5215 -3.4693
  822MOL0     H10948   2.285   7.034   2.812 -1.4981  0.6796 -0.7450
  822MOL0     H10949   2.388   6.949   2.693 -0.5006  0.3092 -0.7887
  822MOL0     H10950   2.220   6.851   2.922 -2.9021  2.6795 -4.4708
  822MOL0     H10951   2.397   6.826   2.905 -0.1431 -0.2396  1.2005
  822MOL0     H10952   1.724   7.456   2.298  1.0312  0.1862  1.8742
  822MOL0     H10953   1.619   7.649   2.188 -1.8436  1.2522 -0.3439
  822MOL0     H10954   1.372   7.906   2.022  0.0798 -2.3252  3.0752
  822MOL0     H10955   1.387   8.130   1.916  1.2391  2.9406  0.7022
  822MOL0     H10956   2.625   8.967   2.175  1.5042  2.2556  1.6057
  822MOL0     H10957   2.803   8.998   2.350  0.7789  0.0682  0.7158
  822MOL0     H10958   3.254   9.217   2.455  2.0489  1.8637  0.3812
  822MOL0     H10959   3.474   9.228   2.492 -0.1602 -0.0570  0.6744
  822MOL0     H10960   3.733   9.178   2.440  3.1560 -2.1088 -1.1532
  822MOL0     H10961   3.693   9.170   2.619 -1.7211  1.2708 -0.9224
  822MOL0     H10962   3.925   9.051   2.465  2.4687  1.5857  0.1033
  822MOL0     H10963   3.901   9.029   2.634  1.1870  1.3798  0.3286
  822MOL0     H10964   3.909   9.282   2.644 -1.2477  0.8733 -2.0863
  822MOL0     H10965   3.974   9.272   2.485  0.1574  1.9759  1.5031
  822MOL0     H10966   4.163   9.270   2.628 -1.6061  0.5800  2.7073
  822MOL0     H10967   4.147   9.104   2.566 -0.0680 -0.9403  0.9918
  822MOL0     H10968   4.112   9.004   2.965  2.7373  1.7901  1.5935
  822MOL0     H10969   3.510   8.795   2.453 -0.3970 -1.0853  0.6478
  822MOL0     H10970   3.277   8.788   2.405  2.2072 -1.9447  3.2425
  823MOL0     O10971   1.640   8.806   8.135 -0.1898 -0.3837 -0.5486
  823MOL0     C10972   1.635   8.870   8.241  0.1098  0.0818 -0.6360
  823MOL0     O10973   1.573   8.831   8.355  0.3170 -0.4446 -0.5873
  823MOL0     C10974   1.495   8.719   8.368  0.4762  0.7866  0.1612
  823MOL0     C10975   1.392   8.692   8.282 -0.0161  0.1866 -1.2314
  823MOL0     C10976   1.305   8.584   8.308 -1.2058  0.9719  0.1843
  823MOL0     C10977   1.332   8.498   8.417  0.8615  0.2697  0.3382
  823MOL0     O10978   1.277   8.375   8.446  0.0019 -0.5279  0.8231
  823MOL0     C10979   1.223   8.295   8.336 -0.2138  0.7638  0.3713
  823MOL0     C10980   1.070   8.299   8.323  0.4886  0.8725 -0.9838
  823MOL0     C10981   1.030   8.215   8.204  0.5039  0.2671 -0.6638
  823MOL0     C10982   0.881   8.179   8.239 -0.0258 -0.3774 -0.6386
  823MOL0     C10983   0.772   8.164   8.126  0.4233  0.3803 -0.7975
  823MOL0     C10984   0.764   8.286   8.035  0.3539  0.4648 -0.5599
  823MOL0     C10985   0.657   8.260   7.923  0.5386 -0.3798  0.1306
  823MOL0     C10986   0.720   8.209   7.801 -0.1675 -0.1061  0.2612
  823MOL0     N10987   0.647   8.116   7.727 -0.1783  0.1107  0.4740
  823MOL0     C10988   0.660   8.092   7.597 -0.1885 -0.2653  0.1997
  823MOL0     C10989   0.551   8.022   7.561  0.3975  0.3214  0.5147
  823MOL0     C10990   0.523   7.944   7.440 -0.2224 -0.3946 -0.0449
  823MOL0     C10991   0.598   7.809   7.439 -0.3404  1.4033  0.7530
  823MOL0     C10992   0.607   7.752   7.293 -0.5841  0.5037  0.2658
  823MOL0     C10993   0.716   7.823   7.200 -0.2036 -0.1390  0.6918
  823MOL0     O10994   0.683   7.805   7.065 -0.2134  0.2805 -0.1651
  823MOL0     C10995   0.719   7.700   6.988 -0.3907  0.6009 -0.5215
  823MOL0     C10996   0.654   7.681   6.864  0.1701 -0.0489 -0.3357
  823MOL0     C10997   0.665   7.571   6.787 -0.1606  0.1944 -0.7500
  823MOL0     C10998   0.587   7.574   6.659 -0.3182 -0.2506 -0.2138
  823MOL0     C10999   0.747   7.463   6.821 -0.1226  0.0741 -0.2506
  823MOL0     C11000   0.787   7.348   6.737  0.3309 -0.1330 -1.0403
  823MOL0     O11001   0.751   7.225   6.792  0.9198  0.1039  0.3266
  823MOL0     C11002   0.761   7.103   6.723 -0.7159 -0.5332 -0.5306
  823MOL0     C11003   0.792   6.981   6.794  0.3681 -0.2137 -0.2605
  823MOL0     C11004   0.804   6.864   6.728 -0.8052  0.3395  0.5060
  823MOL0     C11005   0.801   6.866   6.583 -0.7405  0.4348 -0.0436
  823MOL0     O11006   0.803   6.747   6.509  0.0540 -0.5114  0.0041
  823MOL0     C11007   0.833   6.622   6.575  0.0721 -0.6663  0.0651
  823MOL0     C11008   0.809   6.508   6.474 -0.1093 -0.0248  0.0951
  823MOL0     C11009   0.846   6.367   6.537 -0.4497  0.1603 -0.9477
  823MOL0     C11010   0.996   6.360   6.564  0.5714  0.9538 -0.4453
  823MOL0     C11011   1.050   6.225   6.603 -0.5067 -0.7556  0.4313
  823MOL0     C11012   1.088   6.146   6.471  0.0409  1.0192  0.1459
  823MOL0     C11013   1.189   6.030   6.510  0.0978 -0.3188  0.4502
  823MOL0     C11014   1.114   5.922   6.588 -1.8047 -0.1804  0.8608
  823MOL0    Cl11015   1.225   5.821   6.666 -0.4187 -0.5875  0.3104
  823MOL0     C11016   0.782   6.983   6.510  0.5590 -0.7893  0.3550
  823MOL0     C11017   0.761   7.097   6.583 -0.4615 -0.2671  0.1470
  823MOL0     O11018   0.850   7.368   6.635  0.2602  0.3380 -0.0936
  823MOL0     C11019   0.808   7.472   6.949 -0.3553  0.1010  0.3514
  823MOL0     C11020   0.797   7.586   7.027  0.9573  0.3428  0.0949
  823MOL0     N11021   0.474   8.004   7.674 -0.1852 -0.0319 -0.2593
  823MOL0     N11022   0.540   8.057   7.773  0.1659 -0.3536 -0.6894
  823MOL0     C11023   1.437   8.529   8.500  0.8768  0.7362  0.0208
  823MOL0     C11024   1.514   8.640   8.488  0.5576  0.2942  0.1482
  823MOL0     C11025   1.717   8.991   8.242 -0.0741 -0.4511 -1.0147
  823MOL0     C11026   1.744   9.061   8.125  0.3881 -0.8333 -0.5959
  823MOL0     C11027   1.811   9.190   8.128 -0.6018  0.3961 -0.1656
  823MOL0     C11028   1.870   9.224   8.245 -1.0664 -0.2748  0.4741
  823MOL0     O11029   1.933   9.349   8.237  0.1658 -0.2130 -0.2214
  823MOL0     C11030   1.972   9.426   8.353  0.7317  0.0506 -0.3145
  823MOL0     C11031   2.118   9.392   8.394  0.1504  0.2706  0.1507
  823MOL0     C11032   2.227   9.484   8.339 -1.0085 -0.2548  0.3847
  823MOL0     C11033   2.366   9.429   8.375 -0.5418  1.0860  0.3619
  823MOL0     C11034   2.469   9.475   8.274  0.4208 -0.1664  0.6628
  823MOL0     C11035   2.550   9.532   8.209 -0.0684 -0.2532  0.3917
  823MOL0     C11036   1.862   9.142   8.357 -0.4317 -0.4677 -0.4064
  823MOL0     C11037   1.771   9.034   8.366  0.4804  0.5396  0.4132
  823MOL0     H11038   1.384   8.761   8.198 -1.0992  0.4469 -0.9279
  823MOL0     H11039   1.233   8.552   8.233  0.8467 -1.5089 -0.8929
  823MOL0     H11040   1.271   8.318   8.241  1.2345 -2.3779  0.2032
  823MOL0     H11041   1.262   8.193   8.346  0.9977  1.1944  0.1211
  823MOL0     H11042   1.030   8.248   8.411  0.4328 -0.1180 -1.5758
  823MOL0     H11043   1.024   8.399   8.323 -2.3211 -0.2132  2.6234
  823MOL0     H11044   1.043   8.266   8.108  0.4478 -0.6804 -1.1854
  823MOL0     H11045   1.093   8.128   8.187  1.5652  1.5805 -4.3125
  823MOL0     H11046   0.881   8.093   8.306  3.1867  1.6947  2.3160
  823MOL0     H11047   0.844   8.262   8.299 -1.6843 -1.0196 -0.7208
  823MOL0     H11048   0.805   8.076   8.070 -0.1382 -0.5075  0.2289
  823MOL0     H11049   0.675   8.147   8.174  0.1157  1.9368 -0.8177
  823MOL0     H11050   0.722   8.371   8.089  1.9084  0.1868  1.1813
  823MOL0     H11051   0.857   8.327   7.994  2.2583 -0.9486  2.0873
  823MOL0     H11052   0.580   8.196   7.967  0.1683  0.2417  0.3986
  823MOL0     H11053   0.623   8.361   7.897  1.4406 -0.9779 -4.0696
  823MOL0     H11054   0.812   8.151   7.810  0.7834  0.4049 -3.9625
  823MOL0     H11055   0.749   8.289   7.732 -0.8744  0.3323  0.4596
  823MOL0     H11056   0.740   8.114   7.528 -0.0503  3.0893  1.2641
  823MOL0     H11057   0.415   7.928   7.428  0.1631 -1.9215 -2.0127
  823MOL0     H11058   0.552   8.005   7.353  0.9218  0.8996  1.1908
  823MOL0     H11059   0.538   7.728   7.481  2.6060 -2.9997 -2.6208
  823MOL0     H11060   0.701   7.809   7.475  1.1365 -0.9229 -2.8380
  823MOL0     H11061   0.506   7.741   7.252 -0.8570  0.2036  1.0070
  823MOL0     H11062   0.642   7.655   7.329  1.7819  2.1679  2.8701
  823MOL0     H11063   0.815   7.785   7.227  0.3138  1.0424  0.5527
  823MOL0     H11064   0.718   7.930   7.225  3.2406  0.2454 -0.6344
  823MOL0     H11065   0.603   7.772   6.833 -0.8965  0.3168  2.2176
  823MOL0     H11066   0.589   7.476   6.610  0.9408  1.0970 -3.0778
  823MOL0     H11067   0.486   7.612   6.677 -0.7985 -0.9430 -1.3569
  823MOL0     H11068   0.648   7.639   6.596 -0.3227  0.9569  0.9723
  823MOL0     H11069   0.808   6.984   6.901  0.4634  1.4092 -0.2894
  823MOL0     H11070   0.841   6.781   6.789 -1.4316  0.6097  1.2762
  823MOL0     H11071   0.937   6.610   6.604  0.5549 -4.6297 -2.5964
  823MOL0     H11072   0.768   6.616   6.663  0.9442  3.7774  1.2632
  823MOL0     H11073   0.709   6.503   6.431 -0.6822  1.0364  1.2338
  823MOL0     H11074   0.876   6.517   6.388 -1.9729 -1.0578 -1.5221
  823MOL0     H11075   0.814   6.287   6.471  0.4523 -1.6162  0.6547
  823MOL0     H11076   0.786   6.338   6.624  1.4030 -0.9689  0.0369
  823MOL0     H11077   1.054   6.391   6.476  0.9035  0.6199 -0.3450
  823MOL0     H11078   1.018   6.424   6.650  2.3769 -0.4681  0.2189
  823MOL0     H11079   0.983   6.173   6.671 -0.8779 -1.1178 -0.2053
  823MOL0     H11080   1.148   6.247   6.647 -0.0602 -1.6307 -0.0857
  823MOL0     H11081   1.008   6.100   6.412  1.6265 -0.5508 -0.8907
  823MOL0     H11082   1.138   6.206   6.395 -0.3354  0.6228 -0.4260
  823MOL0     H11083   1.274   6.063   6.570 -0.7532 -0.3876  1.7144
  823MOL0     H11084   1.231   5.991   6.416  2.4386  4.4212 -0.7808
  823MOL0     H11085   1.043   5.876   6.519  1.7512 -3.9384 -0.6881
  823MOL0     H11086   1.044   5.964   6.661 -2.6630 -0.5581  0.2805
  823MOL0     H11087   0.783   6.986   6.402 -3.7671 -4.3805 -0.0555
  823MOL0     H11088   0.738   7.184   6.522  2.4467 -1.9346 -3.7297
  823MOL0     H11089   0.887   7.404   6.978 -0.4361 -0.8512 -1.4836
  823MOL0     H11090   0.852   7.600   7.119  0.7085  1.4939  0.0849
  823MOL0     H11091   1.456   8.457   8.579 -2.3603 -2.4427 -1.7970
  823MOL0     H11092   1.602   8.658   8.550  0.8085 -2.3500  0.6735
  823MOL0     H11093   1.724   9.019   8.027 -0.8767  2.9948 -2.1565
  823MOL0     H11094   1.820   9.248   8.037  1.4568 -0.0837 -0.3094
  823MOL0     H11095   1.966   9.532   8.324  0.8090  0.4499  1.0330
  823MOL0     H11096   1.901   9.407   8.434 -0.4312  0.8597 -1.1218
  823MOL0     H11097   2.141   9.288   8.368  0.0821  0.5583 -1.1415
  823MOL0     H11098   2.128   9.389   8.503  0.2751  0.1323  0.1357
  823MOL0     H11099   2.227   9.580   8.392  3.5893 -0.0405  0.3963
  823MOL0     H11100   2.217   9.488   8.230 -2.1202 -0.3703  0.4757
  823MOL0     H11101   2.379   9.321   8.384 -0.0749  1.0724 -0.4144
  823MOL0     H11102   2.388   9.463   8.477 -2.4895 -0.9525  1.5648
  823MOL0     H11103   2.634   9.580   8.163 -1.6040  0.3080 -1.9670
  823MOL0     H11104   1.923   9.165   8.444  2.0547 -2.6675 -1.4275
  823MOL0     H11105   1.757   8.978   8.458 -1.0381 -1.2549 -0.8547
  824MOL0     O11106   2.247   3.761   3.249  0.1918  0.3917 -0.6490
  824MOL0     C11107   2.364   3.737   3.281 -0.2359 -0.0584  0.1093
  824MOL0     O11108   2.454   3.832   3.316  0.2390 -0.0443 -0.1493
  824MOL0     C11109   2.418   3.959   3.299  0.5868  0.5889  0.6905
  824MOL0     C11110   2.491   4.041   3.212  0.1415 -0.3798 -0.2159
  824MOL0     C11111   2.474   4.179   3.200  0.1530 -0.3187 -0.3049
  824MOL0     C11112   2.389   4.239   3.281  0.3469 -0.6208 -0.3046
  824MOL0     O11113   2.373   4.373   3.275  0.3337 -0.2843 -0.4859
  824MOL0     C11114   2.237   4.430   3.285  0.8334  0.7978 -1.0364
  824MOL0     C11115   2.242   4.561   3.213  1.3171 -0.6942  0.1202
  824MOL0     C11116   2.319   4.570   3.073  0.0188  0.3566 -0.1530
  824MOL0     C11117   2.323   4.708   3.005 -0.6382  0.5883  0.3523
  824MOL0     C11118   2.439   4.798   3.047  0.7983 -1.2119 -0.2193
  824MOL0     C11119   2.394   4.940   3.056  0.2213  0.2996 -0.8453
  824MOL0     C11120   2.505   5.041   3.079  0.7313  0.0828 -0.9417
  824MOL0     C11121   2.575   5.041   3.215 -0.6162 -0.2967 -0.9225
  824MOL0     N11122   2.489   5.087   3.320 -1.0284  0.0579 -0.2295
  824MOL0     C11123   2.464   5.220   3.345  0.8093  0.1467  0.7682
  824MOL0     C11124   2.395   5.219   3.460  0.1442 -0.1362 -0.5261
  824MOL0     C11125   2.333   5.347   3.518 -0.8461  0.5076  0.8025
  824MOL0     C11126   2.266   5.443   3.420 -0.4015 -0.1448 -0.8255
  824MOL0     C11127   2.144   5.380   3.356 -0.5806  0.2466  0.1875
  824MOL0     C11128   2.099   5.477   3.248  0.3906 -0.1092  0.1717
  824MOL0     O11129   1.973   5.428   3.206 -0.3804 -0.3726  0.0291
  824MOL0     C11130   1.983   5.332   3.103  0.5501  0.2618  0.6378
  824MOL0     C11131   1.905   5.213   3.095  0.0835  0.3581 -0.9712
  824MOL0     C11132   1.909   5.123   2.997 -0.1725  0.8010  0.7728
  824MOL0     C11133   1.816   5.003   2.997 -0.0350 -0.1410 -0.6212
  824MOL0     C11134   2.010   5.125   2.888 -0.2246  0.3372 -0.6022
  824MOL0     C11135   2.032   5.018   2.780  0.1705  1.1903 -0.1796
  824MOL0     O11136   2.136   5.037   2.695 -0.1447  0.6145  0.5719
  824MOL0     C11137   2.157   4.925   2.616  0.1956 -0.4415 -1.2676
  824MOL0     C11138   2.084   4.914   2.494  0.4751  0.1215 -1.2273
  824MOL0     C11139   2.098   4.795   2.415 -0.5352 -0.2693 -0.3445
  824MOL0     C11140   2.198   4.698   2.450  1.1606 -0.4107  0.0909
  824MOL0     O11141   2.225   4.585   2.365  0.4475 -0.5502 -0.1893
  824MOL0     C11142   2.183   4.578   2.230  0.6198  0.2499 -0.5132
  824MOL0     C11143   2.250   4.455   2.178 -0.6258  0.8561  0.1774
  824MOL0     C11144   2.173   4.325   2.192 -0.2197  0.1041  0.1143
  824MOL0     C11145   2.262   4.217   2.136  0.9215 -0.4828  1.1776
  824MOL0     C11146   2.251   4.220   1.973  0.5170 -0.6336  0.2015
  824MOL0     C11147   2.363   4.116   1.932 -0.5073 -0.9863  0.4252
  824MOL0     C11148   2.377   4.100   1.779  1.0097  0.1114 -0.5520
  824MOL0     C11149   2.488   3.998   1.747 -0.9546 -0.4938  0.2779
  824MOL0    Cl11150   2.461   3.842   1.836 -0.1271 -0.1596  0.9220
  824MOL0     C11151   2.282   4.724   2.564  0.3472 -0.0473 -0.8968
  824MOL0     C11152   2.255   4.830   2.654 -0.2313  0.2056  0.2543
  824MOL0     O11153   1.968   4.915   2.790  0.9123 -0.2168  0.1671
  824MOL0     C11154   2.082   5.243   2.885 -0.5331 -0.8333 -0.0646
  824MOL0     C11155   2.073   5.348   2.985  0.1918 -0.4307  0.6231
  824MOL0     N11156   2.378   5.084   3.501 -0.3404 -0.5043  0.0610
  824MOL0     N11157   2.439   5.005   3.415  0.2250 -0.7185  0.0943
  824MOL0     C11158   2.314   4.159   3.376 -0.0366 -0.5829  0.1632
  824MOL0     C11159   2.323   4.015   3.387  0.1148 -0.1063 -0.7643
  824MOL0     C11160   2.420   3.606   3.222  0.8721 -0.9629  0.5708
  824MOL0     C11161   2.556   3.594   3.197  0.8237 -0.5319  0.1766
  824MOL0     C11162   2.615   3.468   3.172 -0.6534 -0.0124 -0.1060
  824MOL0     C11163   2.533   3.352   3.167 -0.3265 -0.3167 -1.2009
  824MOL0     O11164   2.581   3.223   3.159  1.4414  0.0804 -0.2566
  824MOL0     C11165   2.683   3.175   3.244 -0.7774  0.2115  0.3498
  824MOL0     C11166   2.804   3.107   3.162 -0.4350  0.1365 -0.0593
  824MOL0     C11167   2.757   2.988   3.082 -0.0242  0.0148 -0.2450
  824MOL0     C11168   2.840   2.977   2.946 -0.9463 -0.0638 -0.4460
  824MOL0     C11169   2.815   2.845   2.884  0.4135 -0.2540 -0.7175
  824MOL0     C11170   2.783   2.745   2.828 -0.5784 -0.2452  0.3635
  824MOL0     C11171   2.393   3.370   3.171  0.0209 -0.5287  0.0185
  824MOL0     C11172   2.337   3.493   3.199 -0.2415 -0.6505 -0.0297
  824MOL0     H11173   2.576   3.995   3.164  0.2120 -2.0276  1.3848
  824MOL0     H11174   2.513   4.241   3.120  0.9739 -0.9455 -0.4018
  824MOL0     H11175   2.159   4.373   3.233  0.4195 -0.1554  0.5670
  824MOL0     H11176   2.192   4.448   3.383  1.6823 -2.6216  0.1352
  824MOL0     H11177   2.137   4.584   3.196  1.6040 -0.4023 -1.4139
  824MOL0     H11178   2.282   4.642   3.275 -1.2697  2.6891 -2.3055
  824MOL0     H11179   2.420   4.534   3.092  0.8421  2.3155 -0.5357
  824MOL0     H11180   2.265   4.504   3.005 -0.5935  0.6093  0.0756
  824MOL0     H11181   2.342   4.690   2.899  1.3669  3.9753  0.0147
  824MOL0     H11182   2.232   4.769   3.007 -2.1258 -1.3420 -2.0396
  824MOL0     H11183   2.475   4.752   3.139  0.9380 -1.3281 -0.3312
  824MOL0     H11184   2.523   4.782   2.978 -0.8606  0.2904 -2.7606
  824MOL0     H11185   2.348   4.973   2.963 -3.3063 -1.7451  0.0064
  824MOL0     H11186   2.323   4.948   3.138  0.9323  0.8173 -0.2635
  824MOL0     H11187   2.583   5.039   3.002  1.5271  0.4093 -0.1619
  824MOL0     H11188   2.455   5.137   3.061 -1.8563 -1.0419 -0.1486
  824MOL0     H11189   2.667   5.100   3.227  0.7795 -2.8308  2.1200
  824MOL0     H11190   2.596   4.935   3.229  3.6856  0.6494  1.8150
  824MOL0     H11191   2.479   5.296   3.269  0.2400 -1.5953 -1.1923
  824MOL0     H11192   2.266   5.326   3.601 -0.7015 -1.3042  0.5054
  824MOL0     H11193   2.420   5.400   3.561 -1.2821  0.1915  2.1273
  824MOL0     H11194   2.339   5.462   3.342 -2.0737  1.8013 -2.0098
  824MOL0     H11195   2.248   5.536   3.476  1.1338  0.0463 -0.6068
  824MOL0     H11196   2.070   5.352   3.431  0.0741  1.2800  1.2332
  824MOL0     H11197   2.174   5.286   3.309  1.4224  0.3824  1.1301
  824MOL0     H11198   2.182   5.482   3.178 -1.1781 -2.9800 -2.1439
  824MOL0     H11199   2.084   5.579   3.285 -1.7720 -0.0495 -0.7390
  824MOL0     H11200   1.842   5.208   3.183 -1.9546  0.6011 -2.3474
  824MOL0     H11201   1.871   4.912   3.024  2.3026  1.6672  1.1179
  824MOL0     H11202   1.742   5.011   3.078  0.3817 -0.8350 -0.1591
  824MOL0     H11203   1.759   4.999   2.903 -2.6174  0.9202  0.7871
  824MOL0     H11204   2.019   4.998   2.473 -0.4566  0.2014  1.5858
  824MOL0     H11205   2.036   4.786   2.327 -0.4094 -0.3598 -0.4250
  824MOL0     H11206   2.074   4.572   2.224  0.5079 -0.6780  1.5543
  824MOL0     H11207   2.230   4.650   2.162 -0.5008 -1.1122 -2.8480
  824MOL0     H11208   2.289   4.473   2.078  1.5846 -2.4525  0.2882
  824MOL0     H11209   2.349   4.451   2.225  0.0102  1.8885 -1.0221
  824MOL0     H11210   2.076   4.338   2.143 -1.3727 -2.3137  1.5570
  824MOL0     H11211   2.156   4.305   2.298  0.4277 -2.3777 -0.1861
  824MOL0     H11212   2.366   4.225   2.169  1.7198 -2.4848 -0.6097
  824MOL0     H11213   2.216   4.124   2.173 -1.3816  0.1978  0.2266
  824MOL0     H11214   2.280   4.322   1.946 -1.3482 -0.3306 -0.8635
  824MOL0     H11215   2.146   4.206   1.944 -0.2002  0.6931  1.9516
  824MOL0     H11216   2.459   4.154   1.971 -0.9628  1.2565 -0.5077
  824MOL0     H11217   2.352   4.015   1.973  0.3000 -2.4605 -2.7043
  824MOL0     H11218   2.398   4.188   1.718  2.9267 -0.0937 -0.2495
  824MOL0     H11219   2.285   4.061   1.736  0.6623  1.2655 -0.8910
  824MOL0     H11220   2.579   4.040   1.791 -2.2819  0.6546  2.0562
  824MOL0     H11221   2.489   3.976   1.640  2.8159 -0.9172  0.2423
  824MOL0     H11222   2.359   4.653   2.591 -0.0226 -0.4382 -0.8578
  824MOL0     H11223   2.312   4.846   2.744  1.7502 -0.7465 -0.7780
  824MOL0     H11224   2.153   5.258   2.805  0.1303  0.7982  0.7759
  824MOL0     H11225   2.139   5.433   2.971  0.8215 -1.2587 -1.9734
  824MOL0     H11226   2.232   4.201   3.432 -0.5970 -0.5834 -0.6406
  824MOL0     H11227   2.262   3.953   3.452  3.0078 -2.2827  0.1123
  824MOL0     H11228   2.629   3.672   3.212 -0.8251  0.9578  0.7013
  824MOL0     H11229   2.723   3.463   3.159 -0.6207 -0.7209  0.4056
  824MOL0     H11230   2.725   3.247   3.314 -0.0099 -0.8285  0.9970
  824MOL0     H11231   2.637   3.115   3.324  0.3203  3.4831  3.7066
  824MOL0     H11232   2.874   3.059   3.231 -2.8105 -1.0330  1.6928
  824MOL0     H11233   2.853   3.183   3.101  0.5737 -0.3388  0.1363
  824MOL0     H11234   2.650   2.990   3.062  0.0383  0.4611 -0.5358
  824MOL0     H11235   2.771   2.897   3.142  0.2915  1.2130  1.5740
  824MOL0     H11236   2.948   2.988   2.956 -0.6387 -2.3956 -0.8150
  824MOL0     H11237   2.818   3.059   2.876 -0.0263 -1.0836 -1.9723
  824MOL0     H11238   2.784   2.646   2.787  1.7079 -1.3519  2.8069
  824MOL0     H11239   2.328   3.284   3.162  0.9242 -1.5550  2.3594
  824MOL0     H11240   2.228   3.498   3.205 -0.3543 -2.3225 -0.1004
  825MOL0     O11241   5.950   2.195   2.623  0.3556 -0.5422  0.2118
  825MOL0     C11242   5.838   2.152   2.665  0.1752 -0.7669  0.0566
  825MOL0     O11243   5.721   2.211   2.627  0.2656  0.8167 -0.3040
  825MOL0     C11244   5.732   2.320   2.549 -0.0956 -0.0857 -0.1128
  825MOL0     C11245   5.757   2.444   2.615 -1.4814  0.2529  0.1452
  825MOL0     C11246   5.762   2.562   2.537 -0.3007 -0.2770 -0.6098
  825MOL0     C11247   5.737   2.564   2.401  0.5805  0.7774 -0.1812
  825MOL0     O11248   5.736   2.677   2.315  0.4471  0.3931  0.0008
  825MOL0     C11249   5.804   2.792   2.350 -0.9510  0.2858 -0.4852
  825MOL0     C11250   5.959   2.789   2.375  0.2679 -0.6062 -0.6888
  825MOL0     C11251   6.046   2.692   2.290  0.8843 -0.1976  0.3472
  825MOL0     C11252   6.197   2.709   2.314  0.8064  0.7471 -0.2696
  825MOL0     C11253   6.274   2.579   2.263 -0.2788 -0.1019  0.6294
  825MOL0     C11254   6.311   2.592   2.114 -0.7133 -0.8414 -0.4693
  825MOL0     C11255   6.408   2.475   2.081 -0.2951  0.1271  0.2325
  825MOL0     C11256   6.411   2.452   1.935  0.8412  0.4617  0.9472
  825MOL0     N11257   6.466   2.317   1.901  0.8683 -0.4036 -1.0003
  825MOL0     C11258   6.516   2.294   1.777 -0.7582  0.6427 -0.3574
  825MOL0     C11259   6.563   2.175   1.784 -0.3849  0.5889 -0.1453
  825MOL0     C11260   6.626   2.094   1.664 -0.2275  0.3273 -0.2266
  825MOL0     C11261   6.593   1.943   1.664  0.7088 -0.0767  0.4850
  825MOL0     C11262   6.678   1.855   1.757  0.3352  0.2648 -0.3359
  825MOL0     C11263   6.807   1.851   1.690 -1.7686 -0.1016  0.0290
  825MOL0     O11264   6.897   1.783   1.770  0.2674 -0.1625  0.8204
  825MOL0     C11265   7.000   1.703   1.727 -1.0342 -0.3603 -0.8536
  825MOL0     C11266   7.076   1.728   1.612 -0.9443  0.7619  0.9705
  825MOL0     C11267   7.177   1.632   1.569  0.7806  0.0311 -0.8170
  825MOL0     C11268   7.264   1.677   1.450  0.6480 -0.0821  0.2208
  825MOL0     C11269   7.204   1.514   1.649  0.0092  1.0926 -0.6209
  825MOL0     C11270   7.305   1.409   1.619  1.1389  0.0591  0.3561
  825MOL0     O11271   7.295   1.299   1.709 -0.6290 -0.4090 -0.5160
  825MOL0     C11272   7.407   1.212   1.694  0.3942  0.9656 -0.3689
  825MOL0     C11273   7.536   1.245   1.736 -0.1326  0.2802 -1.0979
  825MOL0     C11274   7.644   1.164   1.722  0.9501  0.3746  0.1063
  825MOL0     C11275   7.631   1.038   1.660 -0.4338  0.0764  0.0372
  825MOL0     O11276   7.741   0.950   1.650  0.4239  0.6121  0.0998
  825MOL0     C11277   7.875   1.003   1.646  0.2982 -0.6936 -0.6064
  825MOL0     C11278   7.947   0.906   1.565  0.1420  1.0809  0.3621
  825MOL0     C11279   8.093   0.940   1.552  0.2811 -0.7312  0.3348
  825MOL0     C11280   8.181   0.820   1.533  1.0893 -0.0222  0.6310
  825MOL0     C11281   8.269   0.793   1.655 -0.6073 -0.4476 -0.0861
  825MOL0     C11282   8.381   0.895   1.670  0.3367  0.0247  0.1277
  825MOL0     C11283   8.467   0.883   1.797 -0.7191  0.3735  0.1468
  825MOL0     C11284   8.600   0.952   1.780  0.2070 -0.5780  0.4438
  825MOL0    Cl11285   8.584   1.126   1.814 -0.0821 -0.1675  0.1836
  825MOL0     C11286   7.503   0.993   1.640 -0.0180  0.0821  0.5229
  825MOL0     C11287   7.390   1.081   1.644 -0.8139  0.6297  0.3455
  825MOL0     O11288   7.392   1.427   1.534  0.0875 -0.0306 -0.5598
  825MOL0     C11289   7.125   1.496   1.768 -0.1084  0.7741  0.7934
  825MOL0     C11290   7.028   1.593   1.806 -0.1192 -0.2855  0.0802
  825MOL0     N11291   6.549   2.121   1.913 -0.9282 -0.6014 -0.3389
  825MOL0     N11292   6.483   2.209   1.985 -0.4826 -0.5999  0.5950
  825MOL0     C11293   5.696   2.441   2.338 -0.6776 -0.5453 -0.9680
  825MOL0     C11294   5.706   2.322   2.413  0.0773  0.6815 -0.2461
  825MOL0     C11295   5.839   2.019   2.735 -0.1435 -0.2549 -0.3127
  825MOL0     C11296   5.731   1.978   2.815 -0.6049 -0.9085 -0.1709
  825MOL0     C11297   5.736   1.864   2.906 -0.5874  0.2169  1.1409
  825MOL0     C11298   5.846   1.779   2.899 -0.6796  0.7557  0.3295
  825MOL0     O11299   5.849   1.670   2.976  0.5702  0.1241  0.1611
  825MOL0     C11300   5.914   1.694   3.096 -0.3641 -0.1143 -0.9961
  825MOL0     C11301   6.055   1.634   3.101  0.7891 -0.7554  0.8032
  825MOL0     C11302   6.078   1.500   3.027  0.6695  0.1772 -0.4756
  825MOL0     C11303   6.177   1.420   3.115 -0.7969 -0.2039 -0.3513
  825MOL0     C11304   6.220   1.292   3.045 -0.1164  0.4757 -0.0111
  825MOL0     C11305   6.266   1.186   3.011  0.0708  0.7623 -0.4380
  825MOL0     C11306   5.953   1.818   2.815 -0.5926  0.9792  0.5072
  825MOL0     C11307   5.954   1.938   2.737 -0.5405 -0.0157 -0.8054
  825MOL0     H11308   5.775   2.458   2.721 -2.0497  1.4824  0.0922
  825MOL0     H11309   5.792   2.656   2.584  2.6057 -1.5974  0.4554
  825MOL0     H11310   5.789   2.875   2.280 -1.3003 -0.8264 -1.7707
  825MOL0     H11311   5.779   2.827   2.451  4.1550  3.0623  0.1877
  825MOL0     H11312   5.990   2.894   2.376 -0.6730 -0.2277  3.4491
  825MOL0     H11313   5.970   2.750   2.476  3.5148 -2.3753 -1.5803
  825MOL0     H11314   6.025   2.590   2.325  0.4419 -0.9406 -1.9103
  825MOL0     H11315   6.019   2.711   2.186 -1.3740  0.1777  0.9453
  825MOL0     H11316   6.240   2.801   2.273 -0.3956  2.3017  1.7872
  825MOL0     H11317   6.211   2.714   2.422 -2.5865 -1.7376  0.4681
  825MOL0     H11318   6.366   2.558   2.318  0.1155 -0.8331 -0.2673
  825MOL0     H11319   6.211   2.492   2.285 -1.9762  0.3562 -1.9223
  825MOL0     H11320   6.219   2.600   2.055 -0.5429  2.2924 -0.4877
  825MOL0     H11321   6.371   2.681   2.091 -0.0183 -1.4041 -0.8575
  825MOL0     H11322   6.509   2.497   2.117  0.6127  0.4450 -2.3174
  825MOL0     H11323   6.387   2.380   2.131  3.8235  0.6258  3.5066
  825MOL0     H11324   6.471   2.529   1.887  2.4566 -2.1002 -1.4553
  825MOL0     H11325   6.314   2.457   1.885  0.6394  2.1326  1.4726
  825MOL0     H11326   6.515   2.372   1.701 -1.3938  1.4110  0.4201
  825MOL0     H11327   6.571   2.124   1.574  0.9429 -1.0575 -1.4547
  825MOL0     H11328   6.731   2.121   1.649  0.9189 -1.7175  2.9626
  825MOL0     H11329   6.611   1.901   1.565 -2.4444  2.9884 -1.6188
  825MOL0     H11330   6.493   1.917   1.701  1.1527 -0.2972  1.5881
  825MOL0     H11331   6.650   1.752   1.781  0.8568  0.7037  2.5232
  825MOL0     H11332   6.685   1.900   1.856  2.9894  1.4789 -0.9847
  825MOL0     H11333   6.846   1.952   1.672  1.6815 -1.6695 -2.1819
  825MOL0     H11334   6.790   1.797   1.597  1.0057  1.1631 -1.3322
  825MOL0     H11335   7.056   1.810   1.543  0.5195 -1.7920 -2.8623
  825MOL0     H11336   7.256   1.786   1.442 -2.1404 -0.3407 -1.9944
  825MOL0     H11337   7.369   1.649   1.465  0.9269  2.1960  4.0091
  825MOL0     H11338   7.225   1.632   1.358  0.6052 -1.8145  1.0414
  825MOL0     H11339   7.545   1.336   1.796  0.2595 -1.7427  2.1907
  825MOL0     H11340   7.735   1.212   1.758 -0.2936  2.2253  0.9241
  825MOL0     H11341   7.886   1.097   1.591  2.0777  0.2037  1.1228
  825MOL0     H11342   7.915   1.011   1.748  0.0268  4.1264 -0.6697
  825MOL0     H11343   7.932   0.817   1.626  1.4395  0.7787  0.2591
  825MOL0     H11344   7.926   0.891   1.459  4.2376 -0.7752 -0.3845
  825MOL0     H11345   8.123   0.994   1.642 -0.8178  0.4135  0.0425
  825MOL0     H11346   8.110   1.010   1.470 -1.0451 -0.4992  0.2326
  825MOL0     H11347   8.122   0.730   1.514 -1.3304  1.6042 -0.0642
  825MOL0     H11348   8.233   0.825   1.437 -2.0153  3.0020 -1.1209
  825MOL0     H11349   8.297   0.688   1.657  1.3773 -0.1578 -3.5193
  825MOL0     H11350   8.197   0.806   1.736 -1.9646 -0.0341 -1.3282
  825MOL0     H11351   8.441   0.866   1.583 -1.7697 -3.5076 -0.3434
  825MOL0     H11352   8.339   0.996   1.663  2.3711  0.8595 -0.8112
  825MOL0     H11353   8.497   0.778   1.801 -0.1418  0.5661  1.9720
  825MOL0     H11354   8.410   0.914   1.886  0.5300  1.3777  0.6277
  825MOL0     H11355   8.646   0.928   1.684 -0.0918  0.1434  0.1128
  825MOL0     H11356   8.669   0.915   1.857  0.3887  0.3831  0.7581
  825MOL0     H11357   7.490   0.890   1.607 -5.3031  0.5227  0.3610
  825MOL0     H11358   7.290   1.054   1.610 -0.9337  1.5861 -0.0893
  825MOL0     H11359   7.151   1.416   1.837  1.8225  1.6398  1.1296
  825MOL0     H11360   6.968   1.579   1.895 -0.3757  0.5323  0.0401
  825MOL0     H11361   5.658   2.437   2.236  0.7589 -0.0129 -1.5495
  825MOL0     H11362   5.672   2.223   2.384 -0.1778  0.5645  0.4324
  825MOL0     H11363   5.642   2.039   2.823  0.0614 -0.1515  2.7893
  825MOL0     H11364   5.647   1.860   2.967 -2.5932  0.8854 -1.5827
  825MOL0     H11365   5.928   1.800   3.115  2.7719 -0.7391  0.9675
  825MOL0     H11366   5.859   1.650   3.180 -1.2506  0.8558 -1.0546
  825MOL0     H11367   6.063   1.614   3.209 -2.3720 -0.0858  1.2641
  825MOL0     H11368   6.126   1.707   3.062  0.7147 -0.9673  0.2606
  825MOL0     H11369   6.116   1.522   2.927 -2.6629  0.8953 -1.7199
  825MOL0     H11370   5.981   1.451   3.012 -0.4245  1.8907  0.7087
  825MOL0     H11371   6.135   1.378   3.207  0.3836 -1.7560 -0.4713
  825MOL0     H11372   6.268   1.472   3.145  1.1558 -2.5927 -1.7711
  825MOL0     H11373   6.309   1.089   2.991 -0.2184  0.3553  0.8565
  825MOL0     H11374   6.047   1.763   2.810 -1.9341 -1.4955 -4.0935
  825MOL0     H11375   6.046   1.970   2.691  0.8385 -1.0740  1.1001
  826MOL0     O11376  11.328   0.731   9.399  0.6604  0.7894  0.6062
  826MOL0     C11377  11.245   0.796   9.327 -0.0543 -0.0674 -0.3132
  826MOL0     O11378  11.105   0.768   9.309 -1.2159 -0.0688  0.0088
  826MOL0     C11379  11.057   0.654   9.365  0.4010  0.1814 -0.3508
  826MOL0     C11380  10.915   0.659   9.407 -0.1362  0.7945  0.2544
  826MOL0     C11381  10.849   0.536   9.453  0.4399  0.3999  0.2308
  826MOL0     C11382  10.918   0.416   9.459  1.1947 -0.8743 -0.5040
  826MOL0     O11383  10.862   0.300   9.515  0.3642 -0.5388  0.0653
  826MOL0     C11384  10.725   0.308   9.561 -0.6865 -0.8247 -0.0326
  826MOL0     C11385  10.609   0.310   9.463  0.6839 -0.1082 -0.2110
  826MOL0     C11386  10.616   0.174   9.381  0.7963  0.4375 -0.2542
  826MOL0     C11387  10.554   0.054   9.451  0.0863 -0.7485  0.0960
  826MOL0     C11388  10.576  -0.085   9.377  0.4085 -0.7732  0.1359
  826MOL0     C11389  10.723  -0.098   9.350 -0.0362 -0.4368  0.1951
  826MOL0     C11390  10.747  -0.246   9.335 -0.3579 -0.1309 -0.1805
  826MOL0     C11391  10.710  -0.284   9.194  0.3567 -0.4884  0.6716
  826MOL0     N11392  10.784  -0.396   9.145  0.1740 -0.8881  0.5254
  826MOL0     C11393  10.841  -0.403   9.023 -1.0374  0.6870 -0.6127
  826MOL0     C11394  10.881  -0.531   9.014 -0.2248  0.0298 -0.0287
  826MOL0     C11395  10.963  -0.581   8.909  0.2710  0.0602 -0.5552
  826MOL0     C11396  11.110  -0.555   8.937  1.1952  0.6759  0.0644
  826MOL0     C11397  11.166  -0.658   9.035  0.2849  0.4160 -0.5056
  826MOL0     C11398  11.322  -0.673   9.025  0.4538 -1.2616  0.9016
  826MOL0     O11399  11.378  -0.554   9.087 -0.5672  0.4230 -0.2363
  826MOL0     C11400  11.512  -0.522   9.089  0.1107 -0.2141 -0.3684
  826MOL0     C11401  11.571  -0.442   9.183 -0.6465  0.1492 -0.2917
  826MOL0     C11402  11.709  -0.400   9.182  0.8998  0.9126 -0.4916
  826MOL0     C11403  11.757  -0.328   9.304  0.2352 -0.7506 -0.3942
  826MOL0     C11404  11.786  -0.437   9.069 -0.0629 -0.2161 -0.4567
  826MOL0     C11405  11.922  -0.379   9.037 -0.0156 -0.6996  0.1752
  826MOL0     O11406  11.944  -0.253   9.081 -0.5216 -0.4448  0.0540
  826MOL0     C11407  12.061  -0.203   9.024 -0.4845 -0.2684  0.2188
  826MOL0     C11408  12.044  -0.108   8.924  0.2429  0.6322 -0.7533
  826MOL0     C11409  12.151  -0.046   8.857  0.0643  0.3885  1.1728
  826MOL0     C11410  12.282  -0.055   8.902  0.0211  0.9295 -0.3156
  826MOL0     O11411  12.397   0.009   8.855  0.0054 -0.5084  0.2837
  826MOL0     C11412  12.390   0.081   8.727 -0.6012 -0.1340  0.1467
  826MOL0     C11413  12.522   0.153   8.698  0.4050  0.7747 -0.3609
  826MOL0     C11414  12.653   0.075   8.694  0.9148 -0.0109 -1.0197
  826MOL0     C11415  12.783   0.157   8.701  0.3544 -0.6404  0.1562
  826MOL0     C11416  12.810   0.247   8.581 -0.1709 -0.8157  0.0883
  826MOL0     C11417  12.955   0.305   8.586 -0.1617 -0.5264  0.0312
  826MOL0     C11418  13.000   0.401   8.474  0.4677  0.1940 -0.1527
  826MOL0     C11419  13.131   0.463   8.497 -0.0967 -0.4764  0.1725
  826MOL0    Cl11420  13.204   0.501   8.347 -0.1164 -0.0689  0.2471
  826MOL0     C11421  12.301  -0.135   9.017  0.2104 -0.0472 -0.2270
  826MOL0     C11422  12.200  -0.221   9.068  0.6548  0.1590  0.2578
  826MOL0     O11423  12.003  -0.445   8.969  0.6767 -0.7017 -0.9576
  826MOL0     C11424  11.728  -0.519   8.977 -0.1927 -0.3903 -0.0199
  826MOL0     C11425  11.595  -0.563   8.984  0.3266  0.2441  0.8114
  826MOL0     N11426  10.862  -0.596   9.136  0.1890 -0.0569  0.4533
  826MOL0     N11427  10.798  -0.517   9.211 -0.1803 -0.0824  1.0965
  826MOL0     C11428  11.052   0.412   9.400  0.3972  0.3317 -0.3640
  826MOL0     C11429  11.117   0.526   9.358  1.0065  0.4356 -0.4595
  826MOL0     C11430  11.303   0.904   9.237 -0.8796 -0.5038 -0.2071
  826MOL0     C11431  11.440   0.928   9.237 -0.2572  0.4596 -0.1331
  826MOL0     C11432  11.501   1.016   9.147  0.6023 -0.5605  0.1866
  826MOL0     C11433  11.422   1.099   9.064 -0.0358 -0.7116 -0.1059
  826MOL0     O11434  11.457   1.201   8.981 -0.3556  0.3715  0.4323
  826MOL0     C11435  11.589   1.250   8.975 -0.2404 -0.2012  0.7250
  826MOL0     C11436  11.581   1.372   8.886  1.0316  0.0040 -0.2829
  826MOL0     C11437  11.718   1.440   8.850  0.3534  0.4724 -0.6290
  826MOL0     C11438  11.758   1.543   8.960  0.5632 -0.1175 -0.9449
  826MOL0     C11439  11.905   1.527   8.964 -0.7639  0.1420  0.4847
  826MOL0     C11440  12.024   1.514   8.988 -0.0699  0.1746  0.6813
  826MOL0     C11441  11.281   1.091   9.083  0.0654  0.3248  0.2379
  826MOL0     C11442  11.225   0.996   9.170 -0.6379  0.0979 -0.8432
  826MOL0     H11443  10.864   0.754   9.406 -0.0660  0.8294  0.0793
  826MOL0     H11444  10.747   0.544   9.490  0.3303 -3.4933  1.1972
  826MOL0     H11445  10.711   0.216   9.619  0.1216  0.5360  2.4789
  826MOL0     H11446  10.715   0.397   9.624 -3.5137 -1.5019  0.6311
  826MOL0     H11447  10.519   0.302   9.525 -1.1564  1.8834 -2.4526
  826MOL0     H11448  10.597   0.405   9.411  0.3000  0.2403  0.4997
  826MOL0     H11449  10.563   0.171   9.285  1.8628 -4.3061 -0.9537
  826MOL0     H11450  10.723   0.173   9.355  0.5449  0.9979 -1.3847
  826MOL0     H11451  10.596   0.040   9.551 -1.9395  1.9693  1.4339
  826MOL0     H11452  10.447   0.071   9.460 -0.0294 -0.3468 -1.7159
  826MOL0     H11453  10.533  -0.171   9.428 -2.8917  0.3892 -0.4046
  826MOL0     H11454  10.513  -0.075   9.288  0.7588  0.5070  0.0030
  826MOL0     H11455  10.750  -0.047   9.257  3.3633  1.6746  2.1430
  826MOL0     H11456  10.796  -0.056   9.419  1.0064  0.3437 -1.3179
  826MOL0     H11457  10.850  -0.280   9.352  0.4254  1.5738 -1.2118
  826MOL0     H11458  10.679  -0.304   9.397 -2.6417  3.2082  0.7299
  826MOL0     H11459  10.718  -0.195   9.131 -1.0831 -0.5455  0.3716
  826MOL0     H11460  10.603  -0.306   9.192 -0.2638  2.0497 -2.6514
  826MOL0     H11461  10.850  -0.328   8.945 -2.1260 -2.9641 -4.6540
  826MOL0     H11462  10.933  -0.682   8.880  1.3795  0.3857 -3.1333
  826MOL0     H11463  10.948  -0.517   8.821 -4.2560  2.2643  1.5190
  826MOL0     H11464  11.122  -0.456   8.982 -2.2049  0.8489  0.8875
  826MOL0     H11465  11.155  -0.556   8.838  0.9725  1.3665 -0.0533
  826MOL0     H11466  11.124  -0.752   8.997 -0.0435  0.3956 -0.1010
  826MOL0     H11467  11.131  -0.627   9.134 -1.2567 -0.7281 -0.6564
  826MOL0     H11468  11.352  -0.684   8.920  1.4712  2.1585  0.7143
  826MOL0     H11469  11.345  -0.766   9.078  4.7717 -0.4804  0.6864
  826MOL0     H11470  11.502  -0.413   9.262  0.2791  2.6645 -0.3326
  826MOL0     H11471  11.715  -0.227   9.299  1.9885  0.0582  0.1951
  826MOL0     H11472  11.719  -0.373   9.397  2.6399 -2.7430 -0.2677
  826MOL0     H11473  11.866  -0.317   9.311 -0.0626  2.2672  0.8831
  826MOL0     H11474  11.940  -0.097   8.894 -0.5910  1.4160  2.0910
  826MOL0     H11475  12.127   0.014   8.770  0.1737  0.1803  0.9987
  826MOL0     H11476  12.384   0.011   8.642  1.8652  3.1941 -3.0941
  826MOL0     H11477  12.303   0.146   8.719 -1.0860 -1.0017 -3.2613
  826MOL0     H11478  12.505   0.200   8.601 -0.0426  0.3195 -0.5060
  826MOL0     H11479  12.518   0.228   8.778  0.1317  2.3270 -1.7764
  826MOL0     H11480  12.646   0.015   8.603 -0.8526  0.5989 -1.3186
  826MOL0     H11481  12.657   0.010   8.782 -1.8395 -1.2674 -1.7205
  826MOL0     H11482  12.785   0.209   8.797  1.0223 -0.0766 -0.1531
  826MOL0     H11483  12.866   0.086   8.695  0.5230 -0.3152 -1.9440
  826MOL0     H11484  12.730   0.321   8.588  0.4187  0.0603 -1.8115
  826MOL0     H11485  12.798   0.183   8.493  1.1886  0.6909 -1.2639
  826MOL0     H11486  12.959   0.357   8.683  0.0482 -0.3818 -0.0545
  826MOL0     H11487  13.022   0.219   8.598 -1.1249 -1.4658 -1.0988
  826MOL0     H11488  12.923   0.479   8.464  1.1965  1.0186  0.5104
  826MOL0     H11489  13.004   0.336   8.386 -1.3773 -0.1606 -0.0211
  826MOL0     H11490  13.196   0.403   8.561 -0.0465  1.5157  2.1010
  826MOL0     H11491  13.113   0.560   8.543  0.8573 -1.7665  3.5753
  826MOL0     H11492  12.400  -0.150   9.058  1.6683  1.4524 -2.9564
  826MOL0     H11493  12.215  -0.290   9.151 -0.3850  0.7146  0.9333
  826MOL0     H11494  11.792  -0.554   8.896 -2.4805 -0.8226 -1.7596
  826MOL0     H11495  11.554  -0.618   8.900  0.2181  0.9794  0.3694
  826MOL0     H11496  11.107   0.319   9.395  3.0450  1.7169  0.6072
  826MOL0     H11497  11.218   0.508   9.321  1.2882  0.0894  0.4567
  826MOL0     H11498  11.502   0.870   9.304  1.2453  3.0802  0.8708
  826MOL0     H11499  11.607   1.012   9.123  0.8653 -1.9008  1.4537
  826MOL0     H11500  11.617   1.277   9.077  0.4193  1.8099  0.0529
  826MOL0     H11501  11.665   1.178   8.940  2.0858  1.3431  2.2716
  826MOL0     H11502  11.506   1.442   8.924  2.0920 -0.2213  2.4608
  826MOL0     H11503  11.538   1.340   8.791 -0.4484  1.9251 -0.3193
  826MOL0     H11504  11.704   1.480   8.749  2.6596 -1.7282 -1.9317
  826MOL0     H11505  11.803   1.372   8.835 -0.0838 -0.2843  0.2969
  826MOL0     H11506  11.712   1.521   9.057  0.3042  1.9974 -0.5321
  826MOL0     H11507  11.722   1.643   8.935  0.1802  0.0444  0.1609
  826MOL0     H11508  12.123   1.480   9.009  0.5694  0.9970 -0.8681
  826MOL0     H11509  11.208   1.156   9.036  3.0051  4.1747  0.5305
  826MOL0     H11510  11.118   1.002   9.183 -0.6140 -0.3396 -0.4109
  827MOL0     O11511   4.057   8.585   2.841  0.0649  0.0432 -0.7120
  827MOL0     C11512   4.136   8.677   2.870  0.1718  0.4860 -0.0811
  827MOL0     O11513   4.230   8.725   2.784  0.4952 -0.3722 -0.2477
  827MOL0     C11514   4.194   8.745   2.653 -0.3283 -0.5993 -0.4156
  827MOL0     C11515   4.301   8.741   2.556 -0.9511 -0.3781 -0.5300
  827MOL0     C11516   4.273   8.770   2.428 -0.4051 -0.4681 -0.0158
  827MOL0     C11517   4.139   8.782   2.386  0.6415 -0.8404  0.4063
  827MOL0     O11518   4.102   8.791   2.254 -0.3266 -0.2556  0.8315
  827MOL0     C11519   4.185   8.716   2.158 -0.2476 -0.0059  0.3772
  827MOL0     C11520   4.113   8.712   2.026 -0.2593  0.5337 -1.2048
  827MOL0     C11521   4.102   8.842   1.965 -0.5460 -0.8883 -0.0416
  827MOL0     C11522   4.005   8.842   1.851  0.5570  0.5333  0.7400
  827MOL0     C11523   3.857   8.845   1.897  0.4291 -0.1379  0.5456
  827MOL0     C11524   3.801   8.991   1.915 -0.1108  1.0751  0.8797
  827MOL0     C11525   3.645   9.012   1.949  0.1363 -0.8201 -0.8586
  827MOL0     C11526   3.610   9.161   1.971 -0.9339 -0.0336  0.0438
  827MOL0     N11527   3.468   9.198   1.948 -0.5169 -0.5740 -0.0078
  827MOL0     C11528   3.368   9.154   2.030 -0.0235  0.8617  0.1089
  827MOL0     C11529   3.252   9.216   1.988  0.2773 -0.1208 -0.9490
  827MOL0     C11530   3.110   9.185   2.045 -0.5419  0.5071  0.0338
  827MOL0     C11531   2.997   9.121   1.954 -0.7967  0.0414  0.1002
  827MOL0     C11532   2.934   9.212   1.857  0.3865 -0.0103  0.0021
  827MOL0     C11533   2.808   9.156   1.778 -0.0721  0.2158 -0.1874
  827MOL0     O11534   2.831   9.041   1.688  0.3516  0.2133 -0.2584
  827MOL0     C11535   2.724   9.009   1.600 -0.2199 -0.6560  0.2151
  827MOL0     C11536   2.623   9.096   1.548  1.1512 -0.4478 -0.1453
  827MOL0     C11537   2.524   9.059   1.451 -0.4118 -0.6224  0.0449
  827MOL0     C11538   2.405   9.152   1.426 -0.8042 -0.1809  0.7390
  827MOL0     C11539   2.524   8.928   1.409  0.2564 -0.5370  0.1651
  827MOL0     C11540   2.416   8.871   1.319  1.0766  0.3620 -0.5102
  827MOL0     O11541   2.409   8.732   1.305 -0.1060  0.5306  0.2141
  827MOL0     C11542   2.321   8.695   1.205  0.4224 -0.4032  0.7324
  827MOL0     C11543   2.375   8.692   1.078  0.3697 -0.9270 -0.2361
  827MOL0     C11544   2.297   8.648   0.973 -0.1603 -1.1899  0.7011
  827MOL0     C11545   2.161   8.611   0.990 -0.1497  0.9976  0.4259
  827MOL0     O11546   2.094   8.563   0.886  0.7783  0.8080 -0.0468
  827MOL0     C11547   2.109   8.629   0.756 -0.5694  0.2924 -0.4195
  827MOL0     C11548   1.999   8.598   0.657 -0.0676  0.0158  0.7342
  827MOL0     C11549   1.862   8.586   0.719  0.0763  1.6173 -0.8801
  827MOL0     C11550   1.755   8.579   0.619 -0.5561 -0.1983  0.3176
  827MOL0     C11551   1.628   8.544   0.691  0.1833 -0.2245 -0.0939
  827MOL0     C11552   1.509   8.527   0.592 -0.1667  0.3477 -0.5713
  827MOL0     C11553   1.393   8.471   0.662  0.5908  0.7623 -0.0119
  827MOL0     C11554   1.258   8.481   0.581 -0.6156 -0.0381 -0.0099
  827MOL0    Cl11555   1.119   8.440   0.685  0.1645  0.2954 -0.0595
  827MOL0     C11556   2.106   8.619   1.120 -0.2710  0.3235 -0.9426
  827MOL0     C11557   2.185   8.657   1.228 -0.3218 -0.5617  0.1144
  827MOL0     O11558   2.329   8.943   1.264 -1.0092  0.3582 -0.0283
  827MOL0     C11559   2.622   8.842   1.454 -0.6703 -0.3622  0.0551
  827MOL0     C11560   2.731   8.881   1.540  0.1939  0.4517  0.2360
  827MOL0     N11561   3.284   9.301   1.881 -0.4151 -0.5156 -0.8143
  827MOL0     N11562   3.409   9.289   1.868 -0.1285  0.5588 -0.6192
  827MOL0     C11563   4.036   8.780   2.469 -0.2007 -0.0632 -0.0057
  827MOL0     C11564   4.055   8.773   2.606 -0.8160  0.4436 -1.3759
  827MOL0     C11565   4.141   8.719   3.001  0.2228 -0.3122 -0.4502
  827MOL0     C11566   4.261   8.782   3.047 -0.4115 -0.9783  0.1862
  827MOL0     C11567   4.249   8.852   3.173 -0.6983  0.4556 -0.1386
  827MOL0     C11568   4.135   8.854   3.258  1.0736 -0.9236  0.4165
  827MOL0     O11569   4.126   8.927   3.382 -0.2005  0.8135  1.0876
  827MOL0     C11570   4.211   9.038   3.397 -0.4790  0.1018 -0.4077
  827MOL0     C11571   4.149   9.153   3.477  0.0227  0.0777  0.0889
  827MOL0     C11572   4.256   9.247   3.521 -0.0165 -0.2219 -0.5312
  827MOL0     C11573   4.191   9.394   3.518  0.2074  1.3126  0.4342
  827MOL0     C11574   4.281   9.483   3.589  0.5770 -0.9253 -0.0844
  827MOL0     C11575   4.350   9.563   3.650 -0.1063 -0.6916 -0.2555
  827MOL0     C11576   4.015   8.787   3.200  0.0678 -0.1560  0.7055
  827MOL0     C11577   4.030   8.722   3.077  0.8407  0.3711 -0.0422
  827MOL0     H11578   4.399   8.712   2.594 -2.0132 -3.1216  0.4058
  827MOL0     H11579   4.347   8.781   2.349 -1.5527  0.9364 -0.9537
  827MOL0     H11580   4.282   8.766   2.148 -2.2837  4.0995 -1.0621
  827MOL0     H11581   4.198   8.613   2.193 -2.6125 -0.0388  1.3187
  827MOL0     H11582   4.175   8.643   1.969  0.6933 -0.4151  0.8708
  827MOL0     H11583   4.015   8.663   2.038  0.7868 -2.3773 -3.2674
  827MOL0     H11584   4.069   8.914   2.041  2.4167 -0.2973  0.8149
  827MOL0     H11585   4.204   8.872   1.940  0.2186 -1.6369  1.9469
  827MOL0     H11586   4.017   8.930   1.788 -2.8675  0.9768  0.5024
  827MOL0     H11587   4.021   8.757   1.784 -0.7030 -0.3443  1.5067
  827MOL0     H11588   3.796   8.800   1.818 -0.1113  3.8036 -1.5000
  827MOL0     H11589   3.846   8.782   1.986  1.0086 -0.1490  0.6158
  827MOL0     H11590   3.856   9.030   2.001  0.5592  1.4365  0.2990
  827MOL0     H11591   3.831   9.060   1.836  3.5686  1.4125  2.3406
  827MOL0     H11592   3.584   8.972   1.868 -0.0645  2.6301 -2.5821
  827MOL0     H11593   3.614   8.963   2.042 -0.1022 -1.1495 -1.1089
  827MOL0     H11594   3.675   9.210   1.898 -0.0291 -0.7292  0.3635
  827MOL0     H11595   3.653   9.192   2.067 -1.3207  0.9947 -0.1007
  827MOL0     H11596   3.371   9.075   2.105 -2.6062  0.3799 -0.2341
  827MOL0     H11597   3.133   9.122   2.132  0.2956 -1.3357 -1.4470
  827MOL0     H11598   3.064   9.271   2.094 -4.0090 -1.7395  1.0690
  827MOL0     H11599   2.918   9.079   2.017 -0.4021 -0.1449  0.4764
  827MOL0     H11600   3.039   9.031   1.909 -0.1302  0.2293  0.3359
  827MOL0     H11601   3.014   9.248   1.792 -1.6487  0.7819 -2.1670
  827MOL0     H11602   2.901   9.302   1.909 -0.2808 -0.8019  0.9912
  827MOL0     H11603   2.764   9.239   1.723 -0.6858  0.2543  0.3527
  827MOL0     H11604   2.722   9.123   1.837  0.0979  1.8920  1.0637
  827MOL0     H11605   2.612   9.194   1.594  1.5867 -1.1865  1.5922
  827MOL0     H11606   2.306   9.117   1.455 -0.6743  0.8079  2.5102
  827MOL0     H11607   2.412   9.249   1.476 -2.9597  0.0495  0.6920
  827MOL0     H11608   2.400   9.167   1.317 -2.1746  0.2955  0.8433
  827MOL0     H11609   2.482   8.699   1.060  0.6905 -1.5651  1.2522
  827MOL0     H11610   2.341   8.622   0.877 -0.1892 -0.0583  0.3711
  827MOL0     H11611   2.121   8.738   0.759  2.7075  0.2032 -3.6250
  827MOL0     H11612   2.196   8.586   0.706 -0.3647 -0.4967  0.5669
  827MOL0     H11613   1.995   8.673   0.578 -0.3790  0.4544  1.1577
  827MOL0     H11614   2.009   8.497   0.614 -6.1231  0.2765 -2.4139
  827MOL0     H11615   1.848   8.668   0.791  3.3119  0.9374  0.7278
  827MOL0     H11616   1.855   8.493   0.775  1.9545  0.4257 -2.5104
  827MOL0     H11617   1.759   8.678   0.572  4.6678 -0.9258 -1.3422
  827MOL0     H11618   1.783   8.507   0.542 -2.3775  0.2861 -0.8708
  827MOL0     H11619   1.606   8.623   0.763 -0.3730 -0.2801 -0.2034
  827MOL0     H11620   1.639   8.449   0.745  0.5909 -0.5896 -0.7974
  827MOL0     H11621   1.485   8.628   0.555 -0.6179  0.2794 -0.4631
  827MOL0     H11622   1.533   8.467   0.504  0.0743  2.2474 -1.8755
  827MOL0     H11623   1.389   8.520   0.760 -1.5560 -1.2023  0.9778
  827MOL0     H11624   1.412   8.364   0.672  2.7134  0.9080 -1.7841
  827MOL0     H11625   1.283   8.426   0.490  0.3699  1.8606 -0.9323
  827MOL0     H11626   1.230   8.581   0.549 -1.6243  0.5969  2.5785
  827MOL0     H11627   2.006   8.581   1.136  1.4816 -4.7423 -0.2195
  827MOL0     H11628   2.138   8.646   1.325 -1.2050  0.2909 -0.2001
  827MOL0     H11629   2.626   8.740   1.417 -1.1344 -0.3696  0.0197
  827MOL0     H11630   2.810   8.814   1.571  0.7824 -0.1980 -2.4487
  827MOL0     H11631   3.936   8.768   2.428  0.4448  0.9327 -1.9989
  827MOL0     H11632   3.968   8.773   2.670  0.9885 -1.7448  1.3277
  827MOL0     H11633   4.355   8.789   2.993  0.5867 -0.5746  1.9096
  827MOL0     H11634   4.342   8.894   3.211 -0.8553  0.2190  0.5257
  827MOL0     H11635   4.301   9.006   3.451  0.8486 -0.7817 -2.9453
  827MOL0     H11636   4.246   9.070   3.298  2.2745 -5.2412 -1.5573
  827MOL0     H11637   4.108   9.118   3.572 -0.6295  0.6620  0.0353
  827MOL0     H11638   4.069   9.206   3.424 -0.9153 -2.2028 -0.8772
  827MOL0     H11639   4.340   9.256   3.451 -0.4722  1.3626 -0.9174
  827MOL0     H11640   4.291   9.227   3.623  1.1782  0.0646 -0.8632
  827MOL0     H11641   4.091   9.385   3.562  0.4629 -3.2507  0.4936
  827MOL0     H11642   4.172   9.425   3.415 -1.1173  0.9925  0.5620
  827MOL0     H11643   4.394   9.636   3.714  1.1861  0.3951 -2.2566
  827MOL0     H11644   3.929   8.773   3.264 -0.8719 -1.4967 -0.7863
  827MOL0     H11645   3.944   8.665   3.043  2.3165 -1.1390 -1.4355
  828MOL0     O11646   5.697   4.955   3.730 -0.4495 -0.2942 -1.6615
  828MOL0     C11647   5.628   4.943   3.632 -0.1799  0.6736 -0.2800
  828MOL0     O11648   5.531   4.849   3.615  0.1642 -0.3334 -0.2776
  828MOL0     C11649   5.502   4.766   3.720 -0.8588 -0.1532 -0.9625
  828MOL0     C11650   5.494   4.803   3.859  0.5331  0.1533  0.1855
  828MOL0     C11651   5.463   4.710   3.959  0.6458 -0.4454 -0.2338
  828MOL0     C11652   5.454   4.577   3.943 -0.1642  0.2280  0.1301
  828MOL0     O11653   5.431   4.479   4.043  0.5440  0.6655 -0.4008
  828MOL0     C11654   5.461   4.496   4.180 -0.2940 -0.6546  0.2920
  828MOL0     C11655   5.451   4.370   4.251  0.6927  0.8043 -0.1551
  828MOL0     C11656   5.300   4.314   4.265 -0.4245 -0.3898 -0.0005
  828MOL0     C11657   5.292   4.197   4.366  0.7782 -0.3794 -0.7233
  828MOL0     C11658   5.145   4.137   4.376  0.5574 -0.0693  0.2454
  828MOL0     C11659   5.150   3.991   4.421  0.4841 -0.4553 -0.1092
  828MOL0     C11660   5.011   3.942   4.467 -0.0526  0.5583  0.7569
  828MOL0     C11661   4.968   4.004   4.600  0.0994  0.1691 -0.3006
  828MOL0     N11662   4.824   3.980   4.613  0.3410  0.4869 -0.1656
  828MOL0     C11663   4.729   4.060   4.548  0.1745  0.1150 -0.2100
  828MOL0     C11664   4.614   3.996   4.573 -0.7294 -0.5600 -0.4894
  828MOL0     C11665   4.483   4.026   4.515  0.0288 -1.1315  0.3248
  828MOL0     C11666   4.489   4.083   4.370 -0.0343  0.0566 -0.4350
  828MOL0     C11667   4.509   3.962   4.275 -0.2358  0.4774  0.2034
  828MOL0     C11668   4.573   4.005   4.138 -1.3126  1.1519  0.2795
  828MOL0     O11669   4.701   4.079   4.164 -0.1168 -0.0397  0.5026
  828MOL0     C11670   4.740   4.164   4.061 -0.4330  0.6514 -0.4679
  828MOL0     C11671   4.868   4.222   4.076  1.2865  0.2998 -0.2235
  828MOL0     C11672   4.926   4.298   3.970  0.2204 -0.0019 -0.0044
  828MOL0     C11673   5.058   4.356   4.006 -0.3664  0.5236 -0.6806
  828MOL0     C11674   4.859   4.337   3.854 -0.6516  1.3903  0.4100
  828MOL0     C11675   4.912   4.413   3.732 -0.0997 -0.1774 -0.5818
  828MOL0     O11676   5.045   4.404   3.706  0.6810  0.6899  1.0094
  828MOL0     C11677   5.102   4.487   3.609 -0.2460  0.7895  0.4384
  828MOL0     C11678   5.204   4.437   3.531 -0.9899 -0.2797 -1.0601
  828MOL0     C11679   5.268   4.508   3.435  0.0269 -0.2308  0.3330
  828MOL0     C11680   5.243   4.642   3.408  0.8456  0.1140 -0.0780
  828MOL0     O11681   5.287   4.711   3.305 -0.2839  0.2092  0.2686
  828MOL0     C11682   5.395   4.655   3.216  0.1392 -0.0914 -0.5794
  828MOL0     C11683   5.464   4.773   3.134 -0.3681 -0.0036  1.0836
  828MOL0     C11684   5.360   4.849   3.042 -0.5814 -0.0212 -0.3850
  828MOL0     C11685   5.427   4.937   2.935  0.8297 -0.0515 -0.4419
  828MOL0     C11686   5.314   4.969   2.843  0.4933 -0.0229 -0.4206
  828MOL0     C11687   5.377   5.017   2.708  1.2372  0.1140 -0.0453
  828MOL0     C11688   5.272   5.024   2.590  0.5988 -0.0562  0.2532
  828MOL0     C11689   5.325   5.060   2.455 -0.1232  0.0052  0.7384
  828MOL0    Cl11690   5.468   4.961   2.398 -0.1956  0.0077  0.4010
  828MOL0     C11691   5.141   4.694   3.490 -0.6528  0.2829 -0.1776
  828MOL0     C11692   5.076   4.619   3.584  0.4991  0.3546 -0.0564
  828MOL0     O11693   4.834   4.479   3.664 -0.1232 -0.3968  0.0038
  828MOL0     C11694   4.735   4.284   3.847  0.7385 -0.8166 -0.2466
  828MOL0     C11695   4.670   4.201   3.946 -0.7197  0.0499 -0.0250
  828MOL0     N11696   4.647   3.874   4.634  0.0081  0.0043  0.7060
  828MOL0     N11697   4.773   3.870   4.666  1.0465 -0.3124 -1.3630
  828MOL0     C11698   5.458   4.540   3.811 -0.9594 -0.3521  1.5775
  828MOL0     C11699   5.485   4.629   3.703 -0.1875  0.4223  0.2794
  828MOL0     C11700   5.654   5.033   3.519  0.5847  0.9098 -0.0509
  828MOL0     C11701   5.770   5.101   3.512 -0.6799  0.3185  0.4704
  828MOL0     C11702   5.800   5.176   3.405 -0.1305  0.2333 -0.3014
  828MOL0     C11703   5.722   5.166   3.290 -0.5579 -0.5242 -0.2781
  828MOL0     O11704   5.768   5.254   3.195 -0.1732 -0.1442 -0.0275
  828MOL0     C11705   5.710   5.244   3.062  0.1573  0.8378 -0.1202
  828MOL0     C11706   5.777   5.349   2.973 -0.1086  0.7472  1.1264
  828MOL0     C11707   5.927   5.350   2.974 -0.3968 -0.2843  0.3725
  828MOL0     C11708   6.000   5.412   2.851 -0.4701  0.1607 -0.4426
  828MOL0     C11709   6.145   5.407   2.867 -0.6523 -0.1507  0.2944
  828MOL0     C11710   6.267   5.404   2.874  0.9859 -0.1079 -1.1434
  828MOL0     C11711   5.608   5.095   3.288 -0.2166 -1.3227  0.5696
  828MOL0     C11712   5.567   5.020   3.405  0.2428 -0.4286 -0.0828
  828MOL0     H11713   5.502   4.909   3.878  0.0697 -0.0896  1.9823
  828MOL0     H11714   5.446   4.747   4.060  0.2039 -2.0267  0.2985
  828MOL0     H11715   5.561   4.540   4.180 -0.4067 -0.3650 -0.7464
  828MOL0     H11716   5.388   4.566   4.222  0.9740  0.4077  0.7679
  828MOL0     H11717   5.524   4.303   4.205 -0.8459 -0.4004 -0.9337
  828MOL0     H11718   5.474   4.392   4.356 -2.8708 -2.6229  1.5883
  828MOL0     H11719   5.238   4.399   4.293  0.8567  0.4703  0.3372
  828MOL0     H11720   5.279   4.273   4.166 -3.1181 -0.5359  0.5495
  828MOL0     H11721   5.351   4.108   4.343  1.8237 -0.3929  1.6739
  828MOL0     H11722   5.326   4.212   4.469 -1.0096 -5.3902  0.9126
  828MOL0     H11723   5.085   4.198   4.444  0.6809  0.0380  0.2582
  828MOL0     H11724   5.094   4.124   4.280 -0.5284 -3.9713  1.1433
  828MOL0     H11725   5.189   3.943   4.332  0.5685  1.0727 -0.9289
  828MOL0     H11726   5.217   3.999   4.507  3.1423 -0.6242 -2.0713
  828MOL0     H11727   4.937   3.973   4.393 -0.6899 -1.4371  0.5011
  828MOL0     H11728   5.008   3.833   4.458  0.6325  0.3095  2.9974
  828MOL0     H11729   4.977   4.113   4.593 -0.4565  0.1107 -2.8726
  828MOL0     H11730   5.031   3.981   4.687  0.8510 -0.2905 -0.9557
  828MOL0     H11731   4.745   4.163   4.517  0.3312  0.5518  1.2530
  828MOL0     H11732   4.411   3.945   4.523 -1.5760  0.2914  0.8901
  828MOL0     H11733   4.434   4.097   4.582  1.9163  0.5889 -0.0289
  828MOL0     H11734   4.560   4.165   4.365  2.2440 -1.7349  0.5465
  828MOL0     H11735   4.392   4.123   4.338  1.1000  1.2121 -2.6106
  828MOL0     H11736   4.412   3.915   4.258 -0.4070  1.3322 -1.3829
  828MOL0     H11737   4.584   3.892   4.314 -0.4394  0.4424  0.5297
  828MOL0     H11738   4.499   4.071   4.091 -1.2461  0.9519 -0.1164
  828MOL0     H11739   4.599   3.928   4.065 -3.7577  2.5810 -2.3326
  828MOL0     H11740   4.914   4.186   4.167 -1.3014 -3.5288 -0.2012
  828MOL0     H11741   5.138   4.291   3.969 -1.9459 -1.1054 -1.3335
  828MOL0     H11742   5.082   4.451   3.957  2.2177  0.2189 -0.1461
  828MOL0     H11743   5.072   4.371   4.114 -2.2691  4.4460 -0.8036
  828MOL0     H11744   5.229   4.331   3.536  4.9026  0.7890 -0.0703
  828MOL0     H11745   5.343   4.463   3.370  1.1221  2.5555 -0.4529
  828MOL0     H11746   5.478   4.617   3.276 -0.4483 -0.4901 -0.0001
  828MOL0     H11747   5.359   4.572   3.156  2.9828 -1.3902 -0.6479
  828MOL0     H11748   5.526   4.836   3.199  1.8116 -1.3864  0.4752
  828MOL0     H11749   5.537   4.721   3.071  0.1242  0.4799  1.2486
  828MOL0     H11750   5.288   4.901   3.106 -0.7273 -0.6512 -0.0349
  828MOL0     H11751   5.305   4.772   2.988 -0.0589 -0.7094  0.0521
  828MOL0     H11752   5.464   5.032   2.976 -0.8721  1.3475 -1.9386
  828MOL0     H11753   5.509   4.886   2.884  0.4004 -0.1205 -1.0711
  828MOL0     H11754   5.235   5.032   2.885  2.0233  1.3958  0.4574
  828MOL0     H11755   5.263   4.874   2.825  3.1281 -1.2084 -2.3955
  828MOL0     H11756   5.410   5.119   2.731 -0.5940  0.6468  0.4748
  828MOL0     H11757   5.467   4.957   2.696  0.0747 -2.3182  2.4236
  828MOL0     H11758   5.185   5.087   2.613 -2.3592 -3.0619 -1.7586
  828MOL0     H11759   5.219   4.929   2.586  0.3477  0.0975 -0.1083
  828MOL0     H11760   5.357   5.165   2.458 -0.6672  0.2286 -0.4991
  828MOL0     H11761   5.238   5.048   2.391 -0.6195  2.6077  0.8135
  828MOL0     H11762   5.109   4.797   3.478 -5.1609 -0.6887  1.4997
  828MOL0     H11763   4.995   4.668   3.638 -0.6041 -1.8455  0.3760
  828MOL0     H11764   4.676   4.314   3.761  1.1338  0.5052 -0.0776
  828MOL0     H11765   4.569   4.161   3.936 -0.8985 -0.6252  3.2758
  828MOL0     H11766   5.433   4.436   3.792 -3.4086  0.7868 -2.7832
  828MOL0     H11767   5.494   4.601   3.599  0.2845 -0.3393  0.5066
  828MOL0     H11768   5.826   5.126   3.601 -0.4624 -0.2537  0.5018
  828MOL0     H11769   5.889   5.237   3.403  1.7807 -1.9818  3.9541
  828MOL0     H11770   5.733   5.145   3.022  1.1911  0.3299  1.5916
  828MOL0     H11771   5.603   5.265   3.065  0.0507  0.2355  0.9745
  828MOL0     H11772   5.734   5.444   3.005  2.0506  0.5385  5.4566
  828MOL0     H11773   5.759   5.332   2.867  3.3371  2.9678  0.0275
  828MOL0     H11774   5.961   5.246   2.981  0.5197 -0.3506 -3.2418
  828MOL0     H11775   5.955   5.407   3.063 -0.6930  1.6105 -0.6991
  828MOL0     H11776   5.962   5.514   2.839 -0.1329  0.3055 -0.2867
  828MOL0     H11777   5.990   5.362   2.754  1.6388  2.2336 -1.8620
  828MOL0     H11778   6.374   5.415   2.871  1.0334  3.0140  2.9607
  828MOL0     H11779   5.540   5.101   3.204  2.1681 -0.1179 -1.3937
  828MOL0     H11780   5.472   4.969   3.418 -0.1060 -0.7788 -3.3362
  829MOL0     O11781   7.123  11.415   5.523  0.2168 -0.0035 -0.4766
  829MOL0     C11782   7.246  11.444   5.509  0.4917  1.1399 -0.4825
  829MOL0     O11783   7.339  11.436   5.614  0.0587 -0.2252  0.7181
  829MOL0     C11784   7.308  11.417   5.745  0.0744 -0.4149  0.2860
  829MOL0     C11785   7.266  11.516   5.838 -0.1193 -0.7809 -0.1353
  829MOL0     C11786   7.237  11.494   5.973 -0.6917  0.0337  0.2765
  829MOL0     C11787   7.239  11.371   6.027  0.2044 -0.4956  0.5466
  829MOL0     O11788   7.204  11.356   6.161  0.4605 -0.2917  0.2802
  829MOL0     C11789   7.259  11.243   6.238 -0.0761 -0.6336  0.2176
  829MOL0     C11790   7.198  11.256   6.381  0.4264 -0.4197  0.2924
  829MOL0     C11791   7.045  11.280   6.389 -0.0155 -0.5445 -0.3390
  829MOL0     C11792   6.993  11.299   6.531  0.4782 -0.1702 -0.5628
  829MOL0     C11793   7.037  11.440   6.573 -0.2554 -0.1995  0.4383
  829MOL0     C11794   6.976  11.470   6.703  0.4757 -0.4183 -0.4242
  829MOL0     C11795   7.038  11.586   6.786  0.1320 -0.1986  0.3945
  829MOL0     C11796   7.005  11.724   6.729  1.0647  0.4346  0.4374
  829MOL0     N11797   6.863  11.766   6.757 -0.9546  0.2265  0.6945
  829MOL0     C11798   6.826  11.850   6.859 -0.0595  0.6993 -0.0303
  829MOL0     C11799   6.702  11.879   6.834  0.7659 -1.0594 -0.1303
  829MOL0     C11800   6.608  11.966   6.915 -0.1189  0.1603 -0.8940
  829MOL0     C11801   6.498  11.870   6.967 -0.4225 -0.4426 -0.5144
  829MOL0     C11802   6.413  11.950   7.073  0.6975 -0.0504  0.1251
  829MOL0     C11803   6.278  11.886   7.080 -0.0054  0.2298 -0.0667
  829MOL0     O11804   6.300  11.749   7.100  0.1529 -0.1009 -0.2173
  829MOL0     C11805   6.193  11.666   7.065 -0.9747 -0.6247 -0.1305
  829MOL0     C11806   6.060  11.719   7.059  0.0445 -0.0003 -0.1165
  829MOL0     C11807   5.956  11.631   7.023 -0.3728  0.3445 -0.5914
  829MOL0     C11808   5.824  11.690   7.013 -0.5706  0.6239  0.2489
  829MOL0     C11809   5.982  11.487   7.017  0.0731 -0.3825 -0.3221
  829MOL0     C11810   5.866  11.380   6.995 -0.5253  1.3585  0.5489
  829MOL0     O11811   5.736  11.418   7.005 -0.1285 -0.5649  0.9258
  829MOL0     C11812   5.638  11.327   7.003 -0.2231 -0.4484  0.4604
  829MOL0     C11813   5.549  11.339   7.114  0.6908  1.8982  0.5555
  829MOL0     C11814   5.440  11.241   7.127  0.2403  0.7766  0.1970
  829MOL0     C11815   5.422  11.149   7.020 -0.3433  0.7133 -0.1741
  829MOL0     O11816   5.301  11.085   7.003  0.0754  0.1536  0.2312
  829MOL0     C11817   5.249  11.013   7.119  0.3731 -0.8986 -0.1866
  829MOL0     C11818   5.335  10.897   7.169 -0.3347 -0.1331  0.3407
  829MOL0     C11819   5.351  10.778   7.058  0.2364  0.2224 -0.4754
  829MOL0     C11820   5.478  10.710   7.089  0.1600  0.6497  0.7330
  829MOL0     C11821   5.465  10.571   7.028  0.2664 -0.2719  1.3832
  829MOL0     C11822   5.413  10.451   7.117  0.1944 -0.1744 -0.0327
  829MOL0     C11823   5.398  10.337   7.016 -0.0010  0.4429  0.3824
  829MOL0     C11824   5.254  10.297   6.985  0.3100  0.6373 -0.5875
  829MOL0    Cl11825   5.177  10.423   6.890 -0.3973 -0.5705  0.0227
  829MOL0     C11826   5.503  11.138   6.920  0.0762 -0.5705  0.6093
  829MOL0     C11827   5.613  11.225   6.910  0.0807  0.2985  0.5949
  829MOL0     O11828   5.905  11.263   6.987  0.9566  0.0850  0.1654
  829MOL0     C11829   6.113  11.444   7.039 -0.1113 -0.7874  0.2061
  829MOL0     C11830   6.217  11.532   7.063  0.1594  0.7712  0.5639
  829MOL0     N11831   6.659  11.822   6.718 -0.4537  0.3014  0.5465
  829MOL0     N11832   6.760  11.752   6.674  0.8125 -0.3826 -0.1726
  829MOL0     C11833   7.276  11.264   5.941 -0.5847  0.5840  0.1073
  829MOL0     C11834   7.316  11.289   5.813  1.0759 -0.6359  0.8193
  829MOL0     C11835   7.280  11.477   5.371 -0.0337  0.5152 -0.3173
  829MOL0     C11836   7.199  11.462   5.264  0.6752 -0.2959  0.2560
  829MOL0     C11837   7.239  11.503   5.140 -0.2301  0.4552 -0.0475
  829MOL0     C11838   7.366  11.561   5.115 -0.4303  0.1233 -0.3056
  829MOL0     O11839   7.424  11.603   5.003  0.0223  0.4298 -0.3912
  829MOL0     C11840   7.340  11.636   4.898 -0.6341 -0.6220  0.0360
  829MOL0     C11841   7.432  11.686   4.780  0.6758 -0.5219 -0.5870
  829MOL0     C11842   7.537  11.594   4.711  0.1365 -0.6577  0.7481
  829MOL0     C11843   7.460  11.489   4.634 -0.3004 -1.1294 -0.6680
  829MOL0     C11844   7.555  11.387   4.587 -0.3445 -0.9032 -1.2300
  829MOL0     C11845   7.647  11.309   4.554  0.7621  0.6268 -0.3780
  829MOL0     C11846   7.451  11.562   5.227 -0.2243 -0.4178  0.8687
  829MOL0     C11847   7.416  11.511   5.348 -0.4368  0.4524 -0.1392
  829MOL0     H11848   7.252  11.617   5.802 -0.0051 -1.2283 -1.4972
  829MOL0     H11849   7.213  11.577   6.038 -1.6644  0.2034 -0.2688
  829MOL0     H11850   7.218  11.148   6.204 -1.3712 -1.1736  2.9912
  829MOL0     H11851   7.367  11.249   6.228 -0.0550 -3.2689 -2.3697
  829MOL0     H11852   7.230  11.162   6.428  0.9366 -0.4562 -0.1215
  829MOL0     H11853   7.254  11.336   6.430 -1.0156  0.2619  0.8768
  829MOL0     H11854   7.013  11.365   6.329  2.2355  1.3155  0.9589
  829MOL0     H11855   6.995  11.186   6.363 -3.2686  0.4444  1.6867
  829MOL0     H11856   6.883  11.297   6.533  0.4932 -1.4348  0.6017
  829MOL0     H11857   7.022  11.221   6.601 -1.0796 -0.0719  0.2440
  829MOL0     H11858   7.144  11.447   6.591 -0.1349  0.8929 -0.5326
  829MOL0     H11859   7.006  11.506   6.491 -2.6140 -2.0987 -0.3446
  829MOL0     H11860   6.875  11.510   6.686  0.5479 -0.9460 -2.3508
  829MOL0     H11861   6.972  11.385   6.771  2.6880 -0.5778 -0.4078
  829MOL0     H11862   7.003  11.578   6.889 -1.4125  2.1893  0.1284
  829MOL0     H11863   7.146  11.573   6.796  0.2905  0.5623 -0.2888
  829MOL0     H11864   7.030  11.739   6.623 -1.4359  0.4522 -0.2219
  829MOL0     H11865   7.072  11.796   6.776  0.0929  3.7587 -2.7641
  829MOL0     H11866   6.885  11.876   6.946 -1.2736  5.2061 -0.3231
  829MOL0     H11867   6.660  12.007   7.002 -0.1437 -1.2991 -0.1657
  829MOL0     H11868   6.579  12.045   6.844 -0.7457 -2.7280 -4.1418
  829MOL0     H11869   6.541  11.788   7.025 -1.3187 -1.3644 -1.1204
  829MOL0     H11870   6.449  11.819   6.883 -0.2343 -2.5775  0.5969
  829MOL0     H11871   6.391  12.049   7.033 -1.3912 -0.3827  0.3256
  829MOL0     H11872   6.465  11.950   7.169  0.3690 -1.0658  0.3173
  829MOL0     H11873   6.228  11.917   6.988  0.8028  3.8565  0.5914
  829MOL0     H11874   6.215  11.917   7.164  1.0348 -1.2509  1.3226
  829MOL0     H11875   6.041  11.826   7.067 -0.3919  0.0881 -1.9108
  829MOL0     H11876   5.821  11.799   7.011  1.3298  0.7092  0.3308
  829MOL0     H11877   5.779  11.656   6.920  0.9946 -1.1986  0.1055
  829MOL0     H11878   5.761  11.647   7.091  1.7212  0.0143  1.8701
  829MOL0     H11879   5.591  11.407   7.188  1.8987  1.3359  0.4173
  829MOL0     H11880   5.376  11.239   7.214  0.9769  3.6553  0.9053
  829MOL0     H11881   5.235  11.082   7.202 -0.8496  0.7027 -1.6575
  829MOL0     H11882   5.147  10.990   7.086  0.5241 -0.1399 -1.2220
  829MOL0     H11883   5.433  10.933   7.204 -0.2710 -0.4743  0.5240
  829MOL0     H11884   5.287  10.848   7.254 -2.6045 -0.6148 -1.1528
  829MOL0     H11885   5.349  10.811   6.954  0.7742 -2.0892 -1.2609
  829MOL0     H11886   5.265  10.712   7.074  1.3599 -0.8550  1.4975
  829MOL0     H11887   5.562  10.764   7.045 -0.9027  1.1412 -0.7804
  829MOL0     H11888   5.490  10.699   7.197  2.4942 -3.4834  0.2712
  829MOL0     H11889   5.565  10.548   6.993  0.6969  0.1438  2.2962
  829MOL0     H11890   5.406  10.577   6.937  0.8562 -0.5224  0.9837
  829MOL0     H11891   5.480  10.430   7.200  3.1703 -1.3839 -2.5633
  829MOL0     H11892   5.310  10.470   7.150 -0.3251 -2.8417  0.1357
  829MOL0     H11893   5.447  10.252   7.065  0.1347 -0.3007 -0.9920
  829MOL0     H11894   5.460  10.366   6.931  1.4651  0.1060  1.2900
  829MOL0     H11895   5.192  10.260   7.067  3.3320  0.0299  1.5990
  829MOL0     H11896   5.266  10.217   6.911  0.8151  0.4351 -0.2902
  829MOL0     H11897   5.483  11.075   6.834  2.6028  1.6213 -1.7893
  829MOL0     H11898   5.683  11.224   6.827 -1.4525  3.9638 -0.9729
  829MOL0     H11899   6.143  11.343   7.013 -3.2041 -1.5672 -0.7581
  829MOL0     H11900   6.317  11.490   7.075 -0.5338 -1.2303 -0.1816
  829MOL0     H11901   7.279  11.161   5.977  0.3395  0.0542 -1.3383
  829MOL0     H11902   7.346  11.209   5.745  0.7791  1.4580 -1.9216
  829MOL0     H11903   7.095  11.439   5.280  0.1430  2.0283  0.4877
  829MOL0     H11904   7.158  11.508   5.068 -0.9271 -0.9019  0.5954
  829MOL0     H11905   7.276  11.559   4.854  0.3080 -0.0247 -2.5988
  829MOL0     H11906   7.279  11.717   4.940 -0.8032 -0.5250 -0.3841
  829MOL0     H11907   7.487  11.772   4.819  0.7223 -0.3322 -1.0719
  829MOL0     H11908   7.376  11.730   4.698  3.2491  3.0522 -0.6603
  829MOL0     H11909   7.595  11.549   4.793  1.0155 -0.8419  0.0467
  829MOL0     H11910   7.612  11.643   4.648  0.3602 -0.3117  1.2746
  829MOL0     H11911   7.429  11.556   4.553 -1.3731  1.3119  1.6351
  829MOL0     H11912   7.378  11.443   4.690  2.4924 -3.7978  1.5632
  829MOL0     H11913   7.730  11.245   4.534  0.4472 -0.8042  2.3959
  829MOL0     H11914   7.553  11.596   5.213  0.1352 -1.3234  1.1921
  829MOL0     H11915   7.485  11.518   5.432  2.0361 -0.5957 -1.9497
  830MOL0     O11916   1.870   5.146   8.218  1.1296  0.3126 -0.5137
  830MOL0     C11917   1.937   5.052   8.239 -0.4640 -0.4809  0.6755
  830MOL0     O11918   2.030   4.999   8.145  0.7083  0.3493 -0.2404
  830MOL0     C11919   2.027   5.041   8.015 -0.6074  0.2501 -0.3898
  830MOL0     C11920   2.150   5.076   7.956 -0.4982  0.0683 -0.3465
  830MOL0     C11921   2.147   5.114   7.824 -0.7332  0.1420 -1.1702
  830MOL0     C11922   2.032   5.109   7.740  0.1569 -0.2418  1.0881
  830MOL0     O11923   2.048   5.131   7.605  0.2762  0.1663 -0.0128
  830MOL0     C11924   2.076   5.014   7.528 -0.6053 -0.5050 -0.4965
  830MOL0     C11925   2.161   5.066   7.411  0.2186 -0.0159 -0.1165
  830MOL0     C11926   2.219   4.958   7.308 -0.2179 -0.1607 -1.2022
  830MOL0     C11927   2.298   5.022   7.192  0.1559 -0.9568  0.2976
  830MOL0     C11928   2.375   4.909   7.128 -0.0561 -0.7592  0.2828
  830MOL0     C11929   2.437   4.956   6.997 -0.5620 -0.0110 -0.7382
  830MOL0     C11930   2.560   4.865   6.959 -1.0547  0.0335 -0.7290
  830MOL0     C11931   2.622   4.910   6.831 -0.0004 -0.0306  0.9763
  830MOL0     N11932   2.730   4.819   6.798 -0.7126 -0.7319  0.0840
  830MOL0     C11933   2.857   4.812   6.867 -0.3401  0.3290  0.6801
  830MOL0     C11934   2.907   4.700   6.827 -0.7190  0.1381 -0.4353
  830MOL0     C11935   3.040   4.651   6.871  0.7009 -0.3052  0.1957
  830MOL0     C11936   3.111   4.561   6.778 -1.2224 -0.5200 -0.2279
  830MOL0     C11937   3.263   4.568   6.781 -0.5283 -0.3270 -0.6265
  830MOL0     C11938   3.324   4.709   6.777 -0.4990  0.0545 -0.4879
  830MOL0     O11939   3.257   4.816   6.703 -0.6537  0.2591  0.1445
  830MOL0     C11940   3.298   4.941   6.703 -1.0306 -0.7578  0.0620
  830MOL0     C11941   3.199   5.039   6.716 -0.1352 -0.6771 -0.6790
  830MOL0     C11942   3.229   5.177   6.727 -0.7067  0.4677  0.3650
  830MOL0     C11943   3.116   5.275   6.698  0.5991  0.6699 -0.2063
  830MOL0     C11944   3.373   5.217   6.729 -0.0878 -0.5211 -1.1387
  830MOL0     C11945   3.403   5.361   6.784 -0.7193 -1.0233  0.2701
  830MOL0     O11946   3.539   5.393   6.774  0.1928 -0.0107  0.1228
  830MOL0     C11947   3.597   5.487   6.854  0.4927 -0.1204 -0.0549
  830MOL0     C11948   3.537   5.573   6.952  0.8666 -1.5224 -1.0388
  830MOL0     C11949   3.610   5.670   7.028  0.2034 -0.9572 -0.8615
  830MOL0     C11950   3.749   5.685   6.998  0.2158  0.0384  0.1222
  830MOL0     O11951   3.812   5.792   7.063 -0.4062 -0.3769  0.3715
  830MOL0     C11952   3.952   5.814   7.018 -0.1853  0.0864  0.0098
  830MOL0     C11953   4.049   5.713   7.086 -0.7271 -0.5495 -0.0396
  830MOL0     C11954   4.200   5.749   7.048  0.3439 -0.6303  0.3921
  830MOL0     C11955   4.303   5.663   7.109  0.6376  0.3343  0.7050
  830MOL0     C11956   4.443   5.722   7.087  0.4343 -0.0103 -0.0387
  830MOL0     C11957   4.540   5.641   7.173 -0.0622 -0.2100 -0.5257
  830MOL0     C11958   4.693   5.645   7.127 -0.0019  0.0292  0.3217
  830MOL0     C11959   4.773   5.563   7.229  0.1936  0.7790  0.2107
  830MOL0    Cl11960   4.940   5.538   7.166  0.4622  0.3015 -0.7950
  830MOL0     C11961   3.807   5.605   6.893  0.4582  0.4287 -0.0399
  830MOL0     C11962   3.733   5.507   6.832  0.1122  0.7659 -1.4481
  830MOL0     O11963   3.319   5.435   6.834  0.2433  0.0260  0.3895
  830MOL0     C11964   3.470   5.119   6.718 -0.2445  0.4688  0.2228
  830MOL0     C11965   3.432   4.986   6.715  0.2358  0.5176  1.4789
  830MOL0     N11966   2.825   4.633   6.742  0.6733 -0.2354 -0.3900
  830MOL0     N11967   2.721   4.706   6.728  0.7899  0.2396  1.3908
  830MOL0     C11968   1.914   5.090   7.808 -0.3415  0.1628  0.2244
  830MOL0     C11969   1.905   5.055   7.947 -0.9328 -0.1949 -0.5547
  830MOL0     C11970   1.944   4.997   8.380  0.2095  0.7323  0.0352
  830MOL0     C11971   1.903   5.077   8.490  1.1197  0.1718 -0.0938
  830MOL0     C11972   1.897   5.016   8.613 -0.0544  0.5145 -0.0655
  830MOL0     C11973   1.930   4.888   8.634  0.2149  0.3019  0.3788
  830MOL0     O11974   1.907   4.843   8.762  0.2144 -0.3307  0.1405
  830MOL0     C11975   1.914   4.703   8.802  0.4842 -0.0790  0.6815
  830MOL0     C11976   1.865   4.703   8.952 -0.8287 -0.2078  1.0970
  830MOL0     C11977   1.974   4.752   9.052  0.2303 -1.0413 -0.3210
  830MOL0     C11978   2.073   4.658   9.093  0.0328 -1.0216  0.5042
  830MOL0     C11979   2.003   4.572   9.194 -0.4806 -0.3038  0.2249
  830MOL0     C11980   1.959   4.510   9.279  0.2721  0.6863  0.2593
  830MOL0     C11981   1.979   4.815   8.529  0.5054 -0.2891  0.1228
  830MOL0     C11982   1.984   4.867   8.400  0.6451  0.1328  0.9126
  830MOL0     H11983   2.237   5.075   8.020 -1.3160 -0.2695  0.7936
  830MOL0     H11984   2.243   5.130   7.776 -0.2145 -4.1051 -2.0177
  830MOL0     H11985   2.123   4.941   7.594 -1.9860 -0.3989  0.6757
  830MOL0     H11986   1.980   4.979   7.487 -2.5159 -0.5033  3.4834
  830MOL0     H11987   2.106   5.130   7.342 -1.6032  0.3110  1.5329
  830MOL0     H11988   2.244   5.119   7.457 -0.2239  0.0717  0.5996
  830MOL0     H11989   2.288   4.897   7.367 -1.1238 -0.7086 -0.6804
  830MOL0     H11990   2.131   4.897   7.284  1.0449 -2.2750 -0.7281
  830MOL0     H11991   2.232   5.073   7.121  4.2089  1.8735 -1.8660
  830MOL0     H11992   2.378   5.090   7.222 -0.8346  0.0496  0.7601
  830MOL0     H11993   2.452   4.874   7.197  0.7945  0.3349 -0.0799
  830MOL0     H11994   2.306   4.825   7.118  2.0085 -2.4959 -0.3661
  830MOL0     H11995   2.359   4.976   6.922 -0.6095 -1.9597 -1.2610
  830MOL0     H11996   2.482   5.055   7.011  0.7242 -0.2759 -2.6983
  830MOL0     H11997   2.639   4.871   7.034  0.3031 -2.3866 -1.8650
  830MOL0     H11998   2.528   4.760   6.960  0.5670 -0.5390  2.0256
  830MOL0     H11999   2.660   5.012   6.830  1.9696 -0.7196  1.1666
  830MOL0     H12000   2.536   4.896   6.765  1.4471 -0.1070 -0.9832
  830MOL0     H12001   2.888   4.890   6.936 -0.2550  0.2189  0.7661
  830MOL0     H12002   3.100   4.742   6.874  0.9520 -0.4863  1.4709
  830MOL0     H12003   3.036   4.611   6.973  2.1261  1.8793  1.1823
  830MOL0     H12004   3.081   4.563   6.673  1.5908 -1.0656 -1.1290
  830MOL0     H12005   3.081   4.460   6.808 -0.2378 -0.8642 -0.3394
  830MOL0     H12006   3.302   4.512   6.695 -2.4441 -0.3108 -1.5792
  830MOL0     H12007   3.310   4.526   6.870 -0.7475  2.0501  0.6914
  830MOL0     H12008   3.425   4.689   6.740 -0.8362 -2.5435 -0.2055
  830MOL0     H12009   3.320   4.744   6.880 -0.2545 -2.4654  0.4501
  830MOL0     H12010   3.094   5.011   6.717 -0.9134  1.9820 -0.3915
  830MOL0     H12011   3.145   5.368   6.648  2.1537  1.8953  2.6652
  830MOL0     H12012   3.032   5.228   6.647 -0.7961 -0.6915  3.0317
  830MOL0     H12013   3.082   5.307   6.797  1.4160 -1.6156  0.8929
  830MOL0     H12014   3.430   5.569   6.969  0.7485  2.0595 -0.1552
  830MOL0     H12015   3.578   5.740   7.105  0.7472 -0.2526 -1.2682
  830MOL0     H12016   3.966   5.828   6.911  0.2009 -0.8661 -0.0755
  830MOL0     H12017   3.974   5.911   7.063 -0.7289 -0.1433  0.7847
  830MOL0     H12018   4.050   5.736   7.193 -3.6671  0.3765 -0.1420
  830MOL0     H12019   4.024   5.607   7.073 -1.4343 -0.1586 -2.2530
  830MOL0     H12020   4.230   5.854   7.049  1.2157 -0.8621 -0.2139
  830MOL0     H12021   4.195   5.736   6.940 -2.8294 -0.9545  0.4578
  830MOL0     H12022   4.284   5.627   7.211  0.0156 -0.3327  0.3693
  830MOL0     H12023   4.297   5.576   7.042  2.8283  0.7433 -0.0820
  830MOL0     H12024   4.434   5.818   7.138  3.3035  0.1720  0.2770
  830MOL0     H12025   4.488   5.723   6.987  2.9829  2.2501  0.9809
  830MOL0     H12026   4.535   5.674   7.278  1.9377  0.3250 -0.5510
  830MOL0     H12027   4.510   5.536   7.172  2.2688 -0.9532  0.8146
  830MOL0     H12028   4.722   5.750   7.119 -2.6606  0.8630  0.6407
  830MOL0     H12029   4.692   5.597   7.029  0.2194  3.6057 -1.5663
  830MOL0     H12030   4.730   5.466   7.256  2.5842 -0.4861 -0.2470
  830MOL0     H12031   4.782   5.620   7.322  1.2491  0.6737  0.1772
  830MOL0     H12032   3.911   5.609   6.865  1.1484 -1.5088  1.9220
  830MOL0     H12033   3.777   5.428   6.771 -0.6521 -0.2759 -0.6966
  830MOL0     H12034   3.574   5.148   6.728 -0.8710  2.5954  1.3263
  830MOL0     H12035   3.511   4.912   6.717  1.2106  1.4278 -0.3325
  830MOL0     H12036   1.828   5.091   7.741  0.3933 -0.3747 -0.7595
  830MOL0     H12037   1.807   5.044   7.992 -0.4595 -0.8739  0.3335
  830MOL0     H12038   1.853   5.173   8.489 -2.4174 -1.4508  2.0580
  830MOL0     H12039   1.862   5.080   8.693  2.2017 -0.2482  1.6594
  830MOL0     H12040   1.844   4.642   8.744  2.2441  0.2555 -1.9625
  830MOL0     H12041   2.009   4.650   8.787 -0.2930 -0.6267 -3.8297
  830MOL0     H12042   1.831   4.603   8.983 -1.6518  0.1451  1.3574
  830MOL0     H12043   1.768   4.752   8.943 -2.3344 -3.3284 -4.0077
  830MOL0     H12044   1.934   4.786   9.149  2.4880 -0.2515  0.3946
  830MOL0     H12045   2.028   4.836   9.006 -2.4921  0.8560 -0.3334
  830MOL0     H12046   2.145   4.713   9.155 -1.5980  2.2981 -0.3182
  830MOL0     H12047   2.122   4.596   9.017  1.2779 -0.7638  1.0686
  830MOL0     H12048   1.893   4.453   9.342  1.0403 -0.2837  0.2013
  830MOL0     H12049   2.009   4.711   8.543  2.5127 -0.0486 -1.8645
  830MOL0     H12050   1.987   4.796   8.317  0.7722  0.6947  0.4278
  831MOL0     O12051  10.286   4.185  10.859  0.5147  0.2064 -0.5285
  831MOL0     C12052  10.335   4.136  10.961 -0.3314  1.0441 -0.0044
  831MOL0     O12053  10.468   4.139  10.998  0.0768 -0.0642 -0.3596
  831MOL0     C12054  10.577   4.177  10.923 -0.1359  0.0453 -0.3784
  831MOL0     C12055  10.692   4.228  10.992 -0.3548  0.1377  1.2519
  831MOL0     C12056  10.804   4.279  10.937 -0.7632  0.0261  0.3768
  831MOL0     C12057  10.812   4.285  10.802  0.4576 -0.2473  0.2871
  831MOL0     O12058  10.909   4.323  10.718  0.0266  0.4642  0.1068
  831MOL0     C12059  11.037   4.345  10.781 -0.3241 -0.7943 -0.2539
  831MOL0     C12060  11.125   4.413  10.679 -0.6908 -0.9439  0.3558
  831MOL0     C12061  11.069   4.553  10.672 -0.5514  0.3713 -0.6086
  831MOL0     C12062  11.155   4.638  10.577  0.8367  0.1628 -0.1280
  831MOL0     C12063  11.071   4.757  10.552 -0.1437  0.3500  0.3651
  831MOL0     C12064  11.150   4.873  10.480 -0.6662 -0.7899 -0.5677
  831MOL0     C12065  11.190   4.840  10.334 -0.3487  0.3936  0.0572
  831MOL0     C12066  11.242   4.960  10.254 -0.7394  0.3939 -0.0419
  831MOL0     N12067  11.371   4.999  10.308  0.0360  0.6071  0.3180
  831MOL0     C12068  11.486   4.934  10.267 -0.0902  0.4515  0.4679
  831MOL0     C12069  11.583   4.997  10.338  0.2935 -0.3663  0.2907
  831MOL0     C12070  11.732   4.977  10.331  0.5305  0.1664 -0.6885
  831MOL0     C12071  11.781   4.981  10.188  0.2752 -0.5150  0.1771
  831MOL0     C12072  11.801   5.121  10.133 -0.7903  0.4019  0.1365
  831MOL0     C12073  11.868   5.123   9.994 -0.3604  0.0020 -0.1965
  831MOL0     O12074  11.834   5.239   9.921  0.1993 -0.2551 -0.5777
  831MOL0     C12075  11.940   5.300   9.867  0.3444 -0.5679  0.7029
  831MOL0     C12076  11.957   5.292   9.735  0.6434 -0.0076 -0.6075
  831MOL0     C12077  12.055   5.358   9.668  0.0923  0.0363  0.5681
  831MOL0     C12078  12.062   5.341   9.511  0.6815 -0.1867  0.3069
  831MOL0     C12079  12.152   5.438   9.728 -0.3875 -0.2033 -1.0492
  831MOL0     C12080  12.275   5.504   9.662 -0.2005  0.4336 -0.5579
  831MOL0     O12081  12.331   5.448   9.554 -0.4325  0.5435  0.0720
  831MOL0     C12082  12.426   5.524   9.490  1.1548  1.1928 -0.0049
  831MOL0     C12083  12.567   5.525   9.535  1.1603 -0.0986  0.3119
  831MOL0     C12084  12.649   5.616   9.483 -0.9051  0.8863  0.4221
  831MOL0     C12085  12.614   5.693   9.372 -0.8126 -0.3108  0.0118
  831MOL0     O12086  12.706   5.754   9.293 -0.4721  0.0247 -0.1789
  831MOL0     C12087  12.705   5.896   9.307  1.4282  0.3348 -0.6600
  831MOL0     C12088  12.776   5.975   9.204  0.3058  0.2916  0.0113
  831MOL0     C12089  12.733   5.949   9.055 -0.1200 -0.0309  0.0636
  831MOL0     C12090  12.853   5.964   8.952  0.4795 -0.2716 -0.1458
  831MOL0     C12091  12.825   5.878   8.824  0.2419 -0.4188 -0.0155
  831MOL0     C12092  12.761   5.961   8.713  0.2589 -0.5171  0.6658
  831MOL0     C12093  12.700   5.878   8.599 -0.6163  0.3027  0.4970
  831MOL0     C12094  12.802   5.824   8.503  0.3771  0.7310  0.3031
  831MOL0    Cl12095  12.878   5.671   8.574 -0.1062 -0.4002  0.5448
  831MOL0     C12096  12.485   5.685   9.328 -0.8251  0.2248 -1.4078
  831MOL0     C12097  12.392   5.615   9.392  1.0134  0.0367 -0.3268
  831MOL0     O12098  12.301   5.614   9.707  0.4186 -0.0268  0.3001
  831MOL0     C12099  12.130   5.456   9.874  0.2728  0.5272  0.2040
  831MOL0     C12100  12.031   5.385   9.939  0.4090  0.4185  0.4651
  831MOL0     N12101  11.529   5.106  10.414 -0.4458  0.2289  0.8824
  831MOL0     N12102  11.399   5.105  10.389  0.1888  0.2342  1.0024
  831MOL0     C12103  10.703   4.239  10.728  1.2476 -0.5869  0.2031
  831MOL0     C12104  10.585   4.185  10.784 -0.3477 -0.2555  0.2548
  831MOL0     C12105  10.254   4.065  11.068 -0.1336  0.0361  0.2538
  831MOL0     C12106  10.295   4.029  11.200  0.1500  0.4887  0.5530
  831MOL0     C12107  10.225   3.947  11.284  0.4970 -0.1804  0.8747
  831MOL0     C12108  10.101   3.902  11.244  0.0647  0.3703  0.1747
  831MOL0     O12109  10.029   3.825  11.326  0.0670  0.3375  0.3078
  831MOL0     C12110   9.907   3.891  11.372 -0.3849  0.6262 -0.9163
  831MOL0     C12111   9.874   3.839  11.516 -0.7725  0.3661  0.4134
  831MOL0     C12112   9.894   3.686  11.517  1.0786  0.0431  0.1915
  831MOL0     C12113   9.811   3.606  11.629 -0.2756 -0.1058  0.5395
  831MOL0     C12114   9.857   3.667  11.756 -0.5416 -0.2239  0.2343
  831MOL0     C12115   9.917   3.705  11.856  0.4632 -0.0542  0.5463
  831MOL0     C12116  10.053   3.940  11.116 -0.1519  0.4073 -0.6287
  831MOL0     C12117  10.137   4.005  11.026  0.5218 -0.1360 -0.9196
  831MOL0     H12118  10.684   4.243  11.099 -2.0880 -1.4100  1.3960
  831MOL0     H12119  10.883   4.319  11.001 -1.5781 -1.4469  2.4168
  831MOL0     H12120  11.031   4.396  10.877 -1.2174 -1.2244 -0.0682
  831MOL0     H12121  11.082   4.248  10.804 -0.3006 -0.8409 -0.4965
  831MOL0     H12122  11.229   4.402  10.710 -0.4095 -1.0627 -0.5928
  831MOL0     H12123  11.121   4.373  10.577  0.3622  3.5010 -1.6638
  831MOL0     H12124  10.970   4.546  10.626  0.2878 -0.6807 -2.4118
  831MOL0     H12125  11.072   4.599  10.771 -3.8175 -0.6101  0.0598
  831MOL0     H12126  11.250   4.660  10.626  0.5366 -0.4103  0.7353
  831MOL0     H12127  11.174   4.584  10.484  1.9884 -0.4092  0.4202
  831MOL0     H12128  10.984   4.728  10.491 -0.6743  0.0865  1.2304
  831MOL0     H12129  11.025   4.797  10.643  0.2167  0.6483  0.4165
  831MOL0     H12130  11.081   4.957  10.469  1.1548  0.4701 -3.3270
  831MOL0     H12131  11.238   4.904  10.538 -0.5609  1.1956 -1.6994
  831MOL0     H12132  11.263   4.760  10.350 -0.1771  0.3158 -1.0552
  831MOL0     H12133  11.107   4.792  10.281 -0.5476 -0.8224  1.4017
  831MOL0     H12134  11.174   5.045  10.260 -1.1341  0.2899 -2.0964
  831MOL0     H12135  11.257   4.929  10.150  1.2427  0.8337  0.0694
  831MOL0     H12136  11.489   4.841  10.211 -1.2645 -0.1544  1.3621
  831MOL0     H12137  11.779   5.060  10.383  0.7758 -0.0636 -0.5418
  831MOL0     H12138  11.759   4.881  10.377 -2.6429 -0.3768  0.2968
  831MOL0     H12139  11.720   4.923  10.117 -1.5319  0.7665  0.5962
  831MOL0     H12140  11.880   4.935  10.189  1.3119  1.5956  0.8767
  831MOL0     H12141  11.877   5.171  10.194  1.1532 -1.4941 -0.5831
  831MOL0     H12142  11.710   5.181  10.137 -0.9971  0.0308  1.1507
  831MOL0     H12143  11.827   5.038   9.939 -1.0955 -1.5372  2.5143
  831MOL0     H12144  11.977   5.115   9.989 -0.5360 -1.9693 -2.0375
  831MOL0     H12145  11.895   5.218   9.686  1.0082 -0.5681 -0.2387
  831MOL0     H12146  12.163   5.303   9.493  1.4928 -0.1830  3.9471
  831MOL0     H12147  11.981   5.276   9.476  0.8430 -0.1199 -0.1948
  831MOL0     H12148  12.059   5.434   9.454  2.6192 -1.2458 -1.7071
  831MOL0     H12149  12.601   5.452   9.608  2.5639 -1.8198 -1.9172
  831MOL0     H12150  12.748   5.608   9.526 -0.8705  1.0221  0.3653
  831MOL0     H12151  12.605   5.938   9.319  1.0662 -0.8898  0.8608
  831MOL0     H12152  12.749   5.912   9.405 -0.1335 -1.9287  0.5083
  831MOL0     H12153  12.764   6.079   9.235 -0.8363  0.1417  0.1369
  831MOL0     H12154  12.883   5.954   9.211  0.1643 -0.3165  0.5079
  831MOL0     H12155  12.660   6.024   9.023 -1.8727 -1.1226  1.2834
  831MOL0     H12156  12.693   5.848   9.044 -0.2296 -0.0269  0.4157
  831MOL0     H12157  12.870   6.067   8.918  2.2002 -0.0429  1.2814
  831MOL0     H12158  12.946   5.942   9.005  0.9388  0.5734 -0.5635
  831MOL0     H12159  12.764   5.794   8.857 -1.3025  1.1931  1.4513
  831MOL0     H12160  12.918   5.841   8.781  0.2420  1.1666 -1.5162
  831MOL0     H12161  12.686   6.033   8.745  1.0610  0.7621 -0.2500
  831MOL0     H12162  12.831   6.031   8.666 -2.3934  2.1471  0.3853
  831MOL0     H12163  12.632   5.941   8.541 -2.0372 -0.7175  0.9901
  831MOL0     H12164  12.642   5.789   8.628 -0.3860 -0.8111 -2.2051
  831MOL0     H12165  12.874   5.901   8.474  0.5402  1.2426  1.9750
  831MOL0     H12166  12.753   5.803   8.407  1.8861  2.0816 -0.8251
  831MOL0     H12167  12.461   5.731   9.233  0.2772 -1.9716 -2.8385
  831MOL0     H12168  12.292   5.617   9.349  1.6437 -0.9580 -1.9716
  831MOL0     H12169  12.208   5.501   9.935 -0.2200 -0.8310  1.9408
  831MOL0     H12170  12.015   5.365  10.044 -2.0675 -2.5854 -0.3073
  831MOL0     H12171  10.712   4.252  10.621  0.4992 -2.4731 -0.1180
  831MOL0     H12172  10.501   4.151  10.723 -0.8811  0.1563  0.7502
  831MOL0     H12173  10.387   4.069  11.240  0.0054  0.9597  0.4226
  831MOL0     H12174  10.255   3.923  11.386  0.1503 -3.7218  0.2747
  831MOL0     H12175   9.912   3.999  11.389 -4.4204  0.5089  3.1128
  831MOL0     H12176   9.820   3.876  11.308 -0.8558  2.7241 -0.8434
  831MOL0     H12177   9.770   3.859  11.544 -0.4418  0.4349  1.6444
  831MOL0     H12178   9.940   3.877  11.594 -0.0080 -0.2843  0.0951
  831MOL0     H12179  10.001   3.673  11.537  0.6624 -1.4568  1.6258
  831MOL0     H12180   9.868   3.649  11.418  2.7203 -0.2497 -0.1640
  831MOL0     H12181   9.841   3.501  11.620  3.1872  0.7571  0.8506
  831MOL0     H12182   9.702   3.617  11.623 -0.1000  1.4497 -0.2668
  831MOL0     H12183   9.953   3.741  11.950  1.8341 -0.8982  0.3739
  831MOL0     H12184   9.953   3.910  11.089 -1.3473  1.3522  2.3395
  831MOL0     H12185  10.097   4.018  10.926 -1.3717  2.7536  0.0798
  832MOL0     O12186   6.286   4.267   3.717  0.5946  0.5280  0.4429
  832MOL0     C12187   6.198   4.298   3.636 -0.1044  0.6119  0.0619
  832MOL0     O12188   6.134   4.215   3.554 -0.1898  0.4118  0.0876
  832MOL0     C12189   6.186   4.084   3.553 -0.2580  0.4497  0.5243
  832MOL0     C12190   6.165   4.000   3.664 -0.4824  1.1987 -0.0818
  832MOL0     C12191   6.213   3.869   3.682  0.6984  0.4346 -0.3888
  832MOL0     C12192   6.279   3.809   3.573 -0.1146  0.3409  0.4578
  832MOL0     O12193   6.306   3.679   3.566  0.0677 -0.0079 -0.7032
  832MOL0     C12194   6.202   3.601   3.512  0.5410  0.3741 -0.8211
  832MOL0     C12195   6.220   3.453   3.528  0.2763 -0.8987 -0.2773
  832MOL0     C12196   6.094   3.373   3.509  0.8212 -0.1540  0.6430
  832MOL0     C12197   6.114   3.223   3.520 -0.5184  0.0272 -0.1306
  832MOL0     C12198   6.063   3.172   3.661  0.1708  0.3575  0.5679
  832MOL0     C12199   6.080   3.021   3.668 -0.3722  0.2125 -0.6799
  832MOL0     C12200   6.007   2.942   3.776 -0.4707  0.5682 -0.0050
  832MOL0     C12201   6.021   2.786   3.773  0.2858  0.2260  0.1126
  832MOL0     N12202   6.160   2.731   3.777  0.7550 -0.0089 -0.4137
  832MOL0     C12203   6.239   2.734   3.666 -0.8230 -1.1091  0.8952
  832MOL0     C12204   6.364   2.721   3.721 -0.7883  1.0825 -0.3349
  832MOL0     C12205   6.489   2.724   3.635  0.6101  0.3519  0.0043
  832MOL0     C12206   6.584   2.842   3.676 -0.2146 -0.0521  0.2445
  832MOL0     C12207   6.540   2.983   3.648  0.5551 -0.6780 -0.0489
  832MOL0     C12208   6.656   3.072   3.703 -0.0921  0.5990 -0.0282
  832MOL0     O12209   6.618   3.201   3.642 -0.0290  0.3549 -0.7668
  832MOL0     C12210   6.713   3.301   3.634  0.7986  0.8049 -0.2712
  832MOL0     C12211   6.670   3.436   3.629 -0.5101 -0.2330 -0.0774
  832MOL0     C12212   6.755   3.549   3.614  0.5497  0.3677 -1.0136
  832MOL0     C12213   6.694   3.685   3.597 -0.2028 -0.9899 -0.1384
  832MOL0     C12214   6.893   3.526   3.636  0.4368  0.5880  0.3199
  832MOL0     C12215   6.998   3.630   3.638 -0.1585  1.0182  0.3112
  832MOL0     O12216   7.127   3.584   3.663 -0.2624  0.0621  0.0869
  832MOL0     C12217   7.237   3.663   3.632  0.3916 -0.2766  0.0829
  832MOL0     C12218   7.351   3.618   3.700  0.5113 -0.0420  0.2118
  832MOL0     C12219   7.480   3.668   3.666  0.3052  0.1937 -0.5236
  832MOL0     C12220   7.492   3.772   3.568  0.1627 -0.3008  0.2615
  832MOL0     O12221   7.616   3.799   3.525  0.3882 -0.1861  0.2529
  832MOL0     C12222   7.654   3.935   3.472 -1.3039 -0.2555 -0.3387
  832MOL0     C12223   7.810   3.946   3.462 -1.0305 -0.2460  0.1178
  832MOL0     C12224   7.880   3.936   3.602 -0.2840 -0.2599  0.0966
  832MOL0     C12225   8.031   3.909   3.595 -0.7193  1.2308 -0.2019
  832MOL0     C12226   8.109   3.943   3.731 -0.0020 -0.3880  0.2312
  832MOL0     C12227   8.096   4.097   3.758  0.8386 -0.3716  0.2956
  832MOL0     C12228   8.174   4.148   3.872 -0.2242 -0.5086  0.9692
  832MOL0     C12229   8.319   4.154   3.857  0.0844 -0.7040 -0.1430
  832MOL0    Cl12230   8.385   3.992   3.856  0.4163 -0.2995 -0.0537
  832MOL0     C12231   7.375   3.819   3.516 -0.1579  0.0176  0.4705
  832MOL0     C12232   7.250   3.774   3.549 -0.0279  0.9893  1.0624
  832MOL0     O12233   6.970   3.745   3.621  0.0411 -0.8999  0.9995
  832MOL0     C12234   6.939   3.399   3.669  0.2308  0.5354 -0.4492
  832MOL0     C12235   6.853   3.285   3.653 -0.1484 -0.8860 -0.1275
  832MOL0     N12236   6.356   2.680   3.853 -0.3393 -0.5106  0.7787
  832MOL0     N12237   6.231   2.676   3.878 -0.1961 -0.5566 -1.1609
  832MOL0     C12238   6.315   3.892   3.466  0.2508  0.2848 -0.4692
  832MOL0     C12239   6.265   4.023   3.457  0.2245  0.1192  0.4087
  832MOL0     C12240   6.148   4.441   3.640 -0.3765 -1.2918  0.4847
  832MOL0     C12241   6.170   4.512   3.755  0.5226  0.1043 -0.4274
  832MOL0     C12242   6.142   4.648   3.762  0.1552  0.1660  0.3498
  832MOL0     C12243   6.094   4.714   3.649  0.6377  0.3473 -0.2809
  832MOL0     O12244   6.031   4.841   3.646 -0.1038 -0.2004 -0.2908
  832MOL0     C12245   6.027   4.928   3.763 -0.5899  0.0510  0.7005
  832MOL0     C12246   6.089   5.063   3.732  0.2420 -0.4305 -1.3929
  832MOL0     C12247   6.045   5.162   3.839  0.6163 -0.6197 -0.4879
  832MOL0     C12248   6.106   5.298   3.804 -0.0292 -0.2621 -0.1232
  832MOL0     C12249   6.019   5.376   3.721  0.1612 -0.5919 -1.0357
  832MOL0     C12250   5.963   5.459   3.654  0.3877  0.2903 -0.0135
  832MOL0     C12251   6.060   4.631   3.537  0.7083 -0.7353  0.7830
  832MOL0     C12252   6.085   4.503   3.529  0.1962  0.1677  0.6842
  832MOL0     H12253   6.113   4.050   3.746  1.5418  1.4201  1.1403
  832MOL0     H12254   6.186   3.800   3.761 -1.3544  1.0726 -0.4608
  832MOL0     H12255   6.101   3.631   3.542  0.4138  0.4501 -1.3174
  832MOL0     H12256   6.194   3.612   3.404 -0.3427 -2.1124 -1.0622
  832MOL0     H12257   6.303   3.419   3.466  0.6539  0.4856 -0.5644
  832MOL0     H12258   6.249   3.435   3.632  0.6604  0.6260 -0.0912
  832MOL0     H12259   6.015   3.394   3.582  2.1480 -0.4765  2.2426
  832MOL0     H12260   6.050   3.397   3.412 -0.3169 -3.2399  0.2909
  832MOL0     H12261   6.039   3.183   3.451 -1.7209  1.6043  0.1923
  832MOL0     H12262   6.217   3.189   3.511 -0.5520 -2.9214  5.7098
  832MOL0     H12263   6.109   3.219   3.748  0.7382  2.2472 -0.6965
  832MOL0     H12264   5.957   3.198   3.666  1.1850  5.1438  3.1628
  832MOL0     H12265   6.062   2.971   3.573 -0.1322  2.8419 -2.1968
  832MOL0     H12266   6.185   3.014   3.695 -1.0065 -1.0537  1.7663
  832MOL0     H12267   6.049   2.972   3.873  2.4899 -1.8530 -0.4060
  832MOL0     H12268   5.901   2.970   3.768 -0.0767  2.2636  0.2676
  832MOL0     H12269   5.972   2.750   3.682  1.0176 -1.3835  0.3245
  832MOL0     H12270   5.975   2.735   3.858 -2.0595 -0.0741 -1.2753
  832MOL0     H12271   6.224   2.755   3.560 -1.6104 -3.5765  0.4324
  832MOL0     H12272   6.532   2.625   3.647 -2.2526 -1.2728 -2.0278
  832MOL0     H12273   6.461   2.736   3.530 -2.1604  0.4881  0.6759
  832MOL0     H12274   6.683   2.823   3.635 -0.0826  0.8239  0.1364
  832MOL0     H12275   6.599   2.830   3.784  1.3713  0.5021  0.1025
  832MOL0     H12276   6.446   3.002   3.700  0.5840  0.9375 -0.5572
  832MOL0     H12277   6.529   2.996   3.540  1.0884 -0.9269 -0.1377
  832MOL0     H12278   6.760   3.047   3.677 -0.1441  1.4437 -1.1350
  832MOL0     H12279   6.647   3.077   3.812 -1.7577 -2.2820  0.0502
  832MOL0     H12280   6.563   3.449   3.638 -0.3144  0.2854  1.9250
  832MOL0     H12281   6.587   3.677   3.578  0.3078 -1.9291 -3.0520
  832MOL0     H12282   6.718   3.757   3.676 -0.3966  1.1413 -1.9167
  832MOL0     H12283   6.743   3.729   3.509  1.1485 -1.7833  0.1858
  832MOL0     H12284   7.335   3.547   3.781 -1.9473  2.0999  1.7326
  832MOL0     H12285   7.568   3.626   3.714 -0.8957 -1.5534  0.2296
  832MOL0     H12286   7.617   3.938   3.369  1.4046 -0.2538 -1.4105
  832MOL0     H12287   7.630   4.016   3.540 -1.5846 -0.9329  0.3805
  832MOL0     H12288   7.833   3.852   3.410 -1.5854 -0.6408  0.5705
  832MOL0     H12289   7.844   4.034   3.407 -0.0101 -2.2846 -2.7026
  832MOL0     H12290   7.842   3.848   3.656 -0.3153 -1.1907 -1.4021
  832MOL0     H12291   7.850   4.028   3.654 -1.9192 -0.8831  0.2949
  832MOL0     H12292   8.059   3.811   3.555 -1.2326  1.3227 -0.7944
  832MOL0     H12293   8.073   3.977   3.521 -0.9416  0.8997 -0.6382
  832MOL0     H12294   8.213   3.915   3.715  0.5479 -0.0037  2.7250
  832MOL0     H12295   8.064   3.877   3.806 -0.9064 -0.4286 -0.3236
  832MOL0     H12296   8.114   4.155   3.667  0.1308 -0.0106  0.3793
  832MOL0     H12297   7.992   4.120   3.781  2.0258  4.0414  2.3462
  832MOL0     H12298   8.153   4.086   3.959 -1.1884 -0.7675  0.5726
  832MOL0     H12299   8.149   4.253   3.889  1.3937 -0.0919  0.9517
  832MOL0     H12300   8.362   4.201   3.946 -0.4450 -0.1236 -0.1825
  832MOL0     H12301   8.339   4.217   3.770  1.5950 -1.4633 -0.3646
  832MOL0     H12302   7.370   3.896   3.440 -0.3971 -0.8854 -0.4589
  832MOL0     H12303   7.167   3.814   3.493  0.1658  2.5722  1.8369
  832MOL0     H12304   7.043   3.375   3.686  0.6239  2.0588 -0.5550
  832MOL0     H12305   6.909   3.193   3.662 -1.5729 -1.7944 -0.2979
  832MOL0     H12306   6.396   3.863   3.400  2.2905 -0.1058  2.0258
  832MOL0     H12307   6.291   4.080   3.369 -1.8379 -0.0863 -0.4019
  832MOL0     H12308   6.207   4.448   3.835 -1.6645 -2.0396 -1.0214
  832MOL0     H12309   6.158   4.698   3.857 -1.5542 -0.5346  1.0494
  832MOL0     H12310   5.922   4.930   3.793 -0.9965 -1.2259 -0.5422
  832MOL0     H12311   6.089   4.884   3.843  2.6994  2.2831 -0.4118
  832MOL0     H12312   6.044   5.102   3.640  2.2622  1.2397 -1.7565
  832MOL0     H12313   6.197   5.059   3.716  0.7384 -0.4440  1.4670
  832MOL0     H12314   6.087   5.130   3.935  4.8776  2.1628 -1.1287
  832MOL0     H12315   5.936   5.166   3.848  0.6048 -1.4944 -0.1275
  832MOL0     H12316   6.203   5.282   3.757  0.2466 -0.7058  0.5827
  832MOL0     H12317   6.129   5.358   3.892 -0.8257  1.0951 -0.8133
  832MOL0     H12318   5.899   5.521   3.595  0.1982 -1.6678 -2.0294
  832MOL0     H12319   6.005   4.672   3.453 -0.7586 -1.5806  1.2839
  832MOL0     H12320   6.074   4.447   3.436  3.6904  0.7385 -0.2465
  833MOL0     O12321   8.362   4.936   6.985  0.6676 -0.1834  0.2900
  833MOL0     C12322   8.255   4.886   7.026 -0.0871  0.2718 -0.6260
  833MOL0     O12323   8.237   4.797   7.126 -0.2877 -0.2465  0.0271
  833MOL0     C12324   8.349   4.735   7.164 -0.4274 -0.9143 -1.1209
  833MOL0     C12325   8.429   4.782   7.273  0.1497  0.3522 -0.7081
  833MOL0     C12326   8.553   4.728   7.302  0.0326 -0.9297 -0.5611
  833MOL0     C12327   8.608   4.627   7.223 -0.9657 -0.2645 -0.1400
  833MOL0     O12328   8.735   4.598   7.256  0.7221  0.1839  0.7266
  833MOL0     C12329   8.780   4.471   7.214 -0.4930  0.8807 -0.0008
  833MOL0     C12330   8.924   4.448   7.265 -0.0486 -0.2856  0.1348
  833MOL0     C12331   9.010   4.359   7.169  0.1049  0.5746  0.1046
  833MOL0     C12332   9.017   4.217   7.229 -1.2874  0.3743  0.0184
  833MOL0     C12333   9.130   4.129   7.160  0.3246  0.2607  0.2441
  833MOL0     C12334   9.110   4.120   7.008 -0.9125 -0.6239  0.1141
  833MOL0     C12335   9.238   4.059   6.934  1.0029  0.8361 -0.0968
  833MOL0     C12336   9.280   3.921   6.989 -0.2244  0.7566 -0.6838
  833MOL0     N12337   9.190   3.813   6.936  0.3412 -0.8059  0.0094
  833MOL0     C12338   9.102   3.809   6.831  0.3440 -0.7470 -0.4509
  833MOL0     C12339   9.046   3.680   6.833  0.9142 -0.5893  0.0375
  833MOL0     C12340   8.948   3.627   6.737  0.0741 -1.3794 -0.4480
  833MOL0     C12341   9.017   3.612   6.604  0.0634  0.2953  0.2487
  833MOL0     C12342   8.926   3.543   6.513 -0.1349  0.6823 -0.2770
  833MOL0     C12343   8.995   3.488   6.384  0.6085 -0.1490 -0.4539
  833MOL0     O12344   8.934   3.377   6.312 -0.1834  0.6166  0.5643
  833MOL0     C12345   8.849   3.402   6.212  0.0245 -0.3913 -0.6318
  833MOL0     C12346   8.834   3.511   6.133 -0.0588 -1.0954 -0.0632
  833MOL0     C12347   8.748   3.525   6.031 -0.2492 -0.5562 -0.3595
  833MOL0     C12348   8.737   3.650   5.947  0.2896  0.3150  0.0376
  833MOL0     C12349   8.658   3.414   6.013 -0.3959  0.3682  0.0323
  833MOL0     C12350   8.532   3.402   5.933 -0.7657  0.2035 -0.5569
  833MOL0     O12351   8.480   3.276   5.891 -0.5560  0.2832  0.0699
  833MOL0     C12352   8.398   3.281   5.782  0.6155 -0.0361 -0.2119
  833MOL0     C12353   8.263   3.332   5.792 -0.6257  0.0831 -0.0093
  833MOL0     C12354   8.174   3.319   5.680 -0.2327  0.3871  0.6258
  833MOL0     C12355   8.200   3.257   5.563 -0.0873  0.6550 -0.1919
  833MOL0     O12356   8.111   3.244   5.456  0.1448  0.6178  0.8369
  833MOL0     C12357   7.970   3.269   5.475 -1.3224 -0.5135  0.1420
  833MOL0     C12358   7.891   3.233   5.350  0.7722  0.1985 -0.0757
  833MOL0     C12359   7.947   3.291   5.226 -0.4801  0.6366  0.3963
  833MOL0     C12360   7.828   3.291   5.130  0.4291  0.1089 -0.2445
  833MOL0     C12361   7.861   3.372   4.999 -0.1418  0.7003 -0.0214
  833MOL0     C12362   7.873   3.527   5.013 -0.0907  0.3277 -0.0120
  833MOL0     C12363   7.739   3.592   5.053  0.5224 -0.0694  0.1555
  833MOL0     C12364   7.704   3.719   4.984 -0.2180  0.3124  0.3294
  833MOL0    Cl12365   7.555   3.773   5.063 -0.5232  0.0277 -0.0419
  833MOL0     C12366   8.327   3.201   5.556 -0.7440 -0.0306  0.7359
  833MOL0     C12367   8.435   3.219   5.656 -0.1822  0.1186  0.7264
  833MOL0     O12368   8.492   3.511   5.893  0.0629 -0.0079 -0.0251
  833MOL0     C12369   8.686   3.290   6.087  0.3709  0.7146  0.1379
  833MOL0     C12370   8.781   3.285   6.182 -0.0206  0.0928 -0.2886
  833MOL0     N12371   9.110   3.602   6.928 -0.4333 -0.3270 -0.3523
  833MOL0     N12372   9.189   3.683   6.992  0.2827  0.2766 -0.3470
  833MOL0     C12373   8.526   4.580   7.114 -0.1852 -0.2556 -1.1003
  833MOL0     C12374   8.395   4.626   7.094 -0.1532 -0.6133 -0.1494
  833MOL0     C12375   8.132   4.935   6.967 -0.5675 -0.4527 -0.1109
  833MOL0     C12376   8.141   5.035   6.871  0.1128  0.4525 -0.2782
  833MOL0     C12377   8.039   5.047   6.780 -0.2967 -0.1385  0.1553
  833MOL0     C12378   7.912   4.993   6.803 -0.9814 -0.5917  0.2876
  833MOL0     O12379   7.807   5.025   6.713 -0.5133  0.2306  0.0003
  833MOL0     C12380   7.668   4.975   6.733  0.0324 -0.7826  0.1943
  833MOL0     C12381   7.578   5.043   6.843 -0.6200  0.6952 -0.4137
  833MOL0     C12382   7.454   4.959   6.877 -0.1042  0.3219 -0.6028
  833MOL0     C12383   7.358   5.015   6.991  0.5404 -0.7766  0.1885
  833MOL0     C12384   7.292   5.141   6.959 -0.3049  0.2786 -0.8832
  833MOL0     C12385   7.247   5.250   6.923  0.1877 -0.3956 -1.1390
  833MOL0     C12386   7.897   4.902   6.908 -0.1663  0.5253 -0.4681
  833MOL0     C12387   8.011   4.867   6.984  0.4874 -0.0996  0.0044
  833MOL0     H12388   8.402   4.867   7.335 -0.0524 -0.4105  0.2800
  833MOL0     H12389   8.602   4.777   7.386  5.5438  0.7432 -4.2432
  833MOL0     H12390   8.728   4.384   7.255  2.0432 -0.8298 -0.1455
  833MOL0     H12391   8.789   4.478   7.105  1.4578 -0.2585  0.0342
  833MOL0     H12392   8.972   4.546   7.272 -2.0893  0.7112  0.9503
  833MOL0     H12393   8.928   4.415   7.370  2.6348  0.8440  0.4597
  833MOL0     H12394   8.965   4.348   7.070 -2.3777  2.3445  0.9273
  833MOL0     H12395   9.103   4.405   7.134 -1.0142  2.0748 -1.0454
  833MOL0     H12396   9.038   4.219   7.337 -1.1247 -0.6026  0.0085
  833MOL0     H12397   8.922   4.168   7.206 -0.0385 -1.3357 -1.7895
  833MOL0     H12398   9.226   4.176   7.184  1.5378 -0.6672 -2.3356
  833MOL0     H12399   9.141   4.030   7.205  0.2031 -0.2439 -0.7922
  833MOL0     H12400   9.041   4.039   6.984  2.3041 -4.2786  1.9965
  833MOL0     H12401   9.081   4.212   6.957 -0.6313 -1.4008 -1.5242
  833MOL0     H12402   9.216   4.056   6.827 -0.6098 -0.2285  0.2174
  833MOL0     H12403   9.322   4.127   6.944  0.3741  1.4307  1.6753
  833MOL0     H12404   9.287   3.917   7.098  1.1687 -0.7058 -0.7906
  833MOL0     H12405   9.382   3.900   6.955  0.4102  0.9402  1.0156
  833MOL0     H12406   9.082   3.899   6.773  0.1149 -1.1893 -1.0675
  833MOL0     H12407   8.914   3.529   6.771 -1.9410 -1.4920 -2.5441
  833MOL0     H12408   8.862   3.693   6.726  1.0896 -0.3249 -2.6707
  833MOL0     H12409   9.117   3.569   6.602  0.8665  1.9894  1.3124
  833MOL0     H12410   9.031   3.713   6.564 -0.6050  1.1313  2.0223
  833MOL0     H12411   8.841   3.604   6.481  0.0805  0.7680 -0.6978
  833MOL0     H12412   8.892   3.453   6.565  0.6039 -1.2484 -2.9088
  833MOL0     H12413   9.100   3.462   6.399  0.8928  0.4053 -1.4248
  833MOL0     H12414   9.003   3.564   6.305 -1.6055 -0.7541 -1.3479
  833MOL0     H12415   8.902   3.595   6.148 -0.5680 -0.8074  0.7144
  833MOL0     H12416   8.732   3.610   5.845  1.0597 -2.1904  0.9037
  833MOL0     H12417   8.649   3.706   5.980  1.2268  1.1531  1.2134
  833MOL0     H12418   8.820   3.720   5.963 -0.0752  0.6290  0.5934
  833MOL0     H12419   8.241   3.397   5.876  0.2111  2.6792 -1.6485
  833MOL0     H12420   8.077   3.367   5.683  0.4959  1.8660  2.2914
  833MOL0     H12421   7.932   3.218   5.564 -0.9043  0.6202  0.9936
  833MOL0     H12422   7.968   3.375   5.499  0.4558 -0.6709  1.1584
  833MOL0     H12423   7.902   3.126   5.330  0.4565  0.3123 -0.8617
  833MOL0     H12424   7.788   3.268   5.364 -0.7086 -2.3972 -3.1639
  833MOL0     H12425   8.032   3.233   5.190 -1.2520 -0.0549 -0.3431
  833MOL0     H12426   7.977   3.395   5.240 -1.1724  1.4050 -2.9303
  833MOL0     H12427   7.804   3.187   5.106  0.0242 -0.0197  0.6940
  833MOL0     H12428   7.742   3.347   5.166  0.2596 -0.2864 -0.0340
  833MOL0     H12429   7.776   3.359   4.931 -2.9192  1.4141  3.0494
  833MOL0     H12430   7.962   3.355   4.962  0.3954 -0.5602  1.9157
  833MOL0     H12431   7.944   3.557   5.090  0.9327  0.2859 -0.9090
  833MOL0     H12432   7.902   3.575   4.919  3.4394 -0.1219  0.7079
  833MOL0     H12433   7.747   3.615   5.159  4.2918  1.6851 -0.3518
  833MOL0     H12434   7.652   3.526   5.044  0.9743 -1.0591  2.2944
  833MOL0     H12435   7.693   3.694   4.878  0.9912  1.0689 -0.0045
  833MOL0     H12436   7.787   3.789   4.999  1.5206 -1.6748  0.5804
  833MOL0     H12437   8.354   3.146   5.466  4.5077 -0.2205  2.0787
  833MOL0     H12438   8.531   3.170   5.647  0.1951  0.1546  3.5534
  833MOL0     H12439   8.635   3.194   6.080 -0.6215  1.3187 -1.4833
  833MOL0     H12440   8.807   3.196   6.238 -1.2132 -0.9023 -1.2350
  833MOL0     H12441   8.573   4.514   7.041  3.3559  1.1568 -0.2588
  833MOL0     H12442   8.328   4.593   7.016  1.1117  1.8316 -2.4342
  833MOL0     H12443   8.234   5.085   6.842  0.7140  0.9447  2.2790
  833MOL0     H12444   8.050   5.108   6.691 -0.7708 -2.1759 -1.3781
  833MOL0     H12445   7.612   4.989   6.640  0.3302  0.0876  0.1397
  833MOL0     H12446   7.668   4.867   6.752 -1.6502 -0.4416  2.5854
  833MOL0     H12447   7.546   5.140   6.805 -2.0880  1.1282  1.7719
  833MOL0     H12448   7.639   5.075   6.928 -0.3017 -1.4897  0.2329
  833MOL0     H12449   7.500   4.866   6.912  2.4761  1.9459  0.6203
  833MOL0     H12450   7.406   4.944   6.780  2.3037  3.4268 -2.4675
  833MOL0     H12451   7.423   5.015   7.078  2.5651  1.2999 -1.2022
  833MOL0     H12452   7.269   4.951   6.994  0.9118 -1.5289 -2.2570
  833MOL0     H12453   7.205   5.348   6.912 -4.3301 -2.0809 -0.6289
  833MOL0     H12454   7.802   4.853   6.927 -0.6704  0.8290 -1.9876
  833MOL0     H12455   8.003   4.803   7.071 -3.0513  0.6792  0.4006
  834MOL0     O12456  11.100   7.517   4.896  0.1294 -0.1327 -0.3211
  834MOL0     C12457  11.189   7.450   4.851  0.9682  0.5879 -0.2262
  834MOL0     O12458  11.262   7.348   4.920 -0.1077 -0.6936 -0.7165
  834MOL0     C12459  11.236   7.304   5.046  0.2222  0.6227 -0.8893
  834MOL0     C12460  11.176   7.372   5.153 -0.0100 -0.6091 -0.0706
  834MOL0     C12461  11.148   7.309   5.280 -0.3886 -0.4671  0.5485
  834MOL0     C12462  11.198   7.179   5.297 -0.4896 -0.7774 -0.0170
  834MOL0     O12463  11.174   7.102   5.414  0.6288  0.1994  0.0798
  834MOL0     C12464  11.102   7.160   5.526  0.0471  0.7848 -0.5947
  834MOL0     C12465  11.107   7.082   5.646 -0.0455  0.4059 -0.8229
  834MOL0     C12466  11.042   7.147   5.767  0.1291  0.0537  0.9481
  834MOL0     C12467  11.089   7.082   5.888 -0.0355  0.2795 -1.4957
  834MOL0     C12468  11.034   7.124   6.018  0.4608  0.3720 -0.3307
  834MOL0     C12469  11.076   7.267   6.054 -0.0176  0.5716  0.2791
  834MOL0     C12470  11.012   7.319   6.187  0.1472  0.0215  0.1539
  834MOL0     C12471  11.057   7.460   6.214 -0.5181 -0.8595  1.4639
  834MOL0     N12472  11.167   7.471   6.302  0.3781 -0.0071  0.3070
  834MOL0     C12473  11.163   7.457   6.440  0.6733  1.7896  0.0038
  834MOL0     C12474  11.298   7.468   6.481 -0.2507 -0.0116 -0.3116
  834MOL0     C12475  11.349   7.450   6.617 -1.2460 -0.2538 -0.4221
  834MOL0     C12476  11.417   7.314   6.640 -0.2082 -0.8916 -0.5397
  834MOL0     C12477  11.492   7.312   6.777  0.2294  0.3404  0.0198
  834MOL0     C12478  11.544   7.169   6.813  0.3243  0.5031  0.3077
  834MOL0     O12479  11.511   7.131   6.953 -0.3382 -0.4465 -0.3690
  834MOL0     C12480  11.575   7.202   7.046 -0.2926 -0.1295  0.1308
  834MOL0     C12481  11.698   7.277   7.022 -0.4791  0.3871 -0.3732
  834MOL0     C12482  11.764   7.356   7.124  0.7332 -0.3576  0.7020
  834MOL0     C12483  11.887   7.436   7.089 -0.5296  0.5338 -0.0724
  834MOL0     C12484  11.713   7.350   7.256  0.8890 -0.3280  0.3110
  834MOL0     C12485  11.781   7.418   7.375  0.0511 -0.4429  0.3620
  834MOL0     O12486  11.729   7.375   7.499 -0.6773 -0.5809 -0.8943
  834MOL0     C12487  11.752   7.450   7.610  1.2439 -0.6351 -0.1103
  834MOL0     C12488  11.754   7.592   7.608  0.3599 -0.3470  1.1436
  834MOL0     C12489  11.797   7.667   7.722 -0.2517 -0.2506 -0.1762
  834MOL0     C12490  11.830   7.599   7.839 -0.2668  0.4575 -0.4511
  834MOL0     O12491  11.878   7.678   7.943 -0.0986  0.4896 -0.6213
  834MOL0     C12492  12.002   7.639   8.001 -0.2176  0.3784  0.3153
  834MOL0     C12493  12.086   7.761   7.984  0.0639  0.5259  0.2830
  834MOL0     C12494  12.179   7.754   7.864 -0.2681 -0.1897  1.0822
  834MOL0     C12495  12.281   7.645   7.871  0.3683  0.9875 -0.7978
  834MOL0     C12496  12.338   7.632   7.728  0.5376  0.3250 -0.0513
  834MOL0     C12497  12.253   7.544   7.629  0.0501  0.1341 -0.3117
  834MOL0     C12498  12.340   7.516   7.508  0.3071 -0.5290  0.4986
  834MOL0     C12499  12.268   7.409   7.418 -0.3421 -0.2604  0.5435
  834MOL0    Cl12500  12.328   7.245   7.466 -0.3317  0.0081  0.2100
  834MOL0     C12501  11.816   7.455   7.849  0.9787 -0.6166  0.0531
  834MOL0     C12502  11.776   7.389   7.734 -0.2334 -0.4398 -0.1830
  834MOL0     O12503  11.867   7.498   7.354  0.1249  0.6023  0.0839
  834MOL0     C12504  11.593   7.278   7.281 -1.1123 -0.5933  0.7621
  834MOL0     C12505  11.533   7.203   7.185 -0.5811 -0.3751  0.3535
  834MOL0     N12506  11.374   7.482   6.360 -0.2579 -0.9185  0.5417
  834MOL0     N12507  11.298   7.491   6.258 -0.1809 -0.1227 -0.2330
  834MOL0     C12508  11.257   7.110   5.195 -0.7597 -0.5066 -0.4995
  834MOL0     C12509  11.277   7.173   5.070 -0.0586  0.3164 -0.2905
  834MOL0     C12510  11.196   7.438   4.698 -0.2952 -0.2018 -1.3271
  834MOL0     C12511  11.096   7.503   4.620 -0.2389  0.0785 -0.2038
  834MOL0     C12512  11.114   7.504   4.480  0.9500 -0.7580 -0.1307
  834MOL0     C12513  11.227   7.435   4.417  0.1521  0.5289  0.4772
  834MOL0     O12514  11.243   7.415   4.283 -0.6814  0.2282  0.2519
  834MOL0     C12515  11.135   7.348   4.208 -0.9128 -1.1566 -0.0481
  834MOL0     C12516  11.126   7.203   4.256  0.5723 -0.0379 -0.2782
  834MOL0     C12517  11.001   7.175   4.339 -1.4445 -0.0238  0.8934
  834MOL0     C12518  10.888   7.122   4.252  0.3286 -0.5459 -0.3717
  834MOL0     C12519  10.773   7.112   4.344  0.1018 -0.2687  0.3835
  834MOL0     C12520  10.675   7.099   4.416  0.2302  0.4819 -1.1318
  834MOL0     C12521  11.326   7.386   4.499  0.4716  0.2358 -0.5335
  834MOL0     C12522  11.310   7.379   4.638  0.0678  0.6848  0.2645
  834MOL0     H12523  11.140   7.473   5.134  1.4355 -0.3829 -1.7451
  834MOL0     H12524  11.108   7.377   5.355  0.9369  0.2259  0.6744
  834MOL0     H12525  11.149   7.257   5.547 -4.2683  2.8012  1.0633
  834MOL0     H12526  10.996   7.169   5.500 -0.2838 -0.5707  0.1569
  834MOL0     H12527  11.054   6.990   5.618  0.5822 -0.3627  0.4083
  834MOL0     H12528  11.211   7.057   5.669 -1.0322 -1.4335  2.2260
  834MOL0     H12529  11.057   7.255   5.766  1.1899 -0.0552 -0.8226
  834MOL0     H12530  10.934   7.136   5.758  0.2639 -1.7271  1.1369
  834MOL0     H12531  11.057   6.978   5.874  0.8659 -0.2003 -0.2181
  834MOL0     H12532  11.198   7.087   5.899 -0.1105 -2.2408  2.5853
  834MOL0     H12533  10.925   7.115   6.023  0.5614 -4.0176 -1.8811
  834MOL0     H12534  11.076   7.055   6.092  1.5115  3.2707  1.9694
  834MOL0     H12535  11.185   7.257   6.058  0.1012 -0.0708 -2.8008
  834MOL0     H12536  11.032   7.337   5.983 -1.0192  1.0946  1.3819
  834MOL0     H12537  10.902   7.319   6.179  0.2092 -2.3949 -3.0680
  834MOL0     H12538  11.041   7.253   6.269  1.0968 -1.1108 -1.0363
  834MOL0     H12539  10.975   7.504   6.271 -1.8131 -1.0438 -0.1566
  834MOL0     H12540  11.078   7.519   6.124 -1.2034  1.6304  2.8486
  834MOL0     H12541  11.088   7.419   6.508  2.9721 -0.5958  1.4055
  834MOL0     H12542  11.417   7.532   6.642  0.2673 -1.7615  0.6652
  834MOL0     H12543  11.263   7.454   6.683 -0.3850 -3.8918  1.1528
  834MOL0     H12544  11.479   7.311   6.551 -2.6918 -1.5370 -2.3714
  834MOL0     H12545  11.340   7.236   6.638 -1.8650  0.4852  2.2902
  834MOL0     H12546  11.421   7.346   6.853  0.8749  1.0185  0.3330
  834MOL0     H12547  11.575   7.382   6.763  0.2204  0.5327  0.9180
  834MOL0     H12548  11.651   7.162   6.792  0.1271 -0.6870 -0.3532
  834MOL0     H12549  11.493   7.094   6.751  5.1659 -2.6373 -0.4051
  834MOL0     H12550  11.756   7.271   6.930 -0.2515 -0.7742 -0.1683
  834MOL0     H12551  11.883   7.438   6.980 -0.3546 -0.6528 -0.1095
  834MOL0     H12552  11.881   7.541   7.119  0.7558  0.0971  1.8791
  834MOL0     H12553  11.982   7.399   7.127  1.3577  1.6824 -3.2958
  834MOL0     H12554  11.739   7.648   7.516  1.1031 -0.3643  1.0085
  834MOL0     H12555  11.826   7.771   7.711  0.2526 -0.4122 -0.4096
  834MOL0     H12556  11.984   7.603   8.103  1.2261 -1.3724 -0.0073
  834MOL0     H12557  12.049   7.552   7.955 -3.0336 -1.5208  0.7384
  834MOL0     H12558  12.016   7.845   7.991 -1.4688 -0.1000 -4.1799
  834MOL0     H12559  12.151   7.771   8.071  1.5591 -0.3409 -0.6801
  834MOL0     H12560  12.240   7.845   7.863  1.1312 -1.0949  1.1371
  834MOL0     H12561  12.137   7.752   7.763  2.1856 -1.9802  0.0221
  834MOL0     H12562  12.354   7.660   7.951 -2.0508  0.2793  1.6881
  834MOL0     H12563  12.238   7.546   7.890  0.7825  0.8365 -0.6379
  834MOL0     H12564  12.428   7.572   7.735  1.8113  2.0590 -0.7392
  834MOL0     H12565  12.373   7.728   7.689  1.3058  1.3119  2.7950
  834MOL0     H12566  12.232   7.447   7.675  0.3616  0.2091 -0.0116
  834MOL0     H12567  12.156   7.593   7.616 -1.1987 -1.6176  1.7616
  834MOL0     H12568  12.435   7.471   7.537  1.1462  2.5194  3.1904
  834MOL0     H12569  12.349   7.603   7.442  1.6357 -0.7907  0.3111
  834MOL0     H12570  12.314   7.413   7.319 -1.3693 -3.2663 -0.1535
  834MOL0     H12571  12.160   7.411   7.402 -0.4638 -1.4977  1.1054
  834MOL0     H12572  11.851   7.407   7.939  3.5772  0.0082 -0.5337
  834MOL0     H12573  11.783   7.281   7.740 -1.4348 -0.4521  2.0870
  834MOL0     H12574  11.548   7.271   7.380 -1.5608 -0.1617  0.5908
  834MOL0     H12575  11.446   7.143   7.210 -0.3781 -0.7415  0.1877
  834MOL0     H12576  11.299   7.013   5.215  2.7294  1.2888  1.8959
  834MOL0     H12577  11.326   7.123   4.987  0.9694 -2.6778  1.9436
  834MOL0     H12578  11.009   7.554   4.660  0.1786  2.1399 -1.7495
  834MOL0     H12579  11.021   7.514   4.425  0.3992 -2.7494  0.3270
  834MOL0     H12580  11.038   7.400   4.212 -0.2262  0.0900  2.3270
  834MOL0     H12581  11.175   7.349   4.106  0.5885  0.2137  0.5086
  834MOL0     H12582  11.207   7.175   4.323 -1.5829 -0.2572  2.4178
  834MOL0     H12583  11.118   7.132   4.173  0.5858 -2.7638  1.8968
  834MOL0     H12584  10.984   7.261   4.405 -0.8059  0.1722  0.8008
  834MOL0     H12585  11.027   7.093   4.406 -0.0090  0.6462  1.1844
  834MOL0     H12586  10.901   7.021   4.212 -3.7077 -2.3091  2.1035
  834MOL0     H12587  10.853   7.181   4.168  0.6817 -1.2959 -1.0628
  834MOL0     H12588  10.588   7.093   4.478  1.2255  3.7694  0.8300
  834MOL0     H12589  11.415   7.341   4.457  1.9032  2.0585  0.3552
  834MOL0     H12590  11.392   7.336   4.696 -0.7215  0.2167  1.0633
  835MOL0     O12591   4.913   3.010   5.187  0.1657  0.3135 -0.1871
  835MOL0     C12592   4.882   2.983   5.302 -0.0005  0.0282 -0.5601
  835MOL0     O12593   4.770   3.024   5.352  0.0960  0.3565 -0.3152
  835MOL0     C12594   4.671   3.072   5.275 -0.8785  0.2553  0.3055
  835MOL0     C12595   4.572   2.980   5.232 -0.0352 -0.2333  0.1114
  835MOL0     C12596   4.474   3.024   5.144  0.0057 -0.0231  0.0860
  835MOL0     C12597   4.466   3.159   5.111  0.3744 -0.8363  0.1335
  835MOL0     O12598   4.368   3.189   5.019  0.0212  0.2145 -0.3417
  835MOL0     C12599   4.372   3.320   4.954  0.1555 -0.5565 -0.3737
  835MOL0     C12600   4.297   3.335   4.822 -0.6448  0.6001  0.7866
  835MOL0     C12601   4.395   3.269   4.728  0.3645  0.7034 -0.3235
  835MOL0     C12602   4.360   3.282   4.584 -0.4651 -0.2007  0.7177
  835MOL0     C12603   4.482   3.259   4.498 -0.4482  0.0172  0.4256
  835MOL0     C12604   4.569   3.387   4.492  0.8771  0.0589 -0.2846
  835MOL0     C12605   4.678   3.374   4.397 -0.5537  0.2138 -0.4244
  835MOL0     C12606   4.750   3.502   4.358 -0.8888 -0.4424 -0.5628
  835MOL0     N12607   4.839   3.478   4.240 -0.2456 -0.1021 -0.1519
  835MOL0     C12608   4.972   3.478   4.228  0.6948  0.2242 -0.0269
  835MOL0     C12609   5.014   3.403   4.122  0.1524  0.2020  0.1577
  835MOL0     C12610   5.156   3.357   4.101  0.2800 -0.2775  0.7068
  835MOL0     C12611   5.171   3.323   3.947  0.2532  0.2260  0.2872
  835MOL0     C12612   5.197   3.459   3.866  0.2299 -0.5025  0.3886
  835MOL0     C12613   5.224   3.436   3.710 -0.3929  0.6112 -1.2308
  835MOL0     O12614   5.306   3.541   3.665 -0.0969 -0.2089  0.3533
  835MOL0     C12615   5.321   3.562   3.535  0.7093 -0.5668 -0.5059
  835MOL0     C12616   5.400   3.670   3.502  0.5082  0.7682 -0.2750
  835MOL0     C12617   5.410   3.706   3.364  0.5188 -0.1440  0.4412
  835MOL0     C12618   5.480   3.845   3.354 -0.1256 -0.4824  0.3268
  835MOL0     C12619   5.332   3.646   3.264  0.8805 -0.2246  0.2916
  835MOL0     C12620   5.308   3.692   3.112 -0.3974 -0.4815 -1.3610
  835MOL0     O12621   5.279   3.595   3.021  0.0234  0.0887 -1.0358
  835MOL0     C12622   5.262   3.606   2.883 -0.3125 -0.0238 -0.3438
  835MOL0     C12623   5.309   3.485   2.820  0.5558  0.8720 -0.1112
  835MOL0     C12624   5.318   3.485   2.679  0.0844  0.4771 -0.5422
  835MOL0     C12625   5.253   3.588   2.607 -0.2303 -0.2252 -0.7122
  835MOL0     O12626   5.251   3.594   2.472 -0.0248  0.7083 -0.4628
  835MOL0     C12627   5.298   3.481   2.395  1.2344  0.2784  0.8547
  835MOL0     C12628   5.269   3.502   2.240 -0.6157  0.6454 -0.5269
  835MOL0     C12629   5.265   3.642   2.187  0.9391  0.8362 -0.2371
  835MOL0     C12630   5.120   3.707   2.205  0.6593 -0.0676 -0.6337
  835MOL0     C12631   5.111   3.863   2.195  0.9212 -0.5136  1.1578
  835MOL0     C12632   5.128   3.933   2.327  1.3236  0.3331  0.9722
  835MOL0     C12633   5.116   4.094   2.327  0.0449  0.0053 -0.1068
  835MOL0     C12634   5.233   4.165   2.266  0.0256  0.5715  0.4164
  835MOL0    Cl12635   5.377   4.172   2.363  0.3289  0.4312 -0.0473
  835MOL0     C12636   5.206   3.706   2.672 -0.7903  0.2235 -0.8654
  835MOL0     C12637   5.214   3.719   2.815  0.2789  0.4208 -0.6242
  835MOL0     O12638   5.309   3.809   3.086 -0.1102 -0.2486  1.0957
  835MOL0     C12639   5.256   3.535   3.304 -0.5259 -0.3827  0.5902
  835MOL0     C12640   5.256   3.491   3.436  0.3438 -0.7921 -0.1701
  835MOL0     N12641   4.895   3.394   4.045  0.8057  0.2253 -0.6482
  835MOL0     N12642   4.797   3.423   4.121  0.7974  0.5088 -0.2660
  835MOL0     C12643   4.564   3.252   5.160 -0.1112 -1.0626 -0.6358
  835MOL0     C12644   4.668   3.202   5.237  0.6549  1.3037  0.2650
  835MOL0     C12645   4.986   2.921   5.386  0.0618 -0.6453 -0.6601
  835MOL0     C12646   4.984   2.941   5.522  0.4760  0.4773 -0.3648
  835MOL0     C12647   5.066   2.880   5.615 -0.6139 -0.8893  0.0044
  835MOL0     C12648   5.155   2.788   5.565  0.8136  0.0459 -0.0706
  835MOL0     O12649   5.231   2.714   5.656 -1.1219  0.1800  0.2191
  835MOL0     C12650   5.337   2.621   5.615  0.1037 -0.1838  0.4662
  835MOL0     C12651   5.405   2.582   5.753 -0.0412  0.7985 -0.5793
  835MOL0     C12652   5.496   2.693   5.801  0.1948 -0.4841  1.3988
  835MOL0     C12653   5.494   2.711   5.957 -1.1221 -0.3282 -0.0303
  835MOL0     C12654   5.594   2.811   6.008  0.1988  0.6726  0.1173
  835MOL0     C12655   5.684   2.887   6.038  0.1165 -0.5404  0.4712
  835MOL0     C12656   5.153   2.761   5.435 -0.2795 -0.5187 -0.0211
  835MOL0     C12657   5.075   2.821   5.344 -0.6351 -0.2993 -0.3263
  835MOL0     H12658   4.586   2.873   5.249  1.9803 -0.0439 -0.1779
  835MOL0     H12659   4.410   2.948   5.100 -2.4548  1.3450  1.0566
  835MOL0     H12660   4.323   3.389   5.024  1.6707  0.4499 -0.2475
  835MOL0     H12661   4.475   3.357   4.956 -0.2920  1.0506  3.5803
  835MOL0     H12662   4.199   3.286   4.816  0.7085 -2.0922 -2.2029
  835MOL0     H12663   4.292   3.442   4.800 -1.4440  0.5771  0.8120
  835MOL0     H12664   4.499   3.300   4.745  0.4756  0.5236 -0.6579
  835MOL0     H12665   4.386   3.162   4.748 -3.2223  0.8245 -0.6405
  835MOL0     H12666   4.276   3.220   4.552 -0.0859 -0.4144  0.1149
  835MOL0     H12667   4.325   3.385   4.573  2.8466  1.2342  2.1174
  835MOL0     H12668   4.535   3.166   4.522 -1.5177 -0.6267  0.3565
  835MOL0     H12669   4.463   3.232   4.394 -1.1461 -4.5220  1.4925
  835MOL0     H12670   4.511   3.477   4.471 -0.4684 -1.0054 -1.3424
  835MOL0     H12671   4.607   3.422   4.589 -1.6513  1.2397  0.3634
  835MOL0     H12672   4.746   3.297   4.435 -2.5623 -0.0048  3.2641
  835MOL0     H12673   4.627   3.342   4.305 -1.8230  1.2294 -0.0941
  835MOL0     H12674   4.817   3.546   4.433 -0.4915  0.7142 -1.5602
  835MOL0     H12675   4.679   3.581   4.332 -2.1203 -1.8308 -1.5564
  835MOL0     H12676   5.040   3.503   4.309 -0.6987  0.3323  1.1488
  835MOL0     H12677   5.230   3.427   4.140 -2.1936  0.2324  5.1283
  835MOL0     H12678   5.167   3.261   4.153 -1.7761 -1.6404 -1.1814
  835MOL0     H12679   5.081   3.280   3.902  0.4808  0.1607 -0.1122
  835MOL0     H12680   5.266   3.269   3.942  0.8767  1.3747 -1.1096
  835MOL0     H12681   5.282   3.504   3.918 -1.7803  3.5300  0.5978
  835MOL0     H12682   5.119   3.535   3.874  1.3668  0.6819  0.4041
  835MOL0     H12683   5.130   3.419   3.657 -2.6686 -0.3508  2.7195
  835MOL0     H12684   5.288   3.348   3.698  1.4422  1.4324  1.4793
  835MOL0     H12685   5.464   3.712   3.579 -0.1057  1.0880  0.0737
  835MOL0     H12686   5.458   3.914   3.436 -0.4643 -0.3744  0.1459
  835MOL0     H12687   5.586   3.822   3.338  0.5780  2.7210 -0.4174
  835MOL0     H12688   5.453   3.899   3.263  0.9414  1.7437  1.2538
  835MOL0     H12689   5.350   3.415   2.892  0.2604  1.3303  0.5089
  835MOL0     H12690   5.386   3.423   2.621 -0.5005  0.2518 -1.0034
  835MOL0     H12691   5.407   3.477   2.392  1.4764  3.1407  2.7051
  835MOL0     H12692   5.239   3.391   2.418  1.9746 -0.8647 -1.4162
  835MOL0     H12693   5.344   3.442   2.189  2.8960  1.7121  2.9635
  835MOL0     H12694   5.171   3.459   2.217 -0.2947 -0.1646 -0.3913
  835MOL0     H12695   5.297   3.627   2.083 -2.4407 -0.9951 -1.1607
  835MOL0     H12696   5.331   3.712   2.239  0.6670 -0.3477  1.7939
  835MOL0     H12697   5.050   3.660   2.136  0.8923 -1.2905 -0.0648
  835MOL0     H12698   5.082   3.679   2.304 -1.4631 -2.9096 -2.0845
  835MOL0     H12699   5.010   3.887   2.163  1.0134 -0.1331  1.1445
  835MOL0     H12700   5.188   3.876   2.118 -0.6802 -0.5274 -0.5162
  835MOL0     H12701   5.040   3.902   2.384  0.3214 -1.1761 -1.2535
  835MOL0     H12702   5.217   3.891   2.375  2.0030 -0.9516 -1.2734
  835MOL0     H12703   5.100   4.123   2.431  0.1890 -2.0313  0.5321
  835MOL0     H12704   5.018   4.114   2.282 -1.2829 -3.4262  0.9596
  835MOL0     H12705   5.211   4.271   2.251 -0.0632  0.9372  2.6978
  835MOL0     H12706   5.264   4.122   2.170 -0.8243  2.9077 -0.9909
  835MOL0     H12707   5.160   3.783   2.610 -1.3231  1.1617  0.6593
  835MOL0     H12708   5.191   3.807   2.873  4.2784  2.8835 -2.3793
  835MOL0     H12709   5.208   3.475   3.227  1.2842 -2.0872  0.7042
  835MOL0     H12710   5.196   3.405   3.464  2.0201 -1.8625  0.3644
  835MOL0     H12711   4.569   3.358   5.137 -1.0490 -1.2007 -1.5558
  835MOL0     H12712   4.747   3.269   5.268  2.1653 -1.7327  3.6333
  835MOL0     H12713   4.918   3.016   5.565  0.9684  2.1554 -2.4314
  835MOL0     H12714   5.067   2.917   5.717  1.8888  1.0198 -0.6151
  835MOL0     H12715   5.300   2.532   5.564 -0.8422 -0.7032  2.0036
  835MOL0     H12716   5.407   2.661   5.541  1.8778 -1.0050  1.6547
  835MOL0     H12717   5.444   2.481   5.734 -1.7174 -0.5448  2.3855
  835MOL0     H12718   5.326   2.560   5.825  1.1076 -1.1931  0.1776
  835MOL0     H12719   5.470   2.785   5.749 -2.5318 -3.1015 -2.4396
  835MOL0     H12720   5.594   2.665   5.761 -0.1344 -2.4179  1.8476
  835MOL0     H12721   5.508   2.613   6.005  0.7686 -1.5518 -2.8362
  835MOL0     H12722   5.394   2.746   5.987 -1.6725 -2.5712  1.0321
  835MOL0     H12723   5.763   2.949   6.075 -0.9085 -1.2775  4.3929
  835MOL0     H12724   5.219   2.690   5.386  0.9181  0.5310  0.0036
  835MOL0     H12725   5.090   2.776   5.246  1.3746 -0.6304  0.0907
  836MOL0     O12726   7.821   5.873   9.345 -0.0088 -0.4760 -0.0492
  836MOL0     C12727   7.713   5.877   9.409  0.0071 -0.4857 -0.2021
  836MOL0     O12728   7.657   5.994   9.466  0.5325  0.5610 -0.1662
  836MOL0     C12729   7.715   6.122   9.489  0.0548  0.6643 -0.2047
  836MOL0     C12730   7.799   6.178   9.387  0.7377  0.5069 -0.4336
  836MOL0     C12731   7.869   6.295   9.424  0.2562  0.5849  0.2191
  836MOL0     C12732   7.855   6.354   9.551 -0.1096 -0.4208  0.5586
  836MOL0     O12733   7.909   6.477   9.600  0.1498  1.0068 -0.3415
  836MOL0     C12734   7.946   6.567   9.499 -0.4944 -0.5300 -0.4006
  836MOL0     C12735   7.947   6.715   9.542 -1.1820  0.1577 -0.0708
  836MOL0     C12736   8.083   6.759   9.598  0.3436  0.5839 -0.5302
  836MOL0     C12737   8.057   6.895   9.666  0.2404  0.0126 -0.1645
  836MOL0     C12738   8.165   6.926   9.771 -0.3329 -0.0115  0.2460
  836MOL0     C12739   8.300   6.955   9.702  0.1275  0.3606  0.3323
  836MOL0     C12740   8.400   7.015   9.798  0.1941 -0.5805  0.2911
  836MOL0     C12741   8.547   7.031   9.747  0.7299  0.5153 -1.0175
  836MOL0     N12742   8.570   7.143   9.664  0.4906 -0.1656 -0.5842
  836MOL0     C12743   8.646   7.251   9.705  0.2529 -0.0566 -0.6098
  836MOL0     C12744   8.603   7.362   9.638  0.6280 -0.3432  0.5279
  836MOL0     C12745   8.644   7.503   9.649  0.7838  0.1541  0.1014
  836MOL0     C12746   8.552   7.571   9.756 -0.4820  0.4389  0.5774
  836MOL0     C12747   8.577   7.715   9.742 -0.1474  0.3076 -0.0510
  836MOL0     C12748   8.481   7.781   9.635  0.1914 -0.1134 -0.2078
  836MOL0     O12749   8.510   7.905   9.579 -1.0487 -0.3960 -0.3497
  836MOL0     C12750   8.471   8.015   9.655  0.3763  0.3929 -0.2514
  836MOL0     C12751   8.410   8.014   9.784  0.0164 -0.3602  0.0258
  836MOL0     C12752   8.378   8.141   9.844 -0.4442  0.1310 -1.6069
  836MOL0     C12753   8.324   8.122   9.985  0.7814 -0.8274  0.1426
  836MOL0     C12754   8.410   8.266   9.782  0.5267 -0.2552 -0.5986
  836MOL0     C12755   8.365   8.401   9.826  0.2211  0.4559 -1.2208
  836MOL0     O12756   8.417   8.507   9.769 -0.0182 -0.3434 -0.0029
  836MOL0     C12757   8.355   8.626   9.788 -0.0680  0.0592 -0.5832
  836MOL0     C12758   8.322   8.718   9.684 -0.0065 -0.4226 -0.2182
  836MOL0     C12759   8.249   8.827   9.700 -0.0394 -0.1865 -0.6781
  836MOL0     C12760   8.208   8.859   9.839  1.1594 -0.1180 -0.8021
  836MOL0     O12761   8.129   8.955   9.878 -0.7919 -0.1866 -0.0024
  836MOL0     C12762   8.048   9.009   9.780  0.1411 -0.3678  0.2858
  836MOL0     C12763   7.922   9.057   9.850  0.2079  1.1489 -0.0570
  836MOL0     C12764   7.910   9.211   9.863  0.0235  0.5850  0.5021
  836MOL0     C12765   7.777   9.231   9.941  0.0192  0.6680 -0.0990
  836MOL0     C12766   7.775   9.365  10.019 -0.0019 -0.7504 -0.2321
  836MOL0     C12767   7.640   9.394  10.073 -0.9553 -0.2799  0.1046
  836MOL0     C12768   7.645   9.524  10.152 -0.0772 -0.1976 -0.4802
  836MOL0     C12769   7.560   9.523  10.277 -0.2034 -0.2510 -0.8407
  836MOL0    Cl12770   7.609   9.388  10.391  0.2018  0.3565 -0.0928
  836MOL0     C12771   8.241   8.770   9.948  0.5630 -0.4605  0.3545
  836MOL0     C12772   8.319   8.664   9.922 -1.1120  0.5158  0.5168
  836MOL0     O12773   8.258   8.398   9.904  0.7881 -0.0143 -0.5030
  836MOL0     C12774   8.492   8.260   9.666  0.5561 -0.6129  0.4243
  836MOL0     C12775   8.518   8.133   9.606  0.0787  0.3936 -0.7265
  836MOL0     N12776   8.512   7.306   9.550 -0.2572 -0.1099  0.4561
  836MOL0     N12777   8.489   7.178   9.563  0.9276  0.9747 -0.6611
  836MOL0     C12778   7.776   6.296   9.647  0.1157 -1.0959 -0.2810
  836MOL0     C12779   7.701   6.183   9.619 -0.7662  0.9076 -0.0207
  836MOL0     C12780   7.634   5.753   9.424  0.2220  0.2425 -0.0158
  836MOL0     C12781   7.678   5.638   9.354  0.8607 -0.2871  0.0478
  836MOL0     C12782   7.606   5.516   9.366  0.0829 -0.2502  0.2917
  836MOL0     C12783   7.499   5.509   9.458 -0.9468 -0.8158 -0.4241
  836MOL0     O12784   7.439   5.387   9.474  0.3885 -0.5190 -0.4126
  836MOL0     C12785   7.327   5.366   9.570 -0.0093 -0.5846  0.3095
  836MOL0     C12786   7.200   5.429   9.522 -0.2695  1.1853 -0.5120
  836MOL0     C12787   7.106   5.444   9.646  0.4146 -0.0355  0.8778
  836MOL0     C12788   6.964   5.431   9.597 -0.2691  0.2073  0.3415
  836MOL0     C12789   6.928   5.298   9.564 -0.1227 -0.0721 -1.2292
  836MOL0     C12790   6.899   5.178   9.552 -0.4285 -0.3786 -0.1024
  836MOL0     C12791   7.450   5.623   9.508 -0.2873  0.0925 -1.0636
  836MOL0     C12792   7.518   5.742   9.500  1.3759  0.2299  0.3589
  836MOL0     H12793   7.804   6.134   9.288 -1.1854  0.0210 -0.3517
  836MOL0     H12794   7.935   6.333   9.347  1.5135  0.4546  1.1995
  836MOL0     H12795   8.047   6.545   9.463  0.6110  1.3714  1.3098
  836MOL0     H12796   7.868   6.540   9.428 -2.1612 -4.0388  2.4208
  836MOL0     H12797   7.928   6.778   9.455 -1.1849  0.1926 -0.0445
  836MOL0     H12798   7.868   6.736   9.615 -0.7234 -2.9847  1.5056
  836MOL0     H12799   8.107   6.689   9.678  0.0033 -0.3218 -1.2074
  836MOL0     H12800   8.160   6.764   9.521  0.3701 -1.7553 -0.7238
  836MOL0     H12801   8.064   6.980   9.598 -0.7241  1.1115  1.0610
  836MOL0     H12802   7.964   6.895   9.724 -1.0919  3.7540 -1.9747
  836MOL0     H12803   8.128   7.020   9.813 -0.6501  0.2587 -0.5987
  836MOL0     H12804   8.175   6.848   9.846 -0.4218  0.4844  0.7865
  836MOL0     H12805   8.330   6.855   9.668 -0.5224  0.3776 -0.3189
  836MOL0     H12806   8.278   7.021   9.618 -1.6614 -2.8641 -1.9553
  836MOL0     H12807   8.355   7.111   9.823 -0.0881 -0.6188 -0.0661
  836MOL0     H12808   8.415   6.958   9.891 -1.9148  2.6345  2.8213
  836MOL0     H12809   8.568   6.935   9.699 -3.3117 -2.3137  2.1716
  836MOL0     H12810   8.617   7.032   9.831 -1.6252  0.9484  1.0517
  836MOL0     H12811   8.723   7.249   9.781  2.0852 -1.1978 -2.3979
  836MOL0     H12812   8.746   7.499   9.688  0.8158 -1.3053 -0.0658
  836MOL0     H12813   8.651   7.565   9.559  1.4556  0.7190  0.5337
  836MOL0     H12814   8.577   7.533   9.856  0.2754  0.7413  0.5106
  836MOL0     H12815   8.446   7.548   9.746 -0.6330  1.0844  0.7199
  836MOL0     H12816   8.675   7.738   9.700 -0.1768  0.5839  0.0300
  836MOL0     H12817   8.557   7.754   9.843  0.1937 -0.9445  0.5310
  836MOL0     H12818   8.376   7.770   9.660 -0.1981 -0.3183 -1.8080
  836MOL0     H12819   8.492   7.721   9.544  1.7656  0.4553 -0.4348
  836MOL0     H12820   8.378   7.919   9.824  0.8482 -1.7667 -2.4172
  836MOL0     H12821   8.215   8.132   9.977  0.6939 -2.7531 -2.0797
  836MOL0     H12822   8.350   8.031  10.039 -1.0885 -1.0886  0.6803
  836MOL0     H12823   8.355   8.212  10.039  0.3596  1.5629 -3.2560
  836MOL0     H12824   8.355   8.705   9.581  3.1563  0.7058  0.5527
  836MOL0     H12825   8.226   8.882   9.610  1.6383  4.1486  1.2732
  836MOL0     H12826   8.090   9.093   9.723 -0.2066 -0.6834 -0.4408
  836MOL0     H12827   8.004   8.938   9.711 -5.7784  1.5640  1.4727
  836MOL0     H12828   7.842   9.028   9.782  0.5980 -2.9773  0.9875
  836MOL0     H12829   7.910   9.001   9.944 -2.6769  0.5243 -0.7169
  836MOL0     H12830   7.915   9.262   9.767 -0.2347 -1.3577 -0.5959
  836MOL0     H12831   8.000   9.245   9.914  1.6042 -0.8081 -1.2427
  836MOL0     H12832   7.681   9.231   9.889 -1.0661  3.2683  1.7047
  836MOL0     H12833   7.773   9.163  10.026  0.8148  2.5878  1.5445
  836MOL0     H12834   7.802   9.443   9.947  1.3040  0.2066  1.2398
  836MOL0     H12835   7.853   9.378  10.095  0.2860  3.0084 -0.9970
  836MOL0     H12836   7.564   9.404   9.995 -1.0917  1.7008  0.4500
  836MOL0     H12837   7.600   9.314  10.137 -1.3382 -0.3530 -0.2178
  836MOL0     H12838   7.596   9.595  10.084 -3.7529 -1.6042  0.4558
  836MOL0     H12839   7.744   9.563  10.177 -0.7211  0.8886  0.4967
  836MOL0     H12840   7.457   9.498  10.249 -0.7021 -1.7172  1.9345
  836MOL0     H12841   7.565   9.619  10.329  2.5878 -0.6879 -0.1312
  836MOL0     H12842   8.215   8.785  10.053  1.4636  0.8048  0.4171
  836MOL0     H12843   8.342   8.601  10.007  0.9401 -0.9194 -1.0108
  836MOL0     H12844   8.534   8.343   9.610  1.4545 -2.2853 -1.5041
  836MOL0     H12845   8.584   8.132   9.520  0.5798 -2.4210 -0.3779
  836MOL0     H12846   7.762   6.354   9.738 -0.4881  0.4657 -1.3233
  836MOL0     H12847   7.637   6.131   9.689  0.5789  1.5305  1.7433
  836MOL0     H12848   7.767   5.638   9.292  0.5806  0.1272 -0.3592
  836MOL0     H12849   7.640   5.427   9.314  4.9814  1.2993  0.4004
  836MOL0     H12850   7.302   5.260   9.583  1.5813 -1.2985 -1.8127
  836MOL0     H12851   7.359   5.409   9.665 -2.0705 -1.4829  1.4939
  836MOL0     H12852   7.155   5.360   9.450  1.7647 -2.2185  1.2227
  836MOL0     H12853   7.212   5.523   9.466 -0.6489  1.3621 -0.3000
  836MOL0     H12854   7.129   5.534   9.703 -1.6423 -0.4584  2.5151
  836MOL0     H12855   7.131   5.363   9.715  1.4867  0.0309  0.5793
  836MOL0     H12856   6.928   5.490   9.513  0.1336 -1.9206 -1.4450
  836MOL0     H12857   6.913   5.462   9.688 -2.1340 -0.4963 -0.4053
  836MOL0     H12858   6.881   5.072   9.551 -2.4876 -0.0931 -1.9237
  836MOL0     H12859   7.368   5.604   9.575  1.0267  1.3663  1.0214
  836MOL0     H12860   7.479   5.823   9.560 -2.2700  1.5513 -3.3263
  837MOL0     O12861  10.521   7.371   7.824 -0.7021 -0.5912  0.1182
  837MOL0     C12862  10.603   7.394   7.734 -0.6856 -0.7519  0.2241
  837MOL0     O12863  10.592   7.497   7.647 -0.3732 -0.3272  0.4891
  837MOL0     C12864  10.486   7.582   7.660  0.0947  0.0607  0.2818
  837MOL0     C12865  10.351   7.542   7.674 -0.6442 -0.3446  0.7457
  837MOL0     C12866  10.245   7.642   7.686  0.5139  0.1715  0.1005
  837MOL0     C12867  10.281   7.774   7.696 -0.2770 -0.3248 -0.3344
  837MOL0     O12868  10.170   7.855   7.699 -0.0267 -0.3218  0.5222
  837MOL0     C12869  10.184   7.994   7.720  0.0602 -0.0432  0.4304
  837MOL0     C12870  10.057   8.090   7.722 -0.1810  0.5261 -0.3461
  837MOL0     C12871   9.962   8.044   7.839  0.1549 -0.1351 -0.2799
  837MOL0     C12872   9.827   8.071   7.792  0.4972 -1.4884 -0.0245
  837MOL0     C12873   9.721   8.028   7.900  0.8082 -0.2828 -0.0529
  837MOL0     C12874   9.586   8.061   7.842 -0.1489  0.3140  0.9714
  837MOL0     C12875   9.480   8.037   7.944  0.0302  0.1678 -0.6149
  837MOL0     C12876   9.342   8.033   7.877  0.9418  0.5342 -0.9186
  837MOL0     N12877   9.324   8.142   7.788  0.1190  0.9230 -0.1873
  837MOL0     C12878   9.350   8.138   7.659 -0.1444 -0.3289  1.1077
  837MOL0     C12879   9.365   8.265   7.621  0.5001  0.2073  0.8029
  837MOL0     C12880   9.442   8.294   7.490  0.1418 -0.4822 -0.7196
  837MOL0     C12881   9.469   8.441   7.452  0.7004 -0.0400  0.6388
  837MOL0     C12882   9.584   8.516   7.522  0.1203  0.4582  0.7841
  837MOL0     C12883   9.577   8.658   7.492 -0.8416 -0.3773  0.2336
  837MOL0     O12884   9.717   8.716   7.517  0.6602 -0.4219  0.0048
  837MOL0     C12885   9.749   8.846   7.494  0.3470  0.1500  0.4652
  837MOL0     C12886   9.861   8.882   7.561  0.8083 -0.9994  0.7332
  837MOL0     C12887   9.920   9.003   7.525 -0.5731 -0.6314 -0.0421
  837MOL0     C12888  10.030   9.054   7.619 -0.1823 -0.9798  0.2735
  837MOL0     C12889   9.868   9.086   7.425 -0.2175  0.1446  0.1563
  837MOL0     C12890   9.925   9.221   7.394 -0.5316  0.1296  0.7444
  837MOL0     O12891  10.033   9.234   7.309 -0.1718 -0.1347  0.0669
  837MOL0     C12892  10.082   9.361   7.279  0.7088 -0.6245 -0.8379
  837MOL0     C12893  10.214   9.380   7.220 -0.0284  0.1406  0.2796
  837MOL0     C12894  10.259   9.506   7.182 -0.8517 -0.4283  0.9227
  837MOL0     C12895  10.175   9.613   7.177  0.2640 -0.1170 -0.1075
  837MOL0     O12896  10.204   9.741   7.132  0.3385  0.0217  1.1895
  837MOL0     C12897  10.242   9.752   6.993 -0.3189  0.3609 -0.6724
  837MOL0     C12898  10.298   9.893   6.979  0.3414 -0.4162  0.2655
  837MOL0     C12899  10.193  10.005   7.025 -0.3424  1.0665 -0.3705
  837MOL0     C12900  10.203  10.151   6.968 -0.2864  0.9153 -0.8512
  837MOL0     C12901  10.089  10.237   7.032 -0.0846 -0.3654 -0.4584
  837MOL0     C12902  10.088  10.389   6.994 -0.7349 -0.3518 -0.0638
  837MOL0     C12903   9.965  10.458   7.039  0.6699  0.5222  0.6608
  837MOL0     C12904   9.941  10.598   6.964 -0.4132  0.4268  0.7212
  837MOL0    Cl12905  10.066  10.704   7.002  0.0513 -0.3824 -0.3099
  837MOL0     C12906  10.048   9.601   7.231 -0.1692 -1.2385 -0.2141
  837MOL0     C12907   9.999   9.485   7.279  0.0115  0.7697  0.6719
  837MOL0     O12908   9.844   9.306   7.427  0.2005 -0.0425  0.0338
  837MOL0     C12909   9.750   9.044   7.357  0.3943  0.5884 -0.3507
  837MOL0     C12910   9.687   8.924   7.395 -0.0745 -0.1152 -1.0205
  837MOL0     N12911   9.331   8.343   7.725  0.2120 -0.5337 -1.9806
  837MOL0     N12912   9.303   8.272   7.830  0.6312 -0.1036 -0.1031
  837MOL0     C12913  10.408   7.821   7.676 -0.0462 -0.1452  0.3724
  837MOL0     C12914  10.508   7.728   7.661 -0.7538  0.3797 -0.2243
  837MOL0     C12915  10.715   7.311   7.709  0.0455  0.7167 -0.1266
  837MOL0     C12916  10.713   7.176   7.743  0.3727  0.8465  0.3353
  837MOL0     C12917  10.818   7.090   7.722  1.2812 -0.2986 -0.1947
  837MOL0     C12918  10.930   7.134   7.661 -0.3057  1.2457 -0.0379
  837MOL0     O12919  11.035   7.058   7.634 -0.1463  0.0951  0.7844
  837MOL0     C12920  11.059   7.038   7.491 -0.2562  0.9064  0.9089
  837MOL0     C12921  11.141   6.903   7.466 -0.8600  0.5948  0.7909
  837MOL0     C12922  11.061   6.780   7.468  0.4721  0.1797 -0.2475
  837MOL0     C12923  11.135   6.663   7.547  0.2163 -0.7855  0.4379
  837MOL0     C12924  11.256   6.636   7.470 -0.2758  0.1141 -1.1597
  837MOL0     C12925  11.358   6.621   7.410  0.2073 -0.3717 -0.5733
  837MOL0     C12926  10.938   7.272   7.627  0.0877  0.0824  0.3935
  837MOL0     C12927  10.831   7.354   7.651 -0.1868 -0.0348 -0.7380
  837MOL0     H12928  10.321   7.438   7.672  0.7037 -0.7688  0.9397
  837MOL0     H12929  10.147   7.599   7.700 -0.5648  2.0123 -1.3690
  837MOL0     H12930  10.247   8.007   7.809  1.6022  2.3921 -0.9209
  837MOL0     H12931  10.237   8.035   7.633  0.8385 -2.6212 -0.4260
  837MOL0     H12932  10.080   8.194   7.743 -1.1162  0.8424 -0.8257
  837MOL0     H12933  10.012   8.097   7.622 -0.3074  0.4637 -0.2948
  837MOL0     H12934   9.971   7.936   7.853  0.9621  0.1923  2.2714
  837MOL0     H12935   9.978   8.093   7.935  0.9183  1.8393 -1.3581
  837MOL0     H12936   9.806   8.178   7.782 -0.2232 -1.4029  1.8868
  837MOL0     H12937   9.819   8.007   7.704  1.3754 -3.1367  1.0455
  837MOL0     H12938   9.723   7.920   7.922 -1.6894 -0.8433 -2.0749
  837MOL0     H12939   9.737   8.089   7.989  0.1113  0.9153 -0.7325
  837MOL0     H12940   9.587   8.164   7.804 -0.7417 -0.7378 -2.1639
  837MOL0     H12941   9.577   8.006   7.748  0.2480  1.0012  0.5123
  837MOL0     H12942   9.495   7.945   8.001  2.1326  1.0088  0.3367
  837MOL0     H12943   9.478   8.118   8.018 -1.5111  2.4435 -2.9468
  837MOL0     H12944   9.263   8.036   7.953 -1.3409 -0.3778 -3.1012
  837MOL0     H12945   9.343   7.945   7.812 -1.6415 -0.4192  0.1835
  837MOL0     H12946   9.381   8.057   7.593 -1.0742  0.7858 -0.7959
  837MOL0     H12947   9.539   8.243   7.493  0.8434  0.8435 -0.0421
  837MOL0     H12948   9.388   8.242   7.410 -0.9604 -0.1615 -0.2127
  837MOL0     H12949   9.373   8.495   7.459 -0.5271 -2.2906  2.7063
  837MOL0     H12950   9.486   8.429   7.345 -5.5385  0.0526 -0.7653
  837MOL0     H12951   9.672   8.480   7.468  2.0852  0.2404  3.8792
  837MOL0     H12952   9.584   8.495   7.629 -0.8932 -0.2876  0.6567
  837MOL0     H12953   9.522   8.707   7.573  2.1214  3.8201  0.0170
  837MOL0     H12954   9.540   8.678   7.391 -3.9236 -0.9192  1.1311
  837MOL0     H12955   9.914   8.827   7.638  2.7169 -0.8694 -0.4136
  837MOL0     H12956  10.001   9.036   7.723 -2.8106 -0.5939 -0.3247
  837MOL0     H12957  10.121   9.000   7.592  0.8043  0.3161  0.9056
  837MOL0     H12958  10.047   9.160   7.597 -0.9632 -1.2549 -1.9098
  837MOL0     H12959  10.276   9.292   7.207  1.4425  1.1059  0.4126
  837MOL0     H12960  10.354   9.528   7.135 -2.4217 -1.1241 -2.9632
  837MOL0     H12961  10.322   9.679   6.976 -0.0590  0.4972 -0.0581
  837MOL0     H12962  10.155   9.732   6.930 -0.2741  2.6428 -1.5403
  837MOL0     H12963  10.391   9.903   7.037 -0.2390  0.4522  1.0685
  837MOL0     H12964  10.320   9.902   6.872  3.5278  1.2188  0.9270
  837MOL0     H12965  10.186  10.011   7.135 -2.4465 -0.3069 -0.3735
  837MOL0     H12966  10.093   9.973   6.993 -0.5330  1.0701  0.2063
  837MOL0     H12967  10.305  10.186   6.981 -0.1099  0.7746 -1.8141
  837MOL0     H12968  10.195  10.160   6.859 -1.4433  4.0372 -0.6381
  837MOL0     H12969  10.125  10.236   7.136  4.0493 -1.9737 -1.6821
  837MOL0     H12970   9.989  10.192   7.030  0.1898 -1.3912  2.5914
  837MOL0     H12971  10.173  10.429   7.051 -0.4410  0.2165 -0.8780
  837MOL0     H12972  10.109  10.407   6.889  0.1506  0.2533  0.2092
  837MOL0     H12973   9.981  10.471   7.146 -0.8029  0.5565  0.8898
  837MOL0     H12974   9.881  10.393   7.014  0.5218  1.1892 -0.6767
  837MOL0     H12975   9.845  10.644   6.988 -0.5864  0.1695  0.5269
  837MOL0     H12976   9.944  10.580   6.856  1.8226  0.0930  0.7825
  837MOL0     H12977   9.984   9.689   7.237  2.7398  0.9273  1.7016
  837MOL0     H12978   9.895   9.492   7.307 -0.3833 -0.3333 -0.4454
  837MOL0     H12979   9.718   9.106   7.273  0.8548 -0.6284 -1.4516
  837MOL0     H12980   9.591   8.900   7.350 -0.4117 -2.4509  0.7310
  837MOL0     H12981  10.436   7.925   7.692  0.9123 -0.4965  1.0881
  837MOL0     H12982  10.612   7.758   7.667 -0.6665  0.3974 -1.4516
  837MOL0     H12983  10.636   7.117   7.790  0.7498 -2.3127 -2.5987
  837MOL0     H12984  10.808   6.989   7.761  0.7538  0.0896  0.6913
  837MOL0     H12985  10.967   7.050   7.433  1.1061  1.2862 -1.2787
  837MOL0     H12986  11.124   7.119   7.457  1.6196 -1.7494 -2.5991
  837MOL0     H12987  11.226   6.906   7.534  0.5170 -2.9212 -0.5458
  837MOL0     H12988  11.183   6.915   7.365  0.2438  2.2814  1.3944
  837MOL0     H12989  11.045   6.743   7.367  1.2392 -2.8677  0.6621
  837MOL0     H12990  10.965   6.814   7.509  0.3699 -0.3417 -0.0500
  837MOL0     H12991  11.068   6.576   7.540  0.1063 -0.6212 -0.7689
  837MOL0     H12992  11.148   6.698   7.649 -1.7612  2.1126 -0.2010
  837MOL0     H12993  11.448   6.598   7.357  2.0704 -0.5241  2.4303
  837MOL0     H12994  11.017   7.312   7.564  0.5433 -1.2114  0.1290
  837MOL0     H12995  10.828   7.457   7.616 -2.0161 -0.2388 -1.2943
  838MOL0     O12996   2.604   2.690   1.121  0.0462  0.2353 -0.0200
  838MOL0     C12997   2.611   2.812   1.134 -0.6983  0.1552  1.0848
  838MOL0     O12998   2.581   2.904   1.039 -0.7403 -0.7122  0.6168
  838MOL0     C12999   2.532   2.862   0.919  0.5712 -0.4943  0.6261
  838MOL0     C13000   2.610   2.791   0.828 -0.3357 -1.1201 -0.4981
  838MOL0     C13001   2.560   2.747   0.707  0.2186  1.1296 -0.3232
  838MOL0     C13002   2.429   2.766   0.677  0.6609  0.4855  0.2928
  838MOL0     O13003   2.387   2.720   0.562 -0.7581 -0.1668 -0.4077
  838MOL0     C13004   2.252   2.693   0.545 -0.9842 -0.4201 -0.2596
  838MOL0     C13005   2.232   2.634   0.411  0.1575  1.0757  0.2300
  838MOL0     C13006   2.274   2.482   0.401 -0.4483  0.0359  0.6133
  838MOL0     C13007   2.198   2.401   0.292  0.1929  0.6054 -0.6897
  838MOL0     C13008   2.236   2.254   0.310 -0.8771 -0.7581 -0.3555
  838MOL0     C13009   2.147   2.178   0.214 -0.1268 -0.4742  1.3734
  838MOL0     C13010   2.188   2.035   0.184  0.3326  0.4825  0.1185
  838MOL0     C13011   2.094   1.969   0.074  0.0326 -0.6234 -0.2555
  838MOL0     N13012   1.958   1.944   0.112 -0.0983 -1.1313 -0.9017
  838MOL0     C13013   1.845   2.026   0.109 -0.2269  0.3465  0.2488
  838MOL0     C13014   1.750   1.949   0.146  0.2548  0.0944 -0.0595
  838MOL0     C13015   1.616   2.011   0.150  0.7288  0.7050  0.5361
  838MOL0     C13016   1.582   2.098   0.267  0.5665 -0.1631  1.3089
  838MOL0     C13017   1.587   2.029   0.403 -0.0564 -0.1367  0.1048
  838MOL0     C13018   1.450   1.971   0.456  0.5497 -1.1413  0.3974
  838MOL0     O13019   1.347   2.071   0.462  0.4073  0.6786  0.5935
  838MOL0     C13020   1.221   2.019   0.489  0.1669  0.6170 -0.4381
  838MOL0     C13021   1.112   2.105   0.469  1.5140 -0.3726 -0.1150
  838MOL0     C13022   0.979   2.058   0.473 -0.6699 -0.1452  0.1242
  838MOL0     C13023   0.879   2.161   0.461  0.1300 -0.1618  0.7566
  838MOL0     C13024   0.947   1.921   0.502  0.4817 -0.6883  1.0589
  838MOL0     C13025   0.807   1.862   0.494  0.1232  0.1101 -0.1413
  838MOL0     O13026   0.808   1.723   0.473  0.0644  0.3368 -0.6910
  838MOL0     C13027   0.689   1.648   0.477  0.0190 -0.3077  0.0463
  838MOL0     C13028   0.688   1.535   0.395  0.3142  0.0968 -0.4712
  838MOL0     C13029   0.562   1.466   0.382  0.4204  0.0099 -0.2310
  838MOL0     C13030   0.456   1.490   0.473  0.4881 -0.8254  0.0516
  838MOL0     O13031   0.346   1.412   0.461 -0.2220  0.2155 -0.1148
  838MOL0     C13032   0.267   1.383   0.579 -0.4436 -0.1889  0.2413
  838MOL0     C13033   0.182   1.259   0.574 -0.7452  0.3174  0.6089
  838MOL0     C13034   0.104   1.243   0.437 -1.1034 -0.5908  0.7629
  838MOL0     C13035  -0.043   1.276   0.408 -0.4591 -0.1586 -0.7428
  838MOL0     C13036  -0.082   1.419   0.463 -0.1088  0.1103  0.4300
  838MOL0     C13037  -0.209   1.484   0.406  0.3667 -0.8837 -0.8412
  838MOL0     C13038  -0.176   1.554   0.273  0.7736 -0.3693 -0.5627
  838MOL0     C13039  -0.299   1.646   0.247  0.3295 -0.1023 -0.1823
  838MOL0    Cl13040  -0.271   1.753   0.102 -0.1420 -0.5393 -0.5490
  838MOL0     C13041   0.470   1.602   0.563 -0.0128  0.9137  0.3343
  838MOL0     C13042   0.585   1.676   0.563 -0.4645 -0.3598  0.1113
  838MOL0     O13043   0.709   1.936   0.500 -0.4699 -0.4917 -0.2193
  838MOL0     C13044   1.056   1.839   0.520  0.9037 -0.1092  0.2048
  838MOL0     C13045   1.190   1.879   0.523  0.3138  0.0142  0.0829
  838MOL0     N13046   1.793   1.821   0.184 -0.0688  0.7131  0.5565
  838MOL0     N13047   1.920   1.828   0.162 -0.5010  0.1993 -0.7885
  838MOL0     C13048   2.357   2.844   0.770  1.1117  0.8198  1.1446
  838MOL0     C13049   2.402   2.889   0.888 -0.3700 -0.8161  0.2211
  838MOL0     C13050   2.689   2.854   1.251  0.4899 -0.5405  1.0691
  838MOL0     C13051   2.716   2.770   1.351  0.9662  0.2013  0.2863
  838MOL0     C13052   2.793   2.808   1.466 -0.6536 -0.4651  0.5579
  838MOL0     C13053   2.863   2.926   1.468 -0.4894  0.2216  0.3167
  838MOL0     O13054   2.932   2.952   1.581 -0.0337 -0.8295 -0.6065
  838MOL0     C13055   2.955   3.086   1.634  0.2520  0.4147  0.5203
  838MOL0     C13056   2.824   3.144   1.694  0.2725  0.3655 -0.0045
  838MOL0     C13057   2.782   3.072   1.822  0.7545 -0.1708 -1.2794
  838MOL0     C13058   2.700   3.177   1.909 -0.3495  0.4095  1.0709
  838MOL0     C13059   2.617   3.109   2.004  0.5311  0.8333 -0.0837
  838MOL0     C13060   2.538   3.052   2.072 -0.8370  0.2265 -0.6218
  838MOL0     C13061   2.848   3.013   1.363  0.3680 -0.0050  0.1001
  838MOL0     C13062   2.758   2.979   1.258  0.3972  0.8007 -0.0669
  838MOL0     H13063   2.716   2.780   0.848  0.0337  2.3316  0.0932
  838MOL0     H13064   2.636   2.693   0.651  1.3338  2.4940 -0.1914
  838MOL0     H13065   2.225   2.622   0.623  3.0647  0.3141  2.0979
  838MOL0     H13066   2.188   2.781   0.560  1.1351  1.2454 -0.5269
  838MOL0     H13067   2.127   2.644   0.380 -0.8633 -3.2876  1.4515
  838MOL0     H13068   2.284   2.694   0.336 -0.6992 -0.6133 -1.8252
  838MOL0     H13069   2.381   2.471   0.382 -0.6032 -0.7279  0.1070
  838MOL0     H13070   2.250   2.435   0.497  1.0705  0.7076  1.3472
  838MOL0     H13071   2.092   2.413   0.317  0.6739 -1.6600  3.2725
  838MOL0     H13072   2.220   2.447   0.195  3.2901  0.1299 -0.3201
  838MOL0     H13073   2.343   2.234   0.293 -0.8675 -0.2654 -0.8580
  838MOL0     H13074   2.222   2.218   0.413  1.5109 -3.1465 -0.7428
  838MOL0     H13075   2.046   2.171   0.255 -2.2751 -2.7095 -3.5076
  838MOL0     H13076   2.132   2.224   0.116 -1.4432 -0.2029  1.6761
  838MOL0     H13077   2.288   2.044   0.141  0.0376 -1.5850 -1.1525
  838MOL0     H13078   2.205   1.961   0.263  1.7048 -1.0671 -1.5395
  838MOL0     H13079   2.128   1.867   0.057 -0.6802 -0.8408 -0.4247
  838MOL0     H13080   2.098   2.031  -0.016 -0.1096 -2.8030 -1.8476
  838MOL0     H13081   1.833   2.128   0.073  3.3579  0.5945 -0.5709
  838MOL0     H13082   1.586   2.069   0.063 -1.7656 -2.5486 -1.0397
  838MOL0     H13083   1.544   1.928   0.144  0.1764  1.1181  1.3082
  838MOL0     H13084   1.484   2.138   0.241 -0.1443 -2.8076 -0.3915
  838MOL0     H13085   1.643   2.189   0.261 -1.1864  0.9910 -3.4735
  838MOL0     H13086   1.620   2.107   0.471 -0.2659 -0.2918  0.3859
  838MOL0     H13087   1.655   1.943   0.396 -1.7339 -1.4792 -0.5716
  838MOL0     H13088   1.469   1.951   0.561 -1.5435  1.7473  1.4647
  838MOL0     H13089   1.422   1.879   0.403 -1.5776 -0.1120 -0.3963
  838MOL0     H13090   1.127   2.210   0.448  0.8537  0.2346  2.1883
  838MOL0     H13091   0.828   2.178   0.556 -3.1531 -1.0841 -0.6722
  838MOL0     H13092   0.915   2.253   0.413 -2.4322  0.4387 -0.1856
  838MOL0     H13093   0.804   2.129   0.387  2.2565  1.6567 -2.4410
  838MOL0     H13094   0.771   1.494   0.338  1.1826  0.9791  0.1421
  838MOL0     H13095   0.556   1.384   0.311  0.8142  1.1279 -1.6075
  838MOL0     H13096   0.332   1.390   0.667  0.8944  0.4248 -0.7608
  838MOL0     H13097   0.199   1.468   0.591 -0.7228 -0.3374 -0.2777
  838MOL0     H13098   0.246   1.174   0.599  2.7256  2.5792  0.1811
  838MOL0     H13099   0.113   1.263   0.659 -1.2986  2.2133  0.1219
  838MOL0     H13100   0.127   1.141   0.406  2.0159  0.8575 -2.4021
  838MOL0     H13101   0.166   1.298   0.365 -1.0417 -0.6243  0.7904
  838MOL0     H13102  -0.069   1.276   0.301  1.3090  1.9999 -1.2444
  838MOL0     H13103  -0.108   1.201   0.454 -1.2789  1.1867  0.3743
  838MOL0     H13104   0.001   1.488   0.445 -0.0644 -0.5773 -2.4384
  838MOL0     H13105  -0.081   1.417   0.573  0.7956  1.6115  0.4783
  838MOL0     H13106  -0.292   1.414   0.389  0.5123 -0.4014 -4.0873
  838MOL0     H13107  -0.251   1.558   0.475 -1.9400 -2.1935 -0.7419
  838MOL0     H13108  -0.169   1.472   0.201  1.1259  1.1559 -2.3371
  838MOL0     H13109  -0.086   1.615   0.277  1.4039 -1.1038 -2.3501
  838MOL0     H13110  -0.307   1.715   0.332  2.9421 -0.6860  0.6172
  838MOL0     H13111  -0.384   1.578   0.239  0.3767 -0.3841  1.4738
  838MOL0     H13112   0.399   1.647   0.632  1.9042  3.9675  0.4907
  838MOL0     H13113   0.584   1.760   0.631 -1.5561 -3.1525  3.9018
  838MOL0     H13114   1.021   1.738   0.535 -2.3072  0.7104 -0.9564
  838MOL0     H13115   1.275   1.819   0.553 -0.6610 -0.6457  1.6771
  838MOL0     H13116   2.253   2.872   0.753 -0.6823 -3.2769  3.7015
  838MOL0     H13117   2.338   2.943   0.956 -1.0566 -1.6333  0.2467
  838MOL0     H13118   2.676   2.669   1.352  2.0643 -0.2727  2.0638
  838MOL0     H13119   2.818   2.730   1.537  3.1146  0.4059  0.4097
  838MOL0     H13120   3.018   3.072   1.723  0.8820  2.4721  0.4380
  838MOL0     H13121   3.009   3.144   1.558  0.4147 -2.0605 -1.4073
  838MOL0     H13122   2.740   3.152   1.625 -1.7171  2.7674  2.4445
  838MOL0     H13123   2.843   3.249   1.720  2.5840 -0.4050  1.7901
  838MOL0     H13124   2.870   3.040   1.879  0.5048 -0.4189 -1.0282
  838MOL0     H13125   2.738   2.973   1.804  0.2912 -0.8868  2.9048
  838MOL0     H13126   2.632   3.235   1.846  0.5621 -1.0303 -1.3898
  838MOL0     H13127   2.775   3.247   1.947  1.4176  0.2148 -1.7108
  838MOL0     H13128   2.464   3.016   2.140  0.5900 -1.5059  0.0966
  838MOL0     H13129   2.899   3.108   1.375 -1.9484  0.9984  3.6397
  838MOL0     H13130   2.740   3.043   1.173 -0.5855  0.2512 -0.2849
  839MOL0     O13131   6.229  10.240  11.185 -0.1841 -0.0848  0.1195
  839MOL0     C13132   6.315  10.185  11.119  0.3060  0.2165 -0.1905
  839MOL0     O13133   6.445  10.166  11.155 -0.0020  0.3440 -0.5655
  839MOL0     C13134   6.489  10.167  11.286 -0.8034  0.2171 -1.7082
  839MOL0     C13135   6.614  10.230  11.320 -0.0051  0.9501  0.9337
  839MOL0     C13136   6.653  10.235  11.447 -1.0450  0.0596  1.1664
  839MOL0     C13137   6.578  10.175  11.557  0.0215 -0.0785  0.8024
  839MOL0     O13138   6.585  10.204  11.687  0.4155  0.1421 -0.4578
  839MOL0     C13139   6.683  10.305  11.727  0.6900  0.4280 -1.0773
  839MOL0     C13140   6.634  10.451  11.696 -0.3842  0.0023  0.2808
  839MOL0     C13141   6.503  10.503  11.774  0.2338  0.2328  0.4263
  839MOL0     C13142   6.510  10.638  11.850  0.5274  0.6471 -0.0971
  839MOL0     C13143   6.599  10.632  11.978  0.3856  0.5517  0.1688
  839MOL0     C13144   6.608  10.766  12.046 -0.5976  0.7306 -0.5608
  839MOL0     C13145   6.748  10.780  12.117  0.1228  0.3749  1.0571
  839MOL0     C13146   6.786  10.932  12.154  0.2195 -0.4526 -0.2961
  839MOL0     N13147   6.719  10.993  12.270  0.3608 -0.3572 -0.5489
  839MOL0     C13148   6.594  11.045  12.280  0.3239 -0.2247 -0.0880
  839MOL0     C13149   6.590  11.099  12.406 -0.1485  0.4265  0.4013
  839MOL0     C13150   6.480  11.170  12.471 -0.2684 -0.4874  0.4904
  839MOL0     C13151   6.389  11.088  12.565 -0.2712 -0.1954  1.1178
  839MOL0     C13152   6.310  11.181  12.658  0.0107  0.9281  0.2337
  839MOL0     C13153   6.240  11.095  12.761 -0.0722 -0.4774  0.3311
  839MOL0     O13154   6.342  11.048  12.849  1.0577  0.3000 -0.4270
  839MOL0     C13155   6.362  11.120  12.959 -0.1096 -0.1365 -0.0639
  839MOL0     C13156   6.471  11.208  12.970 -0.0149 -0.7787  0.0221
  839MOL0     C13157   6.497  11.274  13.090 -1.5781  0.0116  0.5838
  839MOL0     C13158   6.634  11.345  13.121 -0.0756 -0.1288  0.8918
  839MOL0     C13159   6.409  11.254  13.199 -0.3164 -0.1323  1.0001
  839MOL0     C13160   6.412  11.311  13.329 -1.2071 -0.2011  1.3887
  839MOL0     O13161   6.439  11.240  13.445 -0.5129  0.4181 -0.4753
  839MOL0     C13162   6.454  11.319  13.556  0.2462  0.5326  0.7813
  839MOL0     C13163   6.348  11.337  13.634  0.0686 -0.2789  0.2960
  839MOL0     C13164   6.362  11.420  13.751 -0.6354  0.5342 -0.4400
  839MOL0     C13165   6.485  11.489  13.779  0.4247 -0.2543 -0.0651
  839MOL0     O13166   6.469  11.583  13.880 -0.1324  0.2275  0.0629
  839MOL0     C13167   6.545  11.708  13.864  0.0283 -0.0119 -0.2937
  839MOL0     C13168   6.579  11.759  14.006  0.3048 -0.7319 -0.1697
  839MOL0     C13169   6.653  11.670  14.101  0.1129  1.1873  0.2966
  839MOL0     C13170   6.795  11.609  14.073 -0.0015 -0.6245 -0.0583
  839MOL0     C13171   6.836  11.508  14.178 -0.2623  0.1906 -0.3223
  839MOL0     C13172   6.735  11.406  14.226  0.6499  0.7628 -0.1705
  839MOL0     C13173   6.653  11.329  14.111 -0.7330 -0.8624 -0.0652
  839MOL0     C13174   6.508  11.287  14.148 -0.1032  0.7224 -0.5832
  839MOL0    Cl13175   6.496  11.151  14.268 -0.2996  0.1880  0.6481
  839MOL0     C13176   6.595  11.468  13.708 -0.3970 -0.1168  0.7272
  839MOL0     C13177   6.584  11.380  13.595 -0.0293 -0.7770 -0.1062
  839MOL0     O13178   6.366  11.427  13.319 -0.4388  0.5446 -0.2754
  839MOL0     C13179   6.297  11.173  13.182 -0.4018  0.6676  0.3065
  839MOL0     C13180   6.282  11.103  13.066  0.1361 -0.5659 -0.6953
  839MOL0     N13181   6.711  11.078  12.465 -0.0877 -0.9576 -0.3705
  839MOL0     N13182   6.784  11.008  12.384  0.5910 -0.9303 -0.1596
  839MOL0     C13183   6.459  10.114  11.519  0.3702 -0.1497 -0.1289
  839MOL0     C13184   6.416  10.107  11.387  0.5156 -0.5514  1.1778
  839MOL0     C13185   6.299  10.174  10.970  0.2195 -0.4371 -0.3894
  839MOL0     C13186   6.169  10.175  10.912  0.1111 -0.1402  0.3322
  839MOL0     C13187   6.155  10.168  10.775 -0.5200 -0.7537  0.1462
  839MOL0     C13188   6.267  10.181  10.689 -0.5005  0.2941  0.1318
  839MOL0     O13189   6.254  10.174  10.548 -0.5958  1.0635 -0.5928
  839MOL0     C13190   6.133  10.213  10.475  0.5731 -0.1951  1.5438
  839MOL0     C13191   6.048  10.091  10.467  0.1631 -0.7239  0.1969
  839MOL0     C13192   6.085   9.996  10.351  0.2775  0.4580 -0.4889
  839MOL0     C13193   5.993   9.870  10.360  0.1443 -0.1270  0.0558
  839MOL0     C13194   6.038   9.761  10.275 -0.2452 -0.4974  0.4059
  839MOL0     C13195   6.031   9.667  10.199  0.9469  0.0254 -1.0494
  839MOL0     C13196   6.397  10.175  10.747 -0.5450  1.4131 -1.0213
  839MOL0     C13197   6.407  10.180  10.888 -0.6466 -0.0499 -0.2457
  839MOL0     H13198   6.680  10.274  11.246  0.3888 -2.9859 -1.2752
  839MOL0     H13199   6.746  10.284  11.472 -0.1999 -1.1871  0.5681
  839MOL0     H13200   6.707  10.291  11.833  0.0683 -1.7490 -1.1702
  839MOL0     H13201   6.779  10.285  11.679  0.6177  1.6818 -1.7756
  839MOL0     H13202   6.718  10.518  11.716 -0.2580  0.5532 -1.8505
  839MOL0     H13203   6.609  10.460  11.590  0.8497  2.4972  0.1277
  839MOL0     H13204   6.423  10.511  11.699  0.3563 -2.9058 -0.1801
  839MOL0     H13205   6.455  10.418  11.823 -3.3835  0.4739 -2.2195
  839MOL0     H13206   6.563  10.706  11.783 -1.5483  0.6262 -1.8849
  839MOL0     H13207   6.410  10.676  11.874  0.2789  0.8675 -1.4334
  839MOL0     H13208   6.551  10.568  12.052  1.5331  1.7773  2.0485
  839MOL0     H13209   6.698  10.595  11.951 -0.4187  0.4853 -3.1353
  839MOL0     H13210   6.610  10.849  11.974 -2.5961  1.5803  0.2854
  839MOL0     H13211   6.531  10.783  12.122  0.8288  0.1619  1.0789
  839MOL0     H13212   6.751  10.718  12.207 -0.8538  1.6505  2.0111
  839MOL0     H13213   6.823  10.740  12.048 -3.3420 -1.8817 -1.7532
  839MOL0     H13214   6.775  10.991  12.063  2.2277 -3.4629 -2.7024
  839MOL0     H13215   6.894  10.933  12.175  0.1055  0.0803  0.2958
  839MOL0     H13216   6.519  11.060  12.203 -1.2383  1.1316  1.6018
  839MOL0     H13217   6.519  11.254  12.530 -2.9945  0.2155  1.4166
  839MOL0     H13218   6.407  11.201  12.396 -1.3766 -2.3106  0.7527
  839MOL0     H13219   6.460  11.031  12.625 -0.3215  2.2879  3.7284
  839MOL0     H13220   6.327  11.014  12.513  1.4281 -2.3587  2.0383
  839MOL0     H13221   6.251  11.234  12.584  0.5464 -0.6410 -1.4065
  839MOL0     H13222   6.363  11.260  12.712 -2.0032  0.9553  2.3347
  839MOL0     H13223   6.183  11.012  12.719  2.7871 -1.4938 -1.8979
  839MOL0     H13224   6.174  11.163  12.817  0.2508  0.6969 -0.6712
  839MOL0     H13225   6.532  11.219  12.882 -0.0420  2.9091  0.3342
  839MOL0     H13226   6.621  11.453  13.116  0.4598 -0.0761  0.6506
  839MOL0     H13227   6.673  11.318  13.219 -2.5941  0.7028  2.2086
  839MOL0     H13228   6.706  11.320  13.042 -1.5547  0.8861 -0.8627
  839MOL0     H13229   6.259  11.281  13.605 -1.7009  2.6081 -0.2306
  839MOL0     H13230   6.278  11.445  13.815 -0.5594 -0.1362 -0.0629
  839MOL0     H13231   6.636  11.702  13.803 -0.3344 -1.4453 -0.7215
  839MOL0     H13232   6.469  11.774  13.820 -1.5269 -1.8736 -0.5484
  839MOL0     H13233   6.635  11.853  14.007 -2.5930  1.0931  0.8567
  839MOL0     H13234   6.490  11.788  14.062  1.6498  0.0628  1.6734
  839MOL0     H13235   6.589  11.583  14.120  3.4267 -1.5537  0.1458
  839MOL0     H13236   6.665  11.719  14.198 -0.0519 -0.9048  1.4420
  839MOL0     H13237   6.799  11.563  13.974  0.1652 -1.3042  0.2649
  839MOL0     H13238   6.858  11.699  14.080  0.6312 -0.9658 -1.0733
  839MOL0     H13239   6.874  11.553  14.270 -3.7608 -2.8162  2.8996
  839MOL0     H13240   6.912  11.441  14.136  0.9528 -1.7204  4.3564
  839MOL0     H13241   6.802  11.349  14.291  4.5831  4.4926 -0.5104
  839MOL0     H13242   6.661  11.452  14.293 -0.4274  0.1127 -0.8858
  839MOL0     H13243   6.714  11.243  14.085  1.4791  0.6657 -0.2508
  839MOL0     H13244   6.653  11.388  14.019 -0.6471 -0.0459  0.4425
  839MOL0     H13245   6.461  11.246  14.058  0.0548 -2.7005  0.7410
  839MOL0     H13246   6.451  11.374  14.182 -1.3755  0.2608 -1.4702
  839MOL0     H13247   6.693  11.512  13.720 -2.1147  4.8555 -0.7101
  839MOL0     H13248   6.676  11.359  13.541 -0.6945  0.4441 -1.8337
  839MOL0     H13249   6.220  11.164  13.258  0.0560 -0.7297  0.6471
  839MOL0     H13250   6.193  11.041  13.057 -2.8357  2.4722  3.7038
  839MOL0     H13251   6.393  10.074  11.595  2.3472 -1.4150  1.0147
  839MOL0     H13252   6.320  10.072  11.350  1.8205 -1.0414 -2.1229
  839MOL0     H13253   6.084  10.165  10.979  0.4958  1.3498  1.0873
  839MOL0     H13254   6.056  10.161  10.730 -0.5822 -2.7602  0.5436
  839MOL0     H13255   6.087  10.309  10.502  1.1536  0.9074 -1.0671
  839MOL0     H13256   6.159  10.241  10.373 -2.2998 -2.6676 -0.0159
  839MOL0     H13257   5.943  10.123  10.468  0.1929 -0.6062 -0.3337
  839MOL0     H13258   6.059  10.029  10.557 -2.7217 -2.4361 -0.4928
  839MOL0     H13259   6.188   9.961  10.362  0.0137 -0.1315  0.2088
  839MOL0     H13260   6.065  10.049  10.258 -0.5911 -0.9673 -1.1526
  839MOL0     H13261   5.889   9.899  10.339  0.7642  2.1826 -0.0557
  839MOL0     H13262   5.988   9.833  10.463 -2.9929  0.1230  0.1021
  839MOL0     H13263   6.020   9.581  10.136 -0.9564 -1.8073  1.5918
  839MOL0     H13264   6.479  10.180  10.676  2.2236 -0.6363  1.7575
  839MOL0     H13265   6.509  10.203  10.917 -0.6189  2.1395 -1.7917
  840MOL0     O13266   6.230   6.061   7.720  0.2312  0.0199 -0.2092
  840MOL0     C13267   6.255   6.180   7.737  0.9544  0.2180 -0.6580
  840MOL0     O13268   6.311   6.236   7.843 -0.3077 -0.4929 -0.3298
  840MOL0     C13269   6.364   6.161   7.946 -0.2159  1.0456  0.7746
  840MOL0     C13270   6.429   6.026   7.931 -0.2537  0.6346 -0.4661
  840MOL0     C13271   6.476   5.948   8.035  0.4557  0.1032 -0.4230
  840MOL0     C13272   6.469   5.999   8.168 -0.9494  1.2697 -0.3355
  840MOL0     O13273   6.511   5.915   8.268  0.5361  0.2520  0.2088
  840MOL0     C13274   6.637   5.949   8.331  0.6656 -0.3677 -0.2058
  840MOL0     C13275   6.700   5.828   8.407 -0.3980 -0.4568 -0.5733
  840MOL0     C13276   6.753   5.716   8.311  0.1947 -0.6265 -0.3055
  840MOL0     C13277   6.844   5.611   8.383  0.7626  0.5545 -0.4075
  840MOL0     C13278   6.880   5.497   8.291 -0.1041  0.1553 -0.2745
  840MOL0     C13279   6.986   5.403   8.337 -0.3970  0.1506  0.0667
  840MOL0     C13280   6.993   5.275   8.252  0.2273  0.4061  0.4584
  840MOL0     C13281   7.082   5.167   8.313  0.6052  0.2128 -0.3194
  840MOL0     N13282   7.107   5.045   8.254 -0.1215 -0.3623  0.0215
  840MOL0     C13283   7.117   5.015   8.124  1.0684  0.6582 -0.0622
  840MOL0     C13284   7.137   4.885   8.115  0.8364  0.5965 -0.5275
  840MOL0     C13285   7.129   4.798   7.992 -0.4722 -0.0149  0.1358
  840MOL0     C13286   7.258   4.811   7.911 -0.2145  0.9698 -0.0526
  840MOL0     C13287   7.379   4.767   7.986  0.0905  0.3063  0.4198
  840MOL0     C13288   7.510   4.767   7.913 -0.0431  0.4280 -0.5587
  840MOL0     O13289   7.520   4.883   7.832  0.1166  0.2998  0.4220
  840MOL0     C13290   7.634   4.891   7.749  0.0378  0.0603  0.7741
  840MOL0     C13291   7.753   4.808   7.741 -0.0854  0.8699  0.8231
  840MOL0     C13292   7.860   4.839   7.659 -0.2940 -0.4226  0.4077
  840MOL0     C13293   7.981   4.747   7.688 -1.2234  0.3787  0.8945
  840MOL0     C13294   7.852   4.956   7.572 -0.5183  0.3357 -0.6920
  840MOL0     C13295   7.960   4.983   7.473  0.2075  0.1898  0.2386
  840MOL0     O13296   7.974   5.107   7.436 -0.5158 -0.1020 -0.1059
  840MOL0     C13297   8.078   5.151   7.352 -0.0000  0.8812  0.8066
  840MOL0     C13298   8.069   5.289   7.311  0.1432 -0.5227 -0.6484
  840MOL0     C13299   8.162   5.348   7.232  0.6411 -0.4152 -0.8856
  840MOL0     C13300   8.274   5.274   7.190  0.6948  0.4788 -0.4906
  840MOL0     O13301   8.356   5.343   7.105  0.3575  0.2773 -0.6490
  840MOL0     C13302   8.483   5.290   7.062  0.0670 -0.7555 -0.1011
  840MOL0     C13303   8.587   5.293   7.178 -0.9162 -0.2523  0.2433
  840MOL0     C13304   8.704   5.201   7.135 -0.1207 -0.4141 -0.3248
  840MOL0     C13305   8.840   5.237   7.209 -0.1833 -0.7590 -0.2961
  840MOL0     C13306   8.894   5.114   7.277  0.2271 -0.9173 -0.5238
  840MOL0     C13307   9.043   5.121   7.309 -0.2627  0.5335 -0.2244
  840MOL0     C13308   9.077   4.990   7.390 -0.2325 -0.4038 -0.7844
  840MOL0     C13309   9.221   4.998   7.425  0.3921 -0.1516 -0.3149
  840MOL0    Cl13310   9.263   5.138   7.537  0.1442 -0.2237 -0.5454
  840MOL0     C13311   8.288   5.134   7.218  0.6422  0.0990 -0.1440
  840MOL0     C13312   8.193   5.075   7.305  0.1004 -0.3742  0.2284
  840MOL0     O13313   8.029   4.889   7.434 -0.5154 -0.8618  0.1931
  840MOL0     C13314   7.740   5.037   7.583  0.0983  0.0256 -0.2299
  840MOL0     C13315   7.631   4.997   7.661  0.0004 -0.7929 -0.0337
  840MOL0     N13316   7.157   4.835   8.247 -0.4214  0.4334 -0.4659
  840MOL0     N13317   7.140   4.934   8.323 -0.5510  0.1151 -0.1697
  840MOL0     C13318   6.415   6.127   8.180  0.1378 -0.3962  0.1197
  840MOL0     C13319   6.359   6.208   8.075 -1.0439  1.3208 -0.4216
  840MOL0     C13320   6.214   6.276   7.631  0.0535 -0.3584 -0.2448
  840MOL0     C13321   6.134   6.248   7.521  0.2545  0.5359 -0.8245
  840MOL0     C13322   6.098   6.340   7.425 -0.1654  0.3603  0.6508
  840MOL0     C13323   6.134   6.473   7.445 -0.6276 -0.1513 -0.0336
  840MOL0     O13324   6.087   6.572   7.365 -0.0654 -0.2174  0.6173
  840MOL0     C13325   6.000   6.552   7.254 -0.3362  0.3003  0.2263
  840MOL0     C13326   5.930   6.684   7.232 -0.0571 -0.1719 -0.0543
  840MOL0     C13327   5.786   6.668   7.300  0.3632  0.3486  0.0035
  840MOL0     C13328   5.790   6.673   7.453 -0.0664  0.1599 -0.1017
  840MOL0     C13329   5.685   6.766   7.503  0.7134 -0.1911  0.1714
  840MOL0     C13330   5.591   6.829   7.537  0.2145 -0.5204  0.0382
  840MOL0     C13331   6.210   6.503   7.551  0.2895  0.2018  0.1452
  840MOL0     C13332   6.251   6.405   7.646 -0.5320 -0.4613  0.3428
  840MOL0     H13333   6.427   5.990   7.828  1.6310 -2.8807  0.5724
  840MOL0     H13334   6.519   5.850   8.014  1.3303  1.0429 -3.5583
  840MOL0     H13335   6.697   5.980   8.244  1.5894 -0.6378  0.3138
  840MOL0     H13336   6.624   6.032   8.401  1.5252 -0.6662  0.3328
  840MOL0     H13337   6.790   5.869   8.453 -1.3967  2.1599 -0.7903
  840MOL0     H13338   6.629   5.781   8.476 -0.7672  0.7465 -0.1138
  840MOL0     H13339   6.669   5.668   8.260  1.2894 -0.2919 -2.5667
  840MOL0     H13340   6.816   5.762   8.234  0.1405 -0.3837 -0.2048
  840MOL0     H13341   6.932   5.666   8.416  0.5608  0.4425  0.3276
  840MOL0     H13342   6.793   5.564   8.468  1.9729 -0.4075 -0.1855
  840MOL0     H13343   6.788   5.438   8.292 -1.7174  2.5320 -0.1451
  840MOL0     H13344   6.908   5.535   8.192 -0.0145 -0.6855 -0.5743
  840MOL0     H13345   7.081   5.457   8.336  0.0913 -0.6951 -0.1117
  840MOL0     H13346   6.954   5.374   8.437  0.8609 -0.0430  0.4305
  840MOL0     H13347   6.888   5.244   8.245 -0.2050  1.2956  2.3546
  840MOL0     H13348   7.034   5.297   8.153  0.3372 -0.5061  0.2962
  840MOL0     H13349   7.030   5.134   8.404 -0.7921 -1.8836 -1.7943
  840MOL0     H13350   7.176   5.217   8.339 -0.2951  1.5983  0.3942
  840MOL0     H13351   7.086   5.070   8.036  0.6689 -0.5596 -0.7188
  840MOL0     H13352   7.102   4.696   8.022 -2.6995  0.6110  0.4802
  840MOL0     H13353   7.050   4.825   7.922  0.5556  0.1430 -0.9787
  840MOL0     H13354   7.267   4.913   7.873  0.1971  1.6181  1.6601
  840MOL0     H13355   7.235   4.746   7.827  1.1897 -0.4844  0.6233
  840MOL0     H13356   7.361   4.671   8.035 -1.2771  0.8418  1.0369
  840MOL0     H13357   7.389   4.837   8.070 -0.5970 -0.4593  1.1724
  840MOL0     H13358   7.523   4.670   7.866  0.7299  0.4549 -0.4113
  840MOL0     H13359   7.594   4.776   7.983  0.4621 -0.0914 -1.0928
  840MOL0     H13360   7.758   4.734   7.820  1.7669 -1.3265 -1.2092
  840MOL0     H13361   8.065   4.749   7.618 -1.7308 -1.8846  0.1111
  840MOL0     H13362   8.026   4.780   7.782 -1.7011  2.5724  0.3963
  840MOL0     H13363   7.951   4.642   7.691  3.6060 -1.2467  0.9878
  840MOL0     H13364   7.989   5.352   7.349 -0.8254 -1.5652 -0.9014
  840MOL0     H13365   8.160   5.454   7.209 -0.6296 -0.2482 -0.0565
  840MOL0     H13366   8.460   5.186   7.040 -3.6335  0.2848 -1.9925
  840MOL0     H13367   8.528   5.338   6.975 -1.2131  1.0764  0.1900
  840MOL0     H13368   8.626   5.393   7.199  0.9749 -1.1945  1.6395
  840MOL0     H13369   8.555   5.260   7.277  0.9060 -0.3429  0.8501
  840MOL0     H13370   8.706   5.202   7.026  1.5459  1.7767 -0.3448
  840MOL0     H13371   8.672   5.102   7.170 -0.5262 -2.3057 -5.3160
  840MOL0     H13372   8.909   5.279   7.135 -0.9519  0.3185 -0.4311
  840MOL0     H13373   8.825   5.309   7.290  2.5013 -0.3602 -0.0909
  840MOL0     H13374   8.890   5.032   7.204 -0.2965 -1.2066 -0.1770
  840MOL0     H13375   8.834   5.089   7.365  1.4323  0.9848  0.9105
  840MOL0     H13376   9.096   5.108   7.214 -1.5517 -4.0219 -0.5526
  840MOL0     H13377   9.075   5.212   7.361 -1.5157  0.7293  0.2393
  840MOL0     H13378   9.061   4.897   7.335  0.5918 -1.4619  0.7086
  840MOL0     H13379   9.018   4.992   7.482  0.9313  1.9194  0.0063
  840MOL0     H13380   9.289   5.007   7.340  0.9771  3.1173  0.3668
  840MOL0     H13381   9.241   4.902   7.472  1.2574  0.4317  0.5230
  840MOL0     H13382   8.362   5.067   7.177 -1.9150 -2.6884 -0.5961
  840MOL0     H13383   8.211   4.969   7.318  1.4823 -0.6620 -2.9894
  840MOL0     H13384   7.734   5.129   7.525  0.0440  1.5383  2.0327
  840MOL0     H13385   7.541   5.057   7.653  0.7613  0.5049  0.7280
  840MOL0     H13386   6.420   6.172   8.279 -0.5704  1.6475 -0.7252
  840MOL0     H13387   6.326   6.308   8.101  0.6651  1.8543 -0.2243
  840MOL0     H13388   6.093   6.148   7.513 -2.8167  1.5761  0.4639
  840MOL0     H13389   6.021   6.303   7.357  0.4581 -0.9337  0.6084
  840MOL0     H13390   6.062   6.518   7.170  2.2729  2.7977  1.0000
  840MOL0     H13391   5.926   6.474   7.273 -1.4492  1.7370  2.0679
  840MOL0     H13392   5.909   6.715   7.129 -0.6373  0.0112  0.1155
  840MOL0     H13393   5.990   6.761   7.281  1.9177 -1.7970  0.1863
  840MOL0     H13394   5.742   6.571   7.275  2.6074 -2.1760  4.5841
  840MOL0     H13395   5.714   6.740   7.261 -0.0365 -0.1556 -0.2055
  840MOL0     H13396   5.879   6.712   7.503  1.4029  0.8285 -3.0266
  840MOL0     H13397   5.776   6.569   7.484 -0.0332  0.4873  1.0333
  840MOL0     H13398   5.508   6.889   7.566 -0.1948 -1.2164  0.3386
  840MOL0     H13399   6.236   6.608   7.559  1.6155  0.2127 -2.8591
  840MOL0     H13400   6.321   6.434   7.723  0.1323  1.7814 -0.9952
  841MOL0     O13401   7.841   1.419   8.373  0.2254 -0.8957 -0.1837
  841MOL0     C13402   7.745   1.480   8.423  0.3040  0.1405  0.2092
  841MOL0     O13403   7.733   1.533   8.555 -0.1586  0.7272  0.1304
  841MOL0     C13404   7.842   1.552   8.636  0.4029  0.1084 -0.0223
  841MOL0     C13405   7.934   1.447   8.641 -0.3318 -0.3758 -0.3318
  841MOL0     C13406   8.049   1.461   8.718  0.2024  1.4036 -1.0125
  841MOL0     C13407   8.076   1.576   8.787 -0.4560 -0.6462 -0.9546
  841MOL0     O13408   8.183   1.595   8.879 -0.1947 -0.3909  1.2283
  841MOL0     C13409   8.254   1.721   8.860 -0.1023 -0.9150  0.6213
  841MOL0     C13410   8.399   1.717   8.902 -0.7382 -0.4845  0.3697
  841MOL0     C13411   8.481   1.823   8.810 -0.6384  0.2145  0.3330
  841MOL0     C13412   8.466   1.969   8.847 -0.5954 -0.4813 -0.9400
  841MOL0     C13413   8.540   2.072   8.757  0.2127 -0.4979 -0.9972
  841MOL0     C13414   8.558   2.206   8.835 -1.2420 -0.0567 -0.7484
  841MOL0     C13415   8.636   2.310   8.747  0.0014 -1.1334 -0.2127
  841MOL0     C13416   8.725   2.408   8.813 -0.4748  0.2259  0.3597
  841MOL0     N13417   8.678   2.518   8.894  0.3555  0.3190  0.5047
  841MOL0     C13418   8.543   2.529   8.921 -0.4483 -0.8632 -1.2849
  841MOL0     C13419   8.540   2.613   9.026  0.1080 -0.2914 -0.5145
  841MOL0     C13420   8.411   2.639   9.101  0.1967  0.1380 -1.0900
  841MOL0     C13421   8.374   2.791   9.119  0.7694  0.4539  0.3988
  841MOL0     C13422   8.351   2.851   8.985 -0.6048  0.0186 -0.2794
  841MOL0     C13423   8.318   2.999   9.007  0.7245  0.6354  1.4611
  841MOL0     O13424   8.302   3.074   8.883 -0.5003 -0.2974 -0.2916
  841MOL0     C13425   8.216   3.040   8.791  0.4629  0.3291 -0.2652
  841MOL0     C13426   8.100   2.973   8.813 -0.1346  0.2144  0.4490
  841MOL0     C13427   8.009   2.934   8.712  0.9645 -1.0384 -0.3467
  841MOL0     C13428   7.877   2.873   8.763 -0.5491  0.2314  0.9446
  841MOL0     C13429   8.050   2.942   8.583  0.6150 -0.1563 -0.1370
  841MOL0     C13430   7.967   2.894   8.461 -0.0350  0.2449 -0.2928
  841MOL0     O13431   7.857   2.820   8.478 -0.4370 -0.6198 -0.5344
  841MOL0     C13432   7.791   2.782   8.362 -0.9764 -0.1536 -0.5113
  841MOL0     C13433   7.679   2.856   8.323  0.8013  0.2826  0.2113
  841MOL0     C13434   7.598   2.810   8.219 -0.7982 -0.2943  0.0569
  841MOL0     C13435   7.642   2.692   8.150 -0.3013  0.9118 -0.4234
  841MOL0     O13436   7.584   2.646   8.038  0.2301  0.1350 -0.5023
  841MOL0     C13437   7.454   2.594   8.057  0.0088  0.1714  0.8224
  841MOL0     C13438   7.429   2.518   7.927 -0.0669  0.0023  0.4170
  841MOL0     C13439   7.276   2.500   7.896  0.0838 -0.5673  0.9195
  841MOL0     C13440   7.209   2.418   8.008  0.3580 -0.4634  0.1983
  841MOL0     C13441   7.057   2.384   7.977 -0.6622  0.7658  1.0125
  841MOL0     C13442   7.064   2.281   7.863  0.3325 -0.3052  0.1803
  841MOL0     C13443   6.931   2.249   7.799 -0.3582  0.6059 -0.4387
  841MOL0     C13444   6.948   2.127   7.708  0.7049  0.1873  0.1280
  841MOL0    Cl13445   6.787   2.049   7.684 -0.2428  0.7215  0.5031
  841MOL0     C13446   7.745   2.617   8.195  0.8395  0.6670  0.4753
  841MOL0     C13447   7.818   2.659   8.305  1.2124 -0.5656 -0.1252
  841MOL0     O13448   8.020   2.907   8.350 -0.4577 -0.4900 -0.0857
  841MOL0     C13449   8.170   3.013   8.556 -0.1640  0.1360  0.3612
  841MOL0     C13450   8.253   3.062   8.660 -0.5972  0.0805 -0.1659
  841MOL0     N13451   8.670   2.657   9.058  0.2634  0.8080  0.2493
  841MOL0     N13452   8.755   2.595   8.976 -0.1538 -0.0727 -0.0071
  841MOL0     C13453   7.980   1.686   8.782 -0.2707 -0.2739  0.8460
  841MOL0     C13454   7.857   1.670   8.710  0.1635 -0.5149  0.5436
  841MOL0     C13455   7.621   1.497   8.344 -0.2873  0.0462  1.2198
  841MOL0     C13456   7.548   1.619   8.362  0.3920 -0.6335  0.5513
  841MOL0     C13457   7.431   1.644   8.290  0.3270 -0.3064  1.0424
  841MOL0     C13458   7.393   1.563   8.183  0.0499  0.0868  1.5542
  841MOL0     O13459   7.278   1.601   8.118  0.4320  1.1998  0.1029
  841MOL0     C13460   7.236   1.536   7.995 -0.9098  0.4887 -0.3200
  841MOL0     C13461   7.306   1.607   7.871  0.5940 -0.4222 -0.4120
  841MOL0     C13462   7.277   1.759   7.872 -0.5285 -0.0359 -0.3536
  841MOL0     C13463   7.335   1.837   7.748  0.9556  0.7813 -0.8234
  841MOL0     C13464   7.333   1.979   7.783 -0.1517  0.0233  0.0504
  841MOL0     C13465   7.333   2.103   7.800 -0.2868 -0.3947  0.0269
  841MOL0     C13466   7.477   1.442   8.154  0.4206 -0.1945  0.4686
  841MOL0     C13467   7.590   1.415   8.234  0.0079 -0.8534  0.3254
  841MOL0     H13468   7.911   1.358   8.583  1.7194 -1.6252  0.6638
  841MOL0     H13469   8.114   1.375   8.716 -0.8629  0.5530 -0.2728
  841MOL0     H13470   8.247   1.757   8.757  2.5020  2.5966  1.4725
  841MOL0     H13471   8.212   1.793   8.930  1.3472 -1.5018  2.1661
  841MOL0     H13472   8.414   1.733   9.009  1.4920 -0.8043  0.1639
  841MOL0     H13473   8.433   1.615   8.881 -1.3960 -0.6249 -0.0333
  841MOL0     H13474   8.584   1.786   8.819 -1.0726 -0.8728  1.1041
  841MOL0     H13475   8.449   1.816   8.706 -0.0197  0.8644  0.0986
  841MOL0     H13476   8.358   1.984   8.856 -0.2848  1.1880  0.6118
  841MOL0     H13477   8.508   1.964   8.948  0.5007 -1.7656 -1.4337
  841MOL0     H13478   8.645   2.043   8.745  0.2836 -0.4257 -0.5789
  841MOL0     H13479   8.482   2.092   8.667 -0.7161  1.4485 -0.0283
  841MOL0     H13480   8.462   2.249   8.864 -0.4846  2.9776 -2.3041
  841MOL0     H13481   8.616   2.187   8.926 -1.8971  0.6482 -0.1738
  841MOL0     H13482   8.686   2.255   8.667  0.4792 -1.8398  0.5524
  841MOL0     H13483   8.562   2.372   8.695 -0.3767  0.2437  1.8489
  841MOL0     H13484   8.769   2.446   8.720 -2.2809 -1.1788 -1.1378
  841MOL0     H13485   8.804   2.359   8.870  0.6680  0.8245 -0.6541
  841MOL0     H13486   8.462   2.484   8.865 -2.2199  1.2738 -0.5847
  841MOL0     H13487   8.324   2.591   9.054 -0.6768 -1.3895  1.8782
  841MOL0     H13488   8.437   2.595   9.197 -0.7868  5.0834  1.7375
  841MOL0     H13489   8.458   2.842   9.166  1.8413 -0.5807 -0.3054
  841MOL0     H13490   8.299   2.805   9.197  0.8170  0.1141  0.5113
  841MOL0     H13491   8.273   2.801   8.928  0.0720 -2.2467  0.6796
  841MOL0     H13492   8.441   2.844   8.924  0.3885 -0.6432  1.2032
  841MOL0     H13493   8.393   3.045   9.072 -0.3473  0.9781  2.4891
  841MOL0     H13494   8.226   3.004   9.065 -1.2166 -2.1426 -1.0806
  841MOL0     H13495   8.059   2.954   8.912 -1.3277 -0.1231 -0.0869
  841MOL0     H13496   7.881   2.764   8.752 -3.7606  0.2364 -1.7947
  841MOL0     H13497   7.878   2.903   8.869 -0.1724  2.0660  0.4575
  841MOL0     H13498   7.786   2.912   8.716 -0.2490 -2.2262 -1.9876
  841MOL0     H13499   7.654   2.951   8.369  6.6084  2.2576  0.0857
  841MOL0     H13500   7.515   2.866   8.177  1.0725 -0.6487 -4.7856
  841MOL0     H13501   7.452   2.525   8.141 -1.0918  1.5378  1.9758
  841MOL0     H13502   7.383   2.677   8.063 -1.9752 -0.9229 -3.5457
  841MOL0     H13503   7.475   2.565   7.839  0.8795 -0.1394  0.8261
  841MOL0     H13504   7.473   2.418   7.926 -0.1840 -0.0503  0.5855
  841MOL0     H13505   7.267   2.449   7.799 -0.3365 -0.9137  1.1368
  841MOL0     H13506   7.228   2.598   7.897 -2.1394 -1.5717  0.5128
  841MOL0     H13507   7.265   2.326   8.028  1.0457  0.0252  0.5451
  841MOL0     H13508   7.205   2.489   8.091 -2.6371  1.6369 -1.4936
  841MOL0     H13509   7.001   2.469   7.938 -2.3381 -1.1817 -1.0420
  841MOL0     H13510   7.011   2.346   8.069 -1.3044  0.0594  0.3999
  841MOL0     H13511   7.137   2.305   7.784  1.3126 -1.3440  0.7339
  841MOL0     H13512   7.108   2.192   7.910 -1.1250 -0.9373  0.3859
  841MOL0     H13513   6.893   2.327   7.732  0.7236 -0.3243 -2.2078
  841MOL0     H13514   6.863   2.242   7.884  1.0697  1.0115  0.7731
  841MOL0     H13515   7.020   2.056   7.750  2.4137  2.1642  0.6820
  841MOL0     H13516   6.988   2.166   7.615  1.1380  0.0560  0.2559
  841MOL0     H13517   7.770   2.535   8.128 -0.6874 -0.1125  0.8080
  841MOL0     H13518   7.899   2.596   8.339 -0.5449 -2.9282  0.0156
  841MOL0     H13519   8.195   3.030   8.451 -2.0548 -0.8223 -0.2872
  841MOL0     H13520   8.338   3.126   8.639 -0.3823 -0.4760 -1.0423
  841MOL0     H13521   7.992   1.775   8.843  3.3076 -0.8735  1.2503
  841MOL0     H13522   7.770   1.736   8.711 -0.5322 -1.3759 -0.5051
  841MOL0     H13523   7.583   1.688   8.438  1.9433  2.5607 -2.7767
  841MOL0     H13524   7.377   1.730   8.327 -0.4814 -0.9530  1.4088
  841MOL0     H13525   7.257   1.429   7.992  1.0644  0.7230  2.0731
  841MOL0     H13526   7.130   1.561   7.983 -0.6869  1.6032 -0.1155
  841MOL0     H13527   7.272   1.568   7.775 -2.1300 -0.4786  0.4976
  841MOL0     H13528   7.414   1.591   7.879  0.6553 -0.7687 -1.7449
  841MOL0     H13529   7.312   1.798   7.968  1.7315  1.1298 -1.5602
  841MOL0     H13530   7.169   1.778   7.865 -0.8068 -1.9601 -2.5679
  841MOL0     H13531   7.262   1.818   7.669 -0.3196  1.1974  0.2131
  841MOL0     H13532   7.437   1.805   7.724  0.9430 -0.4531  0.6007
  841MOL0     H13533   7.318   2.206   7.825  0.3277 -0.4187  0.5129
  841MOL0     H13534   7.450   1.376   8.072  0.4338  2.9301 -2.2626
  841MOL0     H13535   7.635   1.317   8.223  0.1736 -0.6752 -0.7678
  842MOL0     O13536   1.019   1.114   6.691  0.2189  0.2621  0.2885
  842MOL0     C13537   0.994   1.041   6.591 -0.0228 -1.0709 -0.5866
  842MOL0     O13538   1.031   1.079   6.463 -0.9217 -0.0737 -0.6957
  842MOL0     C13539   1.134   1.160   6.438  0.8454  0.4698  0.0045
  842MOL0     C13540   1.123   1.294   6.470 -0.4788 -0.1887  0.0302
  842MOL0     C13541   1.241   1.367   6.452  0.7454  0.0281  0.1790
  842MOL0     C13542   1.362   1.312   6.411  0.2144  0.1229  0.7527
  842MOL0     O13543   1.483   1.375   6.410  0.1698 -0.3318 -0.7736
  842MOL0     C13544   1.506   1.460   6.523 -0.6585 -0.8078  0.1286
  842MOL0     C13545   1.643   1.519   6.513  0.5075  0.0376 -0.4710
  842MOL0     C13546   1.664   1.650   6.591 -0.3250  0.2049  0.2151
  842MOL0     C13547   1.665   1.632   6.743  0.2301  0.2064  0.1958
  842MOL0     C13548   1.672   1.769   6.804  0.3101  0.2008  0.4434
  842MOL0     C13549   1.692   1.763   6.956 -0.0984 -0.0910  0.4785
  842MOL0     C13550   1.668   1.905   7.021 -0.5824  0.8388  0.3713
  842MOL0     C13551   1.521   1.922   7.027 -0.0022  0.0919 -0.1625
  842MOL0     N13552   1.500   2.002   7.149 -0.0562  1.1536  0.2827
  842MOL0     C13553   1.513   1.965   7.282 -0.8096 -0.0695  0.7994
  842MOL0     C13554   1.443   2.045   7.356  0.5425  0.6359 -0.5045
  842MOL0     C13555   1.433   2.056   7.499  0.1237 -0.0471  0.0210
  842MOL0     C13556   1.558   2.123   7.546  0.6013  0.5434 -0.0225
  842MOL0     C13557   1.528   2.169   7.684 -0.4876 -0.3610 -1.1789
  842MOL0     C13558   1.655   2.225   7.751 -0.6704  0.0071 -0.2011
  842MOL0     O13559   1.615   2.327   7.848 -0.2483  0.0831  0.1968
  842MOL0     C13560   1.576   2.445   7.805 -0.5030  0.6657  0.7858
  842MOL0     C13561   1.566   2.482   7.666 -1.1070 -0.6085 -1.2052
  842MOL0     C13562   1.509   2.605   7.625 -0.2261 -0.1145  0.2709
  842MOL0     C13563   1.520   2.636   7.479  0.0879  0.0991  0.4805
  842MOL0     C13564   1.458   2.692   7.728 -0.2800  0.0522 -0.2986
  842MOL0     C13565   1.390   2.827   7.695 -0.1751  0.4824  0.2877
  842MOL0     O13566   1.310   2.877   7.792 -0.4091  0.2352 -0.4645
  842MOL0     C13567   1.261   3.009   7.798 -0.1654  1.4018 -0.3307
  842MOL0     C13568   1.172   3.042   7.898 -0.1978  0.8963  0.0176
  842MOL0     C13569   1.103   3.161   7.907  0.1131 -0.4536  0.1109
  842MOL0     C13570   1.112   3.252   7.798 -0.0465  0.9685  0.0472
  842MOL0     O13571   1.030   3.365   7.802 -0.3613 -0.0079  0.5212
  842MOL0     C13572   0.926   3.383   7.893 -0.2568 -1.0658  0.1278
  842MOL0     C13573   0.980   3.459   8.013  0.0433 -1.5878  0.3582
  842MOL0     C13574   0.874   3.535   8.091 -0.1246 -0.0847  0.3130
  842MOL0     C13575   0.752   3.457   8.134  0.5357 -0.3987  0.5575
  842MOL0     C13576   0.674   3.522   8.249  0.7972 -0.3945  0.4051
  842MOL0     C13577   0.733   3.614   8.350  0.4362  0.1037 -0.6325
  842MOL0     C13578   0.630   3.649   8.455 -0.1902 -0.4515 -0.4269
  842MOL0     C13579   0.677   3.728   8.586 -0.2634  0.6665  0.1799
  842MOL0    Cl13580   0.786   3.633   8.679  0.1901 -0.1743 -0.4415
  842MOL0     C13581   1.210   3.228   7.700 -0.1097 -0.0964  0.4124
  842MOL0     C13582   1.286   3.110   7.703  1.7116 -0.0671  0.9971
  842MOL0     O13583   1.422   2.884   7.588 -0.0272  0.4703  0.1594
  842MOL0     C13584   1.465   2.643   7.865 -0.2876  0.4933 -0.3196
  842MOL0     C13585   1.527   2.527   7.900 -0.5394 -0.2199 -0.9401
  842MOL0     N13586   1.389   2.141   7.269  0.2312 -0.0341 -0.7439
  842MOL0     N13587   1.410   2.104   7.149  0.2188 -0.7228 -1.0726
  842MOL0     C13588   1.368   1.179   6.365 -0.4111 -0.8670 -0.0368
  842MOL0     C13589   1.251   1.107   6.388 -0.4781  0.0386 -0.5934
  842MOL0     C13590   0.907   0.924   6.614 -0.5647  0.6875 -0.3601
  842MOL0     C13591   0.891   0.860   6.740 -0.2908  0.9287  0.0006
  842MOL0     C13592   0.798   0.757   6.775 -1.0796 -1.0570  1.2710
  842MOL0     C13593   0.727   0.704   6.673 -0.2413  0.2892 -0.5085
  842MOL0     O13594   0.658   0.586   6.677  0.4332  0.2767  0.0402
  842MOL0     C13595   0.613   0.530   6.801  0.0928  1.1716 -0.1996
  842MOL0     C13596   0.720   0.439   6.870 -0.4482  0.8001  0.1713
  842MOL0     C13597   0.724   0.301   6.813  0.5384 -0.0381  0.4181
  842MOL0     C13598   0.809   0.273   6.684  0.1980 -0.4784 -0.0284
  842MOL0     C13599   0.846   0.133   6.675 -0.0194  0.7493 -0.3499
  842MOL0     C13600   0.878   0.023   6.663 -0.6477 -0.3615 -0.2980
  842MOL0     C13601   0.739   0.763   6.547  0.2023  0.7078 -0.0242
  842MOL0     C13602   0.824   0.871   6.518 -0.9206  0.5660  0.3159
  842MOL0     H13603   1.045   1.342   6.528  0.7406  2.8871 -0.7020
  842MOL0     H13604   1.229   1.466   6.496 -1.8699 -1.0025  2.0053
  842MOL0     H13605   1.433   1.539   6.502 -0.5506 -1.1162 -1.5139
  842MOL0     H13606   1.486   1.413   6.620  1.4928  0.1128  1.0757
  842MOL0     H13607   1.716   1.442   6.540  2.1113  1.2548 -1.1815
  842MOL0     H13608   1.663   1.530   6.407 -0.0680  1.7340 -0.4343
  842MOL0     H13609   1.757   1.698   6.561 -1.2346  1.0134 -1.4613
  842MOL0     H13610   1.577   1.715   6.576 -0.0665  0.6093  0.4569
  842MOL0     H13611   1.574   1.586   6.781  0.3703  1.0057  1.5622
  842MOL0     H13612   1.749   1.567   6.769 -0.7420 -1.4795 -0.7260
  842MOL0     H13613   1.758   1.825   6.767 -0.0831  0.7281  0.3248
  842MOL0     H13614   1.582   1.826   6.779 -0.1259  0.2484  2.0365
  842MOL0     H13615   1.624   1.691   7.003 -0.5548  1.4123  2.2205
  842MOL0     H13616   1.794   1.728   6.975  0.6456  1.6311 -0.1644
  842MOL0     H13617   1.701   1.889   7.124 -1.4801 -1.6647  0.3581
  842MOL0     H13618   1.725   1.980   6.966 -0.7441  2.0027  1.7463
  842MOL0     H13619   1.461   1.831   7.041 -1.1357  0.6241 -1.3298
  842MOL0     H13620   1.479   1.971   6.938  0.9105  1.5318  0.1775
  842MOL0     H13621   1.577   1.885   7.318  0.4047 -0.5713 -2.1287
  842MOL0     H13622   1.348   2.118   7.531  0.4191  1.2018 -1.5000
  842MOL0     H13623   1.419   1.954   7.537  1.0675 -0.4346 -0.6654
  842MOL0     H13624   1.590   2.212   7.490 -0.7702  0.4746 -0.9798
  842MOL0     H13625   1.649   2.062   7.541 -0.4160 -0.9650 -3.8994
  842MOL0     H13626   1.490   2.089   7.748  0.7772 -0.8779 -1.0570
  842MOL0     H13627   1.451   2.247   7.677  0.3755  1.1529  3.2612
  842MOL0     H13628   1.722   2.272   7.679 -1.0770  2.0072  0.6791
  842MOL0     H13629   1.703   2.137   7.795 -0.6535 -1.6428 -3.2186
  842MOL0     H13630   1.608   2.424   7.585 -0.6746 -1.4794 -0.3716
  842MOL0     H13631   1.514   2.542   7.424  0.9966 -0.8016  1.8740
  842MOL0     H13632   1.426   2.686   7.451 -0.3624 -0.2144  1.3925
  842MOL0     H13633   1.608   2.698   7.458 -0.1439 -0.5890 -3.2319
  842MOL0     H13634   1.160   2.963   7.972  1.6189 -0.5272 -1.0990
  842MOL0     H13635   1.038   3.173   7.994 -0.0519 -0.9265  0.0568
  842MOL0     H13636   0.852   3.447   7.845 -0.9130 -1.8998  0.0054
  842MOL0     H13637   0.880   3.294   7.937 -1.0618 -0.0675  1.3774
  842MOL0     H13638   1.036   3.388   8.075  0.1023  0.6706  3.1027
  842MOL0     H13639   1.058   3.532   7.988  0.5459 -2.6739 -1.3712
  842MOL0     H13640   0.844   3.621   8.031  1.7632  0.9730  0.7868
  842MOL0     H13641   0.921   3.580   8.179 -2.4693  1.2031  0.9765
  842MOL0     H13642   0.692   3.436   8.045  2.1432 -0.6427 -0.5277
  842MOL0     H13643   0.790   3.363   8.175  0.1248 -0.2024  1.4169
  842MOL0     H13644   0.605   3.445   8.285  1.7824 -2.7373 -2.3925
  842MOL0     H13645   0.612   3.600   8.204 -1.4809 -0.6188  2.8905
  842MOL0     H13646   0.804   3.551   8.404 -2.3865 -0.8268  2.3317
  842MOL0     H13647   0.775   3.700   8.297  0.7733  0.7151  0.5786
  842MOL0     H13648   0.579   3.560   8.493 -1.1267  0.9125  1.7203
  842MOL0     H13649   0.558   3.711   8.402 -1.7176 -2.0526 -0.2806
  842MOL0     H13650   0.582   3.741   8.639 -0.8754 -1.6429 -0.2313
  842MOL0     H13651   0.715   3.826   8.556  1.1668  0.2794  0.6235
  842MOL0     H13652   1.230   3.299   7.620 -0.9580  3.5488  3.1917
  842MOL0     H13653   1.345   3.101   7.612  1.7938  0.3503  1.0079
  842MOL0     H13654   1.420   2.700   7.946  0.9928 -0.4791  1.1437
  842MOL0     H13655   1.529   2.514   8.008 -0.1833  0.4583 -0.8570
  842MOL0     H13656   1.463   1.145   6.325 -0.6681 -1.0328 -0.5178
  842MOL0     H13657   1.251   1.000   6.370  2.2933  0.1410 -1.6475
  842MOL0     H13658   0.961   0.878   6.821  0.5971 -4.5477  0.9020
  842MOL0     H13659   0.805   0.710   6.872  2.5258 -0.9992  1.1612
  842MOL0     H13660   0.592   0.616   6.866  1.1913  1.7008 -0.5036
  842MOL0     H13661   0.521   0.472   6.796  1.3575 -0.9802  0.3538
  842MOL0     H13662   0.699   0.435   6.977  1.2077 -0.4616  0.4854
  842MOL0     H13663   0.818   0.485   6.854 -0.1360  0.1691  0.2657
  842MOL0     H13664   0.626   0.255   6.795  1.7301 -2.7264  0.2495
  842MOL0     H13665   0.780   0.241   6.886  2.0410 -0.2093 -0.8439
  842MOL0     H13666   0.888   0.349   6.693 -1.5167  1.1802  2.3070
  842MOL0     H13667   0.757   0.298   6.591  0.0542  1.5295  0.5455
  842MOL0     H13668   0.907  -0.080   6.658  1.7525  0.1838  0.8658
  842MOL0     H13669   0.676   0.719   6.470 -1.9187  2.4178  0.6320
  842MOL0     H13670   0.813   0.922   6.422  0.2498  0.8252  0.3081
  843MOL0     O13671   7.450  10.044   6.088 -0.4808  0.0510 -0.0725
  843MOL0     C13672   7.414  10.122   6.174 -0.0768 -0.2806 -0.5275
  843MOL0     O13673   7.360  10.089   6.295 -0.4416 -0.3997 -0.9335
  843MOL0     C13674   7.307   9.968   6.323  0.5358  0.4719 -0.0781
  843MOL0     C13675   7.223   9.965   6.434  0.2421 -0.2616  0.7058
  843MOL0     C13676   7.144   9.851   6.477  0.0943 -0.0056 -0.8488
  843MOL0     C13677   7.155   9.736   6.393 -0.1679 -0.0586  0.2508
  843MOL0     O13678   7.093   9.618   6.420  0.2029 -0.2263 -0.2625
  843MOL0     C13679   7.010   9.592   6.530  0.2642 -0.7104  0.8472
  843MOL0     C13680   6.949   9.450   6.493  0.7558 -0.2521  0.3092
  843MOL0     C13681   6.835   9.474   6.399  0.4177 -0.7023  0.5919
  843MOL0     C13682   6.779   9.341   6.337  0.3105  0.2989  0.3719
  843MOL0     C13683   6.693   9.368   6.212  0.1121 -0.4224  0.3004
  843MOL0     C13684   6.771   9.430   6.091 -0.3081  0.1446 -0.4807
  843MOL0     C13685   6.886   9.339   6.031  0.7672  0.4507 -1.0536
  843MOL0     C13686   6.840   9.188   6.004 -1.3461 -0.0491  0.2325
  843MOL0     N13687   6.942   9.097   5.941 -0.0278  0.2695  0.1447
  843MOL0     C13688   6.995   9.120   5.818 -0.0385 -0.2559  0.1807
  843MOL0     C13689   7.073   9.018   5.802 -0.2955  0.3189  0.3610
  843MOL0     C13690   7.140   9.001   5.674  0.6372 -0.2023  1.3670
  843MOL0     C13691   7.261   9.104   5.661 -1.4658 -0.5959  0.0909
  843MOL0     C13692   7.357   9.038   5.555 -0.4946  0.1160 -0.3814
  843MOL0     C13693   7.478   9.118   5.512 -0.1278 -1.2344  0.8695
  843MOL0     O13694   7.561   9.030   5.439 -0.4790  0.1246 -0.6939
  843MOL0     C13695   7.518   8.950   5.334  0.9595  0.8040  0.2861
  843MOL0     C13696   7.422   8.980   5.240  0.0931 -0.4214  0.0221
  843MOL0     C13697   7.401   8.896   5.129 -0.4037  1.0802  0.5267
  843MOL0     C13698   7.292   8.929   5.031  0.4457 -0.2632  0.2963
  843MOL0     C13699   7.472   8.772   5.116  0.0055 -0.4329 -0.3068
  843MOL0     C13700   7.448   8.660   5.011  0.5443 -0.5648  0.4484
  843MOL0     O13701   7.471   8.535   5.053 -0.0078 -0.7145 -0.0008
  843MOL0     C13702   7.397   8.444   4.994  0.2170  0.2312  0.3749
  843MOL0     C13703   7.412   8.391   4.865  1.2955  0.5093  0.5768
  843MOL0     C13704   7.328   8.284   4.814 -0.1323 -0.3231  0.2361
  843MOL0     C13705   7.225   8.236   4.895 -0.7483 -0.3750 -0.6464
  843MOL0     O13706   7.150   8.129   4.846 -0.3616 -0.1511  0.0622
  843MOL0     C13707   7.202   7.999   4.881  0.0503 -0.0821  0.7925
  843MOL0     C13708   7.113   7.883   4.843  0.0876  0.4302 -0.1449
  843MOL0     C13709   7.067   7.886   4.701  0.5234 -0.6805 -0.0331
  843MOL0     C13710   7.046   7.743   4.653  0.3124  0.6540 -0.0938
  843MOL0     C13711   6.988   7.735   4.517  0.2724  1.0471  0.3733
  843MOL0     C13712   7.077   7.745   4.395 -0.4532  1.0295  0.2137
  843MOL0     C13713   7.003   7.695   4.270  0.4055 -0.1173  0.4497
  843MOL0     C13714   7.085   7.677   4.137 -0.0798 -0.1015  0.1457
  843MOL0    Cl13715   7.117   7.819   4.032  0.4331 -0.2439  0.0289
  843MOL0     C13716   7.211   8.286   5.026  0.5325  0.2082  1.1041
  843MOL0     C13717   7.294   8.394   5.067  0.6212  0.7480 -0.4496
  843MOL0     O13718   7.414   8.682   4.893 -0.1492  0.1737  0.1813
  843MOL0     C13719   7.570   8.756   5.219 -1.0545  0.3183  1.1440
  843MOL0     C13720   7.597   8.835   5.327  0.2601 -0.3531 -1.0183
  843MOL0     N13721   7.068   8.940   5.919  0.4904  0.5081 -0.2294
  843MOL0     N13722   6.987   8.985   6.008 -0.1570  0.7984  0.3963
  843MOL0     C13723   7.228   9.736   6.278  0.7015 -0.1326  0.8645
  843MOL0     C13724   7.307   9.846   6.248  0.2174 -1.3509  1.5595
  843MOL0     C13725   7.436  10.270   6.163 -0.8338  0.3236 -0.1817
  843MOL0     C13726   7.356  10.356   6.238 -0.7199 -0.6091  0.3968
  843MOL0     C13727   7.375  10.491   6.227  0.2562  0.6915 -0.4756
  843MOL0     C13728   7.459  10.554   6.133 -0.6229 -1.1195 -1.2563
  843MOL0     O13729   7.465  10.692   6.136  0.4670 -0.2911 -0.1378
  843MOL0     C13730   7.559  10.766   6.064  0.0334 -0.1006  0.2024
  843MOL0     C13731   7.554  10.914   6.091  0.0192  0.0601  1.6209
  843MOL0     C13732   7.530  10.961   6.241 -0.5637 -0.0359  0.0127
  843MOL0     C13733   7.630  11.067   6.304  0.4026  0.5948  0.0361
  843MOL0     C13734   7.644  11.187   6.222 -0.9569 -0.1052 -0.2550
  843MOL0     C13735   7.695  11.286   6.176  0.5603  0.2514  0.4508
  843MOL0     C13736   7.538  10.470   6.066 -0.2255 -0.8243  0.1698
  843MOL0     C13737   7.533  10.325   6.076  0.6475  0.3346  0.0662
  843MOL0     H13738   7.221  10.047   6.506 -1.9447  0.1331  0.2497
  843MOL0     H13739   7.108   9.847   6.579  6.5501 -1.5316  1.8848
  843MOL0     H13740   7.064   9.583   6.625  1.4567 -2.1896  0.0741
  843MOL0     H13741   6.922   9.657   6.535  0.4422 -0.5651  3.1023
  843MOL0     H13742   7.019   9.378   6.450  1.2444  0.4054 -0.0243
  843MOL0     H13743   6.903   9.405   6.581  1.6505  0.2579  1.0516
  843MOL0     H13744   6.754   9.525   6.451 -0.9698 -3.0057  0.8667
  843MOL0     H13745   6.872   9.536   6.318  1.3351 -2.8984 -0.7749
  843MOL0     H13746   6.863   9.276   6.312 -1.2680 -1.1898 -1.4343
  843MOL0     H13747   6.706   9.286   6.397 -0.1982 -1.9109 -2.0827
  843MOL0     H13748   6.639   9.279   6.179  0.9818 -1.7848  2.3874
  843MOL0     H13749   6.619   9.442   6.245  1.1787  0.1939  1.3911
  843MOL0     H13750   6.706   9.451   6.005 -0.9424 -1.3049 -0.3888
  843MOL0     H13751   6.813   9.527   6.120 -4.5783  1.9368  0.5554
  843MOL0     H13752   6.916   9.385   5.937 -0.5592 -0.2394 -1.8485
  843MOL0     H13753   6.971   9.331   6.099 -1.2239  1.3736  1.7340
  843MOL0     H13754   6.760   9.209   5.932 -1.6219  1.4399  0.9196
  843MOL0     H13755   6.803   9.131   6.089 -1.4848  1.7728  1.4605
  843MOL0     H13756   6.963   9.189   5.741 -2.5081  0.8147  2.0004
  843MOL0     H13757   7.174   8.897   5.669 -1.7492 -0.9871 -1.0542
  843MOL0     H13758   7.077   9.023   5.588  0.3709 -0.7342  1.4246
  843MOL0     H13759   7.301   9.123   5.761 -0.5874  2.6605 -0.7724
  843MOL0     H13760   7.220   9.200   5.628 -1.0442 -0.1411  0.8750
  843MOL0     H13761   7.295   9.006   5.470 -0.2109 -0.8110 -0.2463
  843MOL0     H13762   7.389   8.942   5.594  2.0294  1.2359  0.5107
  843MOL0     H13763   7.525   9.157   5.602  0.6221  3.2504 -1.1453
  843MOL0     H13764   7.453   9.207   5.453 -1.6300 -1.8454  0.5342
  843MOL0     H13765   7.371   9.076   5.248 -0.8471 -1.0989  3.6651
  843MOL0     H13766   7.219   9.002   5.065 -1.6835 -1.7053 -0.9645
  843MOL0     H13767   7.335   8.969   4.939 -0.0162 -1.8854 -0.6812
  843MOL0     H13768   7.224   8.845   5.014 -1.3597  1.1313  0.2988
  843MOL0     H13769   7.479   8.445   4.799  2.4878  1.9103  2.8185
  843MOL0     H13770   7.351   8.236   4.720  0.1945  0.6002 -0.1698
  843MOL0     H13771   7.289   7.989   4.815  0.7521 -4.3195  2.0978
  843MOL0     H13772   7.239   7.981   4.982 -0.3776 -0.9963  0.7956
  843MOL0     H13773   7.187   7.802   4.857 -0.4840  0.1228  1.2775
  843MOL0     H13774   7.031   7.869   4.914 -0.2058  5.7151  0.9245
  843MOL0     H13775   7.139   7.938   4.638 -1.6850  0.1345 -2.0400
  843MOL0     H13776   6.975   7.945   4.694  1.3708  0.5037 -1.6081
  843MOL0     H13777   7.139   7.685   4.655 -0.8567 -1.2954  0.9205
  843MOL0     H13778   6.986   7.686   4.723  4.8595 -0.4742  3.3537
  843MOL0     H13779   6.901   7.801   4.506 -2.0121 -1.6108  1.2784
  843MOL0     H13780   6.937   7.638   4.517 -3.4628  2.8178  0.3593
  843MOL0     H13781   7.114   7.847   4.384 -0.8532  1.0046 -1.7486
  843MOL0     H13782   7.161   7.675   4.407 -1.0304 -0.1771 -2.2615
  843MOL0     H13783   6.909   7.748   4.253 -0.1292 -1.2758 -0.3538
  843MOL0     H13784   6.976   7.591   4.291  0.3780 -1.5254 -5.0372
  843MOL0     H13785   7.017   7.608   4.087  2.8198 -0.6975 -3.4015
  843MOL0     H13786   7.187   7.640   4.153  0.1893  1.6707  3.4184
  843MOL0     H13787   7.128   8.255   5.088 -0.9390 -0.6661 -1.1922
  843MOL0     H13788   7.277   8.436   5.166 -2.0261 -0.6059 -0.2262
  843MOL0     H13789   7.631   8.668   5.199 -0.4290  0.6852  1.4086
  843MOL0     H13790   7.672   8.806   5.400  0.4620 -3.1908 -2.2318
  843MOL0     H13791   7.220   9.647   6.216  1.5615  1.4213 -1.6014
  843MOL0     H13792   7.354   9.827   6.152 -1.1532 -1.8302  0.9610
  843MOL0     H13793   7.272  10.314   6.292  0.2386  0.1442  2.5949
  843MOL0     H13794   7.329  10.565   6.292  0.7280  0.0798  0.5836
  843MOL0     H13795   7.662  10.746   6.096  0.9507  0.9841 -1.8005
  843MOL0     H13796   7.550  10.742   5.957  1.0615  0.8094 -0.1122
  843MOL0     H13797   7.465  10.950   6.038  0.0618  0.1496  1.6089
  843MOL0     H13798   7.642  10.961   6.047 -0.0392 -2.2196 -1.2223
  843MOL0     H13799   7.534  10.872   6.303 -0.4148 -2.5874 -3.3719
  843MOL0     H13800   7.423  10.984   6.238 -1.8335 -4.9297 -1.3841
  843MOL0     H13801   7.727  11.018   6.318  1.3201  2.3571  0.2434
  843MOL0     H13802   7.595  11.111   6.398 -1.3810 -0.2685 -0.1833
  843MOL0     H13803   7.749  11.368   6.133  0.7805 -0.8635 -1.5424
  843MOL0     H13804   7.616  10.508   6.001 -1.6830  0.8958 -0.6532
  843MOL0     H13805   7.607  10.264   6.026 -0.4060 -0.5262 -0.4916
  844MOL0     O13806   0.514   2.841   8.067  0.7484 -0.9553 -0.4560
  844MOL0     C13807   0.589   2.895   7.984  0.8232  0.0044 -0.1966
  844MOL0     O13808   0.703   2.962   8.008  0.0931 -0.3751 -0.3989
  844MOL0     C13809   0.748   2.984   8.145  0.4782 -0.7683 -0.7781
  844MOL0     C13810   0.813   3.107   8.168  0.1489  0.2747  0.1844
  844MOL0     C13811   0.876   3.130   8.300  0.5138 -0.0481  0.0571
  844MOL0     C13812   0.868   3.035   8.400  0.0032 -1.1165 -0.1320
  844MOL0     O13813   0.939   3.073   8.506 -0.5904  0.1223 -0.2636
  844MOL0     C13814   0.905   3.022   8.638 -0.3151  0.0522 -0.4136
  844MOL0     C13815   0.964   2.888   8.682 -0.4137  0.8374  0.3142
  844MOL0     C13816   1.100   2.884   8.743 -0.0873  0.0302  0.2151
  844MOL0     C13817   1.228   2.932   8.655  0.4130 -0.1983 -0.6768
  844MOL0     C13818   1.359   2.893   8.720 -0.3320  0.2452 -0.2904
  844MOL0     C13819   1.392   2.971   8.848  0.2257 -0.3208  0.1267
  844MOL0     C13820   1.534   2.957   8.903 -0.4315 -0.1353  0.9581
  844MOL0     C13821   1.580   3.092   8.961 -0.0531 -1.0765 -0.3191
  844MOL0     N13822   1.632   3.170   8.846 -0.9053  0.0948 -0.5614
  844MOL0     C13823   1.744   3.131   8.774  0.1680 -0.3111 -0.2642
  844MOL0     C13824   1.744   3.212   8.666 -0.8290  0.1142 -0.1147
  844MOL0     C13825   1.838   3.212   8.552  0.5506  0.0094  0.0091
  844MOL0     C13826   1.939   3.100   8.571 -0.3107  0.3471  0.6493
  844MOL0     C13827   2.046   3.146   8.676  0.6939  0.3022  0.6902
  844MOL0     C13828   2.191   3.160   8.637  0.0401  0.7587 -0.2624
  844MOL0     O13829   2.257   3.041   8.588 -0.4138 -0.0762 -0.4565
  844MOL0     C13830   2.393   3.019   8.576  0.3934 -1.0927  0.6073
  844MOL0     C13831   2.451   2.895   8.571 -0.1339  0.5641 -0.3759
  844MOL0     C13832   2.583   2.887   8.531 -0.7769 -0.2263  1.0180
  844MOL0     C13833   2.645   2.749   8.504  1.1009 -0.1387 -0.2948
  844MOL0     C13834   2.669   3.006   8.506  0.6265  1.3742  0.1960
  844MOL0     C13835   2.816   2.998   8.480 -0.8579  0.2067 -0.5285
  844MOL0     O13836   2.875   3.109   8.425  0.3858  0.2140  0.2427
  844MOL0     C13837   3.008   3.117   8.415  0.4665 -0.6273 -0.0495
  844MOL0     C13838   3.086   3.186   8.511  0.0749 -0.0146  0.2284
  844MOL0     C13839   3.220   3.184   8.517 -0.3228 -0.0192  1.1415
  844MOL0     C13840   3.281   3.108   8.421 -0.0178 -1.0573 -0.2849
  844MOL0     O13841   3.423   3.106   8.427  0.3517  0.2742 -0.3217
  844MOL0     C13842   3.483   3.138   8.298  0.4546  0.0664  0.0164
  844MOL0     C13843   3.607   3.212   8.323 -0.0947  0.7065 -0.1357
  844MOL0     C13844   3.700   3.140   8.413 -0.2617  0.5775 -0.0281
  844MOL0     C13845   3.825   3.221   8.459 -0.0147  0.3910  0.5157
  844MOL0     C13846   3.916   3.127   8.533  0.2126 -0.3390  0.3347
  844MOL0     C13847   4.052   3.203   8.554 -0.5101  0.7239  0.4045
  844MOL0     C13848   4.166   3.122   8.623  0.5253  0.4443  0.1900
  844MOL0     C13849   4.209   3.001   8.539 -0.5098 -0.0113 -0.3824
  844MOL0    Cl13850   4.370   2.946   8.617 -0.5346 -0.2989  0.1610
  844MOL0     C13851   3.217   3.035   8.324  0.8726  0.2508  0.5913
  844MOL0     C13852   3.078   3.039   8.323 -0.3040 -0.9848  0.1012
  844MOL0     O13853   2.879   2.901   8.520 -0.1300 -0.4640  0.0668
  844MOL0     C13854   2.604   3.129   8.517 -0.8996 -0.6761 -0.3797
  844MOL0     C13855   2.469   3.134   8.548  0.2410 -0.3819 -0.1473
  844MOL0     N13856   1.652   3.316   8.695  0.2489  1.2270 -0.1618
  844MOL0     N13857   1.582   3.293   8.804 -1.2619  0.0998  0.0768
  844MOL0     C13858   0.808   2.914   8.372  0.5057  0.4436  0.6287
  844MOL0     C13859   0.744   2.894   8.244  0.6092  0.5324 -0.3639
  844MOL0     C13860   0.545   2.863   7.844 -0.1015 -0.1614 -0.3797
  844MOL0     C13861   0.608   2.909   7.725 -0.1331 -0.3794 -0.1028
  844MOL0     C13862   0.563   2.876   7.604  0.7855  0.0771  0.7511
  844MOL0     C13863   0.458   2.787   7.584  0.2064 -0.5881  0.5492
  844MOL0     O13864   0.417   2.740   7.457 -0.0347 -0.3051 -0.2363
  844MOL0     C13865   0.509   2.769   7.347  0.6186  0.2351 -0.6163
  844MOL0     C13866   0.452   2.709   7.228 -0.8682  0.0474 -0.0056
  844MOL0     C13867   0.534   2.730   7.100  0.4387 -0.8337 -0.0649
  844MOL0     C13868   0.662   2.646   7.107  0.6717 -0.6554 -1.0415
  844MOL0     C13869   0.719   2.643   6.976 -1.2560 -0.3292  0.1639
  844MOL0     C13870   0.761   2.617   6.861 -0.2030 -0.1577  0.0871
  844MOL0     C13871   0.412   2.733   7.693 -0.1548 -0.5010 -0.3080
  844MOL0     C13872   0.447   2.766   7.821  0.1819 -0.7285  0.3904
  844MOL0     H13873   0.825   3.175   8.084  1.7304  0.5328  0.5775
  844MOL0     H13874   0.930   3.223   8.315  1.8997 -1.1180  2.1151
  844MOL0     H13875   0.946   3.103   8.699 -2.4513  2.9159 -2.4977
  844MOL0     H13876   0.796   3.021   8.645 -0.4253 -2.4043 -1.4579
  844MOL0     H13877   0.899   2.842   8.757 -0.9802 -0.7179 -1.0679
  844MOL0     H13878   0.963   2.811   8.604  0.6911 -1.4202  2.3771
  844MOL0     H13879   1.098   2.934   8.840 -1.8445 -0.6176  0.5402
  844MOL0     H13880   1.113   2.780   8.772 -2.6323 -0.6889 -0.8827
  844MOL0     H13881   1.225   2.902   8.550  2.4436 -3.1435 -0.0323
  844MOL0     H13882   1.229   3.041   8.659 -2.9327 -0.0226 -1.7416
  844MOL0     H13883   1.365   2.785   8.736  1.3782  0.4166  0.4476
  844MOL0     H13884   1.436   2.917   8.645 -1.3267  0.4387 -1.2770
  844MOL0     H13885   1.374   3.075   8.820  3.5414  1.5539  3.8664
  844MOL0     H13886   1.325   2.946   8.930  2.2812 -2.1443  1.3622
  844MOL0     H13887   1.530   2.880   8.980 -2.8360  1.5745  2.6842
  844MOL0     H13888   1.603   2.931   8.823 -2.2973  1.6656 -1.4103
  844MOL0     H13889   1.648   3.063   9.042  1.2809  0.0979 -0.9883
  844MOL0     H13890   1.493   3.143   9.002  0.2598 -1.6844  1.1909
  844MOL0     H13891   1.802   3.042   8.797 -1.5658 -0.9756  1.8934
  844MOL0     H13892   1.788   3.204   8.455 -0.5205 -3.0389  0.7028
  844MOL0     H13893   1.890   3.309   8.554  1.7131 -0.5916 -0.0713
  844MOL0     H13894   1.978   3.090   8.469 -5.1871  1.5341 -1.6148
  844MOL0     H13895   1.901   3.002   8.599 -0.7109  1.1775  3.3293
  844MOL0     H13896   2.045   3.067   8.751  1.3857 -1.8919 -1.4784
  844MOL0     H13897   2.009   3.235   8.728 -0.7714  0.6456 -0.8407
  844MOL0     H13898   2.245   3.177   8.731  1.2080 -3.3614  0.0275
  844MOL0     H13899   2.203   3.242   8.566  1.8678  0.5588 -0.2360
  844MOL0     H13900   2.394   2.806   8.595 -1.7508 -0.3459 -6.1293
  844MOL0     H13901   2.716   2.720   8.582  3.1383  3.1073 -0.7689
  844MOL0     H13902   2.565   2.674   8.502  1.5777 -0.8753  2.9142
  844MOL0     H13903   2.693   2.744   8.406 -0.1185  1.4524 -1.0328
  844MOL0     H13904   3.030   3.256   8.572 -2.0545  1.2724 -2.9849
  844MOL0     H13905   3.282   3.238   8.588  0.3681  0.5717  0.1127
  844MOL0     H13906   3.506   3.044   8.247  0.4843  0.1888 -0.1984
  844MOL0     H13907   3.414   3.191   8.233 -1.4158 -1.2998  0.8026
  844MOL0     H13908   3.656   3.236   8.228 -2.3009  2.1001 -0.9838
  844MOL0     H13909   3.584   3.314   8.354  2.1417  1.6136 -1.1903
  844MOL0     H13910   3.725   3.037   8.384  1.0796  1.0883 -0.7973
  844MOL0     H13911   3.649   3.136   8.509  2.4501  0.1464  1.5057
  844MOL0     H13912   3.887   3.249   8.374  0.3807  0.2292  0.7485
  844MOL0     H13913   3.793   3.298   8.530  2.1189 -0.2737  2.3299
  844MOL0     H13914   3.934   3.043   8.465  2.5512  0.5799 -0.2747
  844MOL0     H13915   3.872   3.099   8.629  0.8033 -1.7582  0.2121
  844MOL0     H13916   4.088   3.229   8.455  1.3352 -0.9701  0.5591
  844MOL0     H13917   4.033   3.289   8.619  1.9042  1.4408  0.2511
  844MOL0     H13918   4.133   3.097   8.725  0.9390  0.4978  0.3413
  844MOL0     H13919   4.245   3.197   8.635 -2.7291  4.9107 -2.9765
  844MOL0     H13920   4.224   3.038   8.437 -3.5794 -0.2409 -1.0147
  844MOL0     H13921   4.138   2.918   8.540  0.3476 -0.7868  1.8123
  844MOL0     H13922   3.267   2.975   8.249  0.5510  0.3713  0.2792
  844MOL0     H13923   3.016   2.974   8.263 -3.4362  0.0436  2.0081
  844MOL0     H13924   2.654   3.224   8.507 -0.0551 -0.8606  1.6708
  844MOL0     H13925   2.416   3.228   8.536 -2.4480 -1.9640 -1.8144
  844MOL0     H13926   0.813   2.829   8.438 -0.9579 -0.4802 -0.3941
  844MOL0     H13927   0.699   2.797   8.225  1.5326 -0.8305  3.4447
  844MOL0     H13928   0.701   2.964   7.722 -1.5246  2.1101  0.3324
  844MOL0     H13929   0.615   2.913   7.517  0.6801  0.3811  0.8186
  844MOL0     H13930   0.527   2.876   7.331  3.2337  0.1543  1.0692
  844MOL0     H13931   0.605   2.721   7.369  0.0480 -1.3193 -1.4323
  844MOL0     H13932   0.353   2.750   7.205 -0.3406  0.9608 -0.7226
  844MOL0     H13933   0.444   2.601   7.246  0.0412 -0.4072 -2.0648
  844MOL0     H13934   0.560   2.836   7.094 -2.5095 -0.0332  0.0460
  844MOL0     H13935   0.479   2.706   7.008  2.6543 -3.1302 -0.9222
  844MOL0     H13936   0.631   2.543   7.125 -0.7659  0.1793  1.9050
  844MOL0     H13937   0.738   2.676   7.179  1.5496 -0.5165 -1.9914
  844MOL0     H13938   0.784   2.601   6.758 -0.9872 -0.7756  0.0005
  844MOL0     H13939   0.322   2.674   7.678 -2.2859  2.4663 -0.1467
  844MOL0     H13940   0.397   2.727   7.910 -0.4637  0.1003  0.4105
  845MOL0     O13941   4.220   9.172   7.873  0.0766 -0.1944 -0.1143
  845MOL0     C13942   4.276   9.136   7.980  1.6790  0.3099 -0.1585
  845MOL0     O13943   4.344   9.012   8.003  0.3829 -0.0447  0.0781
  845MOL0     C13944   4.403   8.944   7.905 -0.3101  0.4231  0.1654
  845MOL0     C13945   4.451   8.819   7.950  0.8961 -1.0526  0.5102
  845MOL0     C13946   4.515   8.732   7.853  0.0585  0.3073 -0.0010
  845MOL0     C13947   4.546   8.772   7.726  0.1751 -0.0680  0.6160
  845MOL0     O13948   4.595   8.679   7.639  0.3079  0.0670 -0.3701
  845MOL0     C13949   4.732   8.660   7.664  0.0784  0.0928  0.6997
  845MOL0     C13950   4.802   8.780   7.605 -0.1973 -0.4559 -0.3047
  845MOL0     C13951   4.953   8.761   7.625  0.4629 -0.9633  0.3196
  845MOL0     C13952   5.038   8.893   7.577  0.4106  0.4501 -0.4914
  845MOL0     C13953   5.196   8.859   7.594  0.1093 -0.3175 -0.9309
  845MOL0     C13954   5.275   8.982   7.555  0.8951  0.2041 -0.1721
  845MOL0     C13955   5.415   8.982   7.610  0.4736  0.3259  0.0854
  845MOL0     C13956   5.500   9.102   7.558  0.3826 -0.0870 -0.0394
  845MOL0     N13957   5.646   9.082   7.549  0.0100  0.4469 -0.0639
  845MOL0     C13958   5.723   9.027   7.653 -1.2435 -0.0730  0.7855
  845MOL0     C13959   5.844   8.999   7.590  0.3813  0.1075  0.6148
  845MOL0     C13960   5.963   8.933   7.665 -0.2513  0.5851 -0.0131
  845MOL0     C13961   6.000   8.804   7.594  0.3734 -0.0754 -0.8337
  845MOL0     C13962   5.875   8.710   7.596 -0.4429 -0.2193  0.3186
  845MOL0     C13963   5.909   8.574   7.548 -0.2897  0.3312 -0.6062
  845MOL0     O13964   5.794   8.491   7.557 -0.6271 -0.3127 -0.5934
  845MOL0     C13965   5.826   8.355   7.558  0.0727  0.4600 -0.2717
  845MOL0     C13966   5.942   8.297   7.515  0.0925  0.2157  0.8029
  845MOL0     C13967   5.964   8.159   7.525  0.0069 -0.0519  0.1379
  845MOL0     C13968   6.088   8.104   7.478 -0.1736  0.1308  0.2750
  845MOL0     C13969   5.863   8.071   7.566  0.7101  0.0667 -0.5285
  845MOL0     C13970   5.869   7.920   7.578  0.1521 -0.2017  0.1955
  845MOL0     O13971   5.968   7.859   7.654 -0.1499 -0.1497 -0.1449
  845MOL0     C13972   5.965   7.729   7.713  0.4502 -0.5248  0.2363
  845MOL0     C13973   5.977   7.711   7.847 -0.2068  0.0115  0.3503
  845MOL0     C13974   5.998   7.585   7.894  0.0901  0.0332  0.3488
  845MOL0     C13975   5.967   7.472   7.817 -0.4923 -1.2618  1.0856
  845MOL0     O13976   5.988   7.345   7.848  0.1119 -0.3215 -0.1755
  845MOL0     C13977   6.027   7.316   7.979  0.0906  0.4423 -0.7008
  845MOL0     C13978   6.017   7.162   7.988  0.2071  1.0055 -0.5404
  845MOL0     C13979   5.879   7.132   8.023  0.3901  0.5158 -0.2368
  845MOL0     C13980   5.828   7.016   7.934  0.3213  0.0689  0.1332
  845MOL0     C13981   5.679   6.967   7.967 -0.3299  0.3106 -0.6774
  845MOL0     C13982   5.641   6.949   8.117 -0.2414 -0.5440 -0.2601
  845MOL0     C13983   5.490   6.897   8.132  0.5669  0.0935 -0.1729
  845MOL0     C13984   5.433   6.937   8.270 -0.2168 -0.4281 -0.5350
  845MOL0    Cl13985   5.501   6.830   8.390  0.3539  1.0819 -0.1605
  845MOL0     C13986   5.934   7.487   7.681 -0.1500 -0.4558  0.9324
  845MOL0     C13987   5.937   7.620   7.627 -0.1015  0.2632  0.2212
  845MOL0     O13988   5.772   7.858   7.529  0.1257  0.6569  0.3799
  845MOL0     C13989   5.737   8.131   7.586  0.2907  0.8227  0.6938
  845MOL0     C13990   5.720   8.267   7.587  0.3197 -0.2319  0.2603
  845MOL0     N13991   5.842   9.039   7.451  0.5777  0.0132  0.3553
  845MOL0     N13992   5.719   9.069   7.433 -0.5391 -0.2272 -0.6266
  845MOL0     C13993   4.507   8.900   7.686  0.0582 -0.0769  0.8103
  845MOL0     C13994   4.436   8.980   7.769  0.3887 -0.2921  0.9352
  845MOL0     C13995   4.252   9.223   8.106  0.6440  0.1378  0.2616
  845MOL0     C13996   4.312   9.182   8.222 -0.3715  0.4918 -0.8142
  845MOL0     C13997   4.288   9.246   8.346  0.0269 -0.3534  0.4656
  845MOL0     C13998   4.212   9.367   8.348  0.9802 -0.2923 -0.9788
  845MOL0     O13999   4.180   9.443   8.455 -0.4228 -0.5537 -0.0391
  845MOL0     C14000   4.196   9.378   8.583  0.0915 -0.6668  0.0427
  845MOL0     C14001   4.109   9.439   8.694 -0.4929  0.3528 -0.3955
  845MOL0     C14002   4.137   9.581   8.728  0.0918  0.1432  0.7671
  845MOL0     C14003   4.026   9.625   8.831  0.1241 -0.2419  0.0099
  845MOL0     C14004   4.033   9.568   8.966  0.1478 -0.4409  1.0003
  845MOL0     C14005   4.037   9.509   9.071  0.2068 -0.6538  0.0796
  845MOL0     C14006   4.173   9.415   8.227  0.1531  0.4565 -0.0196
  845MOL0     C14007   4.197   9.349   8.108  0.3111 -0.1131 -0.4900
  845MOL0     H14008   4.426   8.778   8.047  0.6155 -0.6486  0.6129
  845MOL0     H14009   4.539   8.629   7.878 -1.4804  0.2387  1.3528
  845MOL0     H14010   4.766   8.640   7.766  2.0954  1.1011  0.2865
  845MOL0     H14011   4.759   8.575   7.600  0.8302  0.0351  1.0869
  845MOL0     H14012   4.783   8.776   7.497  1.3011 -1.3239 -0.5619
  845MOL0     H14013   4.764   8.875   7.644  1.4594  0.0087  0.2445
  845MOL0     H14014   4.970   8.738   7.731 -2.5629  1.3733  1.4749
  845MOL0     H14015   4.979   8.674   7.565  4.2338 -0.2843  0.7333
  845MOL0     H14016   5.029   8.908   7.469  5.7716  0.8774 -1.1650
  845MOL0     H14017   5.009   8.986   7.627  0.0181  0.3099 -0.4580
  845MOL0     H14018   5.225   8.833   7.697  4.4842 -1.7274 -2.3046
  845MOL0     H14019   5.218   8.783   7.519  3.2182 -1.3513  0.8311
  845MOL0     H14020   5.288   8.974   7.447  0.1402 -0.2930 -0.2338
  845MOL0     H14021   5.227   9.076   7.585  0.9199 -0.2056  1.2434
  845MOL0     H14022   5.412   8.982   7.719  0.3758 -1.5288  0.1111
  845MOL0     H14023   5.461   8.887   7.582 -1.7928 -1.6135  2.3858
  845MOL0     H14024   5.480   9.191   7.618 -0.0016 -0.1455 -0.0726
  845MOL0     H14025   5.452   9.122   7.461 -2.3827 -0.3307  1.1693
  845MOL0     H14026   5.686   9.013   7.754 -1.5290  0.7497  0.8039
  845MOL0     H14027   6.048   9.001   7.676  0.5383 -0.5609  1.4080
  845MOL0     H14028   5.930   8.906   7.766 -2.1913  1.6588 -0.3093
  845MOL0     H14029   6.082   8.756   7.647 -2.2016 -3.3834  0.5571
  845MOL0     H14030   6.034   8.820   7.492  1.2911  0.9588 -0.3797
  845MOL0     H14031   5.790   8.743   7.536 -1.6822 -0.2414  2.0052
  845MOL0     H14032   5.842   8.708   7.700  0.4737  0.3540  0.6265
  845MOL0     H14033   5.993   8.538   7.607 -1.7292 -0.2857  1.1679
  845MOL0     H14034   5.931   8.580   7.441  1.6884  0.3261 -0.2325
  845MOL0     H14035   6.028   8.352   7.479 -0.8220 -0.4771 -2.8941
  845MOL0     H14036   6.172   8.155   7.526 -0.2510  0.6803 -0.1523
  845MOL0     H14037   6.091   7.995   7.485 -1.7582 -0.0286 -0.9924
  845MOL0     H14038   6.092   8.128   7.371 -1.9718 -0.3235  0.0860
  845MOL0     H14039   5.978   7.795   7.915  0.6790  3.1171 -3.1283
  845MOL0     H14040   6.017   7.578   8.000  1.4650 -0.5839  0.0855
  845MOL0     H14041   6.129   7.350   7.999  0.4924  0.1597 -2.1736
  845MOL0     H14042   5.967   7.360   8.060  1.6960 -1.9191  1.9583
  845MOL0     H14043   6.044   7.111   7.895 -1.2130  3.1220 -2.2267
  845MOL0     H14044   6.077   7.140   8.076 -1.3736  0.4940  0.4337
  845MOL0     H14045   5.811   7.217   8.018  1.8433  1.6907 -0.6708
  845MOL0     H14046   5.871   7.094   8.125 -0.4799  1.6945  0.1562
  845MOL0     H14047   5.831   7.045   7.829 -3.5066  1.9574  0.3956
  845MOL0     H14048   5.900   6.933   7.940  1.3597  0.8916 -0.6427
  845MOL0     H14049   5.656   6.874   7.913  0.4974 -1.1243  1.3084
  845MOL0     H14050   5.616   7.042   7.918 -6.2469 -3.8846 -0.6345
  845MOL0     H14051   5.713   6.873   8.148 -1.5321 -1.1248  1.5001
  845MOL0     H14052   5.664   7.041   8.172 -2.9069  1.3533 -2.0802
  845MOL0     H14053   5.484   6.789   8.118 -1.8515  0.2172 -0.3830
  845MOL0     H14054   5.425   6.942   8.056  1.4806 -1.3099 -1.8738
  845MOL0     H14055   5.325   6.918   8.274 -0.0981 -0.9469  0.5068
  845MOL0     H14056   5.453   7.041   8.297  2.7352 -1.1183  0.3053
  845MOL0     H14057   5.932   7.396   7.622  0.6114  0.2506 -0.2331
  845MOL0     H14058   5.912   7.637   7.523 -4.1825  1.2246  1.1760
  845MOL0     H14059   5.655   8.063   7.607 -0.3127  1.1400 -0.5751
  845MOL0     H14060   5.626   8.304   7.627 -0.3547 -1.4601 -0.1265
  845MOL0     H14061   4.523   8.933   7.583  1.1917 -0.5657  0.8109
  845MOL0     H14062   4.395   9.073   7.730 -2.9491 -2.2458 -0.6265
  845MOL0     H14063   4.368   9.089   8.219 -1.7388 -0.3618 -0.7423
  845MOL0     H14064   4.336   9.208   8.435  1.0424 -2.2112 -0.8010
  845MOL0     H14065   4.181   9.270   8.573 -0.6968 -0.9861  3.3064
  845MOL0     H14066   4.298   9.405   8.612 -0.3668 -0.0887  1.1722
  845MOL0     H14067   4.133   9.384   8.785  0.9186  1.2495 -0.1902
  845MOL0     H14068   4.004   9.435   8.665 -0.5484  1.5556 -0.4488
  845MOL0     H14069   4.141   9.639   8.636  1.5500 -0.0783  0.6626
  845MOL0     H14070   4.229   9.583   8.787  0.0582 -0.9661  0.8707
  845MOL0     H14071   3.922   9.624   8.797  0.3693  0.0853 -0.7777
  845MOL0     H14072   4.041   9.732   8.847  1.9586 -0.1913 -1.5943
  845MOL0     H14073   4.046   9.450   9.159  3.2999  0.4733  0.6557
  845MOL0     H14074   4.128   9.513   8.235  1.6207  1.1244  0.4356
  845MOL0     H14075   4.157   9.391   8.017 -0.9377 -1.1940 -0.4698
  846MOL0     O14076   2.869   7.995  11.061 -0.0598  0.3526 -0.4793
  846MOL0     C14077   2.825   8.060  11.162  0.1828  0.9350  0.3679
  846MOL0     O14078   2.808   8.017  11.292 -0.5797 -0.3514 -0.8679
  846MOL0     C14079   2.860   7.896  11.332  0.0791 -0.1937 -0.2591
  846MOL0     C14080   2.982   7.848  11.291 -0.0310  0.3584 -0.0266
  846MOL0     C14081   3.051   7.744  11.345 -0.5055  0.6975 -0.1316
  846MOL0     C14082   2.988   7.673  11.455 -0.2874  0.7982  1.4367
  846MOL0     O14083   3.049   7.566  11.514  0.0890  0.2154  0.2097
  846MOL0     C14084   3.128   7.605  11.624 -0.5258  1.0863  1.0224
  846MOL0     C14085   3.126   7.492  11.716 -0.1588  0.0435 -0.0545
  846MOL0     C14086   3.120   7.538  11.861 -0.0280 -0.4076 -0.1289
  846MOL0     C14087   3.157   7.428  11.960 -0.3372  0.1569  0.7387
  846MOL0     C14088   3.150   7.489  12.109  0.3683  0.2182  0.7105
  846MOL0     C14089   3.299   7.509  12.160  0.3117  0.8316  0.0972
  846MOL0     C14090   3.354   7.633  12.093  0.1574  0.7520  0.5519
  846MOL0     C14091   3.472   7.667  12.169 -0.2268  0.1025 -0.5705
  846MOL0     N14092   3.555   7.778  12.104  0.0991 -0.0945  0.2081
  846MOL0     C14093   3.634   7.871  12.173 -0.0857 -0.3262 -0.0328
  846MOL0     C14094   3.688   7.948  12.070  0.2404  0.0089 -0.3880
  846MOL0     C14095   3.777   8.065  12.090 -1.1089  0.2960  1.4495
  846MOL0     C14096   3.704   8.198  12.058  0.1552 -0.2709  1.2993
  846MOL0     C14097   3.786   8.326  12.092 -0.0783  0.0000 -0.2046
  846MOL0     C14098   3.711   8.448  12.033  0.3493 -0.2014  0.2512
  846MOL0     O14099   3.758   8.580  12.074  0.3073  0.3385 -0.0528
  846MOL0     C14100   3.704   8.695  12.021  0.2173  1.1551 -0.5608
  846MOL0     C14101   3.750   8.814  12.067 -1.1041  0.1762  0.6899
  846MOL0     C14102   3.711   8.936  12.008 -0.1868  0.5424  0.6380
  846MOL0     C14103   3.771   9.069  12.046  0.1628 -0.0649  0.3088
  846MOL0     C14104   3.612   8.936  11.907  0.0631 -0.4984  0.7852
  846MOL0     C14105   3.546   9.059  11.847  0.4217  0.1479 -0.9696
  846MOL0     O14106   3.565   9.061  11.709  0.9274 -0.0030 -0.5347
  846MOL0     C14107   3.552   9.184  11.654  0.8015  0.3608 -0.7029
  846MOL0     C14108   3.651   9.293  11.668  0.3226  0.3039 -0.1792
  846MOL0     C14109   3.638   9.418  11.599  0.4257  0.4220 -0.5697
  846MOL0     C14110   3.535   9.443  11.510 -0.8582  0.2530  1.3011
  846MOL0     O14111   3.516   9.562  11.446  0.4227 -0.4136  0.6951
  846MOL0     C14112   3.583   9.680  11.487  0.4191 -1.3011  0.4369
  846MOL0     C14113   3.580   9.780  11.375  0.8274  0.1564 -0.3270
  846MOL0     C14114   3.439   9.821  11.316  0.4592  0.8330  0.2693
  846MOL0     C14115   3.456   9.938  11.212  0.4981 -0.3558 -0.7797
  846MOL0     C14116   3.322   9.985  11.155 -0.0106  1.0148 -0.4431
  846MOL0     C14117   3.234  10.044  11.271  0.4023  0.1524  0.4101
  846MOL0     C14118   3.129  10.148  11.215  1.0000  1.5319 -0.3364
  846MOL0     C14119   3.025  10.196  11.325 -0.4833  0.0543  0.6746
  846MOL0    Cl14120   2.946  10.065  11.409 -0.1678 -0.2306 -0.0098
  846MOL0     C14121   3.434   9.347  11.499 -0.0104  0.4169  1.2774
  846MOL0     C14122   3.442   9.221  11.566 -0.4195  0.9591 -1.0744
  846MOL0     O14123   3.505   9.152  11.924 -0.3836  0.2120  0.0656
  846MOL0     C14124   3.567   8.817  11.858 -0.4082 -1.4138  0.1820
  846MOL0     C14125   3.612   8.703  11.915 -0.6042  0.8192 -0.2368
  846MOL0     N14126   3.662   7.890  11.946 -0.2214  0.6944  0.4813
  846MOL0     N14127   3.571   7.797  11.967  0.4750  0.4759 -0.5085
  846MOL0     C14128   2.864   7.714  11.493  0.4606  0.3272 -0.4531
  846MOL0     C14129   2.794   7.817  11.429  0.9378  0.0957 -0.1573
  846MOL0     C14130   2.800   8.199  11.133  0.3854 -0.1639  0.0020
  846MOL0     C14131   2.832   8.265  11.015  0.1758  0.0321  0.7536
  846MOL0     C14132   2.822   8.401  11.000  0.7689  0.2681 -0.3458
  846MOL0     C14133   2.766   8.486  11.096 -0.0191  0.7708 -0.4085
  846MOL0     O14134   2.751   8.617  11.068 -0.1804  1.5237 -0.8376
  846MOL0     C14135   2.674   8.705  11.155 -0.0066 -0.5997 -0.8255
  846MOL0     C14136   2.657   8.851  11.089 -0.0123  0.1322 -1.1057
  846MOL0     C14137   2.569   8.861  10.961 -0.1961  0.3563  0.5799
  846MOL0     C14138   2.532   9.013  10.936 -0.7402  0.0796  0.7023
  846MOL0     C14139   2.422   9.023  10.837 -0.3891 -0.1217  0.4759
  846MOL0     C14140   2.339   9.036  10.748 -1.0421  0.2480  0.0964
  846MOL0     C14141   2.733   8.425  11.216  0.2420  0.2452 -0.6977
  846MOL0     C14142   2.750   8.283  11.235 -0.5887 -0.7560  0.2635
  846MOL0     H14143   3.038   7.899  11.214  1.6700 -1.4292 -0.0596
  846MOL0     H14144   3.146   7.709  11.307  1.2277 -0.0159  4.2269
  846MOL0     H14145   3.228   7.639  11.596 -0.5426  3.5226  3.3976
  846MOL0     H14146   3.069   7.680  11.678 -2.3754 -0.1279  0.7868
  846MOL0     H14147   3.033   7.438  11.696 -0.0886 -1.0299  2.1420
  846MOL0     H14148   3.211   7.425  11.697 -0.4879 -1.0900  2.1283
  846MOL0     H14149   3.185   7.626  11.869  3.5222 -2.7249 -1.1545
  846MOL0     H14150   3.015   7.559  11.881 -0.6665 -1.3938 -2.1595
  846MOL0     H14151   3.081   7.349  11.966 -1.4254  1.1980  1.1151
  846MOL0     H14152   3.258   7.395  11.934 -0.7606  0.1546 -1.0152
  846MOL0     H14153   3.094   7.581  12.129  1.7074  0.9439  1.2761
  846MOL0     H14154   3.111   7.418  12.182 -1.6812  0.9027  0.3517
  846MOL0     H14155   3.290   7.516  12.269 -1.8984  1.2948 -0.0558
  846MOL0     H14156   3.362   7.422  12.141  0.2247  0.6978  0.4215
  846MOL0     H14157   3.369   7.609  11.987 -0.2394 -1.0718  0.8873
  846MOL0     H14158   3.280   7.713  12.098 -0.3083  0.3875 -0.3092
  846MOL0     H14159   3.528   7.574  12.165  0.9532  0.8323 -2.4782
  846MOL0     H14160   3.455   7.679  12.276 -1.4399 -0.3464 -0.6987
  846MOL0     H14161   3.644   7.879  12.281 -0.5086 -2.6860  0.2209
  846MOL0     H14162   3.824   8.064  12.189  0.5932 -1.1058  0.6916
  846MOL0     H14163   3.854   8.044  12.015 -0.7844 -0.5023  1.9904
  846MOL0     H14164   3.613   8.205  12.117 -1.1752  2.0360 -0.8271
  846MOL0     H14165   3.681   8.186  11.951  1.2519 -1.5841  1.1829
  846MOL0     H14166   3.882   8.296  12.049 -1.1857 -1.2836 -1.9551
  846MOL0     H14167   3.812   8.338  12.197  1.3008 -0.0872 -0.5100
  846MOL0     H14168   3.604   8.433  12.054 -0.2480 -1.4063 -3.0184
  846MOL0     H14169   3.724   8.440  11.925  1.6203 -1.0759  0.4602
  846MOL0     H14170   3.816   8.823  12.153 -1.5216  0.8476  0.9453
  846MOL0     H14171   3.868   9.040  12.088 -1.2883 -2.8889  1.9566
  846MOL0     H14172   3.793   9.137  11.963  4.3152 -2.0024 -0.4482
  846MOL0     H14173   3.703   9.115  12.118  1.0774 -0.7546  1.6438
  846MOL0     H14174   3.749   9.271  11.710  0.9212 -0.0705 -1.7079
  846MOL0     H14175   3.719   9.490  11.606 -1.2988  2.3115  1.9682
  846MOL0     H14176   3.542   9.715  11.582  0.1323  0.8930 -0.4414
  846MOL0     H14177   3.686   9.667  11.520  0.9490  1.3401 -0.0276
  846MOL0     H14178   3.624   9.871  11.416  0.0703  0.2017  0.4092
  846MOL0     H14179   3.644   9.739  11.296 -0.8971 -0.8927 -1.2374
  846MOL0     H14180   3.382   9.855  11.403 -0.5773 -1.7496  0.6797
  846MOL0     H14181   3.384   9.733  11.283 -1.8320  1.8563  1.1159
  846MOL0     H14182   3.494  10.022  11.271 -0.5813 -0.2033 -0.2715
  846MOL0     H14183   3.527   9.922  11.130  0.3386  1.1350 -1.2373
  846MOL0     H14184   3.282   9.898  11.102  2.9579 -1.6105  1.2841
  846MOL0     H14185   3.346  10.055  11.074  3.5805 -0.1123 -0.5274
  846MOL0     H14186   3.189   9.962  11.327  0.6515  0.3413  0.9021
  846MOL0     H14187   3.297  10.101  11.341 -1.1629  0.2612  1.7810
  846MOL0     H14188   3.072  10.100  11.135  0.1140  0.4621  0.8924
  846MOL0     H14189   3.186  10.231  11.173  2.1086  0.2659 -1.4304
  846MOL0     H14190   2.953  10.267  11.285  0.8326  0.8141 -0.4309
  846MOL0     H14191   3.080  10.258  11.396  2.3541 -0.3854 -0.9792
  846MOL0     H14192   3.342   9.383  11.452 -0.2859  0.4322  1.8173
  846MOL0     H14193   3.362   9.149  11.546  0.9390 -0.8232 -0.3102
  846MOL0     H14194   3.502   8.806  11.771  3.7171  0.4687 -3.5314
  846MOL0     H14195   3.575   8.615  11.863 -1.8463  0.4523  1.1877
  846MOL0     H14196   2.806   7.658  11.566 -2.1386  1.6204 -1.4114
  846MOL0     H14197   2.691   7.843  11.451  0.3931 -0.8707 -1.3799
  846MOL0     H14198   2.880   8.221  10.928 -0.8224 -1.9393  1.1353
  846MOL0     H14199   2.851   8.441  10.903 -0.0765  1.1834 -0.2347
  846MOL0     H14200   2.578   8.663  11.185  0.4142 -1.1381 -0.1803
  846MOL0     H14201   2.729   8.722  11.249 -2.3084  1.7330  0.2258
  846MOL0     H14202   2.757   8.889  11.063  0.9088 -1.3713  0.0872
  846MOL0     H14203   2.617   8.916  11.167  1.8662 -0.5124  0.4731
  846MOL0     H14204   2.475   8.806  10.967 -0.4033  0.1652 -2.6018
  846MOL0     H14205   2.628   8.809  10.885 -0.4832 -0.5271  0.9482
  846MOL0     H14206   2.628   9.059  10.912  0.2930 -1.4153  1.7785
  846MOL0     H14207   2.483   9.048  11.027 -0.3453 -0.6800  1.2223
  846MOL0     H14208   2.261   9.039  10.675 -0.0360 -1.9758 -1.1464
  846MOL0     H14209   2.698   8.488  11.297 -1.4444  0.0285 -1.2053
  846MOL0     H14210   2.728   8.241  11.333 -3.0944  1.5927  0.8449
  847MOL0     O14211   2.080   9.476   4.856 -0.3910 -0.2907 -1.1119
  847MOL0     C14212   2.137   9.554   4.786  0.2601 -0.5126  1.0760
  847MOL0     O14213   2.074   9.663   4.725 -0.1255  0.3536  0.6543
  847MOL0     C14214   1.968   9.731   4.775  0.5501  0.6891  0.4009
  847MOL0     C14215   1.956   9.857   4.717 -0.1845 -0.1292  0.1271
  847MOL0     C14216   1.862   9.939   4.754 -0.0547 -0.0039 -0.2031
  847MOL0     C14217   1.776   9.905   4.858 -0.1018 -0.2236 -0.0581
  847MOL0     O14218   1.694   9.997   4.916 -0.4440 -0.5543 -0.1111
  847MOL0     C14219   1.733  10.015   5.051  1.2900 -0.7761 -0.3999
  847MOL0     C14220   1.668  10.148   5.108 -0.2178  0.9475 -0.4750
  847MOL0     C14221   1.668  10.148   5.260  0.0186  0.3337  0.9082
  847MOL0     C14222   1.716  10.289   5.305 -0.3705  0.8477  0.3819
  847MOL0     C14223   1.700  10.315   5.456 -0.0361 -0.0914 -0.0121
  847MOL0     C14224   1.557  10.303   5.492  0.1555 -0.3196  0.5979
  847MOL0     C14225   1.552  10.362   5.632 -0.2069 -0.1640 -0.3070
  847MOL0     C14226   1.542  10.514   5.635  0.0435  0.2032 -0.2891
  847MOL0     N14227   1.559  10.567   5.771  0.0942 -1.4428 -0.0791
  847MOL0     C14228   1.612  10.508   5.889  0.5360  0.3997  0.3847
  847MOL0     C14229   1.565  10.591   5.986 -0.3345  0.1395 -0.3854
  847MOL0     C14230   1.585  10.581   6.137 -0.1197  0.9041  0.0349
  847MOL0     C14231   1.712  10.662   6.182 -0.3575 -0.1716  0.2141
  847MOL0     C14232   1.671  10.814   6.183 -0.9907 -1.1702 -0.4479
  847MOL0     C14233   1.788  10.895   6.244  0.1672 -0.9783  0.1362
  847MOL0     O14234   1.813  10.896   6.379  0.2870  0.0311 -0.2045
  847MOL0     C14235   1.718  10.929   6.476 -0.5603 -0.6320  0.4454
  847MOL0     C14236   1.744  10.887   6.605 -0.5223 -0.1035 -0.1260
  847MOL0     C14237   1.664  10.940   6.709 -0.3299  1.3171  0.6981
  847MOL0     C14238   1.696  10.878   6.844  0.5058 -0.0383 -0.2727
  847MOL0     C14239   1.562  11.034   6.686 -0.0585 -0.1871  0.1057
  847MOL0     C14240   1.500  11.102   6.795 -0.5611 -0.0565 -0.4368
  847MOL0     O14241   1.456  11.221   6.766  0.3442  0.2800  0.0084
  847MOL0     C14242   1.374  11.288   6.857 -0.1263 -0.4652 -0.3427
  847MOL0     C14243   1.449  11.349   6.961 -0.2225 -0.1345 -1.2059
  847MOL0     C14244   1.374  11.407   7.066  0.8361 -0.0254  0.3268
  847MOL0     C14245   1.226  11.410   7.078 -0.4077  0.0116  0.6146
  847MOL0     O14246   1.143  11.468   7.171  0.3984  0.0909 -0.0021
  847MOL0     C14247   1.208  11.528   7.284 -0.4689  0.1855  0.6275
  847MOL0     C14248   1.108  11.570   7.392  0.3537 -0.0869  0.3500
  847MOL0     C14249   1.012  11.464   7.429 -0.1325  0.1938 -1.3491
  847MOL0     C14250   0.935  11.499   7.556 -0.3379 -0.4185  0.1716
  847MOL0     C14251   0.810  11.412   7.583  0.9012 -0.3482  0.1543
  847MOL0     C14252   0.722  11.473   7.696 -0.0267 -0.4218 -0.3902
  847MOL0     C14253   0.617  11.384   7.759  0.1269 -0.0880 -0.7590
  847MOL0     C14254   0.515  11.346   7.650  0.5356  0.3485 -0.7496
  847MOL0    Cl14255   0.568  11.210   7.551  0.0848 -0.3370  0.5026
  847MOL0     C14256   1.164  11.356   6.963 -0.6544 -0.4816 -0.0732
  847MOL0     C14257   1.236  11.300   6.854 -0.1635  0.0574 -0.5706
  847MOL0     O14258   1.482  11.042   6.897  0.0806  0.2973  0.2674
  847MOL0     C14259   1.539  11.076   6.553  0.2570 -0.6710  0.1030
  847MOL0     C14260   1.612  11.014   6.451 -0.1080  0.1845  0.0091
  847MOL0     N14261   1.502  10.699   5.923  0.2261  0.0182 -0.3220
  847MOL0     N14262   1.511  10.687   5.798  0.3025 -0.3899  0.2407
  847MOL0     C14263   1.774   9.779   4.909  0.0562 -0.0133 -1.0953
  847MOL0     C14264   1.870   9.687   4.865  0.4806  0.5318 -0.0674
  847MOL0     C14265   2.266   9.520   4.731  0.4926 -0.2457  0.2079
  847MOL0     C14266   2.323   9.399   4.771  0.2586  0.4386 -0.0352
  847MOL0     C14267   2.449   9.369   4.721 -0.4824 -0.1252 -1.1598
  847MOL0     C14268   2.520   9.458   4.635 -0.7661  0.0544  0.3423
  847MOL0     O14269   2.651   9.418   4.608  0.0404 -0.1296 -0.3964
  847MOL0     C14270   2.722   9.488   4.503  0.9507  0.1065  0.1335
  847MOL0     C14271   2.675   9.425   4.374  0.2192 -0.2130 -0.4055
  847MOL0     C14272   2.688   9.273   4.369  0.4039  0.6629 -0.1231
  847MOL0     C14273   2.658   9.226   4.229 -0.2263  0.4757 -0.4532
  847MOL0     C14274   2.702   9.089   4.203 -0.4322 -0.2484  0.2926
  847MOL0     C14275   2.740   8.974   4.184  0.2790 -0.7418  0.4297
  847MOL0     C14276   2.449   9.575   4.583  0.4409  1.2313 -0.1168
  847MOL0     C14277   2.331   9.611   4.646  0.5431 -0.6716  0.5110
  847MOL0     H14278   2.019   9.881   4.632  1.1783 -0.5038  1.0037
  847MOL0     H14279   1.857  10.032   4.698  1.2711 -0.4772 -1.1589
  847MOL0     H14280   1.702   9.928   5.110 -2.1244 -0.2411 -1.2078
  847MOL0     H14281   1.842  10.020   5.062  1.6726 -2.2250 -2.8851
  847MOL0     H14282   1.730  10.226   5.064  0.4739  1.0331  0.6154
  847MOL0     H14283   1.564  10.157   5.075 -0.7552 -0.5423  0.6700
  847MOL0     H14284   1.561  10.133   5.282 -0.1080 -0.9127 -0.4147
  847MOL0     H14285   1.738  10.070   5.291 -1.6025 -0.4645  2.7898
  847MOL0     H14286   1.819  10.296   5.269 -0.1631 -2.3215  0.0461
  847MOL0     H14287   1.659  10.368   5.255 -2.0447 -1.0294 -0.8030
  847MOL0     H14288   1.772  10.252   5.509  2.8122  2.1092 -0.9831
  847MOL0     H14289   1.733  10.419   5.459 -1.0129  0.1897  1.5645
  847MOL0     H14290   1.492  10.350   5.417  0.0038 -2.5395 -0.7411
  847MOL0     H14291   1.526  10.199   5.489  1.0923 -0.6130  0.5702
  847MOL0     H14292   1.457  10.327   5.674 -0.6968  1.7086  0.2345
  847MOL0     H14293   1.624  10.314   5.698 -0.8720 -0.6111  0.1124
  847MOL0     H14294   1.449  10.544   5.587 -0.3237 -1.2475 -0.5399
  847MOL0     H14295   1.628  10.538   5.571 -0.3856 -3.1235 -2.3460
  847MOL0     H14296   1.658  10.411   5.904 -3.3480 -1.3824  2.0003
  847MOL0     H14297   1.491  10.621   6.175  0.6073  1.1804  1.6497
  847MOL0     H14298   1.596  10.476   6.164 -0.8518  0.7778 -0.1428
  847MOL0     H14299   1.799  10.663   6.117  1.2556  4.1274  2.1047
  847MOL0     H14300   1.742  10.640   6.285 -0.5625 -0.2819  0.2521
  847MOL0     H14301   1.586  10.836   6.248  0.1159 -0.1656  0.7187
  847MOL0     H14302   1.641  10.844   6.082 -0.6960  3.3100  0.5816
  847MOL0     H14303   1.773  10.999   6.213 -3.7166 -1.6303 -0.6877
  847MOL0     H14304   1.884  10.864   6.204 -0.4543 -1.1739 -1.2427
  847MOL0     H14305   1.819  10.809   6.613  0.2561  0.1561 -3.4617
  847MOL0     H14306   1.762  10.790   6.837  2.0602  1.0655  0.0152
  847MOL0     H14307   1.757  10.948   6.901  1.5389 -1.1540  0.0325
  847MOL0     H14308   1.601  10.848   6.888  1.1551 -2.4913 -0.3425
  847MOL0     H14309   1.554  11.333   6.981  0.2693  4.3919  0.8746
  847MOL0     H14310   1.444  11.438   7.143  0.3626 -0.0845  0.7878
  847MOL0     H14311   1.281  11.463   7.333 -1.9322 -0.9404  1.3799
  847MOL0     H14312   1.268  11.615   7.258 -0.0043 -0.3384 -0.0769
  847MOL0     H14313   1.155  11.599   7.486 -2.5508 -2.2828  2.6356
  847MOL0     H14314   1.054  11.655   7.351 -0.8241 -0.9892 -0.0144
  847MOL0     H14315   1.074  11.379   7.459  0.0857  0.6767 -0.4079
  847MOL0     H14316   0.940  11.427   7.354  2.0725 -4.2348 -1.6088
  847MOL0     H14317   1.002  11.499   7.642 -0.9050  0.0639  0.6306
  847MOL0     H14318   0.909  11.604   7.537  0.2442 -0.2601  0.2382
  847MOL0     H14319   0.841  11.312   7.612  5.7513  1.5884  2.7516
  847MOL0     H14320   0.737  11.414   7.502 -1.9446  0.7021  2.5208
  847MOL0     H14321   0.790  11.488   7.781 -0.6861 -2.3405  0.5105
  847MOL0     H14322   0.673  11.564   7.660  1.6825  0.8725  0.3753
  847MOL0     H14323   0.567  11.441   7.837 -0.9917 -0.2585 -1.3233
  847MOL0     H14324   0.647  11.288   7.801 -1.4593 -1.5804 -2.8126
  847MOL0     H14325   0.500  11.435   7.588 -0.0220  2.5988  2.4049
  847MOL0     H14326   0.416  11.320   7.688  1.0876 -1.1824 -0.3152
  847MOL0     H14327   1.058  11.378   6.969 -0.4839  0.0564  1.7096
  847MOL0     H14328   1.194  11.258   6.764  3.7373 -1.6116 -1.8033
  847MOL0     H14329   1.463  11.148   6.523  1.5879 -0.1739 -2.2939
  847MOL0     H14330   1.588  11.048   6.351 -2.0952  1.4213  0.8423
  847MOL0     H14331   1.705   9.746   4.986  0.3162  0.9936 -0.4140
  847MOL0     H14332   1.865   9.585   4.903 -0.5307  0.0083 -1.5298
  847MOL0     H14333   2.263   9.325   4.824 -0.2588  0.9033  0.0446
  847MOL0     H14334   2.502   9.287   4.767  2.0287  1.3611 -1.2121
  847MOL0     H14335   2.723   9.597   4.508  0.4442  0.2789 -2.4771
  847MOL0     H14336   2.828   9.466   4.522  1.2057  2.3523  1.6829
  847MOL0     H14337   2.748   9.465   4.302 -0.2955  0.1271 -0.7414
  847MOL0     H14338   2.576   9.461   4.344  0.6979  2.1012  0.6153
  847MOL0     H14339   2.620   9.231   4.443 -2.4451  1.8428 -1.8913
  847MOL0     H14340   2.790   9.238   4.392 -0.2364 -3.1050 -2.2257
  847MOL0     H14341   2.694   9.291   4.150  1.3617 -0.4116 -0.5149
  847MOL0     H14342   2.552   9.225   4.204 -0.2915  1.6066 -0.2660
  847MOL0     H14343   2.787   8.885   4.148  4.4162  0.5772  2.0226
  847MOL0     H14344   2.505   9.630   4.508  1.2665  0.6615  0.0669
  847MOL0     H14345   2.290   9.705   4.610  0.9209 -0.9468 -0.6993
  848MOL0     O14346   1.901  10.941   7.826  0.7591  0.2968 -0.7485
  848MOL0     C14347   2.002  10.934   7.895  0.5986 -0.2788 -0.0638
  848MOL0     O14348   2.121  10.994   7.861  0.5451 -0.2614  0.6285
  848MOL0     C14349   2.138  11.050   7.736  0.0717  0.1728  0.4008
  848MOL0     C14350   2.124  11.189   7.720  0.7233 -0.4544  0.0934
  848MOL0     C14351   2.141  11.246   7.594  1.1296 -0.3437  0.4638
  848MOL0     C14352   2.178  11.160   7.484 -0.0195 -0.3999 -0.2110
  848MOL0     O14353   2.199  11.201   7.352  0.0687 -0.3236 -0.8651
  848MOL0     C14354   2.089  11.274   7.296  0.0775  0.9197 -0.4328
  848MOL0     C14355   1.961  11.192   7.263 -1.0320  0.6866 -0.0458
  848MOL0     C14356   1.842  11.228   7.344  0.8858 -0.1104  0.3338
  848MOL0     C14357   1.729  11.131   7.289 -0.2168 -0.0364 -0.8029
  848MOL0     C14358   1.584  11.183   7.313  0.0494  0.3118 -0.3683
  848MOL0     C14359   1.492  11.081   7.258 -0.0138  0.4980 -0.0426
  848MOL0     C14360   1.345  11.112   7.276 -0.0077 -0.1838  0.4215
  848MOL0     C14361   1.264  11.026   7.186  0.4129  0.8059 -0.1188
  848MOL0     N14362   1.254  10.893   7.253  0.0979 -0.3921 -0.8749
  848MOL0     C14363   1.182  10.867   7.370 -0.0814  0.5673  0.3182
  848MOL0     C14364   1.195  10.731   7.386 -0.0313 -0.3412 -0.4494
  848MOL0     C14365   1.144  10.655   7.500 -1.0177  0.5253 -0.3598
  848MOL0     C14366   1.265  10.640   7.597  0.8221  0.8308 -0.3590
  848MOL0     C14367   1.219  10.592   7.731  0.7566 -0.2853  0.8953
  848MOL0     C14368   1.332  10.593   7.826  0.1364 -0.4080 -0.4486
  848MOL0     O14369   1.269  10.604   7.958 -0.3365  0.7132 -0.0101
  848MOL0     C14370   1.324  10.521   8.046 -0.0805 -0.2415  0.3124
  848MOL0     C14371   1.457  10.529   8.078  1.0336  0.4208 -0.4470
  848MOL0     C14372   1.520  10.433   8.165 -0.7401 -0.7704  0.3825
  848MOL0     C14373   1.669  10.440   8.175 -0.0611  0.4253 -0.4218
  848MOL0     C14374   1.446  10.326   8.206 -0.3776  0.0386  0.5704
  848MOL0     C14375   1.513  10.206   8.282  0.2910 -0.2986 -0.0010
  848MOL0     O14376   1.507  10.078   8.220  0.1857  0.0640  0.0938
  848MOL0     C14377   1.564   9.980   8.299  0.2864 -0.3066 -0.0498
  848MOL0     C14378   1.495   9.939   8.416  0.4030 -0.8266 -1.1417
  848MOL0     C14379   1.543   9.821   8.481 -0.7195  0.1520 -0.9061
  848MOL0     C14380   1.656   9.745   8.434  0.1369 -0.0937 -0.6976
  848MOL0     O14381   1.708   9.625   8.493  0.2981  1.2410 -0.1482
  848MOL0     C14382   1.628   9.554   8.586  0.6554 -1.0654  1.0979
  848MOL0     C14383   1.676   9.418   8.604  0.4231  0.8075 -0.1587
  848MOL0     C14384   1.760   9.403   8.732 -0.0230  0.0310 -0.4810
  848MOL0     C14385   1.677   9.348   8.853 -0.2065  0.1615 -0.2199
  848MOL0     C14386   1.582   9.449   8.918  0.4305 -0.9754 -0.3924
  848MOL0     C14387   1.658   9.544   9.004  0.8013 -0.2017  0.1907
  848MOL0     C14388   1.568   9.631   9.081  0.5995  0.4854  0.3126
  848MOL0     C14389   1.630   9.726   9.188 -0.6507  0.2674 -0.4528
  848MOL0    Cl14390   1.706   9.620   9.312  0.1945 -0.3204  0.4723
  848MOL0     C14391   1.721   9.782   8.318 -0.1834  0.7958 -0.4823
  848MOL0     C14392   1.673   9.900   8.254  0.1362  0.0633  0.0018
  848MOL0     O14393   1.569  10.232   8.388  0.1911  0.0330 -0.0396
  848MOL0     C14394   1.309  10.319   8.176  0.2695 -0.1533 -0.1940
  848MOL0     C14395   1.248  10.419   8.097  0.0873  0.5352 -0.1977
  848MOL0     N14396   1.276  10.686   7.282 -0.4100 -0.8799  0.0002
  848MOL0     N14397   1.311  10.781   7.205 -0.5036  0.5820 -1.1197
  848MOL0     C14398   2.184  11.022   7.500 -0.7840  0.6473  0.0155
  848MOL0     C14399   2.155  10.964   7.629 -0.4873 -1.0195  0.4026
  848MOL0     C14400   2.009  10.859   8.019 -0.5641  0.3924  0.5632
  848MOL0     C14401   1.887  10.834   8.088 -0.2216  0.3566  0.6684
  848MOL0     C14402   1.895  10.744   8.189  0.1209 -0.1503  0.2924
  848MOL0     C14403   2.013  10.702   8.253 -0.0444  0.1563 -0.4511
  848MOL0     O14404   1.996  10.634   8.370 -0.0522 -0.2759 -0.1965
  848MOL0     C14405   2.012  10.727   8.481  0.4801  0.0547  0.9268
  848MOL0     C14406   1.879  10.778   8.538  0.0453 -0.2964  0.7619
  848MOL0     C14407   1.786  10.661   8.576  0.2557 -0.1734  0.1038
  848MOL0     C14408   1.854  10.563   8.678  0.3331 -0.0470  0.2716
  848MOL0     C14409   1.855  10.619   8.811  0.2141  0.7406 -0.7544
  848MOL0     C14410   1.848  10.663   8.924 -0.4444  0.3858 -0.7002
  848MOL0     C14411   2.134  10.721   8.183  0.3137  0.6426  0.6472
  848MOL0     C14412   2.132  10.801   8.070  0.4948  0.1484  0.5032
  848MOL0     H14413   2.107  11.253   7.806 -0.5292  0.0505 -0.5131
  848MOL0     H14414   2.118  11.351   7.581 -1.1216 -1.0461 -2.1268
  848MOL0     H14415   2.068  11.345   7.377  0.9965 -0.0750  0.7154
  848MOL0     H14416   2.124  11.318   7.202  2.1679 -1.0456 -0.6475
  848MOL0     H14417   1.957  11.214   7.156  2.1767  0.4911 -0.3066
  848MOL0     H14418   1.978  11.084   7.269 -4.5257  0.0674  5.6804
  848MOL0     H14419   1.847  11.232   7.453  2.1704  1.2844  0.2494
  848MOL0     H14420   1.815  11.326   7.305 -0.3927 -1.2596 -1.8875
  848MOL0     H14421   1.745  11.115   7.182  5.2330  0.4602 -0.3305
  848MOL0     H14422   1.760  11.041   7.342 -1.3307 -0.3488 -0.6582
  848MOL0     H14423   1.555  11.216   7.413 -2.3824 -0.3447 -0.7887
  848MOL0     H14424   1.569  11.264   7.241 -0.9670 -2.7232 -3.8637
  848MOL0     H14425   1.534  11.056   7.160  0.6330  1.7668 -0.1144
  848MOL0     H14426   1.510  10.985   7.308  0.2560  1.5058  1.8910
  848MOL0     H14427   1.318  11.110   7.382 -1.0238 -2.7798  0.1909
  848MOL0     H14428   1.328  11.218   7.257 -1.2068 -0.1551  1.5081
  848MOL0     H14429   1.314  11.018   7.089 -0.0407 -1.6317 -0.2317
  848MOL0     H14430   1.164  11.068   7.175 -0.2874 -0.8837 -0.5676
  848MOL0     H14431   1.119  10.924   7.437 -0.2599  1.4146 -0.5429
  848MOL0     H14432   1.066  10.704   7.558 -1.0231 -1.6557  1.6481
  848MOL0     H14433   1.100  10.561   7.464  0.3197  0.5584 -2.2287
  848MOL0     H14434   1.299  10.743   7.608  0.5975  1.3561 -3.6429
  848MOL0     H14435   1.340  10.567   7.562  0.4418 -0.8447  2.0764
  848MOL0     H14436   1.177  10.493   7.712 -0.0603  0.0567  0.8792
  848MOL0     H14437   1.139  10.659   7.766 -1.2836 -0.5448 -2.7456
  848MOL0     H14438   1.397  10.680   7.816  1.6403 -1.4008  0.3190
  848MOL0     H14439   1.401  10.509   7.815  0.5711 -0.0804 -0.2656
  848MOL0     H14440   1.507  10.614   8.033 -0.2453  0.7584 -1.2657
  848MOL0     H14441   1.707  10.412   8.274  0.3405 -1.7661 -1.1374
  848MOL0     H14442   1.713  10.385   8.092 -1.1141 -1.1979  0.0555
  848MOL0     H14443   1.682  10.548   8.162 -1.2062  0.3506 -2.4631
  848MOL0     H14444   1.420   9.995   8.472  1.9022 -1.1228  1.3060
  848MOL0     H14445   1.496   9.792   8.575 -3.3490 -0.2429 -2.2626
  848MOL0     H14446   1.627   9.616   8.676 -2.1027  0.2309  0.2965
  848MOL0     H14447   1.525   9.538   8.551  1.1088 -1.1723 -0.2249
  848MOL0     H14448   1.596   9.343   8.604  1.3407 -0.2194  0.9789
  848MOL0     H14449   1.736   9.384   8.520 -0.5497  0.8722 -0.8994
  848MOL0     H14450   1.810   9.496   8.762 -3.0541  0.9761  2.2837
  848MOL0     H14451   1.842   9.333   8.713 -0.8070 -1.2725  0.7326
  848MOL0     H14452   1.619   9.260   8.823 -1.8838  1.3404 -0.6437
  848MOL0     H14453   1.748   9.311   8.927  0.7218 -0.9019 -1.5848
  848MOL0     H14454   1.507   9.401   8.981 -1.4348  1.8177 -0.3463
  848MOL0     H14455   1.536   9.508   8.838  2.3745  2.6927  0.9631
  848MOL0     H14456   1.730   9.492   9.068  2.7897 -1.1483 -2.6165
  848MOL0     H14457   1.720   9.612   8.945  2.9132 -2.1204  0.0375
  848MOL0     H14458   1.502   9.564   9.136  2.5909 -0.3104  1.8397
  848MOL0     H14459   1.509   9.686   9.007  2.1844 -0.2950 -1.6192
  848MOL0     H14460   1.556   9.796   9.227  0.3581  1.0795  0.0654
  848MOL0     H14461   1.712   9.784   9.145 -1.9470  2.5071 -0.0494
  848MOL0     H14462   1.805   9.725   8.280 -1.1479 -2.1215  1.4588
  848MOL0     H14463   1.722   9.951   8.172  0.0095  4.4349  2.3072
  848MOL0     H14464   1.254  10.233   8.213 -0.7342  1.2628  1.7724
  848MOL0     H14465   1.144  10.417   8.067  0.5578 -0.3826 -1.9007
  848MOL0     H14466   2.191  10.953   7.416 -1.4423  0.0113  0.4674
  848MOL0     H14467   2.157  10.858   7.650  2.1990 -0.4295  4.1091
  848MOL0     H14468   1.787  10.867   8.062 -0.7862 -2.0044 -0.4383
  848MOL0     H14469   1.803  10.714   8.238 -0.3382 -0.9624 -1.0057
  848MOL0     H14470   2.072  10.681   8.559 -1.1660 -1.1158  1.5740
  848MOL0     H14471   2.046  10.824   8.444  3.1446 -1.2398 -0.2726
  848MOL0     H14472   1.848  10.854   8.466 -0.8282  0.2822  1.7159
  848MOL0     H14473   1.886  10.837   8.629 -3.4918 -0.1592  1.1053
  848MOL0     H14474   1.761  10.605   8.485 -2.6856  1.9447 -0.5087
  848MOL0     H14475   1.691  10.701   8.611  0.9407  2.3160 -0.6836
  848MOL0     H14476   1.958  10.534   8.666 -0.3752 -5.1213  3.0923
  848MOL0     H14477   1.802  10.467   8.685  1.9416 -1.1618 -1.9351
  848MOL0     H14478   1.850  10.687   9.028  4.0036  0.1325 -0.5135
  848MOL0     H14479   2.230  10.684   8.218 -0.2659 -1.7075 -0.0022
  848MOL0     H14480   2.228  10.828   8.027  0.0902  2.3158  0.8337
  849MOL0     O14481  10.258   5.270   7.911 -0.1121  0.3265 -0.1282
  849MOL0     C14482  10.204   5.337   7.820  0.4863  0.3013 -0.2748
  849MOL0     O14483  10.077   5.327   7.766 -0.7340  0.7157 -0.4930
  849MOL0     C14484   9.985   5.225   7.787  0.2704 -0.2178 -0.1461
  849MOL0     C14485   9.912   5.179   7.681  0.0005 -0.5655 -0.4326
  849MOL0     C14486   9.818   5.078   7.693 -0.0961  0.1100  0.0451
  849MOL0     C14487   9.800   5.015   7.817  0.9126  0.3225  0.6224
  849MOL0     O14488   9.723   4.902   7.841 -0.5654 -1.2630 -0.8577
  849MOL0     C14489   9.634   4.856   7.745 -0.1094  0.7765  1.1674
  849MOL0     C14490   9.703   4.779   7.622  0.1204 -0.7274 -1.2410
  849MOL0     C14491   9.617   4.790   7.497  0.0073 -0.3289 -0.0348
  849MOL0     C14492   9.685   4.721   7.380  0.1448  0.7753  0.0310
  849MOL0     C14493   9.597   4.718   7.253 -0.9117 -0.0782 -0.3025
  849MOL0     C14494   9.602   4.574   7.196 -0.4586  0.2723 -0.0498
  849MOL0     C14495   9.489   4.556   7.094 -0.2129  0.3188  0.8523
  849MOL0     C14496   9.387   4.458   7.147  0.4165  0.2545  0.2340
  849MOL0     N14497   9.318   4.521   7.261  1.0983  0.0476 -0.4901
  849MOL0     C14498   9.289   4.460   7.383 -0.0783  0.9149 -0.2174
  849MOL0     C14499   9.198   4.544   7.444 -0.8699 -0.1583 -0.1688
  849MOL0     C14500   9.127   4.534   7.577 -0.5061  0.1856  0.0656
  849MOL0     C14501   9.208   4.601   7.697 -0.4557  0.3784  0.3537
  849MOL0     C14502   9.126   4.597   7.820  0.5014 -0.1327 -0.6334
  849MOL0     C14503   9.226   4.611   7.938  0.1905  0.0381  0.3794
  849MOL0     O14504   9.305   4.735   7.932  0.1753  0.0926  0.1903
  849MOL0     C14505   9.409   4.744   8.019 -0.0717 -0.2051 -0.0323
  849MOL0     C14506   9.459   4.641   8.100  0.4618  0.6463 -0.0774
  849MOL0     C14507   9.564   4.667   8.195  0.4666 -0.3759 -0.1600
  849MOL0     C14508   9.604   4.561   8.289  0.4555  0.7248  0.1360
  849MOL0     C14509   9.634   4.795   8.184 -0.0626  0.9182 -0.6330
  849MOL0     C14510   9.758   4.818   8.261 -1.3969  0.5125 -0.6187
  849MOL0     O14511   9.794   4.950   8.272 -0.3700 -0.4327 -0.6259
  849MOL0     C14512   9.913   5.001   8.318 -0.2660  0.5501 -0.6682
  849MOL0     C14513   9.925   5.138   8.337  0.3892 -0.4074  0.3270
  849MOL0     C14514  10.039   5.201   8.385 -0.3595  0.1910 -0.0193
  849MOL0     C14515  10.147   5.133   8.426  0.7798  0.2318 -0.6546
  849MOL0     O14516  10.247   5.203   8.494  0.6260 -0.5318 -0.3762
  849MOL0     C14517  10.358   5.127   8.554  0.0379  0.2566  0.0402
  849MOL0     C14518  10.422   5.216   8.661  0.1304  0.5303 -0.1432
  849MOL0     C14519  10.547   5.156   8.720 -0.1507 -0.3409  1.1915
  849MOL0     C14520  10.667   5.178   8.628  0.6663 -0.2899 -1.0770
  849MOL0     C14521  10.787   5.124   8.696  0.8202 -0.3938 -0.4592
  849MOL0     C14522  10.913   5.118   8.603 -0.3435 -0.7649  1.3111
  849MOL0     C14523  11.047   5.098   8.679 -1.3917 -0.7485  0.5299
  849MOL0     C14524  11.173   5.112   8.591  0.1738  1.2730  0.1328
  849MOL0    Cl14525  11.185   4.984   8.460  0.1951 -0.3914  0.1145
  849MOL0     C14526  10.152   4.991   8.406  0.2517 -0.0748  1.1623
  849MOL0     C14527  10.036   4.931   8.342  0.5413 -0.3146  0.4616
  849MOL0     O14528   9.835   4.721   8.284  0.2119 -0.1908  0.4273
  849MOL0     C14529   9.576   4.898   8.111  0.2141  0.0070  0.2169
  849MOL0     C14530   9.465   4.869   8.034  0.0102 -0.5040 -0.3295
  849MOL0     N14531   9.178   4.651   7.363 -0.0413  0.1650 -0.5844
  849MOL0     N14532   9.243   4.639   7.248 -0.8445  0.0415  0.6119
  849MOL0     C14533   9.874   5.066   7.930 -0.0446  0.3233 -0.0810
  849MOL0     C14534   9.965   5.172   7.918  0.7595 -0.9747 -0.4408
  849MOL0     C14535  10.287   5.453   7.772  0.0841  0.3088  0.4581
  849MOL0     C14536  10.238   5.526   7.669  0.2604  1.1275  0.6785
  849MOL0     C14537  10.299   5.646   7.642  0.8142 -1.5305 -0.2174
  849MOL0     C14538  10.410   5.702   7.713  0.6886  1.0272 -0.5243
  849MOL0     O14539  10.481   5.814   7.683 -0.8103  0.1203 -0.5705
  849MOL0     C14540  10.457   5.875   7.561  0.3389  0.0461  0.0433
  849MOL0     C14541  10.575   5.954   7.531 -0.6697 -1.1703  0.4480
  849MOL0     C14542  10.704   5.870   7.524 -0.3290  0.0278 -0.2862
  849MOL0     C14543  10.830   5.940   7.582 -0.4273 -0.2311  0.3553
  849MOL0     C14544  10.883   6.057   7.500  0.8250  0.2691 -0.7057
  849MOL0     C14545  10.920   6.153   7.434  0.1844 -0.4551 -0.4218
  849MOL0     C14546  10.462   5.618   7.809 -1.2812  0.5896  0.0229
  849MOL0     C14547  10.401   5.499   7.846  0.9351  1.2013  0.8239
  849MOL0     H14548   9.931   5.233   7.589  1.7603  0.9038  0.7097
  849MOL0     H14549   9.763   5.044   7.607  1.0840 -3.2565  0.4897
  849MOL0     H14550   9.562   4.785   7.787 -1.2573  1.7482  0.9170
  849MOL0     H14551   9.578   4.947   7.721  0.2477  1.5934  3.1931
  849MOL0     H14552   9.796   4.832   7.599  0.7925 -1.3126  0.0289
  849MOL0     H14553   9.722   4.678   7.658  0.9806  0.1135  0.8287
  849MOL0     H14554   9.522   4.741   7.517 -0.3661 -0.2937 -1.6360
  849MOL0     H14555   9.592   4.891   7.465  0.7201 -0.7436 -2.0214
  849MOL0     H14556   9.773   4.780   7.357 -0.4186  1.4669 -0.3998
  849MOL0     H14557   9.706   4.618   7.410  2.0186  1.5198  1.4694
  849MOL0     H14558   9.495   4.751   7.275 -1.3333 -0.8193 -1.0407
  849MOL0     H14559   9.635   4.797   7.187  1.9903  1.2077  2.6304
  849MOL0     H14560   9.695   4.566   7.139 -0.9245  0.9029 -0.9251
  849MOL0     H14561   9.593   4.488   7.262  1.7462  0.0861  0.0749
  849MOL0     H14562   9.432   4.646   7.069  3.2929  2.4324 -0.2227
  849MOL0     H14563   9.524   4.513   7.000  0.9479 -0.6529  1.6969
  849MOL0     H14564   9.432   4.361   7.172  1.3557  0.7168  0.3710
  849MOL0     H14565   9.303   4.442   7.078 -0.0174  0.0482  0.7896
  849MOL0     H14566   9.330   4.367   7.421  1.0125  1.7954  0.8587
  849MOL0     H14567   9.038   4.596   7.569 -0.5451  0.2671  1.1017
  849MOL0     H14568   9.099   4.430   7.592  1.0766 -0.3212 -0.2809
  849MOL0     H14569   9.218   4.706   7.666 -3.5371  0.8501  0.6071
  849MOL0     H14570   9.304   4.550   7.704 -0.4085  0.2935 -0.7560
  849MOL0     H14571   9.088   4.495   7.826  0.4617 -0.1624 -1.3153
  849MOL0     H14572   9.045   4.669   7.836  2.8255  2.5591 -0.1703
  849MOL0     H14573   9.294   4.525   7.934  1.0091  0.6309  1.1770
  849MOL0     H14574   9.176   4.609   8.035 -2.3084  1.8556 -0.7659
  849MOL0     H14575   9.429   4.538   8.114  3.2135 -0.0393  1.6061
  849MOL0     H14576   9.670   4.581   8.374  4.0694  0.3264 -2.3618
  849MOL0     H14577   9.514   4.512   8.329  0.6744  0.0603 -0.1725
  849MOL0     H14578   9.656   4.488   8.226 -2.4363  2.0158 -4.1012
  849MOL0     H14579   9.844   5.200   8.300  0.0037 -0.0736  1.6636
  849MOL0     H14580  10.041   5.310   8.390  1.2065  0.2137 -0.5013
  849MOL0     H14581  10.325   5.031   8.596  3.3669  0.1370  2.8591
  849MOL0     H14582  10.431   5.110   8.475  0.9121 -0.4717  0.9706
  849MOL0     H14583  10.435   5.317   8.623  3.3082 -0.7663 -3.0042
  849MOL0     H14584  10.346   5.222   8.740 -0.0815  0.1643 -0.3139
  849MOL0     H14585  10.549   5.048   8.735 -0.0266 -0.0753  3.3915
  849MOL0     H14586  10.575   5.200   8.816  0.9713  1.0581  0.2759
  849MOL0     H14587  10.640   5.122   8.537 -0.7051 -0.8856 -0.3294
  849MOL0     H14588  10.683   5.283   8.602  1.2022 -0.1119 -0.0735
  849MOL0     H14589  10.757   5.022   8.721 -2.3754  0.5422  0.0017
  849MOL0     H14590  10.794   5.178   8.790 -2.3966 -2.8790  1.4257
  849MOL0     H14591  10.898   5.038   8.531 -3.1206  2.1811 -1.7430
  849MOL0     H14592  10.924   5.212   8.547  4.6440 -2.1014 -0.4923
  849MOL0     H14593  11.049   5.003   8.734  2.5241 -1.1245  0.0737
  849MOL0     H14594  11.055   5.180   8.752 -3.0514 -0.7184  0.7223
  849MOL0     H14595  11.255   5.093   8.661  0.2380  0.8569 -0.0562
  849MOL0     H14596  11.160   5.216   8.560 -4.1319  1.4082  1.7235
  849MOL0     H14597  10.211   4.921   8.465  1.6798 -0.2964 -0.4428
  849MOL0     H14598  10.031   4.826   8.317 -1.0095  0.1668 -1.5010
  849MOL0     H14599   9.608   5.002   8.110 -0.0564  0.1133 -2.3132
  849MOL0     H14600   9.410   4.954   7.993  0.5595 -0.6701 -1.4330
  849MOL0     H14601   9.867   5.027   8.031  0.9068 -0.6108 -0.3544
  849MOL0     H14602  10.021   5.198   8.008  0.6185  0.3146 -0.7016
  849MOL0     H14603  10.152   5.498   7.609  0.2898  1.4048  0.5096
  849MOL0     H14604  10.253   5.711   7.569 -0.1145 -1.6626  0.2391
  849MOL0     H14605  10.434   5.799   7.487 -1.0241 -2.3148  2.6967
  849MOL0     H14606  10.381   5.953   7.572 -0.9241 -1.4567  3.1472
  849MOL0     H14607  10.582   6.020   7.618 -0.0960 -0.5604 -0.0609
  849MOL0     H14608  10.569   6.001   7.433 -0.0001 -2.5246 -0.2771
  849MOL0     H14609  10.723   5.850   7.418  0.0268  2.1226 -0.6624
  849MOL0     H14610  10.697   5.773   7.574  0.1812  0.5715  0.8801
  849MOL0     H14611  10.900   5.858   7.602  0.7464  0.9724  1.4027
  849MOL0     H14612  10.807   5.982   7.681  0.2198  0.1023  0.3726
  849MOL0     H14613  10.927   6.239   7.370 -2.4309 -1.4171 -2.1808
  849MOL0     H14614  10.544   5.657   7.867  0.1212 -2.4787  0.3274
  849MOL0     H14615  10.438   5.435   7.925 -0.5652  0.6835  1.1521
  850MOL0     O14616   3.233   2.891   1.111  0.5682  0.3806 -0.3944
  850MOL0     C14617   3.172   2.785   1.080 -0.2034 -0.4288 -0.8514
  850MOL0     O14618   3.171   2.668   1.152 -0.4152 -0.4620  0.0590
  850MOL0     C14619   3.250   2.650   1.263 -0.2065  0.5032  0.2002
  850MOL0     C14620   3.336   2.546   1.269 -0.5631  0.4725 -0.7792
  850MOL0     C14621   3.423   2.528   1.378 -0.5406 -0.3708  0.1115
  850MOL0     C14622   3.401   2.610   1.490  0.5779 -0.1558  0.4624
  850MOL0     O14623   3.460   2.586   1.612 -0.2115  0.3694 -0.0064
  850MOL0     C14624   3.517   2.461   1.642 -0.3850 -0.3521 -0.3497
  850MOL0     C14625   3.611   2.452   1.768 -0.4766  0.1086 -0.6345
  850MOL0     C14626   3.700   2.331   1.754 -0.1457  0.3006  0.2007
  850MOL0     C14627   3.631   2.193   1.772 -0.3226 -0.6206 -0.0911
  850MOL0     C14628   3.735   2.097   1.814 -0.7101 -0.4086 -0.7943
  850MOL0     C14629   3.853   2.082   1.710 -0.3465 -0.6607  1.0105
  850MOL0     C14630   3.932   1.964   1.769 -0.1629  0.4400 -0.0614
  850MOL0     C14631   4.063   1.937   1.689  0.0741  0.6806  0.2418
  850MOL0     N14632   4.166   1.870   1.771  0.1813 -0.6677  0.3780
  850MOL0     C14633   4.153   1.744   1.830  0.5230 -0.3662 -0.2780
  850MOL0     C14634   4.262   1.734   1.900 -0.7919  0.9253  0.1189
  850MOL0     C14635   4.298   1.604   1.966  0.4578  0.5261  0.6431
  850MOL0     C14636   4.196   1.574   2.074 -0.8064  0.1970  0.0135
  850MOL0     C14637   4.250   1.617   2.222 -1.1647  0.1040  0.5833
  850MOL0     C14638   4.135   1.623   2.327 -0.0767  0.1627 -0.4497
  850MOL0     O14639   4.044   1.522   2.293 -0.2229  0.0356 -0.0507
  850MOL0     C14640   4.015   1.442   2.404 -0.4410  0.5916  0.9665
  850MOL0     C14641   3.978   1.486   2.532 -0.6312 -0.3312 -0.6698
  850MOL0     C14642   3.950   1.395   2.639  0.3367  0.1722  0.2960
  850MOL0     C14643   3.919   1.465   2.768  0.7066  0.0305  0.3869
  850MOL0     C14644   3.968   1.255   2.618  0.6553 -0.2533 -0.0429
  850MOL0     C14645   3.957   1.165   2.733  0.3581  0.3301 -0.4926
  850MOL0     O14646   3.956   1.035   2.700  0.1642 -0.6993 -0.8599
  850MOL0     C14647   3.998   0.948   2.786 -0.7962  0.8134 -0.7275
  850MOL0     C14648   4.107   0.872   2.744 -0.7179 -0.1090 -0.4921
  850MOL0     C14649   4.182   0.797   2.831  0.8354 -0.1281  0.0938
  850MOL0     C14650   4.140   0.785   2.964 -0.0283  0.3710  0.2170
  850MOL0     O14651   4.223   0.708   3.036  0.4345  0.7723 -0.4861
  850MOL0     C14652   4.230   0.729   3.182  0.2355 -0.5887 -0.2798
  850MOL0     C14653   4.299   0.605   3.238  0.2729 -0.3040 -0.2492
  850MOL0     C14654   4.428   0.559   3.181 -0.2742 -1.1026 -0.1245
  850MOL0     C14655   4.510   0.465   3.270  0.8208 -0.1580 -0.3448
  850MOL0     C14656   4.606   0.376   3.186 -0.6454  0.7349  1.0295
  850MOL0     C14657   4.691   0.458   3.091  0.2470  0.1944 -0.4999
  850MOL0     C14658   4.795   0.387   3.005  0.0286 -0.4358  0.0945
  850MOL0     C14659   4.851   0.470   2.884 -0.0996 -0.6386  0.0496
  850MOL0    Cl14660   4.886   0.650   2.886 -0.1549  0.6170 -0.1433
  850MOL0     C14661   4.019   0.846   3.008 -0.0542 -0.7273  0.8014
  850MOL0     C14662   3.953   0.926   2.918 -0.3781 -0.9159 -0.0253
  850MOL0     O14663   3.944   1.207   2.847  0.0661 -0.1006 -0.0448
  850MOL0     C14664   3.992   1.211   2.480 -0.5402 -0.4554  0.0803
  850MOL0     C14665   4.025   1.307   2.379 -0.5791 -0.3748  0.1072
  850MOL0     N14666   4.343   1.847   1.896 -0.9726 -0.3370  0.1371
  850MOL0     N14667   4.280   1.930   1.810  0.0828 -0.2791  0.2736
  850MOL0     C14668   3.307   2.711   1.484 -0.8891  0.1054  0.6020
  850MOL0     C14669   3.231   2.733   1.373  0.1746  0.5451 -0.2951
  850MOL0     C14670   3.090   2.782   0.960  0.0096  0.1987 -0.6352
  850MOL0     C14671   3.113   2.880   0.865  0.3095 -0.6628 -0.5124
  850MOL0     C14672   3.054   2.879   0.733 -0.1265  0.0352 -0.5497
  850MOL0     C14673   2.967   2.771   0.696 -1.3943 -0.2791 -0.4070
  850MOL0     O14674   2.902   2.745   0.585 -0.7618 -0.1043  0.1289
  850MOL0     C14675   2.893   2.851   0.480 -0.3447 -0.0164  0.4853
  850MOL0     C14676   2.811   2.801   0.366 -0.1046 -0.3363  0.4746
  850MOL0     C14677   2.812   2.651   0.324  0.6899 -0.8372 -0.4328
  850MOL0     C14678   2.669   2.605   0.287  0.5493 -0.1075  0.1074
  850MOL0     C14679   2.660   2.462   0.257 -0.0854 -0.4595  0.2154
  850MOL0     C14680   2.658   2.347   0.225  0.2486  1.2772 -0.5802
  850MOL0     C14681   2.940   2.674   0.794 -0.8134  0.5932 -0.2955
  850MOL0     C14682   3.004   2.677   0.925 -0.3103 -0.5796  0.4604
  850MOL0     H14683   3.347   2.492   1.176 -1.3072 -0.2445 -0.4615
  850MOL0     H14684   3.493   2.445   1.380 -0.0972 -0.0209 -0.6789
  850MOL0     H14685   3.437   2.388   1.655 -2.3436  1.4916 -1.4526
  850MOL0     H14686   3.583   2.427   1.561  0.3537 -1.4496  0.6887
  850MOL0     H14687   3.670   2.543   1.782  3.2021 -1.9245 -1.5392
  850MOL0     H14688   3.550   2.445   1.858  1.3043  1.2337  0.7216
  850MOL0     H14689   3.760   2.335   1.663  0.8063 -3.6782  0.4422
  850MOL0     H14690   3.769   2.341   1.839 -1.9056  1.4443  1.5522
  850MOL0     H14691   3.556   2.199   1.852 -2.9370  0.1008 -2.4154
  850MOL0     H14692   3.583   2.168   1.677  0.8330  0.9314 -1.1452
  850MOL0     H14693   3.776   2.124   1.912 -0.7699  0.4984 -1.0127
  850MOL0     H14694   3.685   2.001   1.826 -0.5050 -0.6681 -1.9397
  850MOL0     H14695   3.823   2.052   1.609 -0.7172 -2.0412  1.5070
  850MOL0     H14696   3.921   2.167   1.719  0.5356 -1.3992  1.4969
  850MOL0     H14697   3.951   1.995   1.873 -5.1499  2.2034  0.6332
  850MOL0     H14698   3.870   1.874   1.777  0.6587 -0.0303  1.3369
  850MOL0     H14699   4.096   2.030   1.643 -2.6023  2.0287  0.8276
  850MOL0     H14700   4.040   1.871   1.606  0.3277  0.5983  0.2381
  850MOL0     H14701   4.069   1.675   1.830  1.5181 -1.6374  1.0838
  850MOL0     H14702   4.298   1.525   1.890  1.5829 -1.0445  2.1944
  850MOL0     H14703   4.399   1.605   2.009  0.5111 -1.3290  0.6517
  850MOL0     H14704   4.196   1.464   2.073  3.2699  0.0141  0.6662
  850MOL0     H14705   4.101   1.623   2.051  0.3952  2.0731 -1.1491
  850MOL0     H14706   4.301   1.713   2.228 -0.7834 -0.0235 -0.3646
  850MOL0     H14707   4.323   1.541   2.251 -1.0387  0.8291  2.3241
  850MOL0     H14708   4.089   1.723   2.324  3.2284  1.8199  0.1462
  850MOL0     H14709   4.183   1.598   2.422 -0.2530 -0.7123 -0.5838
  850MOL0     H14710   3.970   1.593   2.545  2.0816  0.2121 -2.5100
  850MOL0     H14711   3.893   1.571   2.759  4.0916  1.0948  1.6902
  850MOL0     H14712   3.834   1.416   2.816  0.8683 -1.2440 -0.5803
  850MOL0     H14713   3.997   1.454   2.843 -0.0354 -1.8039  0.9435
  850MOL0     H14714   4.137   0.902   2.645  2.7994  1.7467  0.9646
  850MOL0     H14715   4.279   0.750   2.813  0.2676 -0.7478 -1.5429
  850MOL0     H14716   4.277   0.824   3.208 -0.3296 -0.4602  0.2693
  850MOL0     H14717   4.130   0.725   3.224  0.3467  0.0044  0.0392
  850MOL0     H14718   4.304   0.628   3.345 -1.7631 -0.6899 -0.0271
  850MOL0     H14719   4.235   0.518   3.224  0.9459 -1.1401  1.6243
  850MOL0     H14720   4.479   0.652   3.156 -1.3616 -0.3129  0.5251
  850MOL0     H14721   4.413   0.496   3.093  0.4578 -0.1545 -0.9530
  850MOL0     H14722   4.574   0.514   3.344 -0.4227 -2.0399  2.1693
  850MOL0     H14723   4.441   0.402   3.327 -0.0720  0.5975 -0.5650
  850MOL0     H14724   4.540   0.313   3.127 -1.5401 -2.4132  5.0260
  850MOL0     H14725   4.666   0.312   3.251 -4.1451 -2.3086  1.5329
  850MOL0     H14726   4.629   0.515   3.022 -0.0897  2.3320  1.4480
  850MOL0     H14727   4.734   0.540   3.149 -1.3453 -0.7594  2.2348
  850MOL0     H14728   4.764   0.289   2.969 -0.2186 -1.0887  2.0078
  850MOL0     H14729   4.878   0.377   3.076 -0.5618  1.8238  1.1908
  850MOL0     H14730   4.769   0.460   2.812  0.6106 -1.0244 -0.7296
  850MOL0     H14731   4.935   0.425   2.830  0.1595 -1.4934  1.1424
  850MOL0     H14732   3.978   0.828   3.106 -1.9636  0.1253  0.2025
  850MOL0     H14733   3.877   0.989   2.961 -0.4154 -1.4494  0.7172
  850MOL0     H14734   4.003   1.105   2.458  1.1594  0.2094 -2.7789
  850MOL0     H14735   4.050   1.280   2.276 -1.3331  0.6095 -0.3501
  850MOL0     H14736   3.293   2.783   1.564 -2.6603 -1.2734  1.6161
  850MOL0     H14737   3.175   2.826   1.378  0.1988  0.5069  0.9413
  850MOL0     H14738   3.172   2.967   0.893  0.7363 -1.5014  1.2824
  850MOL0     H14739   3.078   2.964   0.669 -0.8556  0.3760 -0.3841
  850MOL0     H14740   2.853   2.950   0.504 -0.9362 -0.4485  1.3227
  850MOL0     H14741   2.994   2.866   0.439  0.1670  0.0325  1.7276
  850MOL0     H14742   2.828   2.871   0.284 -0.1952 -0.4887  0.3238
  850MOL0     H14743   2.710   2.821   0.404  0.3199 -0.8356  1.9353
  850MOL0     H14744   2.847   2.586   0.405  0.2448 -1.3505 -0.6442
  850MOL0     H14745   2.877   2.646   0.236 -0.7809  3.1081 -1.9429
  850MOL0     H14746   2.628   2.666   0.207 -0.5027 -2.4891 -1.2832
  850MOL0     H14747   2.602   2.626   0.371  1.0920  1.2302  0.2260
  850MOL0     H14748   2.660   2.244   0.195  1.5476  1.8187 -2.5567
  850MOL0     H14749   2.875   2.590   0.770 -0.9346  0.8058 -0.7152
  850MOL0     H14750   2.980   2.601   0.998  1.2406  1.4634  3.3323
  851MOL0     O14751   6.301   6.182   0.719 -0.2684  0.3020 -0.1853
  851MOL0     C14752   6.338   6.120   0.815 -0.3294  0.5268 -0.6845
  851MOL0     O14753   6.404   6.007   0.813  0.0775 -0.0070  0.8034
  851MOL0     C14754   6.409   5.940   0.688  1.2226 -0.0235  0.3197
  851MOL0     C14755   6.529   5.906   0.625 -0.1296  0.2875 -0.2088
  851MOL0     C14756   6.525   5.850   0.494  0.4846  0.4634 -0.4568
  851MOL0     C14757   6.400   5.826   0.432  0.2160 -0.6363 -1.1502
  851MOL0     O14758   6.388   5.784   0.301 -0.3989  0.0790  0.5270
  851MOL0     C14759   6.499   5.736   0.217 -0.3526  0.0836  0.2907
  851MOL0     C14760   6.560   5.597   0.270 -0.4482 -0.5037 -0.3751
  851MOL0     C14761   6.628   5.522   0.158 -0.4440  0.0020  0.9284
  851MOL0     C14762   6.728   5.416   0.215 -0.6604  0.3300 -0.1314
  851MOL0     C14763   6.774   5.341   0.097  0.3488  0.5120  0.2526
  851MOL0     C14764   6.892   5.242   0.136  0.2851  0.3131 -0.2853
  851MOL0     C14765   6.920   5.151   0.018  0.5837 -0.8020  0.0157
  851MOL0     C14766   7.013   5.033   0.049 -0.4242  0.2936  0.0411
  851MOL0     N14767   6.943   4.922   0.127 -0.7339 -0.7442  0.0226
  851MOL0     C14768   6.952   4.913   0.264 -0.4277 -0.4083  0.5963
  851MOL0     C14769   6.879   4.806   0.302  0.7247 -0.0942  0.2274
  851MOL0     C14770   6.871   4.772   0.443 -0.1070  0.1771 -1.0928
  851MOL0     C14771   6.793   4.879   0.534 -0.1039  0.9208 -0.3256
  851MOL0     C14772   6.755   4.834   0.688 -0.4250 -0.5083 -0.4059
  851MOL0     C14773   6.886   4.801   0.765 -0.3318 -0.1712  0.6299
  851MOL0     O14774   6.865   4.804   0.911  0.6731 -0.3527  0.6287
  851MOL0     C14775   6.868   4.925   0.985  1.6058 -0.2512  0.0747
  851MOL0     C14776   6.898   5.051   0.938  0.0634 -0.6394  0.0915
  851MOL0     C14777   6.899   5.169   1.010 -0.3002  0.9074  0.8924
  851MOL0     C14778   6.950   5.297   0.939  0.7486  0.7529  0.3537
  851MOL0     C14779   6.854   5.162   1.151 -0.0819  0.0466 -0.0519
  851MOL0     C14780   6.835   5.283   1.240 -0.2798  1.5410 -1.6651
  851MOL0     O14781   6.795   5.250   1.369 -0.3511  0.2936  0.4281
  851MOL0     C14782   6.786   5.348   1.467  0.3906  0.9762 -0.5172
  851MOL0     C14783   6.707   5.457   1.453  0.0709  0.2792 -0.2387
  851MOL0     C14784   6.681   5.530   1.573  0.9816  1.5682 -0.1798
  851MOL0     C14785   6.741   5.502   1.693 -0.2350 -0.2383  0.0580
  851MOL0     O14786   6.704   5.591   1.797 -0.3794 -0.2782 -0.5414
  851MOL0     C14787   6.731   5.548   1.934 -0.1775  0.4343  0.9328
  851MOL0     C14788   6.709   5.663   2.030 -0.5882  0.2839  0.3708
  851MOL0     C14789   6.791   5.640   2.153 -0.1032 -0.1190 -0.6873
  851MOL0     C14790   6.941   5.673   2.127  0.6281  0.4242  1.0867
  851MOL0     C14791   7.031   5.678   2.247 -0.0499  0.0990 -0.8734
  851MOL0     C14792   6.986   5.777   2.366  0.7274 -0.3537 -0.2392
  851MOL0     C14793   7.083   5.777   2.485 -0.4256 -0.7551  0.2008
  851MOL0     C14794   7.210   5.871   2.447 -0.6739  0.4907 -0.5099
  851MOL0    Cl14795   7.189   6.039   2.505  0.0366 -0.1721  0.0303
  851MOL0     C14796   6.832   5.396   1.699  0.0437 -0.5990  0.2503
  851MOL0     C14797   6.854   5.315   1.586  0.0388  0.2192  0.1893
  851MOL0     O14798   6.868   5.391   1.213  0.4610 -0.6203  0.0035
  851MOL0     C14799   6.824   5.035   1.204  0.2570  0.2515 -0.0863
  851MOL0     C14800   6.843   4.922   1.123 -0.4325  0.3042  0.5416
  851MOL0     N14801   6.813   4.758   0.191  0.2938 -0.2677 -0.4983
  851MOL0     N14802   6.851   4.830   0.089  0.3614 -0.0732 -0.6126
  851MOL0     C14803   6.285   5.848   0.501  0.4101 -0.0456 -0.2977
  851MOL0     C14804   6.283   5.909   0.624 -0.8537  0.8724 -0.1498
  851MOL0     C14805   6.306   6.175   0.949 -0.0248  0.5969  0.6584
  851MOL0     C14806   6.257   6.302   0.956 -0.4814 -0.2829  0.2683
  851MOL0     C14807   6.220   6.361   1.073 -0.3771  0.1896 -0.1285
  851MOL0     C14808   6.225   6.288   1.195  0.7091  0.4013  0.5422
  851MOL0     O14809   6.205   6.333   1.321  0.1081  0.6688  0.6611
  851MOL0     C14810   6.240   6.470   1.349 -0.5651 -0.0720 -0.2227
  851MOL0     C14811   6.256   6.500   1.499 -0.7629 -0.5742 -0.0880
  851MOL0     C14812   6.397   6.531   1.557  0.2045 -0.1633 -0.0808
  851MOL0     C14813   6.461   6.657   1.498  0.0114 -0.3210  0.4843
  851MOL0     C14814   6.586   6.698   1.559  0.7161  0.0674 -0.4998
  851MOL0     C14815   6.689   6.748   1.602 -0.7633 -0.0721 -1.1313
  851MOL0     C14816   6.268   6.147   1.188  0.3668  0.1716 -0.1868
  851MOL0     C14817   6.305   6.097   1.067 -0.0263  0.2721  0.4704
  851MOL0     H14818   6.621   5.913   0.682 -1.2939  1.1581  1.6941
  851MOL0     H14819   6.623   5.833   0.450 -0.6883  0.4677 -3.3157
  851MOL0     H14820   6.452   5.714   0.121  0.1929 -3.6600  0.7288
  851MOL0     H14821   6.572   5.817   0.207  0.3492 -0.2013  2.4678
  851MOL0     H14822   6.620   5.606   0.361 -1.9670 -1.9086  0.8390
  851MOL0     H14823   6.478   5.538   0.313  0.4291 -0.8460  0.8610
  851MOL0     H14824   6.550   5.481   0.092 -0.5875 -3.4047  2.9665
  851MOL0     H14825   6.681   5.605   0.111 -0.9632  2.0596  3.7664
  851MOL0     H14826   6.821   5.465   0.248 -0.7047  0.1182  0.3098
  851MOL0     H14827   6.682   5.347   0.286 -1.6946 -0.1838 -1.2646
  851MOL0     H14828   6.695   5.278   0.055  0.7731  0.2305 -0.1264
  851MOL0     H14829   6.817   5.396   0.014  4.0271 -0.5150  1.3102
  851MOL0     H14830   6.980   5.304   0.159  1.4560 -0.6951 -1.8437
  851MOL0     H14831   6.863   5.186   0.226 -0.5557 -2.8316 -2.3757
  851MOL0     H14832   6.830   5.105  -0.023 -0.0791 -0.0759  0.6121
  851MOL0     H14833   6.957   5.217  -0.062  0.0481  0.9434  1.1462
  851MOL0     H14834   7.107   5.072   0.090 -1.0045 -0.0708  1.8155
  851MOL0     H14835   7.046   4.974  -0.037  0.3625 -4.4045  3.1754
  851MOL0     H14836   7.021   4.969   0.326  0.0588  0.2420 -0.5034
  851MOL0     H14837   6.810   4.683   0.459 -1.5337  1.2743 -0.2157
  851MOL0     H14838   6.968   4.749   0.488 -1.4706  0.7151  2.4025
  851MOL0     H14839   6.701   4.898   0.479 -0.8227 -0.3564  0.3886
  851MOL0     H14840   6.864   4.962   0.545 -0.5155  1.0427  2.0262
  851MOL0     H14841   6.696   4.742   0.688 -1.2647 -0.0062 -1.8832
  851MOL0     H14842   6.711   4.925   0.729  1.3081 -0.4149  1.3901
  851MOL0     H14843   6.974   4.859   0.734  0.1740 -1.7323 -0.9591
  851MOL0     H14844   6.910   4.701   0.729  0.5969  1.3153 -3.4743
  851MOL0     H14845   6.901   5.058   0.829 -2.0580 -0.3519  0.0113
  851MOL0     H14846   7.025   5.349   1.000 -0.0409  1.8948  0.3746
  851MOL0     H14847   6.995   5.274   0.842 -1.1129 -3.7505  0.3474
  851MOL0     H14848   6.860   5.358   0.926 -0.1091 -0.1336  1.8094
  851MOL0     H14849   6.674   5.488   1.355  1.9326  0.4076 -0.8428
  851MOL0     H14850   6.625   5.623   1.562  1.9379  2.1604 -0.2120
  851MOL0     H14851   6.662   5.465   1.953  1.7307 -1.3872  0.1906
  851MOL0     H14852   6.830   5.506   1.950  0.5891  1.6555 -0.3802
  851MOL0     H14853   6.751   5.750   1.980 -0.6617 -0.7477 -1.5937
  851MOL0     H14854   6.604   5.679   2.056 -0.0910  2.2888  1.3081
  851MOL0     H14855   6.793   5.538   2.192 -2.4306 -0.0730 -0.3555
  851MOL0     H14856   6.748   5.710   2.225 -0.6581 -0.1514 -0.9826
  851MOL0     H14857   6.972   5.593   2.060  0.4828  0.6573  0.7377
  851MOL0     H14858   6.943   5.771   2.077 -0.5364 -1.0541 -2.1169
  851MOL0     H14859   7.135   5.689   2.216 -0.4627  0.6843 -2.1069
  851MOL0     H14860   7.042   5.577   2.289  1.6189  0.7397  0.3010
  851MOL0     H14861   6.956   5.873   2.324 -0.1837  0.6299  2.4436
  851MOL0     H14862   6.892   5.733   2.401  0.4464  1.6453  1.7767
  851MOL0     H14863   7.105   5.675   2.520  0.8876  0.0877  2.0255
  851MOL0     H14864   7.040   5.811   2.580 -0.6020  0.0479 -0.1675
  851MOL0     H14865   7.216   5.869   2.338  0.7824  0.7711 -0.4489
  851MOL0     H14866   7.305   5.838   2.490 -0.4674  2.3905  0.5862
  851MOL0     H14867   6.888   5.368   1.787  1.0339 -0.6930 -0.3903
  851MOL0     H14868   6.918   5.228   1.589  3.3461  2.3819 -1.6220
  851MOL0     H14869   6.792   5.022   1.307 -0.0997  2.3828  0.1201
  851MOL0     H14870   6.811   4.826   1.164 -2.9280  1.1226  0.6975
  851MOL0     H14871   6.189   5.838   0.450 -0.4337 -0.4476  1.3171
  851MOL0     H14872   6.192   5.946   0.671  0.2767  2.1830  1.0956
  851MOL0     H14873   6.253   6.360   0.864  1.3251 -1.9045 -0.9230
  851MOL0     H14874   6.172   6.457   1.055  0.7781  0.3570 -2.7330
  851MOL0     H14875   6.336   6.489   1.301 -1.8977  2.3644 -2.1819
  851MOL0     H14876   6.175   6.547   1.306 -1.1754  0.9981  2.4367
  851MOL0     H14877   6.217   6.412   1.551 -0.6124 -1.1131 -0.8841
  851MOL0     H14878   6.194   6.583   1.533  1.4048  1.1150  0.0311
  851MOL0     H14879   6.449   6.434   1.554  2.8218  0.9439  3.2668
  851MOL0     H14880   6.376   6.563   1.659 -1.0176  4.2855 -1.5161
  851MOL0     H14881   6.392   6.741   1.510 -1.5400 -1.3825 -0.6130
  851MOL0     H14882   6.478   6.644   1.391 -0.6665 -0.2759  0.3696
  851MOL0     H14883   6.789   6.786   1.605 -0.4593 -0.8940  0.1018
  851MOL0     H14884   6.294   6.089   1.276  1.4131  1.7719  0.5967
  851MOL0     H14885   6.348   5.997   1.071 -0.8190 -0.0954 -0.0041
  852MOL0     O14886   3.745   8.635   8.764 -0.7023 -0.3524 -0.0214
  852MOL0     C14887   3.649   8.577   8.796  0.1603  0.0278 -0.3374
  852MOL0     O14888   3.622   8.446   8.754 -0.2423  0.3369 -0.0195
  852MOL0     C14889   3.709   8.389   8.661 -0.3255 -1.4483  0.5016
  852MOL0     C14890   3.685   8.379   8.523 -0.3375 -0.1056 -0.2143
  852MOL0     C14891   3.769   8.319   8.440  0.8135 -0.4325  0.6295
  852MOL0     C14892   3.895   8.273   8.480  0.1592  0.2918  0.5946
  852MOL0     O14893   3.962   8.191   8.393 -0.2909 -0.0216  0.2451
  852MOL0     C14894   4.090   8.138   8.416 -0.8558  0.4174  0.6412
  852MOL0     C14895   4.097   7.992   8.471  0.1218 -0.2268 -0.3355
  852MOL0     C14896   4.017   7.900   8.379 -0.1491 -0.7084 -0.5063
  852MOL0     C14897   4.002   7.759   8.433  0.5531 -0.2722 -0.4265
  852MOL0     C14898   3.943   7.661   8.333 -0.4672  0.0636 -0.1667
  852MOL0     C14899   4.054   7.599   8.244 -0.5785  0.0877  0.2129
  852MOL0     C14900   4.004   7.523   8.129 -0.1294  0.5544 -0.1379
  852MOL0     C14901   3.963   7.380   8.161 -0.1426  0.0717 -0.9639
  852MOL0     N14902   3.929   7.319   8.029  0.0166 -0.7655 -0.6440
  852MOL0     C14903   4.022   7.272   7.941 -0.6849  0.5525  0.6530
  852MOL0     C14904   3.959   7.257   7.825 -0.1226  0.1158  0.6409
  852MOL0     C14905   4.007   7.199   7.693 -0.4925  0.0193  0.4812
  852MOL0     C14906   4.072   7.307   7.614 -0.5905  0.3440 -0.1486
  852MOL0     C14907   4.211   7.324   7.665 -0.2069 -0.5795 -0.0554
  852MOL0     C14908   4.292   7.432   7.593  0.0025  0.4866  0.5466
  852MOL0     O14909   4.213   7.540   7.533  0.2918  1.0048  0.2144
  852MOL0     C14910   4.266   7.617   7.435 -0.4320 -0.2449 -0.3467
  852MOL0     C14911   4.177   7.718   7.398 -0.4985  0.1749  0.4476
  852MOL0     C14912   4.219   7.829   7.320 -0.9898  0.0949 -1.0053
  852MOL0     C14913   4.098   7.922   7.294 -0.6473  0.0826 -0.0951
  852MOL0     C14914   4.361   7.848   7.294 -1.4602  1.1245 -0.4599
  852MOL0     C14915   4.420   7.979   7.254  0.5475  0.1299  0.8880
  852MOL0     O14916   4.551   7.988   7.225  0.1751 -0.7316 -0.9544
  852MOL0     C14917   4.608   8.114   7.206  0.3678 -0.4545  0.7357
  852MOL0     C14918   4.667   8.193   7.313  0.6193  0.1608  0.3262
  852MOL0     C14919   4.718   8.323   7.287  0.4453 -0.5320  0.1697
  852MOL0     C14920   4.699   8.386   7.164 -0.4921 -0.1146 -0.1554
  852MOL0     O14921   4.747   8.512   7.124  0.2506  0.6935  0.1159
  852MOL0     C14922   4.788   8.614   7.221  0.0668  0.0715 -0.1100
  852MOL0     C14923   4.940   8.577   7.244 -0.3017  0.4850  0.3060
  852MOL0     C14924   5.023   8.596   7.115  0.4655  0.2458 -0.8595
  852MOL0     C14925   5.080   8.740   7.103  0.3038  0.3558  0.8201
  852MOL0     C14926   5.201   8.765   7.002 -0.3709  0.2743  0.0056
  852MOL0     C14927   5.332   8.692   7.038  0.3048 -0.8653 -0.2129
  852MOL0     C14928   5.454   8.793   7.024 -0.2048  0.9772 -1.0157
  852MOL0     C14929   5.439   8.895   7.151 -0.9260  0.3134  0.9310
  852MOL0    Cl14930   5.389   9.056   7.096  0.4068  0.5057 -0.3548
  852MOL0     C14931   4.640   8.300   7.064 -0.2068 -1.3216  0.0723
  852MOL0     C14932   4.589   8.171   7.086  0.5660  0.8008 -0.2450
  852MOL0     O14933   4.341   8.073   7.255  0.0652  0.0551  0.0538
  852MOL0     C14934   4.450   7.741   7.343 -0.7252  0.1599 -0.4483
  852MOL0     C14935   4.406   7.622   7.403 -0.1842  0.4244 -0.5052
  852MOL0     N14936   3.834   7.300   7.835  0.3681 -0.6674  0.0097
  852MOL0     N14937   3.809   7.323   7.962 -0.2312 -0.9240 -0.0880
  852MOL0     C14938   3.927   8.293   8.617 -0.6531  0.2668  0.0176
  852MOL0     C14939   3.845   8.353   8.707  1.1237 -0.3709  0.2640
  852MOL0     C14940   3.556   8.657   8.882 -0.1500 -0.5590  0.4738
  852MOL0     C14941   3.583   8.797   8.904 -0.4970  0.0516 -0.5919
  852MOL0     C14942   3.501   8.867   9.000 -1.3091 -0.6911  0.2810
  852MOL0     C14943   3.398   8.800   9.072  0.1763 -0.5972  0.6110
  852MOL0     O14944   3.338   8.888   9.158  0.5074  0.6857 -0.7475
  852MOL0     C14945   3.202   8.837   9.205  0.9527  0.1350 -0.3948
  852MOL0     C14946   3.090   8.815   9.095  0.1570 -0.3854 -0.3562
  852MOL0     C14947   2.951   8.822   9.162  0.0998 -0.6964  0.3755
  852MOL0     C14948   2.836   8.801   9.070  0.7408  0.6313 -0.3420
  852MOL0     C14949   2.710   8.829   9.152  0.3857  0.1545  0.0819
  852MOL0     C14950   2.627   8.867   9.231  0.3574 -0.1933 -0.4129
  852MOL0     C14951   3.379   8.672   9.041  0.1268 -0.0475  0.7485
  852MOL0     C14952   3.454   8.597   8.951  0.5804  0.8322 -0.7416
  852MOL0     H14953   3.587   8.418   8.495 -0.6241  0.9731  2.0617
  852MOL0     H14954   3.732   8.327   8.338 -1.5473  0.3960  1.4707
  852MOL0     H14955   4.140   8.146   8.319  1.8091 -0.9316  1.7847
  852MOL0     H14956   4.141   8.211   8.480 -0.0827  0.9131 -0.5128
  852MOL0     H14957   4.199   7.961   8.495 -0.1595  0.6739  2.4035
  852MOL0     H14958   4.048   7.998   8.569  1.0825 -1.1144  0.2300
  852MOL0     H14959   3.923   7.953   8.362 -1.0108 -2.0668 -0.1483
  852MOL0     H14960   4.054   7.888   8.277  2.4281 -2.3442  0.5113
  852MOL0     H14961   4.108   7.737   8.444  1.1581  2.7459  0.9401
  852MOL0     H14962   3.944   7.758   8.525  0.0627  1.9204 -0.6411
  852MOL0     H14963   3.886   7.581   8.382  0.7948 -0.4917  0.4478
  852MOL0     H14964   3.875   7.716   8.267  0.3748  0.0075 -1.1055
  852MOL0     H14965   4.116   7.680   8.206  0.8476 -0.0729  2.0517
  852MOL0     H14966   4.125   7.545   8.308  2.4237  1.8312 -1.4653
  852MOL0     H14967   3.918   7.578   8.089  0.1403  0.7457 -0.4573
  852MOL0     H14968   4.084   7.523   8.055  1.4240 -0.9121  1.4297
  852MOL0     H14969   3.884   7.367   8.236  1.4885  0.0439  0.8200
  852MOL0     H14970   4.050   7.332   8.207 -1.7036 -0.4534  1.6923
  852MOL0     H14971   4.124   7.253   7.970 -1.0923  1.6606  3.0855
  852MOL0     H14972   4.077   7.116   7.700  1.4651  1.6476  1.3975
  852MOL0     H14973   3.923   7.152   7.641  2.6007 -3.1332 -2.1634
  852MOL0     H14974   4.009   7.396   7.627 -0.6349  0.6357 -2.0473
  852MOL0     H14975   4.067   7.291   7.506 -2.5665  1.8663 -0.3406
  852MOL0     H14976   4.269   7.232   7.677  0.9007  0.3421  2.4078
  852MOL0     H14977   4.210   7.362   7.767  0.9075  0.9280 -0.5760
  852MOL0     H14978   4.351   7.388   7.512 -1.8237 -1.5940  0.2142
  852MOL0     H14979   4.365   7.465   7.667  4.4258 -1.9897 -2.2893
  852MOL0     H14980   4.070   7.701   7.414 -0.1903 -3.7117 -0.4416
  852MOL0     H14981   4.111   7.971   7.196  1.4916  1.0852  0.6234
  852MOL0     H14982   4.012   7.855   7.285  0.5300 -1.3534 -1.1643
  852MOL0     H14983   4.089   8.002   7.368  1.8299 -0.2278  0.6197
  852MOL0     H14984   4.692   8.157   7.412  2.3411  0.9807  0.2226
  852MOL0     H14985   4.763   8.370   7.374 -2.5796  1.1909  0.9399
  852MOL0     H14986   4.781   8.712   7.174 -4.7770  0.2469  0.4495
  852MOL0     H14987   4.727   8.619   7.311 -1.0426  1.5593 -0.8867
  852MOL0     H14988   4.979   8.641   7.324  2.4335 -1.5077  0.7128
  852MOL0     H14989   4.960   8.478   7.285  1.8775  0.4150 -0.7993
  852MOL0     H14990   4.976   8.561   7.022 -6.4218  1.7255  1.4617
  852MOL0     H14991   5.101   8.524   7.139  0.2337 -0.0696 -1.0392
  852MOL0     H14992   5.001   8.805   7.065  0.7298 -0.2254 -1.1735
  852MOL0     H14993   5.117   8.773   7.201 -0.5699 -1.3306  1.7729
  852MOL0     H14994   5.215   8.872   6.984  0.5309  0.3099  0.8468
  852MOL0     H14995   5.171   8.716   6.909  0.2118  0.4050 -0.2511
  852MOL0     H14996   5.325   8.646   7.136 -1.3174  2.8306  1.5728
  852MOL0     H14997   5.351   8.607   6.972 -1.6542 -1.8802  0.4698
  852MOL0     H14998   5.461   8.850   6.931  1.4727  0.8001 -1.0334
  852MOL0     H14999   5.545   8.732   7.024 -0.9212 -0.1793 -2.4502
  852MOL0     H15000   5.533   8.895   7.208 -0.1981 -2.1842 -0.1165
  852MOL0     H15001   5.366   8.850   7.220  0.0043  1.1314  2.5014
  852MOL0     H15002   4.615   8.343   6.968  1.6721 -1.2967 -0.4440
  852MOL0     H15003   4.542   8.114   7.006 -0.0920 -0.8410  1.2499
  852MOL0     H15004   4.558   7.753   7.344 -0.8344  1.1828 -0.1502
  852MOL0     H15005   4.481   7.557   7.446  0.8003  1.2763 -0.8970
  852MOL0     H15006   4.025   8.258   8.647 -0.7120 -0.4091 -0.5377
  852MOL0     H15007   3.866   8.371   8.811  0.6177 -1.9025  0.6672
  852MOL0     H15008   3.660   8.857   8.858 -0.1633  0.6781  0.7243
  852MOL0     H15009   3.522   8.973   9.007 -1.1768 -0.7103  0.1754
  852MOL0     H15010   3.211   8.743   9.261  3.0485  0.8967  0.6687
  852MOL0     H15011   3.159   8.910   9.274  0.9826 -1.2806  1.1802
  852MOL0     H15012   3.108   8.727   9.032 -1.6139  0.4942 -2.1713
  852MOL0     H15013   3.081   8.895   9.022 -4.3923  1.4773  1.8444
  852MOL0     H15014   2.945   8.917   9.216 -2.6749 -0.4016 -0.2900
  852MOL0     H15015   2.961   8.747   9.241  3.9647 -2.1334 -1.2719
  852MOL0     H15016   2.824   8.700   9.029  1.5874  0.1288  0.6160
  852MOL0     H15017   2.833   8.875   8.990 -0.9453  2.8140  1.5990
  852MOL0     H15018   2.553   8.907   9.297  1.4422  4.6900 -1.7328
  852MOL0     H15019   3.287   8.620   9.065 -2.4282  3.6462 -0.3683
  852MOL0     H15020   3.443   8.490   8.959 -1.6879  1.1129  1.0089
  853MOL0     O15021   4.396   5.618   9.994 -0.8127  0.2029  0.3852
  853MOL0     C15022   4.367   5.698  10.088  0.8914 -0.0375  0.7925
  853MOL0     O15023   4.417   5.824  10.099  0.3938 -0.5123  0.1056
  853MOL0     C15024   4.532   5.853  10.036  0.2897 -0.2878  0.0351
  853MOL0     C15025   4.523   5.939   9.921 -0.7002  0.1246  0.3841
  853MOL0     C15026   4.641   5.975   9.853  0.7830  0.2729  0.0552
  853MOL0     C15027   4.768   5.943   9.911 -0.1278  0.6219  0.4355
  853MOL0     O15028   4.893   5.991   9.870 -0.7647 -0.3477 -0.5185
  853MOL0     C15029   4.914   5.985   9.728  0.0419 -0.4969  0.0870
  853MOL0     C15030   5.049   6.046   9.676  0.6465 -0.0011  0.4328
  853MOL0     C15031   5.096   5.989   9.537  0.0527  1.1127 -0.2119
  853MOL0     C15032   5.233   6.047   9.497  1.0036 -0.4076  0.3880
  853MOL0     C15033   5.227   6.188   9.423 -0.3435 -0.2872 -0.0095
  853MOL0     C15034   5.153   6.193   9.292  0.4495  0.0482  0.4834
  853MOL0     C15035   5.087   6.321   9.260  0.6532 -0.4051 -1.3620
  853MOL0     C15036   5.076   6.332   9.104  0.1203 -0.0153  0.0525
  853MOL0     N15037   5.002   6.443   9.054  0.3172 -1.0557  0.7092
  853MOL0     C15038   4.872   6.442   9.011  0.0662  0.1964  0.3818
  853MOL0     C15039   4.833   6.565   8.981  0.5758  0.1823  0.7132
  853MOL0     C15040   4.691   6.587   8.934 -0.4014 -0.0818 -0.4053
  853MOL0     C15041   4.639   6.732   8.936 -0.4079 -0.3070 -1.2012
  853MOL0     C15042   4.719   6.829   8.850 -0.6281 -0.5568 -1.0040
  853MOL0     C15043   4.642   6.943   8.805 -0.3190 -1.4754  0.4018
  853MOL0     O15044   4.718   7.037   8.720  0.0053 -0.5068 -0.2401
  853MOL0     C15045   4.648   7.093   8.625 -0.1440  0.7422  1.4214
  853MOL0     C15046   4.730   7.178   8.553  0.7702  0.6566  0.7230
  853MOL0     C15047   4.680   7.273   8.458  0.1986  0.2780  0.0883
  853MOL0     C15048   4.790   7.351   8.393  0.5124 -0.6632 -0.0335
  853MOL0     C15049   4.534   7.277   8.435  0.2087  0.3397 -0.3162
  853MOL0     C15050   4.465   7.375   8.360 -0.1853 -0.3057  0.2776
  853MOL0     O15051   4.530   7.495   8.346  0.1521 -0.4234 -0.1388
  853MOL0     C15052   4.469   7.598   8.284 -0.7003 -0.4711  0.4780
  853MOL0     C15053   4.489   7.596   8.145  0.5282 -0.0875 -0.6249
  853MOL0     C15054   4.440   7.701   8.066 -0.6174  0.0057 -1.0680
  853MOL0     C15055   4.380   7.817   8.129 -1.2025  0.8181  0.2510
  853MOL0     O15056   4.350   7.926   8.049  0.2015  0.6848  0.4769
  853MOL0     C15057   4.426   8.040   8.083  0.5901 -0.6690 -0.4071
  853MOL0     C15058   4.370   8.165   8.010 -0.2778  0.1974 -0.1879
  853MOL0     C15059   4.450   8.290   8.042  0.2354  0.2880  0.8269
  853MOL0     C15060   4.362   8.414   8.044  0.6451  0.3317  0.1322
  853MOL0     C15061   4.273   8.432   8.170  0.2203  0.1712 -0.4228
  853MOL0     C15062   4.353   8.509   8.287 -0.1210 -0.1334 -0.2647
  853MOL0     C15063   4.258   8.559   8.391  0.1976 -0.3806 -0.2344
  853MOL0     C15064   4.322   8.684   8.447  0.2444  0.8737 -0.3874
  853MOL0    Cl15065   4.446   8.665   8.577  0.2332  0.1000  0.6209
  853MOL0     C15066   4.356   7.815   8.266 -0.8012  0.6343  0.1027
  853MOL0     C15067   4.403   7.700   8.342  0.1985 -0.4500  0.8345
  853MOL0     O15068   4.353   7.353   8.307  0.8567  0.3553 -0.1580
  853MOL0     C15069   4.464   7.179   8.505  0.2727  0.9459  0.4583
  853MOL0     C15070   4.519   7.084   8.589  0.7249 -0.6358 -0.7641
  853MOL0     N15071   4.935   6.648   9.001  0.0910  0.7365  0.1952
  853MOL0     N15072   5.037   6.583   9.049 -0.2461 -1.0222 -0.0764
  853MOL0     C15073   4.774   5.859  10.019  0.4927 -0.2612  0.1446
  853MOL0     C15074   4.654   5.817  10.084  0.0590 -0.2682 -0.2735
  853MOL0     C15075   4.289   5.641  10.196  0.6415  0.0657  0.9403
  853MOL0     C15076   4.261   5.504  10.189  0.5604  0.6531 -0.4742
  853MOL0     C15077   4.190   5.451  10.299 -0.3648  0.3916 -0.1374
  853MOL0     C15078   4.144   5.528  10.408 -0.2108 -0.6443 -1.1049
  853MOL0     O15079   4.089   5.478  10.516  1.1572 -0.4462 -0.6975
  853MOL0     C15080   4.031   5.351  10.518  0.3141 -0.0337 -0.9417
  853MOL0     C15081   3.938   5.346  10.642 -0.5590 -0.8370 -0.3482
  853MOL0     C15082   4.007   5.345  10.784  0.5486  1.0938  0.0739
  853MOL0     C15083   4.137   5.274  10.814  0.8448  0.1834  0.4888
  853MOL0     C15084   4.121   5.135  10.766 -0.4965  0.2441  0.7311
  853MOL0     C15085   4.113   5.018  10.733  0.0056 -0.4752  0.3195
  853MOL0     C15086   4.165   5.665  10.405  0.3949  0.5207 -0.3226
  853MOL0     C15087   4.241   5.724  10.307 -0.3878  0.0744  0.3265
  853MOL0     H15088   4.425   5.978   9.895 -0.2477  2.0199  1.2626
  853MOL0     H15089   4.629   6.052   9.777  2.4580  0.4231 -0.1021
  853MOL0     H15090   4.895   5.882   9.696 -1.4913 -0.9753  2.3100
  853MOL0     H15091   4.837   6.036   9.669  0.2351 -1.3125 -0.9007
  853MOL0     H15092   5.042   6.150   9.643 -2.1806 -1.1991 -3.4535
  853MOL0     H15093   5.128   6.032   9.750  3.5884  0.8112 -2.3081
  853MOL0     H15094   5.104   5.883   9.559 -1.7392  0.7138 -1.2896
  853MOL0     H15095   5.025   5.999   9.454  1.0874 -0.8339 -1.4111
  853MOL0     H15096   5.287   6.059   9.591 -0.0325  0.3776  0.9084
  853MOL0     H15097   5.287   5.990   9.420  1.2086  3.7896 -2.9339
  853MOL0     H15098   5.184   6.262   9.492  1.9324  0.4167  0.7739
  853MOL0     H15099   5.330   6.223   9.411 -0.5663 -0.2883 -2.2341
  853MOL0     H15100   5.221   6.174   9.207  0.4939 -2.8575  1.0655
  853MOL0     H15101   5.071   6.121   9.298  0.2469  0.2307 -0.0331
  853MOL0     H15102   4.992   6.339   9.310  1.9627  1.7425  0.6096
  853MOL0     H15103   5.148   6.405   9.297 -0.9647  1.0497 -1.8688
  853MOL0     H15104   5.036   6.237   9.067  1.2603  1.0386 -4.6021
  853MOL0     H15105   5.180   6.333   9.068 -0.4448 -0.7033 -1.7274
  853MOL0     H15106   4.805   6.356   9.010 -0.7995  0.6407  4.2842
  853MOL0     H15107   4.689   6.559   8.828 -1.1825  2.4939 -1.1545
  853MOL0     H15108   4.628   6.514   8.986  1.5897 -0.8723  0.9960
  853MOL0     H15109   4.650   6.763   9.040  4.6251  1.9541 -2.1074
  853MOL0     H15110   4.536   6.731   8.902 -0.4422  0.3637 -1.1193
  853MOL0     H15111   4.760   6.773   8.766  2.4225  0.0833 -0.0532
  853MOL0     H15112   4.807   6.864   8.904 -1.9906  0.9543  0.3869
  853MOL0     H15113   4.620   7.015   8.885 -1.6334  2.6831 -3.2732
  853MOL0     H15114   4.555   6.893   8.762  1.0113 -1.5103 -2.4735
  853MOL0     H15115   4.838   7.185   8.567  1.0317 -1.1166 -0.1847
  853MOL0     H15116   4.892   7.317   8.412  0.8329  0.7745  0.9738
  853MOL0     H15117   4.770   7.367   8.287 -0.9575  2.5265  0.5846
  853MOL0     H15118   4.787   7.456   8.423  1.6521 -0.6403  0.0453
  853MOL0     H15119   4.542   7.519   8.090  1.8745  0.6585 -0.4217
  853MOL0     H15120   4.443   7.699   7.958 -1.9857 -0.2159 -1.1231
  853MOL0     H15121   4.425   8.063   8.190 -2.3650 -0.5801 -0.3628
  853MOL0     H15122   4.530   8.025   8.054  1.1267 -0.5902  1.3598
  853MOL0     H15123   4.380   8.147   7.902  2.2663 -0.2180  0.0675
  853MOL0     H15124   4.264   8.173   8.037 -0.5925  0.8865 -1.5320
  853MOL0     H15125   4.534   8.297   7.973  0.3032 -0.1905  0.8555
  853MOL0     H15126   4.472   8.281   8.148 -1.2756  0.0724  1.1527
  853MOL0     H15127   4.421   8.504   8.023 -1.1305  0.7957 -3.8950
  853MOL0     H15128   4.297   8.414   7.956 -0.0526 -2.5926  0.5778
  853MOL0     H15129   4.240   8.330   8.192 -0.4202  0.5410  0.3786
  853MOL0     H15130   4.184   8.490   8.150  0.5352  0.2622 -1.6291
  853MOL0     H15131   4.436   8.449   8.326  0.0991  1.5516  2.0442
  853MOL0     H15132   4.404   8.593   8.240 -1.2892  1.9605  2.0020
  853MOL0     H15133   4.250   8.487   8.473 -1.8381  0.8260  0.7000
  853MOL0     H15134   4.159   8.584   8.352  1.2943 -0.0464 -3.0481
  853MOL0     H15135   4.234   8.740   8.481 -1.0025  0.5875 -2.8545
  853MOL0     H15136   4.369   8.740   8.366 -0.4477  0.0025 -1.4188
  853MOL0     H15137   4.337   7.905   8.324  2.4866  0.8706  1.0100
  853MOL0     H15138   4.395   7.703   8.451 -0.7374 -4.8591  1.0958
  853MOL0     H15139   4.357   7.173   8.493  0.4664  0.5557 -1.3793
  853MOL0     H15140   4.453   7.010   8.634  1.8330 -2.2659 -1.7088
  853MOL0     H15141   4.864   5.821  10.065  0.1048 -0.9694  0.3493
  853MOL0     H15142   4.665   5.753  10.171  2.6703  0.2612 -0.1251
  853MOL0     H15143   4.299   5.438  10.112 -0.2436  0.1721 -0.4672
  853MOL0     H15144   4.180   5.343  10.299  0.4206  0.3093  0.4826
  853MOL0     H15145   3.965   5.330  10.433 -3.6147  2.3423  1.2680
  853MOL0     H15146   4.103   5.269  10.528  0.8249  0.7192  3.0897
  853MOL0     H15147   3.876   5.256  10.648 -1.7081 -0.0513 -0.0126
  853MOL0     H15148   3.879   5.438  10.636 -0.0053 -0.5120 -0.9725
  853MOL0     H15149   3.938   5.324  10.866 -0.4597  0.9932 -0.7784
  853MOL0     H15150   4.030   5.451  10.797 -0.0953  1.3838 -0.9916
  853MOL0     H15151   4.166   5.275  10.919  0.7282  0.3398  0.5206
  853MOL0     H15152   4.214   5.322  10.753 -1.8183  0.7212 -2.7660
  853MOL0     H15153   4.099   4.917  10.700 -1.8017 -0.2131  0.1835
  853MOL0     H15154   4.121   5.728  10.482  4.2354  1.1125  1.6036
  853MOL0     H15155   4.269   5.828  10.310  0.6364 -0.1993  2.8778
  854MOL0     O15156   8.907   3.983  11.068 -0.4932  0.3890  0.0258
  854MOL0     C15157   8.956   3.870  11.099 -0.0215 -0.4233  0.3114
  854MOL0     O15158   8.899   3.748  11.079 -0.1931  0.0381  0.0036
  854MOL0     C15159   8.763   3.740  11.047 -0.0197 -0.9300  0.4083
  854MOL0     C15160   8.663   3.672  11.131 -0.8844  0.0049 -0.1993
  854MOL0     C15161   8.531   3.640  11.092 -0.2422 -0.5592 -0.3319
  854MOL0     C15162   8.482   3.697  10.974 -0.4300 -0.5801 -0.4673
  854MOL0     O15163   8.355   3.672  10.935 -0.0095 -0.0659  0.2921
  854MOL0     C15164   8.301   3.713  10.805  0.4724  0.3847  0.3382
  854MOL0     C15165   8.240   3.851  10.819 -0.8267 -0.1077 -1.1173
  854MOL0     C15166   8.200   3.901  10.685 -0.0563  0.0837  0.1205
  854MOL0     C15167   8.096   4.015  10.713 -0.4211  0.1740  0.1727
  854MOL0     C15168   8.058   4.074  10.578  0.0346 -0.8689 -0.6198
  854MOL0     C15169   7.925   4.015  10.535  0.1041 -1.2074 -0.0633
  854MOL0     C15170   7.891   4.054  10.390 -0.0540  0.4190  0.1061
  854MOL0     C15171   7.738   4.043  10.384  0.1668  0.8503  0.8050
  854MOL0     N15172   7.690   3.908  10.404 -0.3255 -0.1175 -0.3156
  854MOL0     C15173   7.677   3.817  10.298  0.1031 -0.1287 -0.2610
  854MOL0     C15174   7.603   3.710  10.359 -0.4510 -0.4164 -0.4264
  854MOL0     C15175   7.563   3.580  10.301 -0.1415 -0.2015 -0.6107
  854MOL0     C15176   7.630   3.556  10.166  0.2235 -0.4443 -1.1502
  854MOL0     C15177   7.785   3.532  10.175  0.2567  0.7137  0.1196
  854MOL0     C15178   7.844   3.503  10.041 -1.0695 -0.0286 -0.0016
  854MOL0     O15179   7.821   3.609   9.949 -0.1237 -1.0828  0.6280
  854MOL0     C15180   7.855   3.740   9.981 -0.5831  0.2363  0.6886
  854MOL0     C15181   7.771   3.838   9.927  0.4813  0.3299 -0.3086
  854MOL0     C15182   7.803   3.976   9.946 -0.3799  0.6411  0.6041
  854MOL0     C15183   7.700   4.073   9.880 -0.4400 -0.5946 -1.3736
  854MOL0     C15184   7.912   4.009  10.034  0.2441 -0.0120  0.7144
  854MOL0     C15185   7.959   4.150  10.075  0.7114  1.0239 -0.9094
  854MOL0     O15186   8.083   4.164  10.131  0.5905 -0.0455 -0.0505
  854MOL0     C15187   8.124   4.276  10.202 -0.0025  0.4210 -0.1879
  854MOL0     C15188   8.247   4.266  10.257  0.2673 -0.5186 -0.0257
  854MOL0     C15189   8.294   4.362  10.346  0.0413 -0.0251  0.5091
  854MOL0     C15190   8.212   4.476  10.382 -0.1795  0.5571 -0.9930
  854MOL0     O15191   8.251   4.567  10.479 -0.8082  0.2086  1.0217
  854MOL0     C15192   8.375   4.542  10.553 -0.2545  0.4399  0.7152
  854MOL0     C15193   8.368   4.610  10.695 -0.5632 -0.9379  0.1846
  854MOL0     C15194   8.356   4.770  10.682 -0.3412  0.1598 -0.2078
  854MOL0     C15195   8.287   4.838  10.807 -0.2750  0.6176  0.4355
  854MOL0     C15196   8.310   4.987  10.816  0.8006 -0.3551  0.0647
  854MOL0     C15197   8.208   5.058  10.905  0.1699 -0.4365 -0.5981
  854MOL0     C15198   8.242   5.036  11.058  0.0812 -1.3808 -0.0491
  854MOL0     C15199   8.114   5.056  11.142 -0.8507  1.1048  0.1420
  854MOL0    Cl15200   8.044   5.221  11.093  0.1981  0.1554 -0.0266
  854MOL0     C15201   8.084   4.482  10.327  0.9153 -0.2547 -0.1700
  854MOL0     C15202   8.041   4.383  10.238  0.0177 -0.1450 -0.2285
  854MOL0     O15203   7.885   4.237  10.056 -0.7099  0.0215 -0.2227
  854MOL0     C15204   7.998   3.902  10.075  0.0761  1.3803 -0.0638
  854MOL0     C15205   7.972   3.767  10.047 -1.4915 -1.0045  0.2137
  854MOL0     N15206   7.557   3.748  10.480 -0.2752  0.6673 -0.3709
  854MOL0     N15207   7.606   3.866  10.504 -0.5042  0.3502  1.2587
  854MOL0     C15208   8.567   3.770  10.887 -0.9878 -1.1470 -0.2555
  854MOL0     C15209   8.706   3.788  10.925 -1.0024 -0.1633 -0.7010
  854MOL0     C15210   9.088   3.884  11.169 -1.2309  0.2337 -0.4408
  854MOL0     C15211   9.133   3.788  11.254 -0.7441 -0.3248 -0.2276
  854MOL0     C15212   9.255   3.798  11.319  0.4101 -0.3299 -0.4315
  854MOL0     C15213   9.341   3.907  11.297  0.1755  0.0538 -0.5890
  854MOL0     O15214   9.463   3.909  11.359 -0.9614  0.4738 -0.1105
  854MOL0     C15215   9.549   4.017  11.331 -0.2200 -0.8073 -0.5355
  854MOL0     C15216   9.501   4.141  11.404  0.1131  0.1345 -0.8552
  854MOL0     C15217   9.508   4.105  11.560 -0.3474  0.9673 -0.2159
  854MOL0     C15218   9.524   4.236  11.642 -0.4028  0.5492 -0.0907
  854MOL0     C15219   9.656   4.296  11.641  0.1559  0.4684 -0.2237
  854MOL0     C15220   9.758   4.363  11.617  0.0350  0.1596  0.4902
  854MOL0     C15221   9.294   4.007  11.200  0.2380  0.0613 -0.4206
  854MOL0     C15222   9.166   4.000  11.141 -0.0498  0.1180 -0.1043
  854MOL0     H15223   8.688   3.635  11.230  0.1044  0.1807 -0.3779
  854MOL0     H15224   8.472   3.578  11.159  0.3311 -0.7014  0.0537
  854MOL0     H15225   8.375   3.707  10.724  0.7416 -0.1289  0.6162
  854MOL0     H15226   8.224   3.644  10.767  3.5814 -3.0580 -0.2609
  854MOL0     H15227   8.167   3.851  10.901  1.1152 -0.8579  0.6981
  854MOL0     H15228   8.316   3.924  10.846 -2.2986  1.5922 -1.3910
  854MOL0     H15229   8.289   3.948  10.642 -1.0692  0.4263 -1.7023
  854MOL0     H15230   8.151   3.822  10.626 -0.6680  1.6463 -1.5561
  854MOL0     H15231   7.998   3.981  10.748 -0.4863  1.1270  0.9681
  854MOL0     H15232   8.138   4.086  10.785 -1.2784 -0.6323  1.5239
  854MOL0     H15233   8.048   4.181  10.600  0.6274 -1.3529  2.6076
  854MOL0     H15234   8.124   4.073  10.491 -3.1263  0.4494 -3.2172
  854MOL0     H15235   7.924   3.905  10.542  0.2191 -1.0899  2.6850
  854MOL0     H15236   7.853   4.070  10.595  1.7048 -0.7412  1.5172
  854MOL0     H15237   7.930   4.154  10.369 -1.0306  0.7191 -0.3620
  854MOL0     H15238   7.935   3.981  10.320  2.2243  2.3637 -0.6196
  854MOL0     H15239   7.699   4.067  10.285  1.3924  3.9388  0.9646
  854MOL0     H15240   7.692   4.110  10.458  0.0207 -0.6921  2.1851
  854MOL0     H15241   7.717   3.818  10.198  1.5491  0.2272  0.3009
  854MOL0     H15242   7.586   3.501  10.373 -2.0352 -1.2038 -1.0437
  854MOL0     H15243   7.455   3.588  10.284  0.1239  1.5576 -1.8158
  854MOL0     H15244   7.603   3.633  10.093  1.4739  3.1361  1.8617
  854MOL0     H15245   7.585   3.468  10.118 -0.2617  0.2011 -1.9016
  854MOL0     H15246   7.811   3.444  10.235  1.4151 -0.0403 -1.4337
  854MOL0     H15247   7.833   3.618  10.223 -0.5758  1.1977  0.1143
  854MOL0     H15248   7.801   3.412   9.997 -0.0453 -0.8265  0.6020
  854MOL0     H15249   7.952   3.491  10.047 -1.0040  0.1281 -0.7894
  854MOL0     H15250   7.687   3.796   9.872  1.5124 -1.5241 -0.5332
  854MOL0     H15251   7.649   4.030   9.794 -2.9755 -0.8917  0.1844
  854MOL0     H15252   7.623   4.089   9.956 -0.0496  1.2748 -1.3124
  854MOL0     H15253   7.745   4.169   9.851 -3.2308  1.3861  0.3542
  854MOL0     H15254   8.310   4.180  10.240 -1.0909 -1.1448 -2.3045
  854MOL0     H15255   8.392   4.344  10.389 -0.9409 -1.2985  2.3633
  854MOL0     H15256   8.386   4.435  10.572 -1.9661  0.0642 -0.2073
  854MOL0     H15257   8.464   4.578  10.500 -0.1027  0.7150  1.1490
  854MOL0     H15258   8.280   4.572  10.747  0.6030 -0.1502  2.8931
  854MOL0     H15259   8.459   4.587  10.751  0.1337  0.2948 -0.3986
  854MOL0     H15260   8.288   4.798  10.601 -1.7587  0.5721  1.0741
  854MOL0     H15261   8.452   4.813  10.653 -0.6810  0.0453 -1.6042
  854MOL0     H15262   8.183   4.807  10.811 -0.8717  2.5603  3.3507
  854MOL0     H15263   8.326   4.799  10.901 -2.0190  2.0058  1.8220
  854MOL0     H15264   8.304   5.030  10.716 -0.3200  1.6838  0.9338
  854MOL0     H15265   8.413   5.007  10.849 -0.0504  1.7499  1.6771
  854MOL0     H15266   8.204   5.165  10.880  0.5124 -0.0104  1.0420
  854MOL0     H15267   8.112   5.009  10.886  0.3825 -0.4206 -1.7753
  854MOL0     H15268   8.326   5.100  11.086  0.6681 -1.6099 -1.2117
  854MOL0     H15269   8.288   4.938  11.078  2.8902  0.2950  2.6345
  854MOL0     H15270   8.148   5.041  11.244 -0.8347 -0.2510 -0.0416
  854MOL0     H15271   8.050   4.971  11.117  0.3164 -0.1291  1.1837
  854MOL0     H15272   8.023   4.572  10.336  0.8842 -0.4613  2.1431
  854MOL0     H15273   7.935   4.385  10.214 -0.2808 -1.9156  0.7955
  854MOL0     H15274   8.082   3.924  10.140 -2.0487  1.1435  2.9751
  854MOL0     H15275   8.041   3.692  10.084  0.1043  0.0399 -0.5291
  854MOL0     H15276   8.543   3.806  10.788 -1.9745 -1.8521 -0.2788
  854MOL0     H15277   8.776   3.835  10.856 -1.8324  2.4918  0.1554
  854MOL0     H15278   9.070   3.702  11.276 -0.2061 -1.6610 -3.4642
  854MOL0     H15279   9.291   3.719  11.384  3.2122  1.4825  0.4269
  854MOL0     H15280   9.652   4.006  11.366 -0.6310  2.7023  2.3708
  854MOL0     H15281   9.568   4.031  11.224  0.4339 -1.3668 -0.5038
  854MOL0     H15282   9.396   4.168  11.384 -0.9946  0.0557  3.7490
  854MOL0     H15283   9.566   4.225  11.379  0.8718  0.6121  2.3910
  854MOL0     H15284   9.594   4.038  11.567 -2.1367 -1.3804  0.5070
  854MOL0     H15285   9.428   4.037  11.593  3.5409 -3.3631  1.3382
  854MOL0     H15286   9.490   4.214  11.744  0.4501  2.7077  0.7100
  854MOL0     H15287   9.447   4.304  11.605 -2.4272 -1.8599 -0.6106
  854MOL0     H15288   9.845   4.421  11.636  0.0026 -0.7444  4.2259
  854MOL0     H15289   9.356   4.091  11.170  0.9709  0.3714  1.7609
  854MOL0     H15290   9.134   4.078  11.073 -2.8106  0.4650  1.4390
  855MOL0     O15291   2.072   7.690   8.373  0.4386  0.1249  0.0564
  855MOL0     C15292   2.034   7.576   8.362  0.3651  0.0184 -0.1437
  855MOL0     O15293   2.113   7.470   8.321  0.9306  0.0842  0.4010
  855MOL0     C15294   2.253   7.476   8.331  0.0344  0.4407  1.2064
  855MOL0     C15295   2.323   7.513   8.441 -0.5971 -0.3961  0.0968
  855MOL0     C15296   2.464   7.537   8.441 -0.9109  0.8997 -0.4130
  855MOL0     C15297   2.533   7.499   8.329 -0.6248 -0.0214 -0.1140
  855MOL0     O15298   2.672   7.498   8.320  0.8937  0.2650  0.4027
  855MOL0     C15299   2.753   7.543   8.427  0.7616  0.3103  0.6204
  855MOL0     C15300   2.753   7.693   8.441 -0.1614  0.5797 -0.6567
  855MOL0     C15301   2.749   7.753   8.312 -0.2754  0.4694 -1.0047
  855MOL0     C15302   2.753   7.904   8.298  0.8189  0.0411 -0.3579
  855MOL0     C15303   2.633   7.968   8.374  0.9472 -1.1519  0.2990
  855MOL0     C15304   2.490   7.961   8.322 -0.1424 -0.1672 -0.2175
  855MOL0     C15305   2.396   7.990   8.433 -0.1079 -0.1414  0.5104
  855MOL0     C15306   2.341   7.873   8.512  0.2891 -1.0655  0.2070
  855MOL0     N15307   2.229   7.917   8.609  0.6206 -0.2866 -0.1289
  855MOL0     C15308   2.147   7.840   8.685 -0.7268 -0.3989  0.2344
  855MOL0     C15309   2.083   7.922   8.764  0.0668 -0.6192  0.0612
  855MOL0     C15310   1.994   7.890   8.876 -0.8653 -0.2216  0.6258
  855MOL0     C15311   1.878   7.806   8.829 -0.2136  0.1942  0.9997
  855MOL0     C15312   1.784   7.784   8.956 -0.1734 -0.0453 -0.2448
  855MOL0     C15313   1.652   7.722   8.923  0.5162 -0.3986 -1.0985
  855MOL0     O15314   1.600   7.822   8.834 -0.5712 -0.5583  0.4262
  855MOL0     C15315   1.472   7.805   8.801  0.4288  0.1539 -0.4071
  855MOL0     C15316   1.430   7.900   8.708 -0.4655 -0.7304  0.0670
  855MOL0     C15317   1.313   7.879   8.637 -0.6581  0.1665  0.9934
  855MOL0     C15318   1.274   7.980   8.532  0.2588  0.6331  0.2019
  855MOL0     C15319   1.220   7.794   8.698 -0.1141 -0.1618 -0.3473
  855MOL0     C15320   1.081   7.781   8.636  0.8201 -0.5503  0.1390
  855MOL0     O15321   0.977   7.849   8.687  0.1916 -0.2542  0.2669
  855MOL0     C15322   0.861   7.858   8.612 -0.5096 -0.1631  1.0435
  855MOL0     C15323   0.859   7.887   8.473  0.6413  0.5658 -0.3161
  855MOL0     C15324   0.731   7.882   8.412  0.1994  0.9276 -0.2307
  855MOL0     C15325   0.609   7.874   8.478 -0.0087 -0.3515 -0.8902
  855MOL0     O15326   0.499   7.880   8.398  0.2636  0.2131 -0.0583
  855MOL0     C15327   0.383   7.913   8.458 -0.3113  0.2036 -0.0543
  855MOL0     C15328   0.270   7.932   8.355  0.2726 -0.2010  0.8433
  855MOL0     C15329   0.271   8.064   8.282 -0.0261 -0.3055  0.3729
  855MOL0     C15330   0.299   8.061   8.132 -0.3783 -0.3958  0.3007
  855MOL0     C15331   0.289   8.211   8.074  0.8470 -0.4351  0.4994
  855MOL0     C15332   0.363   8.326   8.143 -0.2787  0.8218 -0.5000
  855MOL0     C15333   0.303   8.463   8.116 -0.3659 -0.0211  0.6232
  855MOL0     C15334   0.374   8.580   8.196  0.8861  0.0295 -0.1408
  855MOL0    Cl15335   0.271   8.725   8.173  0.4114  0.4205  0.1681
  855MOL0     C15336   0.614   7.850   8.620 -0.0782  0.2433  0.2424
  855MOL0     C15337   0.744   7.845   8.681  0.4331  0.9395  0.5356
  855MOL0     O15338   1.064   7.689   8.554 -0.5212  0.9665 -0.1946
  855MOL0     C15339   1.256   7.707   8.809  0.3547 -0.4232  0.3538
  855MOL0     C15340   1.379   7.709   8.851 -0.0704 -0.6922  0.8271
  855MOL0     N15341   2.119   8.053   8.743 -0.4322 -0.6386 -1.0431
  855MOL0     N15342   2.197   8.045   8.641 -0.3381  0.3273 -0.1825
  855MOL0     C15343   2.458   7.449   8.221 -0.9562 -0.4510 -0.7149
  855MOL0     C15344   2.314   7.444   8.219 -0.2530 -0.0012  0.1717
  855MOL0     C15345   1.901   7.541   8.408 -0.2213 -0.1089 -0.2603
  855MOL0     C15346   1.812   7.634   8.475 -0.6211 -0.8098  0.7021
  855MOL0     C15347   1.680   7.602   8.511 -0.8869  0.5312  0.1103
  855MOL0     C15348   1.638   7.477   8.482  0.3842  0.2049  0.1605
  855MOL0     O15349   1.514   7.436   8.520 -0.1623  0.5337 -0.1687
  855MOL0     C15350   1.401   7.515   8.473 -0.7358  0.5076  0.6175
  855MOL0     C15351   1.393   7.489   8.321  0.0691  0.1905  0.7986
  855MOL0     C15352   1.261   7.545   8.260  0.0982  0.3082 -0.0643
  855MOL0     C15353   1.232   7.693   8.285  0.2131 -0.0353 -0.4626
  855MOL0     C15354   1.124   7.763   8.218 -0.0264  0.6016  0.2855
  855MOL0     C15355   1.015   7.809   8.184  0.0390 -0.4916 -0.2974
  855MOL0     C15356   1.719   7.383   8.416 -1.0028  0.5675  0.3151
  855MOL0     C15357   1.849   7.413   8.377 -0.0206 -0.2015 -1.4090
  855MOL0     H15358   2.273   7.539   8.535 -3.1828 -2.3159 -0.6314
  855MOL0     H15359   2.510   7.554   8.538 -0.8306 -4.7701  0.9122
  855MOL0     H15360   2.720   7.493   8.519  3.9169 -0.6116  1.3734
  855MOL0     H15361   2.849   7.495   8.405 -0.4725 -1.4698 -1.2280
  855MOL0     H15362   2.674   7.729   8.508 -0.4227 -0.9652 -0.1008
  855MOL0     H15363   2.846   7.727   8.487  0.6352  3.6709 -4.0413
  855MOL0     H15364   2.830   7.712   8.251  0.8233  1.3222 -0.1545
  855MOL0     H15365   2.667   7.715   8.250 -1.2263  1.0487 -0.1365
  855MOL0     H15366   2.847   7.935   8.347  1.0695  3.3789 -2.5933
  855MOL0     H15367   2.749   7.940   8.195  1.4378 -0.8980 -0.7195
  855MOL0     H15368   2.645   7.945   8.481  0.2842  0.6268  0.7949
  855MOL0     H15369   2.661   8.072   8.359 -2.1173 -0.2141  0.4673
  855MOL0     H15370   2.481   8.037   8.244  2.8324 -0.4753 -0.9894
  855MOL0     H15371   2.469   7.863   8.278  3.0669 -0.8170 -0.5428
  855MOL0     H15372   2.434   8.063   8.506  2.1527  0.2546 -0.9744
  855MOL0     H15373   2.312   8.029   8.376 -0.7888 -2.0248  0.1618
  855MOL0     H15374   2.430   7.836   8.565  0.2943 -0.1549  0.8672
  855MOL0     H15375   2.313   7.791   8.445  3.9662 -1.3164 -1.1991
  855MOL0     H15376   2.151   7.732   8.687 -1.1169 -0.4025  2.0884
  855MOL0     H15377   2.047   7.841   8.958  1.8380  3.3727  1.2490
  855MOL0     H15378   1.947   7.983   8.909 -1.3811  1.4305 -4.0850
  855MOL0     H15379   1.915   7.711   8.790 -0.9241 -0.2932  1.4938
  855MOL0     H15380   1.815   7.850   8.751 -0.3740  3.7513  2.8964
  855MOL0     H15381   1.768   7.878   9.009 -3.3545 -1.6216  1.9507
  855MOL0     H15382   1.828   7.714   9.028 -3.5761 -1.7769  0.3693
  855MOL0     H15383   1.594   7.726   9.016  1.0565  0.8617 -0.7874
  855MOL0     H15384   1.677   7.620   8.895 -0.8162 -1.0094 -0.1586
  855MOL0     H15385   1.504   7.972   8.674 -0.6279 -0.5921 -0.0007
  855MOL0     H15386   1.338   7.983   8.444 -1.5013 -1.0867 -1.2280
  855MOL0     H15387   1.171   7.967   8.498  0.1291  1.4308  0.2775
  855MOL0     H15388   1.270   8.084   8.565  1.0500  0.9995 -0.8077
  855MOL0     H15389   0.961   7.893   8.436  1.0087 -2.2637  0.0280
  855MOL0     H15390   0.722   7.871   8.304  1.0205 -0.6660 -0.1623
  855MOL0     H15391   0.359   7.825   8.518  2.1072 -1.1754 -0.9673
  855MOL0     H15392   0.398   8.004   8.518 -2.0536  0.9435 -0.6852
  855MOL0     H15393   0.250   7.857   8.278 -0.4068  0.3042  0.5206
  855MOL0     H15394   0.182   7.929   8.420  0.8177  1.7374  1.7379
  855MOL0     H15395   0.351   8.132   8.313  0.6811  1.3996 -4.2936
  855MOL0     H15396   0.176   8.116   8.296 -0.9535 -1.7461 -0.2544
  855MOL0     H15397   0.392   8.009   8.110  1.4791  2.2565  1.3226
  855MOL0     H15398   0.221   8.001   8.085 -1.2419  0.5304  0.4966
  855MOL0     H15399   0.182   8.229   8.072  0.8726  0.0328  1.9377
  855MOL0     H15400   0.322   8.205   7.970 -3.1807 -1.3456 -0.8784
  855MOL0     H15401   0.362   8.322   8.253  1.9331 -2.3452 -0.4725
  855MOL0     H15402   0.468   8.329   8.112  0.0162  2.1096  0.5098
  855MOL0     H15403   0.198   8.450   8.145 -1.1256 -1.0397 -2.3161
  855MOL0     H15404   0.298   8.486   8.010 -0.8124 -0.0859  0.6293
  855MOL0     H15405   0.479   8.590   8.166  1.1646 -1.3711  0.3159
  855MOL0     H15406   0.365   8.551   8.301  0.2382 -1.3984 -0.5626
  855MOL0     H15407   0.523   7.830   8.675 -2.5246 -0.6911 -3.7588
  855MOL0     H15408   0.756   7.822   8.786  3.8688 -1.6626 -0.2056
  855MOL0     H15409   1.177   7.647   8.854 -1.1891  1.8879  0.8797
  855MOL0     H15410   1.409   7.643   8.932 -1.1011 -0.9684  0.9927
  855MOL0     H15411   2.501   7.408   8.131  0.3182 -1.7992  0.4522
  855MOL0     H15412   2.267   7.414   8.126 -1.0345  0.2507  0.4817
  855MOL0     H15413   1.867   7.726   8.495 -0.5289 -0.1065 -2.2857
  855MOL0     H15414   1.620   7.678   8.561  1.6728  2.9416 -0.2357
  855MOL0     H15415   1.305   7.474   8.507 -1.0905 -0.4390 -1.3871
  855MOL0     H15416   1.411   7.620   8.504 -2.0154  0.6201  0.6967
  855MOL0     H15417   1.404   7.383   8.295 -1.8957 -0.0981  1.0076
  855MOL0     H15418   1.470   7.549   8.270 -2.2860  0.6500 -2.5702
  855MOL0     H15419   1.182   7.491   8.313  2.7831 -1.3139  2.6018
  855MOL0     H15420   1.266   7.534   8.152  1.3900 -1.4410  0.1378
  855MOL0     H15421   1.325   7.740   8.251  0.1528 -0.9270 -1.9776
  855MOL0     H15422   1.224   7.713   8.392 -1.3994 -0.0683 -0.5536
  855MOL0     H15423   0.931   7.870   8.158 -0.7496 -1.8504 -1.0209
  855MOL0     H15424   1.691   7.280   8.393  0.2253  0.9194 -3.5320
  855MOL0     H15425   1.897   7.330   8.325  0.7261 -2.0065  1.8818
  856MOL0     O15426   0.463   7.218   3.870  0.0587 -0.3137  0.9983
  856MOL0     C15427   0.568   7.168   3.853 -0.4762  0.4243  0.2535
  856MOL0     O15428   0.618   7.138   3.720 -0.1329  0.0504  0.1197
  856MOL0     C15429   0.537   7.154   3.610  0.2912 -0.1438 -0.3653
  856MOL0     C15430   0.503   7.281   3.579  0.0523 -0.9758  0.5740
  856MOL0     C15431   0.411   7.306   3.475 -0.5025  0.2870  0.0187
  856MOL0     C15432   0.360   7.200   3.391 -0.5885  0.5130  0.3816
  856MOL0     O15433   0.273   7.226   3.290  0.9219 -0.4806  0.2530
  856MOL0     C15434   0.276   7.140   3.172  0.4852 -0.6323 -0.1942
  856MOL0     C15435   0.197   7.212   3.065  0.1093 -0.3488 -0.4130
  856MOL0     C15436   0.134   7.109   2.966  0.5880  0.5773  0.4063
  856MOL0     C15437  -0.004   7.151   2.914  0.7524 -0.3406 -1.0692
  856MOL0     C15438  -0.036   7.077   2.779  0.7869 -0.2137  0.0048
  856MOL0     C15439  -0.175   7.103   2.726  0.6250 -0.0688  1.3966
  856MOL0     C15440  -0.262   7.012   2.812 -0.2892 -0.5504  0.7574
  856MOL0     C15441  -0.399   7.012   2.754 -0.3501  0.0204  0.8547
  856MOL0     N15442  -0.479   7.128   2.794  0.1268 -0.2116 -0.7489
  856MOL0     C15443  -0.514   7.228   2.707  0.0869 -0.0265  0.2495
  856MOL0     C15444  -0.617   7.290   2.771 -0.8093 -0.0227  0.3840
  856MOL0     C15445  -0.704   7.409   2.730 -0.1870 -0.2101 -0.7629
  856MOL0     C15446  -0.616   7.537   2.766 -0.1370  0.0926  0.1712
  856MOL0     C15447  -0.575   7.551   2.918  0.7017  0.3427 -0.1352
  856MOL0     C15448  -0.692   7.544   3.011  0.5332  0.7664 -0.2303
  856MOL0     O15449  -0.789   7.648   2.975 -0.6765 -0.1825  0.4179
  856MOL0     C15450  -0.909   7.651   3.041 -0.5763 -0.0849 -0.2558
  856MOL0     C15451  -0.954   7.769   3.095  0.3700  0.1035  0.0863
  856MOL0     C15452  -1.080   7.778   3.166 -0.4312  0.0081  0.3494
  856MOL0     C15453  -1.112   7.906   3.243 -0.7713  0.1527 -0.2103
  856MOL0     C15454  -1.153   7.659   3.187  0.1637 -0.4466  0.6919
  856MOL0     C15455  -1.292   7.655   3.255  0.4464 -0.8074 -0.4446
  856MOL0     O15456  -1.343   7.537   3.310 -0.5538 -0.8161  0.1871
  856MOL0     C15457  -1.436   7.548   3.412  0.8833 -0.0971  0.0154
  856MOL0     C15458  -1.513   7.435   3.424  0.8523  0.4116 -0.8350
  856MOL0     C15459  -1.623   7.435   3.521 -0.2733 -0.1433  0.5473
  856MOL0     C15460  -1.654   7.544   3.601 -0.0564 -0.1547 -0.4946
  856MOL0     O15461  -1.764   7.559   3.682  0.2004  0.1942 -0.1403
  856MOL0     C15462  -1.788   7.445   3.762 -0.3677  0.1638  0.4611
  856MOL0     C15463  -1.690   7.433   3.876 -0.0084 -0.5788  1.4266
  856MOL0     C15464  -1.703   7.551   3.980 -0.0881 -0.2738 -0.2896
  856MOL0     C15465  -1.594   7.552   4.094 -0.4148 -1.2253  0.4094
  856MOL0     C15466  -1.604   7.689   4.168  0.5699  0.7058 -0.0086
  856MOL0     C15467  -1.489   7.716   4.258 -1.2220 -0.9992 -0.0910
  856MOL0     C15468  -1.530   7.829   4.350 -0.4950  0.6327  0.9024
  856MOL0     C15469  -1.413   7.893   4.419  0.0145  0.5032 -0.2000
  856MOL0    Cl15470  -1.287   7.961   4.293  0.3644  0.3555  0.6974
  856MOL0     C15471  -1.561   7.646   3.595 -0.1701 -0.3494 -0.3206
  856MOL0     C15472  -1.458   7.654   3.497 -0.0987 -0.1494 -0.3239
  856MOL0     O15473  -1.354   7.764   3.245 -0.8980 -0.4285 -0.3490
  856MOL0     C15474  -1.108   7.538   3.129 -0.2737  0.9743 -0.6992
  856MOL0     C15475  -0.992   7.539   3.055 -1.0232  0.0436  0.9896
  856MOL0     N15476  -0.642   7.225   2.895 -0.1131 -0.6738  0.1883
  856MOL0     N15477  -0.559   7.130   2.903 -0.6562 -0.3442  0.3589
  856MOL0     C15478   0.417   7.073   3.406  0.2583  0.4338  0.4397
  856MOL0     C15479   0.499   7.048   3.524 -0.2256  0.0495  0.0383
  856MOL0     C15480   0.657   7.130   3.961 -0.2379  0.2022 -0.0260
  856MOL0     C15481   0.755   7.036   3.962  0.0808 -0.2041 -0.5866
  856MOL0     C15482   0.826   7.003   4.082  0.5492 -0.6727  0.2133
  856MOL0     C15483   0.807   7.085   4.195 -1.2607 -0.1943  0.2521
  856MOL0     O15484   0.876   7.046   4.306  0.0564 -0.0072 -0.5780
  856MOL0     C15485   0.992   7.126   4.342  0.8855 -0.3371  0.2295
  856MOL0     C15486   0.941   7.244   4.420  0.0139 -0.1503 -0.0670
  856MOL0     C15487   0.861   7.195   4.545 -0.4620 -0.1013 -0.6987
  856MOL0     C15488   0.799   7.312   4.619  0.7374 -0.5906  0.5805
  856MOL0     C15489   0.687   7.374   4.548 -1.0231  0.5370  0.9064
  856MOL0     C15490   0.585   7.424   4.498  0.1351 -0.2462 -0.7517
  856MOL0     C15491   0.714   7.186   4.197  0.5840 -0.0608  0.1712
  856MOL0     C15492   0.641   7.210   4.083 -0.3238 -0.1123 -0.0067
  856MOL0     H15493   0.560   7.351   3.640  0.4979 -2.1712  1.5661
  856MOL0     H15494   0.395   7.410   3.447 -2.9113  0.3800  1.5526
  856MOL0     H15495   0.378   7.118   3.137  1.2239  1.1318  0.7428
  856MOL0     H15496   0.223   7.045   3.186 -1.6730  0.3550 -1.1973
  856MOL0     H15497   0.107   7.258   3.105  0.7724  2.3211 -1.7407
  856MOL0     H15498   0.251   7.282   3.000 -0.1778 -0.6472 -0.9862
  856MOL0     H15499   0.206   7.096   2.885  0.0267  2.6376 -0.4779
  856MOL0     H15500   0.109   7.014   3.015  2.9032 -1.6488 -2.3870
  856MOL0     H15501  -0.079   7.122   2.988  1.0753 -2.3210 -1.4671
  856MOL0     H15502  -0.007   7.257   2.887 -0.1628 -0.4324 -1.3916
  856MOL0     H15503   0.034   7.114   2.704  2.1056 -1.7634  0.4138
  856MOL0     H15504  -0.009   6.972   2.789  1.8293 -0.0400 -0.8377
  856MOL0     H15505  -0.210   7.206   2.736 -0.5305 -0.1051 -1.4105
  856MOL0     H15506  -0.173   7.072   2.621  1.2978 -0.1176  1.4167
  856MOL0     H15507  -0.226   6.908   2.805 -2.0720 -1.1076 -1.1204
  856MOL0     H15508  -0.270   7.060   2.910  0.5814  0.3454  0.4020
  856MOL0     H15509  -0.467   6.927   2.767  0.0450 -0.2957  0.8710
  856MOL0     H15510  -0.393   7.009   2.645 -3.2998 -1.2724  0.6484
  856MOL0     H15511  -0.458   7.257   2.618 -0.9397  2.0184  0.2075
  856MOL0     H15512  -0.722   7.407   2.622  0.9976 -0.4558 -0.9689
  856MOL0     H15513  -0.798   7.411   2.787  0.5256  0.3025  0.4479
  856MOL0     H15514  -0.673   7.627   2.741 -0.6272 -0.1353  0.4472
  856MOL0     H15515  -0.524   7.521   2.710 -1.2173 -3.5414 -0.8363
  856MOL0     H15516  -0.529   7.649   2.928  0.3724  0.5811 -0.9055
  856MOL0     H15517  -0.501   7.473   2.941 -1.4592 -1.5463  0.8268
  856MOL0     H15518  -0.656   7.562   3.113 -2.0409 -1.8439  1.3002
  856MOL0     H15519  -0.735   7.444   3.018  0.2002  0.9442  0.3274
  856MOL0     H15520  -0.891   7.857   3.080 -0.9412  0.8960 -1.1240
  856MOL0     H15521  -1.028   7.975   3.233 -1.4391  1.3344  1.7848
  856MOL0     H15522  -1.200   7.953   3.196 -0.7596  1.6031  1.1156
  856MOL0     H15523  -1.123   7.892   3.351 -1.3347  0.5125 -0.2154
  856MOL0     H15524  -1.488   7.346   3.368  3.0216 -0.4181  1.2528
  856MOL0     H15525  -1.676   7.345   3.548 -0.4004 -1.2081 -2.8068
  856MOL0     H15526  -1.883   7.462   3.811 -0.2222 -0.7283  1.0658
  856MOL0     H15527  -1.802   7.348   3.713  0.8373  0.4862 -0.5916
  856MOL0     H15528  -1.712   7.335   3.918 -0.1371  0.1179  3.0736
  856MOL0     H15529  -1.592   7.430   3.828 -1.5249 -0.6304 -1.9209
  856MOL0     H15530  -1.800   7.550   4.031  0.3230 -1.0267  0.5032
  856MOL0     H15531  -1.712   7.646   3.927  2.8636  0.1104 -0.2508
  856MOL0     H15532  -1.595   7.464   4.159  1.5596 -2.5566 -1.2643
  856MOL0     H15533  -1.494   7.554   4.050 -0.4513 -4.9709 -0.1323
  856MOL0     H15534  -1.697   7.689   4.225 -0.7903  1.6778 -2.1133
  856MOL0     H15535  -1.607   7.770   4.096  1.4949  0.2201 -0.6249
  856MOL0     H15536  -1.465   7.633   4.326  0.5785 -1.5054 -1.2734
  856MOL0     H15537  -1.397   7.746   4.207 -1.0953  1.9952  1.6480
  856MOL0     H15538  -1.588   7.794   4.436  1.3818 -1.2609  1.4759
  856MOL0     H15539  -1.569   7.919   4.302  1.5801  2.6235  2.7066
  856MOL0     H15540  -1.383   7.818   4.493 -1.7341  0.2586  0.3186
  856MOL0     H15541  -1.446   7.981   4.475  0.4406 -0.6700  2.0102
  856MOL0     H15542  -1.566   7.732   3.661 -0.9361  0.7823 -1.8042
  856MOL0     H15543  -1.383   7.732   3.501 -1.2933  1.0347 -0.3179
  856MOL0     H15544  -1.174   7.451   3.132  3.2086 -1.8622 -0.1931
  856MOL0     H15545  -0.959   7.449   3.003  1.3389 -0.1100  2.6180
  856MOL0     H15546   0.403   6.989   3.338  1.3322  1.9130 -1.7349
  856MOL0     H15547   0.530   6.945   3.536 -1.1637 -0.1642  0.8171
  856MOL0     H15548   0.752   6.961   3.884  0.7170  0.9904 -1.7970
  856MOL0     H15549   0.903   6.926   4.075  1.8210  0.6769 -3.5673
  856MOL0     H15550   1.055   7.057   4.398  0.2273 -2.6504 -1.7114
  856MOL0     H15551   1.056   7.164   4.262 -1.3222  1.7407 -0.6630
  856MOL0     H15552   0.881   7.319   4.368 -2.8774 -1.2360  1.5343
  856MOL0     H15553   1.034   7.298   4.442  0.7799 -1.6396  0.5217
  856MOL0     H15554   0.923   7.142   4.618  0.1598  3.3155  1.4576
  856MOL0     H15555   0.781   7.129   4.511 -0.9578 -0.7932  1.6552
  856MOL0     H15556   0.865   7.397   4.638  0.1978 -0.0530  0.0727
  856MOL0     H15557   0.763   7.278   4.717  2.7119  3.4742  2.9895
  856MOL0     H15558   0.512   7.482   4.446  0.1540 -0.6715 -1.2648
  856MOL0     H15559   0.695   7.244   4.287 -0.9425  1.8740 -1.2981
  856MOL0     H15560   0.566   7.288   4.098 -0.8090  0.3800 -3.9256
  857MOL0     O15561   5.474   1.253   6.940  0.2048 -0.8341 -0.3569
  857MOL0     C15562   5.505   1.137   6.930 -0.1916 -0.4957  0.8869
  857MOL0     O15563   5.421   1.032   6.967  0.3756 -0.4184 -0.0869
  857MOL0     C15564   5.313   1.074   7.031 -0.3944  0.1590  0.1520
  857MOL0     C15565   5.205   1.114   6.944 -0.0791  0.3094 -0.2332
  857MOL0     C15566   5.086   1.168   7.001 -0.4566 -0.0356  0.1142
  857MOL0     C15567   5.084   1.194   7.143 -0.2182 -0.7703  0.6040
  857MOL0     O15568   4.967   1.256   7.192  0.8856  0.8780  0.4998
  857MOL0     C15569   4.968   1.315   7.318 -1.0606 -0.7004  0.2440
  857MOL0     C15570   4.827   1.363   7.341 -0.8051 -0.6156 -0.7678
  857MOL0     C15571   4.822   1.471   7.451  0.3664 -0.3757 -0.1036
  857MOL0     C15572   4.897   1.429   7.581  0.2293  0.7202 -0.4808
  857MOL0     C15573   4.897   1.536   7.689 -0.2739 -0.6855 -0.5107
  857MOL0     C15574   4.772   1.545   7.776  0.7796 -0.1845 -0.0131
  857MOL0     C15575   4.796   1.619   7.915 -0.6336  0.3028  0.7157
  857MOL0     C15576   4.663   1.635   7.996 -0.6003 -0.1995 -0.2418
  857MOL0     N15577   4.671   1.727   8.106 -0.1561 -0.0112 -0.1920
  857MOL0     C15578   4.664   1.865   8.100  0.0554  0.0122  0.7613
  857MOL0     C15579   4.678   1.912   8.229  0.3145  0.1018  0.6968
  857MOL0     C15580   4.653   2.056   8.262 -0.2320  0.0764 -0.7207
  857MOL0     C15581   4.758   2.095   8.367  0.0582  1.1333 -0.5347
  857MOL0     C15582   4.881   2.149   8.296 -0.4689 -0.0741  0.4409
  857MOL0     C15583   4.964   2.037   8.233 -0.7525 -0.3404  0.2816
  857MOL0     O15584   5.103   2.083   8.228  0.0724  0.1501  0.5640
  857MOL0     C15585   5.191   2.033   8.128  0.6638  1.2518  0.0319
  857MOL0     C15586   5.170   1.900   8.083  0.1277  0.0428  0.4091
  857MOL0     C15587   5.235   1.847   7.973 -0.6346 -0.5483  0.5422
  857MOL0     C15588   5.201   1.712   7.929  0.3501  0.9798  0.7522
  857MOL0     C15589   5.334   1.931   7.911 -0.0148 -0.0370 -0.1207
  857MOL0     C15590   5.421   1.880   7.796 -0.3170  0.2615  0.9143
  857MOL0     O15591   5.469   1.971   7.701  0.2800 -0.0655  0.1002
  857MOL0     C15592   5.589   1.935   7.657 -0.5571 -0.9652 -0.4444
  857MOL0     C15593   5.618   1.823   7.586 -0.3207 -0.3120 -0.1138
  857MOL0     C15594   5.744   1.789   7.550 -1.4300  1.4666 -0.4254
  857MOL0     C15595   5.854   1.877   7.580  0.1029  0.2744  0.5082
  857MOL0     O15596   5.988   1.841   7.552  0.0162  0.0025 -0.9576
  857MOL0     C15597   6.005   1.770   7.428 -0.0749  0.4782  0.2709
  857MOL0     C15598   6.151   1.760   7.396 -0.0278  0.0147 -0.0072
  857MOL0     C15599   6.243   1.674   7.491  0.0981 -1.0155  0.6952
  857MOL0     C15600   6.228   1.525   7.456 -1.0422  0.3325  0.0183
  857MOL0     C15601   6.325   1.433   7.522  0.7067  0.1283 -1.0203
  857MOL0     C15602   6.269   1.286   7.527  0.3026 -0.7838 -0.4931
  857MOL0     C15603   6.340   1.219   7.646  0.2708 -0.0896  0.4633
  857MOL0     C15604   6.478   1.169   7.602 -0.9374 -0.6542  0.0131
  857MOL0    Cl15605   6.604   1.297   7.582 -0.0338  0.0930  0.1954
  857MOL0     C15606   5.833   1.992   7.648 -0.0404 -0.5014  0.3418
  857MOL0     C15607   5.699   2.024   7.682  0.0253  0.3399  0.0794
  857MOL0     O15608   5.453   1.758   7.799  0.3601  0.2006 -0.7739
  857MOL0     C15609   5.372   2.057   7.967  0.1923  0.0020 -1.1107
  857MOL0     C15610   5.306   2.102   8.083  0.1572  1.5803 -0.0425
  857MOL0     N15611   4.682   1.795   8.317  0.8257 -1.0778  0.8729
  857MOL0     N15612   4.682   1.688   8.242  0.1283 -0.1071  0.1604
  857MOL0     C15613   5.190   1.147   7.221 -0.5155  0.1405 -0.0686
  857MOL0     C15614   5.306   1.091   7.164  0.1892 -0.6985  0.2505
  857MOL0     C15615   5.647   1.115   6.881  0.9603  0.1356  0.4012
  857MOL0     C15616   5.683   0.984   6.868 -0.2976 -0.0708 -0.0033
  857MOL0     C15617   5.811   0.952   6.817  0.1024 -0.4691 -0.3393
  857MOL0     C15618   5.903   1.061   6.785  0.5088  1.0636  0.8853
  857MOL0     O15619   6.035   1.054   6.746  0.3763  0.5379 -0.1427
  857MOL0     C15620   6.091   0.921   6.738  0.7888 -0.3809 -0.2015
  857MOL0     C15621   6.249   0.916   6.731  0.3612 -0.4219 -0.2724
  857MOL0     C15622   6.310   0.777   6.767  0.2973  0.6633 -0.2118
  857MOL0     C15623   6.330   0.682   6.653 -1.2077  0.0365 -0.4206
  857MOL0     C15624   6.216   0.614   6.593 -0.1744  0.4758 -0.0541
  857MOL0     C15625   6.114   0.571   6.544  0.5003 -0.2442  0.0965
  857MOL0     C15626   5.861   1.187   6.807  0.2217 -0.7353 -0.7725
  857MOL0     C15627   5.735   1.216   6.851 -0.7101 -0.1058  0.6660
  857MOL0     H15628   5.217   1.098   6.837 -0.0680  1.8761 -0.4919
  857MOL0     H15629   5.012   1.198   6.927  1.1897 -1.0412 -2.0692
  857MOL0     H15630   5.000   1.241   7.393  0.7754 -0.3711 -0.1522
  857MOL0     H15631   5.050   1.386   7.334 -0.7657 -1.3944  2.0980
  857MOL0     H15632   4.782   1.415   7.255 -2.3280 -1.9056 -0.8060
  857MOL0     H15633   4.755   1.283   7.358  0.3108 -1.2802  1.1102
  857MOL0     H15634   4.866   1.561   7.409  0.0225 -0.4469 -0.6197
  857MOL0     H15635   4.717   1.492   7.470  0.3083  0.1572 -0.9669
  857MOL0     H15636   4.842   1.341   7.617 -1.4485  3.0908  3.4351
  857MOL0     H15637   4.999   1.399   7.558  1.3834  2.7894  1.5288
  857MOL0     H15638   4.983   1.515   7.752 -1.3678 -2.2032  0.5371
  857MOL0     H15639   4.915   1.631   7.637  3.3124 -1.4150 -0.8520
  857MOL0     H15640   4.685   1.584   7.722 -2.8851 -4.0306  2.4619
  857MOL0     H15641   4.737   1.444   7.802  1.6135 -0.6863 -0.7769
  857MOL0     H15642   4.872   1.564   7.971  0.5814 -1.0629 -2.0754
  857MOL0     H15643   4.844   1.716   7.897 -1.2520  0.0924 -2.7138
  857MOL0     H15644   4.645   1.531   8.025  3.5461 -2.1784 -3.6267
  857MOL0     H15645   4.591   1.671   7.921  2.3404  2.1880 -2.1654
  857MOL0     H15646   4.645   1.934   8.018 -0.3776 -0.8661  0.1123
  857MOL0     H15647   4.643   2.119   8.174  0.8602  0.4470 -0.5902
  857MOL0     H15648   4.559   2.055   8.319  0.2145 -0.7877  0.0381
  857MOL0     H15649   4.784   2.009   8.428  0.6798  2.6105  1.3979
  857MOL0     H15650   4.716   2.168   8.437 -1.7117 -0.8381  0.5563
  857MOL0     H15651   4.946   2.193   8.373 -0.1033 -2.0691  1.3383
  857MOL0     H15652   4.858   2.228   8.224  2.4915  2.6754  2.2217
  857MOL0     H15653   4.927   2.003   8.136 -1.1833  0.7551  0.0488
  857MOL0     H15654   4.975   1.946   8.293  3.8278  1.2562  2.2303
  857MOL0     H15655   5.098   1.837   8.135 -1.7996  0.2997 -1.7566
  857MOL0     H15656   5.102   1.671   7.952  1.0743 -0.5321  1.3276
  857MOL0     H15657   5.210   1.700   7.821  1.2191 -2.2658  1.0616
  857MOL0     H15658   5.266   1.632   7.966 -0.3258 -0.3143 -0.7359
  857MOL0     H15659   5.530   1.765   7.561  0.5919 -2.2166  0.8913
  857MOL0     H15660   5.762   1.691   7.506 -1.8477  1.5191 -0.7108
  857MOL0     H15661   5.965   1.669   7.445  0.5590  0.0818 -0.5199
  857MOL0     H15662   5.965   1.817   7.338  0.1096 -1.8398 -1.1094
  857MOL0     H15663   6.168   1.726   7.293 -1.4244  1.0588 -0.6165
  857MOL0     H15664   6.194   1.861   7.396  0.3976 -0.1523 -1.0039
  857MOL0     H15665   6.207   1.690   7.593 -2.7123  1.0279 -0.4891
  857MOL0     H15666   6.349   1.700   7.484 -0.5965  2.0185  0.2758
  857MOL0     H15667   6.125   1.493   7.475 -0.1423 -3.5933 -0.7798
  857MOL0     H15668   6.252   1.517   7.350  0.6828 -1.5116  0.4933
  857MOL0     H15669   6.338   1.462   7.627 -5.0790 -2.8007  0.9423
  857MOL0     H15670   6.423   1.439   7.475  2.7727  0.9818  2.9833
  857MOL0     H15671   6.163   1.285   7.553  0.2076 -1.5299 -0.8767
  857MOL0     H15672   6.294   1.254   7.425  2.0887 -2.5225  0.4335
  857MOL0     H15673   6.273   1.135   7.663 -0.6408 -0.1468 -2.7336
  857MOL0     H15674   6.361   1.289   7.727  0.0381  0.7963 -0.2311
  857MOL0     H15675   6.478   1.112   7.509 -0.0543 -2.5280  1.1041
  857MOL0     H15676   6.513   1.100   7.679  1.5881  0.4948  0.0226
  857MOL0     H15677   5.924   2.049   7.665  0.4983 -0.3888 -2.4281
  857MOL0     H15678   5.676   2.123   7.721 -1.9102  0.0185 -0.1543
  857MOL0     H15679   5.451   2.127   7.939 -1.4681  2.0576 -0.9522
  857MOL0     H15680   5.336   2.188   8.142  1.0794 -0.1466  2.1314
  857MOL0     H15681   5.192   1.174   7.326  0.2314  0.4683 -0.1599
  857MOL0     H15682   5.405   1.086   7.210  1.8041 -0.5930 -2.9152
  857MOL0     H15683   5.625   0.895   6.890 -1.1066  0.3502 -0.4079
  857MOL0     H15684   5.831   0.846   6.820 -1.8127 -0.8408  0.8145
  857MOL0     H15685   6.083   0.874   6.837  2.7469 -3.4199 -1.3412
  857MOL0     H15686   6.039   0.866   6.659 -2.1994  2.2756 -0.3042
  857MOL0     H15687   6.277   0.990   6.807  1.7103 -0.8916 -0.2915
  857MOL0     H15688   6.285   0.940   6.631  0.9575 -3.5277 -0.9054
  857MOL0     H15689   6.261   0.727   6.851  1.4803 -0.6714 -0.2618
  857MOL0     H15690   6.409   0.811   6.799 -0.3944  0.9400  1.7291
  857MOL0     H15691   6.405   0.611   6.691 -1.3162  1.0562  1.8417
  857MOL0     H15692   6.381   0.737   6.573  2.3105  0.9627  2.1865
  857MOL0     H15693   6.021   0.528   6.515 -0.3779  1.6629 -0.0804
  857MOL0     H15694   5.925   1.274   6.800 -0.6492  0.2367  2.0318
  857MOL0     H15695   5.699   1.318   6.867  3.0670  1.4547  0.2673
  858MOL0     O15696   9.422   9.848   5.597 -0.3051  0.4991 -0.2830
  858MOL0     C15697   9.417   9.948   5.660 -0.5201  0.0577  0.3231
  858MOL0     O15698   9.528  10.014   5.698  0.2421 -0.0610 -0.3302
  858MOL0     C15699   9.640  10.010   5.621 -0.0640 -0.5467 -0.2814
  858MOL0     C15700   9.749   9.937   5.668  0.2280  0.5392 -0.8761
  858MOL0     C15701   9.857   9.918   5.582  0.0251 -0.3345  0.0451
  858MOL0     C15702   9.869   9.992   5.456 -0.2863  0.1988 -0.6334
  858MOL0     O15703   9.978   9.987   5.368  0.4565  0.7730  0.4110
  858MOL0     C15704  10.106   9.953   5.419  0.2373 -0.5570  0.0658
  858MOL0     C15705  10.148   9.811   5.381 -0.5945 -0.4559  0.5042
  858MOL0     C15706  10.260   9.806   5.271  0.0662  0.3548 -0.2461
  858MOL0     C15707  10.197   9.856   5.144 -0.6658  0.4573 -0.0680
  858MOL0     C15708  10.281   9.823   5.024 -0.7365  0.0643  0.0410
  858MOL0     C15709  10.219   9.867   4.892 -0.0521 -0.7789  0.2005
  858MOL0     C15710  10.309   9.834   4.776  0.0302  0.0909 -0.6334
  858MOL0     C15711  10.264   9.887   4.644  1.1301  0.0160  0.6101
  858MOL0     N15712  10.368   9.872   4.544  1.2709 -0.0993  0.7214
  858MOL0     C15713  10.384   9.766   4.458 -0.7841  0.7959 -0.1287
  858MOL0     C15714  10.470   9.800   4.363 -0.4204  0.5657 -0.5885
  858MOL0     C15715  10.517   9.711   4.254  0.0478 -0.0522 -0.3223
  858MOL0     C15716  10.670   9.703   4.252 -0.4591 -0.8872  0.0420
  858MOL0     C15717  10.728   9.621   4.367 -0.1761  0.2521 -0.4962
  858MOL0     C15718  10.881   9.612   4.363 -0.7395  0.8654  0.5019
  858MOL0     O15719  10.935   9.730   4.420 -0.2326  0.4568 -0.8281
  858MOL0     C15720  10.881   9.790   4.532 -0.0845  0.0744 -0.1644
  858MOL0     C15721  10.899   9.724   4.656 -0.0301 -0.4271  0.4702
  858MOL0     C15722  10.854   9.780   4.778 -0.7664  1.4046  0.6796
  858MOL0     C15723  10.901   9.712   4.901 -0.0352 -0.4148  0.9622
  858MOL0     C15724  10.779   9.896   4.775 -0.6506 -0.2330 -0.2756
  858MOL0     C15725  10.682   9.938   4.882 -0.6787  1.4100  0.3027
  858MOL0     O15726  10.633  10.061   4.879 -0.4656 -0.0581  0.8298
  858MOL0     C15727  10.555  10.127   4.966 -0.0466 -0.4353 -0.5230
  858MOL0     C15728  10.548  10.093   5.099 -0.5814  0.4371 -0.0384
  858MOL0     C15729  10.453  10.154   5.188  0.0422  0.0083  0.1826
  858MOL0     C15730  10.358  10.244   5.145  0.1830 -0.0928  0.2606
  858MOL0     O15731  10.258  10.289   5.230 -0.3284 -0.6426 -0.7158
  858MOL0     C15732  10.125  10.316   5.180  0.4403  0.0062  0.4973
  858MOL0     C15733  10.026  10.346   5.296 -0.7196  0.0659  1.1085
  858MOL0     C15734   9.896  10.411   5.267 -0.0526 -0.0269 -0.1686
  858MOL0     C15735   9.806  10.426   5.391  0.4139 -0.0815  0.9831
  858MOL0     C15736   9.665  10.453   5.361  0.4846 -0.5145 -0.4009
  858MOL0     C15737   9.601  10.473   5.506 -1.1298  0.2598  0.0296
  858MOL0     C15738   9.636  10.598   5.583 -0.6253 -0.3896  0.3588
  858MOL0     C15739   9.548  10.606   5.709 -0.5190  0.6492 -0.6053
  858MOL0    Cl15740   9.600  10.484   5.833 -0.3086  0.2176 -0.1323
  858MOL0     C15741  10.363  10.282   5.010 -0.0168 -0.5512 -0.1971
  858MOL0     C15742  10.455  10.223   4.924  0.0349 -0.0593 -0.0834
  858MOL0     O15743  10.656   9.852   4.964  0.5803 -0.3305 -0.6201
  858MOL0     C15744  10.776   9.972   4.652 -0.5726  0.0989  0.5033
  858MOL0     C15745  10.833   9.924   4.530  0.8381 -0.0673  0.5073
  858MOL0     N15746  10.507   9.927   4.391 -0.2330 -0.0949  0.3719
  858MOL0     N15747  10.444   9.970   4.497  1.0872  0.3895 -0.6516
  858MOL0     C15748   9.754  10.074   5.418 -1.0563 -0.8587  0.2773
  858MOL0     C15749   9.644  10.072   5.496 -0.4520 -0.3997  0.1661
  858MOL0     C15750   9.294  10.001   5.718  0.7682  1.0175 -0.6353
  858MOL0     C15751   9.291  10.087   5.830 -0.2258  0.6754 -0.6451
  858MOL0     C15752   9.175  10.134   5.898 -1.1731  0.3180  0.0218
  858MOL0     C15753   9.052  10.088   5.849  0.8053 -0.3530  0.6074
  858MOL0     O15754   8.940  10.124   5.916  0.2549 -0.2027  0.5591
  858MOL0     C15755   8.883  10.249   5.879  0.5404  1.8804 -0.1866
  858MOL0     C15756   8.748  10.218   5.806 -1.2867  0.7847 -0.4003
  858MOL0     C15757   8.652  10.343   5.787 -0.2060  0.2940  0.3571
  858MOL0     C15758   8.544  10.305   5.683  0.8308 -0.0378 -0.4052
  858MOL0     C15759   8.451  10.409   5.670 -0.5172 -0.9557  0.6105
  858MOL0     C15760   8.362  10.487   5.674  0.1653 -0.8844 -0.6988
  858MOL0     C15761   9.051  10.009   5.732 -0.6430  0.0830 -0.3765
  858MOL0     C15762   9.166   9.957   5.674 -0.5068  0.2858  0.0377
  858MOL0     H15763   9.741   9.883   5.762 -0.5897  1.5137 -0.3568
  858MOL0     H15764   9.939   9.850   5.605  2.1275  0.9270 -3.0113
  858MOL0     H15765  10.174  10.024   5.371  0.0616 -0.5175 -0.1241
  858MOL0     H15766  10.108   9.967   5.528  1.5540  0.0701 -0.0127
  858MOL0     H15767  10.176   9.765   5.476  0.2702 -0.2564  0.3529
  858MOL0     H15768  10.066   9.755   5.335 -0.0195 -0.6415 -0.3287
  858MOL0     H15769  10.352   9.856   5.303  1.0632 -1.2807 -0.3852
  858MOL0     H15770  10.288   9.700   5.261 -0.6981 -0.2262  2.7413
  858MOL0     H15771  10.105   9.799   5.135 -0.7117  0.0298  2.4795
  858MOL0     H15772  10.163   9.960   5.146  0.7722  1.1402 -3.3520
  858MOL0     H15773  10.379   9.871   5.029  1.0679 -3.3277  0.2889
  858MOL0     H15774  10.303   9.716   5.024 -0.3679  0.1137 -1.6749
  858MOL0     H15775  10.121   9.818   4.883 -0.5656  0.2322  0.1346
  858MOL0     H15776  10.211   9.976   4.894 -0.5273 -0.5461 -4.1359
  858MOL0     H15777  10.407   9.881   4.787  0.0891  0.7992 -3.3025
  858MOL0     H15778  10.326   9.726   4.773 -2.0722 -0.4028  1.7368
  858MOL0     H15779  10.245   9.994   4.656  5.6861  1.3794 -1.7209
  858MOL0     H15780  10.180   9.831   4.605  3.1178 -2.4026 -0.4614
  858MOL0     H15781  10.335   9.670   4.457  2.4580 -1.0513  1.3374
  858MOL0     H15782  10.477   9.610   4.266 -0.8161  0.3171 -0.0294
  858MOL0     H15783  10.484   9.750   4.157  0.3988 -1.5194 -1.0599
  858MOL0     H15784  10.711   9.803   4.269  1.4021 -1.7141  0.7159
  858MOL0     H15785  10.709   9.666   4.156  1.0294  0.5979  0.0221
  858MOL0     H15786  10.679   9.523   4.360 -2.2847  1.2050 -0.0842
  858MOL0     H15787  10.695   9.658   4.465  5.0331  1.7584  1.0248
  858MOL0     H15788  10.921   9.593   4.263 -2.4748 -0.7058  0.0399
  858MOL0     H15789  10.915   9.525   4.420  1.5831  2.4687  1.6908
  858MOL0     H15790  10.949   9.628   4.647 -1.3415 -0.9749 -1.8428
  858MOL0     H15791  10.826   9.641   4.937  1.5998 -2.3117  0.7979
  858MOL0     H15792  10.990   9.652   4.878 -1.6437 -2.5927  0.0416
  858MOL0     H15793  10.918   9.788   4.978  0.9693 -1.6393  1.9902
  858MOL0     H15794  10.609  10.011   5.135  2.9536  3.1675  0.7122
  858MOL0     H15795  10.466  10.125   5.292  4.5657 -0.7572 -0.3893
  858MOL0     H15796  10.121  10.401   5.111  1.8506  1.5813  2.2418
  858MOL0     H15797  10.084  10.226   5.135 -0.9998 -1.5696  4.4714
  858MOL0     H15798  10.011  10.256   5.357 -3.3547 -0.8811 -0.7585
  858MOL0     H15799  10.080  10.425   5.348 -0.2354 -0.2619  1.1031
  858MOL0     H15800   9.848  10.350   5.190  2.3298  0.0029 -1.7879
  858MOL0     H15801   9.907  10.510   5.221  4.0558 -0.1525  0.1197
  858MOL0     H15802   9.796  10.327   5.436 -4.9630 -1.1192 -1.6212
  858MOL0     H15803   9.850  10.503   5.454  0.6280  1.0702 -0.5125
  858MOL0     H15804   9.623  10.360   5.322  0.5033 -1.2284  1.2373
  858MOL0     H15805   9.647  10.544   5.302 -1.7636  0.3907  1.5187
  858MOL0     H15806   9.492  10.470   5.492 -1.2496  1.0088  0.7637
  858MOL0     H15807   9.635  10.391   5.570 -2.5600  0.0058  0.4966
  858MOL0     H15808   9.651  10.687   5.522  2.8550 -0.9716  0.1601
  858MOL0     H15809   9.737  10.581   5.623 -1.1737 -2.0531  1.1339
  858MOL0     H15810   9.443  10.583   5.689 -0.7889  1.0496  0.3154
  858MOL0     H15811   9.571  10.703   5.754  3.8472  0.5880 -2.2170
  858MOL0     H15812  10.283  10.348   4.975  0.5421 -1.0246 -2.5783
  858MOL0     H15813  10.444  10.258   4.822 -1.5019 -2.0815 -0.6897
  858MOL0     H15814  10.723  10.066   4.646 -1.7148 -0.5410  0.2920
  858MOL0     H15815  10.847   9.975   4.435  1.9312  0.5189  0.9706
  858MOL0     H15816   9.764  10.133   5.327 -2.5258 -2.8194 -1.2410
  858MOL0     H15817   9.560  10.131   5.461 -0.4971  1.8040  3.5503
  858MOL0     H15818   9.380  10.130   5.874 -0.2788  0.9217 -0.7757
  858MOL0     H15819   9.192  10.201   5.981  1.1941  0.6814 -0.7028
  858MOL0     H15820   8.865  10.304   5.972 -0.1975  1.4747 -0.0756
  858MOL0     H15821   8.937  10.324   5.821 -1.1133  3.0972 -0.2279
  858MOL0     H15822   8.694  10.133   5.848 -0.5149  0.1193 -0.7281
  858MOL0     H15823   8.780  10.194   5.704  2.7525 -2.3035  1.3331
  858MOL0     H15824   8.708  10.429   5.748 -0.1401  1.9579  3.8100
  858MOL0     H15825   8.602  10.377   5.878  1.2365  1.0070  0.9166
  858MOL0     H15826   8.477  10.221   5.702 -0.4317  0.6525 -1.6587
  858MOL0     H15827   8.589  10.272   5.588  0.3959  3.1068 -1.8180
  858MOL0     H15828   8.284  10.560   5.686 -0.5775 -1.6812 -0.5440
  858MOL0     H15829   8.951   9.980   5.700 -0.5039 -0.8397  0.0042
  858MOL0     H15830   9.150   9.872   5.608  1.7726 -2.1850  2.4266
  859MOL0     O15831   9.861   4.011   1.985 -0.4598 -0.1637 -0.5852
  859MOL0     C15832   9.959   4.080   2.026 -1.3440 -0.0197 -0.2215
  859MOL0     O15833  10.054   4.040   2.104 -0.3044  0.1578  0.7737
  859MOL0     C15834  10.043   3.952   2.208  0.1101 -0.0363  0.0377
  859MOL0     C15835  10.021   4.014   2.332 -0.1739 -0.8709  0.5923
  859MOL0     C15836  10.000   3.941   2.445 -0.4737 -0.2774  0.0703
  859MOL0     C15837   9.987   3.800   2.442 -0.3521  0.2667 -0.7840
  859MOL0     O15838   9.957   3.727   2.552  0.5521 -0.3659  0.6037
  859MOL0     C15839  10.022   3.755   2.671  0.5041  0.1360  0.2409
  859MOL0     C15840  10.141   3.665   2.692 -0.5292  0.3138 -0.0616
  859MOL0     C15841  10.153   3.642   2.844  0.0085 -0.4389  0.6177
  859MOL0     C15842  10.282   3.560   2.865  0.3136 -1.1108  0.0734
  859MOL0     C15843  10.317   3.554   3.012  0.9465  0.0321  0.1978
  859MOL0     C15844  10.433   3.463   3.066 -0.1749  0.5036  0.4473
  859MOL0     C15845  10.424   3.426   3.211 -0.7490 -0.3908  0.2660
  859MOL0     C15846  10.307   3.328   3.243  0.7799 -0.1176  0.5102
  859MOL0     N15847  10.333   3.199   3.178  0.2056 -0.5077 -0.3359
  859MOL0     C15848  10.428   3.107   3.212  0.1405 -0.0460 -0.1448
  859MOL0     C15849  10.446   3.025   3.111  0.0764  0.7254 -0.0072
  859MOL0     C15850  10.554   2.918   3.104  0.0443 -0.0345 -0.4533
  859MOL0     C15851  10.615   2.894   2.968  0.4404 -0.2960  0.5432
  859MOL0     C15852  10.644   3.034   2.899 -0.8278  0.0656  0.2345
  859MOL0     C15853  10.715   3.003   2.767  0.4236 -0.1693 -0.0471
  859MOL0     O15854  10.624   2.952   2.674 -0.3790 -0.2932 -0.6757
  859MOL0     C15855  10.682   2.880   2.571  0.1585  0.3406  0.3952
  859MOL0     C15856  10.784   2.787   2.583  0.8563  0.3209  0.3502
  859MOL0     C15857  10.868   2.745   2.486 -0.1766  0.2610 -0.1447
  859MOL0     C15858  10.950   2.615   2.506 -0.2186  0.2263 -1.1494
  859MOL0     C15859  10.855   2.807   2.361 -0.3893  0.3942 -0.9152
  859MOL0     C15860  10.928   2.752   2.237  0.3474  0.3950  1.3528
  859MOL0     O15861  10.918   2.832   2.125 -0.3802  0.2400  0.2168
  859MOL0     C15862  10.953   2.778   2.002 -0.2385 -0.0806  1.2171
  859MOL0     C15863  10.997   2.867   1.902 -0.6182 -0.0808  0.3562
  859MOL0     C15864  11.016   2.829   1.769  0.0104 -0.0538  0.2310
  859MOL0     C15865  10.988   2.700   1.731 -0.3037  0.1238 -1.1960
  859MOL0     O15866  11.003   2.665   1.600 -0.7998 -0.8864  0.2896
  859MOL0     C15867  11.133   2.711   1.540 -0.2210  1.9126 -0.4209
  859MOL0     C15868  11.166   2.620   1.413 -0.6793  1.1973  0.2678
  859MOL0     C15869  11.075   2.650   1.289 -0.0456 -0.8645 -0.5853
  859MOL0     C15870  11.096   2.543   1.176  0.1125 -0.8888 -0.7572
  859MOL0     C15871  11.096   2.601   1.041 -0.6414  0.1172  0.5327
  859MOL0     C15872  11.220   2.667   1.007  0.4980 -1.0333  0.4930
  859MOL0     C15873  11.210   2.725   0.865  0.2436  0.0361  0.0099
  859MOL0     C15874  11.320   2.838   0.848  0.0336  0.0622 -0.5834
  859MOL0    Cl15875  11.490   2.774   0.853 -0.1212 -0.2139  0.2427
  859MOL0     C15876  10.933   2.604   1.822 -0.3595  0.2148  0.0186
  859MOL0     C15877  10.913   2.647   1.946  0.1338 -0.1104 -0.6100
  859MOL0     O15878  10.966   2.632   2.236 -0.4564 -0.8548  1.1184
  859MOL0     C15879  10.759   2.908   2.343  0.4453 -0.1476 -0.6405
  859MOL0     C15880  10.671   2.938   2.443 -0.2655  0.3259 -0.7043
  859MOL0     N15881  10.358   3.065   3.008 -0.6071  0.2351 -0.7078
  859MOL0     N15882  10.294   3.171   3.051 -0.4201 -0.0481  0.0820
  859MOL0     C15883   9.996   3.739   2.325 -0.3840 -1.5934  0.3326
  859MOL0     C15884  10.040   3.812   2.209 -0.1323  0.2134 -0.6074
  859MOL0     C15885   9.989   4.207   1.964 -0.0554 -0.1517  0.1987
  859MOL0     C15886   9.881   4.294   1.949 -0.2381  0.7004  0.5730
  859MOL0     C15887   9.896   4.426   1.908 -0.3217 -0.0401  0.2142
  859MOL0     C15888  10.026   4.474   1.872  0.0782  0.1861  0.5426
  859MOL0     O15889  10.058   4.601   1.833 -1.0077  0.0151 -0.2989
  859MOL0     C15890   9.956   4.699   1.827 -0.6541 -0.4498  0.0534
  859MOL0     C15891   9.910   4.769   1.958  0.1546  0.0614 -0.6014
  859MOL0     C15892   9.830   4.898   1.932 -0.1700 -0.1271 -0.0818
  859MOL0     C15893   9.905   5.007   1.853  0.8946 -0.7596  0.3589
  859MOL0     C15894   9.831   5.135   1.863 -0.6765 -0.2035  0.2582
  859MOL0     C15895   9.777   5.233   1.886  0.1570 -0.3644 -0.1698
  859MOL0     C15896  10.137   4.390   1.889  0.2665  0.4101 -0.9895
  859MOL0     C15897  10.118   4.257   1.934 -0.3291  0.3229 -1.3299
  859MOL0     H15898  10.019   4.122   2.328 -0.4047 -0.9049 -0.2948
  859MOL0     H15899   9.982   3.986   2.543  0.8047  0.0505  0.1743
  859MOL0     H15900  10.058   3.858   2.680 -3.2865  1.6662 -0.3451
  859MOL0     H15901   9.952   3.749   2.754  1.6949  2.4671  1.5148
  859MOL0     H15902  10.129   3.566   2.647  1.0545  0.2163 -0.3193
  859MOL0     H15903  10.225   3.715   2.643  1.2253 -0.9076  1.5715
  859MOL0     H15904  10.168   3.738   2.895 -1.2079 -1.8571  3.9327
  859MOL0     H15905  10.066   3.593   2.887 -0.9753 -1.1964 -2.0249
  859MOL0     H15906  10.241   3.462   2.841 -3.2098 -0.1591  1.5518
  859MOL0     H15907  10.359   3.593   2.795 -0.9458 -0.4172 -1.0306
  859MOL0     H15908  10.340   3.652   3.053 -1.8266  0.2063  1.5480
  859MOL0     H15909  10.226   3.530   3.067  1.1227 -0.1502  0.4134
  859MOL0     H15910  10.450   3.378   3.000  1.0954  0.7317  0.4391
  859MOL0     H15911  10.524   3.524   3.066 -1.2175  2.1515  1.6202
  859MOL0     H15912  10.514   3.370   3.238 -0.7258 -0.1196  0.7778
  859MOL0     H15913  10.424   3.508   3.285 -0.8973 -0.5320  0.4237
  859MOL0     H15914  10.212   3.374   3.214  2.3617  1.2170 -3.0895
  859MOL0     H15915  10.303   3.308   3.350 -0.6938 -2.1674  0.1252
  859MOL0     H15916  10.480   3.103   3.308  0.7788 -0.9030 -0.5093
  859MOL0     H15917  10.632   2.954   3.172 -2.1930 -0.6833  2.6949
  859MOL0     H15918  10.509   2.828   3.147 -0.5145  1.0217  1.2887
  859MOL0     H15919  10.552   2.832   2.904 -0.7575 -0.2552  1.6393
  859MOL0     H15920  10.697   2.824   2.985 -1.4942 -2.3458  1.9562
  859MOL0     H15921  10.717   3.090   2.958 -1.4765 -0.4212  1.5530
  859MOL0     H15922  10.556   3.094   2.876 -1.7594 -1.5531 -0.6675
  859MOL0     H15923  10.802   2.941   2.790  0.0473 -1.7693 -2.4761
  859MOL0     H15924  10.758   3.095   2.726 -2.6330  1.5483  0.2823
  859MOL0     H15925  10.787   2.727   2.674  0.4856  1.6316  1.2432
  859MOL0     H15926  11.045   2.619   2.452  0.5299 -1.2878 -0.0151
  859MOL0     H15927  10.966   2.597   2.613  1.9224 -0.0859 -1.4798
  859MOL0     H15928  10.902   2.523   2.473 -0.1360  0.2603 -1.3680
  859MOL0     H15929  11.028   2.970   1.919 -1.0322  0.6623 -2.7584
  859MOL0     H15930  11.044   2.902   1.695  1.1646  2.4131  2.9134
  859MOL0     H15931  11.145   2.816   1.512  2.6784  1.9097  0.4610
  859MOL0     H15932  11.212   2.688   1.612 -0.0664 -0.2500 -1.2083
  859MOL0     H15933  11.268   2.650   1.388 -0.5338 -1.0277 -2.2717
  859MOL0     H15934  11.171   2.514   1.436 -1.9294  1.3841  1.5093
  859MOL0     H15935  11.098   2.753   1.258  0.5395 -0.2556  1.7043
  859MOL0     H15936  10.975   2.652   1.333  0.2972  0.3873  0.1953
  859MOL0     H15937  11.190   2.488   1.187  0.0332 -0.8739  0.0235
  859MOL0     H15938  11.012   2.473   1.182  0.1279 -0.8900 -0.5569
  859MOL0     H15939  11.021   2.679   1.028  0.8996  1.7662  1.0972
  859MOL0     H15940  11.083   2.518   0.971  0.3113 -0.4921  1.0653
  859MOL0     H15941  11.248   2.740   1.083  4.4078 -1.7552 -0.0500
  859MOL0     H15942  11.304   2.597   1.005 -0.2037 -1.9515 -2.1082
  859MOL0     H15943  11.107   2.756   0.845  1.1862  1.0629 -4.3088
  859MOL0     H15944  11.226   2.643   0.794 -0.6750  0.3502 -0.5747
  859MOL0     H15945  11.311   2.912   0.928 -2.2256 -1.0340  0.2377
  859MOL0     H15946  11.300   2.885   0.751 -0.3758  0.6990 -0.2003
  859MOL0     H15947  10.914   2.506   1.779 -3.7058  1.0038 -0.6201
  859MOL0     H15948  10.867   2.578   2.016  1.4157 -0.6742 -0.2866
  859MOL0     H15949  10.751   2.961   2.248  3.0930 -2.3859 -2.2932
  859MOL0     H15950  10.593   3.014   2.441 -2.2771 -1.5522  1.1255
  859MOL0     H15951   9.975   3.632   2.320  1.4958 -2.0104  0.6321
  859MOL0     H15952  10.060   3.760   2.116 -0.8037  0.3740 -0.8476
  859MOL0     H15953   9.785   4.246   1.964  0.6061 -1.7709 -1.2524
  859MOL0     H15954   9.814   4.495   1.892  1.1787  2.0448  0.9955
  859MOL0     H15955  10.000   4.774   1.761 -2.4813 -0.1898 -0.9301
  859MOL0     H15956   9.866   4.663   1.777 -0.0929 -0.2807 -1.1026
  859MOL0     H15957  10.004   4.797   2.007 -0.4790 -0.9741  1.3121
  859MOL0     H15958   9.856   4.694   2.017  3.2802 -4.7084 -3.0836
  859MOL0     H15959   9.798   4.937   2.029  2.6672 -2.6629  2.0771
  859MOL0     H15960   9.741   4.866   1.878  0.9021 -3.4974 -0.1285
  859MOL0     H15961   9.907   4.974   1.749  1.1063  0.3015  0.0215
  859MOL0     H15962  10.008   5.013   1.887  1.4503 -3.2241 -0.6806
  859MOL0     H15963   9.709   5.314   1.904 -0.0052 -0.6462  0.5180
  859MOL0     H15964  10.240   4.417   1.868  1.2344 -0.9847  1.4835
  859MOL0     H15965  10.207   4.199   1.955  0.1983  1.8941  1.2875
  860MOL0     O15966   3.521   1.965   1.336  0.2405  0.3693  0.1913
  860MOL0     C15967   3.493   2.064   1.278 -0.1575 -0.4066 -0.6660
  860MOL0     O15968   3.380   2.073   1.206  0.1061  0.8616  0.4567
  860MOL0     C15969   3.257   2.012   1.229 -0.3094 -0.3415 -0.4976
  860MOL0     C15970   3.229   1.936   1.340  0.3940 -0.1142 -0.6430
  860MOL0     C15971   3.090   1.915   1.375 -0.4011 -0.0536  0.7962
  860MOL0     C15972   2.998   1.927   1.269  0.4991  0.3405  1.0653
  860MOL0     O15973   2.866   1.884   1.280  0.0897  0.3747 -0.0649
  860MOL0     C15974   2.811   1.871   1.416  0.2320 -1.0336 -0.2318
  860MOL0     C15975   2.809   2.013   1.492  0.7550 -0.2218 -0.6993
  860MOL0     C15976   2.726   2.120   1.420 -0.4490  0.1097 -0.7338
  860MOL0     C15977   2.579   2.100   1.425 -0.1343  0.9661 -0.0560
  860MOL0     C15978   2.502   2.210   1.364 -0.0513  0.6415 -0.5934
  860MOL0     C15979   2.489   2.326   1.474 -0.3975 -0.1438  0.3488
  860MOL0     C15980   2.463   2.468   1.418  0.4507 -0.3583 -0.4563
  860MOL0     C15981   2.329   2.492   1.363  0.0713 -0.4215 -0.2570
  860MOL0     N15982   2.331   2.475   1.208  0.6414  0.1349  0.6729
  860MOL0     C15983   2.429   2.475   1.109 -0.1766  0.2245 -0.5129
  860MOL0     C15984   2.371   2.472   0.990 -0.5884  0.5470 -0.9367
  860MOL0     C15985   2.438   2.465   0.862 -0.9819  0.0297 -0.6392
  860MOL0     C15986   2.524   2.335   0.846 -0.4927  0.5179  0.5958
  860MOL0     C15987   2.603   2.334   0.709 -0.2910  0.3815  0.5040
  860MOL0     C15988   2.704   2.209   0.705 -0.4478 -0.5816 -0.1824
  860MOL0     O15989   2.820   2.233   0.788  0.1667  0.5662  0.4395
  860MOL0     C15990   2.926   2.303   0.733  0.4387  0.1962  0.8980
  860MOL0     C15991   3.033   2.304   0.818  0.5916 -0.2624 -0.3336
  860MOL0     C15992   3.146   2.384   0.795  0.5548 -0.5768  0.3465
  860MOL0     C15993   3.254   2.355   0.896 -0.5314  0.3201 -0.1105
  860MOL0     C15994   3.154   2.476   0.676  0.5266 -0.3858 -0.2401
  860MOL0     C15995   3.269   2.560   0.633 -0.4838 -0.4897  0.3766
  860MOL0     O15996   3.270   2.601   0.506  0.4757 -0.9905  0.2045
  860MOL0     C15997   3.345   2.703   0.453  1.0584  0.9747 -0.7976
  860MOL0     C15998   3.362   2.826   0.514 -0.4650  1.2174  1.0359
  860MOL0     C15999   3.436   2.928   0.449  0.0337 -0.5952 -0.2099
  860MOL0     C16000   3.474   2.912   0.316  0.9749 -0.3611  0.4734
  860MOL0     O16001   3.525   3.017   0.247 -0.0229  0.2793 -0.1462
  860MOL0     C16002   3.651   2.980   0.189 -0.2833  0.0129  0.0971
  860MOL0     C16003   3.759   3.077   0.244  0.0192 -0.1905 -0.2954
  860MOL0     C16004   3.724   3.218   0.219  0.2946 -0.4888  0.2104
  860MOL0     C16005   3.713   3.299   0.351 -0.1433  0.2465 -0.4506
  860MOL0     C16006   3.693   3.450   0.307  0.0075 -0.8331  0.8727
  860MOL0     C16007   3.693   3.538   0.427 -1.2267 -0.1068  0.1048
  860MOL0     C16008   3.843   3.554   0.464 -0.3590  0.4057 -1.5758
  860MOL0     C16009   3.850   3.623   0.605 -0.7477  0.3440  0.1612
  860MOL0    Cl16010   3.776   3.794   0.578  0.3209 -0.3998 -0.1702
  860MOL0     C16011   3.465   2.783   0.253 -0.0269  0.3497 -0.5185
  860MOL0     C16012   3.407   2.680   0.329  0.5428  0.0667  1.2626
  860MOL0     O16013   3.361   2.581   0.710 -0.3398  0.1218 -0.0358
  860MOL0     C16014   3.041   2.455   0.592  0.6168 -0.7706 -0.4133
  860MOL0     C16015   2.939   2.374   0.618 -0.1689  0.1803 -0.1537
  860MOL0     N16016   2.236   2.465   1.008 -0.5347  1.0927 -0.5198
  860MOL0     N16017   2.214   2.454   1.137 -0.3203 -0.1086  0.7659
  860MOL0     C16018   3.032   1.983   1.146 -0.1594  0.0981 -0.4573
  860MOL0     C16019   3.164   2.019   1.131  1.8491 -0.0267  0.2409
  860MOL0     C16020   3.587   2.177   1.273  0.4507 -0.7789 -0.0693
  860MOL0     C16021   3.572   2.262   1.161  0.3156  0.6547 -0.4516
  860MOL0     C16022   3.648   2.379   1.148 -0.3025 -0.2598  0.7022
  860MOL0     C16023   3.742   2.419   1.236 -0.1880 -0.2696 -0.3228
  860MOL0     O16024   3.802   2.544   1.216  0.3606  0.3173 -0.2502
  860MOL0     C16025   3.918   2.592   1.298  0.2514  0.8721  0.1377
  860MOL0     C16026   4.030   2.655   1.216  0.3783  0.7069  0.2251
  860MOL0     C16027   4.055   2.581   1.083  0.3219  0.3898 -0.5744
  860MOL0     C16028   4.144   2.669   0.989  0.0870 -0.2413 -1.5456
  860MOL0     C16029   4.159   2.603   0.856  0.6343 -0.4949 -0.2808
  860MOL0     C16030   4.160   2.540   0.754  1.1616  0.5810  0.8323
  860MOL0     C16031   3.759   2.336   1.351  1.1544  1.0939  0.0480
  860MOL0     C16032   3.682   2.215   1.365 -0.7135 -0.2543 -0.8732
  860MOL0     H16033   3.295   1.920   1.425  0.7509 -1.1836 -1.1054
  860MOL0     H16034   3.064   1.860   1.465  1.5186  0.0933  1.4934
  860MOL0     H16035   2.711   1.828   1.427 -1.0722  1.6823 -0.7850
  860MOL0     H16036   2.877   1.807   1.476 -1.3983 -1.5190  1.1417
  860MOL0     H16037   2.740   1.992   1.574  1.8360 -4.1881 -0.6149
  860MOL0     H16038   2.908   2.034   1.533  0.1226  0.3873  0.5635
  860MOL0     H16039   2.747   2.213   1.473 -0.4368  0.4501 -1.3242
  860MOL0     H16040   2.764   2.126   1.317 -2.2579 -3.6848 -1.8025
  860MOL0     H16041   2.553   2.004   1.379 -0.3331 -0.0111  1.9829
  860MOL0     H16042   2.542   2.086   1.527  0.4064  2.1128  0.3084
  860MOL0     H16043   2.547   2.260   1.277 -1.5516  1.6906 -0.8189
  860MOL0     H16044   2.407   2.166   1.331 -1.3786  1.3397  2.0171
  860MOL0     H16045   2.407   2.289   1.536 -0.6864 -2.0383 -1.0516
  860MOL0     H16046   2.581   2.328   1.534  1.0883 -4.0321 -1.4311
  860MOL0     H16047   2.481   2.540   1.499 -4.9807  1.5809 -0.5625
  860MOL0     H16048   2.540   2.489   1.343 -1.3109  3.0772 -1.4824
  860MOL0     H16049   2.290   2.593   1.382 -1.3883 -1.3806  2.2957
  860MOL0     H16050   2.248   2.434   1.408 -1.1522  1.4909  0.1320
  860MOL0     H16051   2.535   2.470   1.131  0.1366  2.1286 -1.4324
  860MOL0     H16052   2.377   2.491   0.775 -2.1201 -0.7030 -0.0839
  860MOL0     H16053   2.518   2.536   0.883 -0.0536 -1.2219  0.2663
  860MOL0     H16054   2.453   2.253   0.829  1.4865 -0.7378 -2.7777
  860MOL0     H16055   2.581   2.314   0.936 -1.5951 -0.7498  1.0330
  860MOL0     H16056   2.658   2.428   0.707  0.4530 -0.0522 -0.2096
  860MOL0     H16057   2.532   2.347   0.627  0.1931  0.9718  0.1640
  860MOL0     H16058   2.734   2.185   0.603 -2.4828  3.4953 -1.9742
  860MOL0     H16059   2.651   2.126   0.753 -1.0167  1.1521  2.4054
  860MOL0     H16060   3.029   2.240   0.905 -2.1777 -0.2005 -0.3273
  860MOL0     H16061   3.250   2.252   0.931 -0.9379  0.3465 -0.0758
  860MOL0     H16062   3.352   2.359   0.849 -0.3103  1.1749  0.3934
  860MOL0     H16063   3.239   2.414   0.987  0.6968 -2.0597  1.7323
  860MOL0     H16064   3.309   2.846   0.606 -3.4193  1.2452 -0.5493
  860MOL0     H16065   3.441   3.023   0.501 -1.4703  0.2950 -1.5839
  860MOL0     H16066   3.697   2.888   0.226  2.1265  0.8699 -0.5432
  860MOL0     H16067   3.650   2.979   0.079  1.4250 -0.5019  0.0594
  860MOL0     H16068   3.772   3.045   0.348 -0.5804 -2.9015 -0.9575
  860MOL0     H16069   3.858   3.048   0.206 -0.5834 -1.5091 -0.9225
  860MOL0     H16070   3.636   3.220   0.154  1.9019 -1.0015 -2.1109
  860MOL0     H16071   3.806   3.258   0.159  0.9085 -1.0375  0.6664
  860MOL0     H16072   3.617   3.269   0.395  0.1021 -2.5279 -1.6188
  860MOL0     H16073   3.800   3.275   0.413 -1.3520 -1.4391  0.7009
  860MOL0     H16074   3.597   3.457   0.254  1.3711 -3.2404 -2.1963
  860MOL0     H16075   3.763   3.490   0.233 -2.2276 -0.9428 -1.4460
  860MOL0     H16076   3.647   3.637   0.415 -0.3981  0.4457  1.3808
  860MOL0     H16077   3.630   3.483   0.498  0.5322  0.0592  1.8682
  860MOL0     H16078   3.897   3.611   0.388 -1.2378  1.4566 -1.4355
  860MOL0     H16079   3.888   3.454   0.468 -1.4428 -0.0732 -0.9382
  860MOL0     H16080   3.952   3.631   0.644 -1.6042  0.4358  2.4992
  860MOL0     H16081   3.785   3.565   0.671 -2.0768  1.7621  0.1553
  860MOL0     H16082   3.515   2.763   0.159  3.4064  0.1383  1.1921
  860MOL0     H16083   3.396   2.580   0.288  2.5416  1.2525 -2.6545
  860MOL0     H16084   3.041   2.503   0.495  0.4065  1.9870  0.8550
  860MOL0     H16085   2.848   2.386   0.561  0.4902 -0.0821 -1.2767
  860MOL0     H16086   2.965   1.990   1.061 -1.4979  1.9651  0.6788
  860MOL0     H16087   3.184   2.061   1.033  2.7092 -0.9566 -0.0020
  860MOL0     H16088   3.505   2.232   1.082 -2.0643 -0.2870  1.7669
  860MOL0     H16089   3.630   2.442   1.062  0.7140 -0.2804  0.4576
  860MOL0     H16090   3.873   2.654   1.376 -0.2037 -0.9659  1.4206
  860MOL0     H16091   3.959   2.503   1.347 -1.0191 -0.8964 -1.8411
  860MOL0     H16092   4.123   2.661   1.274 -0.4360  1.3416  1.5203
  860MOL0     H16093   3.990   2.755   1.197 -0.7374  0.3568  0.6383
  860MOL0     H16094   3.955   2.566   1.042 -0.5476  1.4284  1.0761
  860MOL0     H16095   4.096   2.482   1.105  1.0766  0.7784 -0.1857
  860MOL0     H16096   4.236   2.672   1.048 -1.0679  0.0085  0.3271
  860MOL0     H16097   4.102   2.770   0.989 -1.2918 -0.7186  1.0950
  860MOL0     H16098   4.159   2.486   0.661 -0.7962 -0.2187  1.2733
  860MOL0     H16099   3.823   2.371   1.431  1.6381  0.2479  0.0312
  860MOL0     H16100   3.708   2.144   1.443  1.0602 -0.8204 -1.9264
  861MOL0     O16101   5.693   7.609   5.802 -0.5173 -0.0956 -0.0291
  861MOL0     C16102   5.784   7.549   5.860  0.1491 -0.2282 -0.7988
  861MOL0     O16103   5.903   7.509   5.810  0.2135  0.0387  0.1061
  861MOL0     C16104   5.920   7.550   5.677 -0.1358 -0.3176 -0.4128
  861MOL0     C16105   6.014   7.646   5.658 -1.0589 -0.4760 -0.4742
  861MOL0     C16106   6.049   7.705   5.534 -0.3469  0.7275 -0.5659
  861MOL0     C16107   5.989   7.651   5.417 -0.1424  0.1649  0.0621
  861MOL0     O16108   6.039   7.698   5.298  0.1326  0.0530  0.5567
  861MOL0     C16109   5.987   7.651   5.170 -1.0079  0.3841  0.3608
  861MOL0     C16110   6.082   7.542   5.122 -0.2249  0.6662  0.0956
  861MOL0     C16111   6.232   7.563   5.111  0.2703  0.0332  0.1091
  861MOL0     C16112   6.299   7.461   5.014 -0.9693 -0.6671  1.1182
  861MOL0     C16113   6.429   7.516   4.945 -0.0528  0.0426 -0.1405
  861MOL0     C16114   6.416   7.620   4.824  0.2234 -0.0551 -0.4512
  861MOL0     C16115   6.557   7.662   4.768  0.7598  0.8244 -0.8282
  861MOL0     C16116   6.639   7.543   4.709  0.4035 -0.4133  0.0208
  861MOL0     N16117   6.589   7.489   4.577  0.8427  0.4139  0.3210
  861MOL0     C16118   6.570   7.573   4.469  0.1260  0.1866  0.2520
  861MOL0     C16119   6.507   7.500   4.373  0.2342 -0.7990  0.0260
  861MOL0     C16120   6.489   7.531   4.228 -0.5049  0.7428  0.3571
  861MOL0     C16121   6.424   7.425   4.140  0.3289  0.1773 -0.3693
  861MOL0     C16122   6.500   7.296   4.146  0.8768  0.0934  0.2649
  861MOL0     C16123   6.597   7.297   4.025 -0.4275 -0.4415  0.9396
  861MOL0     O16124   6.675   7.184   4.028 -0.7006  0.7616  0.1632
  861MOL0     C16125   6.746   7.135   3.922 -0.7894 -0.8544  1.0276
  861MOL0     C16126   6.741   7.184   3.789 -0.7742  0.3752  0.5668
  861MOL0     C16127   6.797   7.110   3.676  0.4610  0.2956 -0.8330
  861MOL0     C16128   6.771   7.167   3.530 -0.1815 -0.0378  0.6996
  861MOL0     C16129   6.882   7.007   3.713 -0.6225  1.1680 -0.2882
  861MOL0     C16130   6.963   6.936   3.609  0.6009  0.2650 -1.4049
  861MOL0     O16131   7.077   6.874   3.651 -0.2861  0.4665 -0.1395
  861MOL0     C16132   7.140   6.781   3.570  0.8615  0.3132  0.2403
  861MOL0     C16133   7.246   6.819   3.488 -0.9504  0.8284  0.1332
  861MOL0     C16134   7.316   6.718   3.424  0.6902 -0.0812 -0.3862
  861MOL0     C16135   7.298   6.584   3.452  0.4768  0.3654  0.2847
  861MOL0     O16136   7.359   6.477   3.395 -0.3616  0.4563  0.5491
  861MOL0     C16137   7.449   6.504   3.288 -0.4400 -0.6045 -0.2846
  861MOL0     C16138   7.511   6.380   3.220 -0.4621 -0.5004 -0.0647
  861MOL0     C16139   7.564   6.394   3.081 -0.5710 -0.8861 -0.2625
  861MOL0     C16140   7.460   6.375   2.968 -0.2094 -0.2576 -0.6083
  861MOL0     C16141   7.508   6.323   2.826  0.0171 -0.1717  1.5412
  861MOL0     C16142   7.592   6.421   2.756  0.4322 -0.3031  0.0309
  861MOL0     C16143   7.671   6.349   2.642 -0.6583 -0.7010  0.7022
  861MOL0     C16144   7.782   6.443   2.571  0.4705  0.2836  0.0900
  861MOL0    Cl16145   7.805   6.391   2.403 -0.4371 -0.2708  0.3041
  861MOL0     C16146   7.202   6.550   3.547  0.5646 -1.0358  0.2091
  861MOL0     C16147   7.120   6.650   3.605 -0.0503 -1.0672  0.5615
  861MOL0     O16148   6.914   6.923   3.504 -0.0439  0.5777  0.0241
  861MOL0     C16149   6.902   6.971   3.848  1.4581  0.3300 -0.0987
  861MOL0     C16150   6.827   7.032   3.947 -1.2423 -0.1245 -0.2348
  861MOL0     N16151   6.482   7.380   4.429 -0.4338  0.0147 -0.1121
  861MOL0     N16152   6.528   7.365   4.545  1.0417  0.2515  0.4573
  861MOL0     C16153   5.892   7.546   5.430 -0.6306  0.6854  0.5844
  861MOL0     C16154   5.862   7.496   5.561  0.7868 -0.8199 -0.3799
  861MOL0     C16155   5.752   7.486   5.993 -0.2000 -0.3779  0.5950
  861MOL0     C16156   5.857   7.430   6.073 -0.7358 -0.2559  0.1901
  861MOL0     C16157   5.827   7.361   6.191  0.2379 -1.2273 -0.7867
  861MOL0     C16158   5.696   7.368   6.241  0.0824 -0.9417  0.1970
  861MOL0     O16159   5.673   7.323   6.369 -0.8616 -0.5040 -0.4975
  861MOL0     C16160   5.781   7.316   6.464 -0.2754  0.4895 -0.2494
  861MOL0     C16161   5.799   7.461   6.510  0.3705  0.2103 -0.5772
  861MOL0     C16162   5.680   7.527   6.569 -0.0747  0.1962  0.1220
  861MOL0     C16163   5.604   7.465   6.686 -0.1079  0.4076  0.0286
  861MOL0     C16164   5.646   7.508   6.824  0.1072  0.4190 -0.7699
  861MOL0     C16165   5.691   7.525   6.933 -0.2015  0.2730  0.9378
  861MOL0     C16166   5.590   7.431   6.169  0.8072 -0.1052 -1.3244
  861MOL0     C16167   5.621   7.483   6.047  0.2391  0.9302  0.2316
  861MOL0     H16168   6.058   7.679   5.751 -0.6576  1.6485 -1.3631
  861MOL0     H16169   6.128   7.780   5.541 -1.0077  1.3403  0.8116
  861MOL0     H16170   5.880   7.632   5.180 -1.0693  1.4766  2.2521
  861MOL0     H16171   5.981   7.733   5.098  1.7224  1.3376  1.0838
  861MOL0     H16172   6.069   7.451   5.181  1.6212  0.6821  0.6050
  861MOL0     H16173   6.050   7.521   5.020 -0.6660  2.5070 -0.1774
  861MOL0     H16174   6.244   7.665   5.073 -1.9343  0.8049  1.2801
  861MOL0     H16175   6.279   7.552   5.208 -0.7981 -0.2258  0.6146
  861MOL0     H16176   6.346   7.374   5.059  2.1534  0.5205  0.4060
  861MOL0     H16177   6.223   7.431   4.941  0.5421  0.3015 -0.9688
  861MOL0     H16178   6.486   7.564   5.025  0.6431 -1.1341  0.0988
  861MOL0     H16179   6.489   7.433   4.905 -2.1931 -3.3285  2.9586
  861MOL0     H16180   6.348   7.591   4.743 -2.7231 -0.3257  1.9170
  861MOL0     H16181   6.373   7.710   4.868 -0.0015  0.1595 -1.0890
  861MOL0     H16182   6.545   7.737   4.689 -1.8656  0.9405 -0.4164
  861MOL0     H16183   6.610   7.703   4.854 -3.7607  1.6612  1.8946
  861MOL0     H16184   6.664   7.461   4.777  0.0303 -0.1059  0.5356
  861MOL0     H16185   6.735   7.591   4.683  0.1119  1.0516  1.4926
  861MOL0     H16186   6.605   7.675   4.456 -0.0797  0.5836  2.4816
  861MOL0     H16187   6.427   7.622   4.223 -1.3970  0.1021 -0.4931
  861MOL0     H16188   6.591   7.546   4.189 -0.8533  0.5498 -0.6690
  861MOL0     H16189   6.429   7.475   4.042  0.0760  0.6277 -0.1534
  861MOL0     H16190   6.328   7.398   4.184 -0.1277  0.2074 -1.3140
  861MOL0     H16191   6.423   7.220   4.126 -1.0706  1.4183  2.2732
  861MOL0     H16192   6.546   7.263   4.239  1.1631  0.4437  0.2482
  861MOL0     H16193   6.671   7.377   4.026 -0.3733 -0.4942  1.7618
  861MOL0     H16194   6.541   7.301   3.931 -0.0857  0.3582  0.7592
  861MOL0     H16195   6.660   7.252   3.763 -1.9386 -0.1601  2.6005
  861MOL0     H16196   6.731   7.089   3.464 -0.0496  2.0199 -1.9590
  861MOL0     H16197   6.687   7.236   3.530 -0.0518  0.1678  2.4924
  861MOL0     H16198   6.859   7.215   3.487 -1.6908  1.0747 -1.3122
  861MOL0     H16199   7.262   6.925   3.469  3.4320 -0.1444 -3.4817
  861MOL0     H16200   7.385   6.770   3.358  2.6813  0.2305  1.8009
  861MOL0     H16201   7.377   6.547   3.218 -0.2735 -2.0331 -1.3688
  861MOL0     H16202   7.523   6.580   3.318  0.6524 -1.6359 -0.2714
  861MOL0     H16203   7.606   6.362   3.271  0.4110  1.2304 -1.0008
  861MOL0     H16204   7.456   6.286   3.236 -1.6864 -0.8062 -4.7102
  861MOL0     H16205   7.638   6.314   3.071  0.6859  0.5388 -3.9739
  861MOL0     H16206   7.620   6.486   3.065 -0.5155 -1.2629 -2.4841
  861MOL0     H16207   7.388   6.297   2.995 -0.1503 -0.9249 -2.2454
  861MOL0     H16208   7.410   6.472   2.966  2.7631  1.4884  1.1665
  861MOL0     H16209   7.422   6.316   2.759  0.1607  0.4298  1.2972
  861MOL0     H16210   7.551   6.222   2.822  0.5424 -0.0155 -3.8126
  861MOL0     H16211   7.529   6.508   2.736 -1.4328 -1.2621  1.3877
  861MOL0     H16212   7.671   6.452   2.824  0.2825  1.9922 -0.7656
  861MOL0     H16213   7.603   6.314   2.564  0.6368  2.6716 -2.2155
  861MOL0     H16214   7.721   6.264   2.689  1.0019  1.4208  3.0275
  861MOL0     H16215   7.871   6.427   2.633 -1.0191  0.9318  2.5454
  861MOL0     H16216   7.758   6.549   2.580 -0.5150  0.0134  0.8009
  861MOL0     H16217   7.202   6.457   3.602 -1.4533 -0.5811  1.0779
  861MOL0     H16218   7.051   6.606   3.676  0.7996 -2.3336  0.6435
  861MOL0     H16219   6.962   6.884   3.872  0.7555 -0.0297  0.3773
  861MOL0     H16220   6.832   7.015   4.054 -1.3136 -0.8812 -0.3438
  861MOL0     H16221   5.854   7.499   5.341  1.9579 -0.7595  0.1384
  861MOL0     H16222   5.777   7.429   5.570  0.9055 -1.0006 -0.6017
  861MOL0     H16223   5.957   7.437   6.031 -1.9984 -0.0329 -3.1076
  861MOL0     H16224   5.911   7.302   6.227  0.7597 -0.2034 -0.3071
  861MOL0     H16225   5.761   7.261   6.557  0.4520 -2.1656 -1.5779
  861MOL0     H16226   5.874   7.279   6.422 -0.5711  2.9644 -3.4325
  861MOL0     H16227   5.848   7.524   6.434 -0.5398 -0.3048 -1.6101
  861MOL0     H16228   5.875   7.452   6.588  0.1966 -1.4821 -0.5632
  861MOL0     H16229   5.604   7.544   6.492  0.2204  0.4948 -0.1074
  861MOL0     H16230   5.726   7.621   6.597  0.1251 -0.0927  0.7939
  861MOL0     H16231   5.595   7.356   6.689  3.7078 -0.1325 -2.2822
  861MOL0     H16232   5.502   7.504   6.684 -0.8181 -1.2502  1.3182
  861MOL0     H16233   5.719   7.533   7.036  0.1883 -2.4568  1.1183
  861MOL0     H16234   5.492   7.441   6.214  0.8237  0.0782 -1.3248
  861MOL0     H16235   5.545   7.523   5.981  1.0800 -0.8503 -1.9658
  862MOL0     O16236   0.831   3.807   6.736 -0.5009 -0.2807  0.4334
  862MOL0     C16237   0.941   3.825   6.780 -0.3203  0.0680  0.3664
  862MOL0     O16238   1.057   3.864   6.710 -0.1290  0.0469  0.0851
  862MOL0     C16239   1.064   3.912   6.578  0.3220  0.6754 -0.4585
  862MOL0     C16240   1.138   4.018   6.537 -0.1864 -0.0064  0.1641
  862MOL0     C16241   1.144   4.062   6.405 -0.6281  0.9360  0.1644
  862MOL0     C16242   1.072   4.007   6.307  0.8059  1.5260 -0.2260
  862MOL0     O16243   1.083   4.032   6.172 -0.7259  0.1829  0.0238
  862MOL0     C16244   1.135   4.155   6.119 -0.5432  0.4582 -0.8312
  862MOL0     C16245   1.184   4.128   5.979 -0.4212  0.0650 -0.2284
  862MOL0     C16246   1.183   4.248   5.883  0.7049 -0.7836 -0.1124
  862MOL0     C16247   1.273   4.194   5.759 -0.4320 -0.1889  0.8345
  862MOL0     C16248   1.410   4.272   5.736 -0.1751 -0.4882  1.4218
  862MOL0     C16249   1.521   4.255   5.844 -0.7224  1.1058 -0.6060
  862MOL0     C16250   1.650   4.329   5.810  1.0488  0.5786  0.3209
  862MOL0     C16251   1.751   4.343   5.923 -0.1741  0.4972  0.1450
  862MOL0     N16252   1.874   4.401   5.863  0.2316  0.4573 -0.4809
  862MOL0     C16253   1.967   4.326   5.789 -0.5541 -0.1635  0.8041
  862MOL0     C16254   2.074   4.417   5.774  0.1003  0.1846  0.0911
  862MOL0     C16255   2.197   4.398   5.690  0.3157  0.3098  0.0682
  862MOL0     C16256   2.176   4.449   5.553  0.4219 -0.0554 -0.0205
  862MOL0     C16257   2.298   4.433   5.457 -0.5453  0.1410  0.5563
  862MOL0     C16258   2.330   4.568   5.390  0.3177  0.5926  0.5204
  862MOL0     O16259   2.257   4.578   5.267  0.3702 -0.1023  0.5044
  862MOL0     C16260   2.289   4.689   5.190  0.7138 -0.2423 -0.0993
  862MOL0     C16261   2.235   4.690   5.059  0.6273 -0.6675 -0.0200
  862MOL0     C16262   2.256   4.796   4.971  0.9330  0.5564  0.6656
  862MOL0     C16263   2.161   4.794   4.851  0.3954 -0.1687  0.1481
  862MOL0     C16264   2.333   4.911   5.001 -0.4555  0.4545  0.6717
  862MOL0     C16265   2.368   5.017   4.901  0.4998 -0.7230 -0.0696
  862MOL0     O16266   2.305   5.027   4.777  0.6325  0.1165 -0.4562
  862MOL0     C16267   2.340   5.137   4.709  0.5693 -0.7957  1.0950
  862MOL0     C16268   2.300   5.262   4.751  0.0249 -0.3957  0.5854
  862MOL0     C16269   2.322   5.367   4.661  0.1302 -0.1246 -0.1529
  862MOL0     C16270   2.387   5.353   4.540  0.1683 -0.4563  0.0350
  862MOL0     O16271   2.402   5.461   4.465 -0.1174  0.1105 -0.6848
  862MOL0     C16272   2.340   5.590   4.497 -0.5182 -0.3951 -0.5690
  862MOL0     C16273   2.380   5.701   4.394  1.1579 -0.8255  0.1211
  862MOL0     C16274   2.333   5.670   4.248 -0.1623  0.2290  0.5188
  862MOL0     C16275   2.331   5.805   4.171  0.0864 -0.1147 -0.4221
  862MOL0     C16276   2.310   5.792   4.022 -0.5157  0.8852 -0.2380
  862MOL0     C16277   2.161   5.756   3.986  0.4325  0.2806 -0.4392
  862MOL0     C16278   2.150   5.694   3.845 -0.7276  0.7907  0.1130
  862MOL0     C16279   2.004   5.675   3.799 -0.3812  0.8780 -0.5003
  862MOL0    Cl16280   2.003   5.591   3.649 -0.3783  0.1292  0.2263
  862MOL0     C16281   2.424   5.227   4.502 -0.6736  0.7846  0.8480
  862MOL0     C16282   2.397   5.114   4.576 -0.0151  0.2362  0.0460
  862MOL0     O16283   2.455   5.098   4.945  0.2795 -0.4199  0.3392
  862MOL0     C16284   2.385   4.904   5.130  0.2833 -0.9421 -0.3782
  862MOL0     C16285   2.351   4.808   5.220 -0.3349 -0.4914  0.4248
  862MOL0     N16286   2.037   4.530   5.842 -0.1217 -0.0367 -0.0632
  862MOL0     N16287   1.926   4.521   5.886  0.4668 -0.5274  0.1751
  862MOL0     C16288   1.000   3.895   6.339  0.4241  0.0298 -0.2326
  862MOL0     C16289   0.990   3.849   6.473  0.5501  0.0767 -0.7992
  862MOL0     C16290   0.954   3.802   6.929  0.3458  0.3177  0.0938
  862MOL0     C16291   0.838   3.799   7.016 -0.3474  0.2981  1.0885
  862MOL0     C16292   0.852   3.780   7.152 -0.3035  0.7634 -0.7265
  862MOL0     C16293   0.974   3.787   7.217 -1.0531 -0.6706  0.7850
  862MOL0     O16294   0.973   3.778   7.351  0.7515  0.7143 -0.2050
  862MOL0     C16295   1.077   3.844   7.423  0.0481 -0.4611 -0.1298
  862MOL0     C16296   1.075   3.997   7.387 -0.5117 -0.1738  0.2165
  862MOL0     C16297   1.170   4.076   7.465 -0.2139  0.4074  1.0514
  862MOL0     C16298   1.157   4.224   7.416 -0.6769 -0.2692 -0.6301
  862MOL0     C16299   1.266   4.299   7.478  0.0613  0.4262 -0.2854
  862MOL0     C16300   1.355   4.363   7.542 -0.2192  0.3923  0.1474
  862MOL0     C16301   1.092   3.787   7.134 -0.6859  0.4190 -0.0826
  862MOL0     C16302   1.081   3.804   6.991 -1.0005  0.2192 -1.3698
  862MOL0     H16303   1.196   4.068   6.614 -0.1337  0.7117 -0.3302
  862MOL0     H16304   1.207   4.150   6.393 -0.4938  0.8716  0.3883
  862MOL0     H16305   1.050   4.223   6.132 -0.5270  0.1460  1.4090
  862MOL0     H16306   1.220   4.185   6.181 -2.4298 -0.5675  2.5153
  862MOL0     H16307   1.283   4.081   5.990  0.1674  1.8256  3.6028
  862MOL0     H16308   1.115   4.053   5.939 -0.2803  0.3448 -1.0119
  862MOL0     H16309   1.082   4.270   5.848  1.4330  0.7816 -1.4001
  862MOL0     H16310   1.233   4.336   5.926 -0.0713 -1.5905  2.6336
  862MOL0     H16311   1.294   4.087   5.764 -1.1163 -0.3927 -0.2282
  862MOL0     H16312   1.217   4.227   5.670  0.7245  0.0044  0.1623
  862MOL0     H16313   1.455   4.231   5.645 -1.8143 -0.2881  0.4826
  862MOL0     H16314   1.392   4.379   5.727  5.4102  0.5862 -1.5118
  862MOL0     H16315   1.481   4.287   5.941 -0.3158  1.0650 -0.4255
  862MOL0     H16316   1.540   4.148   5.854 -1.5544  0.8329 -1.6861
  862MOL0     H16317   1.696   4.286   5.721  1.0576 -1.8043  1.4184
  862MOL0     H16318   1.610   4.428   5.785 -3.7772 -1.3753 -0.9825
  862MOL0     H16319   1.779   4.250   5.973 -1.5443 -2.4041 -3.9891
  862MOL0     H16320   1.711   4.422   5.988 -1.0914  0.1677 -0.0001
  862MOL0     H16321   1.949   4.224   5.756  2.1193 -1.4473  2.8900
  862MOL0     H16322   2.280   4.459   5.726  0.6779  0.5582 -1.1441
  862MOL0     H16323   2.220   4.291   5.687  1.5835  0.5503  0.7568
  862MOL0     H16324   2.144   4.553   5.551 -0.6762 -0.3394 -3.4055
  862MOL0     H16325   2.095   4.393   5.506  2.8544 -2.2766 -1.9037
  862MOL0     H16326   2.291   4.347   5.388 -1.5782  1.7507 -1.4505
  862MOL0     H16327   2.384   4.410   5.520  0.5650 -0.3480 -1.0597
  862MOL0     H16328   2.436   4.572   5.364  0.7372  0.4060  2.1308
  862MOL0     H16329   2.305   4.648   5.461 -1.5185 -0.2504  0.8756
  862MOL0     H16330   2.171   4.609   5.025  0.6119 -0.6930  0.0687
  862MOL0     H16331   2.072   4.736   4.878  1.7757 -2.3208  0.2490
  862MOL0     H16332   2.113   4.893   4.844 -0.5931 -0.6434 -0.0349
  862MOL0     H16333   2.213   4.773   4.758 -0.9304  1.0625 -0.9260
  862MOL0     H16334   2.253   5.272   4.848 -1.6668 -0.7811 -0.1625
  862MOL0     H16335   2.280   5.459   4.701 -1.3995  0.1037 -2.1509
  862MOL0     H16336   2.231   5.578   4.502 -0.6069  0.0132 -1.3513
  862MOL0     H16337   2.374   5.625   4.595 -0.2662 -0.5068 -0.6152
  862MOL0     H16338   2.343   5.801   4.419 -2.2380 -1.6813 -0.8579
  862MOL0     H16339   2.489   5.693   4.399  1.0513 -4.5725 -0.2280
  862MOL0     H16340   2.234   5.624   4.259 -0.1758 -0.0175 -0.5430
  862MOL0     H16341   2.417   5.607   4.216  1.2256  1.8688  0.8220
  862MOL0     H16342   2.257   5.872   4.216  2.1991  0.9714  1.6563
  862MOL0     H16343   2.430   5.845   4.196 -0.2741  0.6934 -0.2610
  862MOL0     H16344   2.375   5.715   3.980 -4.6507 -2.6808 -0.8076
  862MOL0     H16345   2.333   5.893   3.989  0.3916  1.0546  0.8506
  862MOL0     H16346   2.110   5.692   4.059 -1.9732  1.0261 -1.3447
  862MOL0     H16347   2.108   5.851   3.994  1.2450  0.7700 -0.7687
  862MOL0     H16348   2.201   5.598   3.844 -0.6592  0.8081 -1.7587
  862MOL0     H16349   2.198   5.764   3.776 -0.4373 -0.8424 -1.3969
  862MOL0     H16350   1.938   5.761   3.795 -2.0476 -0.3619 -0.5620
  862MOL0     H16351   1.956   5.604   3.867 -0.7021  0.3484 -1.2622
  862MOL0     H16352   2.466   5.215   4.403 -0.2091  0.2313  1.1072
  862MOL0     H16353   2.421   5.020   4.528 -0.7607 -0.2211  0.5526
  862MOL0     H16354   2.454   4.983   5.158 -0.6369  0.6701 -2.3691
  862MOL0     H16355   2.394   4.835   5.316  4.9589  1.6410 -2.1411
  862MOL0     H16356   0.951   3.863   6.247  2.8066  3.2904 -2.8958
  862MOL0     H16357   0.923   3.768   6.499 -1.1978  2.3526  2.4851
  862MOL0     H16358   0.745   3.812   6.961 -1.5450  1.8663  3.2835
  862MOL0     H16359   0.771   3.759   7.221  0.0633 -1.9882 -1.0215
  862MOL0     H16360   1.067   3.836   7.531  3.3695 -0.5906  0.2612
  862MOL0     H16361   1.177   3.808   7.396  1.0967  0.3320  2.4478
  862MOL0     H16362   0.975   4.039   7.399 -1.6191 -1.0979 -4.0546
  862MOL0     H16363   1.108   4.008   7.284  0.4421 -1.5486  0.3504
  862MOL0     H16364   1.275   4.048   7.451 -0.2901 -1.4158  3.4506
  862MOL0     H16365   1.155   4.069   7.573  1.2001 -1.8843  1.1841
  862MOL0     H16366   1.057   4.262   7.438 -0.6276 -0.8414  0.6958
  862MOL0     H16367   1.176   4.227   7.309  1.0293 -1.8059 -0.4244
  862MOL0     H16368   1.429   4.416   7.599 -0.4708  1.3662 -0.4231
  862MOL0     H16369   1.187   3.777   7.187 -1.1925 -4.2973  0.4129
  862MOL0     H16370   1.172   3.821   6.933 -1.5944  1.8706 -1.8645
  863MOL0     O16371   2.869   9.001   5.461 -0.7167  0.4532  0.0347
  863MOL0     C16372   2.966   8.923   5.479 -0.5232  0.1132 -0.3056
  863MOL0     O16373   3.074   8.952   5.556  0.7085  0.0083  0.4597
  863MOL0     C16374   3.111   9.084   5.569  0.0469 -0.8665  0.2565
  863MOL0     C16375   3.151   9.127   5.696  0.1636  0.6416  1.2264
  863MOL0     C16376   3.217   9.246   5.712  0.5954  0.1090 -1.1087
  863MOL0     C16377   3.221   9.346   5.610  0.4724  0.4154  0.8352
  863MOL0     O16378   3.268   9.473   5.618 -0.1615  0.5881  0.1476
  863MOL0     C16379   3.316   9.511   5.746  0.3506 -0.5035  0.8092
  863MOL0     C16380   3.461   9.467   5.774 -0.7457  0.5162 -0.1585
  863MOL0     C16381   3.551   9.499   5.649  0.9653  1.0352  0.2443
  863MOL0     C16382   3.695   9.531   5.687 -0.3464 -0.8859  0.0674
  863MOL0     C16383   3.784   9.604   5.572 -0.6147  0.6660 -0.4256
  863MOL0     C16384   3.766   9.523   5.440  0.1066 -0.1347 -0.1527
  863MOL0     C16385   3.862   9.542   5.328 -0.5262  0.2775 -0.5199
  863MOL0     C16386   3.862   9.673   5.248  0.3871  0.1576 -0.3787
  863MOL0     N16387   3.973   9.686   5.154 -0.2269  0.6600 -0.0355
  863MOL0     C16388   4.080   9.598   5.156  1.1445 -0.3490 -0.6250
  863MOL0     C16389   4.156   9.636   5.058  0.4868 -0.0836  0.4904
  863MOL0     C16390   4.288   9.585   5.018  0.2030  0.6865 -1.0263
  863MOL0     C16391   4.274   9.456   4.937 -0.3251  0.0241 -0.0448
  863MOL0     C16392   4.391   9.361   4.969 -0.0011  0.0274 -0.3802
  863MOL0     C16393   4.362   9.228   4.892 -0.3531 -0.6259 -0.6165
  863MOL0     O16394   4.475   9.140   4.902 -0.2736  0.5219 -0.2591
  863MOL0     C16395   4.464   9.015   4.842 -0.4504  0.2994 -0.5169
  863MOL0     C16396   4.356   8.976   4.766 -0.2057  0.0477  0.4389
  863MOL0     C16397   4.350   8.853   4.701 -0.4699 -0.1798 -0.5490
  863MOL0     C16398   4.222   8.810   4.624 -0.1031 -0.0766  0.0306
  863MOL0     C16399   4.469   8.771   4.711  0.3340  0.3635  0.8649
  863MOL0     C16400   4.473   8.632   4.662 -0.0632 -0.6772 -0.2996
  863MOL0     O16401   4.578   8.588   4.592 -0.4760  0.2095 -0.7021
  863MOL0     C16402   4.562   8.467   4.528 -0.5368  0.7939 -0.9494
  863MOL0     C16403   4.557   8.350   4.605 -0.4244  0.1851 -0.3021
  863MOL0     C16404   4.532   8.228   4.547  0.1679  0.4729 -0.4630
  863MOL0     C16405   4.536   8.214   4.404  1.1166  0.1324 -0.3231
  863MOL0     O16406   4.515   8.088   4.358 -0.3494 -0.1439  1.0865
  863MOL0     C16407   4.571   8.045   4.234 -0.2880  0.4582  0.5569
  863MOL0     C16408   4.553   7.891   4.213 -0.0786 -0.1771  0.0977
  863MOL0     C16409   4.567   7.846   4.059 -0.3439  0.4356 -0.7527
  863MOL0     C16410   4.713   7.790   4.034  0.7641  0.6822 -0.1925
  863MOL0     C16411   4.743   7.700   3.921 -0.2091  0.4050  0.4503
  863MOL0     C16412   4.675   7.562   3.928 -0.3699  0.2344 -0.7010
  863MOL0     C16413   4.722   7.467   4.037  0.2316 -0.7688  0.0847
  863MOL0     C16414   4.636   7.339   4.042  0.7457  0.4871  0.6956
  863MOL0    Cl16415   4.734   7.241   4.157 -0.1953  0.2000  0.1040
  863MOL0     C16416   4.555   8.325   4.324 -0.2064 -0.1263  0.2459
  863MOL0     C16417   4.559   8.458   4.382 -0.3109 -0.5084  0.7350
  863MOL0     O16418   4.372   8.568   4.689 -0.3245 -0.4133 -0.0231
  863MOL0     C16419   4.580   8.817   4.777 -0.4282  0.9101 -1.0382
  863MOL0     C16420   4.576   8.931   4.849  0.9650 -0.8788  0.6782
  863MOL0     N16421   4.090   9.726   4.984 -0.5682 -0.0867  0.1583
  863MOL0     N16422   3.980   9.755   5.043  0.0934 -0.0320 -0.7480
  863MOL0     C16423   3.175   9.307   5.483  0.6486 -0.4739 -0.0564
  863MOL0     C16424   3.111   9.179   5.466 -0.1662 -0.1275  0.3360
  863MOL0     C16425   2.943   8.787   5.440 -0.3984  0.0325 -0.4744
  863MOL0     C16426   3.017   8.676   5.496  0.5621 -0.2240 -0.0160
  863MOL0     C16427   2.981   8.550   5.456  0.7140  0.7914 -0.7879
  863MOL0     C16428   2.892   8.521   5.356  0.1305 -0.8311  0.6456
  863MOL0     O16429   2.882   8.391   5.328  0.1446  0.1168  0.2636
  863MOL0     C16430   2.804   8.351   5.208  0.4123 -0.2705  0.3636
  863MOL0     C16431   2.879   8.396   5.083  0.4496  0.1688  0.0220
  863MOL0     C16432   3.018   8.325   5.071  0.1186 -0.2526  0.1356
  863MOL0     C16433   3.071   8.328   4.925 -0.1804  0.4727 -0.1479
  863MOL0     C16434   3.016   8.228   4.833 -0.8838 -0.6453 -0.5007
  863MOL0     C16435   2.971   8.135   4.762 -0.2912  0.4464 -0.4441
  863MOL0     C16436   2.834   8.632   5.296  0.5656  0.8723  0.9657
  863MOL0     C16437   2.856   8.760   5.335 -0.7194 -1.0578 -0.6557
  863MOL0     H16438   3.149   9.048   5.771  2.3335 -1.2087 -0.4923
  863MOL0     H16439   3.260   9.256   5.811 -1.5072 -1.1381  0.0117
  863MOL0     H16440   3.334   9.618   5.737  2.5473 -0.9835 -1.8563
  863MOL0     H16441   3.245   9.480   5.823 -2.2253  4.2241  0.7029
  863MOL0     H16442   3.495   9.528   5.858 -2.0548 -0.7161  1.3343
  863MOL0     H16443   3.461   9.359   5.796  0.2835  0.9722  2.3190
  863MOL0     H16444   3.545   9.410   5.586  0.4010  0.4957  1.0295
  863MOL0     H16445   3.507   9.587   5.601  1.7551  1.0839 -0.4132
  863MOL0     H16446   3.690   9.594   5.776  0.8197 -3.2497  1.9264
  863MOL0     H16447   3.737   9.431   5.702 -3.7368 -2.7521 -1.6276
  863MOL0     H16448   3.758   9.709   5.556 -0.0068  1.4394  3.0231
  863MOL0     H16449   3.889   9.614   5.600 -0.2620 -0.6197 -1.1914
  863MOL0     H16450   3.763   9.416   5.464 -5.0605  0.0283  1.1653
  863MOL0     H16451   3.660   9.535   5.416 -0.3891 -2.0547  0.8212
  863MOL0     H16452   3.963   9.528   5.367 -1.0424 -1.2590  0.3354
  863MOL0     H16453   3.853   9.457   5.259  0.3860  0.5836 -1.0303
  863MOL0     H16454   3.848   9.764   5.308  0.7110  2.2381 -3.2231
  863MOL0     H16455   3.771   9.669   5.186  0.7935 -0.0670 -0.9672
  863MOL0     H16456   4.090   9.505   5.211  0.8197  1.2035  2.2219
  863MOL0     H16457   4.340   9.670   4.973 -0.1427  0.6392 -1.5204
  863MOL0     H16458   4.342   9.565   5.111 -2.8399 -1.9523  0.3780
  863MOL0     H16459   4.284   9.481   4.831 -1.9757  1.2157  0.0572
  863MOL0     H16460   4.182   9.410   4.973 -0.6903 -1.1060 -2.3038
  863MOL0     H16461   4.403   9.349   5.077 -2.2813  1.2608  0.0756
  863MOL0     H16462   4.484   9.412   4.943 -1.0091  2.2709  0.1840
  863MOL0     H16463   4.359   9.239   4.783 -0.0167 -2.7648 -0.8932
  863MOL0     H16464   4.261   9.198   4.922 -0.8417 -0.0656 -1.6556
  863MOL0     H16465   4.267   9.038   4.762  1.0192  1.8555 -0.3290
  863MOL0     H16466   4.164   8.898   4.594 -0.9040 -0.3385  0.7795
  863MOL0     H16467   4.244   8.746   4.538 -1.0164  0.3788 -0.5534
  863MOL0     H16468   4.159   8.756   4.694  0.3195  1.7347  1.9066
  863MOL0     H16469   4.572   8.373   4.710  4.0905  4.3786 -1.5282
  863MOL0     H16470   4.531   8.135   4.603  3.3714  0.6283  0.0109
  863MOL0     H16471   4.517   8.090   4.150  0.0156  1.2942  0.7911
  863MOL0     H16472   4.678   8.065   4.250 -0.3281 -1.2868  4.0651
  863MOL0     H16473   4.625   7.837   4.276  0.8090  3.4321  2.5100
  863MOL0     H16474   4.460   7.849   4.251 -1.5641  1.9065 -1.0514
  863MOL0     H16475   4.537   7.933   4.000 -0.4787  1.3103  0.5524
  863MOL0     H16476   4.502   7.760   4.039 -0.9977 -0.2835  3.4591
  863MOL0     H16477   4.781   7.875   4.040  0.6253  0.7446  0.5758
  863MOL0     H16478   4.749   7.731   4.119  4.0718  1.5256 -0.8721
  863MOL0     H16479   4.849   7.678   3.913 -0.5345 -2.1049  1.9346
  863MOL0     H16480   4.719   7.755   3.830  2.8590  1.0020 -0.1098
  863MOL0     H16481   4.570   7.591   3.943  0.2831  1.6572  1.6805
  863MOL0     H16482   4.690   7.502   3.838  3.9029 -1.3353  0.8038
  863MOL0     H16483   4.726   7.522   4.131  2.6456 -0.8147  0.0542
  863MOL0     H16484   4.824   7.431   4.022 -0.9366 -4.6090  0.3816
  863MOL0     H16485   4.628   7.297   3.941  0.6897 -0.0642  0.9292
  863MOL0     H16486   4.541   7.352   4.094  2.5436  0.9674  4.1418
  863MOL0     H16487   4.560   8.313   4.216  1.0658  1.3059  0.1007
  863MOL0     H16488   4.563   8.537   4.308  5.4064  0.0730  1.1734
  863MOL0     H16489   4.667   8.753   4.786 -1.4612 -0.6421 -1.6532
  863MOL0     H16490   4.671   8.960   4.892  1.7729 -1.5823 -0.5799
  863MOL0     H16491   3.176   9.377   5.400  0.2965  1.0524  1.1811
  863MOL0     H16492   3.098   9.144   5.364  3.2920 -1.4907  0.1967
  863MOL0     H16493   3.081   8.703   5.579 -0.7920  2.6129  0.2469
  863MOL0     H16494   3.027   8.466   5.507 -0.0334  0.7513 -0.1749
  863MOL0     H16495   2.797   8.242   5.207  0.2080 -0.2702 -1.1544
  863MOL0     H16496   2.702   8.392   5.212  0.2077 -0.7971  0.5648
  863MOL0     H16497   2.900   8.502   5.068  0.7940  0.2512  1.0281
  863MOL0     H16498   2.817   8.360   5.000  1.1466 -1.3037  0.1118
  863MOL0     H16499   3.011   8.222   5.107  3.5215 -1.0344 -1.1376
  863MOL0     H16500   3.082   8.379   5.141 -1.2410  0.0706  1.1778
  863MOL0     H16501   3.179   8.310   4.923 -0.2435  0.1364 -0.8432
  863MOL0     H16502   3.072   8.428   4.881  1.6848  1.2486  1.4729
  863MOL0     H16503   2.939   8.053   4.700 -1.2904  0.1663  0.4290
  863MOL0     H16504   2.764   8.620   5.214  3.6083  2.4738 -2.1135
  863MOL0     H16505   2.813   8.835   5.270  1.6535 -2.2270 -3.8775
  864MOL0     O16506   4.688   1.391   4.296  0.5530  0.9652 -0.1650
  864MOL0     C16507   4.807   1.393   4.313 -0.8070 -0.0254 -1.0432
  864MOL0     O16508   4.868   1.399   4.443  0.1611  0.7111 -0.7299
  864MOL0     C16509   4.785   1.379   4.546 -0.6368  0.3666 -0.3283
  864MOL0     C16510   4.777   1.478   4.639  0.0943  0.5567  0.0317
  864MOL0     C16511   4.697   1.456   4.753 -0.1001  0.0977  0.4356
  864MOL0     C16512   4.608   1.340   4.763  0.3376 -0.7395 -0.9309
  864MOL0     O16513   4.516   1.329   4.870 -0.4639 -0.3553 -0.2385
  864MOL0     C16514   4.511   1.418   4.983  0.5428 -0.1648 -0.1799
  864MOL0     C16515   4.414   1.350   5.081  0.5552 -0.3565  0.1406
  864MOL0     C16516   4.413   1.436   5.216 -0.3399  0.5426 -0.3251
  864MOL0     C16517   4.320   1.363   5.321 -0.0785 -0.5067 -0.1188
  864MOL0     C16518   4.290   1.451   5.445 -0.3054  1.4288  0.3970
  864MOL0     C16519   4.179   1.373   5.526 -0.2379  0.3552  0.0182
  864MOL0     C16520   4.153   1.460   5.653  0.3004  0.4008  0.6507
  864MOL0     C16521   4.050   1.381   5.735  0.2868 -0.3821  0.0964
  864MOL0     N16522   4.009   1.467   5.844 -0.9676 -0.5287 -0.1172
  864MOL0     C16523   4.051   1.462   5.974 -0.4008  0.6893 -0.0529
  864MOL0     C16524   3.982   1.565   6.027 -0.4363 -0.9982  0.0399
  864MOL0     C16525   3.962   1.613   6.170 -1.2551 -0.1862 -0.3036
  864MOL0     C16526   4.098   1.675   6.211  0.7286  0.0523 -0.7728
  864MOL0     C16527   4.214   1.580   6.214  0.1785  0.4632 -0.2542
  864MOL0     C16528   4.326   1.638   6.298 -0.4191 -0.1250 -1.3881
  864MOL0     O16529   4.357   1.768   6.247  0.2356  0.3301 -0.1228
  864MOL0     C16530   4.490   1.819   6.251  0.2760 -0.5264  0.1899
  864MOL0     C16531   4.529   1.903   6.144  0.2310  0.2282  0.1647
  864MOL0     C16532   4.660   1.955   6.142 -0.2325  0.6421 -0.2607
  864MOL0     C16533   4.691   2.058   6.030 -0.0202 -0.6474 -0.7534
  864MOL0     C16534   4.754   1.922   6.250  0.3172 -0.4581  0.5723
  864MOL0     C16535   4.903   1.954   6.250 -0.1778 -0.0617 -0.5667
  864MOL0     O16536   4.974   1.893   6.355 -0.8192 -0.0604 -0.4070
  864MOL0     C16537   5.110   1.910   6.359 -0.1846 -0.4139 -0.3469
  864MOL0     C16538   5.159   1.922   6.486 -0.3730  0.8223 -0.8080
  864MOL0     C16539   5.294   1.948   6.514  0.4778  0.6023  0.0226
  864MOL0     C16540   5.384   1.954   6.411 -0.3992 -0.2339 -0.3243
  864MOL0     O16541   5.520   1.980   6.442  0.2965  0.1571 -0.1444
  864MOL0     C16542   5.543   2.104   6.509  0.1523 -0.0014  0.2031
  864MOL0     C16543   5.693   2.133   6.490 -0.3711  0.6749  0.0372
  864MOL0     C16544   5.739   2.188   6.359  0.3199  0.0292 -0.6391
  864MOL0     C16545   5.669   2.321   6.320  0.0035  0.2935 -0.3068
  864MOL0     C16546   5.706   2.353   6.177 -0.8165 -0.5059 -0.4331
  864MOL0     C16547   5.669   2.240   6.072  1.2452 -0.3641  0.3660
  864MOL0     C16548   5.511   2.231   6.053  0.5916 -0.0662 -0.0253
  864MOL0     C16549   5.464   2.149   5.921 -0.8580 -0.7411  0.4144
  864MOL0    Cl16550   5.507   2.240   5.773  0.4767 -0.3485 -0.0348
  864MOL0     C16551   5.342   1.919   6.280 -0.3750 -0.3867 -0.3740
  864MOL0     C16552   5.201   1.920   6.255 -0.4115 -0.1730  0.9591
  864MOL0     O16553   4.954   2.013   6.157  0.3050  0.1115  0.0711
  864MOL0     C16554   4.701   1.843   6.356 -0.5678 -0.2200  1.1292
  864MOL0     C16555   4.571   1.798   6.356 -1.4495 -0.1561  0.5290
  864MOL0     N16556   3.911   1.628   5.925 -0.1270  0.7741 -0.5116
  864MOL0     N16557   3.934   1.574   5.816 -0.7617 -0.4531 -0.0741
  864MOL0     C16558   4.606   1.253   4.658  0.1074  0.5398 -0.1388
  864MOL0     C16559   4.703   1.263   4.553  1.3204 -0.4552  0.5607
  864MOL0     C16560   4.887   1.413   4.192 -0.0024  0.8090 -0.0386
  864MOL0     C16561   4.837   1.375   4.070 -1.0156  0.1310  0.7150
  864MOL0     C16562   4.921   1.367   3.953  1.1303  0.5203 -0.5529
  864MOL0     C16563   5.054   1.401   3.957 -0.0044 -1.0739  0.3058
  864MOL0     O16564   5.156   1.385   3.866  0.6997 -0.5196 -0.7814
  864MOL0     C16565   5.118   1.378   3.727  0.1242  0.1051  0.0671
  864MOL0     C16566   5.035   1.501   3.676 -0.5525 -0.1669 -0.2213
  864MOL0     C16567   5.112   1.626   3.631 -0.9128 -0.1104  0.0059
  864MOL0     C16568   5.205   1.679   3.745  0.2194 -0.5072 -0.4478
  864MOL0     C16569   5.276   1.792   3.690  0.1867 -0.7450 -0.5496
  864MOL0     C16570   5.329   1.895   3.648  0.8675 -0.4565  0.0024
  864MOL0     C16571   5.101   1.438   4.086  0.8002  0.2368 -0.2419
  864MOL0     C16572   5.019   1.443   4.196  0.1072 -0.2384 -0.3239
  864MOL0     H16573   4.847   1.560   4.629  0.4887  0.4202  1.4403
  864MOL0     H16574   4.693   1.537   4.824  0.0377 -0.7187  1.3953
  864MOL0     H16575   4.617   1.427   5.011  0.2333  2.1497  0.4217
  864MOL0     H16576   4.461   1.509   4.948 -3.9464 -2.8248 -1.5009
  864MOL0     H16577   4.308   1.354   5.051  0.2184 -1.3711  1.1122
  864MOL0     H16578   4.440   1.245   5.097  0.2922 -1.2216 -4.0560
  864MOL0     H16579   4.510   1.440   5.267 -0.1672 -0.6784 -0.5259
  864MOL0     H16580   4.377   1.536   5.191 -1.0579  0.1796 -0.7967
  864MOL0     H16581   4.230   1.347   5.262 -0.1590 -2.0444  0.3893
  864MOL0     H16582   4.372   1.272   5.351  0.1186 -0.7572 -1.2000
  864MOL0     H16583   4.382   1.471   5.500  0.4454 -1.8777  0.5832
  864MOL0     H16584   4.271   1.550   5.403  1.2058  0.5854 -2.6118
  864MOL0     H16585   4.095   1.379   5.456 -1.2609 -1.4326  1.0179
  864MOL0     H16586   4.194   1.266   5.543 -0.0526  0.2359 -0.8499
  864MOL0     H16587   4.244   1.483   5.708 -0.7698  2.0093  1.8166
  864MOL0     H16588   4.106   1.550   5.611 -3.7376 -2.3084 -1.3361
  864MOL0     H16589   4.094   1.290   5.779 -0.0085 -0.7895 -0.4397
  864MOL0     H16590   3.967   1.363   5.667 -0.7019 -1.8214  1.5835
  864MOL0     H16591   4.112   1.390   6.029 -0.8216 -0.6625 -1.2777
  864MOL0     H16592   3.887   1.692   6.181 -0.9897 -0.0603  0.6854
  864MOL0     H16593   3.923   1.534   6.235 -1.1028  2.3775  3.1710
  864MOL0     H16594   4.094   1.728   6.306  3.2839 -0.7840 -0.1037
  864MOL0     H16595   4.104   1.748   6.130 -0.6798 -0.8184 -1.7140
  864MOL0     H16596   4.270   1.560   6.122  1.4812  0.7873  0.4469
  864MOL0     H16597   4.191   1.485   6.263  0.6116  0.3339 -0.2880
  864MOL0     H16598   4.408   1.567   6.292 -0.8603 -0.6524 -1.2057
  864MOL0     H16599   4.288   1.639   6.401  0.3221 -0.1991 -1.1076
  864MOL0     H16600   4.449   1.945   6.084  0.5337  2.5793  1.2896
  864MOL0     H16601   4.776   2.032   5.967 -0.6002 -0.8946 -1.4437
  864MOL0     H16602   4.598   2.048   5.974 -0.8689 -3.9770  0.9228
  864MOL0     H16603   4.691   2.151   6.088 -0.2919 -2.6238  2.7203
  864MOL0     H16604   5.085   1.925   6.565  0.9191 -0.6162  0.5382
  864MOL0     H16605   5.307   1.968   6.619 -2.4965 -2.1815  1.0905
  864MOL0     H16606   5.484   2.193   6.485  0.2084 -0.1445 -0.4987
  864MOL0     H16607   5.524   2.087   6.615 -1.3168  2.6164  0.4543
  864MOL0     H16608   5.723   2.210   6.561  1.5413  0.5720 -0.6162
  864MOL0     H16609   5.756   2.047   6.513 -0.1744  0.8258  0.0606
  864MOL0     H16610   5.693   2.115   6.291 -1.9016  1.4881 -0.7969
  864MOL0     H16611   5.848   2.176   6.359  0.2835 -1.9556  3.3243
  864MOL0     H16612   5.560   2.316   6.325 -0.0626 -0.7303 -1.9948
  864MOL0     H16613   5.712   2.402   6.381  1.0968  0.8228 -1.7079
  864MOL0     H16614   5.815   2.351   6.174 -0.8058 -0.6331 -0.0524
  864MOL0     H16615   5.668   2.449   6.143  0.4568  0.7972  1.5902
  864MOL0     H16616   5.695   2.268   5.969 -0.8843  0.4874  0.0038
  864MOL0     H16617   5.722   2.149   6.099  0.1794 -1.7336 -1.8424
  864MOL0     H16618   5.469   2.330   6.036 -0.3082 -0.1916  1.3141
  864MOL0     H16619   5.458   2.184   6.136  0.9183 -1.5065 -0.6039
  864MOL0     H16620   5.355   2.147   5.931 -0.6724  0.0756  3.7815
  864MOL0     H16621   5.500   2.046   5.911  0.5417 -0.3028  0.6582
  864MOL0     H16622   5.415   1.926   6.200  1.0119 -0.2732  0.8481
  864MOL0     H16623   5.165   1.908   6.154  1.2783 -1.3744  0.4576
  864MOL0     H16624   4.773   1.808   6.429  2.7854  0.0527 -1.7654
  864MOL0     H16625   4.560   1.726   6.436 -1.0959 -1.2335 -0.3673
  864MOL0     H16626   4.536   1.170   4.656  1.8213 -1.0795  1.8419
  864MOL0     H16627   4.685   1.188   4.477  0.2925  0.9447 -0.6579
  864MOL0     H16628   4.732   1.347   4.058 -0.8637 -1.5446  2.7278
  864MOL0     H16629   4.884   1.318   3.864 -0.1834  1.2632 -0.4334
  864MOL0     H16630   5.208   1.362   3.667  0.0382  0.5181 -0.1762
  864MOL0     H16631   5.062   1.288   3.702  0.8524 -0.8749  1.8383
  864MOL0     H16632   4.963   1.531   3.753 -1.8236 -2.1103 -0.5981
  864MOL0     H16633   4.969   1.464   3.598 -5.2274 -0.4927  3.4354
  864MOL0     H16634   5.036   1.696   3.596 -1.8823 -2.1162 -2.1321
  864MOL0     H16635   5.157   1.606   3.534 -0.8296 -0.1191  0.0459
  864MOL0     H16636   5.283   1.607   3.771  0.1700 -0.8512 -1.2490
  864MOL0     H16637   5.150   1.718   3.832  1.3232  0.1140 -0.0040
  864MOL0     H16638   5.366   1.986   3.606 -3.9279  1.7853 -0.0102
  864MOL0     H16639   5.206   1.465   4.090  1.0008 -0.5623  0.0191
  864MOL0     H16640   5.057   1.474   4.293 -2.5706  0.3470  0.6364
  865MOL0     O16641  10.249   7.161   8.027  1.0448 -1.0753 -0.7377
  865MOL0     C16642  10.373   7.151   8.031 -0.0158 -0.3554 -0.0571
  865MOL0     O16643  10.443   7.050   7.982  0.2110 -0.2489  0.3640
  865MOL0     C16644  10.390   6.960   7.895  0.0017  1.1254 -0.5430
  865MOL0     C16645  10.319   6.992   7.779 -0.0145 -0.7130  0.3078
  865MOL0     C16646  10.262   6.893   7.698 -0.3858  0.1914  0.3309
  865MOL0     C16647  10.276   6.757   7.728 -0.6658 -0.4626  0.2575
  865MOL0     O16648  10.185   6.673   7.663 -0.2046 -0.5216  0.5097
  865MOL0     C16649  10.136   6.560   7.727 -0.3310 -0.1592 -0.3514
  865MOL0     C16650  10.033   6.503   7.626 -0.2351  0.0359 -0.5622
  865MOL0     C16651   9.954   6.407   7.697  0.5906 -0.5572 -0.3766
  865MOL0     C16652   9.883   6.313   7.596  0.8290  0.5324  0.9513
  865MOL0     C16653   9.805   6.196   7.663  0.0730  0.2900  0.4789
  865MOL0     C16654   9.728   6.124   7.548  0.0791 -0.2290 -0.7785
  865MOL0     C16655   9.647   6.004   7.592 -0.0036 -0.4134  0.6557
  865MOL0     C16656   9.559   5.954   7.479 -0.5473 -0.6635 -0.1927
  865MOL0     N16657   9.457   6.055   7.430 -0.0082  0.4905  0.4764
  865MOL0     C16658   9.343   6.077   7.497 -0.4692 -0.5553 -0.6616
  865MOL0     C16659   9.287   6.183   7.436  0.2324  0.2501 -0.2482
  865MOL0     C16660   9.162   6.262   7.464  0.0937  0.1775 -0.6040
  865MOL0     C16661   9.092   6.329   7.344 -0.2499  0.4745  0.1267
  865MOL0     C16662   8.951   6.368   7.374 -0.0305 -0.9840  0.0536
  865MOL0     C16663   8.893   6.472   7.269 -0.3796  0.5578  0.6856
  865MOL0     O16664   8.755   6.495   7.286  0.9280  0.2369  0.1588
  865MOL0     C16665   8.706   6.609   7.236 -0.3015 -0.4428  0.2733
  865MOL0     C16666   8.752   6.652   7.117  0.3031 -0.3042  0.2348
  865MOL0     C16667   8.725   6.788   7.066  0.7437  0.5948 -0.0722
  865MOL0     C16668   8.763   6.829   6.934 -0.3506 -0.4417  0.6821
  865MOL0     C16669   8.638   6.876   7.136  0.5626  0.1138 -0.2262
  865MOL0     C16670   8.583   6.992   7.070 -0.0664 -0.6304 -0.3714
  865MOL0     O16671   8.661   7.100   7.049  0.6779 -1.4088 -0.5550
  865MOL0     C16672   8.612   7.205   6.978  0.5089 -0.1139 -0.3029
  865MOL0     C16673   8.688   7.247   6.862  0.3280  0.3009  0.8375
  865MOL0     C16674   8.649   7.357   6.778  1.4336  0.0444  0.5056
  865MOL0     C16675   8.547   7.442   6.828  0.9136 -1.4885  0.2608
  865MOL0     O16676   8.491   7.543   6.744  0.3678  0.1084 -0.3800
  865MOL0     C16677   8.585   7.610   6.658  0.0427 -0.1950  0.2794
  865MOL0     C16678   8.513   7.732   6.601 -0.0573  0.4547  0.4966
  865MOL0     C16679   8.437   7.834   6.696  0.5840  0.2811  0.6831
  865MOL0     C16680   8.338   7.921   6.621  0.1907 -0.2802  0.2895
  865MOL0     C16681   8.250   7.997   6.724  0.4671 -0.3871  0.0142
  865MOL0     C16682   8.326   8.120   6.801  0.6315  0.4813 -0.5081
  865MOL0     C16683   8.236   8.242   6.842 -0.0809  0.2054 -0.0549
  865MOL0     C16684   8.197   8.334   6.727 -0.1890  0.5188  0.8804
  865MOL0    Cl16685   8.329   8.428   6.649 -0.0632  0.0686  0.3010
  865MOL0     C16686   8.485   7.415   6.949  0.8476 -0.1603  0.5140
  865MOL0     C16687   8.520   7.306   7.026  0.2426  0.5769  0.1750
  865MOL0     O16688   8.468   6.983   7.047 -0.2957  0.2464  0.8334
  865MOL0     C16689   8.585   6.824   7.256  0.2359  0.6748 -0.0474
  865MOL0     C16690   8.628   6.694   7.302  0.0328  0.4862 -0.3534
  865MOL0     N16691   9.360   6.203   7.323  0.9915 -0.0071 -0.1618
  865MOL0     N16692   9.462   6.128   7.319  0.9618 -0.0952 -0.4191
  865MOL0     C16693  10.352   6.721   7.840 -0.5089 -0.8872  0.3618
  865MOL0     C16694  10.409   6.819   7.930 -0.6790 -0.0042  0.2282
  865MOL0     C16695  10.440   7.236   8.130 -0.1581 -0.1096 -0.6273
  865MOL0     C16696  10.573   7.215   8.172 -0.3835 -0.3160  0.0140
  865MOL0     C16697  10.633   7.308   8.257 -0.1565 -0.8360  0.4190
  865MOL0     C16698  10.559   7.407   8.320 -0.0701 -0.0796 -0.5594
  865MOL0     O16699  10.633   7.487   8.391  0.0376 -0.8497  0.2031
  865MOL0     C16700  10.592   7.625   8.394  0.2140 -1.0727 -0.0354
  865MOL0     C16701  10.680   7.697   8.500  0.7716  0.4754 -0.6486
  865MOL0     C16702  10.832   7.691   8.472  1.1645  0.3775 -0.3287
  865MOL0     C16703  10.876   7.826   8.405 -0.6890  1.1440  0.1080
  865MOL0     C16704  11.012   7.858   8.449  0.0020 -0.3503 -0.2298
  865MOL0     C16705  11.122   7.882   8.487 -0.2758 -0.2503 -0.8627
  865MOL0     C16706  10.421   7.418   8.297  0.9264  0.1641  0.2287
  865MOL0     C16707  10.363   7.341   8.191 -0.4043  0.6626 -0.9638
  865MOL0     H16708  10.310   7.096   7.749  0.6207 -0.6292  0.3860
  865MOL0     H16709  10.196   6.924   7.618 -2.0586  3.0455  2.5978
  865MOL0     H16710  10.220   6.491   7.742 -0.1993  0.1770  0.5655
  865MOL0     H16711  10.097   6.586   7.826 -1.4984  1.1213 -1.1085
  865MOL0     H16712   9.967   6.574   7.577 -1.5202 -1.3542 -0.9071
  865MOL0     H16713  10.096   6.456   7.550 -0.6899  2.8136 -2.8223
  865MOL0     H16714  10.016   6.340   7.756  1.5108 -0.4613 -1.1954
  865MOL0     H16715   9.879   6.451   7.763 -0.1649  1.2185 -2.2931
  865MOL0     H16716   9.814   6.378   7.542 -1.5134 -0.4673  2.5759
  865MOL0     H16717   9.947   6.266   7.521 -0.2480  0.0307  0.3351
  865MOL0     H16718   9.869   6.121   7.710 -2.2936 -3.3115 -1.5224
  865MOL0     H16719   9.737   6.228   7.741  0.2016  0.4414  0.5285
  865MOL0     H16720   9.667   6.200   7.498 -1.8624  0.6631  2.6517
  865MOL0     H16721   9.796   6.086   7.471  3.1605  1.4926  0.8818
  865MOL0     H16722   9.719   5.928   7.620 -0.7618 -0.8526  1.4609
  865MOL0     H16723   9.589   6.035   7.680  0.9820  3.0665  0.2580
  865MOL0     H16724   9.510   5.863   7.514  0.9461 -0.6707  2.0644
  865MOL0     H16725   9.617   5.923   7.391 -1.1783  0.7353 -1.1294
  865MOL0     H16726   9.316   6.024   7.588 -1.8000 -0.7758 -1.1538
  865MOL0     H16727   9.095   6.186   7.504 -1.6577  1.2322 -1.4527
  865MOL0     H16728   9.194   6.338   7.536  0.7757 -0.7906  0.1424
  865MOL0     H16729   9.079   6.267   7.255 -1.1511  1.3794 -0.3989
  865MOL0     H16730   9.146   6.420   7.316 -1.5580  1.8743  1.8742
  865MOL0     H16731   8.935   6.419   7.470  3.8071 -0.5839  0.6520
  865MOL0     H16732   8.889   6.279   7.383 -1.5355  0.0542  0.2527
  865MOL0     H16733   8.925   6.442   7.169 -0.4078  3.7135 -0.3877
  865MOL0     H16734   8.934   6.573   7.277 -1.8450  1.3697 -1.2069
  865MOL0     H16735   8.826   6.603   7.055  2.2729  3.1260 -0.3701
  865MOL0     H16736   8.678   6.828   6.866  2.3091 -1.4339 -2.9727
  865MOL0     H16737   8.806   6.930   6.927 -1.3759 -0.0250  0.2550
  865MOL0     H16738   8.834   6.756   6.893 -1.8097 -0.8249 -1.3134
  865MOL0     H16739   8.772   7.192   6.821 -1.7974 -1.6943 -1.1600
  865MOL0     H16740   8.710   7.368   6.689 -0.1167  1.5750 -0.4297
  865MOL0     H16741   8.676   7.652   6.702  0.9261 -1.3553 -0.3624
  865MOL0     H16742   8.620   7.553   6.571 -1.6478  1.2249 -1.4371
  865MOL0     H16743   8.578   7.796   6.539  2.1955 -2.1681 -0.0594
  865MOL0     H16744   8.443   7.698   6.524  1.2122 -0.5242 -0.2609
  865MOL0     H16745   8.512   7.891   6.751 -0.5367  1.0380  1.4757
  865MOL0     H16746   8.385   7.774   6.771 -0.7368  0.7603  0.1932
  865MOL0     H16747   8.376   7.993   6.548 -2.5652  0.5302 -0.4399
  865MOL0     H16748   8.268   7.849   6.578 -1.3411 -0.2341  2.5383
  865MOL0     H16749   8.213   7.934   6.805  3.0435 -0.8269  0.9286
  865MOL0     H16750   8.169   8.050   6.673  1.7160 -0.2748 -1.9670
  865MOL0     H16751   8.361   8.079   6.896  1.3054 -2.0665 -1.7493
  865MOL0     H16752   8.403   8.159   6.734 -0.7662 -0.4544 -2.7950
  865MOL0     H16753   8.291   8.301   6.916  1.9990 -1.0082 -0.5354
  865MOL0     H16754   8.141   8.226   6.895  0.7106 -0.8921  1.1013
  865MOL0     H16755   8.140   8.415   6.773 -0.4184  1.0439 -0.3082
  865MOL0     H16756   8.134   8.277   6.658  1.4700 -0.8226  0.4054
  865MOL0     H16757   8.408   7.482   6.986  1.3916 -0.0624  1.5323
  865MOL0     H16758   8.467   7.277   7.116 -2.4337 -0.2033 -1.5271
  865MOL0     H16759   8.527   6.896   7.313 -1.2347 -1.2263  0.9965
  865MOL0     H16760   8.597   6.655   7.398 -1.7641 -0.6230 -1.3405
  865MOL0     H16761  10.372   6.618   7.868  0.0635 -1.1486 -0.9123
  865MOL0     H16762  10.468   6.785   8.015 -3.9420 -2.2868  1.7577
  865MOL0     H16763  10.624   7.129   8.129 -3.0705 -2.3528  0.6407
  865MOL0     H16764  10.737   7.308   8.287 -0.3068  1.9370  1.2573
  865MOL0     H16765  10.619   7.675   8.300 -2.1168  0.8996  0.2451
  865MOL0     H16766  10.488   7.634   8.427  0.4213 -2.5357  1.1129
  865MOL0     H16767  10.671   7.627   8.584  2.9579 -1.4438 -1.9039
  865MOL0     H16768  10.642   7.797   8.526  0.8267  0.0363  1.3424
  865MOL0     H16769  10.874   7.605   8.419  2.6516  0.1726  1.0992
  865MOL0     H16770  10.879   7.678   8.570  1.8735 -3.4048 -1.0166
  865MOL0     H16771  10.803   7.904   8.426 -0.1545  0.8248  3.7297
  865MOL0     H16772  10.896   7.803   8.299  1.6081 -2.5667  1.1590
  865MOL0     H16773  11.222   7.906   8.517  0.5964 -2.6933 -1.5664
  865MOL0     H16774  10.356   7.491   8.343  1.7110  1.1649 -0.1900
  865MOL0     H16775  10.255   7.347   8.191 -0.5020  0.0931  1.8083
  866MOL0     O16776   4.425   4.733  10.069  0.0568  0.3560 -0.3386
  866MOL0     C16777   4.460   4.791   9.964 -0.4521 -0.2960 -0.6989
  866MOL0     O16778   4.426   4.757   9.836  0.2839 -0.0770  0.4517
  866MOL0     C16779   4.331   4.658   9.819  0.9384 -0.2315 -0.3635
  866MOL0     C16780   4.200   4.663   9.883 -0.4179  0.1959  0.4644
  866MOL0     C16781   4.098   4.564   9.858 -0.0484  0.5511  0.2979
  866MOL0     C16782   4.133   4.456   9.767 -0.2102  0.5746  1.0844
  866MOL0     O16783   4.037   4.357   9.763 -0.1170  0.0218 -0.5856
  866MOL0     C16784   4.017   4.286   9.638  0.1028  0.5802 -0.0393
  866MOL0     C16785   3.962   4.152   9.695 -0.1933 -0.0063  0.0341
  866MOL0     C16786   3.841   4.151   9.785  0.5564 -0.0867 -0.4097
  866MOL0     C16787   3.861   4.023   9.876  0.6666 -0.6148 -0.3367
  866MOL0     C16788   3.775   4.035  10.011  0.0981  0.0228  0.3660
  866MOL0     C16789   3.625   4.017  10.000  0.2828 -0.1005  0.4507
  866MOL0     C16790   3.599   3.901   9.901 -0.1330 -0.0804 -1.3558
  866MOL0     C16791   3.448   3.860   9.912 -0.4917  0.8900 -0.1540
  866MOL0     N16792   3.420   3.822  10.051  0.5657 -0.8865  0.4116
  866MOL0     C16793   3.458   3.701  10.103 -0.5358  0.0845 -0.2642
  866MOL0     C16794   3.379   3.689  10.211  1.3167 -0.2269 -0.3113
  866MOL0     C16795   3.390   3.574  10.312 -0.7522  0.4150  0.4985
  866MOL0     C16796   3.275   3.477  10.272 -0.6475  0.6229  0.6115
  866MOL0     C16797   3.132   3.534  10.315 -0.7335  0.2067  0.1306
  866MOL0     C16798   3.082   3.486  10.446  0.4648 -0.9381 -0.4077
  866MOL0     O16799   2.949   3.520  10.464 -0.8754  0.0927  0.3474
  866MOL0     C16800   2.877   3.453  10.567 -0.0855 -0.0810 -0.3826
  866MOL0     C16801   2.906   3.325  10.622 -0.8209 -0.6936 -0.0543
  866MOL0     C16802   2.815   3.275  10.718 -0.8619 -0.2014  0.3527
  866MOL0     C16803   2.873   3.145  10.789  0.0606 -0.8572  1.1041
  866MOL0     C16804   2.685   3.333  10.746 -0.3852  0.5853 -0.1890
  866MOL0     C16805   2.570   3.267  10.822  0.0579 -0.1426  0.1296
  866MOL0     O16806   2.581   3.141  10.865 -0.1737 -0.0109  0.6669
  866MOL0     C16807   2.536   3.099  10.987 -0.0879 -0.4763 -0.6488
  866MOL0     C16808   2.412   3.129  11.031 -0.1296 -0.1494 -0.7729
  866MOL0     C16809   2.380   3.085  11.166  0.4436 -0.1110  0.2125
  866MOL0     C16810   2.466   3.005  11.239 -0.5584  0.0272 -0.3281
  866MOL0     O16811   2.444   2.939  11.361  0.1905  0.1560  0.1063
  866MOL0     C16812   2.310   2.910  11.398  0.3717 -0.1573 -0.3612
  866MOL0     C16813   2.303   2.804  11.510  0.0024 -0.1273 -0.3133
  866MOL0     C16814   2.384   2.672  11.493 -0.4913 -0.0968 -0.0581
  866MOL0     C16815   2.368   2.601  11.354 -0.5615  0.1487  0.1143
  866MOL0     C16816   2.366   2.456  11.369  0.0317 -0.5660  0.3249
  866MOL0     C16817   2.348   2.401  11.224 -0.1144 -0.3739 -0.4851
  866MOL0     C16818   2.340   2.245  11.221  0.0886  0.0990  0.6450
  866MOL0     C16819   2.480   2.186  11.187  0.0080 -0.0864 -0.1983
  866MOL0    Cl16820   2.495   2.023  11.273  0.3732 -0.1683  0.3997
  866MOL0     C16821   2.595   2.992  11.194  0.6411  0.5316 -0.1915
  866MOL0     C16822   2.628   3.033  11.072 -0.6136 -0.9629  0.5298
  866MOL0     O16823   2.478   3.336  10.854  0.0154 -0.1946 -1.3159
  866MOL0     C16824   2.640   3.426  10.655  0.4169 -0.5705  0.9793
  866MOL0     C16825   2.740   3.492  10.582 -0.7343  0.7759  0.5277
  866MOL0     N16826   3.299   3.805  10.222  0.0704  1.1950  0.1512
  866MOL0     N16827   3.330   3.883  10.130 -0.4584 -0.5092  0.1213
  866MOL0     C16828   4.261   4.453   9.710 -0.2832 -0.4142  0.9535
  866MOL0     C16829   4.363   4.543   9.740  0.1433 -0.9158 -0.5400
  866MOL0     C16830   4.533   4.913   9.966  0.5903 -0.3345  0.0834
  866MOL0     C16831   4.543   4.994  10.082 -1.1488  0.1803 -0.0569
  866MOL0     C16832   4.589   5.128  10.082 -0.3303 -0.0796  0.3193
  866MOL0     C16833   4.639   5.186   9.962  1.2188 -0.0185 -0.5204
  866MOL0     O16834   4.663   5.325   9.941 -0.6859 -0.3894  0.6505
  866MOL0     C16835   4.657   5.433  10.036  0.1990  0.9802  0.7024
  866MOL0     C16836   4.771   5.418  10.138  0.0311 -0.4840 -0.8232
  866MOL0     C16837   4.901   5.473  10.078 -0.2473 -0.4706  0.8634
  866MOL0     C16838   5.024   5.460  10.166 -0.1313 -0.4392  0.0009
  866MOL0     C16839   5.099   5.584  10.160  0.4929 -0.2220  0.7316
  866MOL0     C16840   5.146   5.698  10.153 -0.7352 -0.2401  0.0716
  866MOL0     C16841   4.638   5.105   9.847 -0.3351  0.2958 -1.0312
  866MOL0     C16842   4.594   4.972   9.847  1.0421  0.7454 -0.5668
  866MOL0     H16843   4.179   4.744   9.952  0.6355 -0.1177  1.1804
  866MOL0     H16844   3.999   4.567   9.902  0.4652  1.4575  1.4280
  866MOL0     H16845   3.937   4.334   9.580  0.2497  0.9540  0.0598
  866MOL0     H16846   4.104   4.262   9.577  2.1478  1.1342  2.5205
  866MOL0     H16847   3.935   4.079   9.618 -2.1350 -2.6137  2.9364
  866MOL0     H16848   4.046   4.115   9.756 -0.1081  4.0305  2.7424
  866MOL0     H16849   3.843   4.240   9.848  1.4219  1.4030 -2.4298
  866MOL0     H16850   3.748   4.159   9.729  0.3047  0.0158  0.0224
  866MOL0     H16851   3.847   3.932   9.817 -0.3496 -0.4973 -0.2878
  866MOL0     H16852   3.965   4.011   9.909  0.6370  0.8372  0.3698
  866MOL0     H16853   3.820   3.954  10.069 -2.4857 -2.4295 -0.8781
  866MOL0     H16854   3.816   4.125  10.058  0.8000 -0.3855  0.5513
  866MOL0     H16855   3.592   4.000  10.103 -0.2906  0.2117  0.3210
  866MOL0     H16856   3.583   4.107   9.954 -1.5490  0.9802  3.9163
  866MOL0     H16857   3.600   3.929   9.796 -2.6181 -0.3783 -1.5226
  866MOL0     H16858   3.661   3.814   9.926 -0.8157 -0.8094 -2.1341
  866MOL0     H16859   3.425   3.772   9.850  1.6705 -0.9926  1.5173
  866MOL0     H16860   3.389   3.947   9.883 -1.9561  0.3548  1.0898
  866MOL0     H16861   3.519   3.625  10.056  1.1438  3.1786 -3.5518
  866MOL0     H16862   3.493   3.536  10.313 -1.3845 -1.4193 -0.8521
  866MOL0     H16863   3.357   3.620  10.406  0.8369  0.2616  1.1637
  866MOL0     H16864   3.291   3.375  10.308 -0.5859 -0.3913 -2.0501
  866MOL0     H16865   3.284   3.466  10.163  2.6205  0.0647  0.8441
  866MOL0     H16866   3.060   3.493  10.243 -1.6428  0.5771  0.8181
  866MOL0     H16867   3.124   3.643  10.309  0.3744  0.3490  0.9716
  866MOL0     H16868   3.144   3.536  10.522  0.3693 -0.3190 -0.7279
  866MOL0     H16869   3.097   3.378  10.448  3.0097 -0.6386  0.4223
  866MOL0     H16870   3.005   3.292  10.594  0.7504  2.9178  0.7582
  866MOL0     H16871   2.851   3.134  10.896 -2.0119  0.7441  0.9056
  866MOL0     H16872   2.816   3.066  10.740 -1.5866  1.3578 -0.8079
  866MOL0     H16873   2.980   3.137  10.769  0.0926  1.3904  0.1064
  866MOL0     H16874   2.347   3.188  10.967  1.5816  0.8274 -1.6943
  866MOL0     H16875   2.282   3.099  11.209 -2.3424 -0.5333 -5.1071
  866MOL0     H16876   2.247   2.999  11.410 -4.9102 -3.6695  1.0975
  866MOL0     H16877   2.261   2.861  11.314  1.4027  0.3231 -1.2666
  866MOL0     H16878   2.325   2.858  11.602 -0.1796 -2.2609  1.0663
  866MOL0     H16879   2.204   2.758  11.516  0.4933 -1.3624 -1.2156
  866MOL0     H16880   2.375   2.605  11.579 -3.5836 -2.3994 -1.9680
  866MOL0     H16881   2.488   2.704  11.483  0.2614 -2.5266 -0.5538
  866MOL0     H16882   2.285   2.646  11.298  0.6025  1.0057 -0.9780
  866MOL0     H16883   2.457   2.625  11.296 -0.5234 -0.6322 -0.1626
  866MOL0     H16884   2.287   2.416  11.432  1.3541 -1.5139  1.4472
  866MOL0     H16885   2.463   2.430  11.413 -0.6742 -2.3127  0.9227
  866MOL0     H16886   2.254   2.443  11.187  0.9790  1.1244 -1.7067
  866MOL0     H16887   2.431   2.438  11.163  2.4780 -0.7977  2.5351
  866MOL0     H16888   2.264   2.211  11.150  0.5201  2.2943 -0.9890
  866MOL0     H16889   2.301   2.215  11.319 -1.2818 -2.6100 -0.6176
  866MOL0     H16890   2.568   2.248  11.206 -0.0392 -0.7292  2.4788
  866MOL0     H16891   2.475   2.165  11.079 -2.3241  0.5191 -0.2549
  866MOL0     H16892   2.670   2.933  11.246  2.6295  0.9848 -2.3388
  866MOL0     H16893   2.728   3.024  11.032 -0.0260  1.8645  1.1505
  866MOL0     H16894   2.534   3.451  10.649  0.7685  0.6586 -0.9241
  866MOL0     H16895   2.702   3.571  10.517  1.1156  2.1010  0.9717
  866MOL0     H16896   4.275   4.369   9.642 -0.6693 -0.1546  0.5461
  866MOL0     H16897   4.461   4.530   9.695  1.2795 -0.6368  1.6992
  866MOL0     H16898   4.492   4.959  10.172  0.1541 -1.2418  0.1664
  866MOL0     H16899   4.576   5.199  10.162  0.3427 -0.8153  1.1078
  866MOL0     H16900   4.662   5.535   9.995  0.3085  0.5692 -0.3328
  866MOL0     H16901   4.563   5.423  10.091 -1.0000  0.6402 -1.3006
  866MOL0     H16902   4.780   5.318  10.182 -2.1178  0.2694  1.5790
  866MOL0     H16903   4.738   5.488  10.215  1.0991 -0.8175 -0.0444
  866MOL0     H16904   4.893   5.576  10.043  1.0586 -0.9093 -0.8925
  866MOL0     H16905   4.937   5.411   9.995  3.9499 -0.1814  2.1918
  866MOL0     H16906   5.084   5.376  10.130 -0.0139  0.4891 -2.1184
  866MOL0     H16907   4.994   5.451  10.271 -1.3756  0.3183 -0.2637
  866MOL0     H16908   5.196   5.792  10.139  0.7525 -1.2290 -1.7304
  866MOL0     H16909   4.681   5.156   9.761 -1.9720 -0.7298 -2.5167
  866MOL0     H16910   4.595   4.914   9.756 -0.8327  0.4946 -0.4657
  867MOL0     O16911   4.707  11.106   6.967  1.0864 -0.7499 -0.1423
  867MOL0     C16912   4.628  11.206   6.976 -0.6818 -0.0447 -1.2451
  867MOL0     O16913   4.528  11.215   7.066 -0.4618 -1.0905 -0.2342
  867MOL0     C16914   4.509  11.100   7.140 -0.1591  0.2111 -0.1390
  867MOL0     C16915   4.582  11.069   7.256 -0.7302  0.2804 -0.4147
  867MOL0     C16916   4.546  10.951   7.321  0.1441  0.5574 -0.3881
  867MOL0     C16917   4.447  10.859   7.276 -0.7991 -0.1147  0.2782
  867MOL0     O16918   4.418  10.740   7.325  0.4755 -0.0869 -0.1798
  867MOL0     C16919   4.437  10.705   7.465 -0.5450 -0.0270 -0.8551
  867MOL0     C16920   4.378  10.791   7.572 -0.3396 -0.2405  1.2042
  867MOL0     C16921   4.437  10.755   7.699  0.3360 -0.1751  0.1590
  867MOL0     C16922   4.366  10.826   7.818 -0.9185  0.5091 -0.2384
  867MOL0     C16923   4.429  10.779   7.949  0.1767 -0.4049 -0.1779
  867MOL0     C16924   4.356  10.825   8.072  1.0220 -0.5539  0.0069
  867MOL0     C16925   4.359  10.984   8.096  0.5823  0.8106 -0.2869
  867MOL0     C16926   4.497  11.039   8.135  0.9204  0.1819 -0.0678
  867MOL0     N16927   4.537  11.164   8.061  0.9310 -0.1899  0.0440
  867MOL0     C16928   4.571  11.163   7.923  0.5027 -0.0001 -0.0863
  867MOL0     C16929   4.610  11.295   7.892  0.0260  0.4314 -0.7715
  867MOL0     C16930   4.645  11.349   7.749 -0.2084  0.5106 -1.0936
  867MOL0     C16931   4.566  11.278   7.641 -0.2035 -0.7204  0.4726
  867MOL0     C16932   4.419  11.331   7.621  0.6874 -0.2830 -0.2455
  867MOL0     C16933   4.334  11.346   7.741  0.8021  0.9068 -0.4430
  867MOL0     O16934   4.204  11.390   7.697 -0.0119  0.0289  0.1508
  867MOL0     C16935   4.097  11.297   7.682  0.1658  0.6313 -0.0527
  867MOL0     C16936   4.085  11.165   7.741 -1.0303  0.0492  0.1676
  867MOL0     C16937   3.972  11.089   7.726 -0.1040 -0.0876  0.0372
  867MOL0     C16938   3.973  10.958   7.806 -0.7439 -0.7756  0.3170
  867MOL0     C16939   3.871  11.126   7.634 -0.2640 -0.2080  0.0947
  867MOL0     C16940   3.765  11.046   7.591  0.4438 -0.0086 -0.5588
  867MOL0     O16941   3.683  11.112   7.503 -0.0940  0.7459 -0.6157
  867MOL0     C16942   3.616  11.048   7.402  0.2026 -0.2359  0.0985
  867MOL0     C16943   3.629  10.914   7.364 -0.5424  0.3636  0.4686
  867MOL0     C16944   3.549  10.860   7.256 -0.1091  0.2032 -0.5967
  867MOL0     C16945   3.463  10.943   7.190 -0.0621 -0.1780 -1.1790
  867MOL0     O16946   3.371  10.906   7.098  0.6602 -0.4009 -0.0639
  867MOL0     C16947   3.288  10.789   7.110 -0.5095 -0.0580  0.2312
  867MOL0     C16948   3.164  10.830   7.031 -0.1102 -0.2896  0.7820
  867MOL0     C16949   3.041  10.852   7.124  0.1701  0.0867 -0.2027
  867MOL0     C16950   3.020  10.986   7.196  0.3610  0.4776 -0.0853
  867MOL0     C16951   2.982  11.103   7.110  0.6989  0.1333  0.5227
  867MOL0     C16952   3.025  11.241   7.165 -0.5148  0.5015  0.0899
  867MOL0     C16953   2.986  11.355   7.068  0.6230  0.1200  0.0247
  867MOL0     C16954   3.075  11.345   6.938 -0.4364  0.1407  0.5656
  867MOL0    Cl16955   3.254  11.360   6.971  0.0279  0.5763 -0.5512
  867MOL0     C16956   3.447  11.073   7.230 -0.1428 -1.3467  0.1143
  867MOL0     C16957   3.537  11.130   7.322 -0.1658 -0.3013  0.7033
  867MOL0     O16958   3.736  10.945   7.649 -0.6411  0.0771  0.0422
  867MOL0     C16959   3.894  11.248   7.561  0.7534 -0.0735  0.0027
  867MOL0     C16960   4.002  11.331   7.587  1.2707 -0.4766 -0.3189
  867MOL0     N16961   4.610  11.369   8.010 -0.0475  0.0772  0.3838
  867MOL0     N16962   4.566  11.294   8.105 -0.5029 -0.8270 -0.6139
  867MOL0     C16963   4.374  10.899   7.168 -0.4356  0.3595 -0.8805
  867MOL0     C16964   4.405  11.017   7.093 -0.4831  0.1213  0.4157
  867MOL0     C16965   4.662  11.332   6.900  0.0326 -0.4842  0.0492
  867MOL0     C16966   4.770  11.342   6.807 -0.0738  0.8630 -0.0319
  867MOL0     C16967   4.794  11.463   6.744 -0.1967  0.8778  0.9308
  867MOL0     C16968   4.718  11.577   6.769  1.4989 -0.1869  1.0168
  867MOL0     O16969   4.739  11.700   6.708 -0.8002 -0.0707  0.2217
  867MOL0     C16970   4.699  11.692   6.572 -0.1911  0.4563  0.3297
  867MOL0     C16971   4.744  11.817   6.494 -0.3342 -0.1363  0.1082
  867MOL0     C16972   4.671  11.952   6.523  0.2876 -0.2984 -0.1340
  867MOL0     C16973   4.534  11.950   6.464 -0.8818  0.5590  0.1123
  867MOL0     C16974   4.482  12.085   6.446 -0.1977  0.0295 -0.3543
  867MOL0     C16975   4.429  12.196   6.426 -0.0709  0.8612  0.1480
  867MOL0     C16976   4.614  11.558   6.871  0.6460 -0.6240  0.0797
  867MOL0     C16977   4.588  11.440   6.935 -0.6736 -0.1455  0.0439
  867MOL0     H16978   4.658  11.138   7.292  0.2784 -0.7673 -0.4798
  867MOL0     H16979   4.616  10.923   7.399 -1.1545  1.9349  1.3350
  867MOL0     H16980   4.407  10.602   7.483  0.6998 -0.3553 -0.5861
  867MOL0     H16981   4.545  10.704   7.482 -0.9109 -1.4773  1.8376
  867MOL0     H16982   4.398  10.894   7.543 -0.4061 -0.4623  0.3241
  867MOL0     H16983   4.269  10.784   7.569 -0.4804  1.6438  0.0324
  867MOL0     H16984   4.420  10.650   7.721  2.6371 -0.0854  2.9651
  867MOL0     H16985   4.545  10.776   7.697  0.2227  0.4201 -0.2005
  867MOL0     H16986   4.390  10.933   7.812  1.6445 -0.0123 -0.8690
  867MOL0     H16987   4.258  10.812   7.818 -1.5339  3.9209  2.6835
  867MOL0     H16988   4.420  10.670   7.949 -0.2281 -0.5961  4.4422
  867MOL0     H16989   4.538  10.790   7.950  0.7868 -4.3926 -2.1732
  867MOL0     H16990   4.249  10.803   8.078  0.5519  1.7641  0.9857
  867MOL0     H16991   4.406  10.781   8.159 -2.3979 -2.9890  0.9631
  867MOL0     H16992   4.319  11.036   8.009  1.5411 -1.8360 -2.4466
  867MOL0     H16993   4.302  11.008   8.187  0.9320 -1.0186  0.4685
  867MOL0     H16994   4.577  10.966   8.128  0.5106 -0.1523 -1.7336
  867MOL0     H16995   4.495  11.060   8.242  0.9834  0.7659 -0.1768
  867MOL0     H16996   4.562  11.078   7.856 -3.0847 -1.9571  2.5097
  867MOL0     H16997   4.619  11.455   7.755 -0.2641  0.4611 -0.4186
  867MOL0     H16998   4.748  11.315   7.740 -0.8378 -1.4448 -1.4275
  867MOL0     H16999   4.568  11.170   7.661  1.3338 -0.8016 -0.0097
  867MOL0     H17000   4.626  11.294   7.552 -0.4346  1.7841  0.6900
  867MOL0     H17001   4.374  11.270   7.542  0.4818  1.1895 -1.3241
  867MOL0     H17002   4.422  11.432   7.578 -2.4132 -0.1364 -0.3311
  867MOL0     H17003   4.360  11.418   7.820 -1.3475 -0.8093  1.9991
  867MOL0     H17004   4.344  11.246   7.782 -0.5445 -1.0924 -4.4879
  867MOL0     H17005   4.164  11.145   7.813  1.4426  0.1904 -2.3484
  867MOL0     H17006   4.013  10.980   7.905 -0.7906 -2.8614  0.8533
  867MOL0     H17007   3.873  10.922   7.830 -0.3165 -0.7657  2.2415
  867MOL0     H17008   4.029  10.879   7.754  0.2541 -1.4037  2.2586
  867MOL0     H17009   3.705  10.849   7.409 -0.9589 -1.6057 -1.4994
  867MOL0     H17010   3.552  10.760   7.214 -2.5639 -1.4971  2.7802
  867MOL0     H17011   3.345  10.707   7.064 -0.8222  0.0788 -0.4167
  867MOL0     H17012   3.270  10.759   7.213  1.5994 -0.5290  0.5149
  867MOL0     H17013   3.185  10.924   6.980 -1.7578 -1.1345 -1.6337
  867MOL0     H17014   3.147  10.756   6.952  1.1746 -0.5107  0.7030
  867MOL0     H17015   3.031  10.764   7.188 -0.3884  1.4897  1.7137
  867MOL0     H17016   2.949  10.841   7.066 -1.7724  1.5357  2.3840
  867MOL0     H17017   2.939  10.961   7.265 -1.4343 -2.1786 -2.8704
  867MOL0     H17018   3.112  11.007   7.251 -0.5480  0.1345  1.6380
  867MOL0     H17019   2.873  11.097   7.097  0.5306 -0.1182  1.8881
  867MOL0     H17020   3.032  11.092   7.013 -2.0094  0.0663 -0.9782
  867MOL0     H17021   2.978  11.258   7.263 -2.9562 -3.8722 -0.0749
  867MOL0     H17022   3.134  11.248   7.173 -0.5425  0.1927  0.8577
  867MOL0     H17023   3.013  11.452   7.111  1.2271 -0.5656  1.2269
  867MOL0     H17024   2.878  11.355   7.048  0.4544  0.1865  0.8619
  867MOL0     H17025   3.045  11.430   6.875 -0.2671 -0.7905 -0.8257
  867MOL0     H17026   3.059  11.248   6.889  1.9490 -0.6421  1.1848
  867MOL0     H17027   3.380  11.135   7.170  1.7948  0.1583 -0.6104
  867MOL0     H17028   3.544  11.238   7.333 -1.2292 -0.3846  2.5656
  867MOL0     H17029   3.828  11.281   7.482 -1.5461  0.7073  2.1189
  867MOL0     H17030   4.017  11.427   7.538 -0.3053 -0.1039 -0.1265
  867MOL0     H17031   4.291  10.831   7.153  1.4749 -2.3569  0.1797
  867MOL0     H17032   4.368  11.052   6.998  2.0615  0.7722 -0.4103
  867MOL0     H17033   4.821  11.252   6.774 -1.3537  0.6374 -1.5239
  867MOL0     H17034   4.875  11.460   6.672 -1.9005 -0.5269 -1.0541
  867MOL0     H17035   4.740  11.610   6.513 -1.8295  1.2627 -2.0595
  867MOL0     H17036   4.590  11.701   6.570 -0.1140  1.8183  0.9175
  867MOL0     H17037   4.744  11.791   6.388 -1.7688  0.1388  0.0222
  867MOL0     H17038   4.852  11.824   6.512  0.1916 -3.8960 -0.7232
  867MOL0     H17039   4.729  12.031   6.473 -1.1077  2.0831  1.8340
  867MOL0     H17040   4.662  11.952   6.632  0.4323 -4.6506  0.0272
  867MOL0     H17041   4.473  11.885   6.528 -2.5435  0.2119 -1.7158
  867MOL0     H17042   4.527  11.908   6.363 -0.6738  1.0735 -0.1178
  867MOL0     H17043   4.376  12.289   6.428 -0.8684  0.4226  0.0534
  867MOL0     H17044   4.550  11.644   6.891 -4.4647 -3.3695 -2.3124
  867MOL0     H17045   4.499  11.434   6.998 -0.8726  1.0302 -0.1138
  868MOL0     O17046   3.043   2.679   4.204 -0.1441 -0.4198  0.0212
  868MOL0     C17047   3.067   2.564   4.218 -0.0593  1.0936 -0.4779
  868MOL0     O17048   2.974   2.462   4.227  0.1965 -0.1210 -0.7326
  868MOL0     C17049   2.847   2.499   4.216  0.2721 -0.0325 -0.1979
  868MOL0     C17050   2.788   2.489   4.082 -0.4391  0.9852 -0.4796
  868MOL0     C17051   2.655   2.509   4.066  0.2584  0.9951 -0.2089
  868MOL0     C17052   2.577   2.571   4.165  0.4079 -0.1806 -0.0391
  868MOL0     O17053   2.444   2.595   4.130 -0.4651 -0.4758 -0.3556
  868MOL0     C17054   2.428   2.735   4.092 -0.6220  0.6670  0.4580
  868MOL0     C17055   2.281   2.770   4.097 -0.0432  0.9459 -0.6625
  868MOL0     C17056   2.271   2.925   4.112  0.4625 -0.4358  0.0800
  868MOL0     C17057   2.127   2.963   4.126  0.2214  0.2179 -0.4153
  868MOL0     C17058   2.103   3.119   4.118 -0.2727 -0.3996 -0.2832
  868MOL0     C17059   2.175   3.193   4.236  0.2332  0.5172  0.2490
  868MOL0     C17060   2.146   3.348   4.241  0.0618 -0.1955 -0.3031
  868MOL0     C17061   1.999   3.384   4.219 -0.9244  0.1062  0.5907
  868MOL0     N17062   1.975   3.517   4.269  0.3791  0.0545 -0.0500
  868MOL0     C17063   2.054   3.632   4.256  0.4804 -0.5651 -0.1815
  868MOL0     C17064   1.973   3.724   4.311 -0.5044 -0.5103  0.5286
  868MOL0     C17065   2.005   3.869   4.318 -0.5127  0.3323  0.0113
  868MOL0     C17066   2.142   3.876   4.378 -0.1008 -0.1214 -0.4705
  868MOL0     C17067   2.205   4.017   4.374 -0.1107  0.0192 -0.5937
  868MOL0     C17068   2.343   4.011   4.436 -0.4533 -0.4302 -0.7933
  868MOL0     O17069   2.412   4.141   4.456 -0.4934 -0.6643  0.0480
  868MOL0     C17070   2.440   4.218   4.341  1.0847  0.6127  0.3835
  868MOL0     C17071   2.444   4.170   4.216  0.4988  0.0313 -0.4315
  868MOL0     C17072   2.493   4.228   4.102 -0.6093 -0.2079 -0.1477
  868MOL0     C17073   2.495   4.149   3.974  0.1935  1.2483 -0.5727
  868MOL0     C17074   2.529   4.368   4.108  1.2881 -0.2665 -0.0204
  868MOL0     C17075   2.586   4.448   4.001 -0.7458 -0.5852  0.4551
  868MOL0     O17076   2.593   4.389   3.883  0.1437  0.4291 -0.2569
  868MOL0     C17077   2.606   4.464   3.764  0.3327  0.0471 -0.0850
  868MOL0     C17078   2.724   4.534   3.731  0.0800  0.3531 -0.0430
  868MOL0     C17079   2.752   4.600   3.613  0.0559  0.0712  0.4925
  868MOL0     C17080   2.649   4.605   3.515  0.0454  0.6071  0.1544
  868MOL0     O17081   2.669   4.653   3.385 -0.1877  0.0592 -0.5006
  868MOL0     C17082   2.793   4.716   3.352  0.2129  0.7391 -0.2284
  868MOL0     C17083   2.816   4.706   3.202  0.2557  0.3734  0.9317
  868MOL0     C17084   2.782   4.561   3.164 -1.3339 -0.1572  0.5640
  868MOL0     C17085   2.839   4.540   3.022 -1.0513  0.5018  1.3818
  868MOL0     C17086   2.743   4.458   2.927  0.0635 -0.7018 -0.6289
  868MOL0     C17087   2.806   4.439   2.787 -0.2040 -0.6989  0.2436
  868MOL0     C17088   2.739   4.321   2.727 -0.3713 -0.5419 -0.1380
  868MOL0     C17089   2.769   4.311   2.571  0.7391  0.2173 -0.4456
  868MOL0    Cl17090   2.930   4.230   2.523  0.4362  0.3686 -0.0445
  868MOL0     C17091   2.532   4.528   3.542 -0.1848 -0.6957 -0.5738
  868MOL0     C17092   2.507   4.456   3.664 -0.6629  0.1194  0.6088
  868MOL0     O17093   2.617   4.561   4.028 -0.8780 -0.8454 -0.0112
  868MOL0     C17094   2.502   4.428   4.233  0.1808 -0.2353 -0.9367
  868MOL0     C17095   2.464   4.351   4.350 -0.0104  0.4281  0.5652
  868MOL0     N17096   1.853   3.672   4.364  0.3936  0.3044  0.0899
  868MOL0     N17097   1.863   3.545   4.338 -0.0481  0.8217  0.9660
  868MOL0     C17098   2.626   2.580   4.299 -0.8987 -0.6509 -0.0694
  868MOL0     C17099   2.759   2.547   4.322 -1.2170  0.2988 -0.3213
  868MOL0     C17100   3.191   2.505   4.212 -0.4174 -0.0922 -0.9755
  868MOL0     C17101   3.298   2.602   4.197 -0.8860  0.3703 -0.6872
  868MOL0     C17102   3.427   2.561   4.193 -0.1203  0.1581  0.1394
  868MOL0     C17103   3.465   2.420   4.207 -0.0838  0.8779  0.7967
  868MOL0     O17104   3.589   2.379   4.189  0.1554  0.2730 -1.1054
  868MOL0     C17105   3.679   2.450   4.102  0.7711 -0.4008 -0.2246
  868MOL0     C17106   3.810   2.380   4.070 -0.1231  0.2235  0.7645
  868MOL0     C17107   3.791   2.233   4.011 -0.2587  0.1030  0.4882
  868MOL0     C17108   3.921   2.163   4.019  0.5690 -0.4408  0.1881
  868MOL0     C17109   4.015   2.236   3.933 -0.0329 -0.7813 -0.5769
  868MOL0     C17110   4.091   2.290   3.854  1.0859 -0.3190 -0.4369
  868MOL0     C17111   3.358   2.322   4.225  0.0386  0.6008 -0.0517
  868MOL0     C17112   3.226   2.365   4.229  0.5492 -0.3580  0.9026
  868MOL0     H17113   2.851   2.463   3.998  1.5811  0.4729  1.0989
  868MOL0     H17114   2.616   2.493   3.966 -1.1355  2.6700  0.0207
  868MOL0     H17115   2.484   2.789   4.168 -0.6919 -0.5492  1.4042
  868MOL0     H17116   2.467   2.760   3.993 -2.3466 -2.7620 -1.2724
  868MOL0     H17117   2.236   2.727   4.008 -0.2859 -3.6093  1.4023
  868MOL0     H17118   2.242   2.709   4.179  0.1433  0.7377 -0.7284
  868MOL0     H17119   2.328   2.947   4.203  1.0433 -2.0518  0.1357
  868MOL0     H17120   2.306   2.979   4.023  2.1693  1.6362  1.8866
  868MOL0     H17121   2.079   2.913   4.042  2.1612  0.3212 -1.6535
  868MOL0     H17122   2.090   2.925   4.221 -0.7477  0.3709 -0.7250
  868MOL0     H17123   2.147   3.139   4.019  1.3027 -1.4935  0.1573
  868MOL0     H17124   1.997   3.144   4.119 -0.1409  0.8161 -3.6827
  868MOL0     H17125   2.159   3.143   4.332 -0.9449 -1.2791 -0.8305
  868MOL0     H17126   2.279   3.165   4.219  0.1088 -1.8260  2.7314
  868MOL0     H17127   2.183   3.400   4.330  1.7326  1.6993 -1.9968
  868MOL0     H17128   2.204   3.392   4.160  2.4163 -1.1052  0.7991
  868MOL0     H17129   1.941   3.305   4.267  0.8627 -0.3217  2.1745
  868MOL0     H17130   1.970   3.389   4.113 -3.1245  1.0899  1.1994
  868MOL0     H17131   2.149   3.644   4.204 -0.4110 -1.5267 -2.1093
  868MOL0     H17132   1.988   3.908   4.217 -1.7471  1.0483  0.4679
  868MOL0     H17133   1.932   3.913   4.387 -1.0157 -0.4249 -0.0289
  868MOL0     H17134   2.211   3.814   4.319 -0.8179 -1.1366 -0.2654
  868MOL0     H17135   2.138   3.846   4.483 -1.1584 -0.5795 -0.6379
  868MOL0     H17136   2.146   4.092   4.427 -3.1044 -2.5118  0.0037
  868MOL0     H17137   2.198   4.049   4.270 -2.5281  1.2454 -0.1218
  868MOL0     H17138   2.399   3.947   4.367 -2.0732 -1.7443 -0.9556
  868MOL0     H17139   2.345   3.964   4.535 -0.8439  1.7120  0.2844
  868MOL0     H17140   2.419   4.066   4.201  0.6815  0.0888 -1.1963
  868MOL0     H17141   2.600   4.124   3.956  0.4795  2.4683 -0.6733
  868MOL0     H17142   2.432   4.061   3.991  1.3552  0.8104  1.7494
  868MOL0     H17143   2.444   4.208   3.897  2.3516  1.4976 -1.9004
  868MOL0     H17144   2.814   4.525   3.790  1.5179 -2.2556 -2.4045
  868MOL0     H17145   2.856   4.628   3.598  0.3349 -0.0575  2.0065
  868MOL0     H17146   2.804   4.822   3.375  1.2678  1.1513 -2.4355
  868MOL0     H17147   2.870   4.654   3.399 -0.0426  0.5118 -0.1059
  868MOL0     H17148   2.749   4.775   3.149 -1.1338 -1.5091  0.0937
  868MOL0     H17149   2.918   4.736   3.177 -0.4306  2.9612  0.9366
  868MOL0     H17150   2.672   4.560   3.167 -1.4020  1.0685 -0.4815
  868MOL0     H17151   2.822   4.493   3.239 -2.6113  1.1292  2.5176
  868MOL0     H17152   2.855   4.639   2.979 -0.9721  0.3193  0.9971
  868MOL0     H17153   2.937   4.492   3.022 -0.1216  2.3134  1.5641
  868MOL0     H17154   2.645   4.506   2.926  1.1839  1.7921  0.6745
  868MOL0     H17155   2.729   4.361   2.975  0.4843 -1.6586 -2.3609
  868MOL0     H17156   2.778   4.523   2.722 -1.6313 -1.9877 -0.8573
  868MOL0     H17157   2.915   4.425   2.791 -0.1703 -0.8396 -0.8093
  868MOL0     H17158   2.633   4.347   2.738  0.2347  1.3422  2.2875
  868MOL0     H17159   2.766   4.227   2.775 -3.6842 -1.4602  0.1786
  868MOL0     H17160   2.767   4.411   2.527  1.2540  0.9722  1.1672
  868MOL0     H17161   2.691   4.252   2.521  1.5682  0.9587 -2.7530
  868MOL0     H17162   2.455   4.531   3.465  0.0382 -2.1427 -0.8764
  868MOL0     H17163   2.426   4.383   3.671  0.5101 -1.3752 -0.6448
  868MOL0     H17164   2.521   4.533   4.251  0.3338 -0.5100  0.6212
  868MOL0     H17165   2.439   4.389   4.448 -3.1460 -0.0724  0.0909
  868MOL0     H17166   2.570   2.627   4.379 -0.7180  1.6274 -1.1907
  868MOL0     H17167   2.805   2.560   4.419 -0.3995  2.3232 -0.9303
  868MOL0     H17168   3.283   2.709   4.201 -3.8369  0.0010  0.7142
  868MOL0     H17169   3.506   2.635   4.183  0.6311 -0.3317  2.0094
  868MOL0     H17170   3.623   2.479   4.013  1.2166  1.8014  0.1535
  868MOL0     H17171   3.706   2.551   4.135  0.4889  0.5583 -2.7274
  868MOL0     H17172   3.869   2.364   4.161  2.4188 -1.9373 -1.1038
  868MOL0     H17173   3.872   2.446   4.009 -0.7967 -0.0868 -0.2874
  868MOL0     H17174   3.743   2.240   3.913 -2.2682  2.8878  1.5457
  868MOL0     H17175   3.715   2.180   4.069 -1.5466  0.6226 -0.6541
  868MOL0     H17176   3.906   2.063   3.978 -0.1645 -0.7591  1.2193
  868MOL0     H17177   3.958   2.151   4.121  0.2961  2.8968  0.7928
  868MOL0     H17178   4.145   2.348   3.782 -0.6660  0.4520 -1.1977
  868MOL0     H17179   3.382   2.216   4.225  0.0900  0.5947  1.5586
  868MOL0     H17180   3.147   2.291   4.239 -2.3606  2.0611 -1.7624
  869MOL0     O17181   4.826   2.130   7.938  1.1695  0.8616 -0.3226
  869MOL0     C17182   4.826   2.247   7.906 -0.6771 -0.7918  0.3355
  869MOL0     O17183   4.716   2.314   7.844 -0.1424 -0.4305  0.8494
  869MOL0     C17184   4.595   2.313   7.906  0.2859  0.8758  0.3965
  869MOL0     C17185   4.525   2.188   7.928 -0.3484 -0.1107  0.8867
  869MOL0     C17186   4.404   2.188   7.999 -0.4491  0.1408  0.6362
  869MOL0     C17187   4.341   2.311   8.036 -0.5957  0.5962 -0.4431
  869MOL0     O17188   4.221   2.308   8.101  0.0147  0.9631  0.4576
  869MOL0     C17189   4.131   2.203   8.077 -0.7918  0.3418  0.0730
  869MOL0     C17190   3.997   2.251   8.117  0.5374  0.6529 -0.0932
  869MOL0     C17191   3.947   2.352   8.010 -0.2874 -0.1591 -0.0845
  869MOL0     C17192   3.811   2.397   8.049  0.0030 -0.9953  0.1110
  869MOL0     C17193   3.761   2.516   7.968  1.1525  0.6645 -0.8122
  869MOL0     C17194   3.623   2.568   8.006  0.8639  0.6069  0.3273
  869MOL0     C17195   3.575   2.684   7.910 -0.7297 -0.4292 -0.6635
  869MOL0     C17196   3.428   2.721   7.928 -1.0023 -0.4222  0.1873
  869MOL0     N17197   3.373   2.848   7.869 -0.4625 -0.1419 -0.0799
  869MOL0     C17198   3.268   2.869   7.793  0.2405  0.1043  0.4605
  869MOL0     C17199   3.268   3.007   7.769  0.6376  0.4711 -0.5535
  869MOL0     C17200   3.182   3.067   7.667 -0.2509  0.1143  0.6506
  869MOL0     C17201   3.042   3.018   7.657  0.6420 -0.2486 -0.5071
  869MOL0     C17202   2.978   3.025   7.797  0.1950  0.6549 -0.1069
  869MOL0     C17203   2.831   2.977   7.796  0.5007 -0.0325  0.0843
  869MOL0     O17204   2.816   2.837   7.763 -0.5750 -0.1032 -0.0228
  869MOL0     C17205   2.885   2.748   7.840 -0.4214  0.0772  0.2253
  869MOL0     C17206   2.915   2.763   7.973  0.3619 -0.3727 -1.0813
  869MOL0     C17207   2.979   2.664   8.043 -0.0378  0.6173 -0.2734
  869MOL0     C17208   3.008   2.671   8.189 -0.3285 -0.2559  0.3720
  869MOL0     C17209   3.022   2.549   7.978 -0.6346 -0.6861  0.6270
  869MOL0     C17210   3.118   2.441   8.037  0.6134 -1.0391  0.2896
  869MOL0     O17211   3.133   2.337   7.948  0.7156  0.7198  0.0731
  869MOL0     C17212   3.231   2.243   7.970 -0.2312 -0.4960 -0.5808
  869MOL0     C17213   3.349   2.257   7.893 -0.8113  0.0399  0.8654
  869MOL0     C17214   3.454   2.160   7.901 -0.0796  0.3226  0.0430
  869MOL0     C17215   3.449   2.047   7.978  0.2741  0.4131  0.1037
  869MOL0     O17216   3.544   1.952   7.970 -0.1289 -0.3132 -0.3394
  869MOL0     C17217   3.587   1.883   8.083  0.2704 -0.0027  0.3066
  869MOL0     C17218   3.703   1.787   8.052  0.2826  0.4135 -0.3090
  869MOL0     C17219   3.814   1.861   7.996 -0.4882 -0.2683  0.1567
  869MOL0     C17220   3.925   1.767   7.934 -0.3831  0.4745 -0.1842
  869MOL0     C17221   4.050   1.847   7.906 -0.3098  0.1728 -0.4372
  869MOL0     C17222   4.134   1.773   7.799  0.2536 -0.6366 -0.0160
  869MOL0     C17223   4.283   1.810   7.790  0.5873 -0.2670  0.6511
  869MOL0     C17224   4.364   1.775   7.674 -0.9197  0.7015 -0.0447
  869MOL0    Cl17225   4.524   1.835   7.706  0.1690 -0.5199  0.2451
  869MOL0     C17226   3.331   2.041   8.065  0.9464 -0.2004  0.4510
  869MOL0     C17227   3.228   2.143   8.065  0.4259  0.0266 -0.2283
  869MOL0     O17228   3.174   2.447   8.146  0.9319 -0.5762 -0.5433
  869MOL0     C17229   2.995   2.529   7.840  0.3726 -0.5398 -0.8515
  869MOL0     C17230   2.927   2.634   7.773  0.9069  0.1489 -0.2322
  869MOL0     N17231   3.351   3.067   7.855  0.3285 -0.1243 -0.7047
  869MOL0     N17232   3.416   2.974   7.907 -0.0492  0.1503 -0.1382
  869MOL0     C17233   4.400   2.432   7.999  0.1749 -0.7466  0.2560
  869MOL0     C17234   4.532   2.426   7.944 -0.5375 -1.3768 -0.7109
  869MOL0     C17235   4.961   2.301   7.883  0.0363 -0.6073 -0.2655
  869MOL0     C17236   5.064   2.216   7.839 -0.1699 -0.2269 -1.3785
  869MOL0     C17237   5.185   2.270   7.804  0.8420  0.0930 -0.4668
  869MOL0     C17238   5.206   2.404   7.812 -1.3140  0.3991 -0.6512
  869MOL0     O17239   5.342   2.428   7.797  0.2149 -0.0723  0.3573
  869MOL0     C17240   5.375   2.556   7.761  0.2931  0.1052  0.7394
  869MOL0     C17241   5.515   2.576   7.700 -0.1221 -0.2059 -0.3285
  869MOL0     C17242   5.566   2.450   7.634 -0.4458  0.3963  0.0900
  869MOL0     C17243   5.697   2.489   7.554  0.3205  0.0368  0.2717
  869MOL0     C17244   5.765   2.384   7.476 -0.3211  0.4207  0.3385
  869MOL0     C17245   5.811   2.289   7.412  0.1699  0.6695 -0.2324
  869MOL0     C17246   5.103   2.496   7.854 -0.1432  0.1003  0.2987
  869MOL0     C17247   4.977   2.445   7.884  0.4152 -0.9191  0.0805
  869MOL0     H17248   4.564   2.098   7.882  0.3841 -0.0865  1.4444
  869MOL0     H17249   4.353   2.092   8.007  2.7816 -1.6420  1.6056
  869MOL0     H17250   4.107   2.177   7.974 -2.4435 -0.9739  0.7393
  869MOL0     H17251   4.161   2.117   8.137 -3.3940 -0.5107  0.2932
  869MOL0     H17252   3.943   2.157   8.121  1.2533  0.2507  0.3380
  869MOL0     H17253   4.002   2.292   8.219  0.6489 -0.3193  0.3005
  869MOL0     H17254   4.016   2.437   8.010  0.4648 -0.7513  0.7779
  869MOL0     H17255   3.946   2.316   7.907 -0.3901  1.0102 -0.5030
  869MOL0     H17256   3.743   2.311   8.051  0.7089 -1.6008 -0.9164
  869MOL0     H17257   3.813   2.434   8.152 -4.0353  1.5332 -0.4872
  869MOL0     H17258   3.821   2.602   8.000  1.2662  0.1369  0.4351
  869MOL0     H17259   3.774   2.489   7.863  0.8698  0.6723 -0.8515
  869MOL0     H17260   3.552   2.485   8.001  1.4329  0.1706 -1.1450
  869MOL0     H17261   3.626   2.615   8.105  1.0218 -1.3591  1.3058
  869MOL0     H17262   3.640   2.768   7.935 -0.4461  0.2486 -3.3788
  869MOL0     H17263   3.600   2.656   7.808  1.1671 -2.3748  0.2514
  869MOL0     H17264   3.403   2.721   8.034  0.4875  0.7911  0.5878
  869MOL0     H17265   3.371   2.643   7.876  2.6675 -1.1700 -3.2463
  869MOL0     H17266   3.194   2.815   7.736 -0.8985  0.5486  1.4766
  869MOL0     H17267   3.192   3.175   7.677 -2.7619  0.4140  0.5579
  869MOL0     H17268   3.217   3.042   7.566 -1.1208 -0.1159  0.3907
  869MOL0     H17269   3.040   2.921   7.607  0.3117  0.0592 -1.1124
  869MOL0     H17270   2.982   3.082   7.591 -0.9098  0.3425  1.3558
  869MOL0     H17271   2.985   3.130   7.828  2.8548 -0.1832  2.5975
  869MOL0     H17272   3.037   2.967   7.868  0.8166  0.1999 -0.9910
  869MOL0     H17273   2.771   3.033   7.723 -1.4380 -1.8174  0.1977
  869MOL0     H17274   2.776   2.997   7.889 -2.8582 -2.2310 -1.2117
  869MOL0     H17275   2.882   2.853   8.025 -0.6966 -0.4435 -1.6043
  869MOL0     H17276   3.111   2.675   8.225  0.1846 -1.2877 -0.9002
  869MOL0     H17277   2.957   2.764   8.215  0.6611  0.6456 -0.7700
  869MOL0     H17278   2.958   2.589   8.241  0.0847 -1.2118 -0.6842
  869MOL0     H17279   3.354   2.333   7.815 -0.7251 -0.5901  0.2413
  869MOL0     H17280   3.544   2.162   7.839 -1.1366 -0.2647 -1.5930
  869MOL0     H17281   3.616   1.962   8.153  0.7329  0.7094 -0.6788
  869MOL0     H17282   3.506   1.818   8.117 -0.5836  0.9310  0.1317
  869MOL0     H17283   3.736   1.743   8.147  1.8929  4.0745  0.9849
  869MOL0     H17284   3.669   1.703   7.991  2.3666 -1.8501  1.4556
  869MOL0     H17285   3.857   1.920   8.078  1.4210 -1.8142  0.3567
  869MOL0     H17286   3.785   1.927   7.914  0.9012  1.0792  0.6847
  869MOL0     H17287   3.946   1.706   8.022  1.6952  3.1502  1.3446
  869MOL0     H17288   3.896   1.706   7.848  1.1315 -0.4586 -0.0637
  869MOL0     H17289   4.108   1.853   7.999  1.3530 -1.4598 -1.2952
  869MOL0     H17290   4.019   1.946   7.872  0.2211  0.2528 -0.7027
  869MOL0     H17291   4.131   1.664   7.803  1.1974 -0.9546 -3.9433
  869MOL0     H17292   4.079   1.802   7.709 -1.0194  1.5045  1.3617
  869MOL0     H17293   4.328   1.784   7.886 -1.4760  4.1079  3.1187
  869MOL0     H17294   4.281   1.919   7.783 -0.0343 -0.1481  2.2641
  869MOL0     H17295   4.326   1.824   7.583  3.6257  0.9677 -2.0902
  869MOL0     H17296   4.369   1.668   7.650 -1.2893  0.7543 -0.3700
  869MOL0     H17297   3.322   1.953   8.128  0.8110 -0.9922 -0.6438
  869MOL0     H17298   3.148   2.120   8.134 -3.2935 -1.4884 -4.5359
  869MOL0     H17299   3.013   2.439   7.783  1.0313 -1.4398  0.7198
  869MOL0     H17300   2.906   2.623   7.667  0.6882 -0.3249 -0.1415
  869MOL0     H17301   4.361   2.532   8.013  0.3665 -0.2601 -2.2391
  869MOL0     H17302   4.592   2.516   7.933  2.9118 -3.5895 -1.4340
  869MOL0     H17303   5.040   2.110   7.841 -0.5655 -0.1778  1.5193
  869MOL0     H17304   5.266   2.202   7.780  0.2749 -0.7249 -0.1135
  869MOL0     H17305   5.306   2.572   7.678  0.2551 -2.8829  0.0852
  869MOL0     H17306   5.355   2.623   7.845  2.4286 -0.5039  1.7941
  869MOL0     H17307   5.586   2.609   7.775  2.2460 -0.6961 -2.2301
  869MOL0     H17308   5.510   2.656   7.626  2.3666  1.5843  1.3057
  869MOL0     H17309   5.491   2.419   7.560 -0.1711  1.2853 -0.5786
  869MOL0     H17310   5.597   2.372   7.704  2.8071  0.6492 -0.9166
  869MOL0     H17311   5.775   2.536   7.615 -1.1155  0.4232  1.9035
  869MOL0     H17312   5.672   2.568   7.482  0.1787  1.2774  1.6247
  869MOL0     H17313   5.836   2.198   7.360  2.2270 -0.2490  2.1820
  869MOL0     H17314   5.107   2.603   7.869  0.3983  0.0231  0.7391
  869MOL0     H17315   4.898   2.509   7.921  0.5156 -3.1896  5.1443
  870MOL0     O17316   3.169   4.417  10.124 -0.4981 -0.0183 -0.0796
  870MOL0     C17317   3.207   4.326  10.199  0.4662  1.5285  0.4776
  870MOL0     O17318   3.260   4.212  10.155 -1.0210 -0.0482  0.1262
  870MOL0     C17319   3.255   4.187  10.020  1.2396 -0.2539 -0.2627
  870MOL0     C17320   3.147   4.111   9.983  0.3413 -0.3653 -0.0049
  870MOL0     C17321   3.112   4.094   9.849 -0.6390 -0.2788  0.2349
  870MOL0     C17322   3.177   4.164   9.743 -0.9144 -1.4994 -1.1403
  870MOL0     O17323   3.137   4.161   9.607 -0.3151  0.8071  0.4249
  870MOL0     C17324   3.092   4.032   9.552  0.4635 -0.7404 -1.0181
  870MOL0     C17325   3.162   4.006   9.412 -0.4576 -0.4229  0.3441
  870MOL0     C17326   3.314   4.015   9.407 -0.2410  0.1575 -0.1381
  870MOL0     C17327   3.375   3.888   9.474  0.2045 -0.6354 -0.5302
  870MOL0     C17328   3.516   3.886   9.434 -0.6123  0.4840  0.3383
  870MOL0     C17329   3.603   3.994   9.478 -0.3769 -0.0158 -0.1944
  870MOL0     C17330   3.739   3.980   9.401 -0.0333  0.5102 -0.1272
  870MOL0     C17331   3.741   4.025   9.252  0.6109 -0.7607  0.2210
  870MOL0     N17332   3.711   4.168   9.233  0.1023  0.2728  0.3560
  870MOL0     C17333   3.620   4.209   9.143 -1.2439 -0.1272  0.1622
  870MOL0     C17334   3.640   4.344   9.134 -0.5660 -0.6221 -0.6914
  870MOL0     C17335   3.572   4.424   9.026  0.2337 -0.2663 -0.6108
  870MOL0     C17336   3.616   4.378   8.883 -0.6728  0.3241 -0.1298
  870MOL0     C17337   3.594   4.489   8.782 -0.5438 -0.1723  0.5194
  870MOL0     C17338   3.447   4.465   8.740 -0.5576  0.8205  1.0001
  870MOL0     O17339   3.398   4.571   8.659  0.3832  0.5004 -1.1517
  870MOL0     C17340   3.364   4.693   8.711  0.1982  0.5485  0.4242
  870MOL0     C17341   3.358   4.717   8.852 -0.8815  0.6356  0.6246
  870MOL0     C17342   3.334   4.845   8.898  0.3263 -1.0509  0.1176
  870MOL0     C17343   3.344   4.859   9.047  0.7474 -0.3768  0.4965
  870MOL0     C17344   3.301   4.947   8.807  1.0126 -0.4791 -0.0043
  870MOL0     C17345   3.282   5.094   8.837 -0.0932  0.5471  0.6999
  870MOL0     O17346   3.268   5.180   8.734  0.3778 -0.3524 -0.1008
  870MOL0     C17347   3.257   5.320   8.763  0.6420  0.8755  0.2731
  870MOL0     C17348   3.133   5.382   8.778  0.0995 -0.2793 -0.3226
  870MOL0     C17349   3.134   5.527   8.787  0.2161 -0.4227 -0.5834
  870MOL0     C17350   3.249   5.603   8.781 -1.0004  0.2418  0.6344
  870MOL0     O17351   3.240   5.739   8.783  0.2973 -0.1736  0.3903
  870MOL0     C17352   3.340   5.800   8.870  0.4661 -0.1982 -0.0800
  870MOL0     C17353   3.313   5.946   8.876 -0.1406 -0.7552  0.3947
  870MOL0     C17354   3.196   5.979   8.963 -0.5690  0.0190 -0.9584
  870MOL0     C17355   3.246   6.016   9.106 -0.5469  0.9467  0.0900
  870MOL0     C17356   3.138   6.058   9.209  0.9723  0.1110 -0.0039
  870MOL0     C17357   3.105   5.952   9.309  0.4460 -0.1680 -0.5186
  870MOL0     C17358   3.019   5.846   9.246 -0.2539  1.2136  0.6642
  870MOL0     C17359   2.979   5.741   9.340 -0.0577  0.4894 -0.4575
  870MOL0    Cl17360   2.930   5.799   9.496  0.1162 -0.4150  0.4177
  870MOL0     C17361   3.370   5.528   8.758  0.2494 -1.0987  0.6602
  870MOL0     C17362   3.371   5.390   8.744 -0.2731  0.7403 -0.7165
  870MOL0     O17363   3.286   5.123   8.955 -1.2061  0.2044  0.5377
  870MOL0     C17364   3.291   4.918   8.670 -0.4736  0.4069  0.5144
  870MOL0     C17365   3.322   4.787   8.623  0.2436 -0.1373 -0.4195
  870MOL0     N17366   3.751   4.378   9.217  0.5288 -0.3175  0.5521
  870MOL0     N17367   3.785   4.273   9.282  0.2860  0.0067  0.0464
  870MOL0     C17368   3.287   4.250   9.774  0.8909  0.4870 -0.3065
  870MOL0     C17369   3.325   4.262   9.914 -0.4339 -0.0981  0.6057
  870MOL0     C17370   3.187   4.344  10.339  0.3386 -0.0828  0.5963
  870MOL0     C17371   3.190   4.234  10.429 -0.4622 -0.0215 -0.0548
  870MOL0     C17372   3.207   4.258  10.565  0.7003 -0.3730 -0.2044
  870MOL0     C17373   3.178   4.384  10.610  0.0185  0.0710 -0.2713
  870MOL0     O17374   3.160   4.408  10.745 -0.0921  0.5756 -0.0823
  870MOL0     C17375   3.030   4.377  10.794 -0.2492  0.6980  0.5846
  870MOL0     C17376   3.013   4.420  10.935 -0.2041 -0.9654  0.4981
  870MOL0     C17377   3.077   4.334  11.043  0.0989 -0.1762  0.6596
  870MOL0     C17378   3.072   4.390  11.183  0.7662  0.2856 -0.2595
  870MOL0     C17379   2.937   4.374  11.235  0.0615  0.4570 -1.1917
  870MOL0     C17380   2.834   4.350  11.296  0.1237  0.8341 -0.8133
  870MOL0     C17381   3.170   4.492  10.530 -0.8778  0.7036  0.4585
  870MOL0     C17382   3.173   4.474  10.391  0.0860  0.5212  0.6860
  870MOL0     H17383   3.092   4.059  10.060 -1.4874  3.3773  1.4374
  870MOL0     H17384   3.030   4.030   9.818 -0.7741  0.3765 -0.8157
  870MOL0     H17385   3.118   3.948   9.618  1.3995  1.2384  1.2656
  870MOL0     H17386   2.983   4.033   9.546  0.3238  3.5556 -0.8841
  870MOL0     H17387   3.129   3.912   9.367  0.3854 -0.5298 -0.0694
  870MOL0     H17388   3.124   4.080   9.340 -0.4687  0.3166  1.0932
  870MOL0     H17389   3.355   4.036   9.308 -0.1184 -1.8522 -0.5515
  870MOL0     H17390   3.342   4.110   9.455  0.5713 -0.1975  0.1144
  870MOL0     H17391   3.366   3.897   9.583  0.7360 -1.2472 -0.4282
  870MOL0     H17392   3.326   3.795   9.443  3.8876 -3.0653  0.2596
  870MOL0     H17393   3.558   3.793   9.474 -2.2005 -0.1851  0.5490
  870MOL0     H17394   3.525   3.871   9.326  1.8086  0.1689  0.5300
  870MOL0     H17395   3.568   4.098   9.472  1.5104  0.7910  1.6322
  870MOL0     H17396   3.620   3.984   9.585 -2.7492  3.0504  0.6229
  870MOL0     H17397   3.825   4.022   9.454  0.0249  1.2311 -0.7701
  870MOL0     H17398   3.757   3.872   9.404  0.5927  0.5901 -0.7433
  870MOL0     H17399   3.675   3.977   9.180 -4.2299  2.1071  2.2749
  870MOL0     H17400   3.844   4.025   9.215  1.1609 -1.8137  1.6488
  870MOL0     H17401   3.545   4.166   9.077  1.0511 -3.2222 -0.6643
  870MOL0     H17402   3.464   4.414   9.040  0.0730  0.7216 -1.1255
  870MOL0     H17403   3.596   4.531   9.028 -0.6029 -0.0299  2.5660
  870MOL0     H17404   3.572   4.279   8.872 -0.8523  0.2465  1.0990
  870MOL0     H17405   3.721   4.350   8.880 -1.0234 -1.4162  1.7124
  870MOL0     H17406   3.649   4.469   8.689 -2.1670  0.2995 -0.5876
  870MOL0     H17407   3.610   4.593   8.813 -2.2550  0.2070  0.2128
  870MOL0     H17408   3.378   4.462   8.826  0.1647  2.1856  1.6603
  870MOL0     H17409   3.452   4.370   8.686  0.3838  0.7083  1.2727
  870MOL0     H17410   3.371   4.642   8.929 -1.1400  1.6317  1.6701
  870MOL0     H17411   3.286   4.943   9.084 -2.8524 -3.2999  2.1543
  870MOL0     H17412   3.311   4.766   9.094  2.4805 -1.6658 -0.6763
  870MOL0     H17413   3.446   4.877   9.082  1.4029 -0.5499 -1.1976
  870MOL0     H17414   3.045   5.317   8.775 -0.2829  0.1677  0.6781
  870MOL0     H17415   3.038   5.574   8.802  0.0445 -0.5732 -1.1771
  870MOL0     H17416   3.327   5.770   8.974 -0.5506 -0.9571 -0.4062
  870MOL0     H17417   3.445   5.782   8.843  1.2888  2.2104  1.2625
  870MOL0     H17418   3.406   5.992   8.912 -0.0872 -3.4920  4.3664
  870MOL0     H17419   3.294   5.982   8.774  0.7883 -0.3365  0.3590
  870MOL0     H17420   3.121   5.899   8.965 -1.2096  0.5603  1.9077
  870MOL0     H17421   3.148   6.073   8.935 -0.4838 -0.1428 -1.6641
  870MOL0     H17422   3.304   5.934   9.149 -1.9432 -0.1817 -0.1013
  870MOL0     H17423   3.315   6.100   9.103  2.3090 -1.1284  2.4174
  870MOL0     H17424   3.056   6.098   9.149  0.8977 -2.6038 -1.9174
  870MOL0     H17425   3.182   6.137   9.270  1.9720 -1.3228  1.1869
  870MOL0     H17426   3.205   5.912   9.325  1.9053  4.1226  3.2672
  870MOL0     H17427   3.059   6.009   9.391 -0.1190  1.5335 -1.9508
  870MOL0     H17428   3.077   5.792   9.170 -2.4961 -0.8298  0.2889
  870MOL0     H17429   2.929   5.891   9.203 -0.0133  1.2203  0.1556
  870MOL0     H17430   3.065   5.676   9.359 -1.8701 -2.1869 -0.7599
  870MOL0     H17431   2.902   5.678   9.293  0.1619 -1.6158  1.7594
  870MOL0     H17432   3.466   5.574   8.736 -0.4116  1.6587  2.8412
  870MOL0     H17433   3.460   5.331   8.727  1.8300  2.9343  1.7601
  870MOL0     H17434   3.268   4.984   8.587  2.7281  0.2536 -0.6469
  870MOL0     H17435   3.295   4.757   8.522 -1.2080 -2.4433  0.5629
  870MOL0     H17436   3.326   4.308   9.691 -0.6398  0.6301 -0.9594
  870MOL0     H17437   3.402   4.335   9.937  1.0976 -0.8775 -1.6985
  870MOL0     H17438   3.198   4.138  10.380 -2.2503  0.0463 -0.5801
  870MOL0     H17439   3.227   4.177  10.634  0.2548 -1.4943 -1.3555
  870MOL0     H17440   2.957   4.431  10.735  0.6687  2.0019  0.5999
  870MOL0     H17441   3.012   4.270  10.781  1.9903  0.4230 -0.7967
  870MOL0     H17442   2.906   4.435  10.948 -0.0577 -1.2678  2.4496
  870MOL0     H17443   3.054   4.522  10.937  1.0489 -1.3589 -1.7730
  870MOL0     H17444   3.176   4.318  11.000  0.3227 -1.0102  1.4541
  870MOL0     H17445   3.029   4.236  11.042 -2.1989  0.8160  2.8553
  870MOL0     H17446   3.109   4.493  11.193 -2.2391  1.3574  1.1366
  870MOL0     H17447   3.140   4.332  11.247  0.5732 -0.0388 -0.3495
  870MOL0     H17448   2.742   4.345  11.350  1.9383 -1.9472  2.4578
  870MOL0     H17449   3.149   4.591  10.571  2.0857  0.9886  1.4699
  870MOL0     H17450   3.163   4.556  10.322  0.3402 -1.0018 -1.2303
  871MOL0     O17451   2.318   6.966  11.241  0.7884 -0.3407 -0.3983
  871MOL0     C17452   2.280   7.056  11.313 -0.5066 -0.6988 -0.2457
  871MOL0     O17453   2.286   7.062  11.441 -0.7662  0.4449  0.0813
  871MOL0     C17454   2.352   6.960  11.506  0.1086  0.2023 -0.9972
  871MOL0     C17455   2.329   6.816  11.486 -0.5974  0.1434  0.7891
  871MOL0     C17456   2.403   6.721  11.559  0.4420  0.2229 -0.9012
  871MOL0     C17457   2.508   6.754  11.646  0.6299  0.1361 -0.1287
  871MOL0     O17458   2.611   6.682  11.702  0.4269 -0.8732 -0.0331
  871MOL0     C17459   2.648   6.559  11.646  0.1462 -0.1466 -0.0864
  871MOL0     C17460   2.790   6.520  11.687  1.0045 -0.3244 -0.3945
  871MOL0     C17461   2.894   6.610  11.616 -0.0503  0.5335  0.4905
  871MOL0     C17462   3.027   6.584  11.677  0.0832  0.4659 -0.4088
  871MOL0     C17463   3.124   6.661  11.591 -0.0420  0.1159  0.0538
  871MOL0     C17464   3.273   6.610  11.621 -1.1090 -1.5837  0.5439
  871MOL0     C17465   3.381   6.694  11.538  0.0959 -0.0223 -0.7704
  871MOL0     C17466   3.526   6.693  11.591 -0.5105 -0.3943  0.5498
  871MOL0     N17467   3.620   6.792  11.534 -1.0559 -0.1757  0.4174
  871MOL0     C17468   3.658   6.796  11.400  0.2282  0.7128 -0.2274
  871MOL0     C17469   3.707   6.917  11.372 -0.4522 -0.4728 -1.2950
  871MOL0     C17470   3.745   6.972  11.243 -0.3759 -0.0554  0.1522
  871MOL0     C17471   3.898   6.997  11.237  0.2447  0.1539  0.5883
  871MOL0     C17472   3.959   6.853  11.221  0.8133 -1.3903  0.1582
  871MOL0     C17473   4.107   6.862  11.217 -0.5605 -0.6775 -0.6304
  871MOL0     O17474   4.156   6.948  11.318 -0.7076  0.3764  0.0950
  871MOL0     C17475   4.279   7.009  11.308 -0.7196 -0.0111  0.0921
  871MOL0     C17476   4.376   6.998  11.212  0.3426  1.4351  0.2824
  871MOL0     C17477   4.503   7.065  11.207  0.0623  0.5275  0.1492
  871MOL0     C17478   4.591   7.034  11.086  0.0868 -0.0576  0.4565
  871MOL0     C17479   4.540   7.138  11.316  1.0841 -0.1641  0.2636
  871MOL0     C17480   4.670   7.215  11.328  0.1696  0.5643 -0.1566
  871MOL0     O17481   4.683   7.284  11.446  0.3459 -0.2222 -0.4523
  871MOL0     C17482   4.791   7.365  11.467  0.1856  0.2521 -0.2823
  871MOL0     C17483   4.770   7.479  11.540 -0.3887  0.2107 -0.3660
  871MOL0     C17484   4.887   7.549  11.589  0.2856 -0.5815  0.2555
  871MOL0     C17485   5.016   7.524  11.549 -0.3747  0.8364  0.9251
  871MOL0     O17486   5.118   7.608  11.580 -0.2599  0.2862  0.3533
  871MOL0     C17487   5.218   7.633  11.480  0.0207 -0.1605  0.2592
  871MOL0     C17488   5.326   7.754  11.505  1.2653  0.6054  0.9739
  871MOL0     C17489   5.264   7.894  11.474 -0.7154  0.1546 -0.3146
  871MOL0     C17490   5.365   8.005  11.491  0.1291  0.8522  0.4256
  871MOL0     C17491   5.320   8.140  11.428  0.4714  0.0745  0.3324
  871MOL0     C17492   5.431   8.237  11.406 -0.4205  0.5072  0.7305
  871MOL0     C17493   5.505   8.212  11.272 -0.4660 -0.4517  0.3826
  871MOL0     C17494   5.632   8.289  11.257  0.1477 -0.0853 -0.4476
  871MOL0    Cl17495   5.606   8.453  11.195 -0.2378  0.6418  0.3685
  871MOL0     C17496   5.031   7.409  11.471 -1.0192  0.7243  0.3216
  871MOL0     C17497   4.923   7.323  11.436 -0.6941 -0.4719 -1.2229
  871MOL0     O17498   4.752   7.204  11.239  0.3145 -0.2854 -0.4070
  871MOL0     C17499   4.444   7.162  11.422 -0.6926  1.1715 -1.1815
  871MOL0     C17500   4.313   7.105  11.408  0.6385 -0.2548 -0.8343
  871MOL0     N17501   3.711   6.986  11.490 -0.2927 -0.3092 -0.2978
  871MOL0     N17502   3.658   6.909  11.588  0.2946  0.3495  0.8683
  871MOL0     C17503   2.515   6.894  11.677  0.2037  1.1252  0.6374
  871MOL0     C17504   2.434   6.995  11.621  0.1194  0.1357  0.7128
  871MOL0     C17505   2.219   7.163  11.236 -0.1458  0.3611 -0.2443
  871MOL0     C17506   2.151   7.262  11.309  0.1849  0.1936  0.4396
  871MOL0     C17507   2.087   7.362  11.236 -1.2796 -0.0677 -0.0313
  871MOL0     C17508   2.091   7.367  11.094 -0.6750 -0.8831 -0.2330
  871MOL0     O17509   2.023   7.475  11.036  0.2917  0.1654 -0.3234
  871MOL0     C17510   2.083   7.538  10.923  0.6373 -0.5785 -0.1991
  871MOL0     C17511   1.975   7.585  10.831  1.7946  0.0688 -0.9805
  871MOL0     C17512   1.901   7.461  10.769 -0.7403  0.1026  0.0759
  871MOL0     C17513   1.786   7.507  10.675 -0.1503 -0.2635 -0.1033
  871MOL0     C17514   1.751   7.395  10.581  0.3963 -0.6027  0.0602
  871MOL0     C17515   1.728   7.308  10.503 -0.0221 -0.7696 -0.0075
  871MOL0     C17516   2.163   7.266  11.028 -0.1526  0.2444  0.5459
  871MOL0     C17517   2.231   7.173  11.101  0.6577  0.6201 -0.1146
  871MOL0     H17518   2.271   6.783  11.400 -0.1414 -0.3314  0.6627
  871MOL0     H17519   2.385   6.616  11.539 -2.2331 -0.1607  2.5843
  871MOL0     H17520   2.589   6.473  11.681  0.7223 -0.9983 -1.1543
  871MOL0     H17521   2.651   6.562  11.537 -0.0120 -0.8452 -0.1176
  871MOL0     H17522   2.805   6.523  11.795 -0.3395 -0.9927 -0.1670
  871MOL0     H17523   2.817   6.416  11.668  1.4464 -0.7592  2.3069
  871MOL0     H17524   2.896   6.580  11.511  0.1595  1.9135  0.0821
  871MOL0     H17525   2.866   6.715  11.612  2.2760  1.2009  0.4115
  871MOL0     H17526   3.043   6.618  11.780  1.8446  0.0170 -0.5090
  871MOL0     H17527   3.033   6.475  11.676 -1.9357  0.3114 -0.3521
  871MOL0     H17528   3.107   6.653  11.484  1.1646  0.3916 -0.1704
  871MOL0     H17529   3.117   6.766  11.623  2.8861 -0.1743  2.0291
  871MOL0     H17530   3.299   6.632  11.725  1.1256  3.4196 -0.7544
  871MOL0     H17531   3.283   6.507  11.587  0.1587 -0.7964 -1.6725
  871MOL0     H17532   3.387   6.654  11.437  0.9179  1.9541 -1.5644
  871MOL0     H17533   3.347   6.798  11.534 -0.9310 -0.3604 -1.3383
  871MOL0     H17534   3.568   6.593  11.579  1.5031  0.4980 -0.2306
  871MOL0     H17535   3.521   6.717  11.698 -0.2205 -0.6799  0.6276
  871MOL0     H17536   3.628   6.733  11.317  1.5978  1.3385 -1.2209
  871MOL0     H17537   3.709   6.907  11.163 -0.2573 -0.1223  0.1541
  871MOL0     H17538   3.693   7.068  11.228 -1.8263 -1.0259 -1.4970
  871MOL0     H17539   3.940   7.042  11.328 -0.2247  1.1791  0.3198
  871MOL0     H17540   3.929   7.066  11.158 -0.7212  1.0533  0.9600
  871MOL0     H17541   3.923   6.814  11.125 -1.0428 -3.5153  1.5939
  871MOL0     H17542   3.922   6.774  11.288 -1.2515 -3.2931 -2.9567
  871MOL0     H17543   4.133   6.888  11.114  0.6703 -1.6903 -0.6019
  871MOL0     H17544   4.155   6.767  11.242  0.2097  0.3056  1.9973
  871MOL0     H17545   4.361   6.921  11.137  2.4207  0.8999  0.3478
  871MOL0     H17546   4.533   6.973  11.015 -1.4696  0.5998  1.1160
  871MOL0     H17547   4.609   7.129  11.037  1.4931  0.5914  2.1231
  871MOL0     H17548   4.680   6.983  11.124 -0.9442 -0.6044  2.2954
  871MOL0     H17549   4.667   7.508  11.561 -0.5292 -0.0103 -0.7269
  871MOL0     H17550   4.867   7.639  11.647  1.4084 -1.3922  1.9924
  871MOL0     H17551   5.279   7.542  11.471 -0.6288 -0.5920  0.1710
  871MOL0     H17552   5.177   7.635  11.379 -0.5448  0.2220  0.4960
  871MOL0     H17553   5.363   7.766  11.607  0.4474 -1.4385  1.5679
  871MOL0     H17554   5.415   7.742  11.441  0.7646 -3.4117  0.7438
  871MOL0     H17555   5.187   7.901  11.551 -0.8717  0.7272 -0.5108
  871MOL0     H17556   5.226   7.894  11.371  2.6395  0.5679 -1.7229
  871MOL0     H17557   5.395   8.015  11.596  2.4320 -2.0228  0.1711
  871MOL0     H17558   5.454   7.977  11.435 -0.4924 -0.1950 -0.0727
  871MOL0     H17559   5.240   8.180  11.490  1.3517 -2.9335  3.7779
  871MOL0     H17560   5.276   8.117  11.330 -0.8003 -0.2259  0.9581
  871MOL0     H17561   5.386   8.337  11.407 -1.5375  0.0502 -0.7060
  871MOL0     H17562   5.507   8.237  11.484  3.4167  1.7347 -2.6692
  871MOL0     H17563   5.435   8.228  11.189 -1.1697 -0.9098  0.8720
  871MOL0     H17564   5.524   8.104  11.280 -0.6336 -0.4356  1.0922
  871MOL0     H17565   5.694   8.239  11.181  1.7915 -1.3022  1.5668
  871MOL0     H17566   5.687   8.301  11.350 -0.6417 -2.0841  0.3362
  871MOL0     H17567   5.131   7.373  11.451 -0.2782  2.1439  1.3534
  871MOL0     H17568   4.941   7.232  11.380  2.3174 -0.2784 -0.7113
  871MOL0     H17569   4.459   7.206  11.520  2.0198 -0.9431 -0.5177
  871MOL0     H17570   4.244   7.122  11.490  1.4297  0.4812 -0.2997
  871MOL0     H17571   2.589   6.930  11.748  0.5416  4.3826 -1.1829
  871MOL0     H17572   2.446   7.101  11.637 -1.4248  1.1267 -3.4584
  871MOL0     H17573   2.148   7.279  11.416  2.1052 -0.4433  0.6327
  871MOL0     H17574   2.046   7.447  11.290  0.0383  0.3423  0.3533
  871MOL0     H17575   2.126   7.624  10.976  0.9942  0.7313 -2.4881
  871MOL0     H17576   2.164   7.489  10.869 -0.5196 -3.6565  0.6248
  871MOL0     H17577   2.011   7.653  10.753  0.6043 -1.7045 -3.2035
  871MOL0     H17578   1.908   7.650  10.888  1.4848 -0.7458 -0.3989
  871MOL0     H17579   1.860   7.399  10.850  0.2092 -0.8175 -0.1147
  871MOL0     H17580   1.973   7.393  10.722 -1.6098 -1.0925  0.4200
  871MOL0     H17581   1.824   7.592  10.618  1.8305 -2.3161 -2.0172
  871MOL0     H17582   1.694   7.542  10.724 -0.8359 -1.0958 -0.7678
  871MOL0     H17583   1.693   7.232  10.436 -1.7935 -0.9992  1.1057
  871MOL0     H17584   2.163   7.267  10.919  2.6601  1.9695  0.4812
  871MOL0     H17585   2.280   7.098  11.041 -0.8641 -0.5603  0.0523
  872MOL0     O17586   5.964   1.472   4.102  0.8655 -0.0665  0.0449
  872MOL0     C17587   6.050   1.541   4.157  0.1845  1.4245 -0.6203
  872MOL0     O17588   6.188   1.546   4.119  0.8861  0.2487 -0.3090
  872MOL0     C17589   6.227   1.493   3.993  0.7384 -1.3440  0.0665
  872MOL0     C17590   6.144   1.481   3.880 -0.7353 -0.3053  0.5920
  872MOL0     C17591   6.197   1.428   3.761  0.1376 -0.6194 -0.7578
  872MOL0     C17592   6.325   1.380   3.762  0.5234 -0.1631 -0.1539
  872MOL0     O17593   6.390   1.316   3.660  0.7225  0.5173 -0.0836
  872MOL0     C17594   6.302   1.250   3.564  0.2964 -0.3939 -0.2802
  872MOL0     C17595   6.397   1.167   3.471  0.3115 -0.5444 -0.3552
  872MOL0     C17596   6.440   1.246   3.344  0.2426 -0.4367  0.2896
  872MOL0     C17597   6.544   1.176   3.251 -0.1575  0.6305 -1.0138
  872MOL0     C17598   6.560   1.026   3.261  0.4887  0.2229 -0.4304
  872MOL0     C17599   6.635   0.966   3.147  0.7334  0.2545 -0.2036
  872MOL0     C17600   6.678   0.829   3.159 -0.3128  0.0770 -0.6976
  872MOL0     C17601   6.594   0.725   3.086 -0.3273 -0.3389  0.1562
  872MOL0     N17602   6.458   0.702   3.144  0.1262 -0.0343  0.7615
  872MOL0     C17603   6.436   0.633   3.259  0.5777 -1.1989  0.0471
  872MOL0     C17604   6.312   0.656   3.298 -0.0738  0.3350  0.1615
  872MOL0     C17605   6.243   0.589   3.417  0.2629  0.2507  0.2005
  872MOL0     C17606   6.271   0.668   3.542 -0.1864  0.2280 -0.6126
  872MOL0     C17607   6.201   0.803   3.557 -0.1557 -0.7132  1.5920
  872MOL0     C17608   6.229   0.868   3.692 -0.9687  0.3764 -0.1708
  872MOL0     O17609   6.366   0.907   3.714 -0.7207  0.1410 -0.1810
  872MOL0     C17610   6.411   0.871   3.835 -0.8483  0.4614 -0.7576
  872MOL0     C17611   6.415   0.970   3.938 -1.3395 -0.4770  0.4598
  872MOL0     C17612   6.453   0.929   4.073 -0.3146  0.1482  0.3701
  872MOL0     C17613   6.468   1.027   4.186 -0.0196 -0.3832 -0.2775
  872MOL0     C17614   6.478   0.792   4.100  0.9334 -0.3787 -0.3509
  872MOL0     C17615   6.490   0.750   4.234 -0.1399 -0.6944  0.3030
  872MOL0     O17616   6.390   0.789   4.316 -0.9921 -0.8436  0.2369
  872MOL0     C17617   6.403   0.754   4.445  0.6392  0.8764 -0.5495
  872MOL0     C17618   6.294   0.688   4.503 -0.3045 -0.9607 -0.0509
  872MOL0     C17619   6.297   0.635   4.630  0.2467 -0.5090  0.3488
  872MOL0     C17620   6.404   0.659   4.718  0.0215  0.6998  0.5324
  872MOL0     O17621   6.398   0.608   4.848  0.4569  0.6225 -0.0782
  872MOL0     C17622   6.438   0.696   4.957 -0.7373  0.2471  0.6533
  872MOL0     C17623   6.364   0.831   4.973 -0.2461 -0.6776  0.1243
  872MOL0     C17624   6.228   0.798   5.039 -0.1322 -0.8779 -0.8314
  872MOL0     C17625   6.110   0.821   4.943 -0.5637  0.2745  0.3136
  872MOL0     C17626   5.986   0.858   5.022  0.2957 -0.0072 -0.2920
  872MOL0     C17627   5.974   1.000   5.080  0.4091 -0.3111  0.5469
  872MOL0     C17628   5.929   1.104   4.972  0.1564 -0.2197  0.1558
  872MOL0     C17629   5.906   1.237   5.041  0.7169  0.2294  0.4513
  872MOL0    Cl17630   5.729   1.257   5.078  0.4892 -0.1387 -0.6631
  872MOL0     C17631   6.518   0.722   4.655 -0.3518 -0.3929 -0.1628
  872MOL0     C17632   6.524   0.765   4.519 -0.8786 -0.4564 -0.5083
  872MOL0     O17633   6.571   0.662   4.259  0.1316 -0.2542 -0.5735
  872MOL0     C17634   6.479   0.703   3.991 -0.2369  0.0208 -1.1648
  872MOL0     C17635   6.451   0.739   3.865  1.3875  0.3597  0.0789
  872MOL0     N17636   6.261   0.734   3.207  0.8853 -0.4324 -0.6110
  872MOL0     N17637   6.345   0.761   3.110  0.3013 -0.5768 -0.5117
  872MOL0     C17638   6.403   1.389   3.869 -0.0543 -0.1434 -0.6312
  872MOL0     C17639   6.362   1.450   3.988 -0.0902  0.0727  0.5715
  872MOL0     C17640   6.005   1.590   4.288 -0.6936 -0.2975  0.7791
  872MOL0     C17641   6.108   1.649   4.371  1.1256 -0.3730  0.3366
  872MOL0     C17642   6.082   1.700   4.494  0.2152  0.2137 -0.7757
  872MOL0     C17643   5.950   1.698   4.550  0.4491  0.3688  0.0144
  872MOL0     O17644   5.930   1.764   4.668 -0.3612 -0.1963 -0.5292
  872MOL0     C17645   5.795   1.792   4.714  0.3944  0.1246 -0.1791
  872MOL0     C17646   5.794   1.800   4.870 -0.1834  1.0439 -0.0845
  872MOL0     C17647   5.666   1.863   4.915  0.3918  0.7137  0.6267
  872MOL0     C17648   5.557   1.769   4.972  0.1202  0.3832  1.2115
  872MOL0     C17649   5.445   1.846   5.037  1.3463 -0.5246 -0.2402
  872MOL0     C17650   5.346   1.902   5.088 -0.4313  0.1239 -0.0543
  872MOL0     C17651   5.852   1.632   4.477 -0.3740 -1.1491  0.2013
  872MOL0     C17652   5.874   1.575   4.346 -0.7765 -0.1888  0.9069
  872MOL0     H17653   6.042   1.519   3.883 -0.3244  0.8800  0.0849
  872MOL0     H17654   6.135   1.422   3.671 -1.2623 -1.6920  0.2269
  872MOL0     H17655   6.240   1.179   3.620  0.1347 -0.9545 -1.1624
  872MOL0     H17656   6.240   1.318   3.505  1.7942  1.9864  0.7117
  872MOL0     H17657   6.494   1.144   3.518  2.5448 -0.1177 -4.3563
  872MOL0     H17658   6.348   1.070   3.460  0.4505 -0.5283 -1.1912
  872MOL0     H17659   6.346   1.245   3.287 -0.5788 -0.3276  1.5812
  872MOL0     H17660   6.456   1.349   3.376  0.4727 -0.7009  1.0513
  872MOL0     H17661   6.522   1.200   3.146 -0.1886  3.0878 -0.5229
  872MOL0     H17662   6.641   1.220   3.276 -1.4307  1.5765  2.9399
  872MOL0     H17663   6.617   1.010   3.353 -1.9865  0.8222  1.3217
  872MOL0     H17664   6.463   0.978   3.275 -0.1151  1.5646  0.2206
  872MOL0     H17665   6.580   0.977   3.053  0.5742  0.8282 -0.0497
  872MOL0     H17666   6.728   1.024   3.146  2.0083 -1.7113 -1.4282
  872MOL0     H17667   6.784   0.814   3.138  0.0206 -0.3053  1.0533
  872MOL0     H17668   6.660   0.804   3.264 -4.7269 -1.7027 -1.6635
  872MOL0     H17669   6.656   0.634   3.094  1.1158  0.3541 -2.0934
  872MOL0     H17670   6.596   0.769   2.986 -0.1703  2.4236  1.2976
  872MOL0     H17671   6.504   0.561   3.302 -1.0534 -3.2283 -0.6054
  872MOL0     H17672   6.134   0.586   3.400  0.0523  0.2114  1.4858
  872MOL0     H17673   6.282   0.488   3.428 -2.8325 -0.8733  2.2834
  872MOL0     H17674   6.379   0.685   3.548 -0.1314 -0.3241  0.1475
  872MOL0     H17675   6.248   0.601   3.626 -0.2021  0.7178 -0.2222
  872MOL0     H17676   6.094   0.781   3.552 -0.2554 -0.2369  1.6532
  872MOL0     H17677   6.229   0.871   3.476  2.9059 -1.0593  2.2487
  872MOL0     H17678   6.205   0.797   3.771 -2.5584 -1.3335 -2.0898
  872MOL0     H17679   6.171   0.960   3.707 -2.1704 -0.2010 -1.1079
  872MOL0     H17680   6.408   1.075   3.911  1.2018 -0.2491  0.5102
  872MOL0     H17681   6.486   1.118   4.127  1.0760 -1.7707 -2.2119
  872MOL0     H17682   6.366   1.049   4.218  1.2006  3.3781  1.6853
  872MOL0     H17683   6.541   1.006   4.265 -1.4668 -1.9537  0.7145
  872MOL0     H17684   6.201   0.674   4.449 -1.8956  1.0986  1.9192
  872MOL0     H17685   6.212   0.573   4.657  0.9954 -2.1635 -0.9344
  872MOL0     H17686   6.443   0.641   5.052  0.9811  2.4050  1.8979
  872MOL0     H17687   6.541   0.727   4.933 -0.3138  0.7664  2.9178
  872MOL0     H17688   6.428   0.885   5.042  0.3303 -0.6683 -0.4066
  872MOL0     H17689   6.359   0.884   4.877  0.2238 -0.6107  0.1363
  872MOL0     H17690   6.214   0.865   5.124  1.4524  2.3390 -2.9148
  872MOL0     H17691   6.240   0.696   5.076 -0.5000 -0.7879 -0.4585
  872MOL0     H17692   6.128   0.902   4.871 -1.9433  0.1821 -0.1840
  872MOL0     H17693   6.089   0.737   4.877 -0.7602  0.3055  0.3329
  872MOL0     H17694   5.986   0.781   5.100  3.3747 -1.1266 -1.2259
  872MOL0     H17695   5.902   0.845   4.953  0.5069 -2.1959 -0.2106
  872MOL0     H17696   5.908   0.990   5.167  1.0490 -1.1655  0.9488
  872MOL0     H17697   6.067   1.043   5.119 -1.6540  2.2505  3.1023
  872MOL0     H17698   5.836   1.071   4.924  1.2672  0.2908 -2.5299
  872MOL0     H17699   6.011   1.125   4.902  0.4941  3.1862  1.3859
  872MOL0     H17700   5.926   1.317   4.969 -1.5859 -0.6334 -1.2614
  872MOL0     H17701   5.978   1.248   5.122  0.4404  0.1372  0.7086
  872MOL0     H17702   6.605   0.726   4.720 -1.3800  3.5078  1.2576
  872MOL0     H17703   6.619   0.810   4.492  0.2712 -1.1076  2.1207
  872MOL0     H17704   6.482   0.595   4.002 -2.4091 -0.2609 -2.7524
  872MOL0     H17705   6.462   0.666   3.785  0.1615 -1.4065  1.4431
  872MOL0     H17706   6.499   1.339   3.876  0.1995  0.5915  2.7609
  872MOL0     H17707   6.433   1.470   4.069  0.0112 -1.8906  1.0209
  872MOL0     H17708   6.213   1.645   4.341  2.3424  3.6127  3.3054
  872MOL0     H17709   6.152   1.763   4.546 -1.9632  1.9900  0.1723
  872MOL0     H17710   5.746   1.880   4.670  0.7449  0.0374 -0.7442
  872MOL0     H17711   5.732   1.704   4.697  2.4290 -1.8183  1.6312
  872MOL0     H17712   5.879   1.854   4.912  2.0842 -0.2312 -2.7484
  872MOL0     H17713   5.804   1.698   4.908  1.2406  2.4404  3.7966
  872MOL0     H17714   5.627   1.918   4.829  2.2581 -0.4550 -1.0395
  872MOL0     H17715   5.693   1.934   4.994 -1.3608  0.4584  1.5228
  872MOL0     H17716   5.601   1.702   5.046 -0.7975 -1.6312 -0.0018
  872MOL0     H17717   5.521   1.714   4.885 -1.2089  0.0191  1.9617
  872MOL0     H17718   5.258   1.955   5.120 -1.9943 -2.1761 -0.2667
  872MOL0     H17719   5.749   1.613   4.503 -1.0930  0.0780 -1.5391
  872MOL0     H17720   5.796   1.525   4.290 -0.2391 -0.6141  0.5363
  873MOL0     O17721   7.213   5.865   9.440 -0.3521  1.1455  0.1417
  873MOL0     C17722   7.151   5.778   9.383  0.0910  0.0805  0.3983
  873MOL0     O17723   7.030   5.715   9.435 -0.3844  0.0159  0.5558
  873MOL0     C17724   6.989   5.746   9.560 -0.0782 -0.4487 -0.0550
  873MOL0     C17725   6.848   5.732   9.584 -1.1319  0.2126 -0.6513
  873MOL0     C17726   6.799   5.740   9.705 -0.9281 -0.8991  0.4185
  873MOL0     C17727   6.882   5.757   9.817 -0.4808 -0.8379 -0.3011
  873MOL0     O17728   6.828   5.759   9.943 -0.6554 -0.0542  0.3131
  873MOL0     C17729   6.913   5.786  10.053  0.3052 -0.3657  0.7698
  873MOL0     C17730   6.832   5.786  10.188 -1.1650 -0.4461  0.1087
  873MOL0     C17731   6.776   5.925  10.219 -0.5719 -1.0722  0.3828
  873MOL0     C17732   6.682   5.928  10.338  0.0381  0.0026  0.1906
  873MOL0     C17733   6.687   6.060  10.416 -0.4291 -0.4286  0.1770
  873MOL0     C17734   6.652   6.188  10.337  0.7881 -0.3853  1.1755
  873MOL0     C17735   6.503   6.193  10.306  0.1458  0.1970 -0.0241
  873MOL0     C17736   6.480   6.327  10.240  0.4497 -0.0551 -0.7761
  873MOL0     N17737   6.349   6.331  10.182  0.2835  0.7292 -0.2546
  873MOL0     C17738   6.309   6.324  10.050  0.0594 -0.6929  0.0221
  873MOL0     C17739   6.184   6.375  10.053  0.2793 -0.0685  0.3789
  873MOL0     C17740   6.112   6.375   9.922  0.1215 -0.9517  1.0784
  873MOL0     C17741   5.994   6.470   9.917  1.3002  0.4845  0.6373
  873MOL0     C17742   5.897   6.430   9.806  0.0886  0.1364 -0.0754
  873MOL0     C17743   5.778   6.531   9.789 -0.0696 -0.3690  0.6573
  873MOL0     O17744   5.718   6.563   9.911 -0.1801 -0.2136 -0.0720
  873MOL0     C17745   5.599   6.504   9.949  0.1694 -0.0775 -0.0474
  873MOL0     C17746   5.527   6.565  10.055  0.0486 -0.2083 -0.0832
  873MOL0     C17747   5.414   6.507  10.102 -0.4837 -0.7665  0.6725
  873MOL0     C17748   5.365   6.580  10.222 -0.6236 -0.3261  0.8823
  873MOL0     C17749   5.350   6.397  10.036  0.3060 -0.1652  1.0384
  873MOL0     C17750   5.217   6.332  10.065  0.4546  0.0810  0.3363
  873MOL0     O17751   5.140   6.386  10.152 -0.2503  0.5392 -1.0631
  873MOL0     C17752   5.006   6.398  10.113 -0.5950 -0.7366 -0.2452
  873MOL0     C17753   4.975   6.529  10.088 -0.2548 -0.4967 -1.0225
  873MOL0     C17754   4.842   6.562  10.037 -0.9735  0.5590  1.4783
  873MOL0     C17755   4.751   6.461  10.024  0.5299  0.5239 -0.6860
  873MOL0     O17756   4.622   6.504   9.986  0.0309  0.3204  0.0639
  873MOL0     C17757   4.509   6.410  10.008 -0.3959 -0.3341 -0.7654
  873MOL0     C17758   4.364   6.478   9.972 -1.0990 -0.7868 -0.4922
  873MOL0     C17759   4.300   6.571  10.078 -0.5587 -0.1163  0.3730
  873MOL0     C17760   4.169   6.630  10.030 -0.1224  0.3310 -0.1158
  873MOL0     C17761   4.097   6.692  10.154 -0.2822 -0.1015  0.4664
  873MOL0     C17762   3.947   6.731  10.112  0.0003 -0.0723  0.2390
  873MOL0     C17763   3.859   6.603  10.083 -0.4681 -1.1112  0.5462
  873MOL0     C17764   3.879   6.490  10.183  0.3288 -0.6570  0.5859
  873MOL0    Cl17765   3.855   6.554  10.351  0.1918  0.1288  0.5619
  873MOL0     C17766   4.793   6.328  10.048  1.3068  0.5088 -0.4926
  873MOL0     C17767   4.924   6.295  10.092  0.5887 -0.1198  0.6629
  873MOL0     O17768   5.199   6.215  10.025  0.1027 -1.0385  0.6013
  873MOL0     C17769   5.421   6.338   9.935 -0.8105  0.3519 -0.5359
  873MOL0     C17770   5.550   6.378   9.903 -0.2775  0.8615  0.0728
  873MOL0     N17771   6.136   6.386  10.175 -0.3486  0.3333  0.6940
  873MOL0     N17772   6.240   6.367  10.259  1.0325 -0.7664 -0.5157
  873MOL0     C17773   7.024   5.770   9.797  0.5357 -0.9755 -0.3082
  873MOL0     C17774   7.074   5.776   9.672 -0.3379  0.3344  0.6243
  873MOL0     C17775   7.194   5.725   9.257 -0.3280  0.0993 -0.0926
  873MOL0     C17776   7.119   5.629   9.190 -0.7178  0.5544  0.1676
  873MOL0     C17777   7.154   5.597   9.060 -0.2778 -0.2358  0.3616
  873MOL0     C17778   7.264   5.643   8.995 -0.1443  0.5821 -0.0059
  873MOL0     O17779   7.293   5.593   8.873  0.2806 -0.6338 -0.4334
  873MOL0     C17780   7.238   5.668   8.769 -0.3489  0.6600  0.1299
  873MOL0     C17781   7.247   5.603   8.636 -0.4202 -0.3130 -0.3392
  873MOL0     C17782   7.395   5.578   8.589  0.2459  0.3716 -0.1535
  873MOL0     C17783   7.409   5.468   8.483  0.6170  0.0330 -0.0370
  873MOL0     C17784   7.385   5.524   8.348  0.9891  0.7081 -0.6643
  873MOL0     C17785   7.367   5.568   8.234 -0.6410 -1.3313  0.3170
  873MOL0     C17786   7.342   5.737   9.054  0.3802 -1.2494 -0.4305
  873MOL0     C17787   7.298   5.789   9.182 -1.3282  0.3295 -0.0740
  873MOL0     H17788   6.794   5.711   9.493 -1.5342 -0.9872 -0.1439
  873MOL0     H17789   6.692   5.723   9.714 -1.1564  0.1106 -0.2299
  873MOL0     H17790   6.981   5.701  10.058 -0.3673 -1.3846 -3.7239
  873MOL0     H17791   6.968   5.879  10.037 -0.2961 -0.1876 -0.3643
  873MOL0     H17792   6.757   5.707  10.177 -0.5888 -1.1839  1.1939
  873MOL0     H17793   6.891   5.741  10.269 -0.1514  0.2873 -0.2006
  873MOL0     H17794   6.868   5.982  10.235 -0.9087 -0.8965  1.8303
  873MOL0     H17795   6.723   5.963  10.131  1.8664  2.6526  0.3250
  873MOL0     H17796   6.579   5.922  10.303  0.4564 -0.0615 -1.0657
  873MOL0     H17797   6.704   5.835  10.393 -0.4255 -1.7686 -2.4326
  873MOL0     H17798   6.618   6.061  10.502  1.8998 -1.8502  2.1870
  873MOL0     H17799   6.783   6.064  10.468  0.1114 -0.7956 -0.7843
  873MOL0     H17800   6.687   6.277  10.390  2.2981 -0.4837  0.3936
  873MOL0     H17801   6.712   6.180  10.246  0.1825  0.1954  0.7103
  873MOL0     H17802   6.487   6.114  10.232  1.1898 -1.4043  1.4015
  873MOL0     H17803   6.450   6.173  10.399  3.4894 -2.4537  1.5053
  873MOL0     H17804   6.555   6.337  10.161  3.1118 -1.9609  1.3514
  873MOL0     H17805   6.488   6.407  10.314  1.9931 -0.2956 -0.6489
  873MOL0     H17806   6.364   6.286   9.965 -2.2973 -0.8101 -1.5328
  873MOL0     H17807   6.176   6.396   9.836  1.1381 -0.3946  1.9460
  873MOL0     H17808   6.078   6.273   9.901  3.8593 -1.5030 -4.3031
  873MOL0     H17809   6.020   6.575   9.901  1.6336  0.2971 -0.0994
  873MOL0     H17810   5.927   6.459  10.003 -2.6135  2.4481 -1.8585
  873MOL0     H17811   5.858   6.332   9.834 -0.1818  0.9790  2.9272
  873MOL0     H17812   5.956   6.432   9.714 -0.3192 -0.3543 -0.3498
  873MOL0     H17813   5.709   6.480   9.722  0.6169 -1.4106  0.7211
  873MOL0     H17814   5.820   6.617   9.735 -3.2994  0.5509 -0.6125
  873MOL0     H17815   5.571   6.654  10.097 -0.6384  1.0759 -1.9632
  873MOL0     H17816   5.437   6.611  10.297  1.0677 -2.1380  0.1004
  873MOL0     H17817   5.303   6.663  10.187  1.3892  0.2942 -1.5027
  873MOL0     H17818   5.294   6.522  10.282 -1.8141  0.5469  0.3721
  873MOL0     H17819   5.054   6.602  10.101  0.8009 -0.9510 -3.9309
  873MOL0     H17820   4.814   6.664  10.013  1.1925  1.5850  3.0093
  873MOL0     H17821   4.516   6.319   9.947 -1.0806  1.1287 -3.2021
  873MOL0     H17822   4.527   6.387  10.113  1.4716  0.3782 -0.8967
  873MOL0     H17823   4.373   6.540   9.883  2.6024  0.8013  0.7994
  873MOL0     H17824   4.299   6.391   9.959 -2.7702  0.0084  1.7855
  873MOL0     H17825   4.372   6.643  10.119  0.8816 -2.7650  2.8267
  873MOL0     H17826   4.271   6.508  10.161  1.1204 -0.4657  0.7286
  873MOL0     H17827   4.187   6.703   9.951 -2.4316 -0.1366 -1.1720
  873MOL0     H17828   4.110   6.544   9.995  0.3652 -0.0581 -0.0022
  873MOL0     H17829   4.145   6.786  10.183  1.4983 -1.4205  2.1167
  873MOL0     H17830   4.103   6.621  10.237 -1.4199 -0.6871  0.0576
  873MOL0     H17831   3.898   6.777  10.199 -0.2426 -3.9586  2.3895
  873MOL0     H17832   3.947   6.793  10.022 -1.3536 -4.0005 -2.8060
  873MOL0     H17833   3.868   6.564   9.981  0.3200  1.2298 -0.3622
  873MOL0     H17834   3.760   6.649  10.093  2.0464  4.8396  2.7038
  873MOL0     H17835   3.983   6.457  10.170  1.0899  0.8442  2.3997
  873MOL0     H17836   3.801   6.418  10.156 -0.4593 -0.2534  1.7674
  873MOL0     H17837   4.731   6.241  10.027  4.2943 -1.3903 -2.3070
  873MOL0     H17838   4.955   6.190  10.092 -0.4890 -0.5646 -2.6551
  873MOL0     H17839   5.394   6.246   9.884  2.2502  0.7084 -3.1371
  873MOL0     H17840   5.603   6.315   9.831 -0.5703  0.9718 -0.2391
  873MOL0     H17841   7.093   5.782   9.880 -0.5273 -0.4204  0.5093
  873MOL0     H17842   7.180   5.767   9.654 -0.1923 -1.4272  2.1284
  873MOL0     H17843   7.039   5.564   9.225  0.1260  0.2972  1.7476
  873MOL0     H17844   7.093   5.526   9.005  2.4825  0.7594 -4.4947
  873MOL0     H17845   7.135   5.688   8.800  0.1226 -3.3097  5.7723
  873MOL0     H17846   7.304   5.754   8.762  0.3874 -0.0317 -2.8438
  873MOL0     H17847   7.194   5.668   8.565 -1.5298  0.8524  1.4815
  873MOL0     H17848   7.195   5.507   8.641 -0.1504 -0.3784  2.1037
  873MOL0     H17849   7.451   5.542   8.675  0.3755  2.4460  0.6844
  873MOL0     H17850   7.441   5.673   8.562 -0.3628  0.7662  0.1904
  873MOL0     H17851   7.336   5.388   8.500 -0.2152  0.5980 -0.7954
  873MOL0     H17852   7.511   5.429   8.484  1.5666  2.1119 -2.5669
  873MOL0     H17853   7.367   5.609   8.135 -2.9591 -0.1233  0.7454
  873MOL0     H17854   7.433   5.783   9.016  1.7805 -0.0347  3.7937
  873MOL0     H17855   7.354   5.857   9.245  1.9944 -3.6690  1.7902
  874MOL0     O17856   6.061   1.625   3.490  0.3948  0.2349  0.4209
  874MOL0     C17857   6.057   1.719   3.570 -0.7474  0.8557  1.2751
  874MOL0     O17858   5.954   1.742   3.646  0.2900  0.0911 -0.1949
  874MOL0     C17859   5.833   1.678   3.615  0.2819  0.0487  0.2368
  874MOL0     C17860   5.775   1.701   3.495 -0.3915  0.0259 -0.5386
  874MOL0     C17861   5.647   1.647   3.472 -0.1354  0.9696  0.9967
  874MOL0     C17862   5.578   1.563   3.555  0.1675 -0.1292  0.3555
  874MOL0     O17863   5.453   1.524   3.517  0.1200  0.4329  0.3548
  874MOL0     C17864   5.443   1.458   3.381  0.3565  0.4097  0.4350
  874MOL0     C17865   5.524   1.324   3.371 -0.7064 -0.7837 -0.2628
  874MOL0     C17866   5.664   1.325   3.318  0.8117  0.1676  0.7177
  874MOL0     C17867   5.710   1.175   3.323  0.3083 -0.5142  0.4923
  874MOL0     C17868   5.851   1.155   3.261  0.0313 -0.2992  0.4854
  874MOL0     C17869   5.958   1.199   3.367 -0.1741  0.4425 -0.5975
  874MOL0     C17870   5.965   1.110   3.494 -0.2238  0.0450 -0.4447
  874MOL0     C17871   5.940   1.195   3.624 -0.4865 -0.9012  0.3426
  874MOL0     N17872   5.935   1.108   3.749  0.2640  0.3987  0.5038
  874MOL0     C17873   6.022   1.133   3.856  0.1573  0.8661  0.4236
  874MOL0     C17874   5.994   1.031   3.943  0.7924  0.1746 -0.3105
  874MOL0     C17875   6.047   1.019   4.078  0.1619 -0.0126  0.0154
  874MOL0     C17876   5.945   1.073   4.178 -0.5544  0.2878  0.6345
  874MOL0     C17877   5.997   1.040   4.328  0.4059 -0.4516 -0.1823
  874MOL0     C17878   5.916   1.083   4.449 -0.3152 -1.0766  0.6769
  874MOL0     O17879   5.801   1.011   4.475 -0.7564  1.1711  0.6093
  874MOL0     C17880   5.709   1.059   4.559  0.6985  0.0646  0.2184
  874MOL0     C17881   5.701   1.192   4.610 -0.1367  0.5409 -1.5557
  874MOL0     C17882   5.601   1.222   4.709  0.0639 -1.3822 -0.2892
  874MOL0     C17883   5.586   1.368   4.764  0.5256  0.5342 -0.1613
  874MOL0     C17884   5.507   1.130   4.750 -0.2888  0.3772  0.3956
  874MOL0     C17885   5.410   1.167   4.859 -0.7173  0.0241 -0.4541
  874MOL0     O17886   5.376   1.054   4.938  0.1411 -0.2659  0.0505
  874MOL0     C17887   5.378   1.060   5.075 -0.1936  0.8645 -0.4120
  874MOL0     C17888   5.432   1.165   5.149 -0.1199 -0.3570 -0.0169
  874MOL0     C17889   5.441   1.153   5.288  0.2240 -0.4009 -0.7170
  874MOL0     C17890   5.408   1.033   5.358 -0.3528  1.3221  0.7299
  874MOL0     O17891   5.430   1.012   5.495 -0.0814 -0.6426 -0.0476
  874MOL0     C17892   5.308   1.049   5.561  1.2510 -0.0566 -1.0903
  874MOL0     C17893   5.255   0.939   5.658 -0.4324  0.1436  0.1457
  874MOL0     C17894   5.363   0.922   5.758 -0.1341  0.6165 -0.3544
  874MOL0     C17895   5.335   0.833   5.879  0.5461  0.3650 -1.1323
  874MOL0     C17896   5.452   0.844   5.978 -0.8467  0.9426 -0.1727
  874MOL0     C17897   5.418   0.805   6.123  0.1741 -0.3308  0.1732
  874MOL0     C17898   5.323   0.688   6.145  0.3577 -0.5214  0.3452
  874MOL0     C17899   5.307   0.672   6.295  0.8423 -0.0984 -0.3234
  874MOL0    Cl17900   5.191   0.536   6.339  0.3229  0.6101  0.6852
  874MOL0     C17901   5.341   0.935   5.283  0.1881  0.6584 -0.3528
  874MOL0     C17902   5.326   0.947   5.141  0.7118 -0.1245  0.3062
  874MOL0     O17903   5.350   1.278   4.875 -0.3088  0.5090  0.1927
  874MOL0     C17904   5.516   0.997   4.702  0.1539  0.1957  0.1530
  874MOL0     C17905   5.611   0.961   4.598  0.5801  1.5819  0.1132
  874MOL0     N17906   5.894   0.941   3.888 -0.0484 -0.6181  0.1785
  874MOL0     N17907   5.864   0.992   3.766 -0.7529  0.4624  0.4530
  874MOL0     C17908   5.640   1.529   3.677  0.6528  0.0701  0.1963
  874MOL0     C17909   5.761   1.591   3.709 -0.6049 -0.5558  0.1175
  874MOL0     C17910   6.196   1.780   3.599 -0.3594 -0.5750 -1.2385
  874MOL0     C17911   6.314   1.738   3.536 -0.6792  0.6030  0.8043
  874MOL0     C17912   6.432   1.796   3.578 -0.3160 -0.0694  1.1783
  874MOL0     C17913   6.434   1.906   3.654 -0.1688  0.1312  0.6902
  874MOL0     O17914   6.548   1.954   3.697 -0.1748  0.4795  0.2535
  874MOL0     C17915   6.601   2.082   3.646  0.8990  0.3640 -0.2655
  874MOL0     C17916   6.603   2.115   3.495 -0.6034 -0.6628  0.1449
  874MOL0     C17917   6.675   2.248   3.455  0.8867 -0.5104 -1.1553
  874MOL0     C17918   6.822   2.259   3.506  0.2252 -0.2061  0.6422
  874MOL0     C17919   6.884   2.371   3.434 -0.5695 -0.0077  0.3053
  874MOL0     C17920   6.937   2.466   3.379  0.0904 -0.0734  0.0418
  874MOL0     C17921   6.322   1.966   3.717  0.9901  0.5499  0.3544
  874MOL0     C17922   6.200   1.895   3.680 -0.1172 -0.3288 -0.3480
  874MOL0     H17923   5.830   1.756   3.420 -0.8665  2.3996  0.7502
  874MOL0     H17924   5.593   1.677   3.382 -1.5376 -1.4743  0.9280
  874MOL0     H17925   5.337   1.444   3.356  1.1488 -1.2714 -2.2971
  874MOL0     H17926   5.481   1.524   3.302  2.7623 -3.7759 -2.2326
  874MOL0     H17927   5.525   1.290   3.475 -2.8201  1.4730  0.6042
  874MOL0     H17928   5.467   1.247   3.319 -1.2734 -2.5441  2.7251
  874MOL0     H17929   5.674   1.363   3.215  1.4972 -2.5404 -0.2980
  874MOL0     H17930   5.719   1.394   3.383 -0.0166  0.6752  0.8862
  874MOL0     H17931   5.707   1.134   3.424  1.0209 -0.2617  0.6230
  874MOL0     H17932   5.634   1.125   3.262  1.2556 -0.9167 -0.3819
  874MOL0     H17933   5.870   1.048   3.248 -1.4892 -0.5241 -0.1445
  874MOL0     H17934   5.846   1.215   3.170  0.1457 -1.4765 -0.3109
  874MOL0     H17935   6.051   1.199   3.309 -0.6024  1.3886 -1.2964
  874MOL0     H17936   5.929   1.299   3.402 -1.3963 -0.8345  2.4446
  874MOL0     H17937   5.904   1.019   3.486  3.2834 -2.8238  2.1699
  874MOL0     H17938   6.066   1.073   3.516 -0.2851  1.4667  2.5855
  874MOL0     H17939   5.844   1.245   3.616 -1.3564 -2.5080  0.2339
  874MOL0     H17940   6.021   1.266   3.645  1.1512 -3.1894  2.3841
  874MOL0     H17941   6.085   1.221   3.869 -2.2313  3.2554 -2.4562
  874MOL0     H17942   6.065   0.913   4.097  3.5130  0.7504  1.7740
  874MOL0     H17943   6.148   1.059   4.074 -0.3846  1.2888 -1.4629
  874MOL0     H17944   5.850   1.021   4.160  1.0817 -1.9071 -2.9312
  874MOL0     H17945   5.934   1.181   4.179  0.8187  0.4488  1.9694
  874MOL0     H17946   6.093   1.091   4.340  0.0468 -0.0852  1.2964
  874MOL0     H17947   6.023   0.934   4.333  0.0116 -0.5737 -0.6634
  874MOL0     H17948   5.896   1.189   4.428  0.4762 -0.3006  3.4654
  874MOL0     H17949   5.997   1.083   4.522  2.2342  1.5194 -1.8637
  874MOL0     H17950   5.757   1.282   4.588  0.0572  0.8884  0.1799
  874MOL0     H17951   5.489   1.413   4.742  0.7072  0.6698 -0.6807
  874MOL0     H17952   5.598   1.377   4.873 -0.6180 -2.7715  0.3494
  874MOL0     H17953   5.651   1.437   4.710  0.3518  0.4599 -0.4648
  874MOL0     H17954   5.450   1.256   5.092  0.6522  0.6359  1.7345
  874MOL0     H17955   5.474   1.233   5.353 -1.8243 -1.7617  2.2195
  874MOL0     H17956   5.335   1.143   5.612  0.4213 -0.3091 -0.1355
  874MOL0     H17957   5.222   1.065   5.495  0.6149 -1.3881 -0.6178
  874MOL0     H17958   5.154   0.962   5.693 -0.6212 -0.2579 -0.1232
  874MOL0     H17959   5.244   0.844   5.604  0.5905 -0.4387  0.9432
  874MOL0     H17960   5.389   1.023   5.792  1.9065  0.0918 -0.1883
  874MOL0     H17961   5.448   0.882   5.701  0.2521  0.9401 -0.0165
  874MOL0     H17962   5.242   0.867   5.925  1.2018 -0.3506  0.8405
  874MOL0     H17963   5.309   0.733   5.842  1.0951  1.4030 -4.6513
  874MOL0     H17964   5.480   0.949   5.978 -1.8278  1.2707  2.0900
  874MOL0     H17965   5.542   0.794   5.943 -1.1929  2.3897 -3.4204
  874MOL0     H17966   5.515   0.785   6.169  0.0819 -3.2400 -0.6907
  874MOL0     H17967   5.372   0.893   6.170 -1.3605 -0.9647 -0.0864
  874MOL0     H17968   5.372   0.600   6.102  0.6670 -0.9363  1.4834
  874MOL0     H17969   5.227   0.696   6.095  2.2161  0.6257 -3.4227
  874MOL0     H17970   5.260   0.764   6.333 -4.0709 -1.6643 -1.9314
  874MOL0     H17971   5.403   0.653   6.344  0.0375  2.6344  2.7206
  874MOL0     H17972   5.315   0.843   5.334  0.7896  2.0058  2.6092
  874MOL0     H17973   5.286   0.862   5.086  0.9650  0.6698 -1.1500
  874MOL0     H17974   5.473   0.913   4.756  2.3050 -1.7438 -0.9428
  874MOL0     H17975   5.624   0.864   4.552  3.0164  1.9944 -0.2152
  874MOL0     H17976   5.574   1.483   3.749  0.0022 -1.7930 -1.4849
  874MOL0     H17977   5.797   1.579   3.811 -0.0016  1.4283  0.1895
  874MOL0     H17978   6.314   1.649   3.475 -1.8210  1.6902 -0.8603
  874MOL0     H17979   6.529   1.754   3.554 -1.6941 -2.3300 -0.8641
  874MOL0     H17980   6.530   2.157   3.683 -1.9476 -2.0958 -0.3530
  874MOL0     H17981   6.699   2.084   3.693  0.6150 -4.6383  1.0860
  874MOL0     H17982   6.498   2.128   3.468 -0.4468  1.6816  0.4841
  874MOL0     H17983   6.649   2.030   3.443 -0.9377 -2.2519  2.2817
  874MOL0     H17984   6.614   2.329   3.496 -0.3390 -2.0467  0.2364
  874MOL0     H17985   6.681   2.266   3.347  1.1375  1.6209 -0.8367
  874MOL0     H17986   6.868   2.162   3.486 -2.4470 -1.5554  0.7165
  874MOL0     H17987   6.817   2.273   3.615  1.3168 -3.5545  1.2569
  874MOL0     H17988   6.990   2.547   3.332 -0.9014  1.3180  1.2260
  874MOL0     H17989   6.322   2.047   3.790  0.4913  1.9724 -1.1692
  874MOL0     H17990   6.103   1.925   3.718 -0.2627 -3.3448  2.0943
  875MOL0     O17991   9.421   9.387   2.671 -0.0609  0.1898  0.6305
  875MOL0     C17992   9.397   9.483   2.596 -0.4685  0.1025  0.1849
  875MOL0     O17993   9.323   9.590   2.629 -0.5399 -0.8810 -0.7178
  875MOL0     C17994   9.242   9.592   2.740 -0.6465 -0.2966  0.1312
  875MOL0     C17995   9.120   9.647   2.711 -0.0131  0.0155 -0.3793
  875MOL0     C17996   9.019   9.627   2.807  0.5565  0.5370  0.8031
  875MOL0     C17997   9.045   9.563   2.929  1.3623 -0.5974 -0.0867
  875MOL0     O17998   8.937   9.562   3.019 -0.4447 -0.2531 -0.9191
  875MOL0     C17999   8.955   9.495   3.143 -0.0925 -0.3634 -0.6714
  875MOL0     C18000   8.834   9.520   3.231  0.3425 -0.5141  0.8408
  875MOL0     C18001   8.828   9.662   3.286 -0.5529 -0.7880 -0.2014
  875MOL0     C18002   8.701   9.696   3.371 -0.5206  0.0947 -0.0624
  875MOL0     C18003   8.692   9.843   3.420  0.2242 -0.0805 -0.5957
  875MOL0     C18004   8.578   9.858   3.528 -0.2033 -0.2776  0.9128
  875MOL0     C18005   8.525  10.006   3.527  0.1614  0.6933 -0.3042
  875MOL0     C18006   8.412  10.034   3.636  0.3585  0.4372  0.2523
  875MOL0     N18007   8.288   9.955   3.605  0.7732 -0.3461 -0.6282
  875MOL0     C18008   8.229   9.887   3.707 -0.8187 -0.2017 -0.0150
  875MOL0     C18009   8.135   9.823   3.640 -0.3422  0.0649  0.1679
  875MOL0     C18010   8.074   9.705   3.705  0.3815  0.7897 -0.2096
  875MOL0     C18011   7.987   9.743   3.827  0.5018  0.4207  0.3388
  875MOL0     C18012   7.881   9.859   3.801 -0.6776 -0.1445 -0.1230
  875MOL0     C18013   7.796   9.877   3.925 -0.2194 -0.9728  0.1875
  875MOL0     O18014   7.709   9.766   3.957  0.0355  0.8497  0.0718
  875MOL0     C18015   7.616   9.795   4.053  0.0204  0.1699 -0.7661
  875MOL0     C18016   7.667   9.792   4.187  0.8492  0.5560  0.2705
  875MOL0     C18017   7.591   9.833   4.293  0.5776  0.3074 -0.2968
  875MOL0     C18018   7.658   9.832   4.426 -0.3175  0.3818  0.5800
  875MOL0     C18019   7.455   9.876   4.281 -0.7815  0.4878  0.4559
  875MOL0     C18020   7.379   9.928   4.385 -0.5513  0.7315 -0.4593
  875MOL0     O18021   7.271   9.849   4.429  0.2051  0.1511 -0.0960
  875MOL0     C18022   7.200   9.889   4.539  0.0709  0.1094 -0.2643
  875MOL0     C18023   7.068   9.923   4.524  0.2915  1.1653  0.0560
  875MOL0     C18024   6.991   9.934   4.636 -0.4245  0.8727 -0.4815
  875MOL0     C18025   7.038   9.924   4.769  0.4781  0.2030 -0.3913
  875MOL0     O18026   6.952   9.947   4.878 -0.0581 -0.7924  0.4044
  875MOL0     C18027   6.996   9.924   5.017 -0.1660 -0.7226 -0.1891
  875MOL0     C18028   6.904  10.017   5.099 -0.9776 -0.7681 -0.0906
  875MOL0     C18029   6.934  10.169   5.061  0.3862 -0.1907  0.5436
  875MOL0     C18030   6.907  10.268   5.174  0.1532 -0.7647 -0.3745
  875MOL0     C18031   6.926  10.416   5.129  0.4040  0.1534 -0.4325
  875MOL0     C18032   6.876  10.514   5.230 -0.4850 -0.5866 -0.6723
  875MOL0     C18033   6.725  10.546   5.213  0.3386 -0.2130  0.0517
  875MOL0     C18034   6.691  10.613   5.088  0.1116 -0.2956 -0.5042
  875MOL0    Cl18035   6.808  10.761   5.064 -0.0896 -0.0056  0.1538
  875MOL0     C18036   7.168   9.873   4.784  0.4281  0.1352  0.7246
  875MOL0     C18037   7.250   9.859   4.677  0.6106 -0.0042 -0.1108
  875MOL0     O18038   7.404  10.041   4.414  0.1802 -0.3059  0.4209
  875MOL0     C18039   7.409   9.884   4.147 -0.2712 -0.6086  0.4274
  875MOL0     C18040   7.489   9.842   4.035 -0.1869  0.4529  0.5462
  875MOL0     N18041   8.137   9.849   3.499  0.5455  0.8548 -0.3503
  875MOL0     N18042   8.229   9.936   3.483  0.1531  0.3214  0.1058
  875MOL0     C18043   9.171   9.506   2.958 -0.2773 -0.5497  0.8388
  875MOL0     C18044   9.272   9.533   2.862 -0.5701  0.4797  0.1725
  875MOL0     C18045   9.479   9.494   2.471 -0.2204 -0.6569 -0.1094
  875MOL0     C18046   9.457   9.607   2.390 -0.5770  0.0059  0.0754
  875MOL0     C18047   9.541   9.627   2.276 -0.0858 -0.1750 -0.7468
  875MOL0     C18048   9.625   9.530   2.228  0.2380  0.3760 -0.1096
  875MOL0     O18049   9.672   9.549   2.094 -0.4064 -0.0393 -0.5615
  875MOL0     C18050   9.765   9.457   2.043  0.4039  0.8988  0.4646
  875MOL0     C18051   9.907   9.492   2.101 -0.3238 -0.1030  0.6480
  875MOL0     C18052   9.966   9.632   2.065  0.4815  0.5640 -0.5955
  875MOL0     C18053  10.071   9.659   2.167 -0.2492 -0.1769 -0.0812
  875MOL0     C18054  10.181   9.566   2.142  0.3869 -0.1809 -0.0195
  875MOL0     C18055  10.260   9.478   2.149 -0.1247 -1.5576 -0.0554
  875MOL0     C18056   9.649   9.419   2.310  0.1791  0.2991 -0.2567
  875MOL0     C18057   9.581   9.401   2.434  0.3281 -0.2572  0.8206
  875MOL0     H18058   9.100   9.678   2.609 -1.3614 -2.5558 -0.9785
  875MOL0     H18059   8.914   9.640   2.783  0.6535 -0.4711 -0.2278
  875MOL0     H18060   8.970   9.390   3.118  2.5608  0.2613 -1.9665
  875MOL0     H18061   9.044   9.528   3.197 -1.3514 -0.8873  1.9224
  875MOL0     H18062   8.742   9.511   3.173  0.8285  1.9155 -0.4522
  875MOL0     H18063   8.837   9.453   3.318 -0.2465 -1.2982  0.2662
  875MOL0     H18064   8.916   9.703   3.336 -0.6206  1.1505 -1.5486
  875MOL0     H18065   8.813   9.736   3.207 -4.3614  0.1662  1.1888
  875MOL0     H18066   8.613   9.688   3.306 -1.1643  0.3888  0.7580
  875MOL0     H18067   8.689   9.624   3.452 -0.7275  0.1005 -0.0859
  875MOL0     H18068   8.794   9.856   3.459 -0.4206  0.4174  0.9821
  875MOL0     H18069   8.682   9.925   3.349  0.4325  1.8546  1.5025
  875MOL0     H18070   8.496   9.800   3.485  0.2215  0.9956 -1.8989
  875MOL0     H18071   8.624   9.827   3.622  6.8793  0.9395 -1.5067
  875MOL0     H18072   8.617  10.064   3.543  1.6689 -1.2371 -1.4576
  875MOL0     H18073   8.484  10.033   3.430 -3.4817  0.6735  1.0676
  875MOL0     H18074   8.381  10.138   3.625 -3.5743 -0.8123 -3.0165
  875MOL0     H18075   8.446  10.016   3.738  2.5919 -0.2605 -0.5652
  875MOL0     H18076   8.267   9.868   3.807  0.2031 -0.6174 -0.4621
  875MOL0     H18077   8.014   9.652   3.630 -1.4322  1.0206  1.0174
  875MOL0     H18078   8.155   9.636   3.730 -0.2966 -0.8153 -2.1489
  875MOL0     H18079   8.066   9.758   3.901 -0.3142 -2.8045  2.0544
  875MOL0     H18080   7.926   9.655   3.852 -0.8779  0.5729 -2.0885
  875MOL0     H18081   7.819   9.838   3.713 -1.4044 -0.8216  0.5375
  875MOL0     H18082   7.929   9.956   3.787  1.7974 -1.1292  1.0841
  875MOL0     H18083   7.728   9.959   3.898 -3.3893 -2.8555  1.8722
  875MOL0     H18084   7.854   9.911   4.011  0.5020  0.9822 -1.0092
  875MOL0     H18085   7.770   9.762   4.207  0.6855 -0.1139  0.1604
  875MOL0     H18086   7.610   9.912   4.483 -2.1251  0.1790 -0.5831
  875MOL0     H18087   7.642   9.734   4.473 -1.5230  1.1546  1.8787
  875MOL0     H18088   7.766   9.849   4.427  0.6694 -4.3112 -1.3603
  875MOL0     H18089   7.029   9.924   4.422 -0.3874 -2.2182  0.1705
  875MOL0     H18090   6.883   9.945   4.628 -0.5073 -0.0977 -0.8516
  875MOL0     H18091   6.970   9.821   5.045 -0.7541 -0.4901  0.1367
  875MOL0     H18092   7.103   9.944   5.031  0.3973 -3.1430 -0.6121
  875MOL0     H18093   6.804   9.979   5.075 -1.0393  0.3024 -1.6129
  875MOL0     H18094   6.919  10.000   5.207  0.8493 -0.9011 -0.3300
  875MOL0     H18095   6.889  10.199   4.967  1.2268  4.2147  1.3453
  875MOL0     H18096   7.042  10.185   5.047  0.5445 -0.7677  1.0514
  875MOL0     H18097   6.807  10.265   5.218 -1.0225 -2.7627 -2.8860
  875MOL0     H18098   6.980  10.245   5.252  1.0368 -2.7847 -1.6813
  875MOL0     H18099   6.875  10.430   5.033 -0.2824  2.6992  0.2388
  875MOL0     H18100   7.034  10.436   5.133  0.6996 -0.1522 -3.7683
  875MOL0     H18101   6.899  10.468   5.326 -0.7120  1.2464  0.3053
  875MOL0     H18102   6.924  10.613   5.229  1.7432 -1.5950 -3.1258
  875MOL0     H18103   6.694  10.614   5.292 -2.6810 -0.7168 -0.5741
  875MOL0     H18104   6.674  10.449   5.221  1.6200 -0.9916 -0.8379
  875MOL0     H18105   6.591  10.654   5.104  1.1990  1.0832  4.3404
  875MOL0     H18106   6.684  10.543   5.003  1.1543  0.6549 -1.4069
  875MOL0     H18107   7.205   9.844   4.882  2.5793 -0.3068 -0.1525
  875MOL0     H18108   7.349   9.815   4.684  0.8709  0.5905  0.0024
  875MOL0     H18109   7.313   9.932   4.133  0.1881  0.1742 -0.1416
  875MOL0     H18110   7.461   9.835   3.930 -0.7670 -1.5032  0.7930
  875MOL0     H18111   9.209   9.459   3.048  2.4152 -0.0743  0.0433
  875MOL0     H18112   9.365   9.482   2.886  0.4537  1.8611 -0.6680
  875MOL0     H18113   9.384   9.686   2.406 -0.1781  0.4945 -0.4726
  875MOL0     H18114   9.551   9.730   2.241  0.6675  0.7987  2.0704
  875MOL0     H18115   9.743   9.350   2.055 -0.3434  1.1843  1.8919
  875MOL0     H18116   9.766   9.478   1.936 -0.3137  1.6829  0.6058
  875MOL0     H18117   9.978   9.418   2.064 -0.7821  0.8552 -2.4392
  875MOL0     H18118   9.896   9.476   2.208  0.0943 -0.2158  0.6722
  875MOL0     H18119   9.895   9.715   2.071  2.6369  2.4167  1.3286
  875MOL0     H18120   9.999   9.630   1.961 -0.0692 -2.2463 -0.7859
  875MOL0     H18121  10.037   9.648   2.270  1.5501  1.1353  0.7063
  875MOL0     H18122  10.107   9.760   2.150  3.0145 -0.8947  1.8023
  875MOL0     H18123  10.341   9.408   2.146 -1.5734 -3.2570 -1.8227
  875MOL0     H18124   9.722   9.342   2.285 -3.2854 -3.0615 -0.8866
  875MOL0     H18125   9.604   9.320   2.502  2.6398  1.3050  2.0680
  876MOL0     O18126   8.787   8.922   1.818  0.1744 -0.3385 -0.4352
  876MOL0     C18127   8.883   8.993   1.821  0.6502  0.2519  0.0676
  876MOL0     O18128   9.014   8.958   1.825  0.2227 -0.3037 -0.3382
  876MOL0     C18129   9.053   8.826   1.841 -0.6190  0.2287 -0.5846
  876MOL0     C18130   9.005   8.702   1.785  0.1074  0.7695 -0.0015
  876MOL0     C18131   9.059   8.586   1.831  0.2520 -0.3735 -0.5049
  876MOL0     C18132   9.170   8.592   1.917  1.2652  0.9059  0.5170
  876MOL0     O18133   9.223   8.476   1.959 -0.6476  0.6972  0.0372
  876MOL0     C18134   9.361   8.449   1.907 -0.0711 -0.5794 -0.2379
  876MOL0     C18135   9.402   8.322   1.975 -0.3200  0.5415 -1.4608
  876MOL0     C18136   9.551   8.293   1.972 -0.6877 -0.7344  0.1595
  876MOL0     C18137   9.590   8.152   2.024 -1.2094 -0.7823  0.8178
  876MOL0     C18138   9.740   8.127   1.999 -0.3363 -0.3779 -0.4169
  876MOL0     C18139   9.781   7.995   2.062  0.3750 -0.1122 -0.8640
  876MOL0     C18140   9.927   7.962   2.032 -0.1067  0.3839  1.0650
  876MOL0     C18141   9.975   7.854   2.129  0.3419  0.3542 -0.2124
  876MOL0     N18142  10.075   7.762   2.080  0.5555  0.3337 -0.7482
  876MOL0     C18143  10.056   7.682   1.970  0.6331 -0.1347 -0.0193
  876MOL0     C18144  10.172   7.623   1.949 -0.9119 -0.9811  0.1898
  876MOL0     C18145  10.192   7.547   1.810 -0.6885 -0.2127 -0.5848
  876MOL0     C18146  10.210   7.397   1.847 -0.1002 -0.8245 -0.1467
  876MOL0     C18147  10.241   7.322   1.718 -0.1935 -0.4399 -1.3288
  876MOL0     C18148  10.217   7.166   1.722  0.3421 -0.5848  0.2335
  876MOL0     O18149  10.082   7.135   1.749 -0.1711  0.1496 -0.2319
  876MOL0     C18150  10.024   7.024   1.691 -0.0945  0.1005  0.1197
  876MOL0     C18151   9.895   6.993   1.726 -1.5431 -0.5027  0.2763
  876MOL0     C18152   9.821   6.880   1.668  0.1391 -1.2479 -0.4113
  876MOL0     C18153   9.677   6.863   1.734 -0.3251 -0.0931  0.2683
  876MOL0     C18154   9.884   6.800   1.574 -0.2959 -0.4157  0.9400
  876MOL0     C18155   9.824   6.680   1.513  0.3928  0.6108 -0.0708
  876MOL0     O18156   9.685   6.677   1.498  0.3557 -0.1161  0.1064
  876MOL0     C18157   9.633   6.560   1.463  0.6494 -0.9718 -0.1199
  876MOL0     C18158   9.543   6.566   1.362 -0.3900  0.2335  0.1600
  876MOL0     C18159   9.484   6.452   1.315 -0.2675  0.2942 -0.5936
  876MOL0     C18160   9.514   6.323   1.358  0.0420 -0.2542 -0.1018
  876MOL0     O18161   9.457   6.222   1.296  0.0179  0.6267  0.7856
  876MOL0     C18162   9.520   6.095   1.317 -0.7134 -0.3926 -0.2661
  876MOL0     C18163   9.472   5.994   1.209 -0.2107 -0.3852 -0.3734
  876MOL0     C18164   9.318   5.976   1.225  0.3536 -0.0709 -0.1237
  876MOL0     C18165   9.289   5.826   1.207  0.4449 -0.1932 -0.1115
  876MOL0     C18166   9.157   5.788   1.266  0.9381  0.6569 -1.0463
  876MOL0     C18167   9.113   5.648   1.221 -0.0551  0.2160  0.2388
  876MOL0     C18168   9.203   5.519   1.243  0.3280  0.3343 -1.0499
  876MOL0     C18169   9.280   5.475   1.113 -0.3745  0.4375 -0.4764
  876MOL0    Cl18170   9.322   5.299   1.098 -0.2014  0.1300 -0.1540
  876MOL0     C18171   9.612   6.319   1.461  0.9823 -0.4868  0.4284
  876MOL0     C18172   9.662   6.433   1.530 -0.5962 -0.5872 -0.4113
  876MOL0     O18173   9.893   6.588   1.479  0.1466 -0.3009 -0.0652
  876MOL0     C18174  10.014   6.833   1.533  0.5535 -0.9154 -0.7850
  876MOL0     C18175  10.078   6.941   1.600  0.1909  0.3582 -0.1135
  876MOL0     N18176  10.264   7.668   2.042  0.5468  0.4038  0.2095
  876MOL0     N18177  10.208   7.744   2.127  0.9653 -0.2503 -0.6039
  876MOL0     C18178   9.228   8.698   1.959 -0.0380  0.4226 -0.7601
  876MOL0     C18179   9.165   8.819   1.928  0.3931 -0.0873  0.5753
  876MOL0     C18180   8.867   9.138   1.790 -0.4576  0.1363  0.5469
  876MOL0     C18181   8.965   9.234   1.827  0.3089 -0.5019  0.8994
  876MOL0     C18182   8.942   9.376   1.810  0.1445 -0.3952 -0.8110
  876MOL0     C18183   8.822   9.419   1.762 -0.1788  1.4979  0.0256
  876MOL0     O18184   8.797   9.551   1.740 -0.3044 -0.3276  0.5916
  876MOL0     C18185   8.902   9.628   1.672 -0.2901 -0.8674  0.2270
  876MOL0     C18186   8.977   9.730   1.771  0.6545  0.1988  0.7515
  876MOL0     C18187   9.059   9.824   1.680 -1.3380  0.6612  0.9236
  876MOL0     C18188   9.161   9.911   1.756 -0.0478 -0.8777 -0.7652
  876MOL0     C18189   9.093   9.974   1.870 -0.1670 -0.0326  0.2939
  876MOL0     C18190   9.033  10.036   1.956 -0.0272  0.3543 -0.0412
  876MOL0     C18191   8.716   9.333   1.733 -0.4556  0.8851 -0.0726
  876MOL0     C18192   8.742   9.193   1.740 -0.3842  0.7070 -0.9691
  876MOL0     H18193   8.919   8.697   1.720  0.1957  1.3982 -0.1723
  876MOL0     H18194   9.007   8.498   1.793 -0.4136  2.2423 -6.8684
  876MOL0     H18195   9.373   8.436   1.799  0.0780 -0.8975 -0.1853
  876MOL0     H18196   9.428   8.529   1.939  0.8190 -0.0965 -3.0458
  876MOL0     H18197   9.376   8.331   2.081 -1.0508  2.2112 -1.7459
  876MOL0     H18198   9.355   8.234   1.930 -1.2867 -0.0195  0.5090
  876MOL0     H18199   9.587   8.304   1.869  4.1486  1.8347  1.7869
  876MOL0     H18200   9.598   8.370   2.034  1.1435 -0.3416 -1.5889
  876MOL0     H18201   9.574   8.156   2.132  0.8112  1.1304  1.1091
  876MOL0     H18202   9.539   8.069   1.974 -1.7882  1.2444 -2.2171
  876MOL0     H18203   9.771   8.133   1.894  0.6365 -3.0096 -0.3488
  876MOL0     H18204   9.780   8.212   2.055 -1.1376  0.6093 -1.2926
  876MOL0     H18205   9.757   7.996   2.169  1.1327 -0.8558 -0.6769
  876MOL0     H18206   9.712   7.916   2.030 -0.6042  1.0157 -1.6522
  876MOL0     H18207   9.914   7.918   1.932 -1.9342  0.2592  1.3421
  876MOL0     H18208  10.000   8.044   2.023 -0.4188  0.4599 -1.4809
  876MOL0     H18209   9.887   7.790   2.144  0.0409  0.6175 -0.8216
  876MOL0     H18210  10.009   7.895   2.225 -2.2285  1.0888  0.4743
  876MOL0     H18211   9.964   7.680   1.912 -0.1096  2.9206  0.8251
  876MOL0     H18212  10.112   7.575   1.741 -1.5868  1.9210  1.2251
  876MOL0     H18213  10.289   7.568   1.763 -0.1430  3.2328  1.7031
  876MOL0     H18214  10.114   7.373   1.894 -0.8472  4.7921  1.9944
  876MOL0     H18215  10.279   7.374   1.928 -3.5594 -4.0710  2.1939
  876MOL0     H18216  10.351   7.319   1.718 -0.0365 -5.4155  0.7105
  876MOL0     H18217  10.188   7.373   1.637 -2.7977  3.4961  2.4411
  876MOL0     H18218  10.278   7.118   1.800  1.2264 -1.0702 -0.7388
  876MOL0     H18219  10.241   7.132   1.621  0.4137 -0.2026  0.1237
  876MOL0     H18220   9.874   7.062   1.806  4.0022 -1.0251  2.6711
  876MOL0     H18221   9.661   6.936   1.814 -4.3966 -1.8409  1.2681
  876MOL0     H18222   9.597   6.884   1.662  0.9775 -1.5867 -1.7125
  876MOL0     H18223   9.657   6.763   1.771 -0.6912  1.2298  4.0965
  876MOL0     H18224   9.523   6.653   1.300  2.3461 -3.1063 -6.3445
  876MOL0     H18225   9.414   6.469   1.234  0.3080  1.0926 -0.9387
  876MOL0     H18226   9.627   6.108   1.298 -1.0512  1.4967 -1.1210
  876MOL0     H18227   9.497   6.061   1.418 -4.0590  0.1610 -0.7200
  876MOL0     H18228   9.496   6.026   1.107  1.5331  0.9215  0.3928
  876MOL0     H18229   9.526   5.900   1.226 -1.6283 -0.8719  1.9805
  876MOL0     H18230   9.272   6.046   1.153 -0.1232 -0.2103  0.0399
  876MOL0     H18231   9.287   6.002   1.326  0.2698 -0.2604 -0.1007
  876MOL0     H18232   9.289   5.800   1.100  2.4402 -1.8278  0.2275
  876MOL0     H18233   9.365   5.764   1.255 -1.1427 -3.0611 -1.0569
  876MOL0     H18234   9.084   5.866   1.243  0.9385  0.6623 -1.0313
  876MOL0     H18235   9.157   5.775   1.374 -1.8314 -0.0111 -1.0631
  876MOL0     H18236   9.017   5.630   1.269  0.4610 -2.6582  0.3481
  876MOL0     H18237   9.086   5.657   1.116 -0.0419  2.9870  0.4084
  876MOL0     H18238   9.133   5.440   1.268 -0.0712  1.2477  0.8678
  876MOL0     H18239   9.273   5.533   1.326 -2.0385 -0.6996  1.2631
  876MOL0     H18240   9.374   5.531   1.120  0.5380 -1.1973  2.2276
  876MOL0     H18241   9.218   5.505   1.028 -2.1034  1.2283  0.9785
  876MOL0     H18242   9.642   6.221   1.498  2.5866 -0.4310 -0.6192
  876MOL0     H18243   9.732   6.425   1.613 -1.7787 -0.1932  0.6434
  876MOL0     H18244  10.075   6.766   1.473  0.0618 -1.9246 -0.2003
  876MOL0     H18245  10.182   6.956   1.571  0.1893 -0.6067 -0.6501
  876MOL0     H18246   9.317   8.693   2.021 -0.2900  1.1566 -0.3253
  876MOL0     H18247   9.196   8.913   1.973  1.3295  0.1195 -0.4363
  876MOL0     H18248   9.063   9.217   1.869 -1.0871 -0.3438  4.5622
  876MOL0     H18249   9.000   9.455   1.858 -0.7578 -0.0940 -0.1877
  876MOL0     H18250   8.971   9.559   1.623 -2.8159 -2.6232 -1.0111
  876MOL0     H18251   8.859   9.675   1.584  0.9537 -0.2173 -0.0587
  876MOL0     H18252   9.043   9.677   1.840 -0.6323  0.0838  1.9494
  876MOL0     H18253   8.896   9.774   1.829  0.3323 -0.5222  0.8670
  876MOL0     H18254   9.003   9.900   1.624 -1.4949  0.1535  0.3812
  876MOL0     H18255   9.115   9.768   1.604 -2.4323 -0.3791  0.8420
  876MOL0     H18256   9.210   9.981   1.688 -1.6042  0.5902 -0.4502
  876MOL0     H18257   9.251   9.867   1.799 -2.4670 -1.6346  4.1467
  876MOL0     H18258   8.985  10.084   2.039 -0.9520 -0.8697  0.1472
  876MOL0     H18259   8.625   9.370   1.687  0.3818  2.2918 -0.6788
  876MOL0     H18260   8.655   9.130   1.723 -0.5056  0.3615  0.7828
  877MOL0     O18261   3.151   2.232   3.128 -0.1929 -0.2358 -0.5328
  877MOL0     C18262   3.193   2.303   3.218 -0.2676 -0.5724  0.1430
  877MOL0     O18263   3.317   2.285   3.274 -0.4252 -0.1187 -0.3339
  877MOL0     C18264   3.401   2.192   3.214  0.0354  0.2425  0.7181
  877MOL0     C18265   3.438   2.210   3.079  0.5052 -0.0418  0.4139
  877MOL0     C18266   3.525   2.125   3.009 -0.6503  0.0414  0.7605
  877MOL0     C18267   3.581   2.010   3.067  0.6539  0.1038 -0.6683
  877MOL0     O18268   3.654   1.934   2.987 -0.8276 -0.6452  0.1549
  877MOL0     C18269   3.623   1.796   2.978 -0.0523 -0.3261 -0.0709
  877MOL0     C18270   3.695   1.704   3.075  0.4557  0.4754  0.5035
  877MOL0     C18271   3.643   1.557   3.064  0.7666  0.9948 -0.4887
  877MOL0     C18272   3.735   1.457   3.135 -0.6453  0.8234  0.4189
  877MOL0     C18273   3.715   1.313   3.079  0.0380 -0.3527  0.5136
  877MOL0     C18274   3.623   1.228   3.164  0.6728 -0.7906  0.4076
  877MOL0     C18275   3.618   1.080   3.127 -0.0088 -0.9913  0.1586
  877MOL0     C18276   3.574   1.074   2.979  0.4486  0.7867  0.2469
  877MOL0     N18277   3.522   0.935   2.941 -0.3207 -0.4971 -0.0656
  877MOL0     C18278   3.567   0.873   2.825 -1.0519 -0.7318  0.2365
  877MOL0     C18279   3.518   0.749   2.820  0.0043  0.1754  0.1934
  877MOL0     C18280   3.550   0.649   2.721 -0.2757  1.2304  0.7356
  877MOL0     C18281   3.428   0.608   2.631  0.2783  0.0489  0.6009
  877MOL0     C18282   3.386   0.718   2.538 -0.4524  0.2953  0.3567
  877MOL0     C18283   3.447   0.715   2.400 -0.1358  0.0034  0.1398
  877MOL0     O18284   3.419   0.590   2.337  0.2130 -0.1179 -0.2757
  877MOL0     C18285   3.512   0.552   2.245  0.3387 -0.5306  0.3629
  877MOL0     C18286   3.509   0.613   2.119  0.6798  0.3759 -0.2720
  877MOL0     C18287   3.593   0.565   2.022 -0.5021 -0.5369  0.2319
  877MOL0     C18288   3.579   0.620   1.887  0.4766 -0.4707  0.9408
  877MOL0     C18289   3.703   0.478   2.065  0.5821  0.8291  0.7812
  877MOL0     C18290   3.809   0.432   1.971  0.4681  0.1337  0.8727
  877MOL0     O18291   3.885   0.326   2.010  0.3477 -0.5850  0.0098
  877MOL0     C18292   3.962   0.262   1.916 -0.7306 -0.1505 -0.8689
  877MOL0     C18293   3.910   0.224   1.789 -0.2613  0.6972  0.1238
  877MOL0     C18294   3.986   0.154   1.689 -0.0998  0.0101 -0.1449
  877MOL0     C18295   4.119   0.118   1.717  0.7320 -0.2433 -0.0471
  877MOL0     O18296   4.173   0.024   1.632 -0.0271 -0.3495 -0.9346
  877MOL0     C18297   4.311  -0.011   1.656 -0.3504  0.6712  0.0614
  877MOL0     C18298   4.352  -0.126   1.558 -0.5403  0.0474 -0.9151
  877MOL0     C18299   4.504  -0.121   1.533  0.8644  0.1255  0.2356
  877MOL0     C18300   4.545  -0.250   1.471  0.2128 -0.4830 -0.0634
  877MOL0     C18301   4.691  -0.272   1.484  0.1867  0.2509 -0.5691
  877MOL0     C18302   4.779  -0.174   1.404 -0.0661 -0.0443  0.6555
  877MOL0     C18303   4.745  -0.183   1.249 -0.3015 -0.0348 -0.1299
  877MOL0     C18304   4.810  -0.078   1.174 -0.1292  0.1028  0.0083
  877MOL0    Cl18305   4.983  -0.122   1.150  0.2128  0.2757  0.4798
  877MOL0     C18306   4.175   0.162   1.841  0.1894  0.3517 -0.0201
  877MOL0     C18307   4.098   0.229   1.929  0.5028  0.3128  0.0020
  877MOL0     O18308   3.820   0.488   1.861 -0.5949 -0.4459  0.1967
  877MOL0     C18309   3.707   0.431   2.199 -0.0610  0.5743 -0.2443
  877MOL0     C18310   3.611   0.466   2.286  0.7370  0.7867  0.2634
  877MOL0     N18311   3.433   0.739   2.930  0.2183  0.7778 -0.8399
  877MOL0     N18312   3.435   0.850   3.000 -0.9030 -0.2443  0.4241
  877MOL0     C18313   3.548   1.994   3.203  0.7320  0.1556 -0.4584
  877MOL0     C18314   3.450   2.075   3.268 -0.5120 -0.0527 -0.3199
  877MOL0     C18315   3.112   2.405   3.269  0.6411  0.0732 -0.2806
  877MOL0     C18316   2.976   2.418   3.224 -0.6904 -0.4046  0.6137
  877MOL0     C18317   2.902   2.524   3.265  0.2521 -0.3117 -0.4429
  877MOL0     C18318   2.951   2.622   3.340 -0.5868 -0.5455 -0.3980
  877MOL0     O18319   2.889   2.729   3.387 -0.5126  0.3932 -0.4695
  877MOL0     C18320   2.758   2.714   3.454 -0.1066  0.1588 -0.3695
  877MOL0     C18321   2.702   2.847   3.487  0.3918  0.5273 -1.2215
  877MOL0     C18322   2.813   2.956   3.523  0.1724 -0.5748 -0.1624
  877MOL0     C18323   2.906   2.920   3.644  0.3673 -0.6616  0.1499
  877MOL0     C18324   2.842   2.849   3.751  0.5953  0.4687  0.0039
  877MOL0     C18325   2.776   2.780   3.832 -0.8455  0.0935  0.4430
  877MOL0     C18326   3.083   2.604   3.390 -0.0029  0.3753  0.6165
  877MOL0     C18327   3.165   2.497   3.358 -0.0067  0.0949  0.3806
  877MOL0     H18328   3.388   2.287   3.023 -0.7373 -1.3959 -0.4039
  877MOL0     H18329   3.542   2.154   2.905 -2.2521  0.5016  0.5975
  877MOL0     H18330   3.514   1.784   2.982 -0.3468  1.9342 -0.2854
  877MOL0     H18331   3.647   1.763   2.876  2.4874  1.2080 -0.0493
  877MOL0     H18332   3.802   1.711   3.053  0.7096 -0.4040  1.4010
  877MOL0     H18333   3.670   1.728   3.179 -0.5178 -0.5297  0.5132
  877MOL0     H18334   3.537   1.551   3.091  0.9600  2.2574  0.6252
  877MOL0     H18335   3.645   1.531   2.957  1.6659  0.2473 -0.3039
  877MOL0     H18336   3.829   1.504   3.104 -1.2360  1.3301 -0.7033
  877MOL0     H18337   3.726   1.468   3.243 -2.6566  3.7110  0.0689
  877MOL0     H18338   3.685   1.301   2.975  1.5335 -0.7824  0.1070
  877MOL0     H18339   3.815   1.268   3.073 -0.9555 -2.4664 -2.0600
  877MOL0     H18340   3.647   1.240   3.270  1.0516  0.3545  0.2078
  877MOL0     H18341   3.519   1.264   3.166  0.6221 -0.9396  0.5536
  877MOL0     H18342   3.718   1.035   3.136  0.7779  0.9875  2.4544
  877MOL0     H18343   3.546   1.032   3.194 -0.1514 -1.4576 -0.3266
  877MOL0     H18344   3.657   1.086   2.909  1.6765 -0.8464  1.3461
  877MOL0     H18345   3.490   1.141   2.963  1.1579  1.7509  0.4515
  877MOL0     H18346   3.632   0.916   2.750 -1.1313 -2.6097 -0.9877
  877MOL0     H18347   3.627   0.681   2.650 -2.8297 -1.2949 -3.6464
  877MOL0     H18348   3.586   0.560   2.772  2.5481  0.9803 -1.4732
  877MOL0     H18349   3.343   0.584   2.696 -1.0638  1.8831 -0.3691
  877MOL0     H18350   3.450   0.517   2.576 -0.0910  0.2368  0.1414
  877MOL0     H18351   3.429   0.811   2.577  0.9916  1.0135 -2.6142
  877MOL0     H18352   3.279   0.736   2.538 -0.3958  0.6307  0.1078
  877MOL0     H18353   3.554   0.732   2.413 -0.0622  2.0629 -2.3820
  877MOL0     H18354   3.408   0.790   2.329 -1.9700 -2.0470 -1.1640
  877MOL0     H18355   3.436   0.693   2.104  0.5470  0.5541  1.1912
  877MOL0     H18356   3.664   0.685   1.866 -0.3067 -0.2900 -2.1930
  877MOL0     H18357   3.579   0.539   1.814  2.7971  1.0362 -0.9021
  877MOL0     H18358   3.495   0.689   1.871  2.8893  1.7724 -4.4535
  877MOL0     H18359   3.819   0.269   1.750 -0.3682  0.7418  0.4229
  877MOL0     H18360   3.948   0.144   1.587 -0.5825 -0.5923  0.0835
  877MOL0     H18361   4.374   0.078   1.644  0.4415  0.1365  0.2056
  877MOL0     H18362   4.330  -0.064   1.750 -1.1136 -2.3442 -1.3705
  877MOL0     H18363   4.327  -0.222   1.604  6.5851 -2.1273 -0.2773
  877MOL0     H18364   4.297  -0.113   1.464 -0.1865  1.8175 -0.9095
  877MOL0     H18365   4.561  -0.109   1.625  0.4691  0.4659  0.4444
  877MOL0     H18366   4.522  -0.044   1.457 -3.1903 -0.7660 -1.9451
  877MOL0     H18367   4.500  -0.329   1.531 -1.7995  0.9516  0.4184
  877MOL0     H18368   4.521  -0.252   1.364  2.7518 -1.7741 -0.6974
  877MOL0     H18369   4.717  -0.374   1.452  1.2044 -0.4893  2.3396
  877MOL0     H18370   4.722  -0.257   1.588 -3.3603  1.9079  0.3751
  877MOL0     H18371   4.762  -0.072   1.439 -2.0100 -0.2519  0.4752
  877MOL0     H18372   4.885  -0.198   1.416 -0.0777  0.6551  2.4689
  877MOL0     H18373   4.636  -0.175   1.242 -0.2313  1.2675  0.0476
  877MOL0     H18374   4.772  -0.284   1.216 -1.1746 -0.5492  0.7066
  877MOL0     H18375   4.797   0.014   1.232  0.6259  2.3650 -3.1148
  877MOL0     H18376   4.770  -0.053   1.075  0.7613  3.9462  0.4340
  877MOL0     H18377   4.272   0.129   1.877 -0.0016  1.7562  1.9516
  877MOL0     H18378   4.143   0.247   2.026 -1.6093 -0.1377  1.1429
  877MOL0     H18379   3.783   0.356   2.219 -0.3220 -0.0760 -1.5734
  877MOL0     H18380   3.604   0.429   2.388 -1.0867  0.2573 -0.0317
  877MOL0     H18381   3.572   1.908   3.265 -3.6623 -2.0228 -1.3346
  877MOL0     H18382   3.425   2.067   3.373 -1.4454 -0.4020 -0.5541
  877MOL0     H18383   2.929   2.346   3.158  0.6646 -0.0283 -0.8024
  877MOL0     H18384   2.797   2.521   3.238  0.3186  2.0010 -1.1798
  877MOL0     H18385   2.688   2.661   3.389 -1.4564  0.7589  0.5675
  877MOL0     H18386   2.791   2.653   3.539  1.4114 -0.4631 -1.3369
  877MOL0     H18387   2.634   2.837   3.573 -3.9112  0.3936 -4.2819
  877MOL0     H18388   2.646   2.883   3.400 -0.2071  3.7367  0.3091
  877MOL0     H18389   2.756   3.044   3.557 -2.0738 -1.7910 -0.5491
  877MOL0     H18390   2.868   2.989   3.435 -0.1472  1.2065  0.2625
  877MOL0     H18391   2.946   3.012   3.688  1.0882 -1.7564  1.9071
  877MOL0     H18392   2.999   2.873   3.609  0.1066 -0.8065 -0.3626
  877MOL0     H18393   2.710   2.711   3.880  1.8253 -2.3997  0.8008
  877MOL0     H18394   3.123   2.686   3.448 -0.4888  3.0037 -2.4373
  877MOL0     H18395   3.269   2.493   3.387  1.5911 -0.4298 -4.4657
  878MOL0     O18396   4.214   1.862  10.824 -1.0401  0.1926  0.0314
  878MOL0     C18397   4.199   1.743  10.791  0.1784 -0.3181 -0.5562
  878MOL0     O18398   4.120   1.697  10.678 -0.1024  1.5140 -0.6709
  878MOL0     C18399   4.070   1.788  10.586 -0.8208 -0.7975 -0.1210
  878MOL0     C18400   4.131   1.903  10.533  0.0145  0.1115  0.2464
  878MOL0     C18401   4.061   1.983  10.439  0.7489 -0.1920  0.0460
  878MOL0     C18402   3.930   1.952  10.407  0.3650  0.6903 -0.2098
  878MOL0     O18403   3.850   2.036  10.338 -0.0692 -0.0662 -0.0703
  878MOL0     C18404   3.732   2.094  10.396 -0.3974  0.3119  0.1602
  878MOL0     C18405   3.717   2.235  10.344 -0.5328  0.0256 -0.3703
  878MOL0     C18406   3.614   2.312  10.410  0.5413  0.1948 -0.5207
  878MOL0     C18407   3.472   2.253  10.366  0.4343 -0.7590 -0.0963
  878MOL0     C18408   3.346   2.336  10.406 -0.4254  0.0938 -0.4842
  878MOL0     C18409   3.214   2.253  10.390 -0.4737  1.3222  0.4356
  878MOL0     C18410   3.087   2.314  10.456 -0.3799 -0.2119  0.5895
  878MOL0     C18411   3.087   2.285  10.604 -0.4070  0.5225  0.8534
  878MOL0     N18412   2.957   2.324  10.667 -0.4804 -0.5212 -0.1301
  878MOL0     C18413   2.948   2.426  10.768 -0.7060  0.8726  0.4826
  878MOL0     C18414   2.812   2.432  10.800  0.6732 -0.3591  1.0950
  878MOL0     C18415   2.741   2.517  10.897 -1.5594 -0.0786 -0.1083
  878MOL0     C18416   2.649   2.624  10.843  0.1018 -0.0367  0.0833
  878MOL0     C18417   2.554   2.672  10.961  0.2054  0.0165 -0.2737
  878MOL0     C18418   2.459   2.783  10.917  0.4785  0.0198  0.4853
  878MOL0     O18419   2.355   2.724  10.833 -0.2417 -0.5642  0.4021
  878MOL0     C18420   2.262   2.809  10.780  1.3636 -0.2238  0.0386
  878MOL0     C18421   2.235   2.801  10.647 -0.5366  0.2288  0.4137
  878MOL0     C18422   2.148   2.890  10.576  0.2190 -0.9318 -0.2681
  878MOL0     C18423   2.144   2.882  10.430  0.2758  0.3014  0.0901
  878MOL0     C18424   2.069   2.986  10.653 -0.2729  0.2455 -0.7075
  878MOL0     C18425   1.957   3.068  10.592  0.7166 -0.7794  0.3491
  878MOL0     O18426   1.898   3.173  10.676 -1.1214  0.2157 -0.2721
  878MOL0     C18427   1.805   3.255  10.618 -0.1857  0.2900  0.7438
  878MOL0     C18428   1.842   3.381  10.553 -0.3332  0.6505 -0.5211
  878MOL0     C18429   1.747   3.473  10.512  0.2042  0.0751  0.2856
  878MOL0     C18430   1.608   3.441  10.523 -0.1454 -0.2104 -0.3396
  878MOL0     O18431   1.520   3.535  10.478  0.1937  0.3885  0.5191
  878MOL0     C18432   1.391   3.484  10.433  0.2095  0.6668 -0.1152
  878MOL0     C18433   1.318   3.573  10.327 -1.0939  0.9516 -0.8185
  878MOL0     C18434   1.166   3.569  10.337 -0.3020  0.9919 -0.0418
  878MOL0     C18435   1.115   3.457  10.235  0.3981  0.9683 -1.1169
  878MOL0     C18436   1.120   3.313  10.277 -0.0989  0.8946 -0.4595
  878MOL0     C18437   1.022   3.287  10.392  0.0335  0.1355  0.0250
  878MOL0     C18438   0.993   3.135  10.421 -0.1673 -0.2217  0.5398
  878MOL0     C18439   0.898   3.126  10.534  0.0284 -0.8054  0.7688
  878MOL0    Cl18440   0.857   2.954  10.558  0.1405 -0.4445 -0.2150
  878MOL0     C18441   1.574   3.324  10.597 -0.5523  0.0658  0.3381
  878MOL0     C18442   1.672   3.233  10.643 -0.2887  0.0305  0.4156
  878MOL0     O18443   1.901   3.038  10.493  0.7997  0.1071 -0.0213
  878MOL0     C18444   2.097   2.991  10.794  0.1000 -0.0538  0.5893
  878MOL0     C18445   2.196   2.905  10.854  1.3178  0.0105 -1.0321
  878MOL0     N18446   2.753   2.337  10.717 -0.0949 -0.1784 -0.0989
  878MOL0     N18447   2.834   2.260  10.658  0.2270  0.4869  0.5852
  878MOL0     C18448   3.870   1.840  10.463 -0.0554  0.0808 -0.3610
  878MOL0     C18449   3.938   1.757  10.556 -0.4058  0.9160  0.5883
  878MOL0     C18450   4.264   1.632  10.878  1.0923  0.3441  0.0436
  878MOL0     C18451   4.256   1.495  10.840 -0.5639  0.4818  0.0088
  878MOL0     C18452   4.322   1.400  10.915 -0.2240 -0.4682 -0.4824
  878MOL0     C18453   4.387   1.431  11.031  0.0098  0.2941  0.6043
  878MOL0     O18454   4.435   1.323  11.102  0.3244  0.0391  0.0302
  878MOL0     C18455   4.487   1.348  11.237 -0.1290 -0.7376  0.4839
  878MOL0     C18456   4.389   1.317  11.350  0.4927 -0.7369 -0.0122
  878MOL0     C18457   4.246   1.372  11.321  0.5910  0.7798 -0.7346
  878MOL0     C18458   4.156   1.347  11.445 -0.5469 -0.0905  0.5455
  878MOL0     C18459   4.204   1.423  11.552  0.3251  0.3035  0.7234
  878MOL0     C18460   4.243   1.500  11.639  1.1908 -0.5918  0.5365
  878MOL0     C18461   4.396   1.569  11.067  0.4037  0.0926  0.0724
  878MOL0     C18462   4.343   1.673  10.993  0.0085  0.0471 -0.1982
  878MOL0     H18463   4.232   1.914  10.572  0.3489 -1.5676 -0.0685
  878MOL0     H18464   4.108   2.075  10.403  1.2107 -0.0182  1.0486
  878MOL0     H18465   3.646   2.034  10.366  1.3300 -1.4142 -1.6434
  878MOL0     H18466   3.736   2.077  10.504  0.7970 -0.5831  0.0002
  878MOL0     H18467   3.807   2.295  10.364 -1.0680  0.3846  1.1254
  878MOL0     H18468   3.698   2.242  10.237  2.8941  1.6203 -1.0256
  878MOL0     H18469   3.612   2.292  10.518  1.7755 -1.5397 -0.7746
  878MOL0     H18470   3.613   2.420  10.394 -2.5263  0.8827  2.8369
  878MOL0     H18471   3.467   2.226  10.260 -2.0258 -4.5216  0.8070
  878MOL0     H18472   3.454   2.158  10.416 -0.9519 -2.0033 -2.7164
  878MOL0     H18473   3.355   2.356  10.514 -0.6229 -0.0238 -0.4462
  878MOL0     H18474   3.347   2.432  10.353 -0.5847  0.5900  0.3863
  878MOL0     H18475   3.191   2.235  10.284  1.8452  0.6786 -0.0032
  878MOL0     H18476   3.234   2.151  10.422 -3.0231  1.0006  1.2973
  878MOL0     H18477   3.081   2.421  10.435 -0.8030 -0.1199  1.1529
  878MOL0     H18478   3.005   2.283  10.390  1.4052  0.7266 -2.3080
  878MOL0     H18479   3.171   2.322  10.664  0.9141 -1.1597  0.1255
  878MOL0     H18480   3.099   2.177  10.609 -2.7944  0.1449 -0.3864
  878MOL0     H18481   3.033   2.474  10.815  1.0173 -1.8628  0.3894
  878MOL0     H18482   2.696   2.455  10.975  2.1375 -1.4819  1.1519
  878MOL0     H18483   2.814   2.564  10.963 -1.1820 -1.0141  0.1652
  878MOL0     H18484   2.582   2.592  10.763 -0.3530 -0.9996  0.8282
  878MOL0     H18485   2.706   2.713  10.815  0.5560 -0.4992 -0.4866
  878MOL0     H18486   2.606   2.696  11.055 -0.5504 -1.4427  0.5568
  878MOL0     H18487   2.474   2.604  10.992 -0.5253  0.7965 -0.4153
  878MOL0     H18488   2.516   2.857  10.860 -0.6709  0.0984 -0.6323
  878MOL0     H18489   2.417   2.832  11.005 -0.9133 -0.5644  0.1769
  878MOL0     H18490   2.277   2.723  10.585  0.0956  2.3191 -1.9463
  878MOL0     H18491   2.147   2.980  10.382 -0.8278  0.5868  0.5629
  878MOL0     H18492   2.222   2.820  10.386  0.1197 -1.7744  2.5399
  878MOL0     H18493   2.053   2.828  10.401  0.3324  0.8386 -1.1536
  878MOL0     H18494   1.948   3.403  10.543  0.3411 -1.2989  1.4898
  878MOL0     H18495   1.780   3.560  10.456  1.3901  0.6884  1.8306
  878MOL0     H18496   1.401   3.386  10.387 -0.9613  0.8519 -0.8156
  878MOL0     H18497   1.331   3.479  10.525  1.0294  0.6991  0.4333
  878MOL0     H18498   1.346   3.677  10.348 -1.4945  0.6413  1.4925
  878MOL0     H18499   1.355   3.536  10.231  3.5204 -0.5975  1.2659
  878MOL0     H18500   1.122   3.657  10.288 -1.6130 -1.9891 -4.8588
  878MOL0     H18501   1.131   3.567  10.441  1.3662  4.2109  0.7253
  878MOL0     H18502   1.011   3.479  10.208  0.3073  2.9791  0.6419
  878MOL0     H18503   1.150   3.475  10.133 -4.3248  0.5257 -3.0804
  878MOL0     H18504   1.218   3.284  10.315 -1.1197  0.8563  2.3994
  878MOL0     H18505   1.080   3.246  10.200 -2.0299  0.2334  1.0197
  878MOL0     H18506   1.052   3.344  10.481  1.7956 -0.9855  0.1950
  878MOL0     H18507   0.927   3.327  10.357 -0.6372  0.5376  2.1588
  878MOL0     H18508   1.086   3.080  10.433 -0.9075 -1.7282 -0.3953
  878MOL0     H18509   0.940   3.095  10.334 -1.3572 -1.6295  1.8719
  878MOL0     H18510   0.812   3.184  10.499  2.1952  0.3123 -3.3480
  878MOL0     H18511   0.943   3.170  10.624  1.9532  1.3912 -1.1046
  878MOL0     H18512   1.468   3.304  10.609 -1.6554  4.0139 -1.0792
  878MOL0     H18513   1.640   3.140  10.689 -3.0624  0.5975 -0.1789
  878MOL0     H18514   2.052   3.067  10.857  0.7120 -0.6923  1.8222
  878MOL0     H18515   2.222   2.911  10.959  1.5047  1.3430 -1.1359
  878MOL0     H18516   3.769   1.807  10.437 -0.8879  1.4962  0.9086
  878MOL0     H18517   3.889   1.672  10.603 -0.5570 -0.9941 -2.6880
  878MOL0     H18518   4.197   1.468  10.753  0.8660 -0.9278 -0.5753
  878MOL0     H18519   4.305   1.294  10.901 -0.6293 -0.2223 -2.0281
  878MOL0     H18520   4.571   1.280  11.254  0.2284 -0.1032  1.3184
  878MOL0     H18521   4.542   1.443  11.242 -3.0806  1.2452 -1.3212
  878MOL0     H18522   4.423   1.338  11.451  0.0102 -1.4509  0.3081
  878MOL0     H18523   4.379   1.209  11.333 -2.0312 -0.4486 -0.7768
  878MOL0     H18524   4.201   1.317  11.238 -0.7079 -2.5967  1.9532
  878MOL0     H18525   4.244   1.479  11.301 -1.5248  1.2389  1.4886
  878MOL0     H18526   4.151   1.244  11.481 -0.6337  0.2859  1.6501
  878MOL0     H18527   4.052   1.372  11.424 -2.5535 -2.5507  5.7815
  878MOL0     H18528   4.270   1.578  11.707  1.0960  2.2465 -2.4478
  878MOL0     H18529   4.450   1.583  11.160 -1.4333 -1.7140  1.5348
  878MOL0     H18530   4.357   1.774  11.029  1.6121 -0.4110  0.5532
  879MOL0     O18531   5.819   8.493   4.752 -0.2024  0.3753  0.0836
  879MOL0     C18532   5.891   8.554   4.677 -0.6961  0.1692  0.2647
  879MOL0     O18533   5.954   8.680   4.712  0.0073  0.4108 -0.0870
  879MOL0     C18534   5.899   8.757   4.809 -0.2043  0.0935  0.0292
  879MOL0     C18535   5.765   8.787   4.818  0.8043 -0.3669  0.3407
  879MOL0     C18536   5.704   8.879   4.908 -0.9875 -0.1117  0.0921
  879MOL0     C18537   5.792   8.957   4.988  0.0537  0.1400  0.0612
  879MOL0     O18538   5.733   9.055   5.061 -1.0343 -0.6953 -0.0613
  879MOL0     C18539   5.640   9.012   5.166  0.7402 -0.1014  0.3804
  879MOL0     C18540   5.553   9.135   5.185 -0.4713 -0.2221 -0.3880
  879MOL0     C18541   5.488   9.137   5.328 -0.5582 -0.4849 -0.2143
  879MOL0     C18542   5.438   9.277   5.340  0.2429 -0.3173 -0.2933
  879MOL0     C18543   5.366   9.283   5.472 -0.0717  0.7538  0.2469
  879MOL0     C18544   5.350   9.431   5.489 -0.3583 -0.3009  0.8704
  879MOL0     C18545   5.246   9.442   5.609  0.1206  0.1921 -0.2678
  879MOL0     C18546   5.241   9.592   5.667 -0.4086 -0.3453  0.3432
  879MOL0     N18547   5.362   9.622   5.743 -0.2748  0.0724  0.5384
  879MOL0     C18548   5.383   9.673   5.866 -0.2746 -0.2527  0.1010
  879MOL0     C18549   5.515   9.722   5.872  0.4588  0.0152 -0.0875
  879MOL0     C18550   5.562   9.800   5.988  0.1664  0.3774 -0.1928
  879MOL0     C18551   5.692   9.754   6.061  0.8666 -0.6875 -1.0566
  879MOL0     C18552   5.797   9.859   6.088  0.3117 -0.2885  0.4923
  879MOL0     C18553   5.757   9.959   6.202  0.1023  0.1999 -0.1692
  879MOL0     O18554   5.874  10.049   6.221 -0.2182  0.0691  0.3126
  879MOL0     C18555   5.903  10.167   6.160  0.5128 -0.0733  0.1879
  879MOL0     C18556   6.023  10.226   6.167 -0.4229 -0.2311  0.2467
  879MOL0     C18557   6.057  10.337   6.094 -0.5526  0.3714  0.7657
  879MOL0     C18558   6.201  10.370   6.101 -0.3803 -0.8696 -0.0254
  879MOL0     C18559   5.953  10.410   6.025  0.5742  0.3104  0.1470
  879MOL0     C18560   5.967  10.546   5.952 -0.6640  0.7873  0.1380
  879MOL0     O18561   5.858  10.618   5.934 -0.2938 -0.6593  0.1088
  879MOL0     C18562   5.885  10.739   5.874 -0.1013 -0.3830  0.4650
  879MOL0     C18563   5.855  10.754   5.736 -0.3884 -0.0169 -0.2646
  879MOL0     C18564   5.873  10.882   5.682 -0.2142 -0.1115 -0.3420
  879MOL0     C18565   5.920  10.991   5.752 -0.5605 -0.1295  0.5510
  879MOL0     O18566   5.932  11.105   5.676  0.0647  0.4447  0.9770
  879MOL0     C18567   6.011  11.209   5.720 -0.1042  0.0135  0.1769
  879MOL0     C18568   6.013  11.326   5.621  0.4788  0.0645  0.1509
  879MOL0     C18569   6.060  11.455   5.683 -0.4117  0.9758  0.2141
  879MOL0     C18570   6.072  11.571   5.587 -0.5284  0.1799 -0.3255
  879MOL0     C18571   6.140  11.696   5.659  0.0995  0.0471  0.2453
  879MOL0     C18572   6.220  11.785   5.564  0.6208 -0.0242 -0.6869
  879MOL0     C18573   6.304  11.897   5.647  1.2640  0.2543  0.0992
  879MOL0     C18574   6.361  12.008   5.552 -0.2710  0.6810  0.4808
  879MOL0    Cl18575   6.515  11.926   5.488 -0.2142  0.1475  0.1062
  879MOL0     C18576   5.956  10.969   5.886  0.3105 -0.4726 -0.2122
  879MOL0     C18577   5.955  10.841   5.942  0.5248  0.0661  0.3016
  879MOL0     O18578   6.083  10.576   5.911  0.6805 -0.2887  0.6578
  879MOL0     C18579   5.823  10.359   6.026  0.1597 -0.0322 -0.6967
  879MOL0     C18580   5.801  10.231   6.090 -0.1607 -0.8744 -1.0287
  879MOL0     N18581   5.574   9.699   5.751 -0.3424 -0.0669 -0.4859
  879MOL0     N18582   5.480   9.647   5.680  0.5802 -0.0857  0.4051
  879MOL0     C18583   5.927   8.929   4.988 -0.0212  0.4044 -0.0774
  879MOL0     C18584   5.981   8.836   4.898 -0.2437  0.4283  0.8307
  879MOL0     C18585   5.914   8.492   4.545 -0.8617 -0.5057 -0.1568
  879MOL0     C18586   5.997   8.554   4.453 -0.6993 -0.1494 -0.0045
  879MOL0     C18587   6.011   8.507   4.328  0.3860  0.4223 -0.0965
  879MOL0     C18588   5.945   8.390   4.283 -0.0706  0.2831 -0.1340
  879MOL0     O18589   5.976   8.327   4.162  0.3725 -1.0448  0.4512
  879MOL0     C18590   5.959   8.415   4.045  0.1318 -0.1984  0.7468
  879MOL0     C18591   5.947   8.340   3.915  0.1006  0.4659 -0.3749
  879MOL0     C18592   6.072   8.267   3.856 -0.0638  0.4582 -0.1589
  879MOL0     C18593   6.040   8.187   3.729 -0.5405  0.0253 -0.2433
  879MOL0     C18594   5.984   8.050   3.751 -0.1980  0.0359  0.2697
  879MOL0     C18595   5.947   7.940   3.768  0.4563 -0.0414 -0.5316
  879MOL0     C18596   5.873   8.324   4.376  0.4300 -0.3691  0.1091
  879MOL0     C18597   5.849   8.373   4.505  0.0689  0.8029 -0.0447
  879MOL0     H18598   5.701   8.726   4.755  0.1090 -1.6983  2.2368
  879MOL0     H18599   5.600   8.906   4.926 -0.4946  1.0535  1.4495
  879MOL0     H18600   5.573   8.929   5.142 -0.6022  0.9639  0.3224
  879MOL0     H18601   5.692   8.984   5.258 -1.2736  0.6484  1.8130
  879MOL0     H18602   5.630   9.213   5.180 -1.5536  0.9825  0.9094
  879MOL0     H18603   5.483   9.152   5.103 -0.0704 -0.6969 -0.8364
  879MOL0     H18604   5.405   9.066   5.332 -0.9395 -0.0230  0.4005
  879MOL0     H18605   5.556   9.113   5.410 -1.1946 -2.6697 -0.2676
  879MOL0     H18606   5.524   9.346   5.342  1.1439 -1.4146  1.0726
  879MOL0     H18607   5.376   9.316   5.259  3.5607  1.5057 -2.1820
  879MOL0     H18608   5.267   9.241   5.452 -0.4102  0.4489  2.3938
  879MOL0     H18609   5.414   9.236   5.558 -2.0443 -1.6623  0.1034
  879MOL0     H18610   5.448   9.469   5.519 -1.2781  0.1741  3.6220
  879MOL0     H18611   5.316   9.478   5.397 -1.7705 -0.3703  1.3364
  879MOL0     H18612   5.143   9.429   5.575 -1.2932  1.2052  3.2384
  879MOL0     H18613   5.271   9.372   5.689 -0.2241 -1.4202 -1.5221
  879MOL0     H18614   5.146   9.608   5.719  0.8623 -0.8254  2.9518
  879MOL0     H18615   5.248   9.659   5.581  0.3438  0.1879  0.8075
  879MOL0     H18616   5.304   9.669   5.940 -0.3621  0.1743  0.0335
  879MOL0     H18617   5.584   9.900   5.951  1.1082  0.3950  0.3907
  879MOL0     H18618   5.480   9.811   6.058 -0.9128 -2.1413 -0.9431
  879MOL0     H18619   5.745   9.703   5.980  1.5978  2.0764 -2.4568
  879MOL0     H18620   5.666   9.691   6.146 -1.6963 -1.6711 -2.4499
  879MOL0     H18621   5.818   9.907   5.992 -0.7540 -0.2775  0.2594
  879MOL0     H18622   5.886   9.808   6.126  2.3512  3.9534  1.9911
  879MOL0     H18623   5.751   9.907   6.298  0.8438  0.5543  0.0754
  879MOL0     H18624   5.666  10.016   6.179  1.4646  2.6500  0.1552
  879MOL0     H18625   6.104  10.175   6.218  0.0083  0.8006  0.6177
  879MOL0     H18626   6.254  10.293   6.158  1.2145  1.5445  1.9845
  879MOL0     H18627   6.237  10.377   5.998 -0.1068  2.9532  0.1829
  879MOL0     H18628   6.217  10.466   6.151  0.4800  0.7543 -3.1991
  879MOL0     H18629   5.813  10.671   5.680  2.1342 -1.8944  0.4507
  879MOL0     H18630   5.833  10.886   5.581 -3.4812 -0.3992  0.8202
  879MOL0     H18631   5.970  11.247   5.814  0.4723  1.0420  0.0248
  879MOL0     H18632   6.110  11.163   5.733 -0.0634 -0.3857 -1.3836
  879MOL0     H18633   6.078  11.296   5.538  2.7618  1.2451  1.4089
  879MOL0     H18634   5.911  11.334   5.583  0.2187 -4.8876 -0.7912
  879MOL0     H18635   6.156  11.439   5.735 -0.5254  0.6406  0.3250
  879MOL0     H18636   5.984  11.476   5.759 -1.5216  0.0466 -0.6251
  879MOL0     H18637   6.123  11.539   5.495 -2.1285  0.0270 -1.1850
  879MOL0     H18638   5.977  11.614   5.555  0.2583  2.2086 -0.1286
  879MOL0     H18639   6.219  11.667   5.729 -0.1145  0.2166  0.5617
  879MOL0     H18640   6.072  11.758   5.719 -1.0223 -0.3782 -0.5472
  879MOL0     H18641   6.293  11.732   5.502  3.7253  3.4432 -0.2941
  879MOL0     H18642   6.146  11.839   5.504 -2.7530 -1.5935  1.7241
  879MOL0     H18643   6.377  11.839   5.704 -0.0793 -3.1017 -1.3025
  879MOL0     H18644   6.237  11.948   5.717  0.9864 -2.1342  1.6763
  879MOL0     H18645   6.378  12.095   5.616 -1.9718  0.8726  0.7252
  879MOL0     H18646   6.285  12.045   5.482 -2.5463 -0.4498  2.2080
  879MOL0     H18647   5.993  11.052   5.945 -1.6054 -1.6344  2.8633
  879MOL0     H18648   5.979  10.825   6.047 -0.0340  0.0801  0.4359
  879MOL0     H18649   5.732  10.400   5.984  1.3794  2.1726 -1.2931
  879MOL0     H18650   5.699  10.197   6.100 -1.4480  2.9219  0.5136
  879MOL0     H18651   5.977   8.978   5.071  0.7129 -0.4850  0.0063
  879MOL0     H18652   6.089   8.842   4.893 -0.2964  3.5091  1.3144
  879MOL0     H18653   6.056   8.644   4.464 -0.8793 -0.2808  2.4792
  879MOL0     H18654   6.078   8.564   4.264  1.2008  1.3027  1.4748
  879MOL0     H18655   5.881   8.491   4.059  0.1566  0.2986 -1.3614
  879MOL0     H18656   6.053   8.470   4.034  0.4982 -1.2462 -2.5241
  879MOL0     H18657   5.896   8.392   3.833 -0.1136 -4.6543 -3.9662
  879MOL0     H18658   5.874   8.262   3.935 -0.3349  1.1566  0.7951
  879MOL0     H18659   6.126   8.205   3.927  0.3997  0.5300 -0.4408
  879MOL0     H18660   6.142   8.347   3.829  3.7885 -1.7368  2.4039
  879MOL0     H18661   6.137   8.187   3.677 -0.3268  1.2485  0.1361
  879MOL0     H18662   5.975   8.250   3.667 -0.8070  1.6249  1.5595
  879MOL0     H18663   5.912   7.844   3.799  0.5103  0.4631  1.2001
  879MOL0     H18664   5.830   8.228   4.350  3.5220 -2.0295  0.6718
  879MOL0     H18665   5.787   8.311   4.569  0.3273 -1.2386 -1.6567
  880MOL0     O18666   4.931  10.094   2.520  0.4106 -0.6899 -0.2087
  880MOL0     C18667   4.898  10.011   2.438 -0.4233 -0.1713  0.1811
  880MOL0     O18668   4.848   9.885   2.465 -0.1796 -0.2413 -0.2132
  880MOL0     C18669   4.896   9.817   2.574 -0.8624  0.4490 -0.1391
  880MOL0     C18670   5.028   9.828   2.619  0.0439 -0.1498  0.6582
  880MOL0     C18671   5.080   9.735   2.710 -0.0664  0.2548 -0.4336
  880MOL0     C18672   4.994   9.633   2.766 -0.3702  0.4942  0.4455
  880MOL0     O18673   5.052   9.546   2.859 -0.7153 -0.4202 -0.0784
  880MOL0     C18674   5.091   9.428   2.800 -0.5081 -0.1716  0.4295
  880MOL0     C18675   5.179   9.356   2.898  0.7132  0.3313  0.5607
  880MOL0     C18676   5.317   9.412   2.918  1.1437 -0.4790 -0.4677
  880MOL0     C18677   5.373   9.373   3.059  0.0769  0.0440 -1.0925
  880MOL0     C18678   5.359   9.230   3.111 -0.5020 -0.7726 -1.0583
  880MOL0     C18679   5.481   9.154   3.093  0.1503 -0.0431 -0.3130
  880MOL0     C18680   5.458   9.014   3.148 -0.6978 -0.4156 -0.3502
  880MOL0     C18681   5.597   8.956   3.172  0.3628  0.4414 -0.3958
  880MOL0     N18682   5.577   8.818   3.223  0.3426 -0.0126  0.0548
  880MOL0     C18683   5.493   8.720   3.184  0.3118  0.1723  0.2219
  880MOL0     C18684   5.509   8.612   3.247  0.5469  0.8426 -0.1792
  880MOL0     C18685   5.425   8.484   3.252 -0.7440 -1.0265 -0.2543
  880MOL0     C18686   5.395   8.422   3.109  0.1273 -0.2615 -0.4207
  880MOL0     C18687   5.512   8.342   3.059  0.1496 -0.8006 -0.4940
  880MOL0     C18688   5.615   8.415   2.974  0.1477 -0.1569  0.8017
  880MOL0     O18689   5.676   8.321   2.886 -0.2897 -0.6962  0.4647
  880MOL0     C18690   5.614   8.292   2.768 -0.2106 -0.2762 -0.4829
  880MOL0     C18691   5.679   8.197   2.684 -0.8926  0.2836 -1.0009
  880MOL0     C18692   5.624   8.156   2.564 -0.4220  0.0110  0.1628
  880MOL0     C18693   5.706   8.043   2.492 -0.0388  0.7102  0.9786
  880MOL0     C18694   5.519   8.223   2.506 -0.0275  0.2260 -0.0271
  880MOL0     C18695   5.458   8.189   2.371  0.1270  0.0201  0.2400
  880MOL0     O18696   5.346   8.250   2.338 -0.5879 -0.2108  0.3169
  880MOL0     C18697   5.270   8.217   2.231 -1.4304  0.6396  0.0121
  880MOL0     C18698   5.282   8.103   2.143  0.3088 -0.6213 -0.7409
  880MOL0     C18699   5.185   8.088   2.056 -1.2761  0.6113  0.1497
  880MOL0     C18700   5.062   8.163   2.044  0.1963  0.6300  0.0787
  880MOL0     O18701   4.986   8.114   1.935 -0.6349 -0.4815 -0.7924
  880MOL0     C18702   4.855   8.160   1.919 -0.5477 -0.3633 -0.2479
  880MOL0     C18703   4.793   8.095   1.794 -0.3005  0.2652  0.9449
  880MOL0     C18704   4.870   8.142   1.665 -0.0350 -0.0797 -0.8688
  880MOL0     C18705   4.907   8.016   1.575  0.0460 -0.0389  0.2477
  880MOL0     C18706   4.954   8.042   1.431 -1.0420 -1.5734 -0.9406
  880MOL0     C18707   5.081   8.134   1.413  0.3579  0.1451 -0.9130
  880MOL0     C18708   5.211   8.041   1.436 -0.3802  0.2120 -1.1655
  880MOL0     C18709   5.324   8.117   1.367 -0.4283 -0.3709 -0.6474
  880MOL0    Cl18710   5.480   8.036   1.418  0.0499 -0.1775 -0.1038
  880MOL0     C18711   5.049   8.271   2.132  0.6192  0.1021  0.4161
  880MOL0     C18712   5.151   8.292   2.227 -0.2673 -0.7530 -0.8411
  880MOL0     O18713   5.507   8.098   2.303 -0.1573  0.2210  0.1772
  880MOL0     C18714   5.468   8.336   2.580  0.6027 -0.7171 -0.2889
  880MOL0     C18715   5.508   8.361   2.714  0.4324  0.2875 -0.3507
  880MOL0     N18716   5.613   8.639   3.337  0.6078 -0.3250 -0.7529
  880MOL0     N18717   5.666   8.757   3.310 -0.2928  0.1638 -0.2199
  880MOL0     C18718   4.860   9.624   2.721 -0.4154  0.5201 -0.5385
  880MOL0     C18719   4.818   9.712   2.623  1.0608  0.1082 -1.0210
  880MOL0     C18720   4.883  10.055   2.303 -0.3267 -0.2781 -0.2102
  880MOL0     C18721   4.964  10.159   2.252  0.1569 -0.0859 -1.1936
  880MOL0     C18722   4.950  10.203   2.126  0.8061 -0.6307 -0.7850
  880MOL0     C18723   4.854  10.150   2.039 -0.3448 -0.7739  0.4918
  880MOL0     O18724   4.837  10.179   1.908  0.3908 -0.1230 -0.1953
  880MOL0     C18725   4.815  10.320   1.890  0.7859  0.2857 -0.4999
  880MOL0     C18726   4.920  10.381   1.793  0.6514 -0.2287 -0.0588
  880MOL0     C18727   4.902  10.539   1.773 -0.1523 -0.3876  0.4721
  880MOL0     C18728   5.012  10.599   1.696  0.0047 -0.5439 -0.4075
  880MOL0     C18729   5.013  10.548   1.562 -0.4920  1.0293  0.5444
  880MOL0     C18730   5.019  10.501   1.452  0.3333 -0.4346 -0.0846
  880MOL0     C18731   4.779  10.042   2.091  0.5127 -1.1126 -0.2720
  880MOL0     C18732   4.798   9.986   2.216 -0.5664  0.5477  0.7470
  880MOL0     H18733   5.089   9.914   2.596 -2.1918  1.5358  0.6557
  880MOL0     H18734   5.184   9.743   2.740  0.0007 -2.5360  0.3477
  880MOL0     H18735   5.000   9.371   2.783 -0.2507 -0.8349  1.2008
  880MOL0     H18736   5.141   9.456   2.707 -1.1397  1.9117  0.6514
  880MOL0     H18737   5.119   9.349   2.989  2.8361 -3.6112  1.8872
  880MOL0     H18738   5.184   9.256   2.856  3.5573  0.7444 -0.3228
  880MOL0     H18739   5.378   9.382   2.832 -0.4607 -6.1369 -0.0690
  880MOL0     H18740   5.310   9.521   2.915 -0.6509 -0.3883  2.6955
  880MOL0     H18741   5.482   9.387   3.059 -0.1067  1.7595 -2.4126
  880MOL0     H18742   5.327   9.433   3.139  0.6534  0.4139 -1.0254
  880MOL0     H18743   5.341   9.224   3.218  0.7658  3.3027 -0.4801
  880MOL0     H18744   5.277   9.174   3.063 -1.7622 -1.4884  1.7271
  880MOL0     H18745   5.495   9.146   2.985 -2.4390  0.8647 -0.8065
  880MOL0     H18746   5.561   9.206   3.145  1.3547 -1.9374 -0.1924
  880MOL0     H18747   5.408   9.022   3.245 -1.0976  2.0532 -0.6843
  880MOL0     H18748   5.403   8.951   3.078  1.0443  0.4810 -2.6400
  880MOL0     H18749   5.660   9.004   3.248  0.1668 -2.1995  1.5805
  880MOL0     H18750   5.651   8.956   3.076  1.2702 -1.5941  0.0572
  880MOL0     H18751   5.418   8.721   3.105  1.6565 -0.6311 -1.1265
  880MOL0     H18752   5.465   8.411   3.322 -0.6643 -2.5510 -1.8097
  880MOL0     H18753   5.334   8.510   3.306  0.6929 -0.2175  1.9277
  880MOL0     H18754   5.361   8.483   3.025 -1.6510  0.4368  0.7348
  880MOL0     H18755   5.303   8.362   3.110 -0.7690  0.9933 -2.2005
  880MOL0     H18756   5.466   8.262   3.001 -3.1067  0.6203 -0.1120
  880MOL0     H18757   5.570   8.308   3.145  0.9930  1.6244 -0.0083
  880MOL0     H18758   5.692   8.459   3.039  0.0340  1.2824  0.0202
  880MOL0     H18759   5.575   8.493   2.909 -0.6565 -0.4381  0.9445
  880MOL0     H18760   5.759   8.143   2.733 -0.6544  1.1584 -0.4038
  880MOL0     H18761   5.794   8.012   2.549  0.3863 -1.6827 -0.8402
  880MOL0     H18762   5.644   7.953   2.488  0.9832  0.0256 -2.1325
  880MOL0     H18763   5.738   8.079   2.394 -4.6348  3.2550  0.1183
  880MOL0     H18764   5.359   8.027   2.143  0.5756 -0.3582 -0.2030
  880MOL0     H18765   5.197   8.011   1.980  4.4634  2.2440 -1.1157
  880MOL0     H18766   4.793   8.142   2.008  0.6291  1.4154  1.0163
  880MOL0     H18767   4.851   8.268   1.901  0.2041  0.0518  1.6965
  880MOL0     H18768   4.794   7.986   1.809 -1.1032  0.3666  1.8506
  880MOL0     H18769   4.690   8.132   1.793 -0.1122  0.7875 -0.7196
  880MOL0     H18770   4.964   8.192   1.689 -0.2086  0.8932 -2.1195
  880MOL0     H18771   4.813   8.209   1.600  0.9117 -0.0536 -1.7043
  880MOL0     H18772   4.989   7.968   1.630  0.1665  4.0401  4.2578
  880MOL0     H18773   4.825   7.943   1.573  0.9672 -1.1347  0.8188
  880MOL0     H18774   4.869   8.096   1.389 -0.7442  0.0010  0.3474
  880MOL0     H18775   4.954   7.948   1.377  3.3194 -2.3472  0.0505
  880MOL0     H18776   5.070   8.158   1.307 -2.0231  1.4060 -0.4568
  880MOL0     H18777   5.086   8.225   1.474  3.5942 -1.4556  1.5583
  880MOL0     H18778   5.194   7.941   1.394 -2.7844 -0.7645  1.7385
  880MOL0     H18779   5.230   8.008   1.539 -0.2623 -0.7733 -1.4927
  880MOL0     H18780   5.333   8.220   1.404 -0.0961 -0.3421 -0.8007
  880MOL0     H18781   5.317   8.109   1.259 -0.9927  0.0591 -0.6459
  880MOL0     H18782   4.966   8.340   2.117  0.0450 -0.5220  0.6786
  880MOL0     H18783   5.157   8.384   2.284  0.0323 -1.4913  0.3519
  880MOL0     H18784   5.384   8.394   2.542  1.1217  0.6166  0.4930
  880MOL0     H18785   5.462   8.446   2.765  2.2175  0.8726  0.3999
  880MOL0     H18786   4.803   9.546   2.770 -0.2524  0.6581 -0.1265
  880MOL0     H18787   4.714   9.715   2.593  1.1818  1.0750 -1.3950
  880MOL0     H18788   5.038  10.208   2.314 -0.1917 -2.4415  1.2810
  880MOL0     H18789   5.011  10.278   2.076  1.2399  0.7042  1.5832
  880MOL0     H18790   4.712  10.345   1.863  0.1482  0.2595  1.6830
  880MOL0     H18791   4.815  10.376   1.984  0.6862 -2.7595  1.4716
  880MOL0     H18792   4.912  10.334   1.695 -2.1715  1.2163 -0.6418
  880MOL0     H18793   5.016  10.356   1.839  0.3111 -2.7194 -0.5609
  880MOL0     H18794   4.875  10.590   1.866  1.0021  1.8586 -0.3512
  880MOL0     H18795   4.816  10.556   1.707  1.2483 -0.0400 -1.3135
  880MOL0     H18796   5.105  10.580   1.751 -1.0387 -0.9761  1.2970
  880MOL0     H18797   5.001  10.707   1.685  4.5524  0.3494  1.5754
  880MOL0     H18798   5.034  10.456   1.356  0.6509 -0.1607 -0.1648
  880MOL0     H18799   4.704   9.995   2.028 -3.0952 -0.8836  3.4479
  880MOL0     H18800   4.752   9.888   2.224 -1.3650  0.8033 -0.4216
  881MOL0     O18801   4.416   3.135   0.571  0.4567 -0.5407 -0.5796
  881MOL0     C18802   4.306   3.138   0.520  0.2260  0.4061  0.4844
  881MOL0     O18803   4.236   3.244   0.501 -0.0105 -0.2110  0.3414
  881MOL0     C18804   4.261   3.357   0.574  0.8323 -0.8212  0.3671
  881MOL0     C18805   4.207   3.474   0.506 -0.8467 -0.2765 -0.6002
  881MOL0     C18806   4.251   3.606   0.547 -0.4628 -0.4315  0.3137
  881MOL0     C18807   4.323   3.624   0.669  0.0777  0.9577  0.0810
  881MOL0     O18808   4.363   3.747   0.716  0.2841 -0.2018  0.1785
  881MOL0     C18809   4.381   3.847   0.620  0.7704  0.7978 -0.4335
  881MOL0     C18810   4.474   3.952   0.669  0.5695  0.5844 -0.0651
  881MOL0     C18811   4.422   4.031   0.781 -0.0737  0.0675  1.0267
  881MOL0     C18812   4.519   4.093   0.864 -0.2237 -0.3496  0.0070
  881MOL0     C18813   4.458   4.204   0.951  0.4500 -0.3724 -1.1017
  881MOL0     C18814   4.348   4.152   1.056  0.3419 -0.2817 -0.7501
  881MOL0     C18815   4.313   4.267   1.150  0.8770  0.2022  0.5803
  881MOL0     C18816   4.214   4.370   1.085 -0.4167  0.3196  0.8207
  881MOL0     N18817   4.161   4.476   1.166  0.1353 -0.6373 -0.5655
  881MOL0     C18818   4.236   4.540   1.262  0.4261  0.6342  0.1016
  881MOL0     C18819   4.158   4.608   1.348  0.0497  0.1326  0.4471
  881MOL0     C18820   4.196   4.685   1.469 -1.3727 -0.3792  0.4761
  881MOL0     C18821   4.221   4.830   1.456 -0.2015 -0.2043 -0.3929
  881MOL0     C18822   4.356   4.856   1.394  0.6293 -0.4496  0.2235
  881MOL0     C18823   4.376   5.008   1.368 -0.4749 -0.9255  0.2089
  881MOL0     O18824   4.292   5.035   1.260  0.4192 -0.0612  0.4087
  881MOL0     C18825   4.297   5.153   1.195  0.2160  0.1458  1.0669
  881MOL0     C18826   4.178   5.201   1.127  0.8753  0.0346  0.7075
  881MOL0     C18827   4.182   5.317   1.039  0.2908 -0.1593  0.6051
  881MOL0     C18828   4.050   5.343   0.967  0.0756  0.0446 -0.2406
  881MOL0     C18829   4.306   5.379   1.013  0.3463 -0.4439 -0.3337
  881MOL0     C18830   4.317   5.470   0.908 -0.0947 -0.2853  1.1294
  881MOL0     O18831   4.447   5.485   0.864  0.3656 -0.7597  0.4899
  881MOL0     C18832   4.477   5.554   0.748  0.3274  0.4712  0.0135
  881MOL0     C18833   4.468   5.690   0.735  0.3587 -0.6020  0.3987
  881MOL0     C18834   4.486   5.751   0.617  0.4065 -0.0076  0.6453
  881MOL0     C18835   4.515   5.678   0.499  0.8602 -0.0896 -0.6253
  881MOL0     O18836   4.529   5.747   0.384 -0.4331  0.6196 -1.0686
  881MOL0     C18837   4.584   5.879   0.381  0.0013 -0.4579  0.2372
  881MOL0     C18838   4.637   5.915   0.247  0.0955  0.3911 -0.4343
  881MOL0     C18839   4.650   6.065   0.225 -0.1975 -0.7267 -0.0265
  881MOL0     C18840   4.764   6.133   0.279 -0.0326 -0.4256 -1.1821
  881MOL0     C18841   4.769   6.285   0.249  0.3944 -0.3958 -0.2296
  881MOL0     C18842   4.834   6.366   0.360 -0.0619 -0.1356 -0.2849
  881MOL0     C18843   4.864   6.504   0.310 -0.0119  0.3735  0.3003
  881MOL0     C18844   4.960   6.580   0.409 -0.4141  0.7163 -0.2993
  881MOL0    Cl18845   5.127   6.507   0.408  0.5721  0.1622 -0.3382
  881MOL0     C18846   4.533   5.536   0.513 -0.1750 -0.5623  0.4795
  881MOL0     C18847   4.510   5.478   0.644  0.3548  0.0629  0.4837
  881MOL0     O18848   4.226   5.524   0.851  0.3412  0.2918  0.0359
  881MOL0     C18849   4.419   5.342   1.090  0.1364 -0.3444  0.9462
  881MOL0     C18850   4.413   5.233   1.173 -0.6814  1.0592  0.2742
  881MOL0     N18851   4.026   4.584   1.300 -0.4545 -0.3327 -0.0003
  881MOL0     N18852   4.023   4.497   1.206 -0.5879 -0.1452  0.5437
  881MOL0     C18853   4.362   3.510   0.740 -0.0015  0.0622  0.6080
  881MOL0     C18854   4.347   3.380   0.683 -0.4386 -0.4507 -0.9040
  881MOL0     C18855   4.247   3.009   0.471  0.5457  0.0849 -0.1716
  881MOL0     C18856   4.318   2.887   0.475 -1.1573 -0.2729 -0.1810
  881MOL0     C18857   4.263   2.763   0.457  0.4372 -0.1465  0.1154
  881MOL0     C18858   4.131   2.757   0.403  0.1480  0.0009  0.0754
  881MOL0     O18859   4.074   2.630   0.396  0.3088  0.0193  0.1753
  881MOL0     C18860   3.934   2.607   0.372 -0.4092  0.8772  0.0585
  881MOL0     C18861   3.912   2.452   0.383  0.0995 -0.7003  0.0418
  881MOL0     C18862   3.775   2.410   0.333  0.1210  0.8510 -0.5746
  881MOL0     C18863   3.665   2.440   0.437 -0.0312 -0.0316 -1.3775
  881MOL0     C18864   3.543   2.364   0.411  0.3294  0.1840 -0.1425
  881MOL0     C18865   3.433   2.309   0.393  0.1601 -0.1022 -0.3663
  881MOL0     C18866   4.060   2.879   0.390  0.0084  0.1802  0.5936
  881MOL0     C18867   4.116   3.005   0.421  0.1614 -0.4714  0.8020
  881MOL0     H18868   4.135   3.458   0.426 -2.7168  1.4503  0.6397
  881MOL0     H18869   4.220   3.696   0.495 -1.5745 -0.8154  0.2808
  881MOL0     H18870   4.422   3.807   0.527 -1.4517  1.6857 -1.8752
  881MOL0     H18871   4.283   3.895   0.616 -0.1840 -0.8374  1.5446
  881MOL0     H18872   4.563   3.904   0.712  0.8179  1.8247  0.8567
  881MOL0     H18873   4.507   4.019   0.588 -3.1911  0.2867 -2.0556
  881MOL0     H18874   4.354   4.112   0.752  2.9122  2.5396  0.3205
  881MOL0     H18875   4.378   3.958   0.850 -0.7616 -1.4061 -0.8852
  881MOL0     H18876   4.565   4.012   0.921  0.8055 -0.0125 -0.3304
  881MOL0     H18877   4.592   4.135   0.795  0.4312 -2.7365 -0.8508
  881MOL0     H18878   4.533   4.267   1.000 -1.2851 -0.0698  1.3877
  881MOL0     H18879   4.394   4.274   0.897 -0.1057 -1.4999 -1.9443
  881MOL0     H18880   4.260   4.110   1.008  1.1563 -2.2462 -0.6071
  881MOL0     H18881   4.400   4.077   1.117  1.1192  1.3894  0.7536
  881MOL0     H18882   4.268   4.234   1.244  0.0890  0.5438  0.3301
  881MOL0     H18883   4.410   4.311   1.173  1.0450  0.2930 -0.2880
  881MOL0     H18884   4.135   4.313   1.036  0.7393 -1.4154  0.8820
  881MOL0     H18885   4.262   4.413   0.997 -0.1757  0.8696  1.2148
  881MOL0     H18886   4.343   4.533   1.280  0.2208 -0.1520  1.1545
  881MOL0     H18887   4.119   4.657   1.541  1.6632 -1.8656  3.4011
  881MOL0     H18888   4.287   4.642   1.512  0.5435  0.1424 -2.6588
  881MOL0     H18889   4.217   4.864   1.559 -1.7438 -0.6751 -0.2677
  881MOL0     H18890   4.141   4.885   1.405 -0.8701 -0.0614  0.7946
  881MOL0     H18891   4.356   4.807   1.296 -2.2579  2.5401 -1.4718
  881MOL0     H18892   4.433   4.823   1.464 -0.6015 -1.5181  1.1367
  881MOL0     H18893   4.478   5.025   1.332 -1.0429  0.7396 -0.7383
  881MOL0     H18894   4.358   5.069   1.457  1.6162  0.1549 -0.0481
  881MOL0     H18895   4.082   5.152   1.138 -0.2288  1.7374 -0.9447
  881MOL0     H18896   3.987   5.253   0.962 -1.5208  1.0017  1.3758
  881MOL0     H18897   4.003   5.426   1.021  2.1445  1.3398 -0.3133
  881MOL0     H18898   4.065   5.366   0.862  2.4987 -0.4981 -0.0697
  881MOL0     H18899   4.440   5.750   0.821 -0.5001 -0.9346  0.3621
  881MOL0     H18900   4.455   5.853   0.600  2.4333  0.7530  1.3325
  881MOL0     H18901   4.509   5.953   0.411 -0.4097 -0.3275 -1.0536
  881MOL0     H18902   4.669   5.894   0.449  0.2903  3.1361 -0.6938
  881MOL0     H18903   4.732   5.865   0.223 -0.6281 -0.7792 -0.9541
  881MOL0     H18904   4.559   5.881   0.177 -1.6080 -0.5648  1.8095
  881MOL0     H18905   4.559   6.114   0.262 -0.6780  0.5846 -2.6922
  881MOL0     H18906   4.641   6.090   0.119 -0.6158  1.0257  0.3782
  881MOL0     H18907   4.757   6.128   0.388 -1.1860  4.6820 -0.7588
  881MOL0     H18908   4.859   6.088   0.251  0.6572 -1.7210  2.6638
  881MOL0     H18909   4.673   6.327   0.220  1.0259  0.6443 -0.8993
  881MOL0     H18910   4.834   6.297   0.162 -1.0936 -1.4733 -1.5464
  881MOL0     H18911   4.772   6.363   0.449 -1.6220 -3.6286 -1.3250
  881MOL0     H18912   4.932   6.326   0.387  0.7757  2.9257  1.6658
  881MOL0     H18913   4.776   6.562   0.284  0.4394  0.5059 -0.9768
  881MOL0     H18914   4.917   6.489   0.216 -0.1093 -3.5675  0.6901
  881MOL0     H18915   4.906   6.590   0.503  0.4315 -1.2398  0.4351
  881MOL0     H18916   4.978   6.681   0.369  1.0825  1.0186  1.0082
  881MOL0     H18917   4.555   5.487   0.419  1.4195  0.3655  0.3366
  881MOL0     H18918   4.513   5.370   0.653  1.1809  0.1559  1.5510
  881MOL0     H18919   4.510   5.398   1.072 -1.9141  2.5127 -1.4233
  881MOL0     H18920   4.501   5.195   1.225 -1.4842 -0.4430  0.5555
  881MOL0     H18921   4.404   3.528   0.839 -2.9332  1.5478  1.7063
  881MOL0     H18922   4.375   3.295   0.743 -0.7738 -2.1811 -3.0874
  881MOL0     H18923   4.419   2.878   0.513 -1.2776 -0.2368  0.1505
  881MOL0     H18924   4.316   2.672   0.481  1.3396  0.2844 -0.2127
  881MOL0     H18925   3.877   2.661   0.448 -0.9545  0.6239 -0.1675
  881MOL0     H18926   3.912   2.645   0.272 -1.2363  1.1342  0.3323
  881MOL0     H18927   3.921   2.422   0.488  0.8659 -0.6846 -0.0184
  881MOL0     H18928   3.986   2.410   0.314  0.2764 -1.2577  0.5594
  881MOL0     H18929   3.776   2.303   0.310 -2.7639  0.3324  1.1654
  881MOL0     H18930   3.757   2.451   0.234 -0.2971  0.9911 -0.4402
  881MOL0     H18931   3.629   2.543   0.440  4.1602  1.6119 -1.1742
  881MOL0     H18932   3.708   2.406   0.531  2.4100 -0.9926 -2.7595
  881MOL0     H18933   3.331   2.282   0.371  0.0943  1.3797 -2.1216
  881MOL0     H18934   3.968   2.885   0.333 -0.0972  0.6838  0.8094
  881MOL0     H18935   4.062   3.095   0.392  1.8095 -0.0948 -1.3289
  882MOL0     O18936   2.030   5.424   1.685  0.1674  0.5914 -0.1722
  882MOL0     C18937   2.145   5.405   1.653  0.2185 -0.7882  0.7614
  882MOL0     O18938   2.212   5.283   1.656 -0.6161 -0.2794  0.8531
  882MOL0     C18939   2.149   5.166   1.626 -0.3000  0.2297  0.0393
  882MOL0     C18940   2.239   5.073   1.581  0.5626  1.2308 -0.2292
  882MOL0     C18941   2.202   4.945   1.530 -1.2961  0.5071 -0.1310
  882MOL0     C18942   2.064   4.908   1.540  0.8050  0.0572 -0.3169
  882MOL0     O18943   2.006   4.793   1.499 -0.0506 -0.1603 -0.6110
  882MOL0     C18944   2.082   4.683   1.439  0.3354 -0.2466 -1.3031
  882MOL0     C18945   2.100   4.714   1.297  0.6682  0.1373  0.4458
  882MOL0     C18946   1.970   4.705   1.215 -1.7424 -0.7175  0.4182
  882MOL0     C18947   1.933   4.852   1.189  0.1552 -0.5344  0.2930
  882MOL0     C18948   1.793   4.872   1.145  0.8650 -0.2596 -0.4150
  882MOL0     C18949   1.754   5.013   1.117 -0.3380  0.1214 -0.3795
  882MOL0     C18950   1.607   5.034   1.076  0.1672  1.1975  0.0499
  882MOL0     C18951   1.581   5.172   1.026 -0.7059  0.3080  0.1850
  882MOL0     N18952   1.437   5.208   0.994 -0.5822 -0.3201 -0.2755
  882MOL0     C18953   1.381   5.187   0.870 -0.5751 -0.5807  0.2100
  882MOL0     C18954   1.274   5.270   0.867 -0.2762 -0.4834  0.5630
  882MOL0     C18955   1.172   5.282   0.751 -1.2086 -0.1048  0.0687
  882MOL0     C18956   1.084   5.165   0.737  0.2774  0.6020 -0.6016
  882MOL0     C18957   1.001   5.175   0.613  0.1846  0.7724  0.4845
  882MOL0     C18958   0.958   5.032   0.558 -0.4491 -0.9436 -0.6470
  882MOL0     O18959   0.852   5.059   0.474 -1.1797 -0.6294 -0.0894
  882MOL0     C18960   0.879   5.071   0.340  0.1260 -0.1949 -0.3447
  882MOL0     C18961   0.953   4.975   0.269  0.0111 -0.4302  0.5822
  882MOL0     C18962   0.998   5.004   0.138  0.5434  0.2804 -0.8344
  882MOL0     C18963   1.082   4.899   0.063  0.0658  0.0569 -0.7290
  882MOL0     C18964   0.974   5.134   0.075  0.2489  0.6051 -0.8231
  882MOL0     C18965   1.001   5.163  -0.064 -0.7976 -0.1837  0.0093
  882MOL0     O18966   0.993   5.306  -0.098  0.1933  0.5984  0.3593
  882MOL0     C18967   0.970   5.341  -0.231 -0.6225 -0.0254  0.2579
  882MOL0     C18968   0.953   5.481  -0.228  0.2912 -0.7873 -0.1358
  882MOL0     C18969   0.931   5.549  -0.357  0.1181  0.2266  0.1740
  882MOL0     C18970   0.934   5.487  -0.475  0.6844 -0.0940 -0.8155
  882MOL0     O18971   0.916   5.546  -0.598 -0.6264 -0.1397 -0.5442
  882MOL0     C18972   0.910   5.691  -0.610 -0.2401  0.3012  0.5383
  882MOL0     C18973   0.898   5.705  -0.768 -0.2480  1.1163  0.1458
  882MOL0     C18974   0.773   5.801  -0.784  0.3062 -0.1624  0.5257
  882MOL0     C18975   0.767   5.824  -0.938 -1.0031  0.0374  0.3378
  882MOL0     C18976   0.657   5.934  -0.978 -0.8740  0.5733  0.4508
  882MOL0     C18977   0.700   6.018  -1.102 -0.0480 -1.2696 -0.0703
  882MOL0     C18978   0.703   5.932  -1.216  0.7193  0.9245 -0.7408
  882MOL0     C18979   0.627   5.987  -1.338 -0.1313 -0.7519  0.2764
  882MOL0    Cl18980   0.641   5.884  -1.486  0.1653  0.3604 -0.3164
  882MOL0     C18981   0.950   5.345  -0.470 -0.0249 -0.5477  0.5659
  882MOL0     C18982   0.979   5.270  -0.357 -0.6680 -1.0846 -0.3170
  882MOL0     O18983   1.003   5.071  -0.150 -0.5514  0.3053 -0.3703
  882MOL0     C18984   0.903   5.231   0.156  0.0822 -0.0258  0.0372
  882MOL0     C18985   0.862   5.197   0.280  0.0893 -0.0855 -1.1709
  882MOL0     N18986   1.269   5.345   0.984  0.5497  0.2803  0.7354
  882MOL0     N18987   1.367   5.294   1.061 -0.4008 -0.1213  0.1499
  882MOL0     C18988   1.980   4.993   1.608  0.3784 -1.2273 -0.2517
  882MOL0     C18989   2.017   5.127   1.644  1.0073  0.5196 -0.1794
  882MOL0     C18990   2.220   5.538   1.638 -1.0787  0.3402  0.0243
  882MOL0     C18991   2.363   5.539   1.640 -0.0108  0.1570  1.0467
  882MOL0     C18992   2.437   5.652   1.638 -0.1107 -0.8646 -0.4772
  882MOL0     C18993   2.373   5.773   1.619  0.2602 -0.5003 -0.1968
  882MOL0     O18994   2.455   5.883   1.621 -0.1105 -0.1691  0.1956
  882MOL0     C18995   2.420   6.000   1.541 -0.6728 -0.7418 -0.7071
  882MOL0     C18996   2.548   6.076   1.500 -0.1396  0.6635  0.4824
  882MOL0     C18997   2.632   6.128   1.610  0.0378  0.3472  0.2782
  882MOL0     C18998   2.744   6.217   1.548 -0.2332 -0.8650  0.4786
  882MOL0     C18999   2.707   6.353   1.502  0.1922  1.0139 -0.2272
  882MOL0     C19000   2.682   6.466   1.476 -0.6710  0.1514 -0.4753
  882MOL0     C19001   2.229   5.772   1.606  0.2759 -0.0800  0.0798
  882MOL0     C19002   2.148   5.657   1.614 -0.3532 -0.1453 -0.2521
  882MOL0     H19003   2.339   5.102   1.551  0.7395 -1.7557 -3.0024
  882MOL0     H19004   2.269   4.882   1.473 -0.9125  0.5391  0.2856
  882MOL0     H19005   2.183   4.672   1.481 -1.4909  0.0268  3.8383
  882MOL0     H19006   2.031   4.588   1.455  0.0814  0.0211 -0.4620
  882MOL0     H19007   2.165   4.797   1.267 -0.3029  0.3976 -1.0291
  882MOL0     H19008   2.148   4.625   1.256 -2.3104 -1.8952  1.0551
  882MOL0     H19009   1.983   4.643   1.126 -0.2203 -2.2301  1.6313
  882MOL0     H19010   1.902   4.647   1.279 -0.4006  1.0935  3.6914
  882MOL0     H19011   1.943   4.907   1.284 -1.5507 -2.5923  1.7772
  882MOL0     H19012   2.003   4.895   1.117  1.1970 -1.6231  0.6294
  882MOL0     H19013   1.779   4.819   1.051 -1.6065 -0.6734  0.1158
  882MOL0     H19014   1.715   4.833   1.212 -2.5628  2.0968 -2.6669
  882MOL0     H19015   1.774   5.077   1.203  0.0026 -0.0235 -0.3486
  882MOL0     H19016   1.824   5.049   1.041  0.8302 -0.2965  0.4633
  882MOL0     H19017   1.594   4.967   0.990 -0.5951  0.6430  0.5822
  882MOL0     H19018   1.540   4.995   1.154  0.8394 -0.0826  0.0192
  882MOL0     H19019   1.640   5.179   0.934  0.5705 -0.4612  0.9089
  882MOL0     H19020   1.625   5.241   1.098 -0.6154  2.1661 -1.5768
  882MOL0     H19021   1.427   5.127   0.793 -1.0339 -1.2367  0.4337
  882MOL0     H19022   1.105   5.366   0.772 -0.0130  0.5896  1.3415
  882MOL0     H19023   1.235   5.302   0.664  0.6310 -0.4630  1.2586
  882MOL0     H19024   1.008   5.160   0.816 -0.6588  1.4155 -1.4239
  882MOL0     H19025   1.140   5.072   0.727  0.1506  0.6796 -2.3227
  882MOL0     H19026   1.065   5.223   0.539 -0.4087  0.0237 -0.5471
  882MOL0     H19027   0.916   5.240   0.633 -0.7897 -0.4409  0.4020
  882MOL0     H19028   0.924   4.977   0.646 -0.0580 -0.6453 -0.3037
  882MOL0     H19029   1.044   4.987   0.507 -0.1784 -0.3330 -0.7336
  882MOL0     H19030   0.972   4.880   0.318 -0.8337 -0.1538  1.4728
  882MOL0     H19031   1.175   4.947   0.030  0.7398 -0.9996 -0.4098
  882MOL0     H19032   1.112   4.813   0.123  1.2700  0.4725 -0.7031
  882MOL0     H19033   1.029   4.858  -0.023 -1.7523  1.2530 -0.2272
  882MOL0     H19034   0.982   5.539  -0.141  1.6891 -2.3310  0.4811
  882MOL0     H19035   0.921   5.657  -0.353 -3.0938  0.0095  1.2923
  882MOL0     H19036   0.820   5.724  -0.558 -1.1541 -0.1900 -0.6899
  882MOL0     H19037   0.998   5.744  -0.572  0.2384 -0.2163  0.1727
  882MOL0     H19038   0.992   5.743  -0.810  0.9282 -2.7121 -1.0814
  882MOL0     H19039   0.892   5.609  -0.820  2.1449  0.9243  0.1141
  882MOL0     H19040   0.777   5.897  -0.732 -1.4616 -0.0579  0.5266
  882MOL0     H19041   0.674   5.764  -0.753 -2.2007  2.4380 -3.4362
  882MOL0     H19042   0.869   5.860  -0.959 -0.4012  0.7355  3.8681
  882MOL0     H19043   0.743   5.734  -0.995  1.3027 -0.9978  0.8843
  882MOL0     H19044   0.652   6.007  -0.896  3.5198  1.0186  0.5721
  882MOL0     H19045   0.561   5.887  -0.999 -1.0676  0.4811  1.4888
  882MOL0     H19046   0.638   6.108  -1.097 -0.1771 -1.4252  3.8308
  882MOL0     H19047   0.807   6.039  -1.088 -0.0243 -1.9011  0.7941
  882MOL0     H19048   0.667   5.830  -1.202 -3.3793  2.2380 -0.4298
  882MOL0     H19049   0.809   5.933  -1.243  0.9050  0.4857 -0.0399
  882MOL0     H19050   0.662   6.086  -1.367 -1.5714 -0.3400 -0.0826
  882MOL0     H19051   0.521   5.990  -1.314 -0.2278 -1.7125 -0.0009
  882MOL0     H19052   0.961   5.275  -0.553  0.4541 -1.3250  1.2670
  882MOL0     H19053   1.009   5.166  -0.352 -0.0776 -0.9808 -1.3695
  882MOL0     H19054   0.875   5.330   0.123 -0.2662  0.2527  1.1342
  882MOL0     H19055   0.821   5.277   0.341 -1.1765  0.1046 -2.2486
  882MOL0     H19056   1.876   4.972   1.631 -0.0244 -1.2582 -1.9587
  882MOL0     H19057   1.936   5.187   1.685 -0.6625 -1.5704 -0.2669
  882MOL0     H19058   2.411   5.443   1.659 -1.2124 -0.7184 -0.1857
  882MOL0     H19059   2.546   5.648   1.643 -0.0636 -3.4456 -1.7270
  882MOL0     H19060   2.364   5.979   1.450  1.2164 -1.2981 -1.8016
  882MOL0     H19061   2.346   6.052   1.602  0.1667 -2.1602  1.6488
  882MOL0     H19062   2.519   6.156   1.432  0.5919  0.2600 -0.3293
  882MOL0     H19063   2.613   6.002   1.452  0.6299  1.4022  0.3750
  882MOL0     H19064   2.674   6.044   1.667 -0.6693 -0.2546 -0.0656
  882MOL0     H19065   2.565   6.185   1.675 -0.8311 -0.6881  0.3356
  882MOL0     H19066   2.770   6.155   1.461  1.1726  0.2583  0.0708
  882MOL0     H19067   2.840   6.223   1.601  0.1767 -1.6130 -0.1546
  882MOL0     H19068   2.641   6.563   1.456 -1.9586 -0.3988 -0.6024
  882MOL0     H19069   2.171   5.861   1.584  0.4794  0.2518  0.8445
  882MOL0     H19070   2.044   5.652   1.584 -0.2036 -3.4584 -0.6336
  883MOL0     O19071  10.168   7.516  10.441 -0.1294 -0.3584  0.5879
  883MOL0     C19072  10.276   7.477  10.405 -0.1269  0.5398  0.5581
  883MOL0     O19073  10.339   7.518  10.292  0.5319 -0.5489 -0.0534
  883MOL0     C19074  10.281   7.604  10.208 -0.9071 -0.0030  0.0820
  883MOL0     C19075  10.211   7.541  10.111 -0.2330 -1.7740  0.2550
  883MOL0     C19076  10.170   7.623   9.997 -0.4185 -0.0229 -0.6580
  883MOL0     C19077  10.184   7.760  10.010 -0.5613  0.4659 -0.2089
  883MOL0     O19078  10.134   7.848   9.914 -0.0930 -0.0449 -0.1949
  883MOL0     C19079   9.997   7.885   9.939 -0.4938  0.2175  0.6623
  883MOL0     C19080   9.980   8.034   9.911  0.2094 -0.1093 -0.1744
  883MOL0     C19081   9.957   8.103  10.042 -0.7196  1.1458 -0.8116
  883MOL0     C19082   9.943   8.252  10.030  0.2114 -0.0755  0.0926
  883MOL0     C19083   9.810   8.281   9.945  0.9778 -1.0536 -0.2129
  883MOL0     C19084   9.781   8.433   9.942 -0.0462  0.2233 -0.3322
  883MOL0     C19085   9.659   8.455   9.855  0.0327  0.3449  0.4274
  883MOL0     C19086   9.635   8.603   9.850  0.3794  0.5349  0.3249
  883MOL0     N19087   9.497   8.626   9.792 -0.4467  0.0180 -0.4661
  883MOL0     C19088   9.460   8.679   9.672  0.6476  0.1899 -0.7336
  883MOL0     C19089   9.331   8.639   9.649 -0.1548 -0.6350 -0.0771
  883MOL0     C19090   9.241   8.664   9.530  0.1698  1.0136 -0.8648
  883MOL0     C19091   9.301   8.782   9.446 -0.0555  0.6062  0.8257
  883MOL0     C19092   9.228   8.840   9.324  0.6600 -0.0472 -0.8764
  883MOL0     C19093   9.158   8.729   9.235 -0.2609  0.4712  0.1322
  883MOL0     O19094   9.262   8.644   9.186 -0.2443  0.6528  0.2093
  883MOL0     C19095   9.239   8.531   9.111 -1.5451  0.6880  0.7664
  883MOL0     C19096   9.342   8.462   9.043 -0.7418 -0.5083  0.5262
  883MOL0     C19097   9.328   8.354   8.963  0.3576  1.1462  0.2491
  883MOL0     C19098   9.449   8.285   8.896  0.4710 -0.9760 -0.4074
  883MOL0     C19099   9.202   8.287   8.958 -0.5931 -0.2763 -0.5305
  883MOL0     C19100   9.181   8.154   8.889  0.2779 -0.7312  0.1310
  883MOL0     O19101   9.260   8.046   8.932 -0.0460  0.1333  0.1638
  883MOL0     C19102   9.241   7.929   8.866  0.9766 -0.2620 -0.3954
  883MOL0     C19103   9.347   7.851   8.822  0.8508  0.6056 -0.0747
  883MOL0     C19104   9.326   7.723   8.773  0.2371  0.3069 -0.1849
  883MOL0     C19105   9.194   7.674   8.755 -0.4373 -0.5416 -0.0032
  883MOL0     O19106   9.160   7.548   8.702 -0.1683  0.3670  0.0740
  883MOL0     C19107   9.275   7.462   8.669  0.5928 -1.0006  0.0246
  883MOL0     C19108   9.207   7.344   8.594  0.0968 -0.0872 -0.1129
  883MOL0     C19109   9.295   7.220   8.597  0.1717  0.6163 -0.5859
  883MOL0     C19110   9.216   7.100   8.527  0.1047  0.2471  0.0202
  883MOL0     C19111   9.296   6.969   8.531  0.1860 -0.3225  0.4595
  883MOL0     C19112   9.410   6.984   8.430  0.6882 -0.1671 -0.1194
  883MOL0     C19113   9.517   6.874   8.445 -0.3326  0.0567  0.0445
  883MOL0     C19114   9.624   6.893   8.342  0.3422  0.1134  0.2136
  883MOL0    Cl19115   9.715   6.743   8.326  0.1343 -0.1837  0.5244
  883MOL0     C19116   9.086   7.758   8.797  0.3865 -0.2568  0.5264
  883MOL0     C19117   9.108   7.871   8.867  1.2429  0.0995  0.1122
  883MOL0     O19118   9.107   8.171   8.789 -0.2930  0.7508 -0.1494
  883MOL0     C19119   9.099   8.354   9.025 -0.6531 -0.1354  0.2917
  883MOL0     C19120   9.120   8.479   9.096  0.0862  0.0520  0.6009
  883MOL0     N19121   9.291   8.581   9.765  0.6303 -0.3377 -0.4193
  883MOL0     N19122   9.391   8.571   9.851  0.6183 -1.2748 -0.3815
  883MOL0     C19123  10.244   7.825  10.115 -0.9316  0.6104  0.5561
  883MOL0     C19124  10.303   7.739  10.215 -0.7611  0.1525  0.1146
  883MOL0     C19125  10.352   7.397  10.504  0.0525  0.2482  0.2830
  883MOL0     C19126  10.488   7.370  10.495 -0.6821 -0.1595 -0.6436
  883MOL0     C19127  10.555   7.286  10.581  0.3171 -0.9127 -0.1437
  883MOL0     C19128  10.487   7.228  10.684  0.8295 -0.0117 -0.2323
  883MOL0     O19129  10.564   7.155  10.777  0.3814 -0.7576  0.5872
  883MOL0     C19130  10.510   7.106  10.898  0.7157 -0.1046  0.8597
  883MOL0     C19131  10.509   7.216  11.009 -0.1128 -0.5378  1.2225
  883MOL0     C19132  10.407   7.167  11.113 -0.6009 -0.8017 -0.2106
  883MOL0     C19133  10.430   7.205  11.260  0.2594 -1.1143 -0.5771
  883MOL0     C19134  10.407   7.349  11.297 -0.2013  0.9186 -0.3923
  883MOL0     C19135  10.405   7.457  11.339  0.3099 -1.1760 -0.3456
  883MOL0     C19136  10.352   7.246  10.696 -0.9586  0.3996  1.4754
  883MOL0     C19137  10.293   7.332  10.614  0.0220  0.4040 -0.0750
  883MOL0     H19138  10.185   7.436  10.105 -1.8081 -1.4250  0.6290
  883MOL0     H19139  10.110   7.570   9.923  0.5542 -2.9522  0.5110
  883MOL0     H19140   9.930   7.823   9.878  1.6086 -1.0068 -0.5605
  883MOL0     H19141   9.963   7.863  10.040  0.3338  2.4798  1.4868
  883MOL0     H19142  10.065   8.084   9.864  4.0749 -1.3093  4.7176
  883MOL0     H19143   9.893   8.034   9.844  0.3596 -2.0400 -0.4209
  883MOL0     H19144   9.880   8.049  10.099  0.8787 -1.5141 -1.0080
  883MOL0     H19145  10.052   8.095  10.096 -0.5303  0.8214 -1.1861
  883MOL0     H19146   9.931   8.307  10.124  0.4316  0.9632 -0.4738
  883MOL0     H19147  10.028   8.301   9.982  0.3710  0.4099  0.8583
  883MOL0     H19148   9.821   8.249   9.840 -3.8698 -0.0850 -1.2387
  883MOL0     H19149   9.727   8.228   9.991  2.8067 -2.3979  1.7418
  883MOL0     H19150   9.759   8.477  10.040 -6.2725  1.1880 -1.8006
  883MOL0     H19151   9.866   8.476   9.888 -0.3393  0.2465 -0.7710
  883MOL0     H19152   9.676   8.410   9.757  0.2987 -0.5627  0.8850
  883MOL0     H19153   9.585   8.384   9.892  0.2249 -0.1043 -0.0380
  883MOL0     H19154   9.703   8.652   9.780 -3.2643  2.3241 -2.2980
  883MOL0     H19155   9.649   8.649   9.948 -1.5689 -0.0369  0.9176
  883MOL0     H19156   9.525   8.744   9.614  0.8243 -0.2521 -1.0417
  883MOL0     H19157   9.251   8.572   9.473  0.4082 -0.8290  1.9209
  883MOL0     H19158   9.135   8.677   9.556  0.1935 -2.1793  1.3646
  883MOL0     H19159   9.402   8.752   9.418  0.6135  3.0541  0.3854
  883MOL0     H19160   9.320   8.865   9.515 -0.9814 -0.0289  1.8870
  883MOL0     H19161   9.294   8.902   9.262  1.7414  2.0811  2.1350
  883MOL0     H19162   9.152   8.911   9.358 -0.6637 -1.2594 -1.2128
  883MOL0     H19163   9.112   8.769   9.144 -0.7585  0.9759  0.5985
  883MOL0     H19164   9.078   8.672   9.284  0.7615 -1.4042 -0.2887
  883MOL0     H19165   9.440   8.510   9.048 -0.6503 -0.4728 -1.1456
  883MOL0     H19166   9.478   8.198   8.956 -1.8019  0.7820  3.7091
  883MOL0     H19167   9.440   8.269   8.788  2.3768  1.0750 -0.9331
  883MOL0     H19168   9.529   8.359   8.898 -1.9846  1.8783  0.8618
  883MOL0     H19169   9.450   7.884   8.833  1.3665 -0.9317 -0.0381
  883MOL0     H19170   9.413   7.658   8.760 -0.2963 -0.5837  0.5750
  883MOL0     H19171   9.352   7.508   8.605  0.8934  1.2007  1.8507
  883MOL0     H19172   9.329   7.425   8.757 -2.2750  0.5178  2.5864
  883MOL0     H19173   9.113   7.312   8.639  1.9442 -1.4561  3.0672
  883MOL0     H19174   9.190   7.378   8.491 -2.3356  3.3355  1.2266
  883MOL0     H19175   9.316   7.191   8.700 -0.4148 -1.3396 -0.9757
  883MOL0     H19176   9.391   7.240   8.548  1.6392 -3.3707  0.3270
  883MOL0     H19177   9.117   7.090   8.572 -0.7316  3.2902 -0.9538
  883MOL0     H19178   9.204   7.133   8.424  1.2679  0.0249 -0.2044
  883MOL0     H19179   9.223   6.889   8.518 -1.0057  0.6392  1.0124
  883MOL0     H19180   9.331   6.948   8.633 -2.1956 -1.1923  1.1716
  883MOL0     H19181   9.362   6.981   8.332 -0.0846  0.1599  0.2371
  883MOL0     H19182   9.459   7.081   8.444  0.7837 -0.4418  1.6432
  883MOL0     H19183   9.477   6.775   8.421  1.5753 -0.3084 -1.9466
  883MOL0     H19184   9.566   6.863   8.542  2.6080 -1.1402 -1.4643
  883MOL0     H19185   9.682   6.982   8.369  1.2568 -0.4385  0.1058
  883MOL0     H19186   9.579   6.914   8.245  0.1600 -0.2976  0.2054
  883MOL0     H19187   8.986   7.724   8.775  0.9529 -2.1746  0.6872
  883MOL0     H19188   9.021   7.920   8.913  0.0870 -0.6855 -1.1690
  883MOL0     H19189   8.998   8.312   9.023  0.3740 -2.7412 -1.1335
  883MOL0     H19190   9.029   8.529   9.126 -1.3376 -0.7429 -2.0667
  883MOL0     H19191  10.260   7.932  10.129 -4.2167  1.2364  0.4421
  883MOL0     H19192  10.364   7.777  10.297 -1.2358 -0.0205  0.5502
  883MOL0     H19193  10.546   7.416  10.415  1.5102  0.9549  1.4597
  883MOL0     H19194  10.658   7.261  10.559  0.6661 -0.6356  1.0737
  883MOL0     H19195  10.410   7.073  10.872  1.0150 -1.7355  1.6833
  883MOL0     H19196  10.569   7.023  10.938 -0.6825 -1.0357  1.0169
  883MOL0     H19197  10.482   7.317  10.979  1.5154  0.2288  2.2011
  883MOL0     H19198  10.610   7.215  11.050  0.8937  1.0842 -0.9971
  883MOL0     H19199  10.410   7.058  11.103 -0.1800 -0.7364 -0.8651
  883MOL0     H19200  10.301   7.192  11.104 -0.8636 -0.0509  3.2548
  883MOL0     H19201  10.532   7.171  11.280  0.5534  0.1062  0.1171
  883MOL0     H19202  10.365   7.144  11.324  0.8875 -0.6225  0.5751
  883MOL0     H19203  10.393   7.558  11.374 -1.7743 -1.6550  0.4787
  883MOL0     H19204  10.298   7.185  10.767 -0.4658 -1.1725  0.5543
  883MOL0     H19205  10.186   7.344  10.630  0.3802 -0.0961  3.7043
  884MOL0     O19206   3.397   5.141   0.537 -0.0794 -0.7750 -0.4578
  884MOL0     C19207   3.491   5.073   0.584  0.4752  0.0378 -1.2323
  884MOL0     O19208   3.576   5.122   0.683  0.1160  0.6542  0.0821
  884MOL0     C19209   3.556   5.246   0.738  0.3759 -0.5023  0.0196
  884MOL0     C19210   3.673   5.328   0.747  0.3286 -0.3259 -0.5183
  884MOL0     C19211   3.669   5.466   0.774 -0.4846  0.3837 -0.4712
  884MOL0     C19212   3.544   5.529   0.773  0.0813 -1.0339 -0.0794
  884MOL0     O19213   3.532   5.665   0.792 -0.1274  0.2404 -0.3114
  884MOL0     C19214   3.650   5.749   0.830 -0.1752 -0.4381 -1.3105
  884MOL0     C19215   3.638   5.792   0.975  0.2216 -0.6675  0.2653
  884MOL0     C19216   3.563   5.933   0.990 -0.0581  0.4211  0.7688
  884MOL0     C19217   3.566   5.973   1.143  0.7640  0.1240  0.3733
  884MOL0     C19218   3.431   6.041   1.180  0.1006  0.7428  0.6045
  884MOL0     C19219   3.391   6.166   1.094  0.0194  0.6061  0.2475
  884MOL0     C19220   3.251   6.222   1.144 -0.5360 -0.0568  0.0798
  884MOL0     C19221   3.275   6.315   1.256  0.3138  0.3196  0.1297
  884MOL0     N19222   3.350   6.435   1.234 -1.0681  0.7131  0.3187
  884MOL0     C19223   3.474   6.453   1.285  0.2375  1.1494  0.4418
  884MOL0     C19224   3.526   6.555   1.208  0.5042  0.2806 -0.2751
  884MOL0     C19225   3.679   6.598   1.204  0.4201 -0.5035 -0.4676
  884MOL0     C19226   3.707   6.688   1.325  0.8674  0.2363 -0.2119
  884MOL0     C19227   3.601   6.807   1.342  0.4220  0.2215 -0.0230
  884MOL0     C19228   3.635   6.923   1.434 -0.8312 -0.3264  0.3351
  884MOL0     O19229   3.526   7.018   1.434 -0.2002 -0.1510 -0.1843
  884MOL0     C19230   3.526   7.140   1.359 -0.2465 -0.2638 -0.2225
  884MOL0     C19231   3.526   7.146   1.219  0.1110  0.1794 -0.7147
  884MOL0     C19232   3.507   7.273   1.151 -0.2513 -0.0142 -0.7718
  884MOL0     C19233   3.510   7.269   1.000  0.3115  0.2778 -0.3839
  884MOL0     C19234   3.486   7.398   1.217  0.0955 -0.1546 -1.0432
  884MOL0     C19235   3.474   7.535   1.156  0.3585 -0.6070 -0.1611
  884MOL0     O19236   3.513   7.632   1.240  0.4858 -0.1841 -0.4111
  884MOL0     C19237   3.550   7.751   1.190 -0.7519 -0.4225  0.4334
  884MOL0     C19238   3.667   7.760   1.115  0.5871  1.5241  0.4436
  884MOL0     C19239   3.726   7.877   1.075 -0.2899  0.4122 -0.0711
  884MOL0     C19240   3.642   7.990   1.095 -1.0032 -0.4203 -0.1110
  884MOL0     O19241   3.684   8.111   1.038  0.3775  0.3417  1.0086
  884MOL0     C19242   3.758   8.184   1.128  0.3922 -0.1352 -0.8635
  884MOL0     C19243   3.759   8.329   1.074  0.6362  0.3197  0.3309
  884MOL0     C19244   3.639   8.400   1.136  0.1697 -0.5415 -0.0499
  884MOL0     C19245   3.606   8.531   1.064 -0.6119 -0.7839 -0.4527
  884MOL0     C19246   3.696   8.652   1.113  0.3156  0.5866  0.0523
  884MOL0     C19247   3.675   8.769   1.023  0.4766  0.0762 -0.7014
  884MOL0     C19248   3.699   8.913   1.085  0.5328  1.0153  0.4435
  884MOL0     C19249   3.843   8.937   1.120 -0.5107  0.8469 -0.9728
  884MOL0    Cl19250   3.936   9.008   0.990  0.0849  0.2660  0.4038
  884MOL0     C19251   3.523   7.983   1.172  0.1929  0.8084 -0.2395
  884MOL0     C19252   3.477   7.865   1.228  0.5129  0.6371 -0.2145
  884MOL0     O19253   3.450   7.553   1.037 -0.4236  0.7857 -0.1691
  884MOL0     C19254   3.484   7.389   1.358  0.0795  0.8865 -0.7114
  884MOL0     C19255   3.506   7.262   1.425  0.0046 -0.2858 -0.3586
  884MOL0     N19256   3.424   6.595   1.112  0.5284 -0.9142 -0.2506
  884MOL0     N19257   3.324   6.520   1.134  0.6931  0.0193  0.0629
  884MOL0     C19258   3.427   5.449   0.758  0.6678  0.3648  0.1251
  884MOL0     C19259   3.426   5.307   0.746  0.3371 -0.3948  0.4134
  884MOL0     C19260   3.507   4.935   0.532 -0.2995 -0.6392 -0.0318
  884MOL0     C19261   3.412   4.883   0.446 -0.2063  0.2434 -0.8647
  884MOL0     C19262   3.421   4.754   0.404  0.4597  0.6691 -0.0289
  884MOL0     C19263   3.514   4.666   0.447 -0.6305  0.0475 -0.8535
  884MOL0     O19264   3.526   4.534   0.425 -0.3257  0.2948 -0.0710
  884MOL0     C19265   3.472   4.470   0.306  0.3625 -0.2684  0.7811
  884MOL0     C19266   3.338   4.399   0.341  0.5693  0.2678  0.0930
  884MOL0     C19267   3.248   4.340   0.222 -0.1281 -0.4184 -0.8893
  884MOL0     C19268   3.180   4.463   0.149 -0.8560 -0.6238  0.6831
  884MOL0     C19269   3.080   4.519   0.235  0.3978 -0.3953 -0.7214
  884MOL0     C19270   2.986   4.563   0.300 -0.6538 -0.1764  0.2703
  884MOL0     C19271   3.616   4.717   0.530 -0.0816  0.5564 -0.2810
  884MOL0     C19272   3.619   4.856   0.571  0.8498  0.2084  0.6068
  884MOL0     H19273   3.772   5.282   0.743  0.8023  0.5396  0.7351
  884MOL0     H19274   3.767   5.513   0.778  0.3102 -0.8996 -2.9598
  884MOL0     H19275   3.754   5.723   0.808 -0.1956 -0.0728 -1.8635
  884MOL0     H19276   3.635   5.835   0.763 -1.5396  0.2749 -0.1269
  884MOL0     H19277   3.578   5.715   1.023  0.3304 -1.2712 -0.5438
  884MOL0     H19278   3.734   5.800   1.026  0.0181 -1.0583  0.7143
  884MOL0     H19279   3.617   6.013   0.939  1.1166  1.5871  3.6343
  884MOL0     H19280   3.461   5.924   0.953  1.3205 -3.2638 -2.9967
  884MOL0     H19281   3.579   5.883   1.204  4.7169  0.0025 -0.3843
  884MOL0     H19282   3.641   6.047   1.171  2.6039 -1.5871  0.1364
  884MOL0     H19283   3.355   5.965   1.162 -0.5642  1.8481 -1.7086
  884MOL0     H19284   3.426   6.068   1.286 -0.9730  1.9574  0.2703
  884MOL0     H19285   3.472   6.240   1.099  1.0449 -0.4885  0.1103
  884MOL0     H19286   3.386   6.131   0.991 -1.9965 -0.0838  0.5396
  884MOL0     H19287   3.213   6.280   1.060  0.2279  1.6680  0.8828
  884MOL0     H19288   3.177   6.144   1.165 -1.3456  0.1525 -1.7716
  884MOL0     H19289   3.321   6.265   1.342  3.1159  0.9053 -0.9092
  884MOL0     H19290   3.174   6.336   1.294  0.5176  1.0407  0.2812
  884MOL0     H19291   3.527   6.393   1.358  1.6384  1.6801 -0.1154
  884MOL0     H19292   3.749   6.515   1.194  0.9999 -0.0173 -0.5796
  884MOL0     H19293   3.699   6.660   1.116  0.9965  1.1528  0.7558
  884MOL0     H19294   3.806   6.732   1.309 -0.0413  1.8554 -1.8375
  884MOL0     H19295   3.711   6.624   1.413  0.5691  1.0955  0.4454
  884MOL0     H19296   3.505   6.764   1.374  0.7248 -1.6852 -1.4750
  884MOL0     H19297   3.591   6.856   1.245 -2.2891  1.5876  0.8308
  884MOL0     H19298   3.727   6.971   1.399 -2.2649  0.8798 -2.0088
  884MOL0     H19299   3.654   6.894   1.538 -3.3935 -0.4378  0.8542
  884MOL0     H19300   3.509   7.048   1.175  0.7289 -0.3906  0.2796
  884MOL0     H19301   3.430   7.329   0.956  0.7355  1.5746  0.5720
  884MOL0     H19302   3.604   7.316   0.971  1.4938  0.1413  2.8449
  884MOL0     H19303   3.506   7.165   0.966  1.9793 -0.9879  2.8440
  884MOL0     H19304   3.714   7.672   1.073  0.4420  1.3433  0.6528
  884MOL0     H19305   3.827   7.877   1.034 -0.6785  1.5187 -1.0799
  884MOL0     H19306   3.731   8.176   1.234 -1.7177  0.8563 -1.2867
  884MOL0     H19307   3.859   8.145   1.112  0.8338  1.6783 -2.8156
  884MOL0     H19308   3.853   8.381   1.094 -0.9100  2.8908  1.3332
  884MOL0     H19309   3.748   8.318   0.965  0.1978 -2.0250  0.5717
  884MOL0     H19310   3.653   8.418   1.243 -2.2344 -1.1471  0.4471
  884MOL0     H19311   3.546   8.341   1.138 -1.9625  2.5204 -0.8165
  884MOL0     H19312   3.629   8.511   0.959 -3.6611 -3.1970 -0.8048
  884MOL0     H19313   3.498   8.548   1.075 -0.8553 -1.4331 -1.7255
  884MOL0     H19314   3.801   8.621   1.112 -0.0208 -0.6053 -0.1521
  884MOL0     H19315   3.662   8.682   1.213 -0.0939  0.7034 -0.1186
  884MOL0     H19316   3.736   8.748   0.935  0.9113 -1.7016 -0.0233
  884MOL0     H19317   3.569   8.777   0.997  0.4388  0.7356 -0.3654
  884MOL0     H19318   3.634   8.924   1.172 -0.8200 -0.0440 -0.3979
  884MOL0     H19319   3.650   8.987   1.021 -1.1630  1.1290  1.8019
  884MOL0     H19320   3.893   8.841   1.138  0.0942  1.6793  2.4913
  884MOL0     H19321   3.855   9.002   1.208  0.3931  0.4836 -0.8172
  884MOL0     H19322   3.460   8.068   1.195 -0.5470  0.5530 -1.2932
  884MOL0     H19323   3.394   7.842   1.294  1.6594 -2.5545  0.2908
  884MOL0     H19324   3.475   7.485   1.407 -2.8845 -0.5359  1.9141
  884MOL0     H19325   3.499   7.275   1.532 -0.9007  2.2009 -0.6485
  884MOL0     H19326   3.334   5.505   0.766  0.4056  0.1198 -0.9920
  884MOL0     H19327   3.333   5.253   0.733 -0.1154  0.3039  0.6708
  884MOL0     H19328   3.336   4.951   0.406 -0.7894  3.5063  4.7691
  884MOL0     H19329   3.351   4.730   0.325  3.2708  1.6707 -3.0035
  884MOL0     H19330   3.454   4.544   0.227  2.5905  0.0405  0.4736
  884MOL0     H19331   3.546   4.403   0.260  1.5805  0.9978  0.8136
  884MOL0     H19332   3.277   4.464   0.405  1.5866  0.4017  0.9508
  884MOL0     H19333   3.348   4.324   0.419  1.5715 -0.3149 -0.5722
  884MOL0     H19334   3.178   4.271   0.269 -2.9208  3.4847  1.2186
  884MOL0     H19335   3.319   4.304   0.146 -2.2211  0.4656 -3.4232
  884MOL0     H19336   3.132   4.428   0.057 -2.0042 -4.1512  2.4215
  884MOL0     H19337   3.252   4.541   0.122 -0.7041 -0.1414  2.3419
  884MOL0     H19338   2.914   4.618   0.357  2.8597  1.3622  3.6488
  884MOL0     H19339   3.681   4.635   0.557 -2.6217 -1.1654  0.9746
  884MOL0     H19340   3.700   4.904   0.626  0.8783  0.4128  0.3861
  885MOL0     O19341   4.542   0.039   9.343  0.3898  0.4160 -0.0311
  885MOL0     C19342   4.576  -0.072   9.296  0.5745 -0.0607  0.4298
  885MOL0     O19343   4.700  -0.132   9.310 -0.3468  0.7960  0.5927
  885MOL0     C19344   4.799  -0.063   9.376  0.5363 -0.6098 -0.0342
  885MOL0     C19345   4.894  -0.016   9.287 -0.3846 -0.7335 -0.0780
  885MOL0     C19346   4.991   0.070   9.334 -0.5481  0.1283 -0.5078
  885MOL0     C19347   5.005   0.101   9.470  0.7320 -1.1085 -0.8695
  885MOL0     O19348   5.106   0.183   9.513 -0.4157 -0.0709 -0.1971
  885MOL0     C19349   5.111   0.309   9.448 -0.2363  0.0523 -0.0306
  885MOL0     C19350   5.241   0.378   9.492  0.0956  0.4163 -0.1229
  885MOL0     C19351   5.257   0.511   9.419 -0.0893  0.8028  0.3035
  885MOL0     C19352   5.400   0.559   9.418  0.5665 -0.5258 -0.5505
  885MOL0     C19353   5.404   0.708   9.386 -0.8790 -0.2567 -0.7673
  885MOL0     C19354   5.541   0.781   9.411 -0.4812 -0.4239  0.3828
  885MOL0     C19355   5.565   0.771   9.564  0.4301 -0.2507  0.3810
  885MOL0     C19356   5.656   0.889   9.614 -0.8656  0.0772  0.0554
  885MOL0     N19357   5.586   1.012   9.612  0.5682  0.5742 -0.8573
  885MOL0     C19358   5.484   1.051   9.697  0.3020 -0.1184  0.4384
  885MOL0     C19359   5.477   1.186   9.676 -0.2312  0.1078 -0.3733
  885MOL0     C19360   5.383   1.276   9.746  0.0589 -0.4956 -0.1004
  885MOL0     C19361   5.395   1.434   9.714 -0.0240 -0.0193  0.1212
  885MOL0     C19362   5.527   1.485   9.781 -0.0118 -0.4208 -0.1422
  885MOL0     C19363   5.538   1.631   9.766 -0.4500 -0.4013 -0.6363
  885MOL0     O19364   5.573   1.657   9.630  0.5888  0.3334  0.6944
  885MOL0     C19365   5.592   1.783   9.597 -0.6855  1.4181  0.3222
  885MOL0     C19366   5.632   1.807   9.464 -0.1437 -0.6882  0.0337
  885MOL0     C19367   5.663   1.939   9.423 -0.3018 -0.1410 -0.5818
  885MOL0     C19368   5.696   1.959   9.279 -0.4155  0.0055  0.1060
  885MOL0     C19369   5.669   2.047   9.525  0.0640  0.8573  0.2874
  885MOL0     C19370   5.688   2.189   9.484  0.9987  0.0045 -0.0728
  885MOL0     O19371   5.619   2.239   9.370 -0.3343  0.6549 -0.0270
  885MOL0     C19372   5.641   2.373   9.340 -0.1947  0.5921 -0.2968
  885MOL0     C19373   5.742   2.401   9.236  0.5362 -0.3188  0.3368
  885MOL0     C19374   5.765   2.540   9.213 -0.1783  0.4404  0.1481
  885MOL0     C19375   5.697   2.642   9.264 -0.5517 -0.1439 -1.2633
  885MOL0     O19376   5.711   2.772   9.224 -0.3493 -0.2556 -0.0993
  885MOL0     C19377   5.685   2.882   9.306  0.5842 -0.1519  0.3525
  885MOL0     C19378   5.780   2.902   9.418 -0.3667  0.4454 -0.1766
  885MOL0     C19379   5.777   3.040   9.486 -0.6285  0.7545 -0.2301
  885MOL0     C19380   5.663   3.062   9.587  0.1103  0.2674  0.3213
  885MOL0     C19381   5.694   3.181   9.666  0.5960 -0.4124 -0.3222
  885MOL0     C19382   5.575   3.228   9.762  0.4073 -0.1059  0.2403
  885MOL0     C19383   5.624   3.293   9.892  0.6850 -0.5095  0.4207
  885MOL0     C19384   5.512   3.335   9.984 -0.3999 -0.5729  0.5592
  885MOL0    Cl19385   5.404   3.205  10.045  0.1005 -0.0470  0.3150
  885MOL0     C19386   5.584   2.613   9.341  0.4309  0.8764 -0.0782
  885MOL0     C19387   5.561   2.476   9.381 -0.3302  0.3263  0.1632
  885MOL0     O19388   5.770   2.244   9.556  0.2860 -1.0685  0.1329
  885MOL0     C19389   5.631   2.022   9.654 -0.0915 -0.7946 -0.4094
  885MOL0     C19390   5.611   1.885   9.690  0.7549  0.2696  0.3175
  885MOL0     N19391   5.573   1.220   9.585 -0.4306 -0.7433 -0.3151
  885MOL0     N19392   5.639   1.120   9.546 -0.5849  0.2096 -0.2030
  885MOL0     C19393   4.916   0.048   9.562  0.2720 -1.3635 -0.9898
  885MOL0     C19394   4.799  -0.021   9.511 -0.5008 -0.6013 -0.1431
  885MOL0     C19395   4.477  -0.142   9.207  0.6295  0.5896 -0.4818
  885MOL0     C19396   4.512  -0.231   9.107 -0.2750 -0.0090  0.1313
  885MOL0     C19397   4.425  -0.282   9.016 -1.1922  0.0544 -0.6264
  885MOL0     C19398   4.292  -0.263   9.033  0.2227  0.4256 -0.3648
  885MOL0     O19399   4.210  -0.329   8.947 -0.0007 -0.0759  1.1026
  885MOL0     C19400   4.072  -0.332   8.970 -0.3823 -0.5088  0.0279
  885MOL0     C19401   4.006  -0.447   8.900 -0.8294 -0.1229 -0.1180
  885MOL0     C19402   4.062  -0.587   8.957  0.1551  0.5595  0.0956
  885MOL0     C19403   4.065  -0.688   8.847  1.0247 -0.3360  0.6411
  885MOL0     C19404   4.118  -0.822   8.886  1.0569  0.4122  0.8129
  885MOL0     C19405   4.174  -0.926   8.931  0.7034  0.6275 -0.6507
  885MOL0     C19406   4.244  -0.165   9.124 -0.1749  0.6641 -0.6848
  885MOL0     C19407   4.342  -0.112   9.215  0.0488 -0.4202  0.1864
  885MOL0     H19408   4.911  -0.062   9.190  0.1045 -2.3917  0.7525
  885MOL0     H19409   5.062   0.108   9.260 -0.5543 -0.3110 -0.7411
  885MOL0     H19410   5.129   0.290   9.342  3.0192  1.2756  0.2062
  885MOL0     H19411   5.028   0.378   9.468 -0.5512 -0.7814  1.6951
  885MOL0     H19412   5.256   0.392   9.600  0.9536 -0.8044 -0.0515
  885MOL0     H19413   5.325   0.317   9.456 -1.4154 -0.2616 -2.7807
  885MOL0     H19414   5.234   0.500   9.313  0.4137 -0.3225  0.2932
  885MOL0     H19415   5.185   0.581   9.463  1.0348  4.5940 -3.3162
  885MOL0     H19416   5.430   0.547   9.523  0.6341 -2.1720 -0.7281
  885MOL0     H19417   5.463   0.507   9.345 -0.5527  0.5297 -2.3193
  885MOL0     H19418   5.368   0.728   9.284 -0.7740  1.2730 -0.5406
  885MOL0     H19419   5.330   0.758   9.450 -0.5153 -0.8681  0.1279
  885MOL0     H19420   5.624   0.745   9.349 -1.1402 -1.9638  0.3599
  885MOL0     H19421   5.530   0.889   9.398  2.2993 -0.1537 -0.2360
  885MOL0     H19422   5.471   0.762   9.619  1.1067 -3.0575  1.2310
  885MOL0     H19423   5.600   0.670   9.588 -3.5847 -2.3740 -1.6563
  885MOL0     H19424   5.742   0.904   9.547 -1.5249  3.6149 -0.1883
  885MOL0     H19425   5.685   0.870   9.717  0.8939 -0.9087 -0.5820
  885MOL0     H19426   5.419   0.987   9.756  0.0840 -1.2176 -0.9475
  885MOL0     H19427   5.286   1.236   9.715  0.4913 -0.5561 -1.4564
  885MOL0     H19428   5.392   1.265   9.854  0.9423 -1.8530 -0.2826
  885MOL0     H19429   5.310   1.494   9.748  1.6583  1.6234  1.6690
  885MOL0     H19430   5.391   1.455   9.606 -2.9871 -1.0222 -0.0549
  885MOL0     H19431   5.604   1.446   9.713  0.2025  0.5329 -0.4620
  885MOL0     H19432   5.534   1.449   9.884 -1.8114  1.3115  0.6346
  885MOL0     H19433   5.620   1.668   9.829 -0.8056 -1.5876  0.5664
  885MOL0     H19434   5.445   1.683   9.791  0.7583  1.3528  0.4235
  885MOL0     H19435   5.635   1.724   9.395 -2.9892 -0.8518 -0.0261
  885MOL0     H19436   5.625   2.033   9.240  0.3805  1.7269  1.7784
  885MOL0     H19437   5.802   1.984   9.265 -1.2291  3.3146 -1.0032
  885MOL0     H19438   5.684   1.865   9.224  2.8574 -1.3552  1.4423
  885MOL0     H19439   5.806   2.319   9.205 -1.3007 -2.1918  1.3028
  885MOL0     H19440   5.844   2.575   9.147  0.3859 -1.6326 -0.3439
  885MOL0     H19441   5.698   2.971   9.242 -0.4900  0.9071  1.5389
  885MOL0     H19442   5.585   2.891   9.350 -0.6302  2.0522 -2.5275
  885MOL0     H19443   5.770   2.829   9.499 -0.3075  0.1855 -0.4029
  885MOL0     H19444   5.879   2.899   9.372  0.2578  3.6036  0.6809
  885MOL0     H19445   5.781   3.115   9.406  2.2854 -0.8257 -1.7030
  885MOL0     H19446   5.870   3.058   9.540 -1.3623 -0.4045  1.4996
  885MOL0     H19447   5.568   3.072   9.534 -1.1218  0.7408  2.4857
  885MOL0     H19448   5.651   2.980   9.658 -0.5260 -1.1084 -1.3119
  885MOL0     H19449   5.707   3.259   9.591 -1.0515  0.3052  0.0840
  885MOL0     H19450   5.784   3.171   9.727 -0.6515  0.5413  1.7641
  885MOL0     H19451   5.520   3.309   9.713  1.6919  0.2293 -0.7024
  885MOL0     H19452   5.507   3.146   9.785  0.8568 -0.6788 -0.4283
  885MOL0     H19453   5.675   3.383   9.858 -1.6230  0.7652  0.1566
  885MOL0     H19454   5.695   3.218   9.930  0.0177  0.1327  3.1087
  885MOL0     H19455   5.442   3.404   9.936  0.5066  0.4836  0.7192
  885MOL0     H19456   5.556   3.391  10.068  0.6293  1.0197 -0.9705
  885MOL0     H19457   5.519   2.685   9.388  2.3793  1.4096  1.9445
  885MOL0     H19458   5.480   2.462   9.452  1.7012 -1.9014  2.2104
  885MOL0     H19459   5.615   2.096   9.732  0.7808 -0.5016 -0.4980
  885MOL0     H19460   5.593   1.879   9.797  3.5605 -3.0827  0.7807
  885MOL0     H19461   4.931   0.063   9.668 -1.7430 -0.5968 -0.7623
  885MOL0     H19462   4.720  -0.058   9.575 -0.5213  0.0991  0.2509
  885MOL0     H19463   4.616  -0.254   9.088 -0.3697  1.6498 -3.3749
  885MOL0     H19464   4.454  -0.349   8.936 -0.1687  1.9070 -1.8712
  885MOL0     H19465   4.045  -0.326   9.076  1.0653 -1.1902  0.4588
  885MOL0     H19466   4.021  -0.244   8.929 -2.3301 -1.5657  0.0316
  885MOL0     H19467   4.027  -0.429   8.795 -0.4860  0.4073  0.0419
  885MOL0     H19468   3.903  -0.433   8.936 -0.3323  0.1049  1.2642
  885MOL0     H19469   4.006  -0.623   9.043  1.9039 -0.6631  0.7661
  885MOL0     H19470   4.164  -0.557   8.980 -0.6816  4.5631 -0.5974
  885MOL0     H19471   4.125  -0.657   8.761 -0.3257  2.6324  0.6727
  885MOL0     H19472   3.964  -0.698   8.806  1.2219  0.0166  0.0706
  885MOL0     H19473   4.207  -1.022   8.965  0.5787  1.5887  2.4469
  885MOL0     H19474   4.137  -0.152   9.116 -0.1102  0.0973 -3.3421
  885MOL0     H19475   4.317  -0.039   9.291  1.7816 -2.5569  3.0037
  886MOL0     O19476   3.239   4.874   8.243  0.2992  0.4187  0.8519
  886MOL0     C19477   3.350   4.925   8.260 -0.2068 -0.3442  0.2357
  886MOL0     O19478   3.379   5.054   8.276  0.2832  0.2492  0.3805
  886MOL0     C19479   3.284   5.149   8.273  0.1136  0.5149 -0.4106
  886MOL0     C19480   3.166   5.157   8.206  0.5188  0.4826 -0.6496
  886MOL0     C19481   3.088   5.267   8.214  0.3067 -0.8743  0.1287
  886MOL0     C19482   3.116   5.382   8.299  0.4156  0.6902 -0.3229
  886MOL0     O19483   3.034   5.489   8.304  0.0075 -0.8576  0.0358
  886MOL0     C19484   3.078   5.616   8.358  0.0635  0.1726 -0.1960
  886MOL0     C19485   3.184   5.676   8.258  0.0644 -0.1030 -0.4730
  886MOL0     C19486   3.208   5.824   8.284  0.6442  0.5537 -0.7442
  886MOL0     C19487   3.289   5.896   8.181  0.5915  0.8082  0.2284
  886MOL0     C19488   3.229   6.033   8.133  0.1839  0.0289  0.1640
  886MOL0     C19489   3.324   6.106   8.038 -0.8611  0.7280  0.2053
  886MOL0     C19490   3.268   6.210   7.943 -1.0757 -0.0381  0.0774
  886MOL0     C19491   3.225   6.162   7.806 -0.0948 -1.3204 -0.0506
  886MOL0     N19492   3.333   6.166   7.704 -0.2756  0.0466 -0.2719
  886MOL0     C19493   3.325   6.231   7.582 -0.4341 -0.5601 -0.3922
  886MOL0     C19494   3.460   6.222   7.540  0.7255 -0.4685  0.4311
  886MOL0     C19495   3.515   6.268   7.404  0.1282  0.3156 -0.2643
  886MOL0     C19496   3.486   6.165   7.288 -0.1022  0.5114  1.0543
  886MOL0     C19497   3.548   6.024   7.304  0.6241 -0.1546 -0.4724
  886MOL0     C19498   3.693   6.020   7.352  0.4452 -0.0862  0.3409
  886MOL0     O19499   3.768   6.129   7.304  0.7059  0.2421 -0.0141
  886MOL0     C19500   3.907   6.123   7.300  0.7509 -0.5499  0.7392
  886MOL0     C19501   3.989   6.023   7.360  0.6613 -0.0752  0.1746
  886MOL0     C19502   4.127   6.016   7.348  0.5884 -0.2236 -0.0967
  886MOL0     C19503   4.197   5.894   7.403 -0.1857 -0.3535 -0.5118
  886MOL0     C19504   4.191   6.121   7.277 -0.0126 -0.5942  0.4065
  886MOL0     C19505   4.344   6.135   7.253 -0.0305  0.7458  0.4303
  886MOL0     O19506   4.385   6.244   7.175  0.5140 -0.4815 -0.7839
  886MOL0     C19507   4.502   6.263   7.121 -0.3643 -0.0968  0.0378
  886MOL0     C19508   4.566   6.377   7.138  0.3020  0.3560 -1.3232
  886MOL0     C19509   4.695   6.399   7.093 -0.7790  0.0839  0.3841
  886MOL0     C19510   4.781   6.289   7.052  0.2913 -0.7784  1.0373
  886MOL0     O19511   4.908   6.313   7.000  0.7039  0.8598  0.3210
  886MOL0     C19512   4.918   6.376   6.873  0.3570  0.1649 -0.4182
  886MOL0     C19513   5.067   6.420   6.849 -0.2164  0.1173 -0.0169
  886MOL0     C19514   5.145   6.296   6.824 -0.7909  0.3063  0.0429
  886MOL0     C19515   5.136   6.236   6.686 -0.0113  0.3951  1.0474
  886MOL0     C19516   5.206   6.104   6.658 -0.5623  0.2767 -0.6216
  886MOL0     C19517   5.194   6.072   6.509 -0.2217  0.1811  0.0701
  886MOL0     C19518   5.299   5.972   6.458  0.7160  0.1687 -0.0479
  886MOL0     C19519   5.257   5.886   6.336 -0.0880  0.0515 -0.1604
  886MOL0    Cl19520   5.107   5.810   6.391  0.1706  0.0292 -0.1994
  886MOL0     C19521   4.722   6.165   7.055 -0.3732  0.1683  0.7007
  886MOL0     C19522   4.585   6.150   7.082  0.1575 -0.5411 -0.2095
  886MOL0     O19523   4.417   6.042   7.300 -0.1453 -0.6661 -0.6901
  886MOL0     C19524   4.124   6.234   7.238 -0.0141  0.6159  0.4632
  886MOL0     C19525   3.979   6.234   7.254 -0.7425  0.0821  0.1310
  886MOL0     N19526   3.538   6.163   7.636  0.0425  0.1553  0.3867
  886MOL0     N19527   3.460   6.139   7.735  0.0306  0.0944 -0.1084
  886MOL0     C19528   3.221   5.366   8.390 -0.2370  0.4537  0.1463
  886MOL0     C19529   3.308   5.251   8.367 -0.7393 -0.5816 -0.6881
  886MOL0     C19530   3.463   4.837   8.265  0.6973  0.1580 -0.3541
  886MOL0     C19531   3.469   4.721   8.190 -0.4583  0.2425  0.0138
  886MOL0     C19532   3.578   4.631   8.197  0.0230  0.1557  0.1539
  886MOL0     C19533   3.685   4.649   8.283  0.1681 -0.3231 -1.0803
  886MOL0     O19534   3.796   4.562   8.277  0.3459  0.2910 -0.4845
  886MOL0     C19535   3.925   4.619   8.254 -0.7876 -0.0381  0.0682
  886MOL0     C19536   4.014   4.502   8.231 -0.1943  0.1290  0.7490
  886MOL0     C19537   4.069   4.446   8.359 -0.4341  1.1064  0.2726
  886MOL0     C19538   4.148   4.314   8.335 -0.0561  0.5174 -1.0602
  886MOL0     C19539   4.268   4.341   8.260  0.2870  0.3934 -0.2679
  886MOL0     C19540   4.356   4.384   8.190  0.6342 -0.9622 -0.5889
  886MOL0     C19541   3.680   4.764   8.363  1.6933  0.0466  0.6732
  886MOL0     C19542   3.571   4.862   8.352 -0.8846 -0.4129 -0.1817
  886MOL0     H19543   3.139   5.078   8.137  2.2198 -0.1223 -0.6929
  886MOL0     H19544   3.014   5.289   8.138  0.1444  1.0495  0.8059
  886MOL0     H19545   2.990   5.682   8.365  0.0222  0.0322  0.8965
  886MOL0     H19546   3.111   5.605   8.462 -0.8111 -0.6711  0.0156
  886MOL0     H19547   3.280   5.625   8.259  1.4531  2.3572 -0.1656
  886MOL0     H19548   3.139   5.658   8.160 -1.1900  3.5244 -0.7290
  886MOL0     H19549   3.110   5.870   8.297  0.7304  0.3597  0.8285
  886MOL0     H19550   3.252   5.835   8.384 -1.9766  0.6488  0.4901
  886MOL0     H19551   3.390   5.913   8.219  0.7877 -1.6546  0.9910
  886MOL0     H19552   3.292   5.828   8.095  3.9343  0.6384  0.3564
  886MOL0     H19553   3.133   6.014   8.085 -0.2531 -3.6827  2.0709
  886MOL0     H19554   3.208   6.101   8.216 -0.0144  2.2622 -1.6493
  886MOL0     H19555   3.393   6.159   8.104  0.3087  0.8278 -1.0561
  886MOL0     H19556   3.380   6.036   7.975  0.2467 -2.2807  4.1870
  886MOL0     H19557   3.194   6.273   7.992  0.8768  2.1395  0.3461
  886MOL0     H19558   3.350   6.281   7.930  0.9774 -2.4200 -0.8219
  886MOL0     H19559   3.141   6.219   7.764 -0.7550 -3.5877 -2.0233
  886MOL0     H19560   3.176   6.065   7.815  0.7610 -1.8775 -1.2371
  886MOL0     H19561   3.229   6.262   7.543 -2.2246 -0.9930  3.1709
  886MOL0     H19562   3.467   6.364   7.382 -0.5127  1.0437  3.5083
  886MOL0     H19563   3.619   6.296   7.419 -0.5838  1.4455  3.6187
  886MOL0     H19564   3.512   6.212   7.193 -2.0001  0.1605  0.3224
  886MOL0     H19565   3.378   6.159   7.273  0.1085  2.5740 -1.9391
  886MOL0     H19566   3.554   5.976   7.206  0.1596 -1.6390  0.2081
  886MOL0     H19567   3.482   5.960   7.363 -1.5511  3.4264  1.3295
  886MOL0     H19568   3.729   5.926   7.308 -2.5909 -2.1494  1.9156
  886MOL0     H19569   3.704   6.026   7.460 -0.7473  1.1180  0.4077
  886MOL0     H19570   3.936   5.943   7.411  1.3113 -0.9213 -0.4465
  886MOL0     H19571   4.283   5.901   7.470 -0.4864 -2.8251  0.2492
  886MOL0     H19572   4.129   5.828   7.459 -0.0582 -1.2780 -1.4002
  886MOL0     H19573   4.234   5.840   7.315 -0.3491 -1.7852  0.2677
  886MOL0     H19574   4.526   6.469   7.178  1.6814 -0.4207  2.2652
  886MOL0     H19575   4.735   6.498   7.082 -1.9318  0.4947 -0.3004
  886MOL0     H19576   4.888   6.303   6.797 -0.3135 -1.0854  0.9809
  886MOL0     H19577   4.862   6.470   6.879  2.9438  1.8041  5.6529
  886MOL0     H19578   5.077   6.485   6.761  0.1947  1.1818  0.7898
  886MOL0     H19579   5.115   6.478   6.929  3.5042 -2.4404 -0.1461
  886MOL0     H19580   5.125   6.212   6.892 -4.5735  0.3370 -0.8073
  886MOL0     H19581   5.251   6.322   6.836 -0.9476  0.0516  2.5596
  886MOL0     H19582   5.034   6.216   6.654  1.1250 -1.9992 -1.5138
  886MOL0     H19583   5.171   6.312   6.615  0.7660 -1.1527 -0.3002
  886MOL0     H19584   5.164   6.028   6.725 -1.7945  0.9313 -0.6089
  886MOL0     H19585   5.309   6.109   6.693 -0.3063 -1.4387 -1.0644
  886MOL0     H19586   5.090   6.043   6.490  0.0001  0.3908 -1.6726
  886MOL0     H19587   5.202   6.158   6.442 -2.2130  0.3007 -0.0735
  886MOL0     H19588   5.319   5.910   6.546  0.6995 -1.8156 -1.3895
  886MOL0     H19589   5.393   6.024   6.436  0.0252  0.8431 -1.5423
  886MOL0     H19590   5.337   5.812   6.320  1.2428  0.6109  3.0583
  886MOL0     H19591   5.248   5.936   6.239  2.8108 -1.1605 -1.1756
  886MOL0     H19592   4.782   6.086   7.011  0.8772  0.6148  1.5405
  886MOL0     H19593   4.549   6.048   7.089  4.4103 -2.1033  2.1212
  886MOL0     H19594   4.166   6.327   7.201  1.9921 -0.6153 -0.5677
  886MOL0     H19595   3.928   6.325   7.224 -1.3843  0.2354  1.5669
  886MOL0     H19596   3.248   5.440   8.465  0.6192 -0.3771  0.7000
  886MOL0     H19597   3.396   5.247   8.431 -2.0073 -1.4901  1.0777
  886MOL0     H19598   3.384   4.704   8.125 -0.9824  0.9459  0.4833
  886MOL0     H19599   3.592   4.545   8.133  5.2995  2.5420 -2.5961
  886MOL0     H19600   3.905   4.668   8.158 -0.2953 -3.3206 -1.8632
  886MOL0     H19601   3.944   4.689   8.336  0.4156 -1.6570  1.2430
  886MOL0     H19602   4.087   4.523   8.152 -2.1801 -0.3413 -1.3007
  886MOL0     H19603   3.963   4.419   8.182 -0.0864  1.3606 -1.5939
  886MOL0     H19604   3.989   4.418   8.428  0.4091 -2.1887  0.1202
  886MOL0     H19605   4.132   4.514   8.417 -2.6484  1.3161  2.5657
  886MOL0     H19606   4.084   4.247   8.277  1.8882 -1.8301 -0.6568
  886MOL0     H19607   4.175   4.265   8.429  1.7367 -0.3300 -1.9807
  886MOL0     H19608   4.421   4.408   8.109  1.8736  3.1573  1.3687
  886MOL0     H19609   3.759   4.782   8.435 -0.5179  0.0850  3.2142
  886MOL0     H19610   3.555   4.948   8.417 -0.5159  1.9865 -3.0755
  887MOL0     O19611   4.311   0.751   8.757 -0.2346  0.4146  0.6524
  887MOL0     C19612   4.358   0.759   8.641  0.4154 -0.0775  0.0199
  887MOL0     O19613   4.482   0.714   8.604  0.0275  0.9144 -0.6110
  887MOL0     C19614   4.530   0.600   8.672 -0.2138  0.9884 -0.4758
  887MOL0     C19615   4.541   0.583   8.813  0.4342 -0.1158  0.3966
  887MOL0     C19616   4.601   0.465   8.865 -0.3654  0.8075  0.8185
  887MOL0     C19617   4.633   0.361   8.776  0.2950  0.3383  0.0102
  887MOL0     O19618   4.671   0.236   8.803  0.3807  0.2584  0.1486
  887MOL0     C19619   4.599   0.162   8.905 -0.4363  0.1903 -0.1407
  887MOL0     C19620   4.443   0.178   8.912  0.4469 -0.3775 -0.5102
  887MOL0     C19621   4.387   0.117   8.781 -0.1231 -0.3589 -0.5297
  887MOL0     C19622   4.348  -0.026   8.788 -0.6055 -0.4856 -0.4423
  887MOL0     C19623   4.255  -0.067   8.688  0.2438 -0.4544  0.5782
  887MOL0     C19624   4.333  -0.110   8.554 -0.0155 -0.3588 -1.0716
  887MOL0     C19625   4.257  -0.209   8.467  0.1625  0.5009  0.6425
  887MOL0     C19626   4.241  -0.357   8.510  0.0426  0.7945 -1.2246
  887MOL0     N19627   4.339  -0.458   8.466  0.7885  0.0038  0.1864
  887MOL0     C19628   4.477  -0.445   8.469 -0.0031 -0.0903  0.4218
  887MOL0     C19629   4.521  -0.566   8.441 -0.2823  0.0080 -0.3394
  887MOL0     C19630   4.659  -0.595   8.422  0.2748 -0.1796 -0.9507
  887MOL0     C19631   4.731  -0.587   8.551 -1.0418 -0.4763  0.1890
  887MOL0     C19632   4.862  -0.662   8.574 -0.1405  0.6991  0.9535
  887MOL0     C19633   4.961  -0.639   8.463 -0.2265  0.3649  0.3579
  887MOL0     O19634   4.956  -0.523   8.387  0.1095 -0.0026 -0.7155
  887MOL0     C19635   5.028  -0.496   8.275 -0.2077 -0.3903  0.5513
  887MOL0     C19636   5.005  -0.375   8.206 -0.3370 -0.0883  0.4021
  887MOL0     C19637   5.061  -0.332   8.090  0.2114 -0.1067  0.8994
  887MOL0     C19638   5.004  -0.214   8.022 -0.3223  0.1028 -0.3262
  887MOL0     C19639   5.161  -0.414   8.033 -0.3409  0.2070 -0.6547
  887MOL0     C19640   5.241  -0.369   7.909 -0.1757  0.1887 -0.5946
  887MOL0     O19641   5.284  -0.473   7.830  0.1232  0.0930 -0.2554
  887MOL0     C19642   5.380  -0.452   7.738 -0.1527 -0.3320  1.1441
  887MOL0     C19643   5.512  -0.400   7.767  0.5098 -0.6098 -0.3710
  887MOL0     C19644   5.608  -0.391   7.669 -0.7840 -0.4924  0.3417
  887MOL0     C19645   5.577  -0.402   7.533  0.6289  0.3053  0.3786
  887MOL0     O19646   5.660  -0.384   7.423 -0.6049 -0.3373  0.1383
  887MOL0     C19647   5.797  -0.352   7.442  1.1215  0.0450 -0.0098
  887MOL0     C19648   5.873  -0.363   7.306  0.0634  0.1032 -0.3200
  887MOL0     C19649   5.866  -0.508   7.240  0.3675 -0.2665  0.4740
  887MOL0     C19650   5.951  -0.516   7.105 -0.2935 -0.8771 -0.5384
  887MOL0     C19651   5.897  -0.632   7.010 -0.4585 -0.7026  0.2277
  887MOL0     C19652   5.800  -0.570   6.914  0.5885 -0.1086 -0.4030
  887MOL0     C19653   5.736  -0.667   6.820  0.6423 -0.7545 -1.2542
  887MOL0     C19654   5.615  -0.616   6.741  0.4257 -0.8467 -0.2908
  887MOL0    Cl19655   5.570  -0.723   6.608  0.0057 -0.0606 -0.3244
  887MOL0     C19656   5.447  -0.443   7.506  0.4810  0.6600  0.2118
  887MOL0     C19657   5.348  -0.478   7.602 -0.9837 -0.9458 -0.3108
  887MOL0     O19658   5.264  -0.249   7.898  0.0040  0.4570  0.0597
  887MOL0     C19659   5.198  -0.535   8.101 -0.6203 -0.6962  0.7247
  887MOL0     C19660   5.135  -0.568   8.220 -0.0946 -0.0104 -0.6351
  887MOL0     N19661   4.416  -0.653   8.416 -1.1751 -0.4819  0.1839
  887MOL0     N19662   4.309  -0.587   8.432  0.3315 -0.7783  0.6200
  887MOL0     C19663   4.627   0.386   8.637 -0.2817 -0.2186 -0.4307
  887MOL0     C19664   4.574   0.504   8.585 -0.5009  0.0477 -0.2744
  887MOL0     C19665   4.284   0.853   8.551  0.1103  0.7889 -0.1959
  887MOL0     C19666   4.152   0.897   8.581 -0.5803  0.4463 -0.0802
  887MOL0     C19667   4.074   0.987   8.495 -0.9769  1.2284 -0.3768
  887MOL0     C19668   4.124   1.029   8.373 -0.0636  0.2524  0.5446
  887MOL0     O19669   4.061   1.114   8.283 -0.4181 -0.5848  0.1369
  887MOL0     C19670   3.922   1.131   8.304 -0.1969 -0.3312  1.5877
  887MOL0     C19671   3.913   1.265   8.390 -0.2287 -0.1459  0.3473
  887MOL0     C19672   3.775   1.317   8.380 -1.0708 -0.6786  0.6840
  887MOL0     C19673   3.753   1.434   8.465 -0.2389  0.3362  0.3611
  887MOL0     C19674   3.726   1.393   8.605  0.5210 -0.7625 -0.7223
  887MOL0     C19675   3.721   1.353   8.719  0.4846  1.0719  0.6303
  887MOL0     C19676   4.254   0.979   8.338  0.2293  0.5437  0.5642
  887MOL0     C19677   4.335   0.901   8.430 -1.0322 -0.3012 -0.3290
  887MOL0     H19678   4.522   0.670   8.875  1.6844  1.1809 -0.9293
  887MOL0     H19679   4.599   0.439   8.970  1.2072 -1.9285  0.2469
  887MOL0     H19680   4.619   0.055   8.888  1.1794  0.4909 -0.2617
  887MOL0     H19681   4.632   0.191   9.005 -0.8648 -0.7460  0.2839
  887MOL0     H19682   4.404   0.115   8.993 -0.1125  0.5111 -0.0822
  887MOL0     H19683   4.417   0.281   8.935 -0.0315  0.0148 -2.6069
  887MOL0     H19684   4.297   0.178   8.771  1.3326  1.7972 -1.2707
  887MOL0     H19685   4.450   0.136   8.694 -0.4349 -1.2391 -0.9555
  887MOL0     H19686   4.433  -0.095   8.780 -1.3827 -1.3299 -1.8527
  887MOL0     H19687   4.306  -0.048   8.886  0.0352 -4.4245 -0.8652
  887MOL0     H19688   4.201  -0.156   8.722  0.7425 -1.4374 -1.0847
  887MOL0     H19689   4.190   0.020   8.679  2.0910  0.7607 -2.6461
  887MOL0     H19690   4.365  -0.020   8.500  0.9341  1.3725  2.0784
  887MOL0     H19691   4.428  -0.157   8.578 -2.3881 -4.1495  2.2887
  887MOL0     H19692   4.158  -0.166   8.445 -0.8890 -2.1665 -0.3251
  887MOL0     H19693   4.302  -0.234   8.370 -0.1207 -1.4917  0.9869
  887MOL0     H19694   4.135  -0.377   8.495 -0.3319 -1.3234  2.7868
  887MOL0     H19695   4.248  -0.359   8.619  2.0819  2.9896 -1.2228
  887MOL0     H19696   4.524  -0.350   8.490 -2.7738  1.7906 -1.2236
  887MOL0     H19697   4.675  -0.698   8.386 -0.5552 -0.5302 -0.3528
  887MOL0     H19698   4.716  -0.525   8.360 -0.7481  1.1696 -0.4012
  887MOL0     H19699   4.660  -0.616   8.629 -2.5716  0.6915 -0.7111
  887MOL0     H19700   4.753  -0.480   8.554  0.3971 -0.7779  0.8474
  887MOL0     H19701   4.842  -0.769   8.569 -1.4012  0.9437 -2.4343
  887MOL0     H19702   4.912  -0.647   8.670  0.5144 -1.2048  0.9575
  887MOL0     H19703   4.958  -0.715   8.384 -2.9534  3.3265 -2.6989
  887MOL0     H19704   5.056  -0.634   8.515 -0.6320  2.3941  0.9877
  887MOL0     H19705   4.923  -0.320   8.252 -1.0503 -1.6458  1.0870
  887MOL0     H19706   5.075  -0.132   8.032  0.0992 -0.3399  0.4000
  887MOL0     H19707   4.988  -0.238   7.917  1.6315 -1.6056 -0.2789
  887MOL0     H19708   4.903  -0.199   8.061  0.1814 -0.3731  1.2213
  887MOL0     H19709   5.533  -0.358   7.865  1.3678  0.7322 -1.1042
  887MOL0     H19710   5.709  -0.355   7.688 -0.0255 -2.8435  1.0730
  887MOL0     H19711   5.801  -0.251   7.482  0.7684  1.1017 -2.4803
  887MOL0     H19712   5.838  -0.410   7.526 -0.4849  2.0016  2.2583
  887MOL0     H19713   5.829  -0.285   7.245  0.8466 -0.9614 -2.3406
  887MOL0     H19714   5.977  -0.337   7.329  0.2465 -1.7008  1.2156
  887MOL0     H19715   5.764  -0.543   7.225  1.0013 -1.7870 -0.5324
  887MOL0     H19716   5.920  -0.572   7.310  0.4274 -1.3189 -0.5007
  887MOL0     H19717   5.940  -0.417   7.060 -0.5489 -1.3537 -1.5549
  887MOL0     H19718   6.057  -0.534   7.125 -0.8149 -0.8799  2.8671
  887MOL0     H19719   5.853  -0.718   7.061 -1.9475 -0.0093  0.1699
  887MOL0     H19720   5.984  -0.664   6.952 -0.0969  2.2049 -1.0046
  887MOL0     H19721   5.724  -0.511   6.967  1.9942  1.7180 -0.3387
  887MOL0     H19722   5.857  -0.501   6.852 -0.9635  1.9072  0.3129
  887MOL0     H19723   5.709  -0.761   6.870  1.4993  0.8398  2.6213
  887MOL0     H19724   5.814  -0.693   6.749  2.2615 -0.1124  0.2129
  887MOL0     H19725   5.632  -0.515   6.701  2.1044 -0.1809  1.8811
  887MOL0     H19726   5.526  -0.617   6.803 -0.3829  2.3665 -1.1843
  887MOL0     H19727   5.429  -0.484   7.407  1.0245 -1.9468  1.1137
  887MOL0     H19728   5.250  -0.510   7.568 -0.5438 -1.0259 -1.5814
  887MOL0     H19729   5.274  -0.600   8.058  1.1113  1.5766  0.1063
  887MOL0     H19730   5.155  -0.668   8.257 -0.1217  0.8381  1.9028
  887MOL0     H19731   4.635   0.297   8.575 -0.1987  0.4791 -1.4521
  887MOL0     H19732   4.590   0.525   8.480 -1.3862  1.3389 -0.1732
  887MOL0     H19733   4.107   0.868   8.676 -0.7474 -1.7375 -0.7646
  887MOL0     H19734   3.977   1.030   8.517 -1.2741  0.3774  0.0253
  887MOL0     H19735   3.881   1.145   8.203 -2.0541 -2.7335  1.9172
  887MOL0     H19736   3.861   1.049   8.341 -3.0618  1.3081  0.8444
  887MOL0     H19737   3.993   1.335   8.364 -1.4991  1.3871  0.4004
  887MOL0     H19738   3.924   1.230   8.493  2.6024 -3.0256 -0.7930
  887MOL0     H19739   3.702   1.240   8.404 -3.8568  0.5415 -3.0718
  887MOL0     H19740   3.757   1.332   8.274  1.8447 -3.8390 -0.4517
  887MOL0     H19741   3.678   1.498   8.417  0.2965  0.6674 -0.0471
  887MOL0     H19742   3.840   1.499   8.454 -1.6288  2.1740 -0.5210
  887MOL0     H19743   3.718   1.316   8.820 -0.4235 -0.1884  0.1580
  887MOL0     H19744   4.311   0.995   8.247  0.6131  2.5473  1.1027
  887MOL0     H19745   4.439   0.884   8.403 -1.0314  0.6093 -0.9521
  888MOL0     O19746   3.582   1.564   9.484 -0.7098 -0.7147 -0.0889
  888MOL0     C19747   3.620   1.656   9.413  0.1636 -0.6477 -0.0968
  888MOL0     O19748   3.697   1.649   9.300  0.5243  0.0555 -0.2204
  888MOL0     C19749   3.722   1.515   9.259 -0.5239 -0.4757 -0.4037
  888MOL0     C19750   3.635   1.466   9.158 -1.0886 -0.2016  0.4785
  888MOL0     C19751   3.653   1.344   9.099 -0.3340  0.4534 -0.4879
  888MOL0     C19752   3.750   1.259   9.151  0.6712 -0.4948  0.1009
  888MOL0     O19753   3.755   1.132   9.099 -0.1040 -0.5175  1.4337
  888MOL0     C19754   3.885   1.074   9.074  0.3157 -0.5197  0.6689
  888MOL0     C19755   3.871   0.983   8.949 -0.4473  0.3792  0.2555
  888MOL0     C19756   3.755   0.877   8.968 -0.1821 -0.5892  0.0189
  888MOL0     C19757   3.810   0.751   9.040 -1.0930  0.3304 -0.4743
  888MOL0     C19758   3.718   0.634   9.072  0.3618  0.9829  0.3002
  888MOL0     C19759   3.672   0.551   8.947  0.4493 -0.9900  0.4864
  888MOL0     C19760   3.571   0.433   8.969  0.5596  0.3584  0.0541
  888MOL0     C19761   3.565   0.343   8.849 -0.1504  0.2741 -0.1212
  888MOL0     N19762   3.497   0.213   8.868 -0.8444  0.0448  0.1723
  888MOL0     C19763   3.379   0.202   8.923 -0.0426 -0.2004 -0.6931
  888MOL0     C19764   3.341   0.075   8.892  0.4886 -0.5405 -0.0883
  888MOL0     C19765   3.213   0.015   8.926 -0.0363 -0.2850 -0.3171
  888MOL0     C19766   3.137  -0.036   8.798  0.1330 -0.2034  0.8130
  888MOL0     C19767   3.212  -0.138   8.707 -0.2019 -0.8543  0.9715
  888MOL0     C19768   3.246  -0.262   8.778 -0.3935  0.8029  1.1095
  888MOL0     O19769   3.126  -0.310   8.843  0.0538 -0.0679  0.0031
  888MOL0     C19770   3.098  -0.444   8.861 -0.3092  0.0105 -0.3926
  888MOL0     C19771   2.972  -0.475   8.921 -0.0290 -0.1731  0.5576
  888MOL0     C19772   2.941  -0.609   8.951 -0.2599  0.2769  0.2183
  888MOL0     C19773   2.821  -0.630   9.040  0.1493 -0.1207  0.2085
  888MOL0     C19774   3.038  -0.715   8.924  0.5469 -0.1060  0.3123
  888MOL0     C19775   3.015  -0.860   8.952  0.3448  0.5789  0.3213
  888MOL0     O19776   3.126  -0.949   8.922 -0.7487 -0.1768 -0.1049
  888MOL0     C19777   3.131  -1.068   8.994 -0.1524  0.5194 -0.2924
  888MOL0     C19778   3.138  -1.066   9.132  0.0083  1.0077  0.5245
  888MOL0     C19779   3.174  -1.184   9.201  0.3511  0.7583  0.2150
  888MOL0     C19780   3.179  -1.310   9.128 -0.5185 -0.2129  0.4971
  888MOL0     O19781   3.226  -1.424   9.182  0.5899 -0.4850 -0.8405
  888MOL0     C19782   3.183  -1.556   9.140  0.9993 -0.2605 -0.2320
  888MOL0     C19783   3.237  -1.660   9.240 -0.4476  0.4277  0.6248
  888MOL0     C19784   3.222  -1.799   9.187 -0.6312  0.6531 -0.4268
  888MOL0     C19785   3.259  -1.924   9.279  0.0745  0.6345 -0.5023
  888MOL0     C19786   3.366  -2.033   9.214  1.1554 -0.4722 -0.4754
  888MOL0     C19787   3.403  -2.128   9.328 -0.0428 -0.1138  0.3638
  888MOL0     C19788   3.484  -2.241   9.277 -0.5387 -0.6542 -0.6922
  888MOL0     C19789   3.508  -2.337   9.396 -0.0081 -0.1501  0.1015
  888MOL0    Cl19790   3.601  -2.256   9.530  0.2244 -0.8451 -0.2552
  888MOL0     C19791   3.148  -1.308   8.999  0.0801 -0.4818 -0.0375
  888MOL0     C19792   3.127  -1.190   8.926  0.0601 -0.6255 -0.1298
  888MOL0     O19793   2.914  -0.897   9.009 -0.5334 -0.1901 -0.1115
  888MOL0     C19794   3.165  -0.685   8.861 -0.0776  0.4196 -0.2341
  888MOL0     C19795   3.188  -0.549   8.836  0.2913 -0.4457 -0.1613
  888MOL0     N19796   3.447   0.015   8.840 -0.3750  0.8636  0.4405
  888MOL0     N19797   3.539   0.097   8.815 -0.4879 -0.8632 -0.1322
  888MOL0     C19798   3.841   1.307   9.255  0.1183 -0.3346 -0.7481
  888MOL0     C19799   3.822   1.435   9.311 -0.3444  0.5914  0.4959
  888MOL0     C19800   3.546   1.778   9.440 -0.0014 -0.7681  0.1996
  888MOL0     C19801   3.611   1.900   9.420  0.6959  1.2733 -0.0442
  888MOL0     C19802   3.541   2.020   9.449  0.2676 -0.2581 -0.2813
  888MOL0     C19803   3.414   2.029   9.501  0.1495  0.3283  0.6811
  888MOL0     O19804   3.344   2.146   9.508  0.6412 -0.2818  0.0115
  888MOL0     C19805   3.413   2.272   9.521  0.1289 -0.3005 -0.8734
  888MOL0     C19806   3.404   2.344   9.378  0.6294  0.5198 -0.5788
  888MOL0     C19807   3.265   2.352   9.320 -0.9687 -0.8407 -0.0547
  888MOL0     C19808   3.260   2.415   9.171 -0.2536  0.7088 -0.7007
  888MOL0     C19809   3.134   2.407   9.116  1.4041  0.0753 -0.0627
  888MOL0     C19810   3.024   2.401   9.063 -0.7358 -0.2344 -0.6835
  888MOL0     C19811   3.344   1.905   9.518  0.4602  0.9003  0.3471
  888MOL0     C19812   3.409   1.786   9.485 -0.7939  0.9877 -0.1227
  888MOL0     H19813   3.552   1.518   9.112 -1.3050 -0.7723  0.2069
  888MOL0     H19814   3.592   1.317   9.013  1.0866  3.5843 -2.6403
  888MOL0     H19815   3.964   1.150   9.072 -0.6413  0.5243  1.2686
  888MOL0     H19816   3.908   1.010   9.159  2.2110 -2.1718 -0.9885
  888MOL0     H19817   3.854   1.045   8.859  0.7879 -1.7403 -1.5355
  888MOL0     H19818   3.965   0.929   8.942 -1.1246 -0.7169 -0.9375
  888MOL0     H19819   3.675   0.915   9.031  0.1489  0.0262  0.0765
  888MOL0     H19820   3.710   0.847   8.873 -1.2814  0.4027  0.2091
  888MOL0     H19821   3.887   0.716   8.971 -4.1793  0.7742 -4.5283
  888MOL0     H19822   3.852   0.776   9.138 -0.3214 -2.4391 -0.0074
  888MOL0     H19823   3.767   0.568   9.144 -1.5091  0.3698  1.0629
  888MOL0     H19824   3.634   0.682   9.124  0.4510 -0.0415  1.4524
  888MOL0     H19825   3.622   0.626   8.885  3.2300  1.8999  1.5067
  888MOL0     H19826   3.763   0.509   8.903  1.8066  1.5160  0.7715
  888MOL0     H19827   3.603   0.376   9.057 -1.3088 -1.8766 -0.6325
  888MOL0     H19828   3.475   0.477   9.001  1.6653  0.2285  4.1724
  888MOL0     H19829   3.666   0.313   8.819 -1.7628 -3.4395 -2.7433
  888MOL0     H19830   3.514   0.392   8.766  0.8946  2.2486  0.3598
  888MOL0     H19831   3.325   0.278   8.978  2.7034  0.3224  1.5495
  888MOL0     H19832   3.222  -0.064   9.001 -0.6947  1.8615  2.1790
  888MOL0     H19833   3.160   0.094   8.980  2.0532  1.2938 -0.4446
  888MOL0     H19834   3.127   0.055   8.737  1.1071  0.4295  1.5718
  888MOL0     H19835   3.039  -0.071   8.831  0.4029 -1.0322  0.7497
  888MOL0     H19836   3.302  -0.093   8.663 -0.6091 -0.1621  0.8301
  888MOL0     H19837   3.144  -0.166   8.626 -0.7548 -0.1721  1.1846
  888MOL0     H19838   3.324  -0.241   8.852  1.7227  3.4676 -1.6289
  888MOL0     H19839   3.296  -0.321   8.701  0.9800  3.0112  0.2137
  888MOL0     H19840   2.909  -0.392   8.951  1.7504  1.5581 -0.3572
  888MOL0     H19841   2.765  -0.537   9.056  1.1464  1.3506 -3.7094
  888MOL0     H19842   2.753  -0.706   9.002  1.9226 -1.6575 -0.0390
  888MOL0     H19843   2.843  -0.668   9.140 -0.3814  2.4035  1.3798
  888MOL0     H19844   3.131  -0.982   9.201  1.7338  1.9340 -0.3700
  888MOL0     H19845   3.193  -1.189   9.308  1.6127  0.6686 -0.0018
  888MOL0     H19846   3.074  -1.553   9.136  1.0327  2.2839 -1.7268
  888MOL0     H19847   3.208  -1.585   9.037 -1.9699 -3.1037 -0.3100
  888MOL0     H19848   3.345  -1.647   9.249 -0.0133 -2.4860  0.5388
  888MOL0     H19849   3.187  -1.650   9.337 -0.6707  2.1720  0.3625
  888MOL0     H19850   3.287  -1.810   9.099  1.7173  2.6649  0.9257
  888MOL0     H19851   3.122  -1.811   9.146  0.5181 -1.9203 -2.8737
  888MOL0     H19852   3.287  -1.892   9.380 -0.5729  2.7239 -0.9349
  888MOL0     H19853   3.166  -1.977   9.298 -0.0174  1.1737  0.6770
  888MOL0     H19854   3.449  -1.971   9.180 -0.9319  2.3241 -0.8141
  888MOL0     H19855   3.316  -2.080   9.129  1.8789  1.1199 -1.8562
  888MOL0     H19856   3.449  -2.064   9.403 -3.8416  2.5185  0.7726
  888MOL0     H19857   3.307  -2.171   9.358 -1.2523  1.6444 -0.7699
  888MOL0     H19858   3.579  -2.199   9.243  0.1932  3.3910  4.9325
  888MOL0     H19859   3.451  -2.293   9.187  1.2879 -3.7298  0.2909
  888MOL0     H19860   3.578  -2.414   9.364 -0.5897 -0.5560 -0.2257
  888MOL0     H19861   3.419  -2.377   9.445  0.9581 -0.2797  1.8129
  888MOL0     H19862   3.157  -1.393   8.932 -2.4007  1.8503 -3.6653
  888MOL0     H19863   3.104  -1.187   8.821 -0.7618  1.4715  0.0781
  888MOL0     H19864   3.241  -0.757   8.832 -0.9651 -0.1459 -1.2369
  888MOL0     H19865   3.282  -0.515   8.792 -1.3597  2.2168 -1.9424
  888MOL0     H19866   3.920   1.244   9.293 -0.9752 -0.8139  0.8537
  888MOL0     H19867   3.882   1.457   9.398 -1.8352  4.0250  0.8218
  888MOL0     H19868   3.714   1.903   9.386  0.3376 -0.9142 -1.5339
  888MOL0     H19869   3.598   2.107   9.418  0.5466 -0.0725  0.7035
  888MOL0     H19870   3.352   2.325   9.594  0.7482 -0.8671  0.0688
  888MOL0     H19871   3.515   2.255   9.557 -0.2098 -2.8279 -0.9454
  888MOL0     H19872   3.450   2.281   9.301  0.1363 -0.5847  0.0012
  888MOL0     H19873   3.451   2.443   9.375  0.6689  0.5536  0.7460
  888MOL0     H19874   3.201   2.423   9.374  0.4860 -0.0669  0.7263
  888MOL0     H19875   3.221   2.253   9.334  2.3393 -2.4688 -0.1621
  888MOL0     H19876   3.329   2.362   9.104  2.2625 -0.0164  2.2067
  888MOL0     H19877   3.301   2.516   9.171  1.5481  0.0356  0.1052
  888MOL0     H19878   2.934   2.392   9.006 -1.0647  0.4112 -0.2753
  888MOL0     H19879   3.240   1.916   9.547 -0.2220  0.3593 -1.7508
  888MOL0     H19880   3.352   1.697   9.507  2.6802 -1.0648  1.5129
  889MOL0     O19881   5.063   3.398   1.480 -0.4534  0.3369  0.5961
  889MOL0     C19882   5.064   3.501   1.410  0.1118  0.4503 -0.5183
  889MOL0     O19883   4.985   3.524   1.301 -0.7224  0.7267 -0.4403
  889MOL0     C19884   4.895   3.430   1.262  0.4900  0.2096 -0.2579
  889MOL0     C19885   4.798   3.389   1.349 -0.2348 -0.2169  0.2011
  889MOL0     C19886   4.699   3.306   1.315 -0.3367 -0.0658 -0.0445
  889MOL0     C19887   4.681   3.251   1.188  0.6324 -0.9620 -0.1268
  889MOL0     O19888   4.573   3.178   1.161  0.3712 -0.2447  0.4080
  889MOL0     C19889   4.564   3.074   1.052  0.3718 -0.2855 -0.2233
  889MOL0     C19890   4.681   2.974   1.058 -0.7937 -0.3041 -0.3494
  889MOL0     C19891   4.721   2.917   0.917  0.3079  0.4760 -0.4850
  889MOL0     C19892   4.862   2.848   0.909 -0.1121  0.3649  0.1730
  889MOL0     C19893   4.854   2.714   0.841 -0.2822  0.1780 -0.3651
  889MOL0     C19894   4.804   2.593   0.931 -0.3701  0.6554  0.1990
  889MOL0     C19895   4.915   2.536   1.028  0.2513 -0.1311  1.6039
  889MOL0     C19896   4.866   2.401   1.075  0.0390  1.0529 -0.0293
  889MOL0     N19897   4.873   2.286   0.981 -0.3858 -0.3916 -0.6493
  889MOL0     C19898   4.960   2.267   0.879  0.2000  0.4282  0.1794
  889MOL0     C19899   4.926   2.163   0.812 -0.0120  0.1702  0.4796
  889MOL0     C19900   4.974   2.093   0.691 -0.0857 -0.5197 -0.1628
  889MOL0     C19901   5.046   1.962   0.737  0.3525 -0.2520 -0.0942
  889MOL0     C19902   5.103   1.901   0.604 -0.3071  0.0985 -0.1033
  889MOL0     C19903   5.162   1.759   0.620  0.7432 -0.1927 -0.0673
  889MOL0     O19904   5.245   1.717   0.512  0.6886 -0.4663  0.1882
  889MOL0     C19905   5.333   1.609   0.536  0.0121 -0.9611  0.4876
  889MOL0     C19906   5.425   1.568   0.423 -0.2113 -0.1031  0.4592
  889MOL0     C19907   5.509   1.454   0.417 -0.3767  0.0262 -0.1561
  889MOL0     C19908   5.586   1.432   0.284 -0.5961 -0.4547  0.1353
  889MOL0     C19909   5.521   1.380   0.543  1.5928  0.2329  0.9590
  889MOL0     C19910   5.590   1.249   0.552 -0.8807 -0.0455  0.0954
  889MOL0     O19911   5.605   1.202   0.680 -0.2736  0.3268 -0.0510
  889MOL0     C19912   5.693   1.111   0.709  0.4618 -0.3018  0.0194
  889MOL0     C19913   5.811   1.161   0.759 -0.9300 -0.6805  0.2298
  889MOL0     C19914   5.928   1.078   0.775  0.4573 -0.0411  0.6075
  889MOL0     C19915   5.918   0.941   0.731 -1.0544  0.1169 -0.0377
  889MOL0     O19916   6.024   0.853   0.719  0.7798  0.6778 -0.1369
  889MOL0     C19917   6.121   0.866   0.825  0.6558  0.3198 -0.2541
  889MOL0     C19918   6.186   0.721   0.852  0.8541 -0.5136 -0.1218
  889MOL0     C19919   6.263   0.648   0.743 -0.2761  0.0036  0.4474
  889MOL0     C19920   6.360   0.731   0.663  0.5871 -0.8970 -0.2694
  889MOL0     C19921   6.472   0.793   0.741 -0.0140 -0.0569 -0.8544
  889MOL0     C19922   6.557   0.902   0.671  0.0423 -0.0265 -0.5612
  889MOL0     C19923   6.657   0.966   0.768  0.8636 -0.6482  0.7459
  889MOL0     C19924   6.789   0.887   0.767 -0.3375  0.8042 -1.0649
  889MOL0    Cl19925   6.876   0.911   0.621 -0.3770  0.0084  0.2653
  889MOL0     C19926   5.791   0.898   0.690 -0.7017 -0.2374 -0.1546
  889MOL0     C19927   5.684   0.983   0.676  0.2844 -0.3314 -0.7577
  889MOL0     O19928   5.628   1.199   0.441 -0.3716 -0.4239  0.5322
  889MOL0     C19929   5.448   1.423   0.653  0.6386 -0.4562 -0.0362
  889MOL0     C19930   5.359   1.534   0.652  0.1412  0.5547  0.3539
  889MOL0     N19931   4.811   2.110   0.878  0.4648  0.4313 -0.1349
  889MOL0     N19932   4.785   2.183   0.982 -0.3117 -0.4377  0.5586
  889MOL0     C19933   4.774   3.296   1.093 -0.3813 -0.6916  0.4138
  889MOL0     C19934   4.880   3.384   1.132  0.5477  0.1367  0.4718
  889MOL0     C19935   5.150   3.613   1.430  0.0280  0.2345  0.1927
  889MOL0     C19936   5.253   3.621   1.533 -0.0519  0.5627  0.0280
  889MOL0     C19937   5.351   3.728   1.530  0.2500 -0.2249 -0.4508
  889MOL0     C19938   5.341   3.837   1.441  0.1184 -0.0889  0.5484
  889MOL0     O19939   5.437   3.930   1.447  0.4627 -0.6682 -0.4486
  889MOL0     C19940   5.467   4.015   1.334 -0.2485 -0.1494  0.9729
  889MOL0     C19941   5.609   4.071   1.366 -0.1948 -0.1273  0.7285
  889MOL0     C19942   5.646   4.180   1.267  0.6990 -0.6089  0.1549
  889MOL0     C19943   5.608   4.158   1.120 -0.6275  0.5191  0.0993
  889MOL0     C19944   5.705   4.089   1.033 -0.0036  0.3522  0.2718
  889MOL0     C19945   5.777   4.037   0.946 -0.6010 -0.8908  0.4430
  889MOL0     C19946   5.234   3.829   1.353  0.0544 -0.4939 -0.3305
  889MOL0     C19947   5.139   3.731   1.358  0.6422  0.9434  0.3769
  889MOL0     H19948   4.797   3.435   1.448  0.7022  0.1342  0.0590
  889MOL0     H19949   4.618   3.290   1.386  1.3116  0.4672  2.0782
  889MOL0     H19950   4.475   3.017   1.077  0.1860  0.9336  2.2697
  889MOL0     H19951   4.555   3.116   0.951  3.2321 -3.7590 -2.1491
  889MOL0     H19952   4.762   3.029   1.105 -1.8423 -0.1731  1.4289
  889MOL0     H19953   4.654   2.893   1.127  0.4993 -3.4411 -3.2320
  889MOL0     H19954   4.642   2.851   0.880 -0.7015  0.8985  0.8264
  889MOL0     H19955   4.738   3.001   0.849 -0.2944  1.5306  0.6354
  889MOL0     H19956   4.929   2.906   0.844 -1.4958 -0.6138 -2.2761
  889MOL0     H19957   4.910   2.828   1.005 -0.5482 -0.8827  0.1388
  889MOL0     H19958   4.783   2.724   0.758  0.8290 -1.9073 -1.6668
  889MOL0     H19959   4.951   2.689   0.797  0.9847  2.4724  0.9694
  889MOL0     H19960   4.727   2.642   0.990  0.8283  0.9267  1.5819
  889MOL0     H19961   4.766   2.510   0.870 -1.7969 -0.4698  2.4652
  889MOL0     H19962   5.013   2.514   0.985 -0.0336 -0.1363  0.9527
  889MOL0     H19963   4.927   2.617   1.101  2.2659  3.0311 -1.8452
  889MOL0     H19964   4.761   2.416   1.101 -1.2390 -1.2007 -3.1981
  889MOL0     H19965   4.916   2.383   1.170  1.2679 -0.8261 -0.9554
  889MOL0     H19966   5.032   2.339   0.840 -0.6468  1.9570  1.3246
  889MOL0     H19967   4.889   2.055   0.634 -1.1570  1.0848  0.2927
  889MOL0     H19968   5.029   2.162   0.626 -0.0595 -1.0634 -0.7239
  889MOL0     H19969   4.974   1.888   0.775  2.1784 -1.4327  1.2544
  889MOL0     H19970   5.122   1.984   0.814 -1.0285  0.8678  1.0147
  889MOL0     H19971   5.183   1.970   0.574 -1.2948  2.0752  1.6090
  889MOL0     H19972   5.025   1.897   0.527  0.7794 -2.5396 -1.2016
  889MOL0     H19973   5.079   1.692   0.644 -1.1755  0.8177 -3.2137
  889MOL0     H19974   5.219   1.763   0.713  0.9057 -1.4630 -0.0885
  889MOL0     H19975   5.421   1.627   0.332  1.2931 -0.1955  0.3050
  889MOL0     H19976   5.673   1.369   0.305 -0.1431  0.7614  2.2031
  889MOL0     H19977   5.526   1.371   0.216 -0.3887 -2.3672  1.5816
  889MOL0     H19978   5.630   1.517   0.233  2.7359 -0.0656  3.2649
  889MOL0     H19979   5.827   1.266   0.783  0.1536 -1.1784  1.8496
  889MOL0     H19980   6.022   1.113   0.816  1.0359 -0.3098 -0.4433
  889MOL0     H19981   6.184   0.940   0.775  0.0892 -0.6043 -2.4683
  889MOL0     H19982   6.067   0.896   0.915 -0.8150  0.2411 -1.0779
  889MOL0     H19983   6.253   0.746   0.935  1.5109  0.1611 -0.8385
  889MOL0     H19984   6.111   0.650   0.889  0.5295 -1.5030 -2.5259
  889MOL0     H19985   6.195   0.584   0.684 -1.1566 -0.2900  1.7284
  889MOL0     H19986   6.328   0.577   0.794 -0.7882  0.2292  1.4412
  889MOL0     H19987   6.412   0.659   0.599  1.9696  1.1735 -1.5919
  889MOL0     H19988   6.297   0.805   0.614  1.2047 -0.7677 -0.8792
  889MOL0     H19989   6.535   0.715   0.785  1.5165  0.8697 -1.3355
  889MOL0     H19990   6.430   0.848   0.826  0.0709 -0.0050 -0.8461
  889MOL0     H19991   6.613   0.852   0.592 -0.3535 -4.9688  1.8976
  889MOL0     H19992   6.491   0.984   0.641 -0.3551 -0.8399 -1.9530
  889MOL0     H19993   6.629   0.966   0.874 -0.6307 -0.5953  0.3685
  889MOL0     H19994   6.680   1.068   0.735 -0.9086 -0.5538 -0.3363
  889MOL0     H19995   6.771   0.781   0.787 -1.7863  1.0518 -0.9874
  889MOL0     H19996   6.853   0.931   0.844 -2.8032  0.2016  1.4668
  889MOL0     H19997   5.770   0.800   0.649 -3.0133 -0.2327  0.8629
  889MOL0     H19998   5.600   0.950   0.616  0.8712 -1.1855 -1.1277
  889MOL0     H19999   5.452   1.378   0.752 -3.7466  1.4969  1.2473
  889MOL0     H20000   5.302   1.556   0.742 -2.0492 -0.5128 -0.7092
  889MOL0     H20001   4.758   3.275   0.988  1.9116 -1.2222  0.1220
  889MOL0     H20002   4.947   3.426   1.058 -0.5295  1.4495  0.1936
  889MOL0     H20003   5.258   3.526   1.585  0.6530  0.1351 -0.7873
  889MOL0     H20004   5.428   3.720   1.607 -0.2952 -2.2348 -0.0531
  889MOL0     H20005   5.479   3.955   1.243  1.7302  2.4560 -0.6264
  889MOL0     H20006   5.386   4.087   1.325  0.3914  0.4480 -0.3630
  889MOL0     H20007   5.689   3.996   1.365 -1.0673 -1.1023  1.5731
  889MOL0     H20008   5.600   4.102   1.471 -1.3474 -1.3656  1.0250
  889MOL0     H20009   5.752   4.207   1.267  1.5679 -3.3964  3.1828
  889MOL0     H20010   5.601   4.276   1.296 -0.6422  0.0632 -3.6332
  889MOL0     H20011   5.585   4.257   1.082 -0.8552  0.1409 -0.7775
  889MOL0     H20012   5.509   4.112   1.109 -0.3120 -1.0726  2.8231
  889MOL0     H20013   5.838   3.991   0.871 -0.1441  1.2149 -0.5529
  889MOL0     H20014   5.212   3.918   1.295 -1.6982 -1.2183 -0.8745
  889MOL0     H20015   5.067   3.739   1.276  0.9665  0.3547  0.0262
  890MOL0     O20016   7.329   0.345   7.899 -0.6603  0.3887 -0.4492
  890MOL0     C20017   7.376   0.262   7.978  0.7426 -0.9531  0.1250
  890MOL0     O20018   7.458   0.294   8.082 -0.2059 -0.0811 -0.1913
  890MOL0     C20019   7.526   0.420   8.076 -0.5209  1.2061  0.1211
  890MOL0     C20020   7.619   0.448   7.972 -0.5120 -0.5739 -0.1304
  890MOL0     C20021   7.689   0.569   7.976 -0.2684  0.5455 -0.2624
  890MOL0     C20022   7.662   0.673   8.067  0.1420 -0.5871 -0.5689
  890MOL0     O20023   7.733   0.792   8.059 -0.3565 -0.0983  0.3461
  890MOL0     C20024   7.725   0.870   8.178 -0.4256  0.3109 -0.5682
  890MOL0     C20025   7.815   0.997   8.168 -0.9678 -0.2315 -0.2907
  890MOL0     C20026   7.814   1.095   8.292 -0.3305  0.2403 -0.5445
  890MOL0     C20027   7.878   1.028   8.426 -0.0843  0.7067  0.3372
  890MOL0     C20028   7.819   1.078   8.558  0.3683 -1.3356 -0.3502
  890MOL0     C20029   7.671   1.056   8.572 -0.2753 -0.8361 -0.9971
  890MOL0     C20030   7.647   0.901   8.550  0.1700  0.9039  0.2778
  890MOL0     C20031   7.498   0.861   8.593  0.5133  0.1897 -1.1688
  890MOL0     N20032   7.506   0.850   8.735  0.2144  0.3544  0.3465
  890MOL0     C20033   7.451   0.939   8.825  1.6462 -0.6669  0.2861
  890MOL0     C20034   7.459   0.869   8.941 -0.2998 -0.2965 -1.2670
  890MOL0     C20035   7.423   0.929   9.078 -0.6323  0.1736 -0.6592
  890MOL0     C20036   7.534   1.019   9.121 -0.7465 -0.1506 -0.3735
  890MOL0     C20037   7.480   1.125   9.214 -0.5973  0.2152  0.4384
  890MOL0     C20038   7.573   1.243   9.243 -0.3550 -0.0970 -0.0018
  890MOL0     O20039   7.695   1.187   9.299  0.5972 -0.0970  0.2862
  890MOL0     C20040   7.780   1.278   9.359  0.0940 -0.1337  1.4788
  890MOL0     C20041   7.868   1.354   9.279 -1.4038  0.0708 -1.3219
  890MOL0     C20042   7.953   1.450   9.338  0.4496 -0.1566 -0.5030
  890MOL0     C20043   8.049   1.542   9.256  0.7150  0.5691 -0.2910
  890MOL0     C20044   7.948   1.466   9.479  0.7745  0.7131 -0.2106
  890MOL0     C20045   8.043   1.551   9.553  0.2509 -0.4487  0.2991
  890MOL0     O20046   8.139   1.631   9.487 -0.2615  0.6157  0.0599
  890MOL0     C20047   8.206   1.724   9.564  0.4974  0.9361 -0.1819
  890MOL0     C20048   8.145   1.844   9.585 -0.2031  0.0817 -0.3482
  890MOL0     C20049   8.202   1.941   9.662  0.1512  0.6829 -0.4447
  890MOL0     C20050   8.326   1.921   9.720  0.3353 -0.3909 -0.3137
  890MOL0     O20051   8.404   2.020   9.782  0.4385  0.2866  0.2250
  890MOL0     C20052   8.364   2.154   9.775  0.4598  0.5939 -0.5934
  890MOL0     C20053   8.481   2.238   9.774  0.8847  0.9205 -0.5129
  890MOL0     C20054   8.598   2.178   9.687 -0.5136 -0.1569 -0.5497
  890MOL0     C20055   8.573   2.146   9.540 -1.5177  0.2746  0.9241
  890MOL0     C20056   8.514   2.263   9.462 -0.5562  1.2743  0.4456
  890MOL0     C20057   8.625   2.380   9.453  0.7570  0.3648  0.2670
  890MOL0     C20058   8.742   2.349   9.369 -0.2321  0.8013 -0.4670
  890MOL0     C20059   8.699   2.305   9.227 -0.7279  0.0016  0.1193
  890MOL0    Cl20060   8.709   2.126   9.213 -0.4126 -0.7910 -0.4149
  890MOL0     C20061   8.387   1.801   9.699  0.6413  0.6516 -0.1807
  890MOL0     C20062   8.326   1.695   9.635  0.3270  0.5496  1.1872
  890MOL0     O20063   8.025   1.552   9.671 -0.1065 -0.4816 -0.6132
  890MOL0     C20064   7.853   1.390   9.559 -0.3100 -0.1976  0.3008
  890MOL0     C20065   7.765   1.301   9.491 -0.1108 -0.0704 -1.0386
  890MOL0     N20066   7.528   0.745   8.922 -0.6108  0.1395  0.1888
  890MOL0     N20067   7.545   0.743   8.796 -0.0544  0.2647 -0.7385
  890MOL0     C20068   7.580   0.628   8.174 -0.2294 -0.2969 -0.2577
  890MOL0     C20069   7.505   0.512   8.182  0.5831 -0.0236  0.0718
  890MOL0     C20070   7.323   0.124   7.978 -0.4388 -0.0741 -0.9971
  890MOL0     C20071   7.208   0.082   7.902  0.1036  0.5075  0.6371
  890MOL0     C20072   7.163  -0.051   7.913  0.5684  0.3196 -0.3238
  890MOL0     C20073   7.220  -0.139   8.005 -0.4754 -0.3620 -0.4919
  890MOL0     O20074   7.155  -0.260   8.005  0.5668  0.2882 -0.0982
  890MOL0     C20075   7.161  -0.344   8.121 -0.6342  0.6976 -0.0847
  890MOL0     C20076   7.238  -0.476   8.084  0.5487  0.0067  0.2239
  890MOL0     C20077   7.384  -0.450   8.044  0.8187 -0.4667 -0.3600
  890MOL0     C20078   7.455  -0.583   8.054 -0.7741  1.0897 -0.2899
  890MOL0     C20079   7.596  -0.555   8.066 -0.4672  0.1660 -0.3832
  890MOL0     C20080   7.718  -0.544   8.074  0.8921  0.3250 -0.3244
  890MOL0     C20081   7.336  -0.101   8.073  0.3555  0.7444  0.9067
  890MOL0     C20082   7.391   0.030   8.060  0.4446 -0.6195 -0.0656
  890MOL0     H20083   7.644   0.377   7.894  0.2382  1.4063 -1.7752
  890MOL0     H20084   7.763   0.598   7.902 -0.9288  0.2900 -1.0397
  890MOL0     H20085   7.625   0.900   8.210 -0.1676 -1.2255  1.9114
  890MOL0     H20086   7.774   0.811   8.256 -3.3101  1.0384  1.9777
  890MOL0     H20087   7.912   0.966   8.129 -0.4177  2.2692 -1.0863
  890MOL0     H20088   7.779   1.056   8.083 -2.4725  1.4221  1.4237
  890MOL0     H20089   7.880   1.180   8.273  1.6537 -0.7609  1.3994
  890MOL0     H20090   7.710   1.125   8.300 -0.5154 -0.3590 -0.6533
  890MOL0     H20091   7.866   0.921   8.410  4.3470  0.1067 -0.2926
  890MOL0     H20092   7.987   1.026   8.430 -0.0342  1.5670 -0.1313
  890MOL0     H20093   7.877   1.046   8.646 -0.6096  0.3425  0.9549
  890MOL0     H20094   7.828   1.186   8.570  0.3403 -1.6061  3.5836
  890MOL0     H20095   7.640   1.082   8.674 -1.0910 -0.4992 -1.3234
  890MOL0     H20096   7.610   1.109   8.498 -0.6034  2.5880  1.5093
  890MOL0     H20097   7.651   0.883   8.442 -0.5229 -2.0089  0.6767
  890MOL0     H20098   7.724   0.835   8.590 -0.0220  0.1477 -0.5629
  890MOL0     H20099   7.461   0.763   8.561 -4.5442  2.3162 -2.8529
  890MOL0     H20100   7.424   0.934   8.558  0.0482 -0.0317 -0.6646
  890MOL0     H20101   7.389   1.026   8.806 -0.3743 -2.1853 -0.3673
  890MOL0     H20102   7.325   0.976   9.066  0.2841  1.6679 -3.2551
  890MOL0     H20103   7.413   0.850   9.153 -0.7528  0.2050 -0.6417
  890MOL0     H20104   7.585   1.055   9.031 -2.3398  0.1484 -1.1832
  890MOL0     H20105   7.614   0.966   9.173  2.7720  2.3113 -2.8306
  890MOL0     H20106   7.455   1.067   9.304  1.2122 -1.5279 -0.1060
  890MOL0     H20107   7.397   1.181   9.171  1.4659  2.7556 -0.4509
  890MOL0     H20108   7.534   1.318   9.312  2.2966  1.4237 -0.0036
  890MOL0     H20109   7.598   1.298   9.152  1.5641 -0.4609  0.2598
  890MOL0     H20110   7.874   1.364   9.172  3.3441  1.7792 -1.1186
  890MOL0     H20111   8.151   1.508   9.275 -0.7904 -5.4900 -0.9112
  890MOL0     H20112   8.037   1.530   9.148 -2.4569  0.5544 -0.0531
  890MOL0     H20113   8.032   1.649   9.273 -0.2141  0.2897  0.7348
  890MOL0     H20114   8.048   1.858   9.538 -0.8324  0.3624  0.9920
  890MOL0     H20115   8.148   2.032   9.687 -0.5933  0.4863 -1.2683
  890MOL0     H20116   8.313   2.173   9.680  0.3263 -2.5325 -1.2471
  890MOL0     H20117   8.299   2.165   9.862 -2.7875 -1.3990 -2.5428
  890MOL0     H20118   8.444   2.332   9.730 -1.3539 -0.2426 -1.2908
  890MOL0     H20119   8.509   2.256   9.878 -0.4794 -0.3757  0.1196
  890MOL0     H20120   8.649   2.091   9.731  3.8147  3.0862  1.6612
  890MOL0     H20121   8.683   2.248   9.683  0.9073 -1.8445 -3.8247
  890MOL0     H20122   8.645   2.104   9.469 -3.3917 -0.4261 -0.6458
  890MOL0     H20123   8.489   2.076   9.539 -1.4083  0.1135 -0.6028
  890MOL0     H20124   8.430   2.300   9.522  0.0932  0.6913  1.7655
  890MOL0     H20125   8.478   2.223   9.367  0.4080 -2.1026  1.3601
  890MOL0     H20126   8.578   2.468   9.407 -0.8573  0.9186  2.7663
  890MOL0     H20127   8.654   2.412   9.554  1.3739 -2.8737  1.2366
  890MOL0     H20128   8.798   2.270   9.421  0.4878  3.8848  4.0648
  890MOL0     H20129   8.806   2.438   9.361  1.7163 -0.4772  0.1359
  890MOL0     H20130   8.775   2.339   9.156 -1.3848 -1.0367 -1.1220
  890MOL0     H20131   8.602   2.349   9.205 -0.1728  1.0528 -0.3151
  890MOL0     H20132   8.485   1.784   9.742  0.0553  2.8390  2.3413
  890MOL0     H20133   8.360   1.593   9.635  0.5180  0.6021  2.2126
  890MOL0     H20134   7.842   1.390   9.666 -3.5369  0.2512  0.0473
  890MOL0     H20135   7.690   1.253   9.553 -2.9408  0.2780 -3.8653
  890MOL0     H20136   7.559   0.692   8.260 -0.3619 -1.1958  0.4024
  890MOL0     H20137   7.453   0.485   8.273  1.3162  3.7917  1.8081
  890MOL0     H20138   7.153   0.158   7.847  1.9613  1.6376  0.2579
  890MOL0     H20139   7.085  -0.098   7.854  3.1993 -3.9484 -0.8623
  890MOL0     H20140   7.211  -0.299   8.207 -0.1365 -0.4267  0.2424
  890MOL0     H20141   7.065  -0.372   8.165  0.8246  2.3253  4.7323
  890MOL0     H20142   7.196  -0.530   7.999  3.8025 -0.6399 -1.1192
  890MOL0     H20143   7.237  -0.548   8.166 -1.7057 -1.7307 -1.2025
  890MOL0     H20144   7.426  -0.373   8.109 -2.2250  2.8703 -1.9899
  890MOL0     H20145   7.400  -0.419   7.940  3.7068 -0.4975 -0.0218
  890MOL0     H20146   7.425  -0.641   7.966 -0.4634 -1.0300  0.9396
  890MOL0     H20147   7.437  -0.634   8.149 -0.6982  2.2185  0.3463
  890MOL0     H20148   7.824  -0.544   8.063  0.8108 -3.5859 -3.8694
  890MOL0     H20149   7.387  -0.176   8.133  1.7664 -1.0823 -2.2681
  890MOL0     H20150   7.484   0.048   8.111  1.9132 -3.9248 -1.2632
  891MOL0     O20151   1.296   9.004   8.505 -0.0493  0.3478  0.2124
  891MOL0     C20152   1.395   9.075   8.485 -0.2613 -0.1200 -0.5549
  891MOL0     O20153   1.478   9.117   8.582 -0.0163  0.5872  0.1195
  891MOL0     C20154   1.435   9.080   8.714  0.2918 -1.2003  0.6691
  891MOL0     C20155   1.343   9.162   8.789 -1.1424 -0.0035 -0.6272
  891MOL0     C20156   1.306   9.131   8.923 -0.4489  0.8143 -0.8898
  891MOL0     C20157   1.355   9.010   8.982 -0.3684  0.4682  0.6003
  891MOL0     O20158   1.333   8.967   9.111  0.1861  0.9299 -0.2404
  891MOL0     C20159   1.207   8.970   9.168  0.2677  0.4433 -0.7011
  891MOL0     C20160   1.202   8.902   9.306  0.0018  0.5301 -0.8673
  891MOL0     C20161   1.223   8.754   9.284 -0.1000  0.0501  0.5620
  891MOL0     C20162   1.102   8.657   9.316 -0.6051 -0.6467 -0.1470
  891MOL0     C20163   1.141   8.511   9.288  0.0089 -0.0336 -0.3698
  891MOL0     C20164   1.043   8.413   9.356 -0.1667  0.1453 -0.2831
  891MOL0     C20165   1.029   8.423   9.505 -0.4964  0.1514  0.1533
  891MOL0     C20166   1.145   8.416   9.588 -0.5998 -0.5291  0.4736
  891MOL0     N20167   1.219   8.295   9.568  0.8860  0.6524 -0.1703
  891MOL0     C20168   1.348   8.295   9.529  0.1325 -0.2838  0.1224
  891MOL0     C20169   1.368   8.165   9.523 -0.4863 -0.0255  0.0192
  891MOL0     C20170   1.496   8.105   9.468 -0.1506  0.2657 -0.1662
  891MOL0     C20171   1.473   8.036   9.328  0.1916  0.7100 -0.7376
  891MOL0     C20172   1.607   7.990   9.259 -0.8273  0.1958  0.1261
  891MOL0     C20173   1.700   7.904   9.342  0.8842  0.5935 -0.4042
  891MOL0     O20174   1.822   7.886   9.278  0.4127  0.5565 -0.0410
  891MOL0     C20175   1.930   7.824   9.342  0.7160 -0.4741 -0.1869
  891MOL0     C20176   1.920   7.758   9.467  0.1690  0.8654 -0.0747
  891MOL0     C20177   2.022   7.673   9.504  0.5186 -0.2746  1.3279
  891MOL0     C20178   2.001   7.612   9.636 -0.2743  1.0492 -0.4169
  891MOL0     C20179   2.139   7.653   9.422  0.4548  0.8131  0.0111
  891MOL0     C20180   2.268   7.564   9.455  1.5848 -0.8842  0.9346
  891MOL0     O20181   2.365   7.569   9.363  0.1705  0.0754  0.0290
  891MOL0     C20182   2.478   7.488   9.379  0.3238 -0.2775  0.0210
  891MOL0     C20183   2.478   7.353   9.325 -0.1276  1.1686 -0.2660
  891MOL0     C20184   2.597   7.277   9.340 -0.9096  0.5646 -0.2372
  891MOL0     C20185   2.707   7.328   9.401  0.7648  0.6087 -0.2755
  891MOL0     O20186   2.825   7.255   9.402  0.6464 -1.0078  0.2657
  891MOL0     C20187   2.915   7.319   9.307  0.3813  0.1365  0.3528
  891MOL0     C20188   2.998   7.217   9.235 -0.8440 -0.4842  0.3173
  891MOL0     C20189   2.904   7.114   9.169  0.2580 -0.1537 -0.3143
  891MOL0     C20190   2.963   6.997   9.097  0.0279  0.0132  0.9066
  891MOL0     C20191   3.084   7.038   9.006 -1.0809  0.6016  0.1313
  891MOL0     C20192   3.099   6.918   8.904 -0.0747 -1.0703 -0.9049
  891MOL0     C20193   3.214   6.924   8.804 -0.9435  0.7202 -0.2746
  891MOL0     C20194   3.184   7.021   8.696  0.5337 -0.7784  0.1119
  891MOL0    Cl20195   3.184   7.203   8.738 -0.5584 -0.0565  0.1955
  891MOL0     C20196   2.703   7.455   9.457 -0.4432 -0.0829  0.1246
  891MOL0     C20197   2.588   7.533   9.450 -1.4122  0.0850 -0.0752
  891MOL0     O20198   2.269   7.497   9.557  0.1043 -0.7497  0.4692
  891MOL0     C20199   2.143   7.725   9.297 -0.4649  0.3728 -0.0580
  891MOL0     C20200   2.037   7.802   9.263  0.0138 -0.3307  0.9869
  891MOL0     N20201   1.252   8.088   9.544  0.2153  0.0080  0.4825
  891MOL0     N20202   1.164   8.173   9.577 -0.3571  0.7042  0.8411
  891MOL0     C20203   1.437   8.922   8.897 -0.6172  0.5692  0.8755
  891MOL0     C20204   1.474   8.959   8.765 -0.6613  0.0036  0.4503
  891MOL0     C20205   1.400   9.137   8.354 -0.4005 -0.0119  0.4638
  891MOL0     C20206   1.487   9.235   8.315 -0.1178 -0.2797  0.3728
  891MOL0     C20207   1.495   9.291   8.187  0.5519  1.0156 -0.4878
  891MOL0     C20208   1.398   9.252   8.092 -0.0313 -0.0798  0.7280
  891MOL0     O20209   1.405   9.292   7.958  0.6692  0.0288 -0.1509
  891MOL0     C20210   1.434   9.174   7.882  0.5146  0.7069 -0.1170
  891MOL0     C20211   1.339   9.135   7.776  0.0647  0.2924 -0.8825
  891MOL0     C20212   1.370   8.989   7.724  0.0205 -0.4301  0.6080
  891MOL0     C20213   1.243   8.930   7.659 -0.2649 -0.2306  0.4043
  891MOL0     C20214   1.134   8.892   7.753 -0.2576 -0.7426 -1.2413
  891MOL0     C20215   1.039   8.879   7.832 -0.0965 -0.0429  0.0570
  891MOL0     C20216   1.304   9.162   8.128  0.4139  0.5095 -0.5457
  891MOL0     C20217   1.300   9.106   8.257  0.4939 -1.1895 -0.5584
  891MOL0     H20218   1.302   9.254   8.748  0.4996  1.1449  0.1996
  891MOL0     H20219   1.228   9.182   8.978 -0.7656 -0.8259  0.2686
  891MOL0     H20220   1.162   9.067   9.190  3.1709  1.7522 -0.0436
  891MOL0     H20221   1.139   8.915   9.102 -2.8133  1.5470  1.3372
  891MOL0     H20222   1.291   8.937   9.360  0.8748 -2.5696 -0.1215
  891MOL0     H20223   1.105   8.925   9.351  0.4058  3.0831 -1.1210
  891MOL0     H20224   1.247   8.741   9.178 -0.0271  0.4329  0.5299
  891MOL0     H20225   1.312   8.714   9.334  1.7446 -1.2172 -3.3418
  891MOL0     H20226   1.068   8.665   9.420  1.0413  0.0062  0.3693
  891MOL0     H20227   1.014   8.688   9.258  0.1575  0.7769 -0.5876
  891MOL0     H20228   1.150   8.490   9.181  1.1647  0.1957 -0.3264
  891MOL0     H20229   1.237   8.498   9.340 -1.2768  0.5827  2.3734
  891MOL0     H20230   0.944   8.428   9.311 -0.6725 -1.7632  0.0977
  891MOL0     H20231   1.069   8.315   9.318 -2.4952 -0.6188 -0.1069
  891MOL0     H20232   0.963   8.507   9.529 -0.4673 -0.5106  2.8226
  891MOL0     H20233   0.977   8.331   9.533  2.3564 -1.5012  0.3875
  891MOL0     H20234   1.096   8.434   9.684  1.0845 -1.9805  1.6668
  891MOL0     H20235   1.215   8.498   9.569 -0.1257 -1.1625 -0.5909
  891MOL0     H20236   1.409   8.384   9.521  0.7909 -0.4884  2.1969
  891MOL0     H20237   1.572   8.182   9.454 -0.3033  0.4586  0.0444
  891MOL0     H20238   1.531   8.028   9.537 -0.3513  3.1522  3.5092
  891MOL0     H20239   1.422   8.110   9.265  0.7899  1.9189  0.1616
  891MOL0     H20240   1.403   7.954   9.346 -2.4160  2.4678 -2.2062
  891MOL0     H20241   1.662   8.084   9.247  0.3288 -0.0717  2.6154
  891MOL0     H20242   1.595   7.940   9.163  4.9904 -0.7044 -0.4906
  891MOL0     H20243   1.644   7.810   9.347  0.2959  0.9033 -1.1525
  891MOL0     H20244   1.723   7.942   9.442  0.7930 -2.2471  0.8028
  891MOL0     H20245   1.826   7.761   9.522  0.4539  1.0213  0.4117
  891MOL0     H20246   2.096   7.583   9.681  1.1212  0.5457 -3.4625
  891MOL0     H20247   1.955   7.686   9.703 -1.1388 -1.6728  2.2130
  891MOL0     H20248   1.946   7.518   9.631  2.4245 -0.7284  1.1296
  891MOL0     H20249   2.398   7.316   9.261 -0.9097  3.5972 -0.8038
  891MOL0     H20250   2.609   7.181   9.291 -3.0248  1.3490 -2.4559
  891MOL0     H20251   2.878   7.378   9.223  4.3263  2.1266 -0.2306
  891MOL0     H20252   2.982   7.385   9.363 -0.3274  0.6141  0.6673
  891MOL0     H20253   3.062   7.270   9.164 -1.1158 -1.3175 -0.5685
  891MOL0     H20254   3.061   7.165   9.308 -0.3281 -1.0567 -0.5200
  891MOL0     H20255   2.852   7.171   9.091  1.2920  0.9593 -0.2150
  891MOL0     H20256   2.825   7.079   9.237 -1.7228 -2.3027 -3.4329
  891MOL0     H20257   2.991   6.929   9.177 -0.3411  0.8779  1.7970
  891MOL0     H20258   2.887   6.947   9.036  0.7168 -1.8147  1.4930
  891MOL0     H20259   3.181   7.047   9.056  0.2041 -2.6225 -1.4614
  891MOL0     H20260   3.050   7.130   8.959 -1.2869  0.9829  1.0244
  891MOL0     H20261   3.107   6.825   8.960 -1.8268  0.3097  1.8310
  891MOL0     H20262   3.005   6.908   8.850 -0.8242  0.1585  0.1253
  891MOL0     H20263   3.224   6.824   8.760 -1.8397 -0.4974  2.1223
  891MOL0     H20264   3.308   6.948   8.855 -2.1556  0.9374  1.9559
  891MOL0     H20265   3.088   6.999   8.647 -1.0972  2.9320  1.3147
  891MOL0     H20266   3.260   7.000   8.621  1.2532 -0.0668  0.6352
  891MOL0     H20267   2.795   7.499   9.494 -0.8816  1.3230 -0.4115
  891MOL0     H20268   2.589   7.639   9.474  2.9708  0.2076 -0.0990
  891MOL0     H20269   2.237   7.735   9.244  0.1417  2.4840  1.2710
  891MOL0     H20270   2.037   7.864   9.174 -0.3516  1.8232  2.4340
  891MOL0     H20271   1.464   8.822   8.930 -0.6203  0.3376  0.2112
  891MOL0     H20272   1.514   8.892   8.690  0.7029  1.1105  0.1443
  891MOL0     H20273   1.572   9.262   8.378 -0.3739 -0.9436  1.0260
  891MOL0     H20274   1.570   9.362   8.153 -0.7626  2.2490 -0.9135
  891MOL0     H20275   1.528   9.199   7.833  0.0807 -1.3828 -2.1734
  891MOL0     H20276   1.461   9.084   7.938 -0.5025  1.9738  2.5851
  891MOL0     H20277   1.343   9.204   7.691  1.1451  0.9097 -0.3564
  891MOL0     H20278   1.237   9.125   7.815 -0.4404  2.3856 -1.5286
  891MOL0     H20279   1.409   8.922   7.801 -2.5657 -1.2279  1.3277
  891MOL0     H20280   1.446   8.997   7.645 -0.4552  1.6526  0.3104
  891MOL0     H20281   1.287   8.838   7.618  2.2616  1.7321 -1.6202
  891MOL0     H20282   1.211   8.986   7.571  1.5819 -1.0789 -0.8778
  891MOL0     H20283   0.961   8.865   7.905  0.8544 -0.1670  1.0739
  891MOL0     H20284   1.236   9.122   8.054 -0.2150  1.5650 -0.5569
  891MOL0     H20285   1.220   9.035   8.271 -1.4059  0.7736 -0.9243
  892MOL0     O20286   8.821   9.997   0.959  0.1487 -1.1194  0.7337
  892MOL0     C20287   8.724  10.004   1.038  0.0377 -0.3421  0.5713
  892MOL0     O20288   8.676   9.910   1.131 -0.1619 -0.4185  0.3945
  892MOL0     C20289   8.723   9.783   1.143 -0.5529  0.5278  0.7864
  892MOL0     C20290   8.629   9.685   1.113 -0.7781 -0.0927  0.0217
  892MOL0     C20291   8.658   9.554   1.127 -0.0022  0.5307  0.2418
  892MOL0     C20292   8.783   9.513   1.182  0.1162 -0.2264 -0.0340
  892MOL0     O20293   8.801   9.372   1.194  0.3525 -0.6722 -0.8808
  892MOL0     C20294   8.903   9.328   1.282 -0.3190  0.5046  0.6930
  892MOL0     C20295   8.878   9.181   1.311  0.0950  0.5053  0.2664
  892MOL0     C20296   8.762   9.172   1.417 -0.0362  0.4922  0.2671
  892MOL0     C20297   8.624   9.179   1.341  1.0551  0.2787 -0.4985
  892MOL0     C20298   8.509   9.189   1.434  0.3230 -0.9103 -0.6452
  892MOL0     C20299   8.388   9.236   1.358  0.3658  0.6793  0.2234
  892MOL0     C20300   8.347   9.152   1.245  0.1486  0.5109 -0.0997
  892MOL0     C20301   8.198   9.177   1.200 -0.5117 -1.1214  0.3350
  892MOL0     N20302   8.087   9.136   1.289 -0.1702 -0.0471 -0.2447
  892MOL0     C20303   8.097   9.029   1.372 -0.5185  0.1093  0.1668
  892MOL0     C20304   7.986   9.028   1.446 -0.7320 -0.0807 -0.3146
  892MOL0     C20305   7.938   8.922   1.542 -0.6713 -0.3094  0.4174
  892MOL0     C20306   7.803   8.953   1.604  0.0242 -0.1093 -0.4525
  892MOL0     C20307   7.754   8.842   1.692  0.4001  0.0441 -0.1932
  892MOL0     C20308   7.803   8.849   1.836  0.6113 -0.2689 -0.0494
  892MOL0     O20309   7.737   8.761   1.923 -0.6100 -0.0628 -0.5757
  892MOL0     C20310   7.804   8.701   2.030  0.0810 -0.3599  0.3775
  892MOL0     C20311   7.746   8.582   2.076 -0.1920  0.3007 -0.5802
  892MOL0     C20312   7.796   8.506   2.183 -0.5102 -0.3958  0.6144
  892MOL0     C20313   7.730   8.376   2.220 -0.0789  0.9169  0.2432
  892MOL0     C20314   7.922   8.560   2.241  0.3972  0.3544 -0.1887
  892MOL0     C20315   7.989   8.482   2.346 -0.1165 -0.4688 -0.0815
  892MOL0     O20316   8.127   8.491   2.355  0.6967 -0.2830  0.7454
  892MOL0     C20317   8.206   8.421   2.438  0.6487  0.2233 -0.2850
  892MOL0     C20318   8.327   8.367   2.386  0.8576 -0.1125 -0.0902
  892MOL0     C20319   8.422   8.301   2.463  0.2025  1.2099 -1.0716
  892MOL0     C20320   8.402   8.281   2.597 -0.2005 -0.1855 -0.8017
  892MOL0     O20321   8.493   8.222   2.678 -0.0641  0.0736  0.0905
  892MOL0     C20322   8.631   8.181   2.642 -0.9091 -0.1934 -1.2559
  892MOL0     C20323   8.702   8.129   2.766  0.2410 -0.9479  0.7709
  892MOL0     C20324   8.620   8.049   2.864  0.3810 -0.1202  0.2133
  892MOL0     C20325   8.716   7.988   2.975  0.5011 -0.1678 -0.4252
  892MOL0     C20326   8.816   8.075   3.068 -0.2224  0.6532  0.3252
  892MOL0     C20327   8.894   7.976   3.164 -0.3685  0.6505 -0.1376
  892MOL0     C20328   8.968   8.059   3.268 -0.3883  0.0186 -0.3517
  892MOL0     C20329   9.042   7.977   3.377  0.3598  0.3651  0.4422
  892MOL0    Cl20330   9.180   7.897   3.275  0.1594 -0.2794  0.1913
  892MOL0     C20331   8.278   8.335   2.647 -0.5741  0.1325 -0.8106
  892MOL0     C20332   8.184   8.397   2.580  0.4142 -1.5984 -0.1141
  892MOL0     O20333   7.918   8.428   2.428  0.1567  0.2051 -0.5758
  892MOL0     C20334   7.986   8.662   2.180  0.3063 -0.8369 -0.0016
  892MOL0     C20335   7.926   8.737   2.083  0.6333 -0.0337  0.7132
  892MOL0     N20336   7.917   9.140   1.402  0.6637  0.0137 -0.6298
  892MOL0     N20337   7.982   9.210   1.313  0.3703  0.5308  0.4327
  892MOL0     C20338   8.875   9.610   1.220 -1.1050  0.3085 -0.0114
  892MOL0     C20339   8.844   9.745   1.201  0.6018  0.0003  0.1888
  892MOL0     C20340   8.652  10.132   1.055 -0.1805  0.7360 -0.1814
  892MOL0     C20341   8.521  10.144   1.110  0.2937 -0.3984  0.0435
  892MOL0     C20342   8.460  10.273   1.114 -0.6823  0.0535 -0.8918
  892MOL0     C20343   8.535  10.384   1.081  0.3498 -0.3407  0.8899
  892MOL0     O20344   8.462  10.502   1.099  0.0059 -0.7294  0.3433
  892MOL0     C20345   8.525  10.632   1.056 -0.4070  0.1521 -0.3772
  892MOL0     C20346   8.630  10.689   1.153 -0.1463 -0.2107 -1.1535
  892MOL0     C20347   8.558  10.718   1.290  0.2075  0.2714 -0.7096
  892MOL0     C20348   8.659  10.733   1.401 -0.5237  0.1007  0.6835
  892MOL0     C20349   8.745  10.848   1.364  0.1092 -0.1495 -1.0471
  892MOL0     C20350   8.813  10.938   1.326 -0.2394  0.7198 -0.0781
  892MOL0     C20351   8.668  10.379   1.034 -0.0654  0.9326  0.7367
  892MOL0     C20352   8.723  10.251   1.020 -0.0335  0.3610  0.2408
  892MOL0     H20353   8.541   9.715   1.056  0.0902  0.4175 -1.0845
  892MOL0     H20354   8.581   9.490   1.084  2.0428  0.4938 -3.9044
  892MOL0     H20355   9.001   9.333   1.235 -0.0968  0.8919  1.1891
  892MOL0     H20356   8.895   9.388   1.373 -1.4814  0.0070  0.9339
  892MOL0     H20357   8.867   9.115   1.224 -0.6196  0.4931  0.3605
  892MOL0     H20358   8.973   9.158   1.360 -0.2801  1.5462  1.5397
  892MOL0     H20359   8.779   9.071   1.458 -1.8163  0.2710  0.5629
  892MOL0     H20360   8.791   9.244   1.494  4.1385 -1.5057  0.8257
  892MOL0     H20361   8.617   9.257   1.264 -2.4412 -0.6898 -1.3506
  892MOL0     H20362   8.617   9.089   1.281  0.9220  1.4480 -2.3223
  892MOL0     H20363   8.495   9.088   1.475 -0.7910 -0.7891 -0.7004
  892MOL0     H20364   8.526   9.254   1.520 -2.2085 -0.1615 -0.6262
  892MOL0     H20365   8.306   9.228   1.431  0.0782 -1.2545 -0.2621
  892MOL0     H20366   8.390   9.342   1.329  5.8381  2.0610  4.0655
  892MOL0     H20367   8.410   9.173   1.159 -0.0143  1.0799 -0.0817
  892MOL0     H20368   8.368   9.048   1.273  0.1563  0.5712  0.1275
  892MOL0     H20369   8.187   9.126   1.104  2.2472 -0.6613 -0.3300
  892MOL0     H20370   8.181   9.280   1.167 -0.7013 -1.7521 -1.6565
  892MOL0     H20371   8.182   8.962   1.376 -1.8670 -1.6111  1.8429
  892MOL0     H20372   7.930   8.825   1.492 -0.3758 -0.1847  0.1150
  892MOL0     H20373   8.009   8.910   1.625  0.5273 -1.2128 -0.6782
  892MOL0     H20374   7.739   8.963   1.516  0.4374  0.0340 -0.7433
  892MOL0     H20375   7.819   9.052   1.648  4.7078  0.4731 -2.7903
  892MOL0     H20376   7.783   8.746   1.650  1.3332  0.4418 -0.4802
  892MOL0     H20377   7.645   8.851   1.694  0.5212  1.7893  0.9390
  892MOL0     H20378   7.788   8.955   1.860  2.7516 -0.3790  2.1375
  892MOL0     H20379   7.911   8.831   1.838  0.6463 -0.2873 -1.4532
  892MOL0     H20380   7.655   8.544   2.031 -0.6493 -1.5404  1.7090
  892MOL0     H20381   7.638   8.368   2.162 -0.4880  0.2721  0.9518
  892MOL0     H20382   7.802   8.294   2.207  0.7784  1.5785  0.7446
  892MOL0     H20383   7.697   8.372   2.325 -1.9947 -1.6571 -0.3505
  892MOL0     H20384   8.335   8.389   2.280 -2.3097 -0.2114 -0.4592
  892MOL0     H20385   8.505   8.243   2.423  0.0479 -0.1314  0.4545
  892MOL0     H20386   8.633   8.096   2.573  0.4593 -0.2030 -1.2348
  892MOL0     H20387   8.689   8.264   2.599 -1.4337  0.6367 -0.4027
  892MOL0     H20388   8.782   8.059   2.742 -0.0036 -1.8636  2.4251
  892MOL0     H20389   8.757   8.213   2.809  4.0602 -3.9592  2.3385
  892MOL0     H20390   8.576   7.963   2.814 -0.4629 -0.3910  1.4005
  892MOL0     H20391   8.545   8.110   2.916 -2.9333 -2.7895 -1.0948
  892MOL0     H20392   8.641   7.950   3.045  0.0010 -1.0651 -1.4349
  892MOL0     H20393   8.780   7.909   2.936  0.0212  0.3055 -2.2422
  892MOL0     H20394   8.755   8.135   3.135 -0.8842  0.0318  0.2851
  892MOL0     H20395   8.873   8.144   3.005  1.1508 -0.9911 -0.3410
  892MOL0     H20396   8.811   7.923   3.211  0.6367 -1.3377 -0.4852
  892MOL0     H20397   8.963   7.903   3.120  0.4214 -0.3922  2.6133
  892MOL0     H20398   8.898   8.133   3.309 -1.7252 -2.8071  2.9635
  892MOL0     H20399   9.049   8.114   3.218 -1.0125  1.5630  0.2589
  892MOL0     H20400   8.972   7.906   3.421  0.4065 -1.6187 -2.3715
  892MOL0     H20401   9.082   8.047   3.450 -0.5042 -0.9575  2.2436
  892MOL0     H20402   8.255   8.318   2.752  0.0489 -0.7001 -0.7928
  892MOL0     H20403   8.096   8.432   2.633  2.2292  0.8531  1.5061
  892MOL0     H20404   8.083   8.691   2.218 -0.6217 -0.9114  2.6522
  892MOL0     H20405   7.983   8.821   2.046  2.5487 -2.4259 -2.2318
  892MOL0     H20406   8.970   9.578   1.260 -1.1665 -0.5378 -0.5142
  892MOL0     H20407   8.919   9.819   1.226 -0.7466  2.2164 -1.8539
  892MOL0     H20408   8.470  10.058   1.154  1.6547 -1.5355 -0.5335
  892MOL0     H20409   8.354  10.274   1.139 -1.1931 -0.5139 -2.8159
  892MOL0     H20410   8.573  10.612   0.960  1.1616  0.5857  0.2810
  892MOL0     H20411   8.437  10.695   1.037 -2.5092 -2.6037 -0.4389
  892MOL0     H20412   8.678  10.777   1.109 -3.5415  2.3835 -0.1684
  892MOL0     H20413   8.705  10.610   1.159 -1.0600 -1.2671 -2.7579
  892MOL0     H20414   8.481  10.647   1.323  0.2499 -0.4721 -2.1025
  892MOL0     H20415   8.502  10.811   1.275 -4.3026 -2.5717 -4.7423
  892MOL0     H20416   8.714  10.642   1.423 -2.8808 -1.5466  0.1078
  892MOL0     H20417   8.596  10.773   1.481 -2.6098  2.1373 -1.7610
  892MOL0     H20418   8.888  11.006   1.290 -0.0278  1.3561  1.5119
  892MOL0     H20419   8.733  10.463   1.013 -1.9536  1.7985 -2.2727
  892MOL0     H20420   8.826  10.245   0.987 -1.1791 -2.2688 -3.5688
  893MOL0     O20421   6.325   4.719  10.294 -0.2012  0.4532  0.1567
  893MOL0     C20422   6.283   4.752  10.184 -0.5659 -0.2997 -0.8153
  893MOL0     O20423   6.311   4.870  10.117 -0.5881 -0.4614  0.1431
  893MOL0     C20424   6.423   4.933  10.165 -0.3816 -0.0317 -0.0583
  893MOL0     C20425   6.543   4.865  10.188 -0.0187 -0.2379 -0.2036
  893MOL0     C20426   6.645   4.948  10.238 -0.4663  1.1714 -1.2128
  893MOL0     C20427   6.635   5.085  10.263  0.9445  1.1520  0.2215
  893MOL0     O20428   6.750   5.142  10.310 -0.3715  0.0269 -0.0086
  893MOL0     C20429   6.757   5.285  10.307 -1.4890  0.8134  0.0548
  893MOL0     C20430   6.893   5.351  10.344 -0.0074  1.0815  0.3797
  893MOL0     C20431   6.920   5.315  10.490  0.3851  0.1016 -0.0662
  893MOL0     C20432   7.040   5.392  10.549  0.1129 -0.5492  0.2264
  893MOL0     C20433   7.078   5.339  10.691  0.6287  0.4721  0.0492
  893MOL0     C20434   6.966   5.375  10.787  0.2340  0.3813 -1.2585
  893MOL0     C20435   7.022   5.333  10.924  0.1072 -0.3819  0.2139
  893MOL0     C20436   6.934   5.335  11.053  0.5867 -0.0589 -0.4196
  893MOL0     N20437   6.885   5.474  11.091  0.1172  0.3851 -1.0194
  893MOL0     C20438   6.805   5.560  11.015  0.5643 -0.7597 -0.8463
  893MOL0     C20439   6.803   5.668  11.090  0.1067 -0.4497  0.1239
  893MOL0     C20440   6.737   5.802  11.071 -0.3820 -0.3983 -0.1239
  893MOL0     C20441   6.645   5.835  11.192  0.1332 -0.3347 -0.4693
  893MOL0     C20442   6.554   5.959  11.169  0.2448 -0.6263  1.3279
  893MOL0     C20443   6.446   5.979  11.271 -0.7499  1.6516 -0.7407
  893MOL0     O20444   6.373   6.083  11.238  0.2500 -0.5972 -0.7788
  893MOL0     C20445   6.256   6.068  11.172 -0.0730 -0.2668  1.2353
  893MOL0     C20446   6.202   6.185  11.125  0.1253 -0.1736 -0.8914
  893MOL0     C20447   6.087   6.189  11.040 -0.9861  0.6783  0.2344
  893MOL0     C20448   6.042   6.314  10.980  0.0731  0.8444 -0.6900
  893MOL0     C20449   6.023   6.071  11.010  1.1098  0.2236  0.1960
  893MOL0     C20450   5.892   6.063  10.948 -0.1634 -0.6445 -0.6418
  893MOL0     O20451   5.791   6.001  11.009  0.6117 -0.2292  0.9623
  893MOL0     C20452   5.664   6.027  10.972 -0.2406 -1.3857  0.4920
  893MOL0     C20453   5.626   6.153  10.920  0.4349 -0.2135 -0.5756
  893MOL0     C20454   5.490   6.183  10.884  0.3263 -0.1179  0.0795
  893MOL0     C20455   5.402   6.072  10.901 -0.1582 -0.6809  0.5707
  893MOL0     O20456   5.270   6.108  10.871 -0.0753 -0.0058  0.3528
  893MOL0     C20457   5.166   6.012  10.871 -0.1492  0.0046 -0.5944
  893MOL0     C20458   5.041   6.085  10.844 -0.1159  0.0679 -0.3731
  893MOL0     C20459   4.906   6.001  10.846 -0.0177  0.1572 -0.3125
  893MOL0     C20460   4.774   6.082  10.819  0.4165  0.0801 -0.1605
  893MOL0     C20461   4.666   5.978  10.822 -0.4685  0.0287  0.1901
  893MOL0     C20462   4.528   6.048  10.806  0.2000  0.1301 -0.1214
  893MOL0     C20463   4.450   6.062  10.936  0.5282 -0.8885  1.0450
  893MOL0     C20464   4.511   6.110  11.069  0.1552  0.4967  0.5791
  893MOL0    Cl20465   4.392   6.083  11.195  0.2991  0.0176 -0.0093
  893MOL0     C20466   5.441   5.946  10.941  0.2327 -0.7951 -0.1517
  893MOL0     C20467   5.571   5.925  10.987 -0.2062 -0.0904  0.4778
  893MOL0     O20468   5.881   6.105  10.833 -0.6579  0.1898  0.1705
  893MOL0     C20469   6.071   5.952  11.065 -0.5350  0.1334 -0.4683
  893MOL0     C20470   6.187   5.950  11.140  0.8796 -0.0699 -0.7786
  893MOL0     N20471   6.858   5.641  11.219  0.1188 -0.5533 -0.2242
  893MOL0     N20472   6.907   5.521  11.219 -1.1803 -0.0304  0.2488
  893MOL0     C20473   6.510   5.146  10.244  0.7106  0.7315  0.6944
  893MOL0     C20474   6.405   5.071  10.189 -0.3098  0.3111  0.5235
  893MOL0     C20475   6.166   4.681  10.130  0.5284 -0.6508 -0.2184
  893MOL0     C20476   6.109   4.571  10.208  0.4894 -1.0019  0.7633
  893MOL0     C20477   5.988   4.515  10.173 -0.4366 -0.8551 -0.5107
  893MOL0     C20478   5.914   4.571  10.065  0.6242 -0.0487 -0.2545
  893MOL0     O20479   5.784   4.539  10.034  0.6782  0.0970 -0.2775
  893MOL0     C20480   5.704   4.458  10.118  0.0409  0.7615 -0.8881
  893MOL0     C20481   5.558   4.450  10.075 -0.5514  0.1531 -0.7880
  893MOL0     C20482   5.475   4.342  10.143  0.1298  1.5867 -0.4651
  893MOL0     C20483   5.346   4.330  10.062  0.3281  0.2938 -0.2631
  893MOL0     C20484   5.251   4.243  10.122  0.1750  1.1162 -0.8215
  893MOL0     C20485   5.156   4.184  10.166  0.0480 -0.0702  0.4017
  893MOL0     C20486   5.962   4.670   9.987  0.0603  1.4209  0.3607
  893MOL0     C20487   6.086   4.727  10.022  0.4630  0.8969 -0.0642
  893MOL0     H20488   6.564   4.759  10.175  0.1996 -0.6384  2.8285
  893MOL0     H20489   6.728   4.905  10.294 -1.3521  1.2470  0.2209
  893MOL0     H20490   6.740   5.311  10.202 -0.2479 -3.9175 -1.5547
  893MOL0     H20491   6.681   5.327  10.374 -1.2897 -1.3006  1.7127
  893MOL0     H20492   6.975   5.313  10.283 -0.2285  0.1601  0.6392
  893MOL0     H20493   6.892   5.459  10.324 -1.5070  0.6765 -2.2314
  893MOL0     H20494   6.829   5.326  10.550  0.6092 -3.0639  1.0409
  893MOL0     H20495   6.928   5.207  10.503 -0.7327  0.1387  1.1766
  893MOL0     H20496   7.130   5.370  10.490  0.4419 -0.5627  0.7301
  893MOL0     H20497   7.036   5.501  10.558  1.6680 -0.1085 -3.0452
  893MOL0     H20498   7.100   5.232  10.688  0.7908  0.5207 -1.4095
  893MOL0     H20499   7.171   5.389  10.717  1.2462 -0.4089 -0.4227
  893MOL0     H20500   6.947   5.483  10.786 -0.2695  0.3227 -0.0139
  893MOL0     H20501   6.870   5.328  10.761  0.7326  0.4909 -3.4609
  893MOL0     H20502   7.065   5.233  10.912 -0.1268 -0.4974  0.3359
  893MOL0     H20503   7.108   5.400  10.939 -0.0854  0.3139 -1.5917
  893MOL0     H20504   7.004   5.320  11.136 -2.5763 -1.0535  2.2796
  893MOL0     H20505   6.854   5.261  11.063  0.5732 -0.5898 -3.5827
  893MOL0     H20506   6.767   5.543  10.915 -0.7967  0.9161 -0.6650
  893MOL0     H20507   6.806   5.887  11.060 -0.7208  0.0025  0.7638
  893MOL0     H20508   6.673   5.788  10.983 -3.4137  4.7542  0.8084
  893MOL0     H20509   6.699   5.851  11.286 -1.5711  0.3057  0.4410
  893MOL0     H20510   6.571   5.756  11.210  0.7549 -0.8068  0.0882
  893MOL0     H20511   6.516   5.951  11.067 -0.0202  0.2699  1.3474
  893MOL0     H20512   6.619   6.047  11.172  0.7502 -0.9243 -0.0792
  893MOL0     H20513   6.493   6.005  11.367  0.5761  5.1665 -2.1837
  893MOL0     H20514   6.389   5.886  11.279  2.0876 -0.4045 -2.3291
  893MOL0     H20515   6.255   6.277  11.147 -0.7242  0.4033 -1.2014
  893MOL0     H20516   6.052   6.311  10.871  0.5594  1.3426 -0.6641
  893MOL0     H20517   5.937   6.332  11.005  0.0326  0.2629 -0.4205
  893MOL0     H20518   6.110   6.385  11.027 -0.2862 -0.6304  2.2519
  893MOL0     H20519   5.693   6.238  10.923 -0.1355  0.2505 -0.6472
  893MOL0     H20520   5.457   6.282  10.857 -4.1209 -0.7943  2.1293
  893MOL0     H20521   5.188   5.926  10.807  2.2882 -2.0849  2.7332
  893MOL0     H20522   5.169   5.976  10.974 -1.4627  0.2436 -0.4513
  893MOL0     H20523   5.040   6.173  10.909 -0.7313 -0.8701  0.9446
  893MOL0     H20524   5.045   6.115  10.739 -0.5545  0.0517 -0.3980
  893MOL0     H20525   4.889   5.953  10.944  1.2820  1.0670  0.3899
  893MOL0     H20526   4.914   5.917  10.776 -0.3153  1.0117 -1.3996
  893MOL0     H20527   4.753   6.166  10.886  0.6889 -0.3814  0.5203
  893MOL0     H20528   4.783   6.130  10.721  2.2020  0.6978  0.2710
  893MOL0     H20529   4.681   5.906  10.903  1.5372  0.0512 -0.0997
  893MOL0     H20530   4.670   5.919  10.730 -2.1318  0.1213  0.0284
  893MOL0     H20531   4.540   6.145  10.756 -0.3823  0.3941  0.2460
  893MOL0     H20532   4.469   5.973  10.754  2.1662 -1.8049  0.2760
  893MOL0     H20533   4.417   5.959  10.947 -2.0516 -0.2072  0.4411
  893MOL0     H20534   4.355   6.108  10.905 -0.0055 -2.8231 -0.4207
  893MOL0     H20535   4.547   6.213  11.058 -0.5712  0.7462  0.4291
  893MOL0     H20536   4.596   6.046  11.091  0.9196  1.9859  2.1388
  893MOL0     H20537   5.369   5.867  10.959 -1.4700  0.6143 -0.3919
  893MOL0     H20538   5.604   5.831  11.030  0.9916 -0.0359 -0.2705
  893MOL0     H20539   6.040   5.850  11.047 -1.5231  0.6634 -1.9550
  893MOL0     H20540   6.219   5.852  11.175 -2.0901 -0.6786  0.5213
  893MOL0     H20541   6.491   5.247  10.280 -0.3232 -0.8076  5.1842
  893MOL0     H20542   6.302   5.103  10.179  0.6989  3.2399 -2.1031
  893MOL0     H20543   6.165   4.548  10.298  2.7189  0.9032 -0.0565
  893MOL0     H20544   5.953   4.442  10.244  0.7513 -0.7503  0.2190
  893MOL0     H20545   5.747   4.357  10.117 -3.1612 -0.7170 -2.6492
  893MOL0     H20546   5.708   4.506  10.216  2.1861 -0.3219 -0.3688
  893MOL0     H20547   5.557   4.434   9.967 -1.7124  0.3286 -0.8158
  893MOL0     H20548   5.524   4.554  10.079  1.4242  0.9000 -2.1494
  893MOL0     H20549   5.457   4.359  10.250  1.0460 -0.3047  0.0403
  893MOL0     H20550   5.519   4.242  10.130 -0.9583  0.4217  3.3471
  893MOL0     H20551   5.357   4.293   9.959 -1.2361 -1.0340  0.0146
  893MOL0     H20552   5.303   4.430  10.053  0.1353  0.4958  2.2713
  893MOL0     H20553   5.064   4.135  10.189 -0.5591  0.7641 -0.1449
  893MOL0     H20554   5.914   4.714   9.901 -1.4345  0.2375  0.5432
  893MOL0     H20555   6.115   4.817   9.968  1.7371 -0.3479 -1.5228
  894MOL0     O20556   9.783   5.400   8.013 -0.6540 -0.1325 -0.2068
  894MOL0     C20557   9.738   5.388   8.127 -0.0220  0.8525 -0.1315
  894MOL0     O20558   9.802   5.449   8.237  0.6421 -0.4031 -0.6009
  894MOL0     C20559   9.918   5.516   8.238  0.4918  0.3365 -0.1729
  894MOL0     C20560  10.029   5.474   8.162  0.3045  0.2510  0.1599
  894MOL0     C20561  10.161   5.526   8.180  0.4042  0.0860 -0.3328
  894MOL0     C20562  10.179   5.624   8.274 -0.1736  0.3790 -1.0694
  894MOL0     O20563  10.303   5.681   8.293 -0.2845 -0.2564  0.0824
  894MOL0     C20564  10.340   5.734   8.169  0.5679  0.0753  0.7584
  894MOL0     C20565  10.486   5.771   8.167 -0.0484  0.0384  0.7983
  894MOL0     C20566  10.509   5.895   8.245 -0.7482 -0.1154 -1.2711
  894MOL0     C20567  10.632   5.973   8.200  0.4091  0.4555  0.3225
  894MOL0     C20568  10.676   6.092   8.291  0.3780  0.0261 -0.9019
  894MOL0     C20569  10.797   6.161   8.240 -0.3899  0.2553 -0.1134
  894MOL0     C20570  10.936   6.079   8.259  0.2500 -0.7211 -0.3559
  894MOL0     C20571  11.017   6.052   8.130 -1.1201 -0.4029  1.0537
  894MOL0     N20572  10.980   5.932   8.061  0.6744  0.3767 -0.5594
  894MOL0     C20573  11.022   5.812   8.105  0.4385  0.8939 -0.5001
  894MOL0     C20574  10.945   5.726   8.042  1.1142 -0.1497 -0.1157
  894MOL0     C20575  10.949   5.577   8.064 -0.5863 -0.3706 -1.1897
  894MOL0     C20576  10.871   5.535   8.189 -0.6493 -0.2403 -0.0062
  894MOL0     C20577  10.835   5.387   8.198 -0.6167 -0.1252  0.3717
  894MOL0     C20578  10.953   5.302   8.240  0.1444  0.3434 -0.5386
  894MOL0     O20579  10.948   5.172   8.182 -0.5767 -0.2037 -0.8929
  894MOL0     C20580  10.843   5.091   8.202  1.0259  0.0524 -0.1253
  894MOL0     C20581  10.703   5.106   8.167  0.4971  0.6754  0.7434
  894MOL0     C20582  10.607   5.011   8.211  0.2510 -0.3783 -0.8725
  894MOL0     C20583  10.463   5.047   8.203 -0.1573  0.8661  0.6138
  894MOL0     C20584  10.643   4.895   8.280 -0.1670  0.1228  0.0618
  894MOL0     C20585  10.545   4.788   8.310  0.0340 -0.7354 -0.1795
  894MOL0     O20586  10.543   4.733   8.429  0.5176 -0.2878  0.2640
  894MOL0     C20587  10.445   4.652   8.481  0.5725  1.7437  0.3165
  894MOL0     C20588  10.484   4.555   8.577 -0.1423  1.0110  0.8982
  894MOL0     C20589  10.384   4.458   8.615  0.0511 -0.0424  0.2540
  894MOL0     C20590  10.250   4.483   8.593 -0.6359  0.5807  0.8515
  894MOL0     O20591  10.154   4.398   8.643  1.5421  0.0612 -0.3718
  894MOL0     C20592  10.127   4.409   8.780  0.1895  0.4450  0.2193
  894MOL0     C20593  10.012   4.324   8.836 -0.1770 -0.3206  0.4612
  894MOL0     C20594   9.981   4.191   8.766  0.1483 -0.8834 -0.4499
  894MOL0     C20595   9.863   4.107   8.820 -0.9281  0.5980 -0.2415
  894MOL0     C20596   9.887   4.080   8.968 -0.1580 -0.3999 -0.3025
  894MOL0     C20597   9.757   4.052   9.053 -0.7635 -0.4827  0.2988
  894MOL0     C20598   9.684   3.924   9.021  0.0954  0.1066 -0.2840
  894MOL0     C20599   9.750   3.792   9.060  0.0419  0.5573  0.6950
  894MOL0    Cl20600   9.733   3.762   9.234  0.3324 -0.3882 -0.2419
  894MOL0     C20601  10.216   4.573   8.496 -0.0224 -0.5659 -0.0376
  894MOL0     C20602  10.310   4.648   8.437  0.8169 -0.4465  0.1927
  894MOL0     O20603  10.486   4.744   8.213  0.5078 -0.2942  0.6884
  894MOL0     C20604  10.777   4.878   8.306  0.8594  0.1565  0.4621
  894MOL0     C20605  10.868   4.976   8.266 -0.5726  0.7993 -0.0642
  894MOL0     N20606  10.833   5.791   7.983  0.3196 -0.0611 -0.3724
  894MOL0     N20607  10.860   5.917   7.990 -0.7733  0.4301  0.8269
  894MOL0     C20608  10.073   5.671   8.364 -0.1649  0.6180 -0.3950
  894MOL0     C20609   9.946   5.609   8.340  0.0466 -0.2404  0.3981
  894MOL0     C20610   9.602   5.320   8.132  0.5790 -0.5924  0.4727
  894MOL0     C20611   9.532   5.277   8.015  0.8210  0.3852 -0.3339
  894MOL0     C20612   9.398   5.234   8.019  0.0579  1.4106 -0.5814
  894MOL0     C20613   9.338   5.215   8.137  0.0713 -0.7022 -0.6605
  894MOL0     O20614   9.204   5.174   8.160 -0.7562  0.3138  0.3130
  894MOL0     C20615   9.122   5.138   8.042 -0.2222  0.4316 -1.1131
  894MOL0     C20616   8.983   5.083   8.084 -0.0818  0.7556  0.3863
  894MOL0     C20617   8.894   5.035   7.964  0.5969  0.5456 -0.3106
  894MOL0     C20618   8.957   4.927   7.865  0.4574 -0.1927 -1.3302
  894MOL0     C20619   8.886   4.902   7.744  0.2102 -0.3818 -0.2048
  894MOL0     C20620   8.844   4.884   7.633  0.1901 -0.2504 -0.1316
  894MOL0     C20621   9.411   5.245   8.250  0.4312  0.0581 -0.5970
  894MOL0     C20622   9.540   5.303   8.246 -0.6763 -0.8058  0.6810
  894MOL0     H20623  10.030   5.382   8.105 -2.0485 -2.1349  3.5642
  894MOL0     H20624  10.239   5.477   8.122 -0.0602 -1.6915  0.4892
  894MOL0     H20625  10.330   5.667   8.084  0.5782  1.2072 -0.1552
  894MOL0     H20626  10.279   5.819   8.137  2.3069  0.8745 -0.5794
  894MOL0     H20627  10.554   5.694   8.203  1.5098 -0.4939 -2.8498
  894MOL0     H20628  10.521   5.777   8.064  2.0389  0.2023  1.4810
  894MOL0     H20629  10.423   5.962   8.241 -1.2427 -0.6225  0.0956
  894MOL0     H20630  10.533   5.869   8.349  3.0729 -2.2205 -2.4776
  894MOL0     H20631  10.703   5.890   8.192 -1.5248 -1.2270  0.0058
  894MOL0     H20632  10.612   6.011   8.099 -0.9008 -1.2001 -0.0779
  894MOL0     H20633  10.596   6.166   8.302  1.2108  0.7448  0.6438
  894MOL0     H20634  10.694   6.054   8.392 -0.5162  1.5482 -0.1278
  894MOL0     H20635  10.787   6.182   8.133 -0.6286  0.5650 -0.0309
  894MOL0     H20636  10.800   6.254   8.297 -1.8800  0.3969 -0.2068
  894MOL0     H20637  11.000   6.146   8.317  0.7247 -2.0539  0.7053
  894MOL0     H20638  10.931   5.987   8.318  0.5049  0.5638  1.7963
  894MOL0     H20639  11.124   6.056   8.153 -0.4245 -4.3050 -0.7576
  894MOL0     H20640  11.013   6.139   8.064  1.7402 -2.4667 -2.1808
  894MOL0     H20641  11.100   5.782   8.174 -3.0631  0.6288  3.7817
  894MOL0     H20642  10.888   5.537   7.982 -3.7065  0.8227  0.3888
  894MOL0     H20643  11.051   5.543   8.086 -0.0641  0.4397 -2.2448
  894MOL0     H20644  10.770   5.579   8.194 -0.3504  0.3787  1.1623
  894MOL0     H20645  10.913   5.577   8.281 -2.7150 -3.0647  2.4007
  894MOL0     H20646  10.814   5.369   8.092  0.2321 -1.5236  0.4141
  894MOL0     H20647  10.747   5.366   8.259  0.4807  0.8548  2.3984
  894MOL0     H20648  10.950   5.302   8.350  0.5631 -1.4293 -0.4957
  894MOL0     H20649  11.045   5.344   8.198 -0.3595  0.0656 -1.9667
  894MOL0     H20650  10.676   5.190   8.103  0.8165  1.4686  1.6213
  894MOL0     H20651  10.410   5.010   8.291 -0.8261 -1.6261 -0.7415
  894MOL0     H20652  10.460   5.153   8.176  3.1899  0.6347 -1.2041
  894MOL0     H20653  10.418   5.002   8.114 -0.3134 -1.3178  1.7280
  894MOL0     H20654  10.583   4.533   8.616  0.6525  2.1837 -0.3865
  894MOL0     H20655  10.407   4.387   8.694 -0.8620  0.4950  1.0105
  894MOL0     H20656  10.218   4.364   8.823 -1.0864 -4.6796 -1.7233
  894MOL0     H20657  10.114   4.509   8.822  1.4770  0.6640  0.1264
  894MOL0     H20658  10.046   4.309   8.938 -0.7977  0.4019  0.7847
  894MOL0     H20659   9.919   4.381   8.832  1.6016  2.9152 -4.3269
  894MOL0     H20660  10.072   4.130   8.775  3.7161  4.1167  1.9428
  894MOL0     H20661   9.965   4.200   8.659 -1.6829 -0.2039 -0.1424
  894MOL0     H20662   9.768   4.160   8.815 -1.7198 -0.8549 -3.7263
  894MOL0     H20663   9.846   4.010   8.771  1.0043 -0.2217  0.5869
  894MOL0     H20664   9.939   4.162   9.020 -0.2948 -2.0812  2.7665
  894MOL0     H20665   9.950   3.991   8.965  0.9075  0.1669  2.2918
  894MOL0     H20666   9.789   4.052   9.158  1.3243 -0.2511 -0.2961
  894MOL0     H20667   9.690   4.139   9.044  2.1965  2.2494  2.1652
  894MOL0     H20668   9.670   3.912   8.913  2.9724 -0.6628 -0.6575
  894MOL0     H20669   9.582   3.932   9.061 -0.7630  0.0025 -2.3247
  894MOL0     H20670   9.853   3.794   9.026 -0.1344  2.0550  0.1651
  894MOL0     H20671   9.691   3.721   9.002 -0.1485  1.0565  0.2631
  894MOL0     H20672  10.111   4.579   8.468 -0.4809  2.5502  1.8716
  894MOL0     H20673  10.276   4.725   8.368  0.6581 -1.3139 -0.7113
  894MOL0     H20674  10.811   4.790   8.361 -1.5615 -1.5696 -0.6470
  894MOL0     H20675  10.972   4.952   8.289 -0.3748  1.1461 -0.5828
  894MOL0     H20676  10.083   5.738   8.449  0.5899  0.4795 -0.3668
  894MOL0     H20677   9.856   5.648   8.386  0.1147  1.1821 -0.5922
  894MOL0     H20678   9.588   5.279   7.922  1.9897 -4.0800  0.0362
  894MOL0     H20679   9.341   5.210   7.930 -0.3534 -0.8685  0.2350
  894MOL0     H20680   9.099   5.222   7.976 -1.6229  0.0269 -1.1691
  894MOL0     H20681   9.180   5.053   8.003  1.8328 -1.5243  5.0593
  894MOL0     H20682   8.926   5.157   8.142 -0.0390  1.9475 -1.0343
  894MOL0     H20683   8.992   4.998   8.153 -0.7508 -0.3271 -0.7995
  894MOL0     H20684   8.873   5.132   7.918 -2.3331 -0.0850 -0.4986
  894MOL0     H20685   8.803   4.989   8.002  0.9783 -0.9232 -1.0761
  894MOL0     H20686   8.979   4.837   7.923 -1.2279 -0.3155 -0.8222
  894MOL0     H20687   9.054   4.967   7.835 -0.7954  2.7487 -1.8461
  894MOL0     H20688   8.804   4.871   7.534  0.5368 -0.2304 -0.2759
  894MOL0     H20689   9.377   5.239   8.353  1.4908 -2.1334 -0.3141
  894MOL0     H20690   9.586   5.333   8.339 -0.9411  0.1103  0.5266
  895MOL0     O20691  10.617   3.864   1.258 -0.0767 -0.2334 -0.4103
  895MOL0     C20692  10.693   3.874   1.360 -0.0158 -0.0986  0.0118
  895MOL0     O20693  10.764   3.980   1.397 -0.8490  0.0745 -0.2787
  895MOL0     C20694  10.787   4.087   1.316  0.4378 -0.2909 -1.0719
  895MOL0     C20695  10.695   4.146   1.221 -0.6579  0.0154 -0.4691
  895MOL0     C20696  10.724   4.261   1.148 -0.2473 -0.5941 -0.2696
  895MOL0     C20697  10.853   4.317   1.164  0.3616  1.2869 -0.9607
  895MOL0     O20698  10.871   4.424   1.088 -0.3224  0.4122  0.8712
  895MOL0     C20699  10.987   4.506   1.102 -0.6451 -0.8091 -0.2263
  895MOL0     C20700  10.993   4.597   0.983 -0.7542  0.6473  0.2847
  895MOL0     C20701  11.077   4.713   0.988  0.1456  0.7844 -0.2378
  895MOL0     C20702  11.078   4.807   0.860  0.3831 -1.2356 -0.1133
  895MOL0     C20703  11.178   4.921   0.895 -0.1189  0.2452  0.0036
  895MOL0     C20704  11.327   4.868   0.903  0.6817  0.5848 -0.3363
  895MOL0     C20705  11.373   4.798   0.780  1.0780 -0.0118 -0.6137
  895MOL0     C20706  11.511   4.736   0.801 -1.5245 -0.1189 -0.7886
  895MOL0     N20707  11.529   4.651   0.681  0.3382 -0.6918  1.0488
  895MOL0     C20708  11.528   4.516   0.676 -0.4506 -1.4121 -0.6993
  895MOL0     C20709  11.600   4.491   0.564 -0.4882 -0.0416  0.2326
  895MOL0     C20710  11.646   4.347   0.523  0.1572 -0.6660  0.7496
  895MOL0     C20711  11.764   4.344   0.421  0.2452 -0.3605 -0.0196
  895MOL0     C20712  11.892   4.420   0.450 -0.6988  0.0514  0.3980
  895MOL0     C20713  12.005   4.389   0.345 -0.2400  0.0210  0.5360
  895MOL0     O20714  12.041   4.249   0.351 -0.4469 -0.0339  0.0464
  895MOL0     C20715  12.111   4.208   0.467 -0.3253 -0.5983 -0.5767
  895MOL0     C20716  12.255   4.194   0.482  0.4114 -0.2828  0.2374
  895MOL0     C20717  12.317   4.147   0.599 -0.8527  0.6337  0.4843
  895MOL0     C20718  12.465   4.136   0.593 -0.8405 -0.5796 -0.5070
  895MOL0     C20719  12.240   4.122   0.707 -0.0879  0.2899  0.0205
  895MOL0     C20720  12.294   4.101   0.846  0.0841 -0.0908 -0.1567
  895MOL0     O20721  12.380   4.203   0.886  0.4142 -0.8534  0.3241
  895MOL0     C20722  12.474   4.193   0.982  0.2734  0.4151  1.2413
  895MOL0     C20723  12.526   4.081   1.043  0.2317  0.7536  0.1408
  895MOL0     C20724  12.630   4.090   1.131  0.0132 -0.4264 -0.1811
  895MOL0     C20725  12.683   4.209   1.165 -0.2495 -0.1755 -0.9813
  895MOL0     O20726  12.791   4.214   1.259  0.0162  0.6488  0.2425
  895MOL0     C20727  12.849   4.092   1.305 -0.4678 -0.6661 -0.0440
  895MOL0     C20728  12.983   4.094   1.376 -0.9468 -0.4849 -1.1247
  895MOL0     C20729  12.978   4.137   1.518  0.7681 -0.0679  0.2894
  895MOL0     C20730  13.122   4.137   1.579  0.5330  0.0122  0.2569
  895MOL0     C20731  13.129   4.174   1.727 -0.8177  0.0148  0.8670
  895MOL0     C20732  13.222   4.083   1.803 -0.1697  0.5188  0.0048
  895MOL0     C20733  13.184   4.091   1.950  0.1971 -1.0511  1.0174
  895MOL0     C20734  13.286   4.025   2.039 -1.0261  0.4896 -0.2773
  895MOL0    Cl20735  13.333   3.867   1.972  0.4317 -0.3773 -0.3117
  895MOL0     C20736  12.644   4.332   1.104  0.1475 -0.2941  0.2170
  895MOL0     C20737  12.535   4.316   1.012 -0.3253 -0.1054 -0.7307
  895MOL0     O20738  12.256   4.006   0.918 -0.0272  0.3096  1.1609
  895MOL0     C20739  12.097   4.134   0.700  0.3467 -0.2445  0.5256
  895MOL0     C20740  12.038   4.171   0.579  0.1498  0.3283  0.3428
  895MOL0     N20741  11.646   4.610   0.503  0.7262  0.5012 -0.2151
  895MOL0     N20742  11.584   4.703   0.566 -0.4529 -1.2600  0.0172
  895MOL0     C20743  10.934   4.266   1.272 -0.2231 -0.1036  0.0688
  895MOL0     C20744  10.899   4.159   1.346 -0.2351 -0.3877  0.2416
  895MOL0     C20745  10.708   3.757   1.439  0.1094  0.6004 -0.0753
  895MOL0     C20746  10.799   3.746   1.538 -0.0039 -0.1633 -0.2125
  895MOL0     C20747  10.820   3.639   1.623 -0.6397 -0.3052 -0.6465
  895MOL0     C20748  10.741   3.527   1.598  0.4273  1.1318  0.1891
  895MOL0     O20749  10.763   3.422   1.691  0.2561  0.4340  0.3863
  895MOL0     C20750  10.722   3.293   1.650 -0.6104 -0.6213  0.6087
  895MOL0     C20751  10.810   3.184   1.720 -0.2472  0.2888  0.1280
  895MOL0     C20752  10.963   3.209   1.703  0.3310 -0.1109  0.4198
  895MOL0     C20753  11.022   3.268   1.576 -0.7556  0.5180 -0.4554
  895MOL0     C20754  11.169   3.279   1.579 -0.4145 -1.0408  0.2587
  895MOL0     C20755  11.282   3.303   1.570  0.0295 -0.8573 -0.5045
  895MOL0     C20756  10.652   3.525   1.498 -0.7198 -0.0235 -0.2464
  895MOL0     C20757  10.634   3.636   1.415  0.8052 -0.0676 -0.5330
  895MOL0     H20758  10.598   4.099   1.207 -1.8690  1.2384  2.6982
  895MOL0     H20759  10.643   4.302   1.087  0.5706  0.4370 -0.6975
  895MOL0     H20760  10.971   4.576   1.184  1.2887  0.8939 -1.1868
  895MOL0     H20761  11.079   4.448   1.108  0.4639  1.0137  2.8004
  895MOL0     H20762  11.010   4.535   0.895 -0.7965  0.0279  0.7067
  895MOL0     H20763  10.892   4.629   0.957 -0.3504  0.5774 -1.4965
  895MOL0     H20764  11.046   4.768   1.078 -1.9049 -0.9625  0.2066
  895MOL0     H20765  11.180   4.679   1.006 -0.4123 -0.5701  0.5425
  895MOL0     H20766  11.108   4.757   0.767  1.6206  0.3166 -0.5893
  895MOL0     H20767  10.975   4.840   0.841 -0.9597 -3.2858  2.8540
  895MOL0     H20768  11.160   5.007   0.830  0.8008  2.2744  2.3092
  895MOL0     H20769  11.152   4.979   0.984  4.1941  3.9428 -0.8216
  895MOL0     H20770  11.389   4.957   0.918 -0.4040  0.9167  3.0295
  895MOL0     H20771  11.337   4.802   0.990 -1.3333  1.3045  0.5201
  895MOL0     H20772  11.303   4.723   0.744 -2.1056  1.1929  2.4758
  895MOL0     H20773  11.390   4.871   0.700 -1.8784  1.6801  0.1533
  895MOL0     H20774  11.523   4.673   0.889  2.1231  3.1462  1.3974
  895MOL0     H20775  11.581   4.819   0.816 -3.1782  1.1294  0.4934
  895MOL0     H20776  11.484   4.443   0.743 -2.4852  1.2440  1.0187
  895MOL0     H20777  11.674   4.288   0.610  1.5990 -2.7129 -1.0062
  895MOL0     H20778  11.566   4.304   0.461  2.0346  0.1639 -2.5277
  895MOL0     H20779  11.724   4.370   0.323 -1.1402 -1.2869  0.2727
  895MOL0     H20780  11.792   4.239   0.408 -1.2764 -0.8281  0.3142
  895MOL0     H20781  11.939   4.399   0.547  1.1847 -2.4462 -0.9212
  895MOL0     H20782  11.866   4.526   0.445  1.4127  0.6804  1.3575
  895MOL0     H20783  12.095   4.450   0.344  0.0764 -0.4372  0.4823
  895MOL0     H20784  11.957   4.402   0.247 -1.5635 -1.8173  0.8835
  895MOL0     H20785  12.301   4.224   0.389 -2.8654  2.4902 -0.7315
  895MOL0     H20786  12.508   4.224   0.643  0.8947 -1.0470 -1.1330
  895MOL0     H20787  12.496   4.044   0.643  0.8162 -0.6658 -1.6249
  895MOL0     H20788  12.491   4.125   0.487  2.1528 -1.6913  0.2590
  895MOL0     H20789  12.493   3.978   1.029 -0.3277  0.9377  0.0746
  895MOL0     H20790  12.654   3.996   1.180 -0.7033 -0.2737  0.4824
  895MOL0     H20791  12.776   4.059   1.379 -0.0795 -1.5368 -0.0451
  895MOL0     H20792  12.845   4.020   1.223 -0.5956  0.4352 -1.0342
  895MOL0     H20793  13.017   3.990   1.375  1.2665  0.0533  2.1980
  895MOL0     H20794  13.057   4.160   1.331 -1.0636  0.4641  0.0380
  895MOL0     H20795  12.912   4.066   1.569  1.1380 -0.9697 -0.4582
  895MOL0     H20796  12.924   4.231   1.528 -1.3534 -1.3253  1.4261
  895MOL0     H20797  13.175   4.043   1.562 -0.6242 -0.5059 -0.6148
  895MOL0     H20798  13.186   4.212   1.531  1.4459 -1.3436 -0.7216
  895MOL0     H20799  13.030   4.151   1.768 -1.8363  0.2299 -1.3404
  895MOL0     H20800  13.155   4.280   1.734  1.8293 -0.5388  0.6368
  895MOL0     H20801  13.212   3.977   1.780 -2.1733  0.2597  1.7592
  895MOL0     H20802  13.324   4.119   1.785  0.0901  1.0842  2.3249
  895MOL0     H20803  13.093   4.031   1.958 -1.9881  1.4509 -2.2826
  895MOL0     H20804  13.166   4.195   1.979  0.2282 -1.5047  2.7075
  895MOL0     H20805  13.261   4.022   2.145 -2.6284  1.3178 -0.6005
  895MOL0     H20806  13.380   4.080   2.027 -0.3538 -1.1274 -4.1826
  895MOL0     H20807  12.691   4.427   1.129 -0.5082  0.3033 -0.7864
  895MOL0     H20808  12.493   4.404   0.966 -2.0538 -0.1719  0.6325
  895MOL0     H20809  12.041   4.092   0.783  2.3063 -2.1374  0.9718
  895MOL0     H20810  11.930   4.165   0.577  0.0196  1.9857  0.8894
  895MOL0     H20811  11.021   4.323   1.304  1.5138 -1.7874 -1.3984
  895MOL0     H20812  10.946   4.145   1.443 -1.5787  1.5486  1.2433
  895MOL0     H20813  10.855   3.837   1.561  1.8612 -0.9343 -1.4652
  895MOL0     H20814  10.888   3.633   1.707  0.1580 -0.9083 -1.3105
  895MOL0     H20815  10.623   3.268   1.687 -1.1710 -1.6172 -1.4391
  895MOL0     H20816  10.735   3.285   1.542  0.3775  1.3907  0.5205
  895MOL0     H20817  10.768   3.092   1.677 -2.9222  0.8041  1.3692
  895MOL0     H20818  10.772   3.166   1.822  0.6726  3.0933  1.0314
  895MOL0     H20819  11.009   3.111   1.718 -3.2149 -1.9197  0.6207
  895MOL0     H20820  10.985   3.282   1.782 -0.0475  1.3122 -0.7563
  895MOL0     H20821  10.986   3.372   1.573  1.3291  1.2558 -1.4176
  895MOL0     H20822  10.991   3.212   1.488 -1.7524  1.1286 -0.5197
  895MOL0     H20823  11.386   3.319   1.547  0.4898  0.2206  2.0224
  895MOL0     H20824  10.599   3.436   1.465  0.0043  0.6212 -3.5534
  895MOL0     H20825  10.562   3.624   1.334  1.8838 -0.4896 -1.4541
  896MOL0     O20826   1.027   0.403  10.993  0.1574  0.4969 -0.0385
  896MOL0     C20827   0.921   0.427  11.052  0.5496 -0.0578  0.3400
  896MOL0     O20828   0.902   0.468  11.185  0.0510  0.3000 -0.6983
  896MOL0     C20829   0.999   0.515  11.265 -1.0011 -0.6948 -0.6542
  896MOL0     C20830   0.974   0.511  11.400  0.0397  1.2541 -0.3888
  896MOL0     C20831   1.058   0.577  11.487 -0.5673  0.0995 -0.3977
  896MOL0     C20832   1.172   0.651  11.444 -0.6964  0.2018  0.4051
  896MOL0     O20833   1.252   0.725  11.517 -0.9407  0.5744 -0.9375
  896MOL0     C20834   1.224   0.733  11.665 -0.1355 -0.6042  0.1537
  896MOL0     C20835   1.342   0.812  11.713  0.4640  0.3259 -0.6771
  896MOL0     C20836   1.372   0.943  11.637 -0.0186  0.8909  0.2125
  896MOL0     C20837   1.480   1.019  11.710  1.4641  0.0930 -0.8945
  896MOL0     C20838   1.510   1.145  11.633  0.3328  0.8846  0.0678
  896MOL0     C20839   1.650   1.192  11.684  0.2687 -0.0204 -0.0917
  896MOL0     C20840   1.712   1.318  11.610  0.5045 -0.4943 -1.6558
  896MOL0     C20841   1.843   1.368  11.665 -0.1842 -0.1443  0.4311
  896MOL0     N20842   1.957   1.278  11.646  0.0517  0.4038  0.3606
  896MOL0     C20843   1.967   1.181  11.550 -0.2931  0.0601 -0.1747
  896MOL0     C20844   2.096   1.146  11.551 -0.3565 -0.4111 -0.4935
  896MOL0     C20845   2.147   1.044  11.458 -0.0886 -0.4585  0.6593
  896MOL0     C20846   2.276   1.100  11.387  0.5473 -0.2651 -0.3277
  896MOL0     C20847   2.268   1.198  11.270  0.6699  0.3106 -0.2217
  896MOL0     C20848   2.408   1.223  11.211 -0.2132  0.4059  0.1226
  896MOL0     O20849   2.408   1.314  11.104  0.6375  0.9040 -0.4049
  896MOL0     C20850   2.367   1.277  10.979  0.4124 -0.3791 -0.3298
  896MOL0     C20851   2.355   1.381  10.887 -0.6174 -0.6175  0.5745
  896MOL0     C20852   2.317   1.355  10.753  0.4260 -0.1185  1.1046
  896MOL0     C20853   2.316   1.473  10.662 -0.0196 -0.2501  0.3476
  896MOL0     C20854   2.301   1.217  10.713  0.3158  0.3188  1.4063
  896MOL0     C20855   2.286   1.163  10.571 -0.1624 -0.7697 -0.2143
  896MOL0     O20856   2.210   1.048  10.562  0.9048 -0.7566 -0.0002
  896MOL0     C20857   2.191   0.984  10.445 -0.9682 -0.0172  0.2860
  896MOL0     C20858   2.160   0.855  10.454  0.6982  0.1869 -0.4641
  896MOL0     C20859   2.135   0.789  10.340  0.0067 -0.8288  1.2027
  896MOL0     C20860   2.153   0.847  10.207 -0.6631  0.1280  0.0291
  896MOL0     O20861   2.110   0.792  10.087 -0.6578  0.1684 -0.2056
  896MOL0     C20862   2.017   0.675  10.096  0.7831  0.2238  0.4599
  896MOL0     C20863   2.096   0.546  10.113 -0.2822  0.6281  0.0072
  896MOL0     C20864   2.210   0.527  10.020 -0.2504  0.3524 -0.0795
  896MOL0     C20865   2.222   0.374   9.977 -0.2920  0.1916  0.7224
  896MOL0     C20866   2.371   0.349   9.933 -0.5311 -0.7299  0.3550
  896MOL0     C20867   2.413   0.207   9.892  0.2154 -0.4648  0.5911
  896MOL0     C20868   2.561   0.171   9.891  0.3018  0.1162  0.0078
  896MOL0     C20869   2.598   0.024   9.877 -0.1318 -0.3251  0.1288
  896MOL0    Cl20870   2.592  -0.026   9.707  0.1246 -0.1635 -0.2449
  896MOL0     C20871   2.184   0.979  10.201 -0.0064  0.0303 -0.1138
  896MOL0     C20872   2.193   1.050  10.320 -1.2770 -0.8192  0.4444
  896MOL0     O20873   2.334   1.228  10.478 -0.1435  0.0067  0.0542
  896MOL0     C20874   2.299   1.119  10.810 -1.5251 -0.4931  0.3235
  896MOL0     C20875   2.331   1.147  10.945 -0.0187 -0.0658 -0.1359
  896MOL0     N20876   2.161   1.215  11.659 -0.2997  0.3296  0.8854
  896MOL0     N20877   2.075   1.296  11.710  0.1917 -0.4962 -1.1278
  896MOL0     C20878   1.200   0.650  11.310 -0.1297  0.5094 -1.1267
  896MOL0     C20879   1.114   0.583  11.221  0.1706  0.6449  0.7860
  896MOL0     C20880   0.796   0.410  10.978  0.2127 -0.1511  0.0676
  896MOL0     C20881   0.683   0.487  11.001  0.8312  0.4601 -0.9035
  896MOL0     C20882   0.561   0.487  10.925  0.6946  0.1223  1.0707
  896MOL0     C20883   0.548   0.394  10.815 -0.3738  0.9638  0.7179
  896MOL0     O20884   0.448   0.377  10.722  0.1843 -0.3177 -0.3287
  896MOL0     C20885   0.354   0.494  10.726 -0.0912  1.4320  0.2545
  896MOL0     C20886   0.238   0.463  10.821  0.3992  0.8091 -1.0583
  896MOL0     C20887   0.118   0.568  10.813 -0.1591  0.2799 -0.6879
  896MOL0     C20888   0.062   0.592  10.669  0.9932 -0.2676 -0.3068
  896MOL0     C20889  -0.005   0.477  10.617  0.4416  0.3476  0.2168
  896MOL0     C20890  -0.056   0.385  10.559 -0.9732  0.7758 -0.2782
  896MOL0     C20891   0.669   0.322  10.787  0.0759  0.6674 -0.1336
  896MOL0     C20892   0.787   0.319  10.868  0.0333  0.6091  0.0653
  896MOL0     H20893   0.888   0.455  11.434  0.4196  1.7875  1.5370
  896MOL0     H20894   1.041   0.559  11.592 -0.7721  4.5031  0.5216
  896MOL0     H20895   1.138   0.798  11.685  0.5093 -0.1033  1.4346
  896MOL0     H20896   1.216   0.633  11.708  1.6697  0.3547  3.0692
  896MOL0     H20897   1.342   0.837  11.820  3.7470  3.0377 -1.1346
  896MOL0     H20898   1.422   0.738  11.705 -0.7635 -0.9893 -1.2142
  896MOL0     H20899   1.414   0.920  11.539 -1.5358 -0.3474 -0.1988
  896MOL0     H20900   1.285   1.009  11.627  0.6957  1.6766 -1.0877
  896MOL0     H20901   1.439   1.045  11.809 -2.0097  2.8082 -2.8137
  896MOL0     H20902   1.558   0.942  11.712  1.1392 -0.2681  1.4218
  896MOL0     H20903   1.513   1.111  11.529  0.9198 -1.0170  0.6606
  896MOL0     H20904   1.436   1.221  11.660 -1.5802 -0.7218 -0.3935
  896MOL0     H20905   1.640   1.214  11.790 -1.6642 -2.0932  0.2257
  896MOL0     H20906   1.712   1.106  11.659  2.7139  2.0043 -1.4791
  896MOL0     H20907   1.731   1.298  11.504 -1.1388 -0.6143 -1.9500
  896MOL0     H20908   1.637   1.398  11.612  0.3924 -0.5780  1.8074
  896MOL0     H20909   1.832   1.394  11.771  0.8835  1.3852  0.2014
  896MOL0     H20910   1.875   1.466  11.627 -0.0262 -0.1609  0.5171
  896MOL0     H20911   1.894   1.136  11.483  0.6045  1.1733 -2.0043
  896MOL0     H20912   2.187   0.964  11.521  2.5801 -0.1927 -0.5923
  896MOL0     H20913   2.080   1.004  11.382  3.8977 -0.9114 -2.9908
  896MOL0     H20914   2.310   1.010  11.335 -1.5208 -0.1540 -2.0115
  896MOL0     H20915   2.351   1.133  11.459  0.9232  1.6211 -1.5198
  896MOL0     H20916   2.223   1.292  11.304  1.0771 -0.4410  2.7110
  896MOL0     H20917   2.213   1.156  11.186  1.7671  2.2523 -1.9863
  896MOL0     H20918   2.458   1.130  11.183  0.8796  1.0213 -0.0535
  896MOL0     H20919   2.479   1.267  11.282  0.3346  0.5696 -0.5152
  896MOL0     H20920   2.404   1.474  10.914  0.8922 -1.3040  0.3385
  896MOL0     H20921   2.249   1.548  10.707 -1.5199 -1.9980  1.1344
  896MOL0     H20922   2.419   1.511  10.662  0.2950 -0.9933 -1.5045
  896MOL0     H20923   2.288   1.449  10.559 -0.6634 -1.0207  0.6941
  896MOL0     H20924   2.161   0.815  10.555  1.5610 -0.5483 -0.7427
  896MOL0     H20925   2.111   0.683  10.343 -2.5521 -0.3173  1.3471
  896MOL0     H20926   1.949   0.683  10.181  0.0658 -1.5612  0.1023
  896MOL0     H20927   1.961   0.682  10.002  1.0894  2.9879  0.3999
  896MOL0     H20928   2.126   0.526  10.216 -0.6383 -0.7987 -0.1384
  896MOL0     H20929   2.025   0.468  10.084 -1.1384  1.0059  1.0291
  896MOL0     H20930   2.301   0.553  10.074  0.3711 -2.6976  0.5334
  896MOL0     H20931   2.196   0.596   9.937 -0.1138 -1.0547 -1.3017
  896MOL0     H20932   2.190   0.307  10.057 -2.0136 -1.9810 -1.6240
  896MOL0     H20933   2.164   0.345   9.889  0.0496 -2.0382  1.1778
  896MOL0     H20934   2.425   0.356  10.028  0.3163  0.6568 -0.1923
  896MOL0     H20935   2.407   0.425   9.863 -0.2203 -2.3024 -1.2497
  896MOL0     H20936   2.365   0.130   9.954  3.1243 -1.3484  1.9281
  896MOL0     H20937   2.374   0.190   9.791  0.4420 -1.0758  0.5999
  896MOL0     H20938   2.604   0.203   9.986  2.0482 -0.9401 -0.4016
  896MOL0     H20939   2.605   0.226   9.807 -0.8875  0.7577 -0.2207
  896MOL0     H20940   2.535  -0.044   9.934 -3.6435  2.7038  0.1853
  896MOL0     H20941   2.701   0.027   9.914  0.3851 -2.7805 -0.9236
  896MOL0     H20942   2.169   1.023  10.103  0.8187 -0.9848 -0.7179
  896MOL0     H20943   2.208   1.156  10.303  0.5932 -0.2745  4.2804
  896MOL0     H20944   2.284   1.012  10.794 -0.6274 -0.4756 -0.8331
  896MOL0     H20945   2.327   1.069  11.020 -2.0276  0.8163  0.7517
  896MOL0     H20946   1.281   0.700  11.258 -0.6699  2.0928 -0.5394
  896MOL0     H20947   1.131   0.597  11.115  1.9614  0.9008  1.0724
  896MOL0     H20948   0.687   0.548  11.090  1.2770 -0.6650 -0.1285
  896MOL0     H20949   0.482   0.553  10.960 -0.4191 -0.9397  0.6340
  896MOL0     H20950   0.392   0.593  10.752 -0.9220  2.6674 -2.8366
  896MOL0     H20951   0.317   0.496  10.623  2.3224 -2.8929 -0.9276
  896MOL0     H20952   0.278   0.454  10.923  1.6561 -0.8736 -1.6679
  896MOL0     H20953   0.189   0.371  10.789  1.6314 -1.8212  3.6394
  896MOL0     H20954   0.157   0.657  10.864  0.8093 -1.8787  2.6904
  896MOL0     H20955   0.034   0.536  10.875  0.9669  1.7873  1.7982
  896MOL0     H20956   0.143   0.606  10.597 -1.7552 -1.3213 -3.9095
  896MOL0     H20957  -0.010   0.673  10.657  0.5176 -0.6384 -0.0327
  896MOL0     H20958  -0.099   0.296  10.517 -0.2621  0.2278  0.1247
  896MOL0     H20959   0.666   0.252  10.704 -2.9611  2.6072 -1.8742
  896MOL0     H20960   0.873   0.258  10.843 -1.3805 -0.7624 -1.7489
  897MOL0     O20961   9.580   5.482   3.579 -0.1153 -0.5384  0.2531
  897MOL0     C20962   9.590   5.548   3.478 -0.8335  0.0263  0.1208
  897MOL0     O20963   9.705   5.625   3.449  0.4515 -0.9067  0.6844
  897MOL0     C20964   9.809   5.632   3.528  0.6806 -0.5781  0.2522
  897MOL0     C20965   9.863   5.762   3.536  0.1664  0.3442 -0.5837
  897MOL0     C20966   9.987   5.780   3.605 -0.6979  0.7560 -0.2958
  897MOL0     C20967  10.041   5.682   3.684 -0.5473  1.1232 -0.4967
  897MOL0     O20968  10.156   5.712   3.758  0.0046  0.2523 -0.5602
  897MOL0     C20969  10.238   5.616   3.821 -0.1348 -0.8026 -0.1214
  897MOL0     C20970  10.326   5.698   3.917  0.9733  0.0947  0.1182
  897MOL0     C20971  10.460   5.633   3.948  0.3327  0.5078  0.5256
  897MOL0     C20972  10.569   5.731   3.990 -0.1925 -0.0512 -0.3483
  897MOL0     C20973  10.663   5.656   4.083 -0.7138 -1.7413 -0.4258
  897MOL0     C20974  10.774   5.760   4.128 -1.0804 -0.0912 -0.0396
  897MOL0     C20975  10.875   5.678   4.208 -0.1043 -0.2076  0.1222
  897MOL0     C20976  10.953   5.587   4.114 -0.9711  0.5384 -0.5341
  897MOL0     N20977  11.071   5.529   4.185  0.5968  0.9257 -0.1595
  897MOL0     C20978  11.062   5.452   4.303  0.1832  0.6874 -0.1945
  897MOL0     C20979  11.184   5.398   4.318  0.4687 -0.9524  0.0792
  897MOL0     C20980  11.227   5.319   4.434  0.3662 -0.0642 -0.0345
  897MOL0     C20981  11.330   5.395   4.515  0.3847  0.7732 -0.8042
  897MOL0     C20982  11.434   5.295   4.575 -0.4141  0.5348  0.1671
  897MOL0     C20983  11.540   5.363   4.657 -0.2556  0.7877 -0.2129
  897MOL0     O20984  11.633   5.441   4.580 -0.1091 -0.0344 -0.7692
  897MOL0     C20985  11.762   5.453   4.639  0.3068 -0.5370  0.0662
  897MOL0     C20986  11.798   5.450   4.771 -0.1793 -0.0758  0.0175
  897MOL0     C20987  11.934   5.444   4.798 -0.3967  0.1658 -0.2167
  897MOL0     C20988  11.967   5.441   4.949  0.1212 -0.6275  0.3681
  897MOL0     C20989  12.029   5.472   4.694 -0.9331 -0.1421 -0.6261
  897MOL0     C20990  12.174   5.494   4.724  0.6485 -0.0213  0.3191
  897MOL0     O20991  12.240   5.584   4.649  0.1307  0.5589 -0.0653
  897MOL0     C20992  12.375   5.602   4.656 -0.1622 -0.0393  0.2061
  897MOL0     C20993  12.436   5.650   4.541 -0.6547 -0.7806  0.6879
  897MOL0     C20994  12.574   5.693   4.532  0.5230 -0.2309 -1.0171
  897MOL0     C20995  12.650   5.695   4.655 -0.6916 -0.4926  0.5617
  897MOL0     O20996  12.766   5.761   4.646  0.3906 -0.5746 -0.2070
  897MOL0     C20997  12.858   5.749   4.758 -0.0250 -0.5206  0.0190
  897MOL0     C20998  12.991   5.830   4.743 -0.1851 -0.1275  0.0756
  897MOL0     C20999  12.988   5.978   4.789  0.1556 -0.2295 -0.8362
  897MOL0     C21000  13.129   6.031   4.770  0.1969 -0.9428  0.2282
  897MOL0     C21001  13.116   6.194   4.780 -0.4733  0.5834  0.3647
  897MOL0     C21002  13.254   6.256   4.783 -0.8907  0.0246  0.3390
  897MOL0     C21003  13.240   6.398   4.852 -0.3503  0.4839  0.6062
  897MOL0     C21004  13.381   6.466   4.879  0.0162  0.4667  0.0804
  897MOL0    Cl21005  13.364   6.594   5.009  0.2561  0.4380  0.0600
  897MOL0     C21006  12.596   5.634   4.769  0.6428 -0.0245 -0.9931
  897MOL0     C21007  12.453   5.606   4.771 -0.7864  0.7276  0.0902
  897MOL0     O21008  12.223   5.425   4.811  0.1969 -0.4386 -0.5130
  897MOL0     C21009  11.985   5.507   4.573 -0.6436  0.6392  0.0760
  897MOL0     C21010  11.857   5.487   4.545  0.3630  0.2029 -0.2729
  897MOL0     N21011  11.260   5.451   4.217  0.6738  1.3067  0.5080
  897MOL0     N21012  11.196   5.528   4.127  0.1002  0.0670  0.0711
  897MOL0     C21013   9.982   5.552   3.683 -0.6869 -0.2831  0.2777
  897MOL0     C21014   9.865   5.527   3.608 -0.1436  0.0904  0.5119
  897MOL0     C21015   9.469   5.582   3.397 -0.9720 -0.5952 -0.0037
  897MOL0     C21016   9.479   5.631   3.267  0.0283  0.8722  0.0339
  897MOL0     C21017   9.366   5.666   3.194 -0.0940 -0.2065  0.1026
  897MOL0     C21018   9.240   5.667   3.255 -0.4980 -0.1824  0.4276
  897MOL0     O21019   9.130   5.696   3.182  0.4574 -0.3239 -0.2281
  897MOL0     C21020   9.026   5.603   3.178 -0.5899  0.0020  0.6221
  897MOL0     C21021   8.921   5.631   3.061 -0.6849  0.0812 -1.0493
  897MOL0     C21022   8.992   5.609   2.933  0.4603  0.8837  0.0605
  897MOL0     C21023   8.908   5.620   2.806 -0.7344 -0.7785  0.3410
  897MOL0     C21024   8.819   5.509   2.779  0.2311  0.1872  0.3288
  897MOL0     C21025   8.760   5.412   2.749  0.2717  0.2174 -0.1871
  897MOL0     C21026   9.231   5.622   3.391 -0.2716  0.7738  0.4060
  897MOL0     C21027   9.349   5.582   3.463  0.0927  0.6486  0.1215
  897MOL0     H21028   9.811   5.846   3.492  2.2889  0.8631 -2.2947
  897MOL0     H21029  10.037   5.874   3.622  1.3454 -0.0482 -1.5500
  897MOL0     H21030  10.185   5.532   3.866 -0.8632  0.6910  1.9243
  897MOL0     H21031  10.293   5.562   3.743  0.7972 -1.4176  0.9153
  897MOL0     H21032  10.350   5.797   3.875  0.3668  2.0847  4.0133
  897MOL0     H21033  10.283   5.716   4.016 -1.0081  1.1135 -0.8519
  897MOL0     H21034  10.441   5.562   4.029 -1.7268 -0.1135 -0.4466
  897MOL0     H21035  10.497   5.564   3.872 -0.1608 -0.6028  1.2791
  897MOL0     H21036  10.599   5.789   3.903 -4.5940  2.0237 -0.7961
  897MOL0     H21037  10.521   5.804   4.056  0.3206 -0.0631  0.0403
  897MOL0     H21038  10.615   5.625   4.176 -1.8577  0.7255 -0.1388
  897MOL0     H21039  10.701   5.573   4.022  1.1882 -0.4855 -1.0627
  897MOL0     H21040  10.805   5.823   4.044  1.5011  0.7765  1.4460
  897MOL0     H21041  10.732   5.832   4.199 -0.1187  0.6235 -0.1703
  897MOL0     H21042  10.939   5.749   4.262 -1.2137 -0.1889  1.4427
  897MOL0     H21043  10.818   5.609   4.271  0.5178 -0.5499  0.3161
  897MOL0     H21044  10.979   5.638   4.021  2.9763 -0.7136 -0.3337
  897MOL0     H21045  10.899   5.497   4.083  0.4958 -1.2166  1.6784
  897MOL0     H21046  10.975   5.455   4.367  0.0460  2.9124 -0.4089
  897MOL0     H21047  11.136   5.294   4.490  0.5202  1.3493  0.8907
  897MOL0     H21048  11.269   5.221   4.408 -2.1676 -1.8833  2.1737
  897MOL0     H21049  11.273   5.444   4.594 -2.6774 -1.3427 -1.5122
  897MOL0     H21050  11.382   5.467   4.450  2.1998  0.8180  0.6121
  897MOL0     H21051  11.495   5.255   4.494 -1.2349  2.4673 -1.4884
  897MOL0     H21052  11.395   5.211   4.632  0.1914  0.3625  0.3330
  897MOL0     H21053  11.597   5.284   4.705  2.3350  1.8631 -1.3322
  897MOL0     H21054  11.492   5.425   4.734  0.6235 -1.5219  2.3406
  897MOL0     H21055  11.734   5.445   4.859 -1.0856 -1.3788 -0.6728
  897MOL0     H21056  12.037   5.523   4.966 -1.3868  0.9941 -0.9077
  897MOL0     H21057  11.883   5.461   5.016 -1.7952 -2.6354 -1.2961
  897MOL0     H21058  12.016   5.347   4.977  1.8011  1.4677  5.8618
  897MOL0     H21059  12.383   5.654   4.447  1.8216 -0.5756 -0.7751
  897MOL0     H21060  12.603   5.717   4.430 -1.8456  1.5201 -1.3448
  897MOL0     H21061  12.809   5.774   4.852  2.7147  1.2427  1.1106
  897MOL0     H21062  12.879   5.642   4.761 -1.1176 -0.7424  2.3959
  897MOL0     H21063  13.061   5.775   4.806 -1.2693 -2.7400 -0.8529
  897MOL0     H21064  13.026   5.817   4.640  1.0067  0.0293  0.4436
  897MOL0     H21065  12.955   6.006   4.889  0.5488 -0.8915 -0.5163
  897MOL0     H21066  12.925   6.025   4.712 -1.6767 -1.2328  0.0008
  897MOL0     H21067  13.188   5.993   4.855 -1.0195 -2.2754  0.5227
  897MOL0     H21068  13.176   6.005   4.675  0.1870  3.7457 -1.2748
  897MOL0     H21069  13.060   6.218   4.871  1.1138  0.7670  1.3334
  897MOL0     H21070  13.060   6.220   4.690 -0.5625 -3.4520 -0.9476
  897MOL0     H21071  13.329   6.195   4.834  3.5358  2.4908 -2.6325
  897MOL0     H21072  13.296   6.260   4.683 -0.8165  0.6356  0.3916
  897MOL0     H21073  13.182   6.391   4.945  0.2406 -0.0158  0.9434
  897MOL0     H21074  13.171   6.459   4.793 -1.5842 -0.2776  1.2143
  897MOL0     H21075  13.429   6.506   4.789 -3.1486 -0.5225 -2.2028
  897MOL0     H21076  13.444   6.382   4.910  1.0261  1.9703  2.4822
  897MOL0     H21077  12.649   5.617   4.862  0.2537 -0.8296 -0.9092
  897MOL0     H21078  12.394   5.585   4.860 -2.1210  1.7141 -0.5285
  897MOL0     H21079  12.045   5.527   4.485  0.4971 -3.8456 -0.4609
  897MOL0     H21080  11.821   5.494   4.443 -3.6864  1.2042  1.0314
  897MOL0     H21081  10.017   5.471   3.745  0.3438 -1.4112 -1.6503
  897MOL0     H21082   9.824   5.426   3.597 -1.2176  0.7217 -1.8702
  897MOL0     H21083   9.573   5.618   3.215 -0.5114  0.3143 -0.8340
  897MOL0     H21084   9.388   5.684   3.089  0.8945 -2.4510 -0.1269
  897MOL0     H21085   9.062   5.501   3.168 -1.1073 -0.1252 -0.0369
  897MOL0     H21086   8.968   5.595   3.271  2.3062 -2.7636  2.3744
  897MOL0     H21087   8.887   5.735   3.068 -1.5344 -0.1671 -1.3338
  897MOL0     H21088   8.826   5.582   3.084 -0.0455 -0.8334 -0.2967
  897MOL0     H21089   9.033   5.508   2.936 -0.7495  0.2061 -2.7020
  897MOL0     H21090   9.071   5.684   2.925  0.0763  1.2366 -0.5806
  897MOL0     H21091   8.986   5.615   2.730 -1.7354 -1.7688 -0.6665
  897MOL0     H21092   8.856   5.716   2.805  2.0913  0.8741  1.1166
  897MOL0     H21093   8.712   5.329   2.701  1.7492  1.4674 -4.2705
  897MOL0     H21094   9.135   5.618   3.442  0.1898  2.4979  1.4812
  897MOL0     H21095   9.346   5.568   3.570 -1.9393 -2.3387 -0.1987
  898MOL0     O21096  10.869   8.908   8.819  0.1556 -0.1005 -0.6569
  898MOL0     C21097  10.805   8.982   8.897 -1.2620 -0.1203  0.7924
  898MOL0     O21098  10.738   8.943   9.004  0.5446 -0.5640 -0.4339
  898MOL0     C21099  10.708   8.810   9.024  0.8707  0.7706 -0.3238
  898MOL0     C21100  10.736   8.737   9.135 -0.0149  0.7909  0.2220
  898MOL0     C21101  10.691   8.604   9.161 -0.2192 -0.2075  0.2716
  898MOL0     C21102  10.622   8.544   9.060  0.8551  0.2639 -0.5325
  898MOL0     O21103  10.579   8.407   9.064  0.5189  0.2933  0.1133
  898MOL0     C21104  10.622   8.324   9.166 -0.1130 -0.1438 -0.3798
  898MOL0     C21105  10.524   8.213   9.164  0.0919  1.1659 -0.3119
  898MOL0     C21106  10.525   8.130   9.296 -0.3748  0.0941  0.0381
  898MOL0     C21107  10.478   7.987   9.287  0.9730 -0.2922  0.5056
  898MOL0     C21108  10.504   7.905   9.417  0.4560 -0.1960 -0.1888
  898MOL0     C21109  10.643   7.835   9.416  0.4241 -0.2412  0.8515
  898MOL0     C21110  10.664   7.756   9.546 -0.5606  0.2914  0.0639
  898MOL0     C21111  10.749   7.632   9.537  0.7457 -0.4737  0.4902
  898MOL0     N21112  10.696   7.543   9.440 -0.1040  1.0740 -0.6219
  898MOL0     C21113  10.571   7.492   9.427 -0.0199 -0.8277  0.4032
  898MOL0     C21114  10.571   7.414   9.311  1.2646 -0.2562 -0.2585
  898MOL0     C21115  10.445   7.362   9.237 -1.6752 -0.1678 -0.5847
  898MOL0     C21116  10.364   7.477   9.197  0.6811 -0.4520 -0.4988
  898MOL0     C21117  10.245   7.455   9.099  0.4090  0.5657 -0.3300
  898MOL0     C21118  10.165   7.336   9.147 -0.8792  0.2372  1.0810
  898MOL0     O21119  10.060   7.305   9.054  0.2115 -0.4677  0.0591
  898MOL0     C21120   9.970   7.214   9.092  0.4859  0.1473  0.1985
  898MOL0     C21121   9.978   7.112   9.183  0.2762 -0.4827  0.5627
  898MOL0     C21122   9.873   7.016   9.191 -0.2023  0.4977 -0.1379
  898MOL0     C21123   9.908   6.887   9.272  0.8311 -0.7752  0.7998
  898MOL0     C21124   9.753   7.035   9.118 -0.2890  0.3655  0.7710
  898MOL0     C21125   9.637   6.932   9.107  0.3825  0.0784 -0.6149
  898MOL0     O21126   9.555   6.939   8.999  0.1703  0.9671 -1.2601
  898MOL0     C21127   9.440   6.863   8.991 -0.5455  0.4362 -0.3634
  898MOL0     C21128   9.421   6.774   8.885  0.2787  0.3050  0.1914
  898MOL0     C21129   9.307   6.688   8.867 -1.0668  0.5294  1.0423
  898MOL0     C21130   9.210   6.686   8.965  0.1004  0.8623 -0.5076
  898MOL0     O21131   9.122   6.586   8.952  0.4655 -0.1247 -0.8234
  898MOL0     C21132   9.041   6.538   9.063  0.3767  0.0144  0.6117
  898MOL0     C21133   8.979   6.404   9.022  0.7338  0.1446 -0.0650
  898MOL0     C21134   8.931   6.315   9.144  0.0580  0.5682 -0.4324
  898MOL0     C21135   8.884   6.403   9.265  0.1172  0.5389  0.6630
  898MOL0     C21136   8.823   6.318   9.375  0.0512  0.1700 -0.4098
  898MOL0     C21137   8.925   6.225   9.441 -0.2435 -0.7043  0.4895
  898MOL0     C21138   8.867   6.130   9.549 -1.1042 -0.4438 -0.5545
  898MOL0     C21139   8.795   6.220   9.651 -0.1173 -0.0349  0.0160
  898MOL0    Cl21140   8.747   6.130   9.796  0.3110  0.6078  0.1623
  898MOL0     C21141   9.230   6.772   9.081 -0.1734  0.2950  0.5490
  898MOL0     C21142   9.341   6.864   9.093  0.0189 -0.4034  0.4834
  898MOL0     O21143   9.624   6.854   9.198 -0.2108  0.5596 -0.0925
  898MOL0     C21144   9.750   7.153   9.037 -0.5682 -0.8489  0.2665
  898MOL0     C21145   9.859   7.234   9.020 -0.3202 -0.0187  0.5372
  898MOL0     N21146  10.697   7.427   9.257  0.1863 -0.2203 -0.0693
  898MOL0     N21147  10.770   7.482   9.344 -0.3811 -0.7431 -0.1787
  898MOL0     C21148  10.577   8.617   8.949  0.7232  0.4695 -0.4134
  898MOL0     C21149  10.622   8.747   8.930  1.0373  0.0574  0.8912
  898MOL0     C21150  10.809   9.131   8.868 -0.4189  0.7862 -0.3434
  898MOL0     C21151  10.885   9.189   8.755 -0.2108 -0.1489 -1.1053
  898MOL0     C21152  10.888   9.326   8.731 -0.4709  0.3967  1.2621
  898MOL0     C21153  10.813   9.410   8.811  0.0640 -0.3582  0.0631
  898MOL0     O21154  10.804   9.542   8.803  0.3994 -0.2990 -0.0631
  898MOL0     C21155  10.834   9.618   8.681 -0.0154  0.3864 -0.5839
  898MOL0     C21156  10.727   9.729   8.674 -0.2528  0.2532  0.0160
  898MOL0     C21157  10.780   9.870   8.696  0.5752  0.8352  0.1132
  898MOL0     C21158  10.877   9.898   8.813  0.5597 -0.2702 -0.0427
  898MOL0     C21159  10.921  10.039   8.793  0.4234 -0.7088  0.0702
  898MOL0     C21160  10.937  10.156   8.754 -0.4313 -0.7431 -0.4129
  898MOL0     C21161  10.738   9.361   8.912 -0.2503  0.7035  1.1915
  898MOL0     C21162  10.733   9.223   8.945  0.5852 -0.3304 -0.7825
  898MOL0     H21163  10.806   8.790   9.199  0.2144  1.8398 -0.8508
  898MOL0     H21164  10.735   8.553   9.246  0.3157  2.5994  1.7902
  898MOL0     H21165  10.724   8.285   9.160  0.0899  0.2874  0.1739
  898MOL0     H21166  10.608   8.370   9.264  0.0459  2.2937 -1.4313
  898MOL0     H21167  10.425   8.260   9.157 -0.9275 -0.8529 -0.3418
  898MOL0     H21168  10.542   8.136   9.088  1.6629  1.0437  0.1462
  898MOL0     H21169  10.626   8.138   9.339 -1.3618  0.5797  2.3989
  898MOL0     H21170  10.477   8.183   9.378  3.2162  1.4503  1.4837
  898MOL0     H21171  10.371   7.983   9.267  0.9068  0.9310  0.5532
  898MOL0     H21172  10.528   7.937   9.203 -1.9353 -0.1274 -1.4426
  898MOL0     H21173  10.493   7.962   9.510 -0.7502 -1.1805  0.3065
  898MOL0     H21174  10.437   7.818   9.417  2.4429 -1.8630 -2.4665
  898MOL0     H21175  10.656   7.776   9.325  0.7149 -4.2353  3.2297
  898MOL0     H21176  10.705   7.925   9.414 -1.2828  0.9833 -1.3293
  898MOL0     H21177  10.725   7.816   9.615  0.8314 -1.1886  0.1598
  898MOL0     H21178  10.566   7.739   9.592 -1.0520 -1.0826 -1.4267
  898MOL0     H21179  10.742   7.588   9.637 -1.8996  3.3123  2.2196
  898MOL0     H21180  10.853   7.645   9.503  0.0630 -1.5708 -2.2493
  898MOL0     H21181  10.479   7.529   9.472  0.9711  1.3230  0.7968
  898MOL0     H21182  10.472   7.297   9.153  2.1879  0.2820  0.1087
  898MOL0     H21183  10.382   7.313   9.311 -1.5383  0.4965 -0.0191
  898MOL0     H21184  10.415   7.561   9.150 -0.1703  1.7117  2.2513
  898MOL0     H21185  10.329   7.512   9.294 -1.3384  0.2254 -1.4129
  898MOL0     H21186  10.283   7.446   8.997  2.7977 -1.0445  0.5990
  898MOL0     H21187  10.177   7.540   9.097  1.4985  1.4388 -2.7892
  898MOL0     H21188  10.119   7.369   9.241  1.2238  1.5897  1.6937
  898MOL0     H21189  10.228   7.247   9.158  0.9945  1.3225 -0.2863
  898MOL0     H21190  10.069   7.101   9.241  0.8260  1.4766  0.1270
  898MOL0     H21191   9.880   6.907   9.376 -0.6854  0.5968  0.1698
  898MOL0     H21192   9.842   6.802   9.250 -0.2472  0.3408 -0.4805
  898MOL0     H21193  10.011   6.855   9.256  0.3783 -1.2710 -1.4203
  898MOL0     H21194   9.492   6.769   8.804 -1.3587  3.4592 -1.6718
  898MOL0     H21195   9.290   6.630   8.777 -1.4034  1.7971  0.2654
  898MOL0     H21196   9.118   6.519   9.138  0.4929  0.5071  0.6210
  898MOL0     H21197   8.964   6.604   9.103 -0.8378  0.1063 -1.6899
  898MOL0     H21198   8.896   6.420   8.952  1.6029 -3.2950 -2.1617
  898MOL0     H21199   9.042   6.336   8.963 -2.5566 -0.6493 -3.0802
  898MOL0     H21200   9.002   6.241   9.182 -1.3667  0.3502  2.0038
  898MOL0     H21201   8.846   6.258   9.104 -1.7445  2.5484  0.3545
  898MOL0     H21202   8.966   6.466   9.300  0.2954 -0.1222  1.4674
  898MOL0     H21203   8.804   6.471   9.233 -0.5354 -0.8771 -0.8934
  898MOL0     H21204   8.744   6.263   9.322 -1.6227  0.5977  1.4951
  898MOL0     H21205   8.780   6.386   9.450  1.9388  1.0870 -0.1009
  898MOL0     H21206   8.965   6.157   9.364 -0.6353 -0.2850 -0.0936
  898MOL0     H21207   9.012   6.285   9.471 -0.5228  1.4024 -2.4278
  898MOL0     H21208   8.952   6.079   9.596  0.8302  2.3296 -0.8567
  898MOL0     H21209   8.806   6.061   9.489  0.6033 -0.9354 -1.7814
  898MOL0     H21210   8.711   6.271   9.603  0.3725 -0.7663 -1.7100
  898MOL0     H21211   8.868   6.296   9.680  2.7986 -3.9962  4.5026
  898MOL0     H21212   9.149   6.787   9.151 -0.5315  0.7437  0.0467
  898MOL0     H21213   9.341   6.938   9.173  0.7880  1.0102 -0.7755
  898MOL0     H21214   9.658   7.177   8.985  0.3300  2.7942  0.0807
  898MOL0     H21215   9.856   7.309   8.942  0.0308  0.2613  0.7903
  898MOL0     H21216  10.512   8.575   8.873  0.1555 -1.1622  0.9048
  898MOL0     H21217  10.591   8.798   8.840 -2.8033 -1.2376  1.2861
  898MOL0     H21218  10.934   9.124   8.682 -0.7906 -1.7512 -0.1212
  898MOL0     H21219  10.936   9.366   8.643 -2.6763  2.3663  0.8524
  898MOL0     H21220  10.934   9.664   8.686  0.3227 -0.3697 -0.2008
  898MOL0     H21221  10.827   9.556   8.592  0.3885 -2.6997  1.3951
  898MOL0     H21222  10.646   9.712   8.745  0.0826 -2.0689 -0.0814
  898MOL0     H21223  10.679   9.721   8.576  0.6435 -6.2289 -0.3630
  898MOL0     H21224  10.697   9.939   8.712 -0.5770 -0.1918 -1.2428
  898MOL0     H21225  10.831   9.901   8.604  0.5659 -0.7453 -0.4385
  898MOL0     H21226  10.960   9.830   8.793  0.6461 -0.3567  0.5869
  898MOL0     H21227  10.836   9.890   8.914  1.5750  1.0068  0.5046
  898MOL0     H21228  10.944  10.253   8.708  2.5349 -0.4381  0.4892
  898MOL0     H21229  10.678   9.442   8.952 -0.0588  2.8071 -2.2923
  898MOL0     H21230  10.661   9.191   9.019 -1.0120  2.1692 -1.1395
  899MOL0     O21231   9.418   2.886   1.541  0.4241 -0.8115  0.0828
  899MOL0     C21232   9.414   3.007   1.513 -0.0211 -0.2693 -0.5374
  899MOL0     O21233   9.416   3.066   1.384 -0.3894  0.5820 -0.4146
  899MOL0     C21234   9.414   2.989   1.268  0.4972 -0.2494  0.2708
  899MOL0     C21235   9.332   3.053   1.171  0.0258 -0.1995  0.2706
  899MOL0     C21236   9.314   2.998   1.044 -0.7132 -0.0361  0.9205
  899MOL0     C21237   9.374   2.868   1.015 -0.4542 -0.3625  0.1003
  899MOL0     O21238   9.353   2.812   0.889 -0.0089  0.0704 -0.1006
  899MOL0     C21239   9.338   2.898   0.779  0.1694 -0.3285  0.7222
  899MOL0     C21240   9.356   2.804   0.658  0.5105  0.8109 -0.1335
  899MOL0     C21241   9.340   2.883   0.527 -0.2654  0.0451 -0.1200
  899MOL0     C21242   9.376   2.806   0.404  0.1019  0.4304  1.0030
  899MOL0     C21243   9.289   2.684   0.372  0.5443 -0.3751 -0.0887
  899MOL0     C21244   9.346   2.613   0.250 -0.8395  0.6353 -0.1509
  899MOL0     C21245   9.292   2.485   0.236  0.3291  0.5259 -0.6281
  899MOL0     C21246   9.338   2.425   0.103  0.6899 -0.1696 -0.3209
  899MOL0     N21247   9.287   2.284   0.092 -0.7361  0.6413 -0.7402
  899MOL0     C21248   9.357   2.162   0.102 -0.6850 -1.2230 -0.1246
  899MOL0     C21249   9.275   2.067   0.052  0.1498  0.7918  0.6024
  899MOL0     C21250   9.306   1.923   0.036 -0.5076 -0.2565 -0.0918
  899MOL0     C21251   9.334   1.857   0.177  0.1948 -0.1784  0.2990
  899MOL0     C21252   9.204   1.787   0.224 -1.0189 -0.1202 -0.5206
  899MOL0     C21253   9.218   1.758   0.378 -0.3994  0.7386 -0.4452
  899MOL0     O21254   9.336   1.682   0.399  0.8309  0.3879  0.0502
  899MOL0     C21255   9.323   1.571   0.478  0.2032 -0.2892  0.2987
  899MOL0     C21256   9.220   1.542   0.567  0.6753  0.8017  0.0591
  899MOL0     C21257   9.219   1.435   0.657  0.7806  0.6557 -0.8266
  899MOL0     C21258   9.105   1.427   0.753  0.0318 -0.5025 -0.5455
  899MOL0     C21259   9.331   1.336   0.648  0.4350 -0.5413  0.3133
  899MOL0     C21260   9.328   1.198   0.705  0.1517 -0.0749  0.0726
  899MOL0     O21261   9.422   1.116   0.654 -0.2234  0.1295 -0.0071
  899MOL0     C21262   9.441   0.983   0.695 -0.1216 -0.2712 -0.2334
  899MOL0     C21263   9.573   0.938   0.682  0.4773  0.0386  0.3334
  899MOL0     C21264   9.601   0.808   0.708  0.5041  0.8685  0.9186
  899MOL0     C21265   9.500   0.716   0.746 -0.1350 -0.9160  0.6459
  899MOL0     O21266   9.529   0.585   0.765  0.1865 -0.1736  0.0638
  899MOL0     C21267   9.436   0.477   0.761 -1.0187  0.9177 -0.6176
  899MOL0     C21268   9.511   0.350   0.807  0.6512  0.2274  0.9724
  899MOL0     C21269   9.592   0.293   0.689  0.3735  0.4168  0.5828
  899MOL0     C21270   9.514   0.215   0.588  0.0994 -0.0346  0.1985
  899MOL0     C21271   9.596   0.145   0.479  0.4172 -0.3354 -0.2412
  899MOL0     C21272   9.507   0.070   0.382 -0.3192 -0.6752  0.5497
  899MOL0     C21273   9.455  -0.073   0.401  0.0416 -0.6526 -0.7061
  899MOL0     C21274   9.387  -0.110   0.272  0.0671  0.2030 -0.0152
  899MOL0    Cl21275   9.521  -0.161   0.160 -0.4823  0.5519 -0.1658
  899MOL0     C21276   9.373   0.767   0.776 -0.9960  0.0679  1.0950
  899MOL0     C21277   9.344   0.900   0.758 -0.8216  0.6472  0.7221
  899MOL0     O21278   9.256   1.168   0.803  0.3481  0.6176 -0.1348
  899MOL0     C21279   9.435   1.368   0.550  0.2376  0.6769 -0.1509
  899MOL0     C21280   9.433   1.483   0.466  0.2479  0.2382 -0.5057
  899MOL0     N21281   9.164   2.123  -0.002  0.5061 -0.5280 -0.9409
  899MOL0     N21282   9.168   2.253   0.030  0.8908 -0.4272 -0.2727
  899MOL0     C21283   9.452   2.804   1.110  0.6120 -0.4725  0.3901
  899MOL0     C21284   9.471   2.857   1.240  0.2573 -0.1401  0.1208
  899MOL0     C21285   9.385   3.099   1.620 -1.2690 -0.1661 -0.2399
  899MOL0     C21286   9.309   3.212   1.602  1.1945 -0.3375  0.4608
  899MOL0     C21287   9.259   3.293   1.706  0.4316  0.0601  0.1549
  899MOL0     C21288   9.309   3.264   1.835 -0.5871  0.2566 -0.1148
  899MOL0     O21289   9.275   3.354   1.928  1.0173  0.1307 -1.1446
  899MOL0     C21290   9.387   3.428   1.972 -0.8310  1.1458 -0.5070
  899MOL0     C21291   9.424   3.554   1.880 -0.8908  0.1951  0.2950
  899MOL0     C21292   9.292   3.629   1.843 -1.0462  0.4174 -0.3222
  899MOL0     C21293   9.313   3.748   1.750  0.9173  0.3880  0.4937
  899MOL0     C21294   9.417   3.841   1.790 -0.6941  0.0701  0.2656
  899MOL0     C21295   9.512   3.909   1.834  1.2274 -0.2916  0.1615
  899MOL0     C21296   9.382   3.150   1.860 -0.5276  0.4889 -0.2988
  899MOL0     C21297   9.414   3.067   1.754  0.5198  0.0148  0.2752
  899MOL0     H21298   9.285   3.142   1.211 -1.0749 -0.6198 -0.0490
  899MOL0     H21299   9.258   3.053   0.969 -3.1073 -3.8350 -0.3545
  899MOL0     H21300   9.234   2.930   0.782 -0.6186 -2.4761 -0.9568
  899MOL0     H21301   9.412   2.978   0.788  0.2650 -0.4001  0.5811
  899MOL0     H21302   9.461   2.773   0.654 -0.1843 -1.6135 -1.0349
  899MOL0     H21303   9.293   2.715   0.665 -0.2114  1.3280  0.1704
  899MOL0     H21304   9.242   2.931   0.524  0.0639  0.7084 -2.2498
  899MOL0     H21305   9.412   2.964   0.540  0.2248 -0.6171  1.4536
  899MOL0     H21306   9.372   2.866   0.312  0.8394  1.3075  1.5238
  899MOL0     H21307   9.481   2.778   0.417  0.4779  0.5002 -1.3684
  899MOL0     H21308   9.293   2.612   0.454  0.3218 -0.7345 -0.3911
  899MOL0     H21309   9.185   2.714   0.358  0.3911 -0.2866  1.1685
  899MOL0     H21310   9.325   2.656   0.151 -3.2909  0.1882  0.1263
  899MOL0     H21311   9.455   2.612   0.262 -0.6289 -0.5010 -1.7807
  899MOL0     H21312   9.336   2.416   0.309  0.4211  0.0593 -1.1120
  899MOL0     H21313   9.185   2.489   0.260  0.7480  0.3428  1.3846
  899MOL0     H21314   9.447   2.423   0.094  0.7166  0.6840 -0.2556
  899MOL0     H21315   9.307   2.482   0.016  1.1157  0.2877 -0.1796
  899MOL0     H21316   9.461   2.143   0.126 -0.1575  0.5824 -0.8373
  899MOL0     H21317   9.226   1.865  -0.012 -0.3315 -1.5018  1.0388
  899MOL0     H21318   9.397   1.922  -0.024  0.7576 -2.5454  1.6915
  899MOL0     H21319   9.377   1.925   0.250  3.3367 -1.2004 -0.4644
  899MOL0     H21320   9.397   1.769   0.163 -0.1276 -0.2790 -0.6430
  899MOL0     H21321   9.202   1.684   0.186  1.5555 -0.5047  0.1578
  899MOL0     H21322   9.121   1.844   0.183 -0.9109  0.7430  0.4044
  899MOL0     H21323   9.130   1.702   0.409  1.9080 -2.3518  1.1582
  899MOL0     H21324   9.226   1.838   0.452  1.7239 -0.3387  0.5822
  899MOL0     H21325   9.149   1.620   0.591  0.2985  0.4147  0.2319
  899MOL0     H21326   9.059   1.329   0.742 -2.2507  0.5591 -1.1447
  899MOL0     H21327   9.144   1.442   0.854  2.9220 -4.4804 -0.8274
  899MOL0     H21328   9.026   1.502   0.737  1.9439  1.5285 -0.9508
  899MOL0     H21329   9.653   0.998   0.639 -0.0370 -0.7793 -1.9389
  899MOL0     H21330   9.702   0.770   0.699 -0.5355 -1.5954 -3.6945
  899MOL0     H21331   9.356   0.491   0.835  0.0329 -1.4621  1.0886
  899MOL0     H21332   9.393   0.454   0.663 -1.7473  1.9921 -0.5740
  899MOL0     H21333   9.583   0.372   0.886 -0.4782  2.0387  1.5569
  899MOL0     H21334   9.434   0.279   0.840  0.5152  0.2943  0.8046
  899MOL0     H21335   9.654   0.226   0.749  0.9226  0.8478  0.4995
  899MOL0     H21336   9.657   0.368   0.644  0.2888 -0.0120 -0.2611
  899MOL0     H21337   9.440   0.147   0.631  1.5206 -0.8846  1.3975
  899MOL0     H21338   9.445   0.283   0.537  2.2399  0.8126 -1.7313
  899MOL0     H21339   9.674   0.091   0.533 -0.0011  0.1525  0.8868
  899MOL0     H21340   9.652   0.217   0.419  1.4463 -1.1584 -0.2873
  899MOL0     H21341   9.425   0.137   0.356  1.2544  1.2486  0.3546
  899MOL0     H21342   9.564   0.060   0.289  0.3406 -1.4689  1.0246
  899MOL0     H21343   9.371  -0.066   0.471  0.5730  0.8470 -0.1744
  899MOL0     H21344   9.536  -0.134   0.441 -0.9647 -0.2375  2.1937
  899MOL0     H21345   9.343  -0.027   0.214  1.0885 -1.8417 -4.1247
  899MOL0     H21346   9.316  -0.193   0.274  0.3131 -0.0334 -0.7214
  899MOL0     H21347   9.293   0.705   0.815 -0.1891 -0.3164  2.1922
  899MOL0     H21348   9.244   0.926   0.792 -1.3038  0.2310 -0.3284
  899MOL0     H21349   9.522   1.305   0.533  0.9144  1.6538 -0.4175
  899MOL0     H21350   9.515   1.497   0.396  0.1478  1.2829 -0.4290
  899MOL0     H21351   9.501   2.709   1.091  0.1332 -0.7055  0.3042
  899MOL0     H21352   9.529   2.809   1.318  1.6514 -1.1009 -1.4295
  899MOL0     H21353   9.290   3.264   1.509  0.8473 -0.6031  0.3824
  899MOL0     H21354   9.205   3.388   1.705  0.7451  0.2420 -1.0303
  899MOL0     H21355   9.367   3.461   2.074  0.9938  1.8999 -0.3560
  899MOL0     H21356   9.471   3.357   1.974 -3.1971 -1.8540 -0.3156
  899MOL0     H21357   9.471   3.511   1.791 -0.6809 -4.0636  2.2039
  899MOL0     H21358   9.496   3.614   1.936  1.4358 -0.2221 -2.0024
  899MOL0     H21359   9.281   3.666   1.945 -0.2137 -1.8844  0.6620
  899MOL0     H21360   9.211   3.560   1.822  0.0821 -0.9795 -0.2223
  899MOL0     H21361   9.221   3.806   1.761  1.4498  1.0781  1.4383
  899MOL0     H21362   9.313   3.723   1.644 -0.2784 -0.7819  0.7506
  899MOL0     H21363   9.597   3.964   1.869  2.4879 -2.4001  0.5323
  899MOL0     H21364   9.428   3.124   1.954  0.2493 -2.7765 -1.4321
  899MOL0     H21365   9.463   2.972   1.774  0.9250 -0.1241 -1.2658
  900MOL0     O21366   1.352  10.087  10.734  0.9786 -0.7680  0.1613
  900MOL0     C21367   1.265  10.074  10.812  0.1138  0.1393  0.3275
  900MOL0     O21368   1.137  10.041  10.783  0.6523  0.3684  0.2031
  900MOL0     C21369   1.088  10.025  10.659 -0.4676  0.1065  0.8036
  900MOL0     C21370   1.144  10.087  10.541  0.4738  0.0759  0.0140
  900MOL0     C21371   1.067  10.058  10.420  0.4593  0.1422 -0.2818
  900MOL0     C21372   0.958   9.976  10.415 -0.1791  0.2883 -0.3618
  900MOL0     O21373   0.909   9.937  10.295  0.3623  0.0671 -0.5081
  900MOL0     C21374   0.819   9.823  10.278 -0.5091  0.6588  0.7319
  900MOL0     C21375   0.805   9.773  10.139 -0.0798  0.6217  0.3393
  900MOL0     C21376   0.702   9.657  10.106  0.3948  0.0159  0.0183
  900MOL0     C21377   0.697   9.625   9.959  0.5299 -0.1057  0.4158
  900MOL0     C21378   0.589   9.708   9.892  0.2214  0.3396  0.4985
  900MOL0     C21379   0.611   9.710   9.739 -0.6067  0.1971 -1.2958
  900MOL0     C21380   0.565   9.580   9.672  0.3347  0.8685  0.5835
  900MOL0     C21381   0.578   9.594   9.519  0.2657  0.5567 -0.4153
  900MOL0     N21382   0.531   9.461   9.476  0.4580 -0.1883 -0.2448
  900MOL0     C21383   0.411   9.397   9.511 -0.9955 -0.1435  0.2344
  900MOL0     C21384   0.412   9.271   9.470 -0.4562  0.6642 -0.2671
  900MOL0     C21385   0.302   9.174   9.474  0.2631 -1.1446  0.1886
  900MOL0     C21386   0.190   9.208   9.377  1.2137  0.6051 -0.1721
  900MOL0     C21387   0.088   9.096   9.359  0.1191 -0.5973 -0.7175
  900MOL0     C21388   0.025   9.064   9.490  0.3035  0.8863  0.1847
  900MOL0     O21389  -0.102   8.992   9.471 -0.1775 -0.3458 -0.3904
  900MOL0     C21390  -0.209   9.072   9.440 -0.7390 -0.1677  0.9385
  900MOL0     C21391  -0.332   9.011   9.414 -0.0219  0.1721 -0.6329
  900MOL0     C21392  -0.457   9.083   9.394  1.3320  0.4742  0.6522
  900MOL0     C21393  -0.588   9.005   9.369 -0.0863 -0.3790 -0.2297
  900MOL0     C21394  -0.449   9.225   9.391 -0.1665 -0.1093  0.3112
  900MOL0     C21395  -0.561   9.303   9.354 -0.2729 -0.6719 -0.0095
  900MOL0     O21396  -0.571   9.424   9.416  0.2885  0.0613  0.6285
  900MOL0     C21397  -0.636   9.534   9.379 -0.1924 -0.2040 -1.2534
  900MOL0     C21398  -0.666   9.573   9.244 -0.5082 -0.3134 -0.4051
  900MOL0     C21399  -0.711   9.706   9.213 -0.5029 -0.3497 -0.0771
  900MOL0     C21400  -0.740   9.786   9.318  0.1671  0.0354  0.7278
  900MOL0     O21401  -0.773   9.908   9.267 -0.5422 -0.3737 -0.5743
  900MOL0     C21402  -0.785  10.024   9.350 -0.4261  1.1869  0.6215
  900MOL0     C21403  -0.817  10.144   9.276 -0.6167 -0.8871  0.2315
  900MOL0     C21404  -0.790  10.268   9.353 -0.0177 -0.3605  0.4312
  900MOL0     C21405  -0.846  10.379   9.269 -0.6249 -0.7074 -1.0072
  900MOL0     C21406  -0.803  10.514   9.317 -0.5525  0.6575  0.7405
  900MOL0     C21407  -0.875  10.624   9.242 -0.3683 -0.2299  0.9619
  900MOL0     C21408  -0.933  10.718   9.347 -0.3926  0.1942 -0.9210
  900MOL0     C21409  -1.033  10.818   9.292  1.1105 -0.9798  0.7339
  900MOL0    Cl21410  -1.093  10.930   9.420  0.1310 -0.2428  0.3494
  900MOL0     C21411  -0.728   9.746   9.453 -0.7317  0.0987 -0.6224
  900MOL0     C21412  -0.678   9.620   9.486  0.5593 -0.5721  0.4065
  900MOL0     O21413  -0.627   9.270   9.253  0.6290  0.0099  0.0064
  900MOL0     C21414  -0.324   9.283   9.386  0.0349 -0.2404  0.1625
  900MOL0     C21415  -0.211   9.217   9.427  0.0684  0.3957  0.4272
  900MOL0     N21416   0.532   9.246   9.410 -0.7289  0.0306  0.2421
  900MOL0     N21417   0.605   9.359   9.416  0.2325 -0.4545  0.4257
  900MOL0     C21418   0.910   9.922  10.533  0.1681  0.3382  0.5326
  900MOL0     C21419   0.973   9.955  10.650  0.2479  0.1085 -0.8129
  900MOL0     C21420   1.305  10.085  10.954 -0.2847 -0.6885 -0.0424
  900MOL0     C21421   1.215  10.048  11.058 -0.6037 -0.6150  0.4325
  900MOL0     C21422   1.251  10.066  11.201 -0.1112 -0.1137  0.2206
  900MOL0     C21423   1.377  10.109  11.237  0.0643  1.6364 -0.6307
  900MOL0     O21424   1.415  10.113  11.372 -0.0273 -1.0477  0.0426
  900MOL0     C21425   1.547  10.140  11.409  0.0849  0.2476 -0.2976
  900MOL0     C21426   1.647  10.031  11.384 -0.0288 -0.4169  0.0057
  900MOL0     C21427   1.788  10.076  11.397 -0.0568 -0.3921  0.2957
  900MOL0     C21428   1.814  10.161  11.523  1.2306 -0.0983 -0.0023
  900MOL0     C21429   1.750  10.100  11.645 -0.8413  0.2279 -0.1291
  900MOL0     C21430   1.709  10.052  11.747  0.1354  0.5895  0.4577
  900MOL0     C21431   1.461  10.139  11.130  0.5460  0.3624  0.3866
  900MOL0     C21432   1.428  10.129  10.994 -0.1767 -0.1411 -0.6860
  900MOL0     H21433   1.238  10.140  10.533  0.4585  0.4843  1.8974
  900MOL0     H21434   1.097  10.094  10.322  1.9985  3.6547  1.2911
  900MOL0     H21435   0.846   9.737  10.340 -0.5019 -0.5803 -0.9324
  900MOL0     H21436   0.720   9.862  10.305 -0.7348 -0.5523  1.7475
  900MOL0     H21437   0.773   9.857  10.076  0.9146  0.8615  0.1424
  900MOL0     H21438   0.904   9.756  10.095 -0.3796 -1.8712  0.4709
  900MOL0     H21439   0.743   9.575  10.165 -0.3679 -0.1424  0.3346
  900MOL0     H21440   0.604   9.685  10.145  0.8357  0.0033  1.1905
  900MOL0     H21441   0.795   9.642   9.912  0.9450 -1.4800  0.7570
  900MOL0     H21442   0.673   9.519   9.949  1.7588 -0.5212  1.6954
  900MOL0     H21443   0.492   9.676   9.929  0.3568  2.1910  2.7204
  900MOL0     H21444   0.606   9.812   9.922 -1.8161  1.2835 -1.3407
  900MOL0     H21445   0.535   9.784   9.714 -2.0234 -0.7531 -0.0284
  900MOL0     H21446   0.713   9.741   9.713 -0.7327  2.0054  0.1781
  900MOL0     H21447   0.621   9.488   9.692  0.7535  1.1495  0.7144
  900MOL0     H21448   0.459   9.563   9.692  0.8795 -2.6145  1.2632
  900MOL0     H21449   0.684   9.599   9.494  0.6501  0.0684  1.0529
  900MOL0     H21450   0.523   9.683   9.486  0.0620  0.4430 -0.3804
  900MOL0     H21451   0.323   9.435   9.561 -1.9578 -2.1154  0.1180
  900MOL0     H21452   0.348   9.077   9.452 -1.5407 -1.8218 -0.8535
  900MOL0     H21453   0.269   9.177   9.578  1.5967 -2.9283  0.7169
  900MOL0     H21454   0.232   9.226   9.278  0.5890  0.7849 -0.4094
  900MOL0     H21455   0.144   9.300   9.414 -2.1701  0.2866 -3.1001
  900MOL0     H21456   0.139   9.015   9.307  0.5889  0.0535 -1.2784
  900MOL0     H21457   0.016   9.142   9.292  0.2505 -2.4159 -2.1818
  900MOL0     H21458   0.015   9.146   9.561 -1.6015 -2.4933  4.2443
  900MOL0     H21459   0.087   8.992   9.545 -3.1502 -2.2180  0.3412
  900MOL0     H21460  -0.330   8.903   9.419  1.6448  0.0755 -2.3117
  900MOL0     H21461  -0.624   9.020   9.266 -2.0516 -1.5688  0.2258
  900MOL0     H21462  -0.592   8.897   9.379 -3.1463 -0.5538 -1.9784
  900MOL0     H21463  -0.671   9.035   9.434  0.0027  1.7788 -1.0276
  900MOL0     H21464  -0.629   9.519   9.158  1.6680  0.6559 -0.1320
  900MOL0     H21465  -0.738   9.726   9.110 -2.9798  0.3975  0.6446
  900MOL0     H21466  -0.859  10.000   9.427 -0.3415 -0.2657  0.2739
  900MOL0     H21467  -0.684  10.042   9.390  0.4209  3.2294 -2.1626
  900MOL0     H21468  -0.747  10.151   9.192 -0.5889  1.6929  0.4110
  900MOL0     H21469  -0.921  10.139   9.241 -0.7079 -2.1423  0.6238
  900MOL0     H21470  -0.683  10.289   9.353 -0.4848  2.3781 -0.3506
  900MOL0     H21471  -0.831  10.260   9.454 -3.2265 -1.9640 -0.8534
  900MOL0     H21472  -0.827  10.359   9.163  1.1140 -2.9012 -0.3533
  900MOL0     H21473  -0.955  10.395   9.271 -0.4073  1.0287 -1.0897
  900MOL0     H21474  -0.699  10.517   9.283 -1.4691 -2.6128 -3.1203
  900MOL0     H21475  -0.820  10.512   9.425 -3.3839 -2.5657  0.3939
  900MOL0     H21476  -0.809  10.684   9.180  0.2204 -1.1096  0.7219
  900MOL0     H21477  -0.945  10.586   9.167 -0.3185 -0.8546  1.2232
  900MOL0     H21478  -0.858  10.770   9.407 -4.4094  1.3401  3.7664
  900MOL0     H21479  -0.985  10.655   9.419  2.5172 -0.3611  0.8780
  900MOL0     H21480  -1.121  10.765   9.256  1.1222  0.1659 -1.0751
  900MOL0     H21481  -0.996  10.867   9.202 -1.0018  0.5540  0.6359
  900MOL0     H21482  -0.742   9.805   9.542 -1.4453  1.0951 -1.3724
  900MOL0     H21483  -0.652   9.592   9.588  3.3301 -1.2283 -0.3950
  900MOL0     H21484  -0.314   9.385   9.350  2.3663 -0.5669 -0.2473
  900MOL0     H21485  -0.128   9.282   9.451 -1.0296  1.3846  1.7318
  900MOL0     H21486   0.816   9.870  10.523 -0.2634  1.3873 -1.3121
  900MOL0     H21487   0.930   9.938  10.748  1.6484  1.2947  0.0433
  900MOL0     H21488   1.115  10.012  11.037  0.0455 -0.9397 -2.4401
  900MOL0     H21489   1.183  10.027  11.275  1.8647 -3.4767  0.4779
  900MOL0     H21490   1.582  10.236  11.373  1.6208 -0.6082 -1.1699
  900MOL0     H21491   1.541  10.163  11.516 -1.3888  2.0503 -0.7212
  900MOL0     H21492   1.633   9.995  11.281  0.4606 -0.2866 -0.1116
  900MOL0     H21493   1.633   9.948  11.453 -1.2056 -0.0467  0.2225
  900MOL0     H21494   1.825  10.138  11.314  1.8489  1.3462  2.2960
  900MOL0     H21495   1.853   9.989  11.397 -2.4316 -2.2622  0.0502
  900MOL0     H21496   1.780  10.264  11.508  0.1642 -0.0367  2.3423
  900MOL0     H21497   1.920  10.170  11.546  1.8016 -0.8781 -2.0731
  900MOL0     H21498   1.659  10.016  11.835 -0.0436 -0.5436 -0.0906
  900MOL0     H21499   1.565  10.158  11.153  0.9902 -1.9818  0.5959
  900MOL0     H21500   1.502  10.155  10.919  1.3198 -0.0829  0.7546
  901MOL0     O21501   7.723   6.354   6.353 -0.3111  0.4608 -0.0543
  901MOL0     C21502   7.712   6.375   6.476  0.4082 -0.2029 -0.4087
  901MOL0     O21503   7.791   6.467   6.545  0.2394  0.2896 -0.5291
  901MOL0     C21504   7.886   6.543   6.473  0.0111 -0.4770  0.2620
  901MOL0     C21505   8.022   6.553   6.504 -0.2727  0.0773  0.1355
  901MOL0     C21506   8.112   6.640   6.438  0.4359  0.0203  0.0936
  901MOL0     C21507   8.063   6.706   6.327 -0.5896 -0.0581  0.6724
  901MOL0     O21508   8.146   6.786   6.236  0.9250  0.7110  0.2242
  901MOL0     C21509   8.268   6.830   6.297 -0.6365  0.8213  0.0965
  901MOL0     C21510   8.387   6.745   6.244 -0.3928  0.3314 -0.4424
  901MOL0     C21511   8.514   6.802   6.300  0.2971 -0.2785  0.6645
  901MOL0     C21512   8.522   6.773   6.447  0.4682  0.0060 -0.3502
  901MOL0     C21513   8.639   6.852   6.516  0.5890  0.6472 -0.7894
  901MOL0     C21514   8.762   6.762   6.506  0.2796  0.1325  0.0987
  901MOL0     C21515   8.889   6.822   6.579 -0.2350  0.1279  1.2374
  901MOL0     C21516   9.002   6.724   6.545 -0.2368  0.0686  0.5552
  901MOL0     N21517   9.013   6.620   6.639 -0.7677 -0.1019 -1.1455
  901MOL0     C21518   9.122   6.606   6.729 -1.0005 -0.7857  0.4833
  901MOL0     C21519   9.086   6.504   6.808 -0.3526 -0.4462 -0.1531
  901MOL0     C21520   9.172   6.426   6.907 -0.2664 -0.3661  0.0815
  901MOL0     C21521   9.298   6.360   6.846  0.1916 -0.6425 -0.7321
  901MOL0     C21522   9.380   6.279   6.950  0.4256  0.4405 -0.6132
  901MOL0     C21523   9.428   6.365   7.070 -0.5690  0.4745  0.8416
  901MOL0     O21524   9.486   6.492   7.035  0.9036  0.4915  0.8283
  901MOL0     C21525   9.521   6.576   7.135 -1.0058 -0.0920  0.2077
  901MOL0     C21526   9.531   6.712   7.115  0.4274  0.7539  0.6000
  901MOL0     C21527   9.567   6.799   7.219 -0.2721 -0.8985  0.8928
  901MOL0     C21528   9.579   6.950   7.191  0.0282  0.4938 -0.0843
  901MOL0     C21529   9.594   6.751   7.353  0.2690  0.2758  0.6492
  901MOL0     C21530   9.653   6.821   7.466  0.1168 -0.6135 -0.0783
  901MOL0     O21531   9.642   6.749   7.586 -0.2593 -0.0491  0.5442
  901MOL0     C21532   9.716   6.783   7.692  0.5048  0.6365  0.1197
  901MOL0     C21533   9.642   6.770   7.807  0.5549 -0.6010 -0.2039
  901MOL0     C21534   9.703   6.782   7.940  0.7367 -0.4378 -0.4665
  901MOL0     C21535   9.838   6.820   7.947 -0.9273  0.5254 -0.0664
  901MOL0     O21536   9.887   6.854   8.077 -0.4294  0.3048 -0.1265
  901MOL0     C21537  10.025   6.898   8.094  0.3864 -0.6887 -1.3231
  901MOL0     C21538  10.033   6.937   8.241 -0.1292  0.5427  0.1103
  901MOL0     C21539   9.979   7.081   8.264 -0.0892 -0.5422 -0.5957
  901MOL0     C21540  10.040   7.151   8.388 -0.2871  0.0451 -0.5507
  901MOL0     C21541   9.991   7.082   8.513  0.3659 -0.3798 -0.4131
  901MOL0     C21542   9.860   7.136   8.570  0.4226  0.3853 -0.1155
  901MOL0     C21543   9.804   7.079   8.705  0.3056  0.1297  0.3699
  901MOL0     C21544   9.663   7.111   8.709  1.7929  0.5720 -0.2230
  901MOL0    Cl21545   9.635   7.293   8.709 -0.0162  0.0272  0.3951
  901MOL0     C21546   9.909   6.824   7.827  0.2839 -0.4563  0.0324
  901MOL0     C21547   9.852   6.806   7.703 -0.1711 -1.1922  0.5117
  901MOL0     O21548   9.728   6.924   7.455  0.6119  0.5273  0.6156
  901MOL0     C21549   9.591   6.612   7.366 -0.1373 -0.8585  0.4407
  901MOL0     C21550   9.549   6.529   7.266 -0.0666  0.0524  1.2027
  901MOL0     N21551   8.957   6.465   6.773 -0.4255  0.1454  0.4459
  901MOL0     N21552   8.920   6.528   6.669 -0.2289 -1.4964  1.0220
  901MOL0     C21553   7.925   6.704   6.305 -0.9684  0.5587  1.1555
  901MOL0     C21554   7.844   6.627   6.376  0.3690  0.2972  0.4192
  901MOL0     C21555   7.604   6.311   6.552  0.2963  0.1163  0.1041
  901MOL0     C21556   7.512   6.233   6.493 -0.0998  1.1094 -0.8531
  901MOL0     C21557   7.419   6.157   6.569  0.0741 -0.8351  0.8164
  901MOL0     C21558   7.419   6.164   6.710  0.5754  0.2983  0.1308
  901MOL0     O21559   7.314   6.093   6.768  0.7373  0.3597  0.1387
  901MOL0     C21560   7.317   6.069   6.910 -0.8458 -0.2540 -0.4788
  901MOL0     C21561   7.289   5.923   6.949  0.3507  0.6682 -0.6116
  901MOL0     C21562   7.396   5.817   6.895  0.3345  0.0110 -1.2732
  901MOL0     C21563   7.338   5.687   6.861 -0.5076  0.3343  0.1008
  901MOL0     C21564   7.445   5.585   6.830 -0.0731 -0.2359 -0.2617
  901MOL0     C21565   7.538   5.521   6.787  0.0245 -0.6583  0.1476
  901MOL0     C21566   7.518   6.245   6.771  0.2156  0.0360 -0.7822
  901MOL0     C21567   7.598   6.327   6.694 -0.0865  0.2257  0.5002
  901MOL0     H21568   8.035   6.488   6.590  0.5224  0.3058  0.1924
  901MOL0     H21569   8.219   6.623   6.444  0.2757 -0.7378  0.9943
  901MOL0     H21570   8.280   6.931   6.257  1.3712  0.0354 -1.4497
  901MOL0     H21571   8.269   6.840   6.406 -3.6054 -0.4458  0.3224
  901MOL0     H21572   8.364   6.640   6.263 -0.8399  0.2326 -1.4880
  901MOL0     H21573   8.392   6.754   6.135  1.6074 -1.1437 -0.5458
  901MOL0     H21574   8.610   6.785   6.250 -0.2107  0.6200 -0.6604
  901MOL0     H21575   8.495   6.909   6.292 -0.3991 -0.5073 -1.2558
  901MOL0     H21576   8.439   6.795   6.516 -0.4539  0.5048 -1.5785
  901MOL0     H21577   8.537   6.665   6.457 -2.7253 -0.5574 -0.5920
  901MOL0     H21578   8.660   6.953   6.481 -0.6931  1.5070  0.7944
  901MOL0     H21579   8.611   6.848   6.621 -1.4371 -2.4031 -1.3181
  901MOL0     H21580   8.748   6.667   6.558 -0.8909  0.0588 -0.3129
  901MOL0     H21581   8.778   6.741   6.400 -2.5327  0.6799 -0.5248
  901MOL0     H21582   8.913   6.921   6.540  0.8488 -0.9353 -0.9903
  901MOL0     H21583   8.880   6.833   6.687  1.6740 -2.0549  1.6916
  901MOL0     H21584   9.091   6.787   6.547  0.7335 -1.2711  0.5944
  901MOL0     H21585   8.993   6.680   6.445 -0.0154 -2.1823  1.4598
  901MOL0     H21586   9.222   6.649   6.732 -0.0959 -2.3910 -2.5625
  901MOL0     H21587   9.203   6.491   6.990 -2.1220  0.7193 -0.0146
  901MOL0     H21588   9.116   6.348   6.958  1.1619 -0.2551  1.9068
  901MOL0     H21589   9.358   6.441   6.803 -1.0006  0.3888 -0.5176
  901MOL0     H21590   9.266   6.299   6.761  0.1466 -0.2702 -0.9828
  901MOL0     H21591   9.477   6.248   6.910 -0.7558 -3.3704 -0.8429
  901MOL0     H21592   9.312   6.196   6.973 -0.6697  0.1258 -4.3710
  901MOL0     H21593   9.513   6.310   7.110  0.1543 -0.1269 -1.3554
  901MOL0     H21594   9.347   6.376   7.143  0.7176 -2.7069  2.9398
  901MOL0     H21595   9.501   6.747   7.017 -4.0700 -2.8104  0.3636
  901MOL0     H21596   9.678   6.987   7.162  0.2047  0.6069  0.6488
  901MOL0     H21597   9.525   6.974   7.099 -2.4201 -1.5948  0.6697
  901MOL0     H21598   9.539   7.009   7.273  0.3356  1.3725 -0.5588
  901MOL0     H21599   9.538   6.748   7.785  0.7632 -0.5989 -1.2455
  901MOL0     H21600   9.641   6.760   8.026 -0.9547 -2.3005 -2.0735
  901MOL0     H21601  10.097   6.819   8.073 -0.1549 -2.0034  1.3802
  901MOL0     H21602  10.054   6.983   8.032  2.3797 -0.2657  0.0722
  901MOL0     H21603   9.970   6.862   8.289  0.2992 -1.1119 -1.7557
  901MOL0     H21604  10.139   6.932   8.268 -0.2477  2.2200  1.0281
  901MOL0     H21605   9.871   7.079   8.277  0.0661  0.9358  1.2353
  901MOL0     H21606  10.008   7.150   8.184 -1.8567  0.6613 -0.2514
  901MOL0     H21607  10.149   7.152   8.383 -0.1174 -3.1084  0.4560
  901MOL0     H21608  10.013   7.256   8.401 -1.7162 -0.4096  0.4552
  901MOL0     H21609  10.067   7.088   8.592 -0.7714  1.0613  0.6426
  901MOL0     H21610   9.972   6.975   8.499 -1.8533  0.0780 -1.3538
  901MOL0     H21611   9.873   7.243   8.589  0.1397  0.3702  0.1716
  901MOL0     H21612   9.782   7.131   8.493  0.5738 -1.7021 -0.1705
  901MOL0     H21613   9.874   7.120   8.777  2.9565  0.0885 -2.0201
  901MOL0     H21614   9.825   6.972   8.718 -0.3281 -0.4438 -2.4541
  901MOL0     H21615   9.621   7.061   8.797  0.9583 -0.6265 -1.2721
  901MOL0     H21616   9.608   7.065   8.627  2.1610 -0.9519  0.3580
  901MOL0     H21617  10.015   6.844   7.824  0.2854 -0.4170  0.3662
  901MOL0     H21618   9.925   6.792   7.623  0.2117 -0.4371  0.7185
  901MOL0     H21619   9.616   6.562   7.458 -2.3021 -1.1348  0.9319
  901MOL0     H21620   9.555   6.421   7.283  0.1942 -0.0789  0.3151
  901MOL0     H21621   7.897   6.768   6.222  2.9859  2.1758  0.8858
  901MOL0     H21622   7.740   6.634   6.349  0.9094  2.5984 -1.4221
  901MOL0     H21623   7.513   6.205   6.388  0.0337 -1.2514 -0.2807
  901MOL0     H21624   7.359   6.088   6.511  2.5033 -1.7493 -0.7907
  901MOL0     H21625   7.409   6.108   6.952  0.4478 -2.3264 -1.2029
  901MOL0     H21626   7.241   6.134   6.953  1.3513  2.5429 -0.5719
  901MOL0     H21627   7.191   5.892   6.910 -0.7028  0.4336  1.9935
  901MOL0     H21628   7.271   5.912   7.056 -2.9309  1.4130 -0.9647
  901MOL0     H21629   7.475   5.817   6.971  2.0335  1.1581 -2.9310
  901MOL0     H21630   7.441   5.859   6.804 -0.0815  1.5409 -0.8021
  901MOL0     H21631   7.284   5.696   6.766  1.3942 -1.1374 -1.2016
  901MOL0     H21632   7.270   5.651   6.939 -2.8188  1.9984 -0.9920
  901MOL0     H21633   7.626   5.463   6.766 -0.8323 -1.9881  0.0910
  901MOL0     H21634   7.529   6.262   6.878  0.5380 -2.0803 -0.4199
  901MOL0     H21635   7.660   6.400   6.745 -0.7739  1.4138 -0.3107
  902MOL0     O21636   2.951   9.800   8.177  0.8044  0.4394  0.0104
  902MOL0     C21637   3.049   9.740   8.194 -0.4599  0.5777 -0.3791
  902MOL0     O21638   3.167   9.754   8.143 -0.7313  1.1789 -0.4839
  902MOL0     C21639   3.163   9.854   8.051  0.1014 -0.5875 -0.6158
  902MOL0     C21640   3.130   9.824   7.920  0.1326  1.2376  0.5549
  902MOL0     C21641   3.162   9.908   7.821  0.3915 -0.2494 -0.3987
  902MOL0     C21642   3.222  10.036   7.845  0.0231 -0.9517  0.8200
  902MOL0     O21643   3.221  10.127   7.743 -0.1667 -0.0329 -0.8096
  902MOL0     C21644   3.275  10.257   7.782  0.0828  0.7123  0.2486
  902MOL0     C21645   3.279  10.357   7.668 -0.9172  0.3392  0.0086
  902MOL0     C21646   3.318  10.495   7.701 -0.5814  0.8954  0.8396
  902MOL0     C21647   3.340  10.564   7.563  0.3203  0.3976 -0.0101
  902MOL0     C21648   3.362  10.710   7.587 -0.3500 -0.5414  0.1780
  902MOL0     C21649   3.232  10.779   7.615 -0.2358 -0.0984 -0.5041
  902MOL0     C21650   3.240  10.926   7.660 -0.1489 -0.5789 -0.1836
  902MOL0     C21651   3.305  11.010   7.549 -0.7564  0.3646 -0.1839
  902MOL0     N21652   3.292  11.147   7.582 -0.1224 -0.6367 -0.0382
  902MOL0     C21653   3.371  11.210   7.674 -0.3985  0.4165 -0.3691
  902MOL0     C21654   3.307  11.322   7.710 -0.3911  0.8124  0.1332
  902MOL0     C21655   3.346  11.428   7.803  0.7184 -0.5644  0.2669
  902MOL0     C21656   3.388  11.375   7.935  1.0465 -0.3270 -0.1089
  902MOL0     C21657   3.464  11.480   8.016  0.8049  0.5783 -0.6444
  902MOL0     C21658   3.519  11.410   8.149  0.3723  0.5288  0.1898
  902MOL0     O21659   3.400  11.402   8.235  0.1017 -0.1375  0.2447
  902MOL0     C21660   3.340  11.287   8.269  0.1446 -1.0153  0.2022
  902MOL0     C21661   3.411  11.179   8.318  0.8936 -0.0825 -0.6523
  902MOL0     C21662   3.348  11.067   8.363 -0.6306  0.1972  0.0287
  902MOL0     C21663   3.440  10.948   8.397  0.7894  0.0340  0.6028
  902MOL0     C21664   3.212  11.073   8.377 -0.5662  0.0779 -0.9836
  902MOL0     C21665   3.145  10.968   8.456  0.6036  0.8302  0.4458
  902MOL0     O21666   3.005  10.974   8.462  0.0965 -0.3773 -0.1516
  902MOL0     C21667   2.938  10.869   8.510 -0.0934 -0.1800  0.3912
  902MOL0     C21668   2.851  10.862   8.616  0.2131  0.1516 -0.0637
  902MOL0     C21669   2.790  10.750   8.668  1.4962  0.0883  0.7001
  902MOL0     C21670   2.792  10.640   8.577 -0.3025 -0.4624  0.3012
  902MOL0     O21671   2.727  10.522   8.601  0.2267  0.1950  0.3085
  902MOL0     C21672   2.808  10.426   8.673 -1.1302 -0.0368  0.3388
  902MOL0     C21673   2.720  10.328   8.761  0.2562 -0.3001  0.5907
  902MOL0     C21674   2.603  10.260   8.679  0.7490 -0.2646 -1.0809
  902MOL0     C21675   2.531  10.134   8.755  0.1479  0.7613 -0.3529
  902MOL0     C21676   2.415  10.075   8.677  0.6314  0.4359 -0.2247
  902MOL0     C21677   2.449   9.944   8.602 -0.3655  0.4949 -0.3291
  902MOL0     C21678   2.455   9.824   8.686 -0.5294 -0.0501  0.0232
  902MOL0     C21679   2.517   9.709   8.606  0.6388 -0.4987 -0.3145
  902MOL0    Cl21680   2.522   9.571   8.706  0.4110  0.1968  0.1550
  902MOL0     C21681   2.888  10.639   8.479  0.4528 -0.2395  0.2485
  902MOL0     C21682   2.956  10.755   8.442  0.4083  0.1214 -0.3571
  902MOL0     O21683   3.208  10.894   8.521 -0.7889  0.0142 -0.5583
  902MOL0     C21684   3.141  11.179   8.329 -0.6416 -0.1214  0.2127
  902MOL0     C21685   3.201  11.282   8.275  0.4853 -0.2683 -0.0396
  902MOL0     N21686   3.196  11.333   7.633  0.1752  0.2000 -0.3121
  902MOL0     N21687   3.181  11.228   7.565  0.1945  0.1763  0.3776
  902MOL0     C21688   3.253  10.071   7.979 -0.1515 -0.0109  0.3226
  902MOL0     C21689   3.226   9.976   8.080  0.9233 -0.4558  0.4735
  902MOL0     C21690   3.031   9.631   8.295 -0.2763 -0.2869  0.2474
  902MOL0     C21691   3.131   9.534   8.307  0.0656  0.2032 -0.3731
  902MOL0     C21692   3.116   9.433   8.398  0.3244 -0.3802  0.5370
  902MOL0     C21693   3.000   9.425   8.486  0.7176  0.2064 -0.5957
  902MOL0     O21694   2.966   9.314   8.568 -1.1201  0.1993  0.2954
  902MOL0     C21695   3.075   9.237   8.614 -0.0165  0.3727  0.1889
  902MOL0     C21696   3.026   9.127   8.712  0.3999  0.3474  0.8624
  902MOL0     C21697   3.003   9.167   8.852 -0.4751  0.6674  0.5995
  902MOL0     C21698   3.126   9.182   8.939 -0.3351  0.2305  1.2336
  902MOL0     C21699   3.079   9.176   9.076  0.7772  0.8703  0.4039
  902MOL0     C21700   3.028   9.186   9.182  0.1253 -0.0720 -0.4535
  902MOL0     C21701   2.906   9.530   8.478 -0.8615  0.4591 -0.7194
  902MOL0     C21702   2.924   9.636   8.394 -0.1036  0.4010  0.1068
  902MOL0     H21703   3.082   9.729   7.899 -3.7077  2.7506  1.8051
  902MOL0     H21704   3.136   9.886   7.718 -0.1334 -0.7227 -0.1719
  902MOL0     H21705   3.196  10.288   7.852 -0.8380  0.4424 -0.6478
  902MOL0     H21706   3.376  10.251   7.822  0.3684  0.7286 -0.4629
  902MOL0     H21707   3.361  10.324   7.604 -1.9505 -0.7606 -0.7941
  902MOL0     H21708   3.186  10.342   7.613  0.6924 -1.3488 -2.4428
  902MOL0     H21709   3.253  10.560   7.761  0.0449 -0.0171  2.5571
  902MOL0     H21710   3.414  10.489   7.754 -0.6136  0.4253  0.8422
  902MOL0     H21711   3.428  10.533   7.507  0.4657  0.5683  0.1217
  902MOL0     H21712   3.250  10.553   7.500 -1.0698 -0.8697  2.0935
  902MOL0     H21713   3.433  10.721   7.669 -0.0295  0.2547 -0.1865
  902MOL0     H21714   3.412  10.753   7.499 -0.0178 -1.4626 -0.0915
  902MOL0     H21715   3.162  10.783   7.532 -0.3484  0.4597 -0.3847
  902MOL0     H21716   3.180  10.735   7.700  3.2925 -0.8264  1.4885
  902MOL0     H21717   3.142  10.964   7.690  0.4268 -0.0743  1.1093
  902MOL0     H21718   3.293  10.939   7.755  1.9201  0.1824 -1.3717
  902MOL0     H21719   3.259  10.989   7.452  1.9803  2.4728 -2.1176
  902MOL0     H21720   3.412  10.986   7.546  0.0830  3.6907 -1.7888
  902MOL0     H21721   3.469  11.181   7.709 -0.5014 -0.4420 -0.7632
  902MOL0     H21722   3.422  11.489   7.754 -0.8168 -0.0869 -1.6502
  902MOL0     H21723   3.265  11.501   7.811  1.0453 -0.1324 -0.2775
  902MOL0     H21724   3.443  11.281   7.920  2.3344  0.0132  2.0384
  902MOL0     H21725   3.291  11.360   7.984  0.1388 -2.2692 -2.3244
  902MOL0     H21726   3.399  11.565   8.036  0.6859  0.4224 -0.3639
  902MOL0     H21727   3.546  11.507   7.950 -1.6295  2.3674 -3.1354
  902MOL0     H21728   3.605  11.449   8.205  0.3849  1.9050 -0.7405
  902MOL0     H21729   3.551  11.308   8.125 -1.7030  0.6314 -3.8752
  902MOL0     H21730   3.519  11.185   8.308  1.0129 -0.0138  0.5850
  902MOL0     H21731   3.533  10.956   8.339 -0.9938 -1.0653 -2.6143
  902MOL0     H21732   3.467  10.946   8.503  1.3984 -0.8376  0.4439
  902MOL0     H21733   3.390  10.855   8.372 -1.0491  0.6780  1.7394
  902MOL0     H21734   2.832  10.951   8.673  0.1656  0.0174  0.1313
  902MOL0     H21735   2.740  10.742   8.764 -0.2406 -2.4847 -0.3217
  902MOL0     H21736   2.852  10.363   8.596 -1.5510  1.1595 -0.9327
  902MOL0     H21737   2.888  10.474   8.731  1.9322 -3.5851 -0.5792
  902MOL0     H21738   2.784  10.250   8.804 -1.1651  0.0092  3.4635
  902MOL0     H21739   2.690  10.377   8.854 -0.6583 -0.4182  0.3685
  902MOL0     H21740   2.648  10.216   8.589 -0.6220 -0.9858 -1.4378
  902MOL0     H21741   2.528  10.331   8.644  1.0926  0.1327 -1.0161
  902MOL0     H21742   2.604  10.057   8.780  0.7767  2.1063  2.4056
  902MOL0     H21743   2.492  10.182   8.846 -0.0227  4.7187 -2.3056
  902MOL0     H21744   2.381  10.153   8.608 -1.3947  1.0219  1.3533
  902MOL0     H21745   2.327  10.050   8.737 -0.2128  4.1624  0.3845
  902MOL0     H21746   2.377   9.922   8.523  0.0253  1.9711 -1.1370
  902MOL0     H21747   2.545   9.964   8.552  2.0352  1.6404  4.2174
  902MOL0     H21748   2.350   9.799   8.708  0.7683 -2.4896  4.5315
  902MOL0     H21749   2.504   9.839   8.782  0.9223 -1.1318 -0.5163
  902MOL0     H21750   2.615   9.737   8.566  0.1415  0.7762 -0.7168
  902MOL0     H21751   2.452   9.683   8.522  2.2887 -3.8644 -0.6792
  902MOL0     H21752   2.911  10.546   8.427  0.9735 -0.3209  0.6138
  902MOL0     H21753   3.023  10.762   8.356  0.7576  4.1939  0.0415
  902MOL0     H21754   3.033  11.173   8.328 -0.7942  1.3539  2.0391
  902MOL0     H21755   3.136  11.365   8.250 -1.1513 -1.5115 -0.1642
  902MOL0     H21756   3.290  10.166   8.014  0.6220  0.2896 -1.2101
  902MOL0     H21757   3.252   9.986   8.185  0.0648  2.9621  0.4931
  902MOL0     H21758   3.214   9.530   8.237 -0.1763 -4.3976 -0.7134
  902MOL0     H21759   3.198   9.363   8.389 -0.9674 -1.6915 -3.7023
  902MOL0     H21760   3.123   9.186   8.530 -0.8925 -2.7746  1.4458
  902MOL0     H21761   3.152   9.295   8.665  2.7072 -2.0811 -0.8603
  902MOL0     H21762   3.107   9.054   8.710 -1.2629 -1.5771  0.0784
  902MOL0     H21763   2.932   9.081   8.681  0.4408  2.0098 -2.0384
  902MOL0     H21764   2.946   9.085   8.895  1.3015 -3.3976 -3.8578
  902MOL0     H21765   2.939   9.256   8.853  0.8047  1.6377  0.0281
  902MOL0     H21766   3.158   9.286   8.926 -2.1104  0.9223  2.0386
  902MOL0     H21767   3.213   9.117   8.922  0.2817  1.5082 -0.9256
  902MOL0     H21768   2.977   9.186   9.276 -2.0315  2.0683 -1.4830
  902MOL0     H21769   2.823   9.523   8.546  0.0588  1.6021  0.5842
  902MOL0     H21770   2.853   9.719   8.394  0.7235  1.1281  0.9161
  903MOL0     O21771   4.894   1.454  10.543 -0.1195  0.0813  0.1573
  903MOL0     C21772   4.973   1.429  10.629 -0.7716 -0.1955  0.3410
  903MOL0     O21773   5.008   1.298  10.659  0.6184  0.0849  0.8356
  903MOL0     C21774   4.917   1.200  10.622 -0.2370 -0.9078 -0.4337
  903MOL0     C21775   4.834   1.146  10.720  1.3092 -0.4489 -0.3093
  903MOL0     C21776   4.744   1.045  10.688  0.7436  0.4924 -0.3723
  903MOL0     C21777   4.734   0.994  10.558 -0.3209  0.0109 -0.0467
  903MOL0     O21778   4.643   0.890  10.536  0.0960 -0.4972 -0.9184
  903MOL0     C21779   4.677   0.805  10.424 -0.8864 -0.8211 -1.2622
  903MOL0     C21780   4.583   0.681  10.419  0.3143 -0.4009 -0.3906
  903MOL0     C21781   4.442   0.707  10.358 -0.2407  0.8997  0.0025
  903MOL0     C21782   4.392   0.578  10.289 -0.6327  0.5375  0.4027
  903MOL0     C21783   4.269   0.603  10.206 -0.1084 -0.3871  0.3068
  903MOL0     C21784   4.248   0.486  10.108 -0.6857 -0.2958 -0.5667
  903MOL0     C21785   4.139   0.518  10.001  0.1003 -0.0767 -0.1857
  903MOL0     C21786   4.103   0.380   9.926  0.2316 -0.1136  0.1356
  903MOL0     N21787   4.213   0.341   9.839  0.5239 -0.8138  0.3320
  903MOL0     C21788   4.301   0.242   9.881 -0.8742  0.9775  0.4228
  903MOL0     C21789   4.394   0.236   9.781 -0.2633 -0.1105 -0.0022
  903MOL0     C21790   4.507   0.136   9.763 -0.6200  0.2910 -0.8743
  903MOL0     C21791   4.631   0.176   9.845 -1.0142 -0.5503 -0.5863
  903MOL0     C21792   4.706   0.299   9.776  0.0404  0.0273  0.1958
  903MOL0     C21793   4.843   0.325   9.844 -0.8715 -0.7229 -0.7517
  903MOL0     O21794   4.917   0.416   9.765 -0.0599 -0.3360 -0.4204
  903MOL0     C21795   5.024   0.480   9.824 -0.3501 -0.0821  0.1181
  903MOL0     C21796   5.057   0.606   9.772  1.1220  0.0001  0.6045
  903MOL0     C21797   5.163   0.678   9.826 -0.6580  0.7923 -0.2714
  903MOL0     C21798   5.179   0.811   9.755 -0.0915  0.8123 -0.4429
  903MOL0     C21799   5.231   0.637   9.942  0.4163  0.2417  0.6357
  903MOL0     C21800   5.336   0.712  10.006 -0.8293  0.3537 -0.3929
  903MOL0     O21801   5.410   0.795   9.935  0.0169 -0.3991  0.6012
  903MOL0     C21802   5.493   0.889   9.998  0.5429  0.4009 -0.0574
  903MOL0     C21803   5.629   0.848  10.003  0.4617 -0.1298  0.0995
  903MOL0     C21804   5.723   0.931  10.060  0.2938 -0.1459  0.9579
  903MOL0     C21805   5.687   1.066  10.105  0.3181 -0.1939 -0.3507
  903MOL0     O21806   5.783   1.131  10.171 -0.5911 -0.1620 -0.1447
  903MOL0     C21807   5.752   1.261  10.226 -0.1686 -1.1397 -1.0642
  903MOL0     C21808   5.760   1.359  10.111  0.0405 -0.1783 -0.4195
  903MOL0     C21809   5.732   1.507  10.151  0.1613 -0.9335  0.1287
  903MOL0     C21810   5.840   1.592  10.077  0.1674 -0.6443  0.3153
  903MOL0     C21811   5.826   1.731  10.141  0.5957 -0.4531  0.2201
  903MOL0     C21812   5.696   1.812  10.120  0.3165  0.2836  0.6484
  903MOL0     C21813   5.701   1.961  10.174 -0.3530  0.9711 -0.1147
  903MOL0     C21814   5.593   2.056  10.128  0.0975  0.2095 -0.0652
  903MOL0    Cl21815   5.585   2.103   9.953 -0.2737 -0.1615 -0.0908
  903MOL0     C21816   5.547   1.095  10.101  0.0528 -0.7450  0.5578
  903MOL0     C21817   5.456   1.013  10.049  0.3359  0.4695  0.2979
  903MOL0     O21818   5.359   0.694  10.125  0.4850 -0.5458 -0.3370
  903MOL0     C21819   5.189   0.511  10.000 -0.1099 -0.1916  0.2709
  903MOL0     C21820   5.088   0.435   9.942  0.2833  0.5100 -0.0891
  903MOL0     N21821   4.366   0.347   9.700 -0.0100 -0.2905 -0.2088
  903MOL0     N21822   4.254   0.407   9.734  0.4759  0.6523  0.1972
  903MOL0     C21823   4.808   1.055  10.447  0.0322 -0.5054 -1.1585
  903MOL0     C21824   4.901   1.155  10.491  0.7076 -0.0023 -0.2086
  903MOL0     C21825   5.047   1.543  10.687 -0.6042 -0.8984 -0.5525
  903MOL0     C21826   5.022   1.677  10.659  0.3210 -0.9247 -0.2083
  903MOL0     C21827   5.105   1.784  10.725 -0.0440  1.4878 -0.5338
  903MOL0     C21828   5.201   1.744  10.819 -0.2130 -0.1983 -0.4935
  903MOL0     O21829   5.288   1.837  10.868 -0.1299  0.0012 -0.1984
  903MOL0     C21830   5.323   1.824  11.007 -0.3225 -0.0739  0.0245
  903MOL0     C21831   5.214   1.843  11.102  0.1683  0.1364 -0.8271
  903MOL0     C21832   5.157   1.988  11.087  0.9712  0.0521 -0.2002
  903MOL0     C21833   5.179   2.080  11.207  0.3880 -0.2158  0.4638
  903MOL0     C21834   5.320   2.113  11.226  0.0006  0.6254 -0.4450
  903MOL0     C21835   5.441   2.127  11.244  0.3431  0.9503  0.1097
  903MOL0     C21836   5.214   1.606  10.845  0.0785 -0.3235 -0.1591
  903MOL0     C21837   5.139   1.509  10.785 -0.2501 -0.1750  0.4299
  903MOL0     H21838   4.841   1.196  10.816 -0.3727 -0.9404  0.1065
  903MOL0     H21839   4.665   1.013  10.756 -0.8932  0.4279 -2.1940
  903MOL0     H21840   4.659   0.868  10.336  1.6023  0.1430 -1.1663
  903MOL0     H21841   4.784   0.787  10.432 -0.8877 -0.8717 -1.3633
  903MOL0     H21842   4.635   0.602  10.364 -0.0018 -0.8379 -0.0613
  903MOL0     H21843   4.579   0.647  10.523  0.1625 -0.0899 -0.2933
  903MOL0     H21844   4.387   0.725  10.451 -0.0711 -0.3344  0.3633
  903MOL0     H21845   4.437   0.793  10.290  0.7251  1.6094  0.7947
  903MOL0     H21846   4.468   0.534  10.224 -1.5880 -4.4977  2.2194
  903MOL0     H21847   4.375   0.503  10.367  1.2462 -1.3445 -0.8665
  903MOL0     H21848   4.176   0.629  10.258 -0.9130  1.3794 -1.8688
  903MOL0     H21849   4.282   0.694  10.147 -3.2892  1.5437  2.2464
  903MOL0     H21850   4.349   0.464  10.072  0.7736 -3.1698  4.3364
  903MOL0     H21851   4.213   0.400  10.167  2.3797 -0.5675  1.0935
  903MOL0     H21852   4.047   0.549  10.049  0.3030 -1.9386  1.5413
  903MOL0     H21853   4.173   0.596   9.932  2.5695  0.9246  1.9819
  903MOL0     H21854   4.018   0.400   9.861  0.1223 -1.1084 -0.0486
  903MOL0     H21855   4.061   0.308   9.997  0.5785 -0.0913  0.3687
  903MOL0     H21856   4.277   0.186   9.971 -1.5629  0.7680  0.1119
  903MOL0     H21857   4.470   0.040   9.800  1.0575  0.0587  0.3239
  903MOL0     H21858   4.528   0.141   9.655  0.4475  1.8527 -0.6356
  903MOL0     H21859   4.712   0.103   9.839  1.3745  1.9072 -0.0332
  903MOL0     H21860   4.617   0.185   9.953 -0.2262  1.7660 -0.6210
  903MOL0     H21861   4.633   0.381   9.771 -1.4263 -1.0746  2.1493
  903MOL0     H21862   4.722   0.278   9.670 -0.9630  0.7204 -0.1126
  903MOL0     H21863   4.900   0.234   9.863  1.0268  0.0268 -2.4658
  903MOL0     H21864   4.819   0.379   9.936 -0.9926  0.4667 -1.4572
  903MOL0     H21865   4.997   0.652   9.693 -1.8580 -0.2103  2.5577
  903MOL0     H21866   5.115   0.828   9.668 -0.0064  0.2064 -0.6288
  903MOL0     H21867   5.147   0.889   9.824  0.7332 -0.9653  2.1353
  903MOL0     H21868   5.279   0.835   9.720 -0.2871  1.4429 -0.5688
  903MOL0     H21869   5.668   0.757   9.960  0.1786 -1.3925  2.3311
  903MOL0     H21870   5.827   0.902  10.048  1.1651  2.5922  1.2104
  903MOL0     H21871   5.666   1.259  10.293  1.2744  2.4465  1.2290
  903MOL0     H21872   5.832   1.287  10.296 -2.2516  2.2016  0.3400
  903MOL0     H21873   5.860   1.353  10.067 -0.4350 -1.8572 -1.3419
  903MOL0     H21874   5.697   1.329  10.027  0.0388 -0.8796 -0.1763
  903MOL0     H21875   5.745   1.533  10.256 -1.0784  0.7131 -0.0877
  903MOL0     H21876   5.628   1.530  10.126 -0.5734 -3.9439 -0.0339
  903MOL0     H21877   5.944   1.569  10.103  1.0419  2.4090 -0.0605
  903MOL0     H21878   5.820   1.606   9.970 -4.0322 -0.5365  0.9287
  903MOL0     H21879   5.916   1.786  10.114  0.3191 -1.0187 -2.0571
  903MOL0     H21880   5.844   1.723  10.249 -1.1695  0.1184  0.5915
  903MOL0     H21881   5.661   1.819  10.017 -4.7675 -0.2835  2.0330
  903MOL0     H21882   5.617   1.756  10.172 -0.2645 -1.6594 -2.1090
  903MOL0     H21883   5.796   1.997  10.134 -0.4090  1.7534  0.4391
  903MOL0     H21884   5.709   1.949  10.282 -1.0969 -2.5105 -0.3069
  903MOL0     H21885   5.615   2.148  10.183 -1.5065  0.9004 -0.5518
  903MOL0     H21886   5.494   2.030  10.166 -0.4352  0.5201 -1.2024
  903MOL0     H21887   5.510   1.194  10.126 -2.0000 -1.4408  0.4961
  903MOL0     H21888   5.353   1.043  10.036  0.0484 -0.5891  0.0325
  903MOL0     H21889   5.234   0.473  10.091 -2.1123 -0.3721  1.2331
  903MOL0     H21890   5.059   0.339   9.984 -0.3327 -0.3983 -2.4326
  903MOL0     H21891   4.778   1.044  10.343 -0.1162  0.3200 -1.2080
  903MOL0     H21892   4.966   1.200  10.417 -0.8204  1.3729 -0.7661
  903MOL0     H21893   4.934   1.699  10.599 -1.2063 -4.4698  0.4499
  903MOL0     H21894   5.084   1.888  10.705 -3.1500  1.0070 -0.2711
  903MOL0     H21895   5.385   1.734  11.017  1.0819  1.0948  3.1999
  903MOL0     H21896   5.389   1.908  11.032 -0.8514  0.5743 -0.7261
  903MOL0     H21897   5.257   1.836  11.202  1.3181  0.0566 -1.3135
  903MOL0     H21898   5.128   1.776  11.086 -1.2199  2.3491 -3.6179
  903MOL0     H21899   5.048   1.983  11.074  0.7746  0.1939  1.2113
  903MOL0     H21900   5.188   2.036  10.994 -1.4782 -0.8045 -1.5612
  903MOL0     H21901   5.136   2.047  11.302 -0.3617 -1.4473 -0.2855
  903MOL0     H21902   5.121   2.168  11.177  0.7729 -0.0875  0.0968
  903MOL0     H21903   5.547   2.136  11.248  0.3860  0.4194  0.2146
  903MOL0     H21904   5.280   1.563  10.920 -0.6925  2.7292  2.5672
  903MOL0     H21905   5.158   1.405  10.807  0.1865  0.0168  0.9803
  904MOL0     O21906   4.692   1.339   1.716  1.1104 -0.3992  0.4116
  904MOL0     C21907   4.645   1.311   1.827 -0.7579  0.3060  0.9999
  904MOL0     O21908   4.716   1.267   1.931  0.7076  0.2658  0.3963
  904MOL0     C21909   4.851   1.246   1.930  0.5548 -0.3145  0.2114
  904MOL0     C21910   4.902   1.172   2.039 -0.3370 -0.8018  0.2337
  904MOL0     C21911   5.036   1.133   2.039  1.1010  0.5267  0.3098
  904MOL0     C21912   5.127   1.163   1.934 -0.6004  0.0899 -0.1432
  904MOL0     O21913   5.261   1.126   1.927 -0.3508  0.1838  0.4808
  904MOL0     C21914   5.310   1.054   2.042  0.2224  0.3375  0.5278
  904MOL0     C21915   5.455   1.006   2.027 -0.1847  0.1644  0.0937
  904MOL0     C21916   5.546   1.131   2.001  0.7022 -0.7730  0.0991
  904MOL0     C21917   5.700   1.106   2.019 -0.0306  0.3716 -0.0186
  904MOL0     C21918   5.748   1.091   2.170 -0.0126 -0.1663  1.1645
  904MOL0     C21919   5.887   1.032   2.157 -0.5754  0.0701  0.2843
  904MOL0     C21920   5.953   0.987   2.278 -0.4715  0.0381 -0.9413
  904MOL0     C21921   5.987   1.080   2.390 -0.3754 -0.0190  0.8305
  904MOL0     N21922   6.100   1.040   2.481  0.7983 -0.4105  0.2751
  904MOL0     C21923   6.158   0.927   2.505  0.1087  0.8109 -0.5334
  904MOL0     C21924   6.250   0.951   2.605  0.0043  0.1988 -1.6703
  904MOL0     C21925   6.320   0.832   2.680  0.2061 -0.1785 -0.0179
  904MOL0     C21926   6.422   0.870   2.791  0.8505  0.3783 -0.2277
  904MOL0     C21927   6.530   0.969   2.743  0.1283  0.0060 -0.3841
  904MOL0     C21928   6.640   0.909   2.664 -0.3635 -0.5333  0.0969
  904MOL0     O21929   6.690   0.786   2.717  0.1234  0.9492 -0.0548
  904MOL0     C21930   6.806   0.777   2.793 -0.1450  0.1150  0.3214
  904MOL0     C21931   6.867   0.651   2.798  0.0168 -0.7638 -0.4151
  904MOL0     C21932   6.977   0.627   2.878  1.0479  0.7941  0.1809
  904MOL0     C21933   7.044   0.481   2.866 -0.1154  0.3592 -0.4438
  904MOL0     C21934   7.034   0.736   2.941  0.0582  0.0559 -0.7117
  904MOL0     C21935   7.163   0.731   3.014  0.3821 -0.9888 -0.2511
  904MOL0     O21936   7.204   0.840   3.099 -0.0121 -0.7888  0.5587
  904MOL0     C21937   7.331   0.834   3.150  1.0023  0.1457  0.0441
  904MOL0     C21938   7.439   0.907   3.094  0.0879 -0.1901 -0.2986
  904MOL0     C21939   7.558   0.902   3.164 -0.1068 -0.6683  0.7405
  904MOL0     C21940   7.584   0.847   3.284  0.2860  1.0189 -0.0715
  904MOL0     O21941   7.705   0.853   3.347  0.5714 -0.1756 -0.2062
  904MOL0     C21942   7.774   0.981   3.329  0.4316 -0.5699 -0.9214
  904MOL0     C21943   7.900   1.005   3.419  0.7854  0.4035  0.8461
  904MOL0     C21944   8.010   0.917   3.363 -0.6598 -0.6312 -0.4682
  904MOL0     C21945   8.136   0.945   3.452  0.4366  0.0355 -0.1730
  904MOL0     C21946   8.263   0.869   3.415 -0.7046 -0.1781  0.4090
  904MOL0     C21947   8.346   0.943   3.309 -0.2294 -0.5047  0.0087
  904MOL0     C21948   8.493   0.894   3.295 -0.2272 -0.3595  0.4335
  904MOL0     C21949   8.551   0.927   3.160 -0.0056 -0.4342  0.0772
  904MOL0    Cl21950   8.480   0.859   3.019  0.2128 -0.9459 -0.0642
  904MOL0     C21951   7.470   0.772   3.338 -0.1561 -1.0793  1.0079
  904MOL0     C21952   7.348   0.769   3.270 -0.3216  0.2515  0.6582
  904MOL0     O21953   7.218   0.623   3.015 -0.7135 -0.4874  0.0055
  904MOL0     C21954   6.967   0.861   2.939 -0.0006 -0.0620 -0.6641
  904MOL0     C21955   6.861   0.883   2.862 -0.3298  0.4423 -0.1972
  904MOL0     N21956   6.250   1.089   2.622  0.8321 -0.1222 -0.5784
  904MOL0     N21957   6.154   1.139   2.554 -0.2548  0.8113 -0.0837
  904MOL0     C21958   5.084   1.254   1.837  0.0835  0.2101  0.0179
  904MOL0     C21959   4.946   1.293   1.834 -0.2142  0.1953 -0.3218
  904MOL0     C21960   4.497   1.300   1.831  0.2488  0.1673  0.0144
  904MOL0     C21961   4.415   1.318   1.721  0.4959  0.2254 -0.8464
  904MOL0     C21962   4.277   1.293   1.722 -0.6750 -0.1101  0.1492
  904MOL0     C21963   4.219   1.247   1.836 -0.1446 -0.7365 -0.0531
  904MOL0     O21964   4.082   1.225   1.853 -0.6885 -0.5688  0.4500
  904MOL0     C21965   3.987   1.296   1.759 -0.4543 -0.7459  1.1637
  904MOL0     C21966   3.974   1.440   1.805 -0.0044 -0.8119 -0.7262
  904MOL0     C21967   3.892   1.535   1.712  0.3599 -0.1549 -1.0883
  904MOL0     C21968   3.956   1.572   1.584  0.8602 -0.1100  0.1422
  904MOL0     C21969   3.874   1.656   1.494 -0.4054 -0.0924  0.1901
  904MOL0     C21970   3.809   1.724   1.424 -0.5685  0.1631  0.6587
  904MOL0     C21971   4.293   1.218   1.947 -0.1805 -0.1292  0.4352
  904MOL0     C21972   4.435   1.245   1.949  0.8107  0.1734 -0.4242
  904MOL0     H21973   4.837   1.145   2.123  2.0411  0.5116  2.6524
  904MOL0     H21974   5.067   1.073   2.124  1.0120  0.8901  0.5968
  904MOL0     H21975   5.309   1.131   2.120  1.5256  1.6195 -0.6673
  904MOL0     H21976   5.239   0.974   2.066 -0.3892  0.0167 -2.0416
  904MOL0     H21977   5.483   0.948   2.115 -1.0276 -1.6170 -0.7744
  904MOL0     H21978   5.445   0.943   1.938 -1.2324 -1.4578  1.3217
  904MOL0     H21979   5.530   1.175   1.902 -0.8908  1.8422  1.4000
  904MOL0     H21980   5.520   1.208   2.075  3.5611  0.7402 -0.3495
  904MOL0     H21981   5.725   1.015   1.964  0.2773  0.5301 -0.1431
  904MOL0     H21982   5.753   1.184   1.965 -0.7678 -0.8333 -2.6656
  904MOL0     H21983   5.759   1.187   2.221  5.0693 -1.2429  2.6450
  904MOL0     H21984   5.683   1.020   2.222 -0.1875 -0.6299  0.3405
  904MOL0     H21985   5.879   0.940   2.099  0.4053 -1.2998  2.2131
  904MOL0     H21986   5.955   1.098   2.103 -0.0280 -2.1431 -1.8825
  904MOL0     H21987   5.908   0.898   2.323  1.0463  1.3187  3.7262
  904MOL0     H21988   6.051   0.954   2.242  0.1785 -0.0417  0.7701
  904MOL0     H21989   5.895   1.092   2.449  0.9866  0.1108  3.0340
  904MOL0     H21990   6.010   1.180   2.353 -1.3060  0.1485  0.6737
  904MOL0     H21991   6.127   0.830   2.467  0.1198  1.5316 -2.4844
  904MOL0     H21992   6.238   0.771   2.717  0.0003 -0.8038 -1.4429
  904MOL0     H21993   6.371   0.766   2.609  0.9520  0.6343 -0.2519
  904MOL0     H21994   6.471   0.781   2.830  1.7947  0.7895 -0.4399
  904MOL0     H21995   6.358   0.927   2.860  3.4224  1.4278  1.4172
  904MOL0     H21996   6.584   1.005   2.831 -0.2220 -3.2984  1.3406
  904MOL0     H21997   6.484   1.062   2.707  0.3270  0.5104  0.6149
  904MOL0     H21998   6.712   0.991   2.658 -1.0673  0.4536  3.2282
  904MOL0     H21999   6.604   0.896   2.561  0.8796  1.8136 -0.6993
  904MOL0     H22000   6.828   0.566   2.743 -0.5885 -2.5029  2.4763
  904MOL0     H22001   6.959   0.414   2.848 -0.3169 -0.7493  3.6458
  904MOL0     H22002   7.112   0.485   2.780  0.2183  0.6236 -0.1656
  904MOL0     H22003   7.094   0.439   2.953 -2.4828 -3.5633 -0.7460
  904MOL0     H22004   7.423   0.970   3.006 -0.3186 -1.0810 -0.8712
  904MOL0     H22005   7.637   0.946   3.104 -1.2639  0.3045 -0.1258
  904MOL0     H22006   7.807   0.976   3.225 -1.2110 -2.7473 -1.3989
  904MOL0     H22007   7.698   1.059   3.341  2.7594  1.8279 -0.6502
  904MOL0     H22008   7.940   1.107   3.425  2.6643 -0.3211  1.1724
  904MOL0     H22009   7.872   0.979   3.521 -0.3593  2.8335  1.2405
  904MOL0     H22010   8.033   0.948   3.261 -0.1436  1.4908  0.2471
  904MOL0     H22011   7.977   0.813   3.350 -1.6203 -0.1565 -2.1742
  904MOL0     H22012   8.156   1.052   3.455 -1.5500  0.4590 -0.4795
  904MOL0     H22013   8.101   0.902   3.547 -0.9739 -0.5574 -0.9270
  904MOL0     H22014   8.233   0.772   3.376  1.1245  0.0472 -1.7665
  904MOL0     H22015   8.326   0.859   3.505 -0.2142 -0.9171 -0.0007
  904MOL0     H22016   8.304   0.959   3.209 -2.0405 -0.3455  0.7451
  904MOL0     H22017   8.356   1.041   3.357 -0.1519 -1.3408  1.7995
  904MOL0     H22018   8.502   0.786   3.307  0.9491 -0.5372 -1.6369
  904MOL0     H22019   8.553   0.927   3.380  0.5294 -2.9176  0.9865
  904MOL0     H22020   8.656   0.897   3.150  0.0171 -0.3278  0.0018
  904MOL0     H22021   8.545   1.037   3.162 -0.3357 -0.4359  2.9188
  904MOL0     H22022   7.484   0.734   3.439  1.2125  2.7659  2.4356
  904MOL0     H22023   7.270   0.716   3.326  2.5618 -2.4247  2.4795
  904MOL0     H22024   7.005   0.943   2.999  0.4236 -0.8240  0.1295
  904MOL0     H22025   6.813   0.981   2.870 -2.5723 -0.6214  0.3425
  904MOL0     H22026   5.160   1.278   1.763  3.0079 -2.6291  1.8185
  904MOL0     H22027   4.929   1.372   1.761 -1.4902 -1.4076 -1.8174
  904MOL0     H22028   4.460   1.365   1.634  1.7181 -0.3948 -0.5600
  904MOL0     H22029   4.236   1.329   1.629 -1.0242  2.0011  1.0588
  904MOL0     H22030   4.032   1.302   1.659  1.5547 -0.4460  2.0474
  904MOL0     H22031   3.895   1.238   1.746 -1.1753  0.7440 -0.9873
  904MOL0     H22032   4.075   1.481   1.809 -0.6986  1.0356  3.5244
  904MOL0     H22033   3.947   1.447   1.911 -1.5367  3.3136 -1.1785
  904MOL0     H22034   3.864   1.635   1.748  1.9923  0.3088 -1.0026
  904MOL0     H22035   3.799   1.482   1.691 -0.0384 -0.5387  1.3636
  904MOL0     H22036   3.987   1.481   1.532  2.8787  0.5972  0.0269
  904MOL0     H22037   4.049   1.622   1.611 -0.0608  1.3187  0.8437
  904MOL0     H22038   3.755   1.798   1.370  0.8431  0.4718 -0.3733
  904MOL0     H22039   4.231   1.178   2.027  0.4835 -0.6546  0.6999
  904MOL0     H22040   4.492   1.210   2.034  3.4650  1.7667 -1.4309
  905MOL0     O22041   4.204   9.843   3.755  0.2142 -0.7401 -0.0342
  905MOL0     C22042   4.082   9.865   3.782 -0.8484  0.5260  0.6501
  905MOL0     O22043   3.971   9.804   3.714  0.0613 -0.1311 -0.3707
  905MOL0     C22044   3.987   9.727   3.607 -0.6367  0.1975  0.2279
  905MOL0     C22045   3.885   9.628   3.587  0.8324 -1.0727  0.6558
  905MOL0     C22046   3.882   9.561   3.461  0.0416  0.2672  0.0671
  905MOL0     C22047   3.963   9.599   3.352  0.3760 -0.3791  0.2571
  905MOL0     O22048   3.938   9.536   3.232  0.6539 -0.5895 -0.2249
  905MOL0     C22049   3.983   9.609   3.113 -0.0050 -0.7796  0.0695
  905MOL0     C22050   3.945   9.516   2.980  0.4303 -0.4099 -0.6957
  905MOL0     C22051   3.795   9.488   2.980  0.2968  0.2613  0.8090
  905MOL0     C22052   3.761   9.408   2.853 -0.4151 -0.5060  0.8424
  905MOL0     C22053   3.618   9.425   2.813 -0.2850 -0.3178 -0.5470
  905MOL0     C22054   3.569   9.565   2.776  0.6260 -0.4089  0.2783
  905MOL0     C22055   3.662   9.636   2.681 -0.0770  0.2695 -0.2813
  905MOL0     C22056   3.687   9.556   2.558 -0.1663  0.1306  0.0967
  905MOL0     N22057   3.577   9.549   2.459  0.0869  0.4041 -0.2442
  905MOL0     C22058   3.478   9.642   2.435  0.2642  0.0879  0.0902
  905MOL0     C22059   3.404   9.585   2.345 -0.0360  0.0018  0.0294
  905MOL0     C22060   3.273   9.642   2.278 -0.6027  0.0975 -0.4594
  905MOL0     C22061   3.278   9.604   2.129 -0.0278  0.4328  0.3150
  905MOL0     C22062   3.142   9.625   2.063  0.3625  0.6164 -0.2204
  905MOL0     C22063   3.142   9.556   1.927  0.0662  0.0656 -0.6178
  905MOL0     O22064   3.076   9.649   1.842 -0.2737 -0.3315 -0.2744
  905MOL0     C22065   3.004   9.600   1.741  0.1038 -0.3175  1.3690
  905MOL0     C22066   3.057   9.499   1.665 -0.3075  1.7246  0.0765
  905MOL0     C22067   2.975   9.442   1.562  0.1059  0.2229 -0.5809
  905MOL0     C22068   3.036   9.329   1.484  0.0344 -0.2011  0.0528
  905MOL0     C22069   2.854   9.507   1.519 -0.1225 -0.2283  0.2480
  905MOL0     C22070   2.768   9.474   1.405 -0.2685 -0.7354 -1.0557
  905MOL0     O22071   2.815   9.401   1.302 -0.7954  0.4725  0.0471
  905MOL0     C22072   2.715   9.377   1.210 -0.3029  0.0653  0.0708
  905MOL0     C22073   2.677   9.469   1.107  0.5325  1.2818  0.4585
  905MOL0     C22074   2.577   9.434   1.019  0.6166  0.1848 -0.2038
  905MOL0     C22075   2.507   9.312   1.024  0.4522 -0.2044 -0.2464
  905MOL0     O22076   2.409   9.290   0.938  1.0708  0.9277 -0.0900
  905MOL0     C22077   2.358   9.161   0.901  0.4994  1.1939  0.7089
  905MOL0     C22078   2.229   9.160   0.836  0.7431 -0.1453  0.1167
  905MOL0     C22079   2.230   9.214   0.695  0.1256  0.0767  0.2104
  905MOL0     C22080   2.084   9.234   0.647 -0.1804  0.1464  1.0915
  905MOL0     C22081   2.034   9.156   0.528 -0.8814 -0.1452  0.3932
  905MOL0     C22082   2.116   9.184   0.398  0.2454 -0.4547  0.5045
  905MOL0     C22083   2.092   9.088   0.292 -0.4594 -0.8330  0.2646
  905MOL0     C22084   2.095   9.149   0.152  0.2400 -0.1525 -0.1176
  905MOL0    Cl22085   2.261   9.207   0.136 -0.0105  0.0035 -0.1893
  905MOL0     C22086   2.561   9.219   1.110 -0.4677 -0.3667  1.2463
  905MOL0     C22087   2.661   9.243   1.202  0.3811 -0.7502 -0.3132
  905MOL0     O22088   2.657   9.527   1.412  0.4631 -0.5777  0.0876
  905MOL0     C22089   2.798   9.593   1.619 -0.1915 -0.1709 -0.2956
  905MOL0     C22090   2.877   9.640   1.730  0.3469  0.0664  0.6925
  905MOL0     N22091   3.448   9.456   2.311 -0.3855 -0.2925  0.3967
  905MOL0     N22092   3.560   9.438   2.372 -0.7345  0.5619 -0.4282
  905MOL0     C22093   4.060   9.699   3.378  0.0869 -0.5412 -0.9096
  905MOL0     C22094   4.075   9.769   3.499 -0.0574  0.1674  0.2482
  905MOL0     C22095   4.049   9.955   3.892 -0.4365  0.4500 -0.1064
  905MOL0     C22096   3.920   9.993   3.934  0.5483  0.1325 -0.7311
  905MOL0     C22097   3.911  10.095   4.033 -0.1900 -0.4651 -0.4872
  905MOL0     C22098   4.026  10.140   4.111  0.8930 -1.1811  0.3450
  905MOL0     O22099   4.015  10.238   4.212 -0.1597  0.1199  1.0301
  905MOL0     C22100   3.922  10.342   4.187  0.7031 -0.4598 -0.0696
  905MOL0     C22101   3.962  10.477   4.230 -0.0163 -0.5362 -1.0668
  905MOL0     C22102   4.098  10.530   4.182  0.3100 -0.0386 -0.4487
  905MOL0     C22103   4.141  10.664   4.241  0.6062  0.7070  0.3107
  905MOL0     C22104   4.187  10.656   4.377 -0.3393 -0.2355  0.6954
  905MOL0     C22105   4.205  10.646   4.489 -0.3672  0.5895  0.1068
  905MOL0     C22106   4.152  10.099   4.074  1.0080 -0.5986  0.6852
  905MOL0     C22107   4.159  10.011   3.968  0.4962  0.3367 -0.1612
  905MOL0     H22108   3.812   9.596   3.661 -2.0094  0.7588 -1.1663
  905MOL0     H22109   3.803   9.490   3.441 -3.4004  3.1647  2.0881
  905MOL0     H22110   3.935   9.708   3.110  0.3679 -0.5743 -3.1631
  905MOL0     H22111   4.092   9.612   3.122 -0.0563  1.6399  0.6596
  905MOL0     H22112   3.979   9.571   2.892  0.9915  0.3643 -0.0065
  905MOL0     H22113   3.991   9.418   2.986  0.3157 -0.3959  0.8200
  905MOL0     H22114   3.760   9.436   3.069  1.2294 -0.0544  0.9958
  905MOL0     H22115   3.742   9.584   2.977  1.2597  0.8072  0.6505
  905MOL0     H22116   3.823   9.431   2.765 -4.1082  1.6194 -1.5038
  905MOL0     H22117   3.782   9.305   2.880  3.2520 -0.1826 -0.2639
  905MOL0     H22118   3.595   9.363   2.725 -0.4542  1.5228 -1.8440
  905MOL0     H22119   3.555   9.379   2.890 -1.3431 -0.9560 -1.7531
  905MOL0     H22120   3.473   9.568   2.724  1.9882  1.1633 -2.3989
  905MOL0     H22121   3.554   9.626   2.866 -4.0619  1.1147 -1.2174
  905MOL0     H22122   3.619   9.730   2.647  0.3667  0.7115  0.3637
  905MOL0     H22123   3.757   9.664   2.725  0.1601 -1.5198  0.4657
  905MOL0     H22124   3.721   9.452   2.568  0.5505  0.2514 -0.9694
  905MOL0     H22125   3.775   9.596   2.508  3.4802 -1.2274  4.6609
  905MOL0     H22126   3.478   9.735   2.492  0.2389  0.9597 -1.3016
  905MOL0     H22127   3.186   9.594   2.323 -1.9434  2.7458 -0.0071
  905MOL0     H22128   3.266   9.750   2.296 -2.0971 -0.4516  2.9355
  905MOL0     H22129   3.307   9.501   2.110 -2.3828 -0.2378  0.1006
  905MOL0     H22130   3.362   9.658   2.084  1.0947 -0.8841  0.7528
  905MOL0     H22131   3.128   9.732   2.050  1.2417  0.7608 -0.0370
  905MOL0     H22132   3.068   9.586   2.133 -0.4447 -0.6588 -1.7319
  905MOL0     H22133   3.079   9.467   1.935 -2.9356  2.0405 -0.0912
  905MOL0     H22134   3.247   9.541   1.902  0.2513  0.9542 -0.4413
  905MOL0     H22135   3.155   9.454   1.684 -0.2702  2.1631  0.9901
  905MOL0     H22136   2.963   9.270   1.427  0.0132 -1.0219  0.8993
  905MOL0     H22137   3.106   9.373   1.412  0.3277 -2.6251 -1.2646
  905MOL0     H22138   3.088   9.256   1.546  0.5953  2.5022  3.0085
  905MOL0     H22139   2.726   9.566   1.110 -0.2249  1.6784  0.3036
  905MOL0     H22140   2.534   9.492   0.938 -0.8570 -0.1362  0.3049
  905MOL0     H22141   2.433   9.118   0.833  0.8739  1.4849  0.9351
  905MOL0     H22142   2.344   9.104   0.993 -0.1616  2.7666  1.6208
  905MOL0     H22143   2.201   9.054   0.832 -0.1575  0.1036 -0.4755
  905MOL0     H22144   2.169   9.225   0.900  2.1717  0.3841  0.9745
  905MOL0     H22145   2.277   9.133   0.638  0.2093 -0.6242  1.2283
  905MOL0     H22146   2.282   9.307   0.670  2.7371 -2.1326 -3.7344
  905MOL0     H22147   2.011   9.212   0.726 -0.1867  0.4624  1.1726
  905MOL0     H22148   2.084   9.340   0.623  0.2612  0.0589  0.7033
  905MOL0     H22149   1.927   9.168   0.511 -0.5636 -0.7620 -2.7441
  905MOL0     H22150   2.055   9.054   0.562  0.1118 -0.0354  0.1503
  905MOL0     H22151   2.095   9.285   0.360 -1.2058 -0.8369  0.2372
  905MOL0     H22152   2.224   9.188   0.415  0.5560 -3.3492 -0.2714
  905MOL0     H22153   1.992   9.045   0.307 -2.4095  1.5568 -3.9932
  905MOL0     H22154   2.169   9.010   0.288 -3.4899 -4.0384 -1.1092
  905MOL0     H22155   2.025   9.233   0.143 -0.1333 -0.6075 -1.7675
  905MOL0     H22156   2.070   9.079   0.072 -0.7413 -0.3867  0.3725
  905MOL0     H22157   2.511   9.123   1.117 -1.1572 -0.0472  0.8047
  905MOL0     H22158   2.684   9.157   1.265  1.9014 -2.2662 -2.7650
  905MOL0     H22159   2.699   9.637   1.612  1.0661  3.3027  1.4290
  905MOL0     H22160   2.832   9.710   1.800 -0.1328  1.6404 -1.0991
  905MOL0     H22161   4.124   9.735   3.298  1.4809 -1.8420 -0.4258
  905MOL0     H22162   4.143   9.851   3.517 -0.0430 -0.0625  1.2664
  905MOL0     H22163   3.832   9.941   3.899  0.3667 -0.3655  0.4319
  905MOL0     H22164   3.816  10.140   4.060  1.0668  1.6629  0.5928
  905MOL0     H22165   3.897  10.343   4.081 -3.6773  2.3088  0.7338
  905MOL0     H22166   3.825  10.319   4.231  0.1354  2.0422  0.1567
  905MOL0     H22167   3.963  10.474   4.339 -1.9516 -0.0345 -1.0054
  905MOL0     H22168   3.887  10.547   4.194  0.2505 -1.1614 -2.9555
  905MOL0     H22169   4.111  10.532   4.074  1.8054  2.4472 -0.3022
  905MOL0     H22170   4.163  10.448   4.211 -3.0901 -3.0508 -0.6134
  905MOL0     H22171   4.069  10.746   4.241  1.1730  1.2344 -0.6646
  905MOL0     H22172   4.227  10.701   4.184 -0.8582  0.7665 -1.9951
  905MOL0     H22173   4.243  10.639   4.589  0.8349 -0.0354 -0.3682
  905MOL0     H22174   4.243  10.128   4.125 -0.1032  1.2255  1.7348
  905MOL0     H22175   4.258   9.988   3.928  1.3034 -0.4659  2.1326
  906MOL0     O22176   0.216   3.026   1.844 -0.1689  0.4318  0.4198
  906MOL0     C22177   0.104   3.006   1.794 -0.1639  0.0297 -0.0559
  906MOL0     O22178  -0.011   2.961   1.863  0.2089 -0.6094  0.1037
  906MOL0     C22179  -0.029   2.929   1.994 -0.2884  0.7287 -1.0587
  906MOL0     C22180   0.032   2.994   2.104 -0.4588 -0.5691 -0.6255
  906MOL0     C22181   0.004   2.956   2.239 -0.4582 -0.2624 -0.2763
  906MOL0     C22182  -0.086   2.852   2.262 -1.3312 -0.7730 -0.0519
  906MOL0     O22183  -0.122   2.803   2.379 -0.1344 -0.1160  0.3720
  906MOL0     C22184  -0.055   2.849   2.495 -0.7366  0.2474  0.2148
  906MOL0     C22185  -0.095   2.751   2.611  0.6509  0.1436  0.8616
  906MOL0     C22186  -0.029   2.776   2.738 -0.2387  0.3978 -1.3242
  906MOL0     C22187   0.108   2.715   2.773 -1.0036 -0.4157 -0.3345
  906MOL0     C22188   0.211   2.734   2.653  0.1917  0.5654 -1.0998
  906MOL0     C22189   0.350   2.682   2.681 -0.0466 -0.5739  0.3859
  906MOL0     C22190   0.355   2.525   2.703  0.6417 -0.7756  0.0229
  906MOL0     C22191   0.496   2.472   2.728 -0.1864 -0.1041  1.1923
  906MOL0     N22192   0.563   2.534   2.846  0.1091 -0.0638 -0.3855
  906MOL0     C22193   0.558   2.479   2.972 -0.1927 -0.2477  1.5163
  906MOL0     C22194   0.648   2.550   3.042 -1.1343 -0.3979  0.8513
  906MOL0     C22195   0.681   2.545   3.194 -0.7888 -0.7817  0.2220
  906MOL0     C22196   0.567   2.602   3.261  0.1033  0.4680 -0.0541
  906MOL0     C22197   0.548   2.757   3.237  0.2301 -0.4864 -0.1017
  906MOL0     C22198   0.443   2.788   3.132  0.0670  0.4382 -0.3029
  906MOL0     O22199   0.438   2.931   3.114  0.5092 -0.4467  0.5290
  906MOL0     C22200   0.386   2.968   2.988  0.5407 -0.2586  1.4189
  906MOL0     C22201   0.260   3.023   2.967  0.1369 -0.1220 -0.7898
  906MOL0     C22202   0.215   3.081   2.850 -0.2681 -1.2068  0.2701
  906MOL0     C22203   0.093   3.166   2.848  1.9204 -0.2946 -0.0921
  906MOL0     C22204   0.302   3.078   2.730 -0.5726 -0.3565  0.6454
  906MOL0     C22205   0.257   3.118   2.589 -0.4515  1.2120 -0.0631
  906MOL0     O22206   0.329   3.204   2.509 -0.5719  0.4407  0.6990
  906MOL0     C22207   0.283   3.233   2.383 -0.3805 -0.3631 -0.3070
  906MOL0     C22208   0.160   3.299   2.363  0.2146 -0.1692 -0.1736
  906MOL0     C22209   0.125   3.334   2.232 -0.9806 -1.0287 -1.2652
  906MOL0     C22210   0.219   3.323   2.124 -0.2791  0.0615  0.2600
  906MOL0     O22211   0.204   3.380   2.003  0.4037  0.2914  0.5088
  906MOL0     C22212   0.086   3.467   1.992  0.1708  0.0931 -0.3441
  906MOL0     C22213   0.075   3.501   1.836 -1.1129 -0.2754  1.1916
  906MOL0     C22214  -0.067   3.553   1.809  0.6046 -1.1041  0.5039
  906MOL0     C22215  -0.084   3.702   1.856 -0.2843 -0.1376 -1.1564
  906MOL0     C22216  -0.205   3.764   1.791 -0.3849  0.0654 -0.9659
  906MOL0     C22217  -0.222   3.916   1.814  0.7267 -1.0773 -0.6055
  906MOL0     C22218  -0.370   3.953   1.757 -0.7363  0.0588 -0.2954
  906MOL0     C22219  -0.393   4.100   1.755  0.6088  0.0903  0.6218
  906MOL0    Cl22220  -0.556   4.097   1.687  0.3910  0.2449 -0.7822
  906MOL0     C22221   0.335   3.249   2.143 -1.0703 -1.0266  0.1082
  906MOL0     C22222   0.370   3.206   2.271  0.0828  0.4186 -0.0755
  906MOL0     O22223   0.151   3.067   2.558 -0.3201 -0.4764  0.7669
  906MOL0     C22224   0.431   3.025   2.750 -0.5233  0.3498  0.4400
  906MOL0     C22225   0.467   2.971   2.872  0.5350  0.4149 -1.2466
  906MOL0     N22226   0.702   2.646   2.955 -0.0713  0.2208 -0.0446
  906MOL0     N22227   0.645   2.640   2.834  0.4854  1.3173 -0.0387
  906MOL0     C22228  -0.145   2.801   2.154 -0.9317  0.5440 -1.1573
  906MOL0     C22229  -0.119   2.838   2.021  0.1134 -0.5165  0.8612
  906MOL0     C22230   0.101   3.000   1.645 -0.9997  0.4463  0.1558
  906MOL0     C22231  -0.017   2.965   1.582  0.5159  0.1606  1.0077
  906MOL0     C22232  -0.029   2.972   1.436  0.0329 -0.5295 -1.6818
  906MOL0     C22233   0.086   3.017   1.368  0.0819 -0.3832 -0.1954
  906MOL0     O22234   0.070   3.012   1.234  1.0982 -0.0230 -0.0974
  906MOL0     C22235   0.086   2.884   1.176  0.0233  0.2138  0.0922
  906MOL0     C22236   0.231   2.839   1.185  0.0087 -0.5726 -0.2364
  906MOL0     C22237   0.329   2.935   1.104 -0.7736  0.3618  0.9250
  906MOL0     C22238   0.469   2.888   1.135  0.7667 -0.0979 -0.8041
  906MOL0     C22239   0.566   2.937   1.038 -1.2343  0.1056  0.0169
  906MOL0     C22240   0.643   2.972   0.956  0.7181 -0.1120  0.4427
  906MOL0     C22241   0.202   3.056   1.427  1.4874  0.7214  0.1177
  906MOL0     C22242   0.216   3.038   1.561 -0.8065 -0.0443 -0.3940
  906MOL0     H22243   0.111   3.068   2.097  1.2759 -1.9088  2.7725
  906MOL0     H22244   0.052   3.007   2.322 -0.9027 -1.8297  1.0003
  906MOL0     H22245   0.053   2.858   2.479 -0.7403 -1.3581 -0.9676
  906MOL0     H22246  -0.083   2.953   2.515  2.5113  1.2817 -0.1477
  906MOL0     H22247  -0.200   2.760   2.640  1.3093  0.3395  3.4518
  906MOL0     H22248  -0.084   2.646   2.582  0.6440  0.0493  1.2021
  906MOL0     H22249  -0.016   2.885   2.747 -0.8484  0.2906  2.7814
  906MOL0     H22250  -0.086   2.758   2.829  0.7348  0.2903 -0.7221
  906MOL0     H22251   0.156   2.765   2.857 -2.4793 -0.5538  0.6310
  906MOL0     H22252   0.096   2.608   2.795  1.6487 -0.6242  0.4430
  906MOL0     H22253   0.180   2.687   2.559 -0.8203  0.0197 -0.5126
  906MOL0     H22254   0.221   2.841   2.635  2.0141  0.3262 -1.7067
  906MOL0     H22255   0.418   2.701   2.598  1.4678  0.2359  1.7536
  906MOL0     H22256   0.381   2.736   2.771  0.7920  2.9952 -1.8491
  906MOL0     H22257   0.284   2.495   2.781  0.6491 -1.8653 -0.3645
  906MOL0     H22258   0.333   2.490   2.602  2.1879  1.1541 -1.0565
  906MOL0     H22259   0.562   2.478   2.641  2.2941 -2.1422  2.7989
  906MOL0     H22260   0.474   2.366   2.744 -0.7425  0.2322  2.8627
  906MOL0     H22261   0.502   2.391   3.001  1.7876 -1.7044  1.2005
  906MOL0     H22262   0.705   2.444   3.229  0.5637 -0.6413 -0.2372
  906MOL0     H22263   0.765   2.607   3.226  1.2764 -4.4993  2.7665
  906MOL0     H22264   0.593   2.590   3.366 -1.0268  1.3754  0.3555
  906MOL0     H22265   0.480   2.541   3.234  0.8751  0.3989 -2.6568
  906MOL0     H22266   0.628   2.820   3.198 -3.6253  3.7483 -2.2007
  906MOL0     H22267   0.516   2.796   3.335 -2.0632 -3.2159  0.3679
  906MOL0     H22268   0.340   2.759   3.157 -0.6116  3.9507  1.5452
  906MOL0     H22269   0.469   2.737   3.038  1.6360  0.5974  0.0202
  906MOL0     H22270   0.205   3.024   3.061  1.0728 -0.2899 -0.2183
  906MOL0     H22271   0.094   3.227   2.757  2.0985 -2.9843 -2.0141
  906MOL0     H22272   0.009   3.095   2.848  1.1595  0.5386 -1.7367
  906MOL0     H22273   0.083   3.230   2.935  0.7621  0.3795 -0.6828
  906MOL0     H22274   0.101   3.319   2.452  0.6795  1.8629 -0.2819
  906MOL0     H22275   0.030   3.387   2.224 -0.2797  0.2678 -1.2881
  906MOL0     H22276  -0.003   3.415   2.027 -0.6734  1.3658 -0.5230
  906MOL0     H22277   0.100   3.557   2.053  2.3816  0.8658 -1.8325
  906MOL0     H22278   0.166   3.560   1.823  0.3597 -2.3077  1.6438
  906MOL0     H22279   0.085   3.403   1.788  1.4269  0.7565 -0.6356
  906MOL0     H22280  -0.147   3.491   1.849 -1.5441 -0.0515 -1.8467
  906MOL0     H22281  -0.083   3.546   1.701  0.8382  0.0758  0.3809
  906MOL0     H22282  -0.116   3.712   1.960 -0.6345 -1.6240 -1.1068
  906MOL0     H22283   0.005   3.765   1.843  1.2245 -0.9636  3.2608
  906MOL0     H22284  -0.293   3.707   1.820 -0.3190  0.8873  1.0500
  906MOL0     H22285  -0.191   3.745   1.685 -3.5542 -3.3666 -0.9585
  906MOL0     H22286  -0.217   3.942   1.920 -0.0865 -1.4290 -0.4821
  906MOL0     H22287  -0.164   3.958   1.731 -1.6343 -1.1466 -2.3724
  906MOL0     H22288  -0.445   3.893   1.808 -1.8166  0.6164 -1.1918
  906MOL0     H22289  -0.376   3.930   1.651  0.4434 -0.4772 -0.2646
  906MOL0     H22290  -0.321   4.150   1.690  0.2269 -0.4040 -0.1990
  906MOL0     H22291  -0.401   4.140   1.856 -1.3615 -0.5112  0.7514
  906MOL0     H22292   0.403   3.236   2.060  1.1484 -0.3549  1.7178
  906MOL0     H22293   0.458   3.145   2.289  0.2613  0.5901 -0.3771
  906MOL0     H22294   0.502   3.006   2.670 -2.2458  0.3060 -1.1546
  906MOL0     H22295   0.568   2.933   2.881  0.7591  1.5167  2.1795
  906MOL0     H22296  -0.203   2.716   2.189 -1.1385  1.4736  0.9053
  906MOL0     H22297  -0.152   2.773   1.941 -1.8357 -1.1950  2.1342
  906MOL0     H22298  -0.110   2.933   1.629  0.0087  2.6178  1.8012
  906MOL0     H22299  -0.122   2.931   1.398  0.8433 -1.1964 -3.0264
  906MOL0     H22300   0.018   2.807   1.214 -0.0717 -0.7159 -1.8452
  906MOL0     H22301   0.072   2.893   1.068 -1.2797  0.7793  0.2882
  906MOL0     H22302   0.244   2.741   1.140 -2.2645 -1.0595  0.0332
  906MOL0     H22303   0.270   2.809   1.283 -0.3361 -3.3268 -0.8760
  906MOL0     H22304   0.323   3.043   1.112  0.4408  1.2104 -4.9229
  906MOL0     H22305   0.316   2.912   0.998  2.1133  0.0294  0.5475
  906MOL0     H22306   0.479   2.779   1.142  1.9706  0.0608  0.3411
  906MOL0     H22307   0.505   2.926   1.231 -3.0198 -0.0092  0.7285
  906MOL0     H22308   0.712   3.010   0.883 -0.8435  0.1103 -0.9806
  906MOL0     H22309   0.277   3.091   1.357 -0.5646 -0.7350 -3.0401
  906MOL0     H22310   0.300   3.052   1.628 -0.9666 -0.6647 -0.0614
  907MOL0     O22311   2.180   9.350   6.008 -0.1527 -0.6865  0.5070
  907MOL0     C22312   2.213   9.453   6.064  0.0572  0.2694 -0.0661
  907MOL0     O22313   2.298   9.555   6.012  0.5507  0.1695  0.2596
  907MOL0     C22314   2.308   9.552   5.875 -0.1453  0.1111  0.3589
  907MOL0     C22315   2.211   9.616   5.798 -0.7952  0.5423 -0.1105
  907MOL0     C22316   2.221   9.617   5.656  0.9220 -0.1986 -1.0113
  907MOL0     C22317   2.326   9.543   5.599  0.4271 -0.3190 -0.2358
  907MOL0     O22318   2.325   9.534   5.467  0.6163 -0.4040  0.5592
  907MOL0     C22319   2.219   9.461   5.403 -0.1498  0.2474 -1.2658
  907MOL0     C22320   2.170   9.545   5.295  0.3527 -0.2626  0.6467
  907MOL0     C22321   2.034   9.476   5.255 -0.6915  0.3452  0.4179
  907MOL0     C22322   2.065   9.360   5.164  1.3358  1.4257 -0.2061
  907MOL0     C22323   1.921   9.298   5.134  0.1789  0.0006 -0.5597
  907MOL0     C22324   1.866   9.196   5.238  0.6456 -0.4866  0.0153
  907MOL0     C22325   1.728   9.149   5.191 -0.3675  0.4366  0.1696
  907MOL0     C22326   1.608   9.203   5.275 -0.6305 -0.3283 -0.0906
  907MOL0     N22327   1.606   9.347   5.273  0.6263  0.3479 -0.6878
  907MOL0     C22328   1.524   9.434   5.204 -0.3230 -0.0042  0.1772
  907MOL0     C22329   1.548   9.563   5.259 -0.1035  0.0849  0.2116
  907MOL0     C22330   1.490   9.694   5.230 -0.1924 -0.4662  0.4756
  907MOL0     C22331   1.352   9.696   5.294 -0.6629 -0.0387 -0.3245
  907MOL0     C22332   1.354   9.778   5.421  0.2229 -0.5441  0.2633
  907MOL0     C22333   1.225   9.772   5.514 -0.6057 -0.2054  1.0812
  907MOL0     O22334   1.258   9.851   5.625 -0.5312  0.4069  0.0522
  907MOL0     C22335   1.195   9.979   5.637  0.4158  0.9049  0.0636
  907MOL0     C22336   1.232  10.086   5.562 -0.5001  0.1489 -0.1218
  907MOL0     C22337   1.175  10.216   5.571 -0.3501 -0.2216 -0.3176
  907MOL0     C22338   1.229  10.318   5.476  0.0562  0.6378 -0.2559
  907MOL0     C22339   1.058  10.229   5.654  0.0275 -0.1472  0.4845
  907MOL0     C22340   0.987  10.364   5.680 -0.1327  0.3656 -0.4290
  907MOL0     O22341   0.869  10.348   5.741 -0.0580 -0.3333 -0.3428
  907MOL0     C22342   0.810  10.450   5.818 -0.0627  0.3068  0.1794
  907MOL0     C22343   0.890  10.502   5.918 -0.7768 -0.0675 -0.5092
  907MOL0     C22344   0.850  10.595   6.002 -0.0495  0.2979 -0.2420
  907MOL0     C22345   0.718  10.641   5.986 -0.4829 -1.1578 -0.7821
  907MOL0     O22346   0.649  10.744   6.063 -0.2677  0.5784 -0.0019
  907MOL0     C22347   0.749  10.832   6.121  0.4985  0.4384 -0.1093
  907MOL0     C22348   0.674  10.945   6.199 -0.4388  0.1702  0.4017
  907MOL0     C22349   0.769  11.043   6.273 -0.5666 -0.5939  0.0535
  907MOL0     C22350   0.681  11.175   6.304  0.5804 -0.9170  0.6011
  907MOL0     C22351   0.679  11.278   6.181  0.4856  0.9438 -0.0152
  907MOL0     C22352   0.595  11.394   6.227  0.1622 -0.4369  1.1221
  907MOL0     C22353   0.596  11.516   6.130  0.3325 -0.1834 -0.3869
  907MOL0     C22354   0.501  11.620   6.182 -0.0414  0.0484 -0.0264
  907MOL0    Cl22355   0.350  11.564   6.127  0.0524  0.4748  0.4131
  907MOL0     C22356   0.637  10.587   5.893 -1.0016 -0.0929  0.0404
  907MOL0     C22357   0.675  10.482   5.805 -0.6163 -0.3811  0.6639
  907MOL0     O22358   1.051  10.474   5.673 -0.0079  0.0583 -0.3272
  907MOL0     C22359   1.004  10.107   5.712  0.9664 -0.0588  0.5490
  907MOL0     C22360   1.083   9.986   5.707 -0.0057  0.7984 -0.0854
  907MOL0     N22361   1.645   9.546   5.351  0.4308 -0.2582  0.3906
  907MOL0     N22362   1.689   9.422   5.352  0.5639 -0.2825  0.1482
  907MOL0     C22363   2.420   9.482   5.675  0.3720 -0.2408  0.3215
  907MOL0     C22364   2.417   9.491   5.817  0.4034  1.0040 -0.5233
  907MOL0     C22365   2.191   9.451   6.206  0.6050  0.5935 -0.4106
  907MOL0     C22366   2.273   9.523   6.292 -0.4444  1.3721 -1.3811
  907MOL0     C22367   2.221   9.544   6.426  0.2171 -0.4258  0.1524
  907MOL0     C22368   2.100   9.501   6.475 -0.0460  0.6066  0.9420
  907MOL0     O22369   2.044   9.535   6.591 -0.0878  0.6471 -0.9986
  907MOL0     C22370   2.124   9.539   6.714  0.7095  0.3110  0.6644
  907MOL0     C22371   2.167   9.676   6.761 -0.3313  0.6684 -0.4167
  907MOL0     C22372   2.049   9.761   6.797 -0.2139  1.2426  0.2435
  907MOL0     C22373   1.950   9.697   6.897 -0.4481 -0.3792  0.4043
  907MOL0     C22374   2.028   9.654   7.011 -0.9192 -0.2216 -0.3508
  907MOL0     C22375   2.084   9.612   7.106  0.3319  0.5918 -0.3358
  907MOL0     C22376   2.019   9.435   6.382 -0.8161  1.1959 -0.1059
  907MOL0     C22377   2.072   9.400   6.258  0.3034  2.1788  0.4609
  907MOL0     H22378   2.130   9.662   5.854  0.3335  0.3261  1.8022
  907MOL0     H22379   2.143   9.667   5.599 -1.4150 -1.6342  0.7587
  907MOL0     H22380   2.260   9.366   5.367 -0.4929 -1.4906  2.4830
  907MOL0     H22381   2.145   9.429   5.476  0.8322  1.2607  0.2584
  907MOL0     H22382   2.143   9.642   5.338 -1.1562 -0.2141 -0.3301
  907MOL0     H22383   2.249   9.554   5.220  0.5871 -0.5648  0.8587
  907MOL0     H22384   1.984   9.446   5.348 -0.7669 -2.9242 -0.5741
  907MOL0     H22385   1.963   9.545   5.209 -0.0058  2.1228  1.8730
  907MOL0     H22386   2.133   9.388   5.083  2.1822  1.4191  0.4880
  907MOL0     H22387   2.126   9.279   5.206 -2.7639 -1.5176  0.7140
  907MOL0     H22388   1.853   9.383   5.128 -0.2201 -0.3419 -0.9630
  907MOL0     H22389   1.921   9.264   5.030 -0.3165  1.3189 -1.0107
  907MOL0     H22390   1.938   9.116   5.220 -0.0145 -1.3578  1.0912
  907MOL0     H22391   1.873   9.244   5.336 -2.4485 -0.9101  0.5664
  907MOL0     H22392   1.721   9.151   5.082  2.6122 -2.0895 -0.2456
  907MOL0     H22393   1.738   9.042   5.216  1.8014 -0.5004 -3.8347
  907MOL0     H22394   1.628   9.180   5.380 -0.5955  0.6041  0.1114
  907MOL0     H22395   1.512   9.161   5.245 -0.4213 -0.8928  0.0099
  907MOL0     H22396   1.446   9.414   5.131 -1.4172 -2.6251  1.8931
  907MOL0     H22397   1.558   9.775   5.254  0.9829 -1.3394  0.1557
  907MOL0     H22398   1.471   9.705   5.123 -1.5969 -1.9110  0.5395
  907MOL0     H22399   1.312   9.595   5.307  0.7742 -0.9100 -2.2409
  907MOL0     H22400   1.283   9.743   5.224  0.4057 -0.2723 -1.5602
  907MOL0     H22401   1.389   9.878   5.395  0.5185 -1.0514 -1.4386
  907MOL0     H22402   1.428   9.740   5.492 -0.1933  0.8291  1.4859
  907MOL0     H22403   1.215   9.667   5.544  2.2812 -0.7561  0.4520
  907MOL0     H22404   1.136   9.807   5.461  1.3198  1.5861 -1.1536
  907MOL0     H22405   1.322  10.070   5.504 -2.0920 -0.4942 -2.5679
  907MOL0     H22406   1.301  10.383   5.526  0.2709  0.3832 -0.2297
  907MOL0     H22407   1.284  10.264   5.398 -1.2221 -3.1881  1.2314
  907MOL0     H22408   1.149  10.373   5.427  1.1710  1.3409 -1.3622
  907MOL0     H22409   0.998  10.486   5.925 -0.2722  2.9346 -0.0043
  907MOL0     H22410   0.920  10.650   6.065  3.2453  1.1356 -4.1693
  907MOL0     H22411   0.816  10.777   6.187  1.8770 -0.0441 -1.8404
  907MOL0     H22412   0.817  10.874   6.046  0.4397  0.5263 -0.1151
  907MOL0     H22413   0.624  10.997   6.116  1.0837  2.1409  0.6802
  907MOL0     H22414   0.609  10.901   6.275 -1.9489  1.0690 -0.3135
  907MOL0     H22415   0.863  11.069   6.223  0.3337  0.0772  1.9690
  907MOL0     H22416   0.806  11.010   6.371  2.1492  2.0515  0.0691
  907MOL0     H22417   0.582  11.138   6.332  0.5619 -1.5924 -0.3200
  907MOL0     H22418   0.729  11.219   6.392  2.5879  1.2763 -1.4262
  907MOL0     H22419   0.645  11.235   6.086 -1.1109 -1.4531  1.5209
  907MOL0     H22420   0.780  11.312   6.158  0.2096  0.5815 -2.0193
  907MOL0     H22421   0.492  11.361   6.240 -0.4699  0.5485 -0.9413
  907MOL0     H22422   0.620  11.422   6.330 -1.6769 -2.5897  2.2379
  907MOL0     H22423   0.566  11.487   6.029  1.9039  3.8000 -2.2418
  907MOL0     H22424   0.699  11.552   6.139  0.6224 -1.2363  0.7179
  907MOL0     H22425   0.518  11.718   6.138 -3.6987  0.4003 -0.9298
  907MOL0     H22426   0.512  11.634   6.290  1.6807  2.1272 -0.4227
  907MOL0     H22427   0.537  10.629   5.894 -0.3460  1.5616  1.3595
  907MOL0     H22428   0.602  10.443   5.735 -0.3383 -0.3417  0.3469
  907MOL0     H22429   0.916  10.104   5.776  1.7165  0.0230  1.6002
  907MOL0     H22430   1.049   9.891   5.747 -0.9242  0.8704 -0.6615
  907MOL0     H22431   2.503   9.430   5.630  0.4101 -0.9209  1.1437
  907MOL0     H22432   2.485   9.451   5.892 -0.1903  3.2357  1.3051
  907MOL0     H22433   2.376   9.548   6.268  0.3593 -1.1673 -0.7904
  907MOL0     H22434   2.290   9.604   6.485  0.3716  1.7479 -2.0992
  907MOL0     H22435   2.070   9.476   6.785  2.8196 -2.5846 -0.1412
  907MOL0     H22436   2.218   9.484   6.712 -0.2834 -1.5952  2.3587
  907MOL0     H22437   2.219   9.717   6.674  2.4041 -1.1035  0.2614
  907MOL0     H22438   2.245   9.666   6.836  0.6904  0.1943 -1.5024
  907MOL0     H22439   1.990   9.778   6.706  1.1040 -1.1561 -1.1680
  907MOL0     H22440   2.068   9.861   6.837 -3.7417  1.8507  0.6632
  907MOL0     H22441   1.894   9.610   6.862  0.8700 -1.9914  2.0947
  907MOL0     H22442   1.877   9.772   6.930  1.1073  0.8238  1.2475
  907MOL0     H22443   2.140   9.588   7.194  1.8698 -1.7980 -1.8289
  907MOL0     H22444   1.918   9.404   6.407  0.1459 -1.2635  1.1051
  907MOL0     H22445   2.004   9.349   6.191  0.9588  1.8988  0.0052
  908MOL0     O22446   4.939   4.563   0.851 -0.0955 -0.2409  0.3163
  908MOL0     C22447   5.017   4.465   0.865  0.0405 -1.0664  0.5062
  908MOL0     O22448   5.153   4.469   0.844  0.1109 -0.3277  0.9230
  908MOL0     C22449   5.196   4.584   0.777 -0.5500 -0.5704 -0.0951
  908MOL0     C22450   5.212   4.699   0.851 -0.4017 -0.4336  0.0274
  908MOL0     C22451   5.264   4.816   0.787  0.2433  0.4687  0.0563
  908MOL0     C22452   5.286   4.815   0.650 -0.0506 -0.1402  1.2472
  908MOL0     O22453   5.355   4.917   0.598 -0.1584 -0.4145  0.5487
  908MOL0     C22454   5.369   4.931   0.453  0.1203 -0.2199  0.4178
  908MOL0     C22455   5.238   4.960   0.385 -0.1051 -0.4830 -0.0636
  908MOL0     C22456   5.247   5.002   0.240 -0.6091  0.7565 -1.1249
  908MOL0     C22457   5.114   5.013   0.167  0.9781  0.2260  0.7016
  908MOL0     C22458   5.134   4.998   0.016  0.1459 -0.0897 -0.6115
  908MOL0     C22459   5.008   5.020  -0.063  0.5134 -0.2297  0.2483
  908MOL0     C22460   4.897   4.912  -0.038 -0.5386 -1.3943  0.6324
  908MOL0     C22461   4.795   4.926  -0.150 -0.0922 -0.1663  0.0553
  908MOL0     N22462   4.692   4.819  -0.124  0.6228 -0.5669  0.1432
  908MOL0     C22463   4.591   4.829  -0.029 -0.1096 -0.2586 -0.0881
  908MOL0     C22464   4.525   4.710  -0.046  0.8308  0.9319 -0.3749
  908MOL0     C22465   4.403   4.671   0.038  0.2336  0.3093 -0.2090
  908MOL0     C22466   4.267   4.660  -0.031 -0.2887  0.1059 -0.4594
  908MOL0     C22467   4.164   4.571   0.038  0.5359 -0.4593 -0.4206
  908MOL0     C22468   4.038   4.534  -0.039  0.3343 -0.3456 -0.5256
  908MOL0     O22469   4.067   4.416  -0.118  0.2118  0.2696 -1.5941
  908MOL0     C22470   3.995   4.304  -0.106  0.6751  0.7630  0.6312
  908MOL0     C22471   3.851   4.296  -0.087  0.5019 -0.3636 -1.3243
  908MOL0     C22472   3.787   4.176  -0.070 -0.6962  0.2047 -0.9231
  908MOL0     C22473   3.643   4.185  -0.031  0.3344 -0.3695  0.0639
  908MOL0     C22474   3.856   4.053  -0.093  0.0578  0.2375 -0.6765
  908MOL0     C22475   3.796   3.912  -0.074 -0.6618 -0.4978  0.8372
  908MOL0     O22476   3.868   3.803  -0.123  0.5562  0.2812 -0.5985
  908MOL0     C22477   3.803   3.686  -0.143  0.2483 -0.3107 -0.7853
  908MOL0     C22478   3.767   3.595  -0.043 -0.2669  0.1085 -0.6218
  908MOL0     C22479   3.694   3.475  -0.075 -0.3291  0.8175  0.5158
  908MOL0     C22480   3.662   3.443  -0.208  1.1974  0.0143  0.3091
  908MOL0     O22481   3.578   3.336  -0.244 -0.3603  0.3131 -0.1837
  908MOL0     C22482   3.557   3.235  -0.132 -0.4246 -0.2502 -0.1412
  908MOL0     C22483   3.456   3.125  -0.178 -0.0260 -1.5827 -0.1898
  908MOL0     C22484   3.526   3.054  -0.294 -0.0031  0.4107  0.0859
  908MOL0     C22485   3.451   2.935  -0.359  0.1332 -0.2073 -0.0676
  908MOL0     C22486   3.518   2.893  -0.489 -0.5215  0.6689 -0.2199
  908MOL0     C22487   3.448   2.769  -0.546  0.4200 -1.0354  1.1047
  908MOL0     C22488   3.505   2.751  -0.688  0.1261  0.2730 -0.2180
  908MOL0     C22489   3.478   2.606  -0.753  0.7195 -0.6028 -0.3968
  908MOL0    Cl22490   3.305   2.556  -0.718  0.1252  0.3244 -0.1427
  908MOL0     C22491   3.710   3.529  -0.306  0.0111  0.2319 -0.0706
  908MOL0     C22492   3.774   3.651  -0.282 -0.6089 -0.7372 -0.7387
  908MOL0     O22493   3.680   3.908  -0.034  1.6408  0.0914  0.0171
  908MOL0     C22494   3.990   4.057  -0.124  0.8427  0.1777 -0.4633
  908MOL0     C22495   4.058   4.181  -0.136  0.4166 -0.7227 -0.0816
  908MOL0     N22496   4.575   4.640  -0.148  0.9214 -0.2067  0.9278
  908MOL0     N22497   4.663   4.714  -0.201  0.0203  0.1139  0.3942
  908MOL0     C22498   5.257   4.699   0.575  0.5656 -0.8982  0.8271
  908MOL0     C22499   5.219   4.585   0.638 -0.3980  0.3822 -0.9192
  908MOL0     C22500   4.971   4.327   0.902  0.2534 -0.2313  0.5411
  908MOL0     C22501   4.857   4.309   0.986 -0.0964  0.1458  0.4340
  908MOL0     C22502   4.818   4.183   1.036 -0.5678  0.0201  0.1894
  908MOL0     C22503   4.907   4.071   1.001 -0.2489  0.0873 -0.4639
  908MOL0     O22504   4.877   3.948   1.053 -0.4539  0.7050 -0.6520
  908MOL0     C22505   4.869   3.840   0.957  0.9992  0.5555  0.3426
  908MOL0     C22506   4.787   3.730   1.028 -0.4736 -0.2755 -0.3629
  908MOL0     C22507   4.649   3.766   1.060 -0.1670 -0.0830  0.5758
  908MOL0     C22508   4.578   3.674   1.155  0.2963 -0.0697 -0.2272
  908MOL0     C22509   4.434   3.683   1.175 -0.4322  0.8124  0.7405
  908MOL0     C22510   4.314   3.700   1.196 -0.7760 -0.0156 -0.2814
  908MOL0     C22511   5.012   4.090   0.921 -0.6417  0.1035 -0.3309
  908MOL0     C22512   5.053   4.217   0.873  0.4328 -0.0100  0.6330
  908MOL0     H22513   5.186   4.691   0.957  0.9649 -0.7336  0.3576
  908MOL0     H22514   5.295   4.895   0.854 -2.2611 -0.1984  2.1719
  908MOL0     H22515   5.417   5.029   0.439  0.7492 -0.4150  1.1836
  908MOL0     H22516   5.427   4.859   0.393  2.9425  1.8631  0.4254
  908MOL0     H22517   5.174   4.872   0.386 -0.0434 -0.5298 -0.2259
  908MOL0     H22518   5.206   5.056   0.426  1.3158  1.3028 -2.7822
  908MOL0     H22519   5.300   5.098   0.234 -0.8051  1.0612  1.1987
  908MOL0     H22520   5.314   4.927   0.196  5.4222  3.1551  2.6380
  908MOL0     H22521   5.038   4.938   0.192 -0.4001  0.6105 -2.0111
  908MOL0     H22522   5.061   5.104   0.198  1.0456  0.7887 -0.7924
  908MOL0     H22523   5.206   5.075  -0.013 -1.3276  1.6596  0.1073
  908MOL0     H22524   5.170   4.898  -0.007  0.2912 -0.1995  0.0887
  908MOL0     H22525   4.978   5.125  -0.053 -3.2564 -1.0372 -1.1891
  908MOL0     H22526   5.035   5.027  -0.168 -0.7369  1.5355 -0.0072
  908MOL0     H22527   4.941   4.812  -0.035 -0.7966 -1.6296 -1.6488
  908MOL0     H22528   4.834   4.944   0.045 -0.4386  1.0223 -0.1511
  908MOL0     H22529   4.833   4.901  -0.249 -1.7973 -2.8097 -0.0335
  908MOL0     H22530   4.760   5.030  -0.143  0.9082  0.0668  3.3515
  908MOL0     H22531   4.577   4.913   0.037  3.3026  1.2989 -1.0989
  908MOL0     H22532   4.413   4.569   0.078 -0.9520  0.0368 -0.5679
  908MOL0     H22533   4.410   4.735   0.127  3.5913 -1.1540  0.7291
  908MOL0     H22534   4.283   4.630  -0.135  0.7043 -0.1848 -0.2326
  908MOL0     H22535   4.230   4.762  -0.045 -4.4915 -1.5887 -3.9629
  908MOL0     H22536   4.133   4.639   0.118  4.8968  0.2322  0.9868
  908MOL0     H22537   4.207   4.480   0.080  0.9608 -0.3387 -0.5900
  908MOL0     H22538   4.016   4.621  -0.101  1.1479  1.8435  2.0596
  908MOL0     H22539   3.954   4.517   0.029  0.2568  0.7667 -0.3300
  908MOL0     H22540   3.796   4.389  -0.080  0.2699 -0.0600 -5.1390
  908MOL0     H22541   3.625   4.157   0.073 -0.5207  0.4659  0.1579
  908MOL0     H22542   3.606   4.284  -0.058 -3.6515 -1.3163  1.3313
  908MOL0     H22543   3.578   4.121  -0.092 -0.5273  0.1103  0.4513
  908MOL0     H22544   3.809   3.621   0.054  2.1682  0.9082 -1.8093
  908MOL0     H22545   3.683   3.407   0.010 -1.2440  0.9811  0.5346
  908MOL0     H22546   3.647   3.176  -0.116 -0.3073  0.2608  1.1563
  908MOL0     H22547   3.534   3.279  -0.035  1.3227  0.5889 -0.0827
  908MOL0     H22548   3.419   3.060  -0.099 -6.2752 -1.1379 -2.2050
  908MOL0     H22549   3.367   3.175  -0.217  2.0838  0.1061 -3.3196
  908MOL0     H22550   3.625   3.019  -0.263  2.0930  2.3772 -3.7024
  908MOL0     H22551   3.564   3.128  -0.365  2.7057  0.5730  1.5628
  908MOL0     H22552   3.446   2.855  -0.285 -1.0385  1.2449  1.4850
  908MOL0     H22553   3.345   2.958  -0.367 -0.2098 -0.2572  3.2616
  908MOL0     H22554   3.620   2.860  -0.469 -0.3139  1.7396  0.5537
  908MOL0     H22555   3.523   2.972  -0.564 -0.7290 -1.1212 -2.2028
  908MOL0     H22556   3.451   2.682  -0.479 -3.0818 -1.6314  0.6661
  908MOL0     H22557   3.341   2.788  -0.554 -0.3043 -4.9117 -0.6976
  908MOL0     H22558   3.614   2.761  -0.694 -0.0671  4.6229  0.2950
  908MOL0     H22559   3.470   2.828  -0.758  1.9270  0.0355 -1.4334
  908MOL0     H22560   3.550   2.533  -0.715 -0.1650 -1.2661  0.0438
  908MOL0     H22561   3.500   2.608  -0.860 -2.1323  2.3177 -1.1139
  908MOL0     H22562   3.685   3.503  -0.408  1.9245  1.9564 -1.0640
  908MOL0     H22563   3.796   3.716  -0.366 -2.9321  0.6442 -0.3589
  908MOL0     H22564   4.057   3.973  -0.136  0.6468 -0.1669  0.6607
  908MOL0     H22565   4.164   4.193  -0.156  0.8910 -1.7556  1.5800
  908MOL0     H22566   5.275   4.699   0.468  2.7209  1.3694  1.1069
  908MOL0     H22567   5.191   4.495   0.584  1.5040  0.9901 -3.0787
  908MOL0     H22568   4.795   4.397   0.999  2.6133  2.3259 -0.4640
  908MOL0     H22569   4.720   4.155   1.075 -0.4902 -3.7555 -1.9487
  908MOL0     H22570   4.816   3.874   0.868  0.9428 -1.1270 -0.3038
  908MOL0     H22571   4.971   3.812   0.931  0.9226  1.1697 -0.6414
  908MOL0     H22572   4.838   3.707   1.122  2.6194 -0.8152 -2.0267
  908MOL0     H22573   4.782   3.639   0.967 -1.3060 -0.2377 -0.3611
  908MOL0     H22574   4.600   3.780   0.963  2.5879 -0.5166 -0.9962
  908MOL0     H22575   4.646   3.860   1.115 -2.3842  0.2965 -0.1031
  908MOL0     H22576   4.633   3.689   1.248  2.5295  1.8220 -1.7233
  908MOL0     H22577   4.600   3.570   1.129  2.2636 -0.1866  1.6709
  908MOL0     H22578   4.209   3.718   1.210 -1.2960 -1.4545 -2.0020
  908MOL0     H22579   5.070   4.005   0.885 -1.2521 -0.4452 -0.0383
  908MOL0     H22580   5.132   4.234   0.801  0.1580 -3.3288 -0.6119
  909MOL0     O22581   3.103   3.970   6.882 -0.1356 -0.0900 -0.4742
  909MOL0     C22582   3.073   3.880   6.799 -0.2385  0.4084 -0.6884
  909MOL0     O22583   3.142   3.762   6.788  0.2658 -0.4788  0.7514
  909MOL0     C22584   3.195   3.714   6.901 -0.0763 -0.2005  0.5725
  909MOL0     C22585   3.116   3.723   7.018 -0.3080  0.8303  0.9006
  909MOL0     C22586   3.170   3.654   7.135  0.6559  1.2228  0.1554
  909MOL0     C22587   3.293   3.574   7.124  0.6288 -0.0788  0.0198
  909MOL0     O22588   3.329   3.514   7.238 -0.2095 -0.4147 -0.0624
  909MOL0     C22589   3.475   3.479   7.252 -0.1743 -0.6606  0.3968
  909MOL0     C22590   3.492   3.331   7.210 -0.4208  0.1400  0.8098
  909MOL0     C22591   3.417   3.240   7.308 -0.4734  1.4507  0.5385
  909MOL0     C22592   3.473   3.098   7.314  0.0394  0.6421  0.0633
  909MOL0     C22593   3.581   3.084   7.419 -1.0308 -0.4205  0.0419
  909MOL0     C22594   3.582   2.944   7.484 -0.0602 -0.0072  0.8264
  909MOL0     C22595   3.616   2.832   7.378 -0.1626 -0.2965  1.3901
  909MOL0     C22596   3.759   2.831   7.317  0.2091 -0.1764  0.0800
  909MOL0     N22597   3.869   2.817   7.411  0.2449 -0.5440 -0.3774
  909MOL0     C22598   3.883   2.712   7.491  0.3438 -0.4405 -1.1169
  909MOL0     C22599   4.005   2.718   7.559  0.4015 -1.2300  0.1448
  909MOL0     C22600   4.046   2.611   7.657 -0.5749  1.0115  0.2853
  909MOL0     C22601   4.121   2.505   7.581 -0.2644  0.3870 -0.3974
  909MOL0     C22602   4.173   2.398   7.694 -0.0727 -0.5806 -0.1590
  909MOL0     C22603   4.300   2.335   7.652 -0.4357 -0.1803 -0.3612
  909MOL0     O22604   4.285   2.234   7.549  0.0465 -0.7830 -0.1158
  909MOL0     C22605   4.395   2.170   7.504 -0.9522 -0.0117  0.8933
  909MOL0     C22606   4.529   2.196   7.549 -0.2293  0.5140  0.5195
  909MOL0     C22607   4.632   2.129   7.495  0.7812 -0.4750  0.3392
  909MOL0     C22608   4.763   2.158   7.555 -0.1354 -0.8534 -0.0432
  909MOL0     C22609   4.616   2.024   7.404  0.5986 -0.1432 -0.1896
  909MOL0     C22610   4.723   1.934   7.367  0.0219 -0.2348 -0.6059
  909MOL0     O22611   4.847   1.981   7.374 -0.5569 -0.0469 -0.1534
  909MOL0     C22612   4.939   1.887   7.359  0.7051  0.6183 -0.5731
  909MOL0     C22613   5.006   1.845   7.479  0.0702 -0.0567 -0.5502
  909MOL0     C22614   5.111   1.757   7.481  0.7150  1.4422 -0.4269
  909MOL0     C22615   5.156   1.690   7.372  0.3789 -0.3197  0.3715
  909MOL0     O22616   5.261   1.604   7.385 -0.0787  0.5142 -0.6384
  909MOL0     C22617   5.306   1.540   7.269  0.1760  0.0608 -0.6674
  909MOL0     C22618   5.424   1.439   7.286 -0.2995  0.2520  0.3531
  909MOL0     C22619   5.562   1.501   7.316 -0.2215 -0.4711  0.3048
  909MOL0     C22620   5.663   1.416   7.398  0.1529 -0.0996  0.3155
  909MOL0     C22621   5.727   1.304   7.312  0.2910  0.7488  0.9461
  909MOL0     C22622   5.822   1.208   7.385 -0.3580  0.2372 -0.6122
  909MOL0     C22623   5.923   1.124   7.302 -0.3327  1.1829  1.0937
  909MOL0     C22624   5.876   1.101   7.157 -0.2211 -0.0506 -0.1862
  909MOL0    Cl22625   5.959   0.950   7.102  0.3567 -0.1380 -0.2438
  909MOL0     C22626   5.089   1.717   7.252 -0.0102 -0.7810  0.6956
  909MOL0     C22627   4.982   1.817   7.240 -0.2103  0.9417  0.4953
  909MOL0     O22628   4.691   1.815   7.346 -0.4105  0.1054  0.1010
  909MOL0     C22629   4.486   1.997   7.348  0.1441 -0.5559  0.1469
  909MOL0     C22630   4.385   2.066   7.412 -0.6724  0.0611  0.5008
  909MOL0     N22631   4.081   2.815   7.488  0.7387 -0.8915  0.0546
  909MOL0     N22632   3.985   2.885   7.422 -0.1768  0.1782 -0.0841
  909MOL0     C22633   3.361   3.575   6.999 -0.8504 -0.1839 -0.0919
  909MOL0     C22634   3.307   3.639   6.881  0.1059 -0.1071 -0.9718
  909MOL0     C22635   2.962   3.903   6.706  0.0204 -0.0134  0.0874
  909MOL0     C22636   2.928   3.835   6.589  0.1379 -0.2565 -0.5893
  909MOL0     C22637   2.814   3.863   6.525  0.1246 -0.5644  0.8644
  909MOL0     C22638   2.722   3.963   6.566  0.0096 -0.2652  0.5810
  909MOL0     O22639   2.606   3.980   6.486  0.5399  0.2281  0.0534
  909MOL0     C22640   2.500   4.057   6.554 -0.1613  0.6961  0.1776
  909MOL0     C22641   2.496   4.204   6.511  0.8237 -0.6460 -0.9284
  909MOL0     C22642   2.368   4.269   6.570  0.0434 -0.5082  0.6105
  909MOL0     C22643   2.366   4.415   6.613 -0.0431 -0.1679  0.7255
  909MOL0     C22644   2.308   4.505   6.514  0.4175 -0.2010  0.6281
  909MOL0     C22645   2.283   4.593   6.438  0.4480  0.5413  0.8435
  909MOL0     C22646   2.755   4.035   6.676 -0.8403 -0.7246 -0.8981
  909MOL0     C22647   2.868   3.996   6.751  0.3078 -0.4761  0.3455
  909MOL0     H22648   3.017   3.761   7.037 -0.2987 -0.4301  4.2969
  909MOL0     H22649   3.123   3.650   7.233 -0.8553 -0.7501 -0.5821
  909MOL0     H22650   3.535   3.544   7.187 -0.2179 -0.2673  0.7448
  909MOL0     H22651   3.497   3.492   7.359  1.5229  1.5424 -0.1316
  909MOL0     H22652   3.450   3.320   7.109  0.9101 -2.5539  0.4318
  909MOL0     H22653   3.596   3.295   7.214 -1.3349 -3.0477 -0.5679
  909MOL0     H22654   3.398   3.276   7.410  1.7819  0.1555  1.4981
  909MOL0     H22655   3.321   3.227   7.257  0.6498 -0.0282 -1.3398
  909MOL0     H22656   3.386   3.038   7.341 -0.6119  1.6562  0.2940
  909MOL0     H22657   3.512   3.064   7.218  1.5831  2.4740 -0.0216
  909MOL0     H22658   3.676   3.118   7.378 -2.3403  1.7668 -1.3526
  909MOL0     H22659   3.564   3.150   7.505  0.0731 -1.9939  1.5389
  909MOL0     H22660   3.645   2.945   7.574  0.3438 -0.8450  0.5634
  909MOL0     H22661   3.478   2.922   7.508 -1.2269  3.0323 -1.0106
  909MOL0     H22662   3.602   2.738   7.433 -3.1919 -0.5097  0.4257
  909MOL0     H22663   3.537   2.828   7.303  0.8632  0.7208  0.2163
  909MOL0     H22664   3.781   2.928   7.272  0.1099  0.5356  1.5125
  909MOL0     H22665   3.761   2.749   7.244 -3.0179 -1.2598  1.0153
  909MOL0     H22666   3.806   2.637   7.505  0.6263 -1.0979 -2.8701
  909MOL0     H22667   4.108   2.666   7.729  0.8416  1.3740 -1.1602
  909MOL0     H22668   3.966   2.559   7.711 -1.9130  0.1510 -2.3848
  909MOL0     H22669   4.208   2.539   7.525 -0.7247 -3.1342 -3.7064
  909MOL0     H22670   4.056   2.461   7.504  1.7099 -2.8052 -0.4262
  909MOL0     H22671   4.103   2.317   7.716  1.0674 -1.6916 -0.4984
  909MOL0     H22672   4.185   2.444   7.792 -0.8072  1.5081 -0.9941
  909MOL0     H22673   4.340   2.287   7.743 -0.4089  1.5524  0.5806
  909MOL0     H22674   4.378   2.406   7.624  0.6638 -0.8812  0.8138
  909MOL0     H22675   4.547   2.289   7.603 -1.4159 -0.0392  1.9451
  909MOL0     H22676   4.794   2.075   7.619 -0.0967 -0.8832 -0.1007
  909MOL0     H22677   4.834   2.182   7.475 -0.9902 -0.7406 -0.7761
  909MOL0     H22678   4.771   2.248   7.616  0.8132 -0.4691 -0.7073
  909MOL0     H22679   4.981   1.903   7.568  0.0516 -0.2188 -0.4484
  909MOL0     H22680   5.145   1.734   7.582 -1.8828  2.4176  0.7614
  909MOL0     H22681   5.226   1.484   7.220  1.3046 -1.6635 -0.6519
  909MOL0     H22682   5.348   1.623   7.213  0.5812 -0.8998 -1.8328
  909MOL0     H22683   5.404   1.354   7.352  1.0217 -0.5393 -0.2167
  909MOL0     H22684   5.431   1.385   7.191 -0.1675 -0.0745  0.5466
  909MOL0     H22685   5.548   1.594   7.371  1.7300 -0.0987  0.2745
  909MOL0     H22686   5.608   1.539   7.225 -2.4522 -0.8356 -1.0471
  909MOL0     H22687   5.750   1.474   7.431  3.0564 -2.3561 -2.5902
  909MOL0     H22688   5.617   1.375   7.488  0.0837 -0.6360  0.0439
  909MOL0     H22689   5.771   1.339   7.218  2.5948 -2.7945  0.5009
  909MOL0     H22690   5.644   1.239   7.285  0.9345  0.4068 -0.3020
  909MOL0     H22691   5.885   1.257   7.460  1.9451 -2.8700 -0.3029
  909MOL0     H22692   5.753   1.147   7.443  0.0260  1.1278  0.8517
  909MOL0     H22693   5.933   1.024   7.344 -1.2601  0.3477 -0.5763
  909MOL0     H22694   6.018   1.178   7.302  1.1307 -1.2834  1.0348
  909MOL0     H22695   5.904   1.180   7.086  2.1728  0.2722  1.0258
  909MOL0     H22696   5.771   1.071   7.160 -0.3570  0.3831 -0.4567
  909MOL0     H22697   5.127   1.668   7.163  1.5815 -0.3946  1.1354
  909MOL0     H22698   4.934   1.847   7.147 -1.2582 -0.8747  0.3866
  909MOL0     H22699   4.460   1.923   7.273 -4.4125 -0.9578  1.7641
  909MOL0     H22700   4.287   2.055   7.366  0.6551 -0.5580 -2.4125
  909MOL0     H22701   3.455   3.522   6.999 -0.7363 -0.0306  1.6469
  909MOL0     H22702   3.360   3.634   6.787  2.1422 -0.6827  0.1613
  909MOL0     H22703   2.984   3.754   6.543  1.4992  0.5582 -0.4219
  909MOL0     H22704   2.789   3.813   6.432  2.4362  1.8907 -1.2469
  909MOL0     H22705   2.406   4.010   6.524 -0.0743  0.4240  0.3333
  909MOL0     H22706   2.508   4.042   6.662 -1.2983 -1.3270  0.0288
  909MOL0     H22707   2.482   4.205   6.403 -1.9550  0.7265 -0.6276
  909MOL0     H22708   2.587   4.256   6.542  0.4082 -1.8414  2.8153
  909MOL0     H22709   2.323   4.216   6.654 -1.5060  0.5336  0.4766
  909MOL0     H22710   2.287   4.265   6.495  0.8893 -2.4736 -0.2794
  909MOL0     H22711   2.470   4.449   6.616 -0.2290  0.3621  1.7508
  909MOL0     H22712   2.316   4.415   6.710 -4.1724  0.5376 -1.1874
  909MOL0     H22713   2.282   4.678   6.373  1.5356 -0.1297 -0.0887
  909MOL0     H22714   2.706   4.125   6.713  1.2123  0.2499 -0.3957
  909MOL0     H22715   2.889   4.069   6.829 -0.8703  1.8669 -1.3951
  910MOL0     O22716   8.196   4.932   3.392  0.2679 -0.5620  0.6512
  910MOL0     C22717   8.305   4.961   3.423 -0.0634 -0.3237  0.7302
  910MOL0     O22718   8.364   5.080   3.400 -0.0581 -0.6146 -0.1909
  910MOL0     C22719   8.287   5.182   3.345  0.9024  0.5332  1.2343
  910MOL0     C22720   8.303   5.207   3.211  0.8656  0.0391  0.1637
  910MOL0     C22721   8.230   5.305   3.149  0.5706  0.1842 -0.5308
  910MOL0     C22722   8.121   5.369   3.218  0.8327 -0.4836  0.3490
  910MOL0     O22723   8.034   5.464   3.161  0.5970 -0.1170  0.1562
  910MOL0     C22724   8.029   5.485   3.022  0.6519  0.1750  0.2681
  910MOL0     C22725   7.898   5.540   2.988 -0.3929  0.1559 -0.9509
  910MOL0     C22726   7.899   5.693   3.006 -0.5134  0.3318 -0.4508
  910MOL0     C22727   7.765   5.744   2.959 -0.3550 -0.4712  1.1588
  910MOL0     C22728   7.766   5.895   2.977  0.4204 -0.5393  1.4368
  910MOL0     C22729   7.622   5.959   2.957 -0.6100 -0.1255  0.1012
  910MOL0     C22730   7.560   5.924   2.816 -0.2495  0.7160  0.2132
  910MOL0     C22731   7.409   5.976   2.812 -0.5917 -0.1938  0.1513
  910MOL0     N22732   7.321   5.868   2.851  0.6167  0.5217  0.4605
  910MOL0     C22733   7.300   5.815   2.980 -0.3830 -0.4571 -0.2779
  910MOL0     C22734   7.198   5.724   2.959  0.4368 -0.1568 -0.9137
  910MOL0     C22735   7.125   5.627   3.057 -0.9085 -0.4395  0.6821
  910MOL0     C22736   7.059   5.708   3.172  0.5965 -0.0561 -0.6113
  910MOL0     C22737   6.922   5.779   3.155  0.9223  0.1633 -0.9576
  910MOL0     C22738   6.893   5.855   3.293  0.1345 -0.5429 -0.0779
  910MOL0     O22739   6.847   5.782   3.404  0.3472  0.2417 -0.0818
  910MOL0     C22740   6.721   5.774   3.430  0.0571  0.2728  0.6706
  910MOL0     C22741   6.686   5.668   3.513  0.1864 -0.4399 -0.3785
  910MOL0     C22742   6.550   5.649   3.552  1.3214 -0.0739  0.3368
  910MOL0     C22743   6.526   5.553   3.675  0.4070  0.2786  0.8654
  910MOL0     C22744   6.445   5.718   3.473 -0.5789  0.4188 -0.4340
  910MOL0     C22745   6.299   5.700   3.490 -1.1197 -1.1363 -0.1854
  910MOL0     O22746   6.215   5.785   3.436  0.0552 -0.5356  0.5159
  910MOL0     C22747   6.083   5.742   3.409 -0.1048  0.6764  0.5016
  910MOL0     C22748   5.972   5.827   3.425  0.1384  0.5809  0.5291
  910MOL0     C22749   5.843   5.781   3.413  0.0866  0.2165  0.4166
  910MOL0     C22750   5.811   5.648   3.371 -0.6838  0.0600 -0.0454
  910MOL0     O22751   5.691   5.607   3.333 -0.0016  0.7452  0.7533
  910MOL0     C22752   5.573   5.689   3.348 -0.5622  0.1268  0.2084
  910MOL0     C22753   5.451   5.637   3.281  0.5882 -0.8917  0.1854
  910MOL0     C22754   5.400   5.501   3.340 -0.2516  0.6971  0.9768
  910MOL0     C22755   5.259   5.472   3.276 -0.3864 -0.1956  0.4778
  910MOL0     C22756   5.181   5.362   3.345  0.5546  0.1242  1.0872
  910MOL0     C22757   5.044   5.319   3.278  0.3430 -0.4034  0.8256
  910MOL0     C22758   4.970   5.235   3.379 -0.0128 -0.5137  0.1409
  910MOL0     C22759   4.854   5.154   3.319  0.6179 -0.5784 -0.6505
  910MOL0    Cl22760   4.904   5.015   3.200  0.4190 -0.1024 -0.0148
  910MOL0     C22761   5.925   5.572   3.330 -0.0927  0.0954 -1.0028
  910MOL0     C22762   6.055   5.621   3.350  1.4024 -0.0498  0.1005
  910MOL0     O22763   6.256   5.607   3.561  0.0757 -0.7675  0.0165
  910MOL0     C22764   6.486   5.816   3.385  0.2414  0.5496  1.1116
  910MOL0     C22765   6.620   5.840   3.361  0.0544  0.2572  0.0488
  910MOL0     N22766   7.148   5.729   2.827 -0.0561  0.9923 -0.4097
  910MOL0     N22767   7.226   5.814   2.768  0.1845 -0.1195 -0.7834
  910MOL0     C22768   8.098   5.334   3.348  0.2539 -0.7423  0.4109
  910MOL0     C22769   8.185   5.244   3.423 -0.1499  0.1138 -0.0491
  910MOL0     C22770   8.371   4.866   3.523  0.2286 -0.6530 -0.8212
  910MOL0     C22771   8.497   4.897   3.567  0.3908 -0.4211  1.3438
  910MOL0     C22772   8.559   4.818   3.659  0.3474  1.1179 -0.5990
  910MOL0     C22773   8.493   4.703   3.716 -0.0453  0.1002  0.4072
  910MOL0     O22774   8.557   4.612   3.797 -0.1885  0.0376  0.9962
  910MOL0     C22775   8.501   4.580   3.924 -0.3442  0.1296  0.7032
  910MOL0     C22776   8.542   4.660   4.044 -0.1299 -0.7078  0.0439
  910MOL0     C22777   8.591   4.803   4.020 -0.0320 -0.3937  0.9053
  910MOL0     C22778   8.590   4.897   4.137 -1.0200  0.6932 -0.3420
  910MOL0     C22779   8.673   4.842   4.243  1.1211  0.6062 -0.5907
  910MOL0     C22780   8.746   4.803   4.334 -0.0075 -0.2257  0.1380
  910MOL0     C22781   8.366   4.673   3.668 -0.1702  0.4437  0.5189
  910MOL0     C22782   8.302   4.756   3.581  0.1024  0.4343 -0.4870
  910MOL0     H22783   8.373   5.140   3.162 -0.7367 -1.2402 -0.4645
  910MOL0     H22784   8.240   5.302   3.041  3.0014 -3.6095 -0.4003
  910MOL0     H22785   8.103   5.553   2.979 -1.0954  2.1260  0.1742
  910MOL0     H22786   8.027   5.396   2.958 -2.5077 -0.2758  0.8227
  910MOL0     H22787   7.876   5.510   2.885  0.6265 -0.7175 -0.9255
  910MOL0     H22788   7.831   5.482   3.051 -0.1772  0.2049 -0.6753
  910MOL0     H22789   7.928   5.717   3.108  1.2337 -0.4228 -0.7314
  910MOL0     H22790   7.972   5.734   2.936  0.6742  1.7805  1.5474
  910MOL0     H22791   7.765   5.725   2.852  1.1967  0.9460  0.8729
  910MOL0     H22792   7.686   5.691   3.012  1.8096 -1.7680  3.3004
  910MOL0     H22793   7.798   5.927   3.076  2.0687  3.3548 -0.1309
  910MOL0     H22794   7.840   5.942   2.911 -0.1547 -1.2018  0.2759
  910MOL0     H22795   7.562   5.918   3.039  1.7638 -0.5705  1.7043
  910MOL0     H22796   7.638   6.065   2.977 -3.0561  0.4334 -0.6294
  910MOL0     H22797   7.632   5.964   2.743  2.1256 -3.1647  0.1561
  910MOL0     H22798   7.573   5.817   2.795  1.0553  1.1982 -1.7366
  910MOL0     H22799   7.376   6.017   2.716  2.8540  1.2270 -0.5866
  910MOL0     H22800   7.383   6.055   2.883  0.9056 -0.4425  1.0246
  910MOL0     H22801   7.362   5.824   3.069 -1.8082  0.5581  0.6564
  910MOL0     H22802   7.060   5.560   3.000  1.0328 -3.4867  1.7956
  910MOL0     H22803   7.199   5.559   3.101 -1.8048  0.5982  4.1132
  910MOL0     H22804   7.124   5.790   3.205  0.6164 -0.9655  1.8496
  910MOL0     H22805   7.030   5.630   3.243  1.4698 -0.9034 -1.1576
  910MOL0     H22806   6.833   5.718   3.136  1.5273 -0.8089 -0.7182
  910MOL0     H22807   6.919   5.851   3.073  0.3077  1.5989  0.2710
  910MOL0     H22808   6.837   5.947   3.274 -1.2758 -1.3380  0.1261
  910MOL0     H22809   6.986   5.895   3.335 -1.6352  1.0336  2.6446
  910MOL0     H22810   6.765   5.607   3.555  0.5905 -0.4257 -1.0929
  910MOL0     H22811   6.429   5.561   3.724 -1.8279 -0.1924 -3.0799
  910MOL0     H22812   6.539   5.448   3.649 -0.8259  0.6015 -1.3512
  910MOL0     H22813   6.601   5.578   3.750  0.1530 -0.7632  1.4759
  910MOL0     H22814   5.978   5.925   3.471 -2.5765  1.7295 -1.3014
  910MOL0     H22815   5.755   5.837   3.442 -2.5216 -2.3729 -1.8106
  910MOL0     H22816   5.553   5.695   3.455  1.3339  0.4506  0.5764
  910MOL0     H22817   5.605   5.782   3.299  2.6071 -0.5368  0.8217
  910MOL0     H22818   5.375   5.713   3.302  2.7724  1.1257  1.2631
  910MOL0     H22819   5.474   5.633   3.174 -0.7826 -0.2598 -0.1627
  910MOL0     H22820   5.396   5.510   3.449 -0.9860  0.9231  0.9342
  910MOL0     H22821   5.469   5.418   3.323 -1.6194 -0.6360  1.6766
  910MOL0     H22822   5.206   5.565   3.299 -0.9233 -0.7615  1.5888
  910MOL0     H22823   5.271   5.444   3.171 -0.8642 -0.6235  0.5360
  910MOL0     H22824   5.165   5.407   3.444 -1.2786  1.6846  0.1304
  910MOL0     H22825   5.242   5.272   3.360  0.4150  0.5528  5.6435
  910MOL0     H22826   4.999   5.419   3.275  3.6121  1.1983  0.3590
  910MOL0     H22827   5.069   5.283   3.178 -2.0087 -1.7798  0.6841
  910MOL0     H22828   4.924   5.304   3.451 -1.2085 -0.2553 -0.8376
  910MOL0     H22829   5.031   5.164   3.436  2.1938 -0.9399 -2.5667
  910MOL0     H22830   4.789   5.232   3.277  1.3111  2.1139  2.8136
  910MOL0     H22831   4.800   5.111   3.403  0.1854 -0.3575 -0.8152
  910MOL0     H22832   5.914   5.477   3.279 -0.2504 -0.4819  0.0844
  910MOL0     H22833   6.131   5.547   3.327  0.2623 -1.6240  1.1682
  910MOL0     H22834   6.411   5.870   3.328  0.0148 -0.7708  0.1071
  910MOL0     H22835   6.647   5.928   3.303  2.6407 -2.0679 -2.5725
  910MOL0     H22836   8.018   5.392   3.393 -1.5786 -1.4342 -1.7292
  910MOL0     H22837   8.172   5.217   3.527 -0.5555 -1.0609 -0.3877
  910MOL0     H22838   8.557   4.963   3.505 -1.0525 -0.9146 -0.6896
  910MOL0     H22839   8.666   4.816   3.672  0.0647 -1.3080  2.2278
  910MOL0     H22840   8.392   4.579   3.920 -0.5358  1.1878  3.4618
  910MOL0     H22841   8.534   4.476   3.930  1.9256  0.8162  0.9945
  910MOL0     H22842   8.635   4.613   4.079 -0.4486 -1.4524 -0.1071
  910MOL0     H22843   8.471   4.648   4.126  0.5026 -0.5758  0.6267
  910MOL0     H22844   8.517   4.850   3.954 -1.7049 -0.5594  2.5841
  910MOL0     H22845   8.694   4.796   3.981  1.1428  0.3463  3.6220
  910MOL0     H22846   8.486   4.900   4.170 -1.4242 -2.8639 -0.8987
  910MOL0     H22847   8.640   4.986   4.098  5.3200  0.0334  4.5797
  910MOL0     H22848   8.808   4.770   4.415  1.0486  1.3580  0.0137
  910MOL0     H22849   8.308   4.593   3.713  1.1151 -0.2158  1.0459
  910MOL0     H22850   8.204   4.734   3.539  0.9339 -0.9421 -1.7984
  911MOL0     O22851   5.047   6.300   0.893 -0.1939  0.0983  0.2410
  911MOL0     C22852   5.084   6.285   1.010 -1.6276 -0.3917 -0.6940
  911MOL0     O22853   5.187   6.206   1.056 -0.0492 -0.1307  0.0480
  911MOL0     C22854   5.233   6.114   0.965  0.8063 -0.3264 -0.0849
  911MOL0     C22855   5.150   6.014   0.911 -0.4917 -0.1712 -1.0067
  911MOL0     C22856   5.207   5.915   0.832 -0.5779 -0.5014 -0.1321
  911MOL0     C22857   5.347   5.912   0.810  0.4886  0.4187 -0.0837
  911MOL0     O22858   5.401   5.820   0.723 -0.2956  0.9015  0.9054
  911MOL0     C22859   5.394   5.860   0.584 -0.1255 -1.1449  0.6788
  911MOL0     C22860   5.530   5.928   0.554 -0.0067  0.2588  0.7533
  911MOL0     C22861   5.545   5.950   0.404  0.0283  0.5972 -0.1604
  911MOL0     C22862   5.689   5.954   0.353 -0.3184 -0.4983  0.1248
  911MOL0     C22863   5.773   6.071   0.412  1.3034 -0.3237 -0.6651
  911MOL0     C22864   5.885   6.029   0.510  0.0320  0.3142  0.8829
  911MOL0     C22865   5.975   6.140   0.558  0.2670 -0.3961 -0.3093
  911MOL0     C22866   5.886   6.238   0.643  0.2786 -0.0066 -0.1672
  911MOL0     N22867   5.840   6.200   0.779 -0.4892  0.2387  0.0168
  911MOL0     C22868   5.927   6.150   0.871 -0.2167 -0.0703  0.4275
  911MOL0     C22869   5.859   6.146   0.985 -0.0034 -0.5340 -0.7015
  911MOL0     C22870   5.909   6.086   1.116  0.6347  0.1295  0.0255
  911MOL0     C22871   5.879   6.187   1.225 -0.4608 -0.8182 -0.6345
  911MOL0     C22872   5.750   6.148   1.299 -0.2192 -0.3322  0.5040
  911MOL0     C22873   5.771   6.022   1.383 -0.1201 -0.0865  0.0032
  911MOL0     O22874   5.651   6.022   1.456  0.2607  0.4250 -0.7559
  911MOL0     C22875   5.604   5.900   1.491  0.1986 -0.0266  1.0002
  911MOL0     C22876   5.693   5.794   1.537  0.4763  0.4525  0.3507
  911MOL0     C22877   5.635   5.670   1.583  0.0104  0.1770  0.6250
  911MOL0     C22878   5.723   5.553   1.605 -0.0522  0.5412 -0.4219
  911MOL0     C22879   5.492   5.655   1.598 -0.0072 -0.5421  0.4145
  911MOL0     C22880   5.412   5.531   1.647 -1.4343 -0.5890  0.1188
  911MOL0     O22881   5.303   5.498   1.577 -0.2605 -0.4474  0.5457
  911MOL0     C22882   5.212   5.426   1.646  1.1345 -0.4004  0.1382
  911MOL0     C22883   5.138   5.478   1.756 -0.0286  0.2198 -0.1151
  911MOL0     C22884   5.024   5.409   1.817 -0.7259  0.1949 -1.2570
  911MOL0     C22885   4.983   5.286   1.766 -0.3924 -0.4747 -0.1329
  911MOL0     O22886   4.885   5.210   1.814 -1.0658 -0.5793 -0.2231
  911MOL0     C22887   4.807   5.255   1.925  0.1657  0.1012  0.6160
  911MOL0     C22888   4.698   5.149   1.953  0.4562  0.1273  0.4393
  911MOL0     C22889   4.724   5.065   2.078  0.0617  0.2473  0.2572
  911MOL0     C22890   4.759   4.915   2.058  0.3830 -0.7124 -0.4306
  911MOL0     C22891   4.735   4.841   2.189 -0.4016  0.0195  0.0629
  911MOL0     C22892   4.745   4.691   2.161  0.5938 -0.9869  0.4980
  911MOL0     C22893   4.714   4.632   2.292 -0.9134  0.3522 -0.0398
  911MOL0     C22894   4.719   4.484   2.278 -0.3513  0.8101 -0.2312
  911MOL0    Cl22895   4.881   4.420   2.230 -0.0778  0.0518  0.0011
  911MOL0     C22896   5.052   5.245   1.650  0.8725  0.8554  0.9476
  911MOL0     C22897   5.165   5.312   1.597 -0.1989  0.2724  0.0393
  911MOL0     O22898   5.445   5.495   1.758  0.3669  0.5210 -0.6669
  911MOL0     C22899   5.406   5.766   1.563 -0.6397  0.3573  0.1729
  911MOL0     C22900   5.471   5.887   1.518  0.4686  0.5310 -0.4866
  911MOL0     N22901   5.729   6.186   0.959  0.7371 -0.3480  0.5935
  911MOL0     N22902   5.717   6.219   0.834 -0.1280  1.0399 -0.4619
  911MOL0     C22903   5.423   6.012   0.865  0.0748  0.8007  0.2671
  911MOL0     C22904   5.366   6.114   0.936  0.0443  0.5528  0.1459
  911MOL0     C22905   5.030   6.382   1.101 -0.2145  0.2367 -0.5511
  911MOL0     C22906   5.073   6.383   1.238 -0.0169  0.0202  0.1896
  911MOL0     C22907   5.009   6.472   1.333 -0.3099 -0.1958 -0.5413
  911MOL0     C22908   4.913   6.562   1.296  0.2031 -0.2375 -0.5084
  911MOL0     O22909   4.862   6.658   1.391  0.1941 -0.1046 -0.0749
  911MOL0     C22910   4.779   6.767   1.341  0.2387  0.5540 -0.6455
  911MOL0     C22911   4.779   6.884   1.434  0.3795 -0.1535 -0.3941
  911MOL0     C22912   4.661   6.979   1.411  0.2257 -0.9332 -0.2729
  911MOL0     C22913   4.657   7.096   1.516  0.0009  0.3087 -0.6421
  911MOL0     C22914   4.543   7.179   1.486 -0.5840 -1.5691 -0.2941
  911MOL0     C22915   4.452   7.261   1.458 -0.4712 -0.5741  1.0142
  911MOL0     C22916   4.872   6.560   1.164 -0.3646 -0.7501 -0.3541
  911MOL0     C22917   4.927   6.466   1.069  1.5920 -0.3248 -0.3532
  911MOL0     H22918   5.044   6.004   0.936 -0.9280 -0.7990 -2.9777
  911MOL0     H22919   5.140   5.840   0.791 -2.6748  0.0202  2.0954
  911MOL0     H22920   5.385   5.768   0.526 -0.3055 -3.0838  3.5655
  911MOL0     H22921   5.316   5.932   0.557  1.1852  0.7912  1.7535
  911MOL0     H22922   5.546   6.024   0.604  0.9207  1.4326 -1.6525
  911MOL0     H22923   5.607   5.858   0.589  0.9422  1.2424  0.7086
  911MOL0     H22924   5.484   5.879   0.348  2.3783 -0.5074 -1.4580
  911MOL0     H22925   5.503   6.048   0.383  1.1384  1.0518 -0.3310
  911MOL0     H22926   5.739   5.858   0.364  0.5128 -0.0551  0.2277
  911MOL0     H22927   5.683   5.970   0.245  2.8211 -0.5599 -0.1297
  911MOL0     H22928   5.823   6.124   0.330  0.3194  1.5128 -0.1243
  911MOL0     H22929   5.696   6.137   0.452  1.0631 -0.0162 -1.6192
  911MOL0     H22930   5.844   5.966   0.589 -0.1512 -0.0726  0.4812
  911MOL0     H22931   5.954   5.958   0.464 -1.0179  0.2309 -0.6283
  911MOL0     H22932   6.055   6.114   0.628  1.1310  0.8663 -0.8047
  911MOL0     H22933   6.012   6.189   0.467 -3.5036 -0.4927 -2.1171
  911MOL0     H22934   5.804   6.278   0.583 -1.0666 -1.5076  0.6060
  911MOL0     H22935   5.944   6.329   0.660 -0.0616  0.0768  0.5931
  911MOL0     H22936   6.031   6.127   0.851  0.0240  1.5172 -0.3354
  911MOL0     H22937   5.848   5.995   1.124  1.7084 -0.6723 -0.5972
  911MOL0     H22938   6.013   6.055   1.131 -0.0577 -2.4986 -0.0629
  911MOL0     H22939   5.875   6.289   1.187  1.1227 -1.0549 -1.5310
  911MOL0     H22940   5.961   6.192   1.298  0.4610 -1.0434 -1.6317
  911MOL0     H22941   5.679   6.131   1.218  2.2827 -0.6933 -1.7521
  911MOL0     H22942   5.718   6.238   1.353  1.9844  2.5743 -2.6082
  911MOL0     H22943   5.850   6.027   1.459 -0.2833 -2.6901  0.4302
  911MOL0     H22944   5.801   5.939   1.319 -0.2826  0.6532 -1.0555
  911MOL0     H22945   5.800   5.784   1.524  0.6940  3.6678 -1.3430
  911MOL0     H22946   5.782   5.531   1.515  0.9157 -4.1930  1.0630
  911MOL0     H22947   5.800   5.571   1.681 -1.8992  1.1303  1.4040
  911MOL0     H22948   5.673   5.460   1.635  0.2505  0.8666  1.2286
  911MOL0     H22949   5.154   5.581   1.786 -4.5253  0.9116  0.6950
  911MOL0     H22950   4.998   5.464   1.907  0.6869  1.5805 -1.6538
  911MOL0     H22951   4.879   5.282   2.003 -0.9189  2.3135  0.9283
  911MOL0     H22952   4.757   5.349   1.898  2.2102  2.3790  3.9760
  911MOL0     H22953   4.605   5.203   1.968  0.0533 -0.5654  0.4643
  911MOL0     H22954   4.675   5.092   1.862  1.2092  0.6451 -0.0904
  911MOL0     H22955   4.643   5.084   2.150 -1.4007  2.7347 -1.8950
  911MOL0     H22956   4.812   5.100   2.132  1.4229 -3.8564  1.0353
  911MOL0     H22957   4.702   4.874   1.974 -1.3996  1.4359 -0.3984
  911MOL0     H22958   4.862   4.897   2.026  0.1736 -0.3513 -1.3403
  911MOL0     H22959   4.632   4.860   2.220 -0.5740 -0.1740 -0.3821
  911MOL0     H22960   4.800   4.877   2.269 -1.7270  2.6066  0.0862
  911MOL0     H22961   4.682   4.661   2.077  2.3230  1.1688 -1.7118
  911MOL0     H22962   4.845   4.661   2.130 -0.0679 -2.2096 -0.5222
  911MOL0     H22963   4.612   4.655   2.325 -0.3119 -1.1625  3.2982
  911MOL0     H22964   4.787   4.661   2.368 -0.2660 -0.7987 -0.1992
  911MOL0     H22965   4.655   4.446   2.198  0.6684  2.3488 -1.8741
  911MOL0     H22966   4.690   4.431   2.369 -0.3973 -0.9160 -1.2168
  911MOL0     H22967   5.032   5.148   1.606 -2.8418  0.6235  2.7400
  911MOL0     H22968   5.219   5.261   1.518 -0.3849 -2.1018  1.3242
  911MOL0     H22969   5.300   5.747   1.568 -1.2044  2.0360 -2.6501
  911MOL0     H22970   5.400   5.969   1.510  3.1548  3.8394  4.2001
  911MOL0     H22971   5.532   6.012   0.866  0.2925 -4.1550  2.6673
  911MOL0     H22972   5.425   6.199   0.969 -0.0031  0.5767  0.1708
  911MOL0     H22973   5.132   6.300   1.277 -0.9890  0.8064  3.7801
  911MOL0     H22974   5.034   6.455   1.437  0.8186  0.7985 -0.6329
  911MOL0     H22975   4.807   6.805   1.242  1.5894  4.1007  0.9203
  911MOL0     H22976   4.679   6.722   1.335 -0.3839  1.8940 -0.8697
  911MOL0     H22977   4.878   6.929   1.421  1.3722 -2.5507 -1.6857
  911MOL0     H22978   4.781   6.846   1.536 -1.5475  0.7176  0.0111
  911MOL0     H22979   4.569   6.919   1.412  0.5889 -1.5092 -0.7715
  911MOL0     H22980   4.662   7.018   1.309  0.7332 -0.2527 -0.0153
  911MOL0     H22981   4.755   7.144   1.516  2.1637 -3.6422  0.6130
  911MOL0     H22982   4.642   7.054   1.616 -1.7666 -1.1545 -1.4476
  911MOL0     H22983   4.392   7.343   1.424  1.2901  0.6324  0.6809
  911MOL0     H22984   4.785   6.619   1.139 -0.4344  0.7864  2.9968
  911MOL0     H22985   4.889   6.456   0.968 -0.9071 -1.7427  0.6329
  912MOL0     O22986  10.202  10.859   5.025  0.1284 -0.6562  0.2268
  912MOL0     C22987  10.292  10.946   5.013  0.1969  0.4967  0.1110
  912MOL0     O22988  10.394  10.932   4.929 -0.3085  0.0885  0.5717
  912MOL0     C22989  10.417  10.817   4.863 -0.2249  0.0769 -0.7269
  912MOL0     C22990  10.406  10.806   4.724  0.5446  0.2884 -0.3622
  912MOL0     C22991  10.448  10.680   4.664 -0.3297  0.2526 -0.0336
  912MOL0     C22992  10.492  10.568   4.742  0.2943 -0.8620 -0.3531
  912MOL0     O22993  10.540  10.445   4.689 -0.4237 -0.5587 -0.1352
  912MOL0     C22994  10.660  10.452   4.606 -0.0273  1.2337  0.2285
  912MOL0     C22995  10.789  10.415   4.685  0.1600 -0.6269  0.4692
  912MOL0     C22996  10.883  10.411   4.574 -0.3683  0.4506  0.3589
  912MOL0     C22997  11.011  10.327   4.601 -0.0034  0.0175 -0.5696
  912MOL0     C22998  11.090  10.304   4.472  0.6544 -1.0022  0.8548
  912MOL0     C22999  11.226  10.242   4.504  0.2010 -0.1482  1.0001
  912MOL0     C23000  11.320  10.248   4.380 -0.1896  0.2901 -0.9327
  912MOL0     C23001  11.272  10.158   4.261 -0.8998  1.4358 -0.7677
  912MOL0     N23002  11.368  10.189   4.141 -0.1122 -0.0718 -0.4973
  912MOL0     C23003  11.374  10.321   4.103  0.5574  0.8605  0.1313
  912MOL0     C23004  11.472  10.315   4.008 -1.1912  0.0057 -0.0625
  912MOL0     C23005  11.535  10.436   3.942 -0.2144 -0.7936  0.4217
  912MOL0     C23006  11.462  10.474   3.812 -0.1644  0.0668 -0.2094
  912MOL0     C23007  11.454  10.362   3.710  0.0886 -0.4539  1.2291
  912MOL0     C23008  11.582  10.294   3.646  0.1866  0.5729  0.1158
  912MOL0     O23009  11.673  10.389   3.582  0.6124 -0.4751  0.6213
  912MOL0     C23010  11.627  10.465   3.472 -0.3040 -0.6288 -0.4265
  912MOL0     C23011  11.518  10.435   3.396 -0.4105 -0.7582 -0.0447
  912MOL0     C23012  11.489  10.513   3.283 -0.3997  0.2697  0.1439
  912MOL0     C23013  11.377  10.462   3.204 -0.8677  1.0848  0.7607
  912MOL0     C23014  11.563  10.624   3.246  0.1321 -0.5096 -0.7888
  912MOL0     C23015  11.536  10.715   3.131 -0.9119 -1.3694  0.3080
  912MOL0     O23016  11.401  10.723   3.075 -0.2609  0.3493  0.1281
  912MOL0     C23017  11.371  10.829   2.984  0.1110  0.6932  0.4341
  912MOL0     C23018  11.251  10.803   2.917 -0.5419  0.5371  0.5604
  912MOL0     C23019  11.200  10.890   2.824  0.4510  0.4614  0.0755
  912MOL0     C23020  11.258  11.010   2.798 -0.5304 -0.4186 -0.2276
  912MOL0     O23021  11.191  11.102   2.712  0.1408  0.6282  0.9206
  912MOL0     C23022  11.057  11.152   2.747  0.6908 -1.0094  0.0897
  912MOL0     C23023  10.945  11.112   2.660  0.8646 -0.1000  0.5054
  912MOL0     C23024  10.926  11.195   2.537  0.9643 -1.1502 -0.9289
  912MOL0     C23025  10.823  11.305   2.569 -0.2834 -0.0328 -0.2342
  912MOL0     C23026  10.785  11.397   2.451  0.5785 -0.0033  0.0126
  912MOL0     C23027  10.711  11.335   2.330  0.1975 -0.2614  0.2764
  912MOL0     C23028  10.676  11.424   2.220  0.3237  0.1693  0.2751
  912MOL0     C23029  10.796  11.472   2.135  0.3025  0.3278  0.7873
  912MOL0    Cl23030  10.872  11.332   2.050  0.1009 -0.5706 -0.2637
  912MOL0     C23031  11.386  11.045   2.865 -0.2682 -0.1830 -0.4481
  912MOL0     C23032  11.437  10.960   2.956  0.1641  0.7464 -0.1335
  912MOL0     O23033  11.633  10.779   3.082  0.1544 -0.3058 -0.2774
  912MOL0     C23034  11.676  10.657   3.331  0.4318 -0.7817  0.2932
  912MOL0     C23035  11.703  10.581   3.438  0.0276 -0.2444  0.1849
  912MOL0     N23036  11.525  10.182   3.997  0.8826 -0.9197 -0.0144
  912MOL0     N23037  11.464  10.108   4.084 -0.0845  0.3532  0.2675
  912MOL0     C23038  10.488  10.594   4.879 -0.7934  0.5046  0.5486
  912MOL0     C23039  10.463  10.713   4.937 -0.9442 -0.9833  0.2413
  912MOL0     C23040  10.269  11.075   5.082 -0.0095 -0.9257  0.0862
  912MOL0     C23041  10.343  11.185   5.047  0.4953  0.0311 -1.3595
  912MOL0     C23042  10.321  11.302   5.127 -0.1723  0.5764  0.2078
  912MOL0     C23043  10.230  11.312   5.230 -0.3140 -0.0092 -0.6417
  912MOL0     O23044  10.196  11.409   5.311 -0.3554 -0.3865 -0.0643
  912MOL0     C23045  10.275  11.526   5.305  0.0627 -0.3839 -0.6647
  912MOL0     C23046  10.225  11.634   5.405  0.6189  0.3759 -0.1758
  912MOL0     C23047  10.260  11.608   5.552  1.1830 -0.5868 -0.0265
  912MOL0     C23048  10.393  11.671   5.593  0.2892  0.0757 -0.2347
  912MOL0     C23049  10.504  11.595   5.528  0.3701 -0.0528  0.1737
  912MOL0     C23050  10.595  11.543   5.462  0.6259  0.3499  0.1672
  912MOL0     C23051  10.156  11.200   5.253  0.3216 -0.6545 -1.2923
  912MOL0     C23052  10.174  11.084   5.186 -0.1201 -0.8807 -0.2894
  912MOL0     H23053  10.363  10.892   4.673 -3.3664 -0.5413  1.1588
  912MOL0     H23054  10.442  10.673   4.555 -2.1913  0.2860  0.0297
  912MOL0     H23055  10.635  10.377   4.530  2.9414  1.0752 -0.7412
  912MOL0     H23056  10.680  10.546   4.555  3.1132 -0.8994 -2.9611
  912MOL0     H23057  10.819  10.496   4.753  0.3342 -0.4228  0.1538
  912MOL0     H23058  10.788  10.314   4.726  1.3204 -1.7606 -2.0879
  912MOL0     H23059  10.835  10.358   4.491  0.0778 -0.2779  0.5534
  912MOL0     H23060  10.920  10.503   4.528  0.4129 -0.2555 -0.4556
  912MOL0     H23061  11.060  10.372   4.688  2.8329 -2.9238 -0.4286
  912MOL0     H23062  10.979  10.228   4.634 -0.5993  0.4299  0.1156
  912MOL0     H23063  11.035  10.239   4.403 -0.3313  0.9808 -0.3227
  912MOL0     H23064  11.096  10.393   4.408 -3.5591 -1.8087 -0.9873
  912MOL0     H23065  11.270  10.310   4.577  2.0906 -0.4286  0.1798
  912MOL0     H23066  11.213  10.143   4.549 -1.2896 -1.2545 -1.5951
  912MOL0     H23067  11.308  10.351   4.344 -1.7993  0.2575 -0.5731
  912MOL0     H23068  11.422  10.218   4.407  0.1259  1.4719 -0.7410
  912MOL0     H23069  11.168  10.186   4.245 -0.8710  2.4696  0.6373
  912MOL0     H23070  11.279  10.053   4.292  2.5846  1.8109  0.2643
  912MOL0     H23071  11.317  10.406   4.140 -2.8591 -1.6700  1.1758
  912MOL0     H23072  11.535  10.522   4.010 -1.3888  1.5760 -2.3701
  912MOL0     H23073  11.640  10.429   3.914 -0.3191  2.7647 -1.4642
  912MOL0     H23074  11.518  10.558   3.769  2.2933 -1.1246  0.4913
  912MOL0     H23075  11.362  10.508   3.841  0.5798  2.3852 -0.1426
  912MOL0     H23076  11.397  10.408   3.629  3.4699 -2.5489 -2.7771
  912MOL0     H23077  11.402  10.273   3.746  3.0784 -2.8086  0.2306
  912MOL0     H23078  11.540  10.217   3.581 -1.2387 -0.5843  2.3004
  912MOL0     H23079  11.649  10.240   3.713 -0.5632  0.8921  1.1545
  912MOL0     H23080  11.463  10.343   3.414  0.1179 -0.9319  0.7334
  912MOL0     H23081  11.299  10.539   3.207 -0.7699  1.1481  1.9221
  912MOL0     H23082  11.405  10.454   3.098  2.9455  0.3236  1.6590
  912MOL0     H23083  11.324  10.374   3.241 -1.4099  1.5723  1.1509
  912MOL0     H23084  11.218  10.704   2.944 -0.4053  0.4228  0.3093
  912MOL0     H23085  11.111  10.859   2.771  0.6541 -0.6663  0.3725
  912MOL0     H23086  11.037  11.115   2.848  4.0427 -3.0315  0.1840
  912MOL0     H23087  11.056  11.260   2.764 -2.7310 -0.9007 -0.2347
  912MOL0     H23088  10.959  11.009   2.626 -0.8776 -1.6338  3.9039
  912MOL0     H23089  10.852  11.105   2.718 -0.0218  0.8845 -0.7197
  912MOL0     H23090  10.877  11.134   2.460 -1.7820 -2.5593  1.7141
  912MOL0     H23091  11.015  11.242   2.495  3.4050 -0.2407  4.4838
  912MOL0     H23092  10.735  11.264   2.619 -1.2115  3.7437  1.5601
  912MOL0     H23093  10.877  11.362   2.645  2.6330 -1.0547 -1.3736
  912MOL0     H23094  10.869  11.455   2.412 -0.3572  1.9169  0.7049
  912MOL0     H23095  10.707  11.460   2.496 -0.5549 -2.0457  1.0336
  912MOL0     H23096  10.765  11.251   2.284  0.5981 -0.1112  0.4690
  912MOL0     H23097  10.618  11.293   2.369  0.8116 -2.0586 -0.1106
  912MOL0     H23098  10.630  11.521   2.241  0.6478  0.7186 -1.4126
  912MOL0     H23099  10.607  11.373   2.152  0.7456 -1.3930  0.9771
  912MOL0     H23100  10.869  11.535   2.186  0.7892 -0.1229  0.6549
  912MOL0     H23101  10.757  11.539   2.058 -1.0241  0.4387  1.5242
  912MOL0     H23102  11.416  11.150   2.863 -1.3550  0.1365 -1.3334
  912MOL0     H23103  11.525  10.989   3.012  1.7949  0.1448 -2.2387
  912MOL0     H23104  11.741  10.743   3.322  1.6471 -1.9487 -3.6218
  912MOL0     H23105  11.780  10.603   3.511  0.2077  0.9909 -0.3592
  912MOL0     H23106  10.533  10.516   4.940  1.0656  0.4158 -0.8159
  912MOL0     H23107  10.493  10.731   5.040 -1.8451  0.6483  0.2599
  912MOL0     H23108  10.416  11.173   4.969  2.0033 -1.8782  0.2580
  912MOL0     H23109  10.362  11.399   5.100  2.2187  0.0986  1.8719
  912MOL0     H23110  10.382  11.503   5.311  0.3253  0.7207 -0.9625
  912MOL0     H23111  10.266  11.576   5.209 -0.9719  1.6804  0.4470
  912MOL0     H23112  10.117  11.632   5.389  0.8794 -0.8132 -2.1604
  912MOL0     H23113  10.249  11.737   5.378 -0.6767  0.9384  0.7381
  912MOL0     H23114  10.253  11.506   5.591  1.9136 -0.1180  1.4037
  912MOL0     H23115  10.178  11.657   5.604 -0.2365 -3.7786  0.9557
  912MOL0     H23116  10.402  11.656   5.701 -2.4251 -0.9848 -0.0632
  912MOL0     H23117  10.390  11.776   5.565  1.1988  0.1828  0.0520
  912MOL0     H23118  10.681  11.513   5.405  0.9387 -1.3616  1.4550
  912MOL0     H23119  10.078  11.191   5.328  2.0815 -4.3312  0.3852
  912MOL0     H23120  10.127  10.990   5.212  2.5959 -2.4824 -0.7241
  913MOL0     O23121   1.079   2.774   6.509  0.1699  0.1263  0.4157
  913MOL0     C23122   1.068   2.896   6.501  0.4225 -0.2786  0.6746
  913MOL0     O23123   1.050   2.989   6.599  0.3307  0.1287  0.2886
  913MOL0     C23124   1.064   2.941   6.723 -0.8891  0.0095  0.3304
  913MOL0     C23125   1.191   2.895   6.768  0.2652  0.2501 -0.6030
  913MOL0     C23126   1.200   2.845   6.896 -0.3704  0.3971  0.2051
  913MOL0     C23127   1.093   2.850   6.991 -0.2899 -0.7747 -0.5333
  913MOL0     O23128   1.116   2.807   7.119  0.6402  0.1867  0.9937
  913MOL0     C23129   1.218   2.868   7.188  0.1839 -1.0217 -0.6418
  913MOL0     C23130   1.191   2.838   7.344 -0.4342  0.0709 -0.0327
  913MOL0     C23131   1.047   2.850   7.388  0.7111  0.2161 -0.2443
  913MOL0     C23132   1.044   2.853   7.545  0.6912 -0.5738  0.7595
  913MOL0     C23133   0.918   2.806   7.610 -0.2590  0.3372 -0.1032
  913MOL0     C23134   0.921   2.794   7.760  0.9001  0.3727 -0.2252
  913MOL0     C23135   1.022   2.693   7.822  0.3078 -0.2625  0.7721
  913MOL0     C23136   1.011   2.698   7.973  0.5181 -0.2053  0.4913
  913MOL0     N23137   1.136   2.656   8.043  0.6131 -1.0395  0.3916
  913MOL0     C23138   1.176   2.728   8.153  0.0447  1.0713  0.9015
  913MOL0     C23139   1.261   2.639   8.198 -0.7631 -0.2010 -0.3613
  913MOL0     C23140   1.363   2.657   8.310  0.2324  0.2759 -0.5004
  913MOL0     C23141   1.319   2.574   8.433 -0.9965 -1.0117 -0.1789
  913MOL0     C23142   1.174   2.589   8.476  0.0358  0.7425  0.7394
  913MOL0     C23143   1.149   2.536   8.618 -0.5399  0.3579  1.1921
  913MOL0     O23144   1.007   2.539   8.634  0.1090 -1.1270  0.6136
  913MOL0     C23145   0.943   2.528   8.753 -0.4939  0.3770 -0.3047
  913MOL0     C23146   0.985   2.545   8.884 -0.5070 -0.6292  0.1242
  913MOL0     C23147   0.902   2.533   8.996  0.4635  0.2489  0.8888
  913MOL0     C23148   0.978   2.508   9.125 -0.1185 -0.3831  0.5605
  913MOL0     C23149   0.767   2.497   8.976 -0.0440  0.4957  0.3014
  913MOL0     C23150   0.666   2.505   9.093 -0.1935  0.0794  0.8806
  913MOL0     O23151   0.705   2.520   9.228  0.5484 -0.8179 -0.0415
  913MOL0     C23152   0.609   2.541   9.316  0.1251 -0.0140 -0.2013
  913MOL0     C23153   0.580   2.671   9.352  0.1234 -0.2385  0.5863
  913MOL0     C23154   0.494   2.700   9.460  1.0416 -0.0423  0.4688
  913MOL0     C23155   0.420   2.593   9.515 -0.4043  0.3416  0.4284
  913MOL0     O23156   0.333   2.632   9.615  0.2455  0.7225  0.1316
  913MOL0     C23157   0.247   2.530   9.670  0.6861  0.9219 -0.5938
  913MOL0     C23158   0.132   2.486   9.588 -0.5112  0.2232  1.1054
  913MOL0     C23159   0.052   2.607   9.541  0.6023 -0.5148  0.0736
  913MOL0     C23160  -0.089   2.564   9.488 -1.0290 -0.3215 -0.0844
  913MOL0     C23161  -0.187   2.537   9.598  0.5669 -0.0723  1.4496
  913MOL0     C23162  -0.242   2.652   9.673 -0.1458 -0.1124 -0.5108
  913MOL0     C23163  -0.370   2.615   9.746  0.6305  0.4004  1.0270
  913MOL0     C23164  -0.429   2.740   9.824  0.1871 -0.5536  0.4377
  913MOL0    Cl23165  -0.567   2.670   9.922 -0.5251 -0.3822 -0.1270
  913MOL0     C23166   0.438   2.462   9.464  1.3923  0.9058  0.2655
  913MOL0     C23167   0.544   2.435   9.375  1.0509  0.2893 -0.7507
  913MOL0     O23168   0.550   2.507   9.048 -0.2520 -0.6590 -0.2214
  913MOL0     C23169   0.717   2.493   8.840 -0.1971 -0.5235  0.4324
  913MOL0     C23170   0.800   2.502   8.736 -0.5313  1.5270 -0.2166
  913MOL0     N23171   1.263   2.521   8.129  0.7663  1.1361  0.5769
  913MOL0     N23172   1.192   2.531   8.022  0.6393 -0.0139 -0.0684
  913MOL0     C23173   0.970   2.899   6.946 -0.8335  0.2056 -0.5896
  913MOL0     C23174   0.956   2.938   6.808  0.1187  0.3645 -0.4823
  913MOL0     C23175   1.077   2.952   6.360 -0.3466 -0.4340 -0.1572
  913MOL0     C23176   1.004   3.070   6.321 -0.7913  0.5535 -0.6462
  913MOL0     C23177   1.008   3.122   6.194 -0.0634  0.2618 -0.7506
  913MOL0     C23178   1.085   3.051   6.092  0.1255  0.2134  0.9624
  913MOL0     O23179   1.080   3.092   5.964  0.2743  0.9475 -0.0771
  913MOL0     C23180   0.961   3.160   5.934 -0.7770 -0.3797  0.8375
  913MOL0     C23181   0.960   3.188   5.783  0.6276  1.3097 -0.0411
  913MOL0     C23182   1.080   3.268   5.734  0.4527  0.5491  0.1066
  913MOL0     C23183   1.108   3.241   5.592 -0.2514  0.3889  0.8220
  913MOL0     C23184   1.005   3.257   5.485  0.7516  1.2594  0.7147
  913MOL0     C23185   0.921   3.250   5.409 -0.2408 -0.8752  0.8625
  913MOL0     C23186   1.166   2.939   6.128  0.6856  0.0036  0.2984
  913MOL0     C23187   1.154   2.887   6.260 -1.0595  0.7922  0.6819
  913MOL0     H23188   1.275   2.897   6.698 -0.9363 -2.2431 -2.2575
  913MOL0     H23189   1.287   2.789   6.929 -1.6998 -1.3991  0.8450
  913MOL0     H23190   1.315   2.840   7.147  1.8187  3.5757 -0.4861
  913MOL0     H23191   1.206   2.977   7.185  0.3294 -1.0301 -2.1953
  913MOL0     H23192   1.239   2.744   7.373 -0.1306 -0.0244 -0.8224
  913MOL0     H23193   1.250   2.915   7.394 -1.0236  1.0857 -0.8692
  913MOL0     H23194   0.989   2.934   7.348  1.2693  0.5676 -0.3351
  913MOL0     H23195   0.994   2.760   7.356 -0.2738 -0.0704  2.0140
  913MOL0     H23196   1.125   2.793   7.588  1.0179 -1.0615 -0.5101
  913MOL0     H23197   1.055   2.959   7.572  0.3528 -0.5819  0.9347
  913MOL0     H23198   0.834   2.870   7.582 -1.6715 -1.2862  0.2461
  913MOL0     H23199   0.892   2.710   7.565  1.6383  0.9001 -2.6082
  913MOL0     H23200   0.953   2.891   7.800 -0.3035  0.3371  0.8741
  913MOL0     H23201   0.821   2.777   7.800  1.3209 -0.3364  0.5517
  913MOL0     H23202   0.997   2.593   7.787 -1.9510  0.1880  0.9681
  913MOL0     H23203   1.123   2.726   7.793  0.2033 -0.6779 -0.1031
  913MOL0     H23204   0.930   2.631   8.005  1.1012 -1.3255 -0.3222
  913MOL0     H23205   0.993   2.800   8.010  0.9672 -0.0331  0.2341
  913MOL0     H23206   1.153   2.825   8.196  2.7888  3.4244 -2.4026
  913MOL0     H23207   1.467   2.633   8.285 -0.1037  1.0336 -2.9441
  913MOL0     H23208   1.358   2.763   8.337 -1.6878  0.5320 -1.6701
  913MOL0     H23209   1.388   2.600   8.514 -1.9286 -0.0610  0.3415
  913MOL0     H23210   1.337   2.467   8.420 -0.1339 -0.8136 -0.6388
  913MOL0     H23211   1.113   2.532   8.405  3.0987 -1.9508  0.0546
  913MOL0     H23212   1.152   2.696   8.473  0.5032  0.8229 -1.6179
  913MOL0     H23213   1.205   2.593   8.694 -0.7312  1.5327  0.4759
  913MOL0     H23214   1.190   2.435   8.624  1.9388  1.1150 -1.2304
  913MOL0     H23215   1.093   2.547   8.893 -0.5484 -2.3326  1.3535
  913MOL0     H23216   0.988   2.604   9.176  3.3913  0.4561 -1.3651
  913MOL0     H23217   0.935   2.428   9.186 -0.1560  1.2564  2.8408
  913MOL0     H23218   1.077   2.470   9.097 -1.9106 -3.1159 -2.8067
  913MOL0     H23219   0.651   2.746   9.319  2.4515 -1.5100  2.4154
  913MOL0     H23220   0.484   2.796   9.510 -1.5050 -0.2039  0.4047
  913MOL0     H23221   0.315   2.448   9.697 -0.3608  0.7903  1.9302
  913MOL0     H23222   0.205   2.562   9.766  1.7550  1.5372 -0.3037
  913MOL0     H23223   0.168   2.429   9.502  1.3875  1.1154  1.2675
  913MOL0     H23224   0.065   2.425   9.651 -0.8972 -0.1685  0.3314
  913MOL0     H23225   0.110   2.641   9.455  0.1682 -1.0323 -0.4262
  913MOL0     H23226   0.040   2.678   9.623  1.1777  2.5541 -2.3211
  913MOL0     H23227  -0.134   2.652   9.440 -0.7461 -0.3647 -0.4388
  913MOL0     H23228  -0.063   2.481   9.421  1.8497  1.3428 -1.2263
  913MOL0     H23229  -0.137   2.456   9.651 -2.2160 -3.0697 -0.0873
  913MOL0     H23230  -0.274   2.484   9.557 -0.8411  1.6481  2.0623
  913MOL0     H23231  -0.163   2.701   9.732  1.4508 -2.6586 -0.3773
  913MOL0     H23232  -0.282   2.722   9.599  3.1635  0.9809 -1.4713
  913MOL0     H23233  -0.349   2.528   9.808  2.3994 -2.0448 -2.6516
  913MOL0     H23234  -0.450   2.583   9.678  1.2714  1.8130 -0.4790
  913MOL0     H23235  -0.472   2.814   9.756 -0.4301  1.2956  2.6890
  913MOL0     H23236  -0.355   2.793   9.886 -0.4038 -0.4153  1.0381
  913MOL0     H23237   0.382   2.374   9.495 -1.1103  2.3593  0.1709
  913MOL0     H23238   0.579   2.334   9.357 -1.4200 -0.8601  0.4227
  913MOL0     H23239   0.612   2.481   8.818 -0.3536  0.4709  0.5818
  913MOL0     H23240   0.755   2.494   8.637 -4.3574 -2.5209  1.4951
  913MOL0     H23241   0.887   2.920   7.013 -0.1630  1.0777 -0.0035
  913MOL0     H23242   0.863   2.969   6.762 -1.9811 -3.0523  1.0993
  913MOL0     H23243   0.967   3.140   6.396 -0.6197 -0.0057 -0.0396
  913MOL0     H23244   0.946   3.208   6.172 -0.5543  0.2873  0.6204
  913MOL0     H23245   0.874   3.099   5.955 -0.3377 -2.4634 -2.5722
  913MOL0     H23246   0.949   3.259   5.978 -2.0470  0.5468 -1.4273
  913MOL0     H23247   0.868   3.236   5.748 -0.2200  1.7318  2.4806
  913MOL0     H23248   0.961   3.092   5.732  0.3418  0.5881  1.2683
  913MOL0     H23249   1.168   3.250   5.796  1.2498  0.4847 -1.0117
  913MOL0     H23250   1.049   3.373   5.737 -1.5656 -0.0278  1.2714
  913MOL0     H23251   1.144   3.139   5.579 -1.6889  0.1964 -2.5975
  913MOL0     H23252   1.192   3.306   5.567  1.3258 -1.9406 -0.1636
  913MOL0     H23253   0.836   3.256   5.344  0.4010  4.8371  0.0351
  913MOL0     H23254   1.227   2.891   6.052 -0.8474  0.5622 -1.3309
  913MOL0     H23255   1.223   2.807   6.282 -0.8633  0.8443  0.2712
  914MOL0     O23256   5.592   5.017   8.509 -0.7634  0.0940 -0.0231
  914MOL0     C23257   5.693   5.078   8.508 -0.8699 -0.8776  0.1955
  914MOL0     O23258   5.713   5.215   8.525 -0.6106  0.1657  0.1828
  914MOL0     C23259   5.595   5.289   8.533 -0.0926  0.1570  0.3590
  914MOL0     C23260   5.588   5.383   8.430 -0.0749 -0.0762 -0.4792
  914MOL0     C23261   5.488   5.476   8.423  0.5849 -0.5091 -0.8926
  914MOL0     C23262   5.389   5.488   8.525  0.1851 -0.3666 -0.6621
  914MOL0     O23263   5.283   5.576   8.529 -0.8359  0.1369 -0.3730
  914MOL0     C23264   5.295   5.705   8.593 -0.0884 -0.1776 -0.6261
  914MOL0     C23265   5.193   5.801   8.533 -0.1211  0.0388 -0.1254
  914MOL0     C23266   5.203   5.820   8.377 -0.6695  0.3357 -0.5112
  914MOL0     C23267   5.110   5.935   8.334 -0.0624  0.3237  0.3258
  914MOL0     C23268   5.146   6.003   8.203  0.6726  1.2118 -0.1689
  914MOL0     C23269   5.110   5.922   8.085  0.3626  0.0468  1.0065
  914MOL0     C23270   5.132   6.011   7.951  0.1869 -0.6220 -0.2006
  914MOL0     C23271   5.277   6.054   7.922 -0.2501 -0.0324 -0.2502
  914MOL0     N23272   5.302   6.130   7.796 -0.0141 -0.5733  0.2127
  914MOL0     C23273   5.267   6.262   7.773 -0.5736  0.7397 -0.1410
  914MOL0     C23274   5.318   6.287   7.646 -0.4714  0.2102 -0.8700
  914MOL0     C23275   5.310   6.430   7.607 -0.6901  0.8073  1.6494
  914MOL0     C23276   5.201   6.461   7.508  0.7612 -0.7236  0.2925
  914MOL0     C23277   5.189   6.355   7.395  0.0473 -0.0572  0.0129
  914MOL0     C23278   5.075   6.393   7.293  0.0415 -0.4354 -0.3739
  914MOL0     O23279   4.954   6.426   7.352 -0.0805  0.1810  0.8548
  914MOL0     C23280   4.891   6.333   7.431  0.2399  0.3066  0.1369
  914MOL0     C23281   4.869   6.364   7.566 -0.0298 -0.0560 -0.4553
  914MOL0     C23282   4.812   6.268   7.654  0.0466  0.1183 -0.9410
  914MOL0     C23283   4.825   6.313   7.801 -0.0057 -0.0543  0.7955
  914MOL0     C23284   4.756   6.145   7.609  0.0565  0.1688  0.1274
  914MOL0     C23285   4.690   6.046   7.685  0.1445 -0.1740  0.6820
  914MOL0     O23286   4.672   5.927   7.613  0.8662  0.2645 -0.4136
  914MOL0     C23287   4.558   5.859   7.641  0.6457  0.4832 -0.2106
  914MOL0     C23288   4.567   5.727   7.611  0.1802  0.2159  0.2443
  914MOL0     C23289   4.458   5.638   7.621 -0.8200  0.5146  0.2724
  914MOL0     C23290   4.341   5.684   7.683 -0.4237  0.6103 -0.4773
  914MOL0     O23291   4.242   5.597   7.714 -0.1968 -0.0159  0.1984
  914MOL0     C23292   4.268   5.459   7.742 -0.7140 -0.4949 -0.0490
  914MOL0     C23293   4.165   5.398   7.831 -0.4096 -0.4394  0.1043
  914MOL0     C23294   4.159   5.450   7.973 -0.1089  0.0694  0.1966
  914MOL0     C23295   4.030   5.404   8.046  1.2480  0.2408  0.5244
  914MOL0     C23296   4.031   5.443   8.197 -0.1207  0.0301  0.7119
  914MOL0     C23297   3.881   5.447   8.253  0.6707 -0.3588 -0.8973
  914MOL0     C23298   3.848   5.300   8.295  0.0445  0.7305  0.8112
  914MOL0     C23299   3.710   5.287   8.366  0.6924  0.3747 -0.4848
  914MOL0    Cl23300   3.675   5.399   8.508 -0.4773  0.2175 -0.6047
  914MOL0     C23301   4.327   5.827   7.705  0.4802  0.0870 -0.0836
  914MOL0     C23302   4.432   5.909   7.683 -1.0282  0.5248  0.3970
  914MOL0     O23303   4.651   6.073   7.794 -0.1476 -0.4017  0.1977
  914MOL0     C23304   4.767   6.124   7.472 -0.5003 -0.3354 -0.1268
  914MOL0     C23305   4.848   6.202   7.387  0.1710 -0.4618 -0.0473
  914MOL0     N23306   5.374   6.172   7.592  0.0142 -0.8508  0.4353
  914MOL0     N23307   5.358   6.080   7.677  0.2718 -0.4038 -0.3798
  914MOL0     C23308   5.404   5.409   8.637  0.0434  0.4645 -0.0033
  914MOL0     C23309   5.503   5.302   8.637  0.6973 -0.6067 -0.2504
  914MOL0     C23310   5.821   5.002   8.491  0.4766 -0.1242  0.1587
  914MOL0     C23311   5.939   5.071   8.446  0.1524  0.1414 -0.1740
  914MOL0     C23312   6.054   5.001   8.420 -0.0547 -0.1386  0.4401
  914MOL0     C23313   6.055   4.872   8.417 -0.6006  1.0688 -0.0410
  914MOL0     O23314   6.180   4.810   8.389  0.0185  0.2821  0.0651
  914MOL0     C23315   6.176   4.732   8.268 -0.0967  0.2981  0.1715
  914MOL0     C23316   6.197   4.830   8.156  0.5874 -0.6705  0.1590
  914MOL0     C23317   6.339   4.874   8.136  0.5497  0.1035  0.6159
  914MOL0     C23318   6.346   5.031   8.129 -0.3241 -0.1769  0.2051
  914MOL0     C23319   6.287   5.082   8.006  0.5158 -0.0720 -0.5020
  914MOL0     C23320   6.241   5.121   7.896 -1.2736 -1.1050 -0.1250
  914MOL0     C23321   5.943   4.798   8.463  0.4541 -0.1982  0.2800
  914MOL0     C23322   5.823   4.865   8.501  0.6706  0.5497  0.8133
  914MOL0     H23323   5.670   5.395   8.360  0.7362  1.3222  0.6565
  914MOL0     H23324   5.485   5.554   8.347  0.5293  1.6823  1.2294
  914MOL0     H23325   5.270   5.676   8.696  0.7147 -2.9386 -1.1256
  914MOL0     H23326   5.398   5.740   8.582  0.4201 -1.5130 -0.2990
  914MOL0     H23327   5.103   5.744   8.561  0.5074 -0.7514  0.3411
  914MOL0     H23328   5.202   5.901   8.576 -1.6502  0.0923  0.1363
  914MOL0     H23329   5.306   5.846   8.351  0.2666 -2.6597 -0.1938
  914MOL0     H23330   5.175   5.725   8.329  0.2142  0.6282 -1.6330
  914MOL0     H23331   5.009   5.895   8.323  0.6535 -1.4712  0.0268
  914MOL0     H23332   5.113   6.018   8.405 -0.4222 -1.2518  2.2801
  914MOL0     H23333   5.080   6.091   8.208 -3.1732 -1.4922  1.6232
  914MOL0     H23334   5.252   6.027   8.211  0.3158  2.2279  3.3448
  914MOL0     H23335   5.183   5.841   8.094 -2.5666 -2.6797  2.1149
  914MOL0     H23336   5.005   5.893   8.081 -1.3401  5.2059 -0.7128
  914MOL0     H23337   5.087   5.964   7.863  0.1770  0.9131 -1.0493
  914MOL0     H23338   5.082   6.107   7.958 -1.3781 -1.2407 -1.9238
  914MOL0     H23339   5.347   5.971   7.911  2.7334  2.4055 -1.1290
  914MOL0     H23340   5.316   6.117   8.002  3.9719 -1.8941 -0.5541
  914MOL0     H23341   5.218   6.338   7.833 -1.1061  0.2097  0.1149
  914MOL0     H23342   5.288   6.497   7.690 -3.4799  1.2548  0.6869
  914MOL0     H23343   5.402   6.465   7.561 -1.2396 -0.0474 -0.2177
  914MOL0     H23344   5.212   6.560   7.462 -2.5767 -0.4764 -0.1745
  914MOL0     H23345   5.103   6.467   7.555 -0.5276 -0.3775 -2.2673
  914MOL0     H23346   5.160   6.257   7.434  0.5485 -0.0449  0.4212
  914MOL0     H23347   5.284   6.370   7.344 -0.2107  1.4385 -0.0694
  914MOL0     H23348   5.059   6.309   7.225  2.2023 -0.6942 -0.6538
  914MOL0     H23349   5.106   6.478   7.232 -0.6727  1.8167  2.1991
  914MOL0     H23350   4.898   6.459   7.609  0.9655 -0.1180 -0.9741
  914MOL0     H23351   4.926   6.348   7.822  1.2486 -2.9466  0.0658
  914MOL0     H23352   4.750   6.391   7.812  1.5382  1.6790 -0.4467
  914MOL0     H23353   4.808   6.221   7.859  0.7167 -1.5108 -1.1670
  914MOL0     H23354   4.660   5.695   7.566  0.5384  1.8674 -0.2746
  914MOL0     H23355   4.450   5.532   7.600 -1.3347  0.6513 -0.2564
  914MOL0     H23356   4.280   5.393   7.656  1.2671 -0.4229  0.1334
  914MOL0     H23357   4.360   5.451   7.801  0.7247 -0.3071 -2.1878
  914MOL0     H23358   4.067   5.398   7.784 -0.0676 -2.2529 -0.6834
  914MOL0     H23359   4.199   5.295   7.844  0.9917 -0.1269 -0.7807
  914MOL0     H23360   4.153   5.559   7.972 -1.4612  0.0151 -1.3397
  914MOL0     H23361   4.248   5.418   8.029 -0.4204 -1.2206 -0.0204
  914MOL0     H23362   3.949   5.459   7.997  0.1624 -0.1847  1.7628
  914MOL0     H23363   4.003   5.298   8.035 -1.1934  0.6079  2.1120
  914MOL0     H23364   4.086   5.537   8.207  1.2185 -0.4640 -1.3624
  914MOL0     H23365   4.085   5.368   8.256  0.2003 -1.0685 -0.9329
  914MOL0     H23366   3.869   5.518   8.336  0.8406 -1.0221 -0.2902
  914MOL0     H23367   3.804   5.490   8.188 -1.2372  1.0897  2.0935
  914MOL0     H23368   3.931   5.268   8.359  1.1629 -1.7950 -1.6559
  914MOL0     H23369   3.852   5.230   8.211 -0.7362  1.2678  0.3138
  914MOL0     H23370   3.691   5.183   8.397  0.9031  0.1620 -1.0557
  914MOL0     H23371   3.636   5.317   8.292  1.4988  1.5849 -0.8304
  914MOL0     H23372   4.234   5.868   7.744  0.4889 -0.2665  0.3157
  914MOL0     H23373   4.418   6.012   7.715 -0.7130 -0.2959  3.4587
  914MOL0     H23374   4.710   6.044   7.425 -2.1168  0.5651  0.2554
  914MOL0     H23375   4.866   6.171   7.284 -3.5359 -0.2048 -0.8860
  914MOL0     H23376   5.333   5.414   8.719  1.1622  3.9847  0.9512
  914MOL0     H23377   5.519   5.248   8.729 -0.7486 -1.4335 -0.4566
  914MOL0     H23378   5.939   5.179   8.439  1.1509  0.0376 -2.6790
  914MOL0     H23379   6.146   5.057   8.404 -0.5302  0.1755 -1.3549
  914MOL0     H23380   6.254   4.655   8.272 -1.3391 -1.0240 -0.3779
  914MOL0     H23381   6.076   4.692   8.250  0.1992 -1.5442  2.2511
  914MOL0     H23382   6.125   4.911   8.159 -1.4918 -2.4312  0.8375
  914MOL0     H23383   6.172   4.775   8.065 -0.4810 -2.1041  1.2576
  914MOL0     H23384   6.384   4.837   8.044  0.8573  3.5184 -0.7435
  914MOL0     H23385   6.405   4.840   8.216  1.1171 -0.8453 -0.2387
  914MOL0     H23386   6.451   5.061   8.134 -0.4756  0.7286 -1.3603
  914MOL0     H23387   6.287   5.072   8.211 -1.1682 -0.7736 -0.0850
  914MOL0     H23388   6.195   5.176   7.816  0.6688 -0.8092 -1.0795
  914MOL0     H23389   5.943   4.690   8.450 -1.3885 -0.1417 -0.5429
  914MOL0     H23390   5.734   4.811   8.529  1.2707 -0.1020  1.5113
  915MOL0     O23391   4.099   0.999   9.303 -0.1368 -0.2075 -0.4378
  915MOL0     C23392   4.102   0.903   9.380  0.3907  0.3763 -0.7611
  915MOL0     O23393   4.074   0.914   9.514  0.2812  0.2510 -0.1449
  915MOL0     C23394   4.024   1.029   9.565  0.3145 -0.5363 -0.2002
  915MOL0     C23395   4.121   1.128   9.607  0.0944  0.6702  0.2692
  915MOL0     C23396   4.076   1.250   9.658  0.5093 -0.4112  0.1122
  915MOL0     C23397   3.939   1.286   9.666 -0.1038  0.2364  0.5522
  915MOL0     O23398   3.888   1.411   9.692 -0.4526  0.7513 -0.2041
  915MOL0     C23399   3.965   1.486   9.783  0.3534  0.4148 -0.5746
  915MOL0     C23400   3.878   1.618   9.807 -0.3714  0.0641 -0.4372
  915MOL0     C23401   3.871   1.697   9.681 -0.1406 -0.5801 -0.6446
  915MOL0     C23402   4.015   1.742   9.622  0.5972  0.1306  0.0483
  915MOL0     C23403   4.005   1.814   9.487 -0.5630 -0.1421 -0.5898
  915MOL0     C23404   3.968   1.961   9.509  0.7801 -0.6168  0.0669
  915MOL0     C23405   4.068   2.059   9.584  0.1839 -0.4546  0.3831
  915MOL0     C23406   4.024   2.202   9.560  0.6868 -0.5368 -0.4806
  915MOL0     N23407   4.028   2.266   9.427 -0.1086 -1.4405  0.6012
  915MOL0     C23408   4.142   2.285   9.355 -0.0443 -0.9705  0.8303
  915MOL0     C23409   4.116   2.362   9.255 -0.2037  0.3691  0.7084
  915MOL0     C23410   4.225   2.411   9.161 -0.3339 -0.4223  0.5573
  915MOL0     C23411   4.241   2.297   9.062 -0.3578 -0.5679 -0.2607
  915MOL0     C23412   4.336   2.334   8.946 -0.1526  0.6610 -0.5764
  915MOL0     C23413   4.352   2.228   8.837  0.3968 -0.0197 -0.3126
  915MOL0     O23414   4.391   2.104   8.909  0.2660  0.7973  0.5825
  915MOL0     C23415   4.458   1.999   8.844 -0.6033 -0.1319  0.3906
  915MOL0     C23416   4.517   1.906   8.933 -0.5711 -0.7454  0.4907
  915MOL0     C23417   4.560   1.785   8.889 -0.7401 -0.8631  0.6195
  915MOL0     C23418   4.611   1.702   8.996 -0.0573 -0.2031 -0.6944
  915MOL0     C23419   4.561   1.758   8.752 -0.2605  0.2735  0.3729
  915MOL0     C23420   4.620   1.630   8.685 -0.5291 -0.5339 -0.0462
  915MOL0     O23421   4.556   1.592   8.568 -0.1733 -0.7192  0.3293
  915MOL0     C23422   4.583   1.476   8.506  0.6256 -0.9427 -0.1183
  915MOL0     C23423   4.473   1.403   8.472  1.2257  0.2118 -1.0265
  915MOL0     C23424   4.478   1.293   8.396 -0.6380 -0.7691  0.1599
  915MOL0     C23425   4.609   1.245   8.350 -0.4639 -0.2686 -0.0140
  915MOL0     O23426   4.615   1.136   8.261  0.2182 -0.1728 -0.0037
  915MOL0     C23427   4.561   1.158   8.130  0.5419 -0.1328  0.4403
  915MOL0     C23428   4.620   1.045   8.038 -0.5000 -0.4898 -0.5133
  915MOL0     C23429   4.657   1.092   7.897  1.2418  0.1757  0.1525
  915MOL0     C23430   4.543   1.135   7.795 -0.6146  0.1099 -0.6814
  915MOL0     C23431   4.574   1.104   7.658 -0.0087  0.8603 -0.6084
  915MOL0     C23432   4.466   1.164   7.564 -0.0378  0.5631  0.5098
  915MOL0     C23433   4.490   1.179   7.413 -0.2347  0.2059  0.1138
  915MOL0     C23434   4.354   1.181   7.345 -0.9364  0.3766  0.2354
  915MOL0    Cl23435   4.293   1.011   7.338  0.0693  0.0778  0.0437
  915MOL0     C23436   4.719   1.308   8.406  0.1469  0.9350  0.3286
  915MOL0     C23437   4.710   1.421   8.487 -0.5821  0.5279 -0.5842
  915MOL0     O23438   4.710   1.567   8.745  0.0179  0.7520  0.3476
  915MOL0     C23439   4.508   1.848   8.657 -0.1761 -0.5523 -0.7548
  915MOL0     C23440   4.462   1.973   8.709  0.0033  0.1961  0.0501
  915MOL0     N23441   3.990   2.412   9.274 -0.0950  0.2921 -1.0872
  915MOL0     N23442   3.935   2.364   9.385 -0.5793  0.2488 -0.2256
  915MOL0     C23443   3.845   1.182   9.629 -0.3278  0.1234  0.4961
  915MOL0     C23444   3.887   1.054   9.576 -0.1261 -0.1284 -0.2951
  915MOL0     C23445   4.118   0.765   9.319  0.5597  0.3692  1.0284
  915MOL0     C23446   4.100   0.650   9.402  0.2957  0.2627  0.3609
  915MOL0     C23447   4.129   0.523   9.347  0.6864  0.0264  0.3128
  915MOL0     C23448   4.170   0.509   9.215  0.3611 -0.8051  0.6095
  915MOL0     O23449   4.217   0.394   9.159  0.4815  0.0792 -0.6773
  915MOL0     C23450   4.285   0.286   9.225  0.5491 -0.3111  0.6851
  915MOL0     C23451   4.395   0.338   9.323 -0.0674  0.1738  0.4593
  915MOL0     C23452   4.526   0.378   9.249  0.1953 -0.7046 -0.0966
  915MOL0     C23453   4.646   0.401   9.342 -0.0879 -0.4586 -0.7061
  915MOL0     C23454   4.776   0.397   9.271 -0.1755 -0.7507 -0.2844
  915MOL0     C23455   4.880   0.382   9.218 -0.9792  0.9303 -0.0128
  915MOL0     C23456   4.180   0.625   9.135 -1.0109  0.4602 -0.8528
  915MOL0     C23457   4.150   0.752   9.181  0.5718 -0.7157 -0.5562
  915MOL0     H23458   4.228   1.120   9.587  0.1389  2.0983 -0.2129
  915MOL0     H23459   4.150   1.328   9.669  2.8244 -2.5478  0.8363
  915MOL0     H23460   3.971   1.441   9.882 -0.1086  2.3089  0.3647
  915MOL0     H23461   4.067   1.502   9.746 -0.2006  0.8043 -2.0451
  915MOL0     H23462   3.775   1.591   9.833 -0.1263  1.0552  1.8924
  915MOL0     H23463   3.933   1.676   9.882 -0.5844 -2.0497  1.4670
  915MOL0     H23464   3.816   1.645   9.602 -0.2943  0.6888 -1.4041
  915MOL0     H23465   3.813   1.787   9.704  1.1370  0.4832 -1.4536
  915MOL0     H23466   4.080   1.788   9.698  1.9654  0.3740 -1.2168
  915MOL0     H23467   4.050   1.640   9.604 -1.5188 -0.6506  0.0696
  915MOL0     H23468   4.107   1.811   9.449 -0.2685 -3.3535  0.1588
  915MOL0     H23469   3.949   1.765   9.406 -1.9086 -1.6038  1.1205
  915MOL0     H23470   3.968   1.987   9.403  0.5414 -0.0578  0.1990
  915MOL0     H23471   3.865   1.973   9.545  0.3705  1.9812 -1.7075
  915MOL0     H23472   4.072   2.027   9.689  3.0234 -1.3166  0.1166
  915MOL0     H23473   4.172   2.039   9.554  0.1841  0.0474  0.0413
  915MOL0     H23474   4.098   2.258   9.618 -0.0306 -0.2038  0.1275
  915MOL0     H23475   3.925   2.212   9.606  0.4832 -3.2023 -0.1409
  915MOL0     H23476   4.235   2.232   9.376 -1.1385 -2.6763  1.5673
  915MOL0     H23477   4.181   2.490   9.099  1.3467 -1.2555 -1.8533
  915MOL0     H23478   4.314   2.442   9.217 -0.1417  1.8367 -0.8546
  915MOL0     H23479   4.148   2.250   9.030 -0.4666 -0.3802 -0.2216
  915MOL0     H23480   4.286   2.214   9.118 -1.0190 -1.0085 -0.3709
  915MOL0     H23481   4.441   2.338   8.977 -0.3615  2.7331  0.0315
  915MOL0     H23482   4.306   2.433   8.910 -1.7675 -0.7645 -3.5743
  915MOL0     H23483   4.426   2.268   8.767 -1.5496 -0.6148 -2.9104
  915MOL0     H23484   4.257   2.212   8.784 -2.8675 -1.1036  5.1337
  915MOL0     H23485   4.508   1.929   9.039 -0.5224 -0.1196  0.3604
  915MOL0     H23486   4.716   1.672   8.983 -0.5641 -1.9397 -1.1537
  915MOL0     H23487   4.603   1.747   9.095 -1.1563  1.4358 -1.4812
  915MOL0     H23488   4.549   1.612   9.001  1.2296 -1.1314 -0.8732
  915MOL0     H23489   4.381   1.455   8.496  0.1372 -2.2583  0.5976
  915MOL0     H23490   4.383   1.248   8.367  0.6403 -3.7129  0.1337
  915MOL0     H23491   4.451   1.158   8.126  0.5310 -2.0037 -0.5552
  915MOL0     H23492   4.596   1.251   8.085 -2.5697  0.3565 -1.3003
  915MOL0     H23493   4.716   1.012   8.080  0.1530  2.3699  0.4431
  915MOL0     H23494   4.544   0.966   8.030 -3.4070  2.1203 -0.8176
  915MOL0     H23495   4.708   1.005   7.855  1.1804  0.4572 -0.5132
  915MOL0     H23496   4.740   1.162   7.906  2.6036 -1.3792  0.2446
  915MOL0     H23497   4.462   1.073   7.835  2.8183 -3.2413  1.8641
  915MOL0     H23498   4.520   1.238   7.822  0.5362  0.1207  0.3477
  915MOL0     H23499   4.578   0.995   7.644  5.0362  0.5860  0.8425
  915MOL0     H23500   4.671   1.149   7.636  1.6241 -0.4306  3.0788
  915MOL0     H23501   4.375   1.108   7.589  1.1291 -1.5357  0.3046
  915MOL0     H23502   4.444   1.268   7.588  2.0323  2.3432 -4.1517
  915MOL0     H23503   4.553   1.103   7.365 -2.0543 -1.8379  0.7870
  915MOL0     H23504   4.553   1.268   7.408  3.1914 -1.7317  3.2579
  915MOL0     H23505   4.376   1.204   7.241 -1.2844 -0.4017 -0.0186
  915MOL0     H23506   4.284   1.251   7.393  2.3581  1.8480  3.3367
  915MOL0     H23507   4.820   1.270   8.390 -0.2873  0.0170 -0.3715
  915MOL0     H23508   4.799   1.459   8.537 -1.1026  1.8994 -0.6585
  915MOL0     H23509   4.520   1.829   8.551 -1.0688  2.0550 -1.3983
  915MOL0     H23510   4.421   2.049   8.643  1.2053  0.3176 -0.5665
  915MOL0     H23511   3.741   1.209   9.646 -0.1087  0.5258  1.2139
  915MOL0     H23512   3.820   0.981   9.532 -0.2584 -0.1710 -0.0207
  915MOL0     H23513   4.068   0.658   9.505 -0.6320  0.5698  0.0569
  915MOL0     H23514   4.143   0.442   9.418  2.4229  0.5979  0.6606
  915MOL0     H23515   4.209   0.218   9.264 -0.8970 -1.7129 -3.8898
  915MOL0     H23516   4.341   0.223   9.155  0.8729  0.7958 -0.0800
  915MOL0     H23517   4.403   0.252   9.391  1.2031 -1.7205 -1.8990
  915MOL0     H23518   4.358   0.422   9.382 -3.1865 -1.0250  0.3989
  915MOL0     H23519   4.510   0.473   9.197 -0.4223 -0.2806  0.8562
  915MOL0     H23520   4.553   0.302   9.175  1.0728  0.6605 -1.2350
  915MOL0     H23521   4.652   0.328   9.423 -0.6359 -1.9312 -1.9426
  915MOL0     H23522   4.647   0.498   9.392  3.0138 -0.8675  0.1911
  915MOL0     H23523   4.972   0.374   9.164 -1.2737 -1.1248 -0.2910
  915MOL0     H23524   4.224   0.606   9.038 -0.5338 -0.9300 -0.3854
  915MOL0     H23525   4.161   0.839   9.118  2.7046  0.4145  1.2462
  916MOL0     O23526  10.668   8.184   4.177 -0.0319  0.8698 -0.0070
  916MOL0     C23527  10.658   8.156   4.062 -0.2139  0.5120 -0.8168
  916MOL0     O23528  10.541   8.158   3.987  1.0468  0.0993  0.0338
  916MOL0     C23529  10.423   8.215   4.039 -0.6902  0.3753 -0.1531
  916MOL0     C23530  10.379   8.181   4.165 -0.6479  0.0507 -1.0462
  916MOL0     C23531  10.255   8.232   4.204  0.5117 -0.9698 -0.7566
  916MOL0     C23532  10.171   8.308   4.114  0.4579  1.1429  0.2285
  916MOL0     O23533  10.040   8.346   4.145  0.9721  0.2607 -0.4264
  916MOL0     C23534  10.003   8.372   4.281  0.1432  1.0347 -0.4133
  916MOL0     C23535  10.081   8.495   4.339 -0.7126 -0.1845  0.6716
  916MOL0     C23536  10.072   8.500   4.492 -0.1242  0.3177  0.2324
  916MOL0     C23537  10.119   8.633   4.549 -0.5687  0.2770 -0.6135
  916MOL0     C23538  10.273   8.652   4.519  0.0084 -1.0745  0.3336
  916MOL0     C23539  10.320   8.797   4.570  0.0273  0.5640  0.5685
  916MOL0     C23540  10.293   8.842   4.711  0.1072  0.1885 -0.3195
  916MOL0     C23541  10.354   8.760   4.833  0.0156  0.6003 -0.1438
  916MOL0     N23542  10.340   8.842   4.958  0.0587 -0.3249  0.7937
  916MOL0     C23543  10.223   8.862   5.028  0.2387  0.1865  0.5793
  916MOL0     C23544  10.251   8.951   5.127  1.1317  0.1275  0.5314
  916MOL0     C23545  10.144   9.025   5.195  0.3436 -0.6415 -0.5652
  916MOL0     C23546  10.040   8.944   5.278 -0.0843 -0.0076 -0.0173
  916MOL0     C23547  10.112   8.866   5.403  0.0108  0.0456  0.1526
  916MOL0     C23548  10.009   8.816   5.507  0.6483  0.7717 -0.6085
  916MOL0     O23549   9.912   8.724   5.460  0.6984 -0.9103  0.3042
  916MOL0     C23550   9.859   8.635   5.552 -0.4426 -0.5847  0.1052
  916MOL0     C23551   9.859   8.639   5.692 -0.1797  0.5491  0.6430
  916MOL0     C23552   9.787   8.550   5.768  0.2851  0.2159 -0.1384
  916MOL0     C23553   9.777   8.582   5.916 -0.5310 -0.0085 -0.4236
  916MOL0     C23554   9.742   8.429   5.706  0.2307 -0.0995  0.4404
  916MOL0     C23555   9.678   8.319   5.776 -0.6011  0.3852  0.1645
  916MOL0     O23556   9.630   8.226   5.689  0.5607  0.3162 -0.0368
  916MOL0     C23557   9.580   8.101   5.717  1.1783 -1.1577  0.4491
  916MOL0     C23558   9.610   8.027   5.831 -0.0101 -0.0027  0.6166
  916MOL0     C23559   9.548   7.901   5.852 -0.5939  0.2430 -0.3803
  916MOL0     C23560   9.463   7.844   5.751 -0.0967  0.1503  0.1308
  916MOL0     O23561   9.412   7.722   5.770 -0.5761 -0.0908 -0.5939
  916MOL0     C23562   9.271   7.702   5.763  0.6387 -0.5335 -0.4739
  916MOL0     C23563   9.240   7.555   5.781 -0.1774 -0.0471  0.9438
  916MOL0     C23564   9.269   7.488   5.919  0.3255  0.4884  0.0635
  916MOL0     C23565   9.204   7.343   5.922 -0.6068 -0.1674  0.2722
  916MOL0     C23566   9.247   7.272   6.048  0.4792 -0.3691 -0.7575
  916MOL0     C23567   9.144   7.274   6.155  0.0070  0.0780  0.3281
  916MOL0     C23568   9.196   7.166   6.255 -0.5552  0.2878  1.3128
  916MOL0     C23569   9.144   7.028   6.212  1.0110  0.0839 -0.9417
  916MOL0    Cl23570   8.966   6.998   6.273  0.4901 -0.1115  0.0825
  916MOL0     C23571   9.435   7.922   5.640 -0.6646  0.4956 -0.1914
  916MOL0     C23572   9.488   8.050   5.627  0.5476  0.0016  0.0213
  916MOL0     O23573   9.665   8.308   5.896 -1.1847  0.1574 -0.2071
  916MOL0     C23574   9.748   8.420   5.563 -0.1338  0.3124 -0.2120
  916MOL0     C23575   9.794   8.528   5.493  0.5790 -0.0607 -0.3392
  916MOL0     N23576  10.383   8.969   5.128  0.1262 -0.1974  0.0404
  916MOL0     N23577  10.440   8.907   5.019 -0.4534 -0.4382 -0.2286
  916MOL0     C23578  10.227   8.342   3.986 -0.3299 -0.3169  0.2608
  916MOL0     C23579  10.348   8.287   3.952 -0.5111 -0.5293  0.6200
  916MOL0     C23580  10.790   8.120   3.989 -0.0576  0.7202  0.5007
  916MOL0     C23581  10.789   8.057   3.860  0.6890 -1.0807 -1.5690
  916MOL0     C23582  10.905   8.044   3.788  0.9337  0.7003 -0.1666
  916MOL0     C23583  11.032   8.080   3.829  0.3810 -0.3367 -0.4085
  916MOL0     O23584  11.147   8.059   3.763  0.1082 -0.1008 -0.7208
  916MOL0     C23585  11.134   8.052   3.625 -0.0692 -0.0939 -0.2601
  916MOL0     C23586  11.278   8.036   3.573  0.1211 -1.2048  0.2301
  916MOL0     C23587  11.357   7.926   3.628 -0.4637  0.4743  0.1753
  916MOL0     C23588  11.494   7.902   3.567  0.2448  0.1273  0.5151
  916MOL0     C23589  11.549   7.764   3.589  0.0050  0.7276  0.2609
  916MOL0     C23590  11.600   7.658   3.598  0.2096  0.5737  0.2067
  916MOL0     C23591  11.038   8.129   3.964  0.3704  0.4447  0.3876
  916MOL0     C23592  10.916   8.158   4.037  0.0236 -0.7213 -0.5067
  916MOL0     H23593  10.449   8.126   4.227 -0.6516  0.6948 -0.4608
  916MOL0     H23594  10.222   8.219   4.307 -0.7112 -1.8301 -1.2377
  916MOL0     H23595   9.896   8.394   4.282  0.1206  0.9822  1.3935
  916MOL0     H23596  10.030   8.281   4.335  0.9198  1.6468  0.2580
  916MOL0     H23597  10.183   8.475   4.306 -0.9881 -1.6997  0.6730
  916MOL0     H23598  10.041   8.585   4.292  0.6088  0.4361  0.6976
  916MOL0     H23599   9.970   8.480   4.528 -0.8167  0.6280 -1.4552
  916MOL0     H23600  10.134   8.422   4.537  1.9394 -0.2625 -3.3102
  916MOL0     H23601  10.059   8.719   4.521  0.2021  0.5127 -1.6207
  916MOL0     H23602  10.126   8.627   4.658 -0.6451 -3.1081 -0.6682
  916MOL0     H23603  10.328   8.571   4.569 -1.9895 -1.4230  2.1591
  916MOL0     H23604  10.283   8.648   4.411  0.2633  0.8930  0.2600
  916MOL0     H23605  10.428   8.802   4.559 -0.0355 -1.8688 -2.3043
  916MOL0     H23606  10.273   8.869   4.503 -1.9822 -0.0445  1.2232
  916MOL0     H23607  10.321   8.948   4.714 -2.4637  0.9457 -0.4371
  916MOL0     H23608  10.184   8.845   4.720  0.2030  0.3915  0.9020
  916MOL0     H23609  10.460   8.738   4.817  0.8745  2.7121  2.1796
  916MOL0     H23610  10.304   8.662   4.839  3.3452 -1.2631 -0.3913
  916MOL0     H23611  10.124   8.819   5.010  0.2602 -0.5490  2.0728
  916MOL0     H23612  10.193   9.093   5.266  0.1887 -1.0841 -0.0296
  916MOL0     H23613  10.092   9.083   5.118  0.0109  3.4755  2.4242
  916MOL0     H23614   9.988   8.878   5.208 -1.5374 -2.9163  3.4750
  916MOL0     H23615   9.982   9.022   5.329  4.0149  0.7104  4.3704
  916MOL0     H23616  10.185   8.934   5.448 -0.1956  0.4178 -0.0792
  916MOL0     H23617  10.168   8.783   5.359 -1.3040 -1.5343  1.3101
  916MOL0     H23618   9.961   8.907   5.543  2.1674  1.9354 -1.3882
  916MOL0     H23619  10.068   8.765   5.584 -1.6445 -1.2762 -0.0944
  916MOL0     H23620   9.890   8.729   5.744 -1.2582  2.1711 -1.3648
  916MOL0     H23621   9.764   8.498   5.985 -0.3251 -0.7713 -1.2844
  916MOL0     H23622   9.869   8.623   5.960 -1.7733  3.7400 -0.9776
  916MOL0     H23623   9.705   8.659   5.944  2.1216  1.5296  2.9023
  916MOL0     H23624   9.688   8.066   5.896  2.1351 -1.6075 -0.8278
  916MOL0     H23625   9.581   7.845   5.939 -3.8188 -2.2221 -0.5716
  916MOL0     H23626   9.221   7.761   5.840 -0.3773 -2.2816  0.2789
  916MOL0     H23627   9.227   7.733   5.668 -0.3018  0.0642  0.1482
  916MOL0     H23628   9.133   7.546   5.759  0.2791 -0.2068 -1.5736
  916MOL0     H23629   9.304   7.496   5.714 -1.2723 -1.1978  0.8571
  916MOL0     H23630   9.227   7.552   5.997  1.0197  1.9370 -0.7105
  916MOL0     H23631   9.377   7.472   5.929  0.1705 -1.0838 -0.4634
  916MOL0     H23632   9.094   7.341   5.915 -1.0066  2.6430  3.0709
  916MOL0     H23633   9.225   7.282   5.834 -2.4152 -0.3736 -0.0586
  916MOL0     H23634   9.345   7.300   6.089  0.6860 -0.5223 -1.1415
  916MOL0     H23635   9.273   7.171   6.015  0.2133 -0.2302 -1.4105
  916MOL0     H23636   9.139   7.370   6.208 -3.9863 -0.0992  0.5926
  916MOL0     H23637   9.044   7.257   6.113 -0.4262  2.1344  0.4206
  916MOL0     H23638   9.169   7.196   6.356  0.9890 -0.4204  1.9765
  916MOL0     H23639   9.305   7.165   6.254 -0.4779  2.4575 -1.0531
  916MOL0     H23640   9.209   6.953   6.257  0.6955  1.1086  1.3638
  916MOL0     H23641   9.153   7.020   6.103 -3.0491  0.1293 -1.4353
  916MOL0     H23642   9.370   7.886   5.562 -1.4905  0.4365  0.5188
  916MOL0     H23643   9.467   8.116   5.543  4.5418  2.4476  0.6959
  916MOL0     H23644   9.699   8.344   5.503 -0.8233  1.4005 -1.0630
  916MOL0     H23645   9.817   8.518   5.388  0.1628  0.1612 -0.4546
  916MOL0     H23646  10.166   8.409   3.927 -0.5469  0.2669  1.1270
  916MOL0     H23647  10.384   8.315   3.853 -2.5175  3.7080  0.8268
  916MOL0     H23648  10.693   8.030   3.817 -1.1136 -1.7876  2.4229
  916MOL0     H23649  10.887   8.009   3.688  3.8958 -0.8323 -0.2689
  916MOL0     H23650  11.070   7.969   3.594  0.1906  0.1303 -1.4802
  916MOL0     H23651  11.076   8.137   3.586 -0.5030 -1.6672 -3.3354
  916MOL0     H23652  11.334   8.126   3.602  0.5839 -1.8081  1.2640
  916MOL0     H23653  11.283   8.040   3.464  0.9942  3.0749  0.2590
  916MOL0     H23654  11.311   7.829   3.609  4.3807 -2.0349 -0.2788
  916MOL0     H23655  11.362   7.942   3.736  4.4728  0.2619  0.1827
  916MOL0     H23656  11.557   7.970   3.625 -1.4875  0.1325  2.5128
  916MOL0     H23657  11.495   7.925   3.460 -0.3024 -0.3250  0.4052
  916MOL0     H23658  11.644   7.561   3.588 -0.9097  0.2689 -2.6951
  916MOL0     H23659  11.133   8.165   4.002  0.4212 -0.0155  0.7092
  916MOL0     H23660  10.923   8.212   4.131 -0.9417  0.9009 -1.3236
  917MOL0     O23661  11.231   4.749   5.939 -0.2924  0.1596 -0.2214
  917MOL0     C23662  11.268   4.829   6.021  0.0867  0.5667 -0.4651
  917MOL0     O23663  11.364   4.805   6.120 -0.1267 -0.1093 -0.5364
  917MOL0     C23664  11.438   4.695   6.142 -1.4584  0.2084  0.5599
  917MOL0     C23665  11.559   4.712   6.221  0.8781 -0.1401 -0.3919
  917MOL0     C23666  11.625   4.600   6.267  0.3829 -0.1120  0.0094
  917MOL0     C23667  11.594   4.474   6.218 -0.0971  0.2780  0.1858
  917MOL0     O23668  11.685   4.377   6.269 -0.2837 -0.0632  0.2559
  917MOL0     C23669  11.650   4.236   6.257  0.2319 -0.7425  0.0420
  917MOL0     C23670  11.755   4.143   6.316 -0.8103  0.1594 -0.3332
  917MOL0     C23671  11.701   3.992   6.307  0.0703 -0.5102  0.6332
  917MOL0     C23672  11.786   3.893   6.391  0.7104 -0.5769 -0.0740
  917MOL0     C23673  11.758   3.754   6.349  0.1659  0.4292 -0.0221
  917MOL0     C23674  11.855   3.656   6.418 -0.5014 -0.5901  1.1839
  917MOL0     C23675  11.798   3.511   6.413 -0.0215  0.6227 -0.2843
  917MOL0     C23676  11.795   3.459   6.270 -0.2720 -0.2798  0.8271
  917MOL0     N23677  11.754   3.316   6.259  0.0460 -0.0458 -0.2138
  917MOL0     C23678  11.768   3.218   6.352  0.3684 -0.3167  0.1064
  917MOL0     C23679  11.716   3.106   6.292 -0.0446  0.7180  0.2858
  917MOL0     C23680  11.728   2.967   6.352  1.2091  0.1431 -0.2454
  917MOL0     C23681  11.810   2.867   6.257  0.4439  0.6680 -0.5588
  917MOL0     C23682  11.735   2.828   6.132  0.2612 -0.6672 -0.4564
  917MOL0     C23683  11.824   2.725   6.064 -0.8555 -0.1484  0.3073
  917MOL0     O23684  11.939   2.785   5.998 -0.1234  0.3079 -0.5771
  917MOL0     C23685  12.032   2.691   5.954  0.5519 -0.2866  0.3129
  917MOL0     C23686  12.168   2.734   5.933 -0.0844  0.7149  0.2344
  917MOL0     C23687  12.273   2.658   5.881 -0.1910  0.3501 -0.5874
  917MOL0     C23688  12.414   2.708   5.866  0.2541  0.3350 -0.4216
  917MOL0     C23689  12.244   2.520   5.870 -0.5355  0.2140  0.4116
  917MOL0     C23690  12.344   2.417   5.812 -0.1630  0.5987 -0.9436
  917MOL0     O23691  12.293   2.326   5.734  0.1146 -0.9140  0.4285
  917MOL0     C23692  12.346   2.198   5.721 -0.1206 -0.0175  0.6599
  917MOL0     C23693  12.303   2.120   5.610 -0.5399 -0.6622 -0.3567
  917MOL0     C23694  12.356   1.995   5.592 -0.0252 -0.0103  0.5678
  917MOL0     C23695  12.443   1.949   5.691  0.0629  0.3015  0.6999
  917MOL0     O23696  12.506   1.833   5.676 -0.3876 -0.1994 -0.3620
  917MOL0     C23697  12.433   1.720   5.618  0.4384  0.0290  0.2616
  917MOL0     C23698  12.501   1.599   5.692 -0.0997 -0.1064 -0.2518
  917MOL0     C23699  12.442   1.560   5.821 -0.1932  0.5879  0.0113
  917MOL0     C23700  12.497   1.411   5.857  0.2399  0.2243 -0.3372
  917MOL0     C23701  12.494   1.356   6.003 -0.5267  0.5536 -0.3233
  917MOL0     C23702  12.350   1.352   6.043  0.6155  0.6800  0.0691
  917MOL0     C23703  12.335   1.275   6.181 -0.0133  0.1740 -0.5849
  917MOL0     C23704  12.193   1.285   6.238  0.0888  0.3105 -0.0504
  917MOL0    Cl23705  12.115   1.438   6.212  0.1991 -0.0654  0.0182
  917MOL0     C23706  12.488   2.025   5.798 -0.6729 -0.1116  0.3086
  917MOL0     C23707  12.431   2.149   5.819 -0.4696  0.3501  0.1581
  917MOL0     O23708  12.463   2.428   5.839  0.4974 -0.1235 -0.2076
  917MOL0     C23709  12.113   2.479   5.881  0.1212 -0.1569  0.0480
  917MOL0     C23710  12.006   2.562   5.921 -0.1175  0.2545 -0.1989
  917MOL0     N23711  11.692   3.146   6.161  0.7575 -0.1462 -0.0923
  917MOL0     N23712  11.706   3.270   6.144 -0.7459  0.1322 -0.3482
  917MOL0     C23713  11.483   4.454   6.133  1.3566  0.3617 -0.8405
  917MOL0     C23714  11.410   4.563   6.099  0.0543 -0.6252  0.1079
  917MOL0     C23715  11.205   4.961   6.020  0.7470 -0.8779 -0.4199
  917MOL0     C23716  11.117   4.998   5.916 -0.1761 -0.5926  0.6531
  917MOL0     C23717  11.062   5.121   5.908  0.3990 -1.3596  0.1897
  917MOL0     C23718  11.090   5.217   6.012  0.0172 -0.2572 -0.0417
  917MOL0     O23719  11.043   5.345   6.017  0.5009 -0.1344  0.2910
  917MOL0     C23720  10.946   5.385   5.919  0.0250  0.5140 -0.6357
  917MOL0     C23721  10.799   5.325   5.911  0.4267 -0.5280  0.8003
  917MOL0     C23722  10.692   5.432   5.864 -0.1183  0.4242 -0.2212
  917MOL0     C23723  10.649   5.411   5.724  0.4058  0.7585  0.0577
  917MOL0     C23724  10.580   5.279   5.696  1.3018  0.6279 -0.2310
  917MOL0     C23725  10.521   5.169   5.678 -0.5591  0.9235  0.0967
  917MOL0     C23726  11.173   5.180   6.119  0.0129 -0.5245 -0.2261
  917MOL0     C23727  11.242   5.057   6.119  0.0983 -0.3786 -0.2193
  917MOL0     H23728  11.596   4.804   6.264  0.8662 -1.3583  2.4034
  917MOL0     H23729  11.709   4.611   6.335  0.8345  2.8624 -0.9278
  917MOL0     H23730  11.549   4.220   6.296 -0.5742  1.1661 -1.0655
  917MOL0     H23731  11.633   4.213   6.151 -1.3331  1.9114 -0.3903
  917MOL0     H23732  11.848   4.155   6.259 -1.5881  2.1876 -1.2520
  917MOL0     H23733  11.765   4.163   6.423 -1.2596 -1.0488 -0.0436
  917MOL0     H23734  11.597   3.984   6.339  0.4111 -0.2086  1.8913
  917MOL0     H23735  11.704   3.964   6.201 -0.1122 -2.7089  1.1729
  917MOL0     H23736  11.891   3.912   6.364  1.5602 -1.6546  2.2263
  917MOL0     H23737  11.765   3.917   6.496 -0.4490 -0.4666 -0.3237
  917MOL0     H23738  11.649   3.741   6.357  0.0343  0.1206 -1.8140
  917MOL0     H23739  11.768   3.745   6.240 -0.4474  2.2499 -0.2535
  917MOL0     H23740  11.953   3.666   6.371  0.0788 -2.0419  2.0208
  917MOL0     H23741  11.881   3.686   6.520  2.4022 -2.3701  1.0865
  917MOL0     H23742  11.848   3.452   6.489 -0.2636  0.9138  0.1045
  917MOL0     H23743  11.690   3.516   6.430 -0.9526 -0.2981 -4.5761
  917MOL0     H23744  11.892   3.482   6.226 -0.0248  2.2055  2.4458
  917MOL0     H23745  11.721   3.506   6.204 -1.2048 -3.6059 -0.6914
  917MOL0     H23746  11.805   3.213   6.453 -1.6384  0.5517  0.9425
  917MOL0     H23747  11.763   2.976   6.455 -2.7416 -0.6198  1.3531
  917MOL0     H23748  11.631   2.915   6.359  0.7407  1.0489  0.1592
  917MOL0     H23749  11.829   2.782   6.323  1.4731  0.9889 -0.4240
  917MOL0     H23750  11.908   2.913   6.241  2.6063 -2.9535  1.0705
  917MOL0     H23751  11.728   2.916   6.068  0.3040  1.3631  2.1194
  917MOL0     H23752  11.640   2.788   6.168  1.1010 -0.2137  2.5772
  917MOL0     H23753  11.766   2.666   5.992  0.3134  1.2938 -1.9492
  917MOL0     H23754  11.857   2.648   6.135 -1.7935 -2.7386 -1.8887
  917MOL0     H23755  12.189   2.837   5.962 -1.3969  0.7699  1.0901
  917MOL0     H23756  12.418   2.813   5.896  0.9557  0.1001  0.3429
  917MOL0     H23757  12.482   2.646   5.926 -0.2777 -0.6671 -0.8131
  917MOL0     H23758  12.428   2.706   5.758  0.2421 -1.3623 -0.4327
  917MOL0     H23759  12.232   2.169   5.544 -0.4747  3.4555  2.2670
  917MOL0     H23760  12.315   1.931   5.514  0.7838  2.4901 -2.0517
  917MOL0     H23761  12.326   1.727   5.642  0.6546  0.0277  1.2853
  917MOL0     H23762  12.454   1.720   5.511  0.5044 -0.4078  0.2767
  917MOL0     H23763  12.491   1.515   5.623  1.1750 -1.1568  0.7985
  917MOL0     H23764  12.609   1.608   5.706  0.0956 -2.1552 -0.0889
  917MOL0     H23765  12.333   1.548   5.820 -0.2393  0.8922  1.0607
  917MOL0     H23766  12.470   1.634   5.895  1.1425  0.0215  0.0958
  917MOL0     H23767  12.441   1.347   5.789 -0.5899  0.9681 -0.3669
  917MOL0     H23768  12.606   1.417   5.846  1.0694 -2.9851  3.5655
  917MOL0     H23769  12.550   1.422   6.070 -0.9919  1.6826 -0.9936
  917MOL0     H23770  12.533   1.254   6.005 -2.2349 -0.2688 -2.8400
  917MOL0     H23771  12.328   1.459   6.049 -0.1201  0.5055  0.6495
  917MOL0     H23772  12.286   1.306   5.967  0.5509  0.1587  0.4360
  917MOL0     H23773  12.404   1.320   6.253 -0.0984  0.7744 -0.8734
  917MOL0     H23774  12.362   1.169   6.171 -1.4277 -0.1690 -1.0059
  917MOL0     H23775  12.210   1.261   6.344 -3.0324 -4.8312 -0.3507
  917MOL0     H23776  12.142   1.201   6.189  0.0565 -1.2101  2.4142
  917MOL0     H23777  12.555   1.972   5.866 -0.6644  0.2234  0.5664
  917MOL0     H23778  12.460   2.203   5.909  0.1469  1.6278 -0.7846
  917MOL0     H23779  12.087   2.374   5.876  0.9156 -0.3564  0.1042
  917MOL0     H23780  11.907   2.520   5.935 -0.9385  2.4609  1.1478
  917MOL0     H23781  11.466   4.360   6.082  0.6603 -0.6556  1.1462
  917MOL0     H23782  11.321   4.548   6.038 -0.7775  3.2997  0.0516
  917MOL0     H23783  11.076   4.930   5.843 -0.1841  0.1490 -0.0430
  917MOL0     H23784  10.999   5.144   5.823  2.9782  4.9802 -0.5105
  917MOL0     H23785  10.948   5.492   5.942 -1.1732  1.1877 -3.3432
  917MOL0     H23786  10.987   5.375   5.818 -0.5908 -3.4424 -0.6623
  917MOL0     H23787  10.768   5.293   6.011  1.1344 -2.9751  0.3125
  917MOL0     H23788  10.796   5.233   5.852  2.0717 -0.0321 -0.1517
  917MOL0     H23789  10.734   5.533   5.865 -1.4251  0.9904 -0.6754
  917MOL0     H23790  10.608   5.426   5.935 -1.7315 -1.6695 -2.1641
  917MOL0     H23791  10.745   5.418   5.673  0.1862  2.8778 -0.1706
  917MOL0     H23792  10.592   5.504   5.707  1.3653  2.0405  3.1157
  917MOL0     H23793  10.477   5.071   5.668  0.7589  0.1987  1.0311
  917MOL0     H23794  11.179   5.251   6.201  3.9707 -0.6603 -0.2303
  917MOL0     H23795  11.315   5.030   6.194  0.4801 -1.7202 -1.0390
  918MOL0     O23796   8.769   2.030   0.417 -0.0241 -0.4758 -0.3614
  918MOL0     C23797   8.881   2.032   0.362 -0.3411 -0.0332  0.7370
  918MOL0     O23798   8.925   1.964   0.249  0.2234  0.1223 -0.4569
  918MOL0     C23799   8.836   1.873   0.190 -0.7527 -0.5421  0.6759
  918MOL0     C23800   8.821   1.883   0.058 -0.4449  0.4027 -0.1288
  918MOL0     C23801   8.735   1.803  -0.012 -0.0262  0.3338 -0.5395
  918MOL0     C23802   8.658   1.708   0.056 -0.1493  0.1969 -0.8900
  918MOL0     O23803   8.575   1.620  -0.017 -0.3242 -0.4319 -0.3309
  918MOL0     C23804   8.454   1.575   0.048  0.6962 -0.1872 -0.2610
  918MOL0     C23805   8.335   1.589  -0.048 -0.5676  1.1169 -0.0729
  918MOL0     C23806   8.213   1.523  -0.007 -0.6486 -0.5222  0.3890
  918MOL0     C23807   8.109   1.527  -0.116  0.5403  0.1876 -0.8145
  918MOL0     C23808   7.988   1.438  -0.094 -0.3792 -0.1809 -0.4555
  918MOL0     C23809   7.889   1.479  -0.195  0.1565  0.0184 -0.3231
  918MOL0     C23810   7.783   1.376  -0.225  0.5724 -0.0838  0.6205
  918MOL0     C23811   7.682   1.346  -0.112  0.4012 -0.5612 -0.2453
  918MOL0     N23812   7.558   1.283  -0.156 -0.3579 -0.9659 -0.8289
  918MOL0     C23813   7.507   1.273  -0.281 -0.2476  0.1078  0.0515
  918MOL0     C23814   7.418   1.172  -0.267 -1.2577  0.1305 -0.1438
  918MOL0     C23815   7.340   1.103  -0.368  1.0369 -0.2377 -0.5562
  918MOL0     C23816   7.344   1.166  -0.506 -0.2334 -0.2454 -0.1669
  918MOL0     C23817   7.267   1.298  -0.533 -0.5521 -0.1179  0.4269
  918MOL0     C23818   7.268   1.345  -0.674  0.5082 -0.1184 -0.0337
  918MOL0     O23819   7.399   1.373  -0.713  0.3313 -0.5903  0.1815
  918MOL0     C23820   7.414   1.474  -0.799 -0.0519 -0.8110 -0.1580
  918MOL0     C23821   7.490   1.449  -0.910  0.3010  0.4444  0.0662
  918MOL0     C23822   7.487   1.541  -1.017  0.4225 -0.0804  0.2520
  918MOL0     C23823   7.566   1.498  -1.137 -0.2683  0.0593  1.1149
  918MOL0     C23824   7.429   1.665  -1.006 -0.2812 -0.8850 -0.3189
  918MOL0     C23825   7.427   1.762  -1.115  0.5040  0.1759  1.2205
  918MOL0     O23826   7.397   1.711  -1.237  0.0499  0.1738 -0.3348
  918MOL0     C23827   7.346   1.782  -1.344  0.0353  0.4838  0.3038
  918MOL0     C23828   7.389   1.738  -1.463  0.6694  0.8672  0.4189
  918MOL0     C23829   7.369   1.814  -1.587  0.0076  0.5358 -0.6626
  918MOL0     C23830   7.280   1.928  -1.584 -1.1548  0.8777  0.7309
  918MOL0     O23831   7.237   2.009  -1.687 -0.2461  0.3230  0.2038
  918MOL0     C23832   7.300   1.995  -1.818  0.2562  0.0759  0.6492
  918MOL0     C23833   7.204   1.928  -1.922  0.7623 -0.3233 -0.3942
  918MOL0     C23834   7.172   1.783  -1.898 -0.6973  0.8032 -0.1594
  918MOL0     C23835   7.035   1.724  -1.945  0.4787  1.1252  0.5908
  918MOL0     C23836   7.047   1.565  -1.950 -0.6981  0.1492 -0.2371
  918MOL0     C23837   6.915   1.478  -1.963 -0.7223 -0.5670 -0.0092
  918MOL0     C23838   6.868   1.457  -2.102  0.4838 -0.4355  0.0526
  918MOL0     C23839   6.766   1.351  -2.101  0.1585 -0.2070 -0.5134
  918MOL0    Cl23840   6.735   1.316  -2.274  0.4838  0.8389  0.1839
  918MOL0     C23841   7.228   1.967  -1.456 -1.2035  0.8623  0.4712
  918MOL0     C23842   7.265   1.892  -1.345  0.5076 -0.8451 -0.2769
  918MOL0     O23843   7.436   1.882  -1.090 -0.5032  0.4926  0.2589
  918MOL0     C23844   7.362   1.702  -0.886 -0.3717  0.3139  0.0188
  918MOL0     C23845   7.364   1.608  -0.785 -1.0782 -0.5032  0.3273
  918MOL0     N23846   7.423   1.126  -0.133  0.1331  0.1586  0.1493
  918MOL0     N23847   7.493   1.202  -0.065 -0.6051 -0.0233 -0.2097
  918MOL0     C23848   8.669   1.702   0.195  1.4461 -0.5613  0.0949
  918MOL0     C23849   8.761   1.777   0.260 -0.1809  0.0296  0.1759
  918MOL0     C23850   8.983   2.106   0.435 -0.0455  0.5227  0.4536
  918MOL0     C23851   8.968   2.139   0.572  0.2190  0.4313 -0.3274
  918MOL0     C23852   9.066   2.210   0.638 -0.1222  0.4826  0.0445
  918MOL0     C23853   9.185   2.235   0.570  0.1917  0.3045  0.6766
  918MOL0     O23854   9.293   2.306   0.617  0.4928  0.0632  0.3850
  918MOL0     C23855   9.263   2.408   0.715 -0.3051  0.4560 -0.2977
  918MOL0     C23856   9.269   2.367   0.864 -0.6963 -0.5099 -0.5071
  918MOL0     C23857   9.411   2.313   0.901 -0.1108  0.0143  0.2513
  918MOL0     C23858   9.435   2.295   1.057  1.7465  0.0508 -0.7137
  918MOL0     C23859   9.404   2.155   1.087 -0.4934  0.7388 -0.1974
  918MOL0     C23860   9.385   2.040   1.110  0.4057  0.2463  0.0510
  918MOL0     C23861   9.207   2.186   0.443 -0.0224 -0.6360  1.2023
  918MOL0     C23862   9.100   2.140   0.368 -0.2266 -0.4546  0.2299
  918MOL0     H23863   8.870   1.953  -0.010 -0.6849  0.4302 -0.2776
  918MOL0     H23864   8.740   1.794  -0.120  0.6809 -0.7740 -0.4398
  918MOL0     H23865   8.473   1.470   0.070  1.4461 -0.1373 -0.6277
  918MOL0     H23866   8.413   1.630   0.133  1.0539  2.1599 -1.5269
  918MOL0     H23867   8.310   1.693  -0.070  0.5774  1.3100 -0.4832
  918MOL0     H23868   8.372   1.544  -0.140  0.9625  2.3957 -0.1207
  918MOL0     H23869   8.212   1.417   0.019 -0.5268 -0.7872 -0.6283
  918MOL0     H23870   8.169   1.573   0.080  1.0152  2.9427 -0.5647
  918MOL0     H23871   8.073   1.630  -0.121  0.3030  0.0941 -0.9999
  918MOL0     H23872   8.146   1.504  -0.216  2.5249  4.9678 -1.4591
  918MOL0     H23873   8.020   1.337  -0.123 -1.0204 -0.0385 -1.7329
  918MOL0     H23874   7.957   1.449   0.010 -0.5316 -0.4899 -0.4667
  918MOL0     H23875   7.844   1.569  -0.153 -0.9000  0.0196 -1.4154
  918MOL0     H23876   7.947   1.491  -0.287  2.2498  0.9158  1.0334
  918MOL0     H23877   7.743   1.416  -0.318  0.7098  0.8608  0.9619
  918MOL0     H23878   7.828   1.280  -0.251 -1.4933 -1.0586  0.4279
  918MOL0     H23879   7.635   1.436  -0.071 -0.2804 -1.4991  1.0873
  918MOL0     H23880   7.733   1.296  -0.029  0.2903 -0.2671  0.0018
  918MOL0     H23881   7.539   1.319  -0.374 -1.2446  1.2092  0.2310
  918MOL0     H23882   7.388   1.005  -0.376  1.2148 -0.0978 -1.3159
  918MOL0     H23883   7.234   1.102  -0.342  0.7849  3.8302 -0.7234
  918MOL0     H23884   7.306   1.092  -0.577  1.2269  0.0435 -1.3147
  918MOL0     H23885   7.447   1.179  -0.541 -1.4904  3.3661 -3.0717
  918MOL0     H23886   7.312   1.379  -0.476 -0.7982 -0.3479  0.9554
  918MOL0     H23887   7.162   1.289  -0.500 -1.1057  2.9685 -0.2299
  918MOL0     H23888   7.206   1.434  -0.685  1.8768  0.8518 -0.0436
  918MOL0     H23889   7.224   1.261  -0.729 -0.8417  1.6375 -1.7662
  918MOL0     H23890   7.533   1.350  -0.921 -0.5280 -0.1851  2.0429
  918MOL0     H23891   7.657   1.439  -1.122  0.7940  0.6379 -2.2316
  918MOL0     H23892   7.510   1.447  -1.216  1.5402 -2.5216  1.3784
  918MOL0     H23893   7.599   1.591  -1.186  0.3002 -1.5548 -1.7710
  918MOL0     H23894   7.450   1.648  -1.459 -0.1569  0.2516 -0.5208
  918MOL0     H23895   7.412   1.772  -1.677 -2.5806 -0.9953 -1.3067
  918MOL0     H23896   7.320   2.097  -1.853  2.6768 -0.4816  0.2689
  918MOL0     H23897   7.396   1.944  -1.808  1.9728  3.2785  1.9051
  918MOL0     H23898   7.118   1.996  -1.923  2.5806  2.1598 -2.7882
  918MOL0     H23899   7.239   1.930  -2.025 -1.2068 -0.4793 -1.1143
  918MOL0     H23900   7.179   1.761  -1.791 -0.3900  0.5292 -0.2348
  918MOL0     H23901   7.252   1.728  -1.948 -1.3274  0.1544 -0.4561
  918MOL0     H23902   6.954   1.749  -1.877 -1.3139 -2.4089  0.0209
  918MOL0     H23903   7.001   1.762  -2.042  2.2237  0.2181 -0.4347
  918MOL0     H23904   7.073   1.539  -1.847 -0.9671  0.6024 -0.0502
  918MOL0     H23905   7.129   1.528  -2.011  0.6044  2.5697 -0.0707
  918MOL0     H23906   6.922   1.378  -1.919 -1.5734 -1.4809 -1.8340
  918MOL0     H23907   6.838   1.537  -1.912  0.2394  0.2509  0.5241
  918MOL0     H23908   6.954   1.418  -2.158  1.1238  0.4362  0.4110
  918MOL0     H23909   6.834   1.547  -2.153 -1.1809  1.0071  3.3906
  918MOL0     H23910   6.667   1.374  -2.060  1.5991  0.7839  2.6539
  918MOL0     H23911   6.795   1.261  -2.046  1.5040 -0.1014 -1.0154
  918MOL0     H23912   7.168   2.057  -1.452 -1.2099  0.8299  2.4913
  918MOL0     H23913   7.230   1.931  -1.250 -0.4681 -1.7958 -0.2221
  918MOL0     H23914   7.318   1.794  -0.849  0.6575 -0.1601  2.6089
  918MOL0     H23915   7.313   1.647  -0.697 -0.2001  2.8960 -0.5240
  918MOL0     H23916   8.607   1.635   0.254  2.6541 -0.6492  1.3306
  918MOL0     H23917   8.770   1.754   0.366 -3.4523  1.0264  0.7815
  918MOL0     H23918   8.872   2.130   0.623  1.2558  1.4487  1.9929
  918MOL0     H23919   9.054   2.243   0.741  2.1366 -1.7404  1.1058
  918MOL0     H23920   9.342   2.483   0.703  1.4008 -0.4860  3.5700
  918MOL0     H23921   9.163   2.450   0.699  0.4283  2.3041 -0.1799
  918MOL0     H23922   9.192   2.293   0.890 -0.4362 -0.1323  1.4318
  918MOL0     H23923   9.251   2.451   0.931 -2.2310 -2.6108  1.9239
  918MOL0     H23924   9.488   2.379   0.861 -0.2325  1.0889  1.6842
  918MOL0     H23925   9.419   2.217   0.850 -1.0086 -0.0469  0.2081
  918MOL0     H23926   9.376   2.371   1.108  4.2515  2.5087 -1.2369
  918MOL0     H23927   9.539   2.319   1.082  1.3019  3.2010 -1.4794
  918MOL0     H23928   9.354   1.938   1.121  0.6736 -0.0360 -1.5872
  918MOL0     H23929   9.305   2.215   0.406 -0.1799  0.1185  1.3543
  918MOL0     H23930   9.117   2.117   0.263 -1.2371  2.5750 -0.7036
  919MOL0     O23931   6.340   6.384   5.220 -0.4796 -0.2918 -0.1931
  919MOL0     C23932   6.355   6.346   5.335  0.8345 -0.3456 -0.4407
  919MOL0     O23933   6.285   6.235   5.392 -0.1194 -0.9164  0.2281
  919MOL0     C23934   6.182   6.172   5.325  1.6609  0.5707  0.1436
  919MOL0     C23935   6.089   6.111   5.412 -0.2680  0.5843  0.5735
  919MOL0     C23936   5.982   6.042   5.354  0.3764  0.2480 -0.0018
  919MOL0     C23937   5.964   6.028   5.219  0.3622  0.8236 -0.2337
  919MOL0     O23938   5.853   5.963   5.177 -0.4128  0.4160  0.0482
  919MOL0     C23939   5.812   5.939   5.041 -0.1528 -0.6653  0.2515
  919MOL0     C23940   5.705   6.037   4.992  0.1705 -0.0088  0.4081
  919MOL0     C23941   5.574   6.041   5.073 -0.2650  0.4047  0.5960
  919MOL0     C23942   5.460   6.120   5.002  0.8262  0.1397 -0.0974
  919MOL0     C23943   5.313   6.083   5.031 -0.1535  0.7222  0.2012
  919MOL0     C23944   5.285   6.093   5.182  0.0452  0.5568 -0.2688
  919MOL0     C23945   5.135   6.076   5.194  0.6727 -0.0745 -0.9093
  919MOL0     C23946   5.076   6.090   5.341 -0.2487  0.3808 -0.2069
  919MOL0     N23947   5.082   6.234   5.386  0.4647  0.7886 -0.0882
  919MOL0     C23948   4.983   6.322   5.336 -0.1389 -0.2686 -0.5129
  919MOL0     C23949   5.035   6.447   5.359  0.9244  1.2479 -0.4213
  919MOL0     C23950   4.969   6.577   5.327 -0.3129 -0.9473 -0.7930
  919MOL0     C23951   4.962   6.616   5.182  0.6796  0.2423 -1.4205
  919MOL0     C23952   4.888   6.750   5.162  0.0229  0.1388 -0.1396
  919MOL0     C23953   4.748   6.761   5.214 -0.0244  0.7784  0.5959
  919MOL0     O23954   4.742   6.805   5.355 -0.0034 -0.3424 -0.3766
  919MOL0     C23955   4.628   6.846   5.423  1.0770  0.6977 -0.5885
  919MOL0     C23956   4.502   6.848   5.368  0.5261 -0.4960  1.3544
  919MOL0     C23957   4.383   6.900   5.424  0.3570  0.3982  0.3771
  919MOL0     C23958   4.262   6.914   5.334 -0.2964  0.5611  0.4661
  919MOL0     C23959   4.396   6.939   5.557 -0.6542  0.1670  0.2218
  919MOL0     C23960   4.288   7.014   5.623 -0.1926 -0.1197 -0.4026
  919MOL0     O23961   4.273   6.998   5.758 -0.4826 -0.0403  0.4830
  919MOL0     C23962   4.149   7.022   5.815 -0.3260  0.4807  0.4034
  919MOL0     C23963   4.029   6.973   5.755  0.3781 -0.0008  0.6793
  919MOL0     C23964   3.918   6.960   5.834  0.3625 -0.4790  0.5659
  919MOL0     C23965   3.905   7.014   5.970 -0.4437 -0.1167  0.7302
  919MOL0     O23966   3.791   7.003   6.051  0.0500  1.0257 -0.1677
  919MOL0     C23967   3.683   6.934   5.998 -0.2542  0.5475 -0.6638
  919MOL0     C23968   3.572   6.957   6.086 -0.0984 -0.8116  0.5455
  919MOL0     C23969   3.511   7.096   6.096 -0.4620  0.4878  0.3841
  919MOL0     C23970   3.433   7.119   6.231 -0.4119  0.0178 -0.3932
  919MOL0     C23971   3.367   7.248   6.234 -0.1080  0.2090 -0.3397
  919MOL0     C23972   3.329   7.298   6.381  0.1024  0.3237  0.0045
  919MOL0     C23973   3.287   7.452   6.388 -0.4268  0.8062  0.3434
  919MOL0     C23974   3.293   7.495   6.538  0.1857 -0.3975 -0.7850
  919MOL0    Cl23975   3.248   7.672   6.567 -0.5241 -0.1704  0.3308
  919MOL0     C23976   4.019   7.091   6.012  0.4112  0.4251  0.9348
  919MOL0     C23977   4.144   7.081   5.936  0.0548  0.4474 -0.8818
  919MOL0     O23978   4.215   7.085   5.548  0.0975  0.5237 -0.3391
  919MOL0     C23979   4.526   6.926   5.628  0.3812 -0.0157 -0.2683
  919MOL0     C23980   4.639   6.883   5.558  0.4625 -1.1783 -0.0149
  919MOL0     N23981   5.150   6.418   5.435  0.5976 -0.8991  0.0809
  919MOL0     N23982   5.177   6.295   5.453 -0.0360 -0.3588 -0.3973
  919MOL0     C23983   6.068   6.075   5.137  0.5768 -0.0878 -0.3192
  919MOL0     C23984   6.174   6.141   5.183 -1.0917 -0.1973 -0.9847
  919MOL0     C23985   6.450   6.432   5.413 -0.3438  0.0963  0.1130
  919MOL0     C23986   6.520   6.533   5.346 -0.2325 -0.1565  0.7198
  919MOL0     C23987   6.605   6.614   5.425  0.1835 -0.2232  1.0532
  919MOL0     C23988   6.623   6.590   5.565  0.2085 -0.0984  0.4910
  919MOL0     O23989   6.713   6.659   5.647 -0.2033 -0.6063 -1.0314
  919MOL0     C23990   6.798   6.768   5.606  0.3823  0.9907 -0.4294
  919MOL0     C23991   6.720   6.895   5.628 -1.3698 -0.0915  1.0666
  919MOL0     C23992   6.673   6.938   5.766 -0.7048 -0.2978 -1.0957
  919MOL0     C23993   6.621   7.087   5.769  0.2307 -0.4874 -0.2508
  919MOL0     C23994   6.734   7.178   5.751  0.7142 -0.3479 -0.5485
  919MOL0     C23995   6.832   7.250   5.728 -0.5617 -0.5383  0.2318
  919MOL0     C23996   6.562   6.479   5.622 -0.5767  0.0101 -1.1201
  919MOL0     C23997   6.476   6.404   5.547  0.5079 -0.0013 -0.5455
  919MOL0     H23998   6.103   6.126   5.518  2.5357 -2.8734  0.8470
  919MOL0     H23999   5.910   5.981   5.408 -2.4113 -0.9168 -4.4792
  919MOL0     H24000   5.895   5.935   4.969 -1.6016 -0.8320 -1.4811
  919MOL0     H24001   5.781   5.834   5.044  2.4430 -1.5028  0.2217
  919MOL0     H24002   5.754   6.134   5.001  0.4772 -0.1777  0.5782
  919MOL0     H24003   5.678   6.022   4.887  0.3628  1.2124  0.1666
  919MOL0     H24004   5.539   5.944   5.111 -1.5012  0.6609  0.1666
  919MOL0     H24005   5.606   6.100   5.159  0.2982  2.9926 -1.2552
  919MOL0     H24006   5.475   6.226   5.027  2.9722  0.3797 -2.0257
  919MOL0     H24007   5.462   6.094   4.895 -0.2271 -1.3790  0.2338
  919MOL0     H24008   5.244   6.142   4.969 -2.1963 -0.3177  1.3541
  919MOL0     H24009   5.307   5.977   5.004 -0.4160  0.4897  1.1157
  919MOL0     H24010   5.324   6.007   5.238  0.3741 -2.0124 -4.0445
  919MOL0     H24011   5.331   6.188   5.211  1.2821  0.9871 -3.3080
  919MOL0     H24012   5.084   6.141   5.123  0.1487  0.7175  0.1529
  919MOL0     H24013   5.106   5.972   5.179 -3.8690  0.7251  0.6342
  919MOL0     H24014   5.119   6.028   5.421 -1.9875  2.8090  2.8639
  919MOL0     H24015   4.970   6.066   5.330 -0.3698  1.2757 -1.0929
  919MOL0     H24016   4.884   6.300   5.296 -1.4775  0.6542  2.0868
  919MOL0     H24017   4.872   6.565   5.376 -0.2050  1.4895  0.1389
  919MOL0     H24018   5.026   6.658   5.373  1.3688 -2.3249 -0.3222
  919MOL0     H24019   4.922   6.527   5.132  0.7243  0.3774 -1.6943
  919MOL0     H24020   5.066   6.627   5.152  0.4251 -0.5412 -2.6711
  919MOL0     H24021   4.874   6.776   5.057 -0.1184  1.0366  0.0993
  919MOL0     H24022   4.952   6.826   5.207  1.3887 -0.0412 -1.6826
  919MOL0     H24023   4.699   6.664   5.202 -1.6389  1.2209  2.9767
  919MOL0     H24024   4.705   6.834   5.145  2.3595  0.8004 -0.9641
  919MOL0     H24025   4.487   6.834   5.262 -0.3547  1.3595  1.1909
  919MOL0     H24026   4.281   6.856   5.243 -0.7530  2.4300 -0.8805
  919MOL0     H24027   4.171   6.879   5.385  0.2087 -2.8675 -0.7466
  919MOL0     H24028   4.249   7.017   5.302 -0.8159  0.2204 -0.4522
  919MOL0     H24029   4.038   6.935   5.654  0.1974 -0.0961  0.6977
  919MOL0     H24030   3.828   6.921   5.787 -0.2144 -0.8101  1.9065
  919MOL0     H24031   3.669   6.974   5.898  1.7262  0.7473 -0.9056
  919MOL0     H24032   3.717   6.831   5.984  3.1910  1.7847 -2.7683
  919MOL0     H24033   3.503   6.877   6.057 -0.9146 -0.1736  0.7120
  919MOL0     H24034   3.605   6.925   6.186 -1.3417 -2.7276  0.4037
  919MOL0     H24035   3.446   7.111   6.010 -0.5036  1.4512  0.5691
  919MOL0     H24036   3.600   7.159   6.104  2.7351 -3.5399  0.1810
  919MOL0     H24037   3.354   7.043   6.227  0.8881 -1.3236 -2.2109
  919MOL0     H24038   3.506   7.124   6.312  2.3332  2.6592 -2.7981
  919MOL0     H24039   3.276   7.239   6.174  1.1290 -2.8166 -1.9868
  919MOL0     H24040   3.438   7.319   6.190  1.4209 -0.1896  1.3352
  919MOL0     H24041   3.256   7.227   6.419  0.1919 -0.0445 -0.4969
  919MOL0     H24042   3.420   7.283   6.441  1.2667 -1.9421 -2.1392
  919MOL0     H24043   3.188   7.451   6.340  0.3638 -0.8764 -1.3414
  919MOL0     H24044   3.362   7.514   6.338 -0.8741  1.0811  0.0059
  919MOL0     H24045   3.397   7.502   6.572 -0.2849 -1.1198  0.8992
  919MOL0     H24046   3.236   7.434   6.608 -0.0537  0.2458 -0.4079
  919MOL0     H24047   4.002   7.146   6.105 -3.0145 -0.7934  1.1972
  919MOL0     H24048   4.236   7.120   5.977 -0.8300  1.5775  0.1101
  919MOL0     H24049   4.536   6.959   5.731 -0.0477 -1.2134  0.1701
  919MOL0     H24050   4.733   6.901   5.609  0.0903 -1.0200  0.6349
  919MOL0     H24051   6.055   6.064   5.030 -1.8305 -1.5793  0.0614
  919MOL0     H24052   6.244   6.161   5.103  1.0808  0.4100  0.9401
  919MOL0     H24053   6.503   6.549   5.241 -2.4442  0.1898  1.0929
  919MOL0     H24054   6.652   6.700   5.379 -1.1145 -0.3227 -0.5581
  919MOL0     H24055   6.897   6.772   5.652  0.1315 -2.4793  0.6407
  919MOL0     H24056   6.811   6.742   5.501  0.1346 -0.0591 -0.2104
  919MOL0     H24057   6.640   6.889   5.554 -1.3809 -2.4586  1.1791
  919MOL0     H24058   6.786   6.973   5.591  0.1320 -2.8277 -2.6232
  919MOL0     H24059   6.764   6.951   5.826 -0.1426  2.9368 -2.4541
  919MOL0     H24060   6.605   6.868   5.817 -0.6035  0.0402 -0.4834
  919MOL0     H24061   6.574   7.097   5.867 -2.7298 -2.2899 -1.3215
  919MOL0     H24062   6.562   7.110   5.680  0.3662 -2.1015 -0.7908
  919MOL0     H24063   6.918   7.310   5.706 -1.4651  1.0335  0.8594
  919MOL0     H24064   6.575   6.452   5.726  0.4109 -0.9715 -1.4893
  919MOL0     H24065   6.421   6.327   5.599  1.8109  0.6643  1.9580
  920MOL0     O24066   7.197   8.501   9.790 -0.5010 -1.1002 -0.5429
  920MOL0     C24067   7.112   8.577   9.745  1.6697  0.6761 -0.0008
  920MOL0     O24068   6.973   8.587   9.786  0.1370 -0.2602  0.1641
  920MOL0     C24069   6.937   8.492   9.872 -0.2770  0.7491  0.1763
  920MOL0     C24070   6.864   8.511  10.001  0.9272  0.6053  0.8253
  920MOL0     C24071   6.803   8.399  10.059  1.0313  1.0240  0.5568
  920MOL0     C24072   6.805   8.269  10.011  0.0647  0.4477  1.3495
  920MOL0     O24073   6.725   8.180  10.087  0.7255 -0.5446  0.6740
  920MOL0     C24074   6.716   8.040  10.042 -0.3227 -0.7576 -0.3470
  920MOL0     C24075   6.608   8.040   9.940 -0.0057  1.1919 -1.1348
  920MOL0     C24076   6.603   7.900   9.872  0.5153  0.3711  0.0375
  920MOL0     C24077   6.476   7.897   9.774 -0.1617 -1.0678 -0.0485
  920MOL0     C24078   6.452   7.761   9.715  0.1753  0.8753  0.2014
  920MOL0     C24079   6.537   7.733   9.590  1.0341  0.1001 -0.3714
  920MOL0     C24080   6.512   7.579   9.545  0.1566 -0.4653 -0.0251
  920MOL0     C24081   6.550   7.540   9.413  0.1509  0.0525  1.3299
  920MOL0     N24082   6.567   7.389   9.410 -0.6053  0.5571  0.3818
  920MOL0     C24083   6.683   7.323   9.431  0.5373 -0.3460 -0.8696
  920MOL0     C24084   6.659   7.199   9.391  0.2583 -0.2363 -0.7859
  920MOL0     C24085   6.751   7.084   9.394 -0.1323  0.0086 -0.1186
  920MOL0     C24086   6.812   7.059   9.263 -0.0889 -0.6231  0.0797
  920MOL0     C24087   6.743   6.945   9.185 -0.1608 -0.1462 -0.8203
  920MOL0     C24088   6.799   6.908   9.052 -0.2871 -0.4852  0.1733
  920MOL0     O24089   6.704   6.825   8.980  0.2828  0.0438 -0.4278
  920MOL0     C24090   6.731   6.800   8.847  0.8442 -0.5505  0.4794
  920MOL0     C24091   6.860   6.819   8.788  0.8702  0.7782  0.2700
  920MOL0     C24092   6.884   6.786   8.658 -0.2098  0.5107  0.4549
  920MOL0     C24093   7.034   6.773   8.642  0.1643  0.1783 -0.1442
  920MOL0     C24094   6.778   6.723   8.579  0.0584  1.0191 -0.3693
  920MOL0     C24095   6.796   6.654   8.444 -0.6572 -0.6481 -0.2393
  920MOL0     O24096   6.697   6.585   8.394 -0.9022  0.4915 -0.5380
  920MOL0     C24097   6.699   6.539   8.265 -0.6709  0.1847 -0.2379
  920MOL0     C24098   6.673   6.393   8.250 -0.5189 -0.3139  0.2234
  920MOL0     C24099   6.688   6.339   8.122  0.0711 -0.2266  0.1042
  920MOL0     C24100   6.713   6.428   8.005  0.3235  0.2685 -0.7584
  920MOL0     O24101   6.734   6.359   7.891  0.5343  0.3511 -0.4253
  920MOL0     C24102   6.683   6.417   7.773 -0.0570 -0.3167  0.1040
  920MOL0     C24103   6.653   6.298   7.690 -0.4342 -0.2469 -0.6189
  920MOL0     C24104   6.597   6.341   7.555  0.7967  0.3368  0.3488
  920MOL0     C24105   6.554   6.205   7.475 -0.1030  0.1574  0.2266
  920MOL0     C24106   6.513   6.254   7.336  0.9183  0.1874 -0.4577
  920MOL0     C24107   6.435   6.140   7.276  0.3276  0.3350  0.9834
  920MOL0     C24108   6.403   6.171   7.126 -0.0764  0.0715  0.4986
  920MOL0     C24109   6.330   6.065   7.054 -0.1696  0.8259  0.2531
  920MOL0    Cl24110   6.439   5.929   7.030 -0.3385 -0.2435  0.0599
  920MOL0     C24111   6.736   6.560   8.028  0.6123 -0.2728  1.2216
  920MOL0     C24112   6.723   6.616   8.153 -0.6831  1.1905 -0.4726
  920MOL0     O24113   6.897   6.682   8.380 -1.0496  0.9512  0.6464
  920MOL0     C24114   6.651   6.702   8.644 -0.3145  0.1965  0.1082
  920MOL0     C24115   6.630   6.753   8.771  0.3674 -0.6297  0.8909
  920MOL0     N24116   6.527   7.195   9.351 -0.2544  0.4572  0.2810
  920MOL0     N24117   6.481   7.312   9.350 -0.3176  0.0307  0.2197
  920MOL0     C24118   6.893   8.247   9.897  0.1953 -1.1445  0.6411
  920MOL0     C24119   6.945   8.355   9.826 -0.5038 -0.0769 -0.3759
  920MOL0     C24120   7.164   8.661   9.639  0.3030 -0.9557  0.4688
  920MOL0     C24121   7.067   8.764   9.590  0.0158 -0.0995  0.4265
  920MOL0     C24122   7.116   8.865   9.499  0.0096 -0.4339 -0.3468
  920MOL0     C24123   7.249   8.854   9.443  0.5215 -0.2104  0.2691
  920MOL0     O24124   7.280   8.957   9.359  0.2166  0.1726  0.9114
  920MOL0     C24125   7.392   8.931   9.273 -0.4709 -0.1173 -0.2029
  920MOL0     C24126   7.392   9.035   9.160  0.2843 -0.1372 -0.3810
  920MOL0     C24127   7.381   9.179   9.223 -0.9057 -0.1635 -0.3895
  920MOL0     C24128   7.397   9.281   9.103 -0.5051  0.3895  0.2632
  920MOL0     C24129   7.426   9.416   9.143  0.4901 -0.8883 -0.5854
  920MOL0     C24130   7.458   9.530   9.174  0.6284  0.1510 -0.0148
  920MOL0     C24131   7.329   8.756   9.490  0.1695  0.1582  0.2594
  920MOL0     C24132   7.293   8.663   9.592  0.0313  0.5523  0.7575
  920MOL0     H24133   6.850   8.608  10.049  1.3167  1.0275  0.0902
  920MOL0     H24134   6.750   8.412  10.152 -0.2642 -0.7041  0.1061
  920MOL0     H24135   6.811   8.008   9.999 -0.7880 -1.7995 -0.6139
  920MOL0     H24136   6.696   7.979  10.131 -3.1397 -1.6959 -1.5153
  920MOL0     H24137   6.508   8.065   9.976 -1.2569 -2.8014 -1.2870
  920MOL0     H24138   6.647   8.120   9.876  3.9138  0.3911  0.0010
  920MOL0     H24139   6.699   7.884   9.823  1.3450 -0.0292  1.6992
  920MOL0     H24140   6.585   7.820   9.945 -0.5979 -1.5226 -2.2112
  920MOL0     H24141   6.385   7.920   9.829 -2.3255  3.1728 -4.6627
  920MOL0     H24142   6.485   7.969   9.692 -2.6599  0.8492  1.2479
  920MOL0     H24143   6.476   7.690   9.795  0.5655  1.6371  0.7684
  920MOL0     H24144   6.345   7.746   9.698  0.3298  0.4416 -0.4387
  920MOL0     H24145   6.516   7.806   9.511  0.2610 -0.6940 -0.9122
  920MOL0     H24146   6.642   7.745   9.619  0.0128 -0.8079  4.4752
  920MOL0     H24147   6.559   7.522   9.626 -0.0386  0.9294  1.1223
  920MOL0     H24148   6.402   7.577   9.544  0.0257 -1.0869  3.1158
  920MOL0     H24149   6.645   7.591   9.398 -1.2066  2.5201  0.4894
  920MOL0     H24150   6.480   7.564   9.332  3.7616 -0.0865 -2.1279
  920MOL0     H24151   6.780   7.362   9.461 -0.4352  1.4105  0.1986
  920MOL0     H24152   6.820   7.103   9.477  2.4443  1.3690 -2.4146
  920MOL0     H24153   6.688   6.998   9.418  3.5342 -2.3915  1.8143
  920MOL0     H24154   6.918   7.034   9.272  0.7464  2.5563  0.4268
  920MOL0     H24155   6.816   7.147   9.198  1.4525  0.2286  1.2416
  920MOL0     H24156   6.643   6.985   9.164 -0.5491 -1.7785 -2.3453
  920MOL0     H24157   6.739   6.859   9.251 -2.5152  0.0800 -0.5998
  920MOL0     H24158   6.887   6.846   9.070  1.4956  1.9048  0.2966
  920MOL0     H24159   6.829   6.995   8.991  3.7413  0.3724  2.9534
  920MOL0     H24160   6.937   6.869   8.845  2.6457 -0.5344 -0.8723
  920MOL0     H24161   7.077   6.861   8.691 -0.9445 -1.0314  3.2704
  920MOL0     H24162   7.071   6.687   8.698 -1.2400 -0.7387 -0.5654
  920MOL0     H24163   7.072   6.754   8.541 -1.6236  1.0857 -1.0361
  920MOL0     H24164   6.635   6.341   8.337 -1.6410  3.4779  2.2147
  920MOL0     H24165   6.676   6.232   8.111  3.5468 -0.7297 -0.0005
  920MOL0     H24166   6.588   6.468   7.790 -1.1958 -2.3226  0.0803
  920MOL0     H24167   6.750   6.483   7.717 -0.4067  0.1913  0.2802
  920MOL0     H24168   6.736   6.231   7.668 -0.3884  0.0335 -1.3071
  920MOL0     H24169   6.576   6.243   7.744  0.3444 -1.2559 -0.5035
  920MOL0     H24170   6.666   6.402   7.496  0.5224 -1.7076 -2.3052
  920MOL0     H24171   6.505   6.395   7.578  0.0776 -1.4555  2.0454
  920MOL0     H24172   6.643   6.142   7.465 -0.3109 -0.3155  1.2874
  920MOL0     H24173   6.475   6.150   7.527  0.1211 -0.8003 -0.4194
  920MOL0     H24174   6.593   6.292   7.270  1.0630 -1.0293 -1.0111
  920MOL0     H24175   6.448   6.341   7.345 -1.1715 -1.1757 -1.6019
  920MOL0     H24176   6.491   6.046   7.283 -1.8678 -0.9830  1.6886
  920MOL0     H24177   6.339   6.137   7.329 -1.7384 -0.1890 -2.5188
  920MOL0     H24178   6.491   6.200   7.068  0.1033 -0.5244  0.4605
  920MOL0     H24179   6.347   6.264   7.123  1.7510  1.2689 -4.0967
  920MOL0     H24180   6.290   6.099   6.958 -2.5658  2.5121  1.7298
  920MOL0     H24181   6.245   6.029   7.112  0.7543 -1.9244  0.0463
  920MOL0     H24182   6.767   6.617   7.941 -1.7042 -1.0889 -0.2234
  920MOL0     H24183   6.738   6.723   8.169  1.0654  0.8024  0.7281
  920MOL0     H24184   6.570   6.647   8.599 -2.3139  1.5932  1.8029
  920MOL0     H24185   6.534   6.734   8.817 -1.1780  0.0168 -1.8008
  920MOL0     H24186   6.907   8.150   9.851  1.5140  0.5469 -2.9019
  920MOL0     H24187   7.002   8.316   9.742  0.0173 -0.2873  0.0687
  920MOL0     H24188   6.967   8.772   9.633 -0.3076 -0.6925 -0.2002
  920MOL0     H24189   7.063   8.951   9.461 -1.4709  0.1494  2.7354
  920MOL0     H24190   7.481   8.958   9.331 -1.6473  2.7945  0.4040
  920MOL0     H24191   7.402   8.826   9.245  2.2981  0.2222 -0.7523
  920MOL0     H24192   7.309   9.011   9.093  1.6371 -0.2426 -2.0822
  920MOL0     H24193   7.483   9.013   9.104  2.3015  1.8493  1.8592
  920MOL0     H24194   7.472   9.190   9.284 -0.5356 -1.7625 -0.5982
  920MOL0     H24195   7.290   9.195   9.281  0.0502 -1.5182  1.6107
  920MOL0     H24196   7.303   9.279   9.047 -1.1801  1.4943  1.3087
  920MOL0     H24197   7.477   9.247   9.037 -0.2282  2.5219 -0.5660
  920MOL0     H24198   7.503   9.626   9.189  0.3881  1.1304 -4.2317
  920MOL0     H24199   7.435   8.760   9.463  0.2295  0.5035  0.5421
  920MOL0     H24200   7.362   8.587   9.625  0.7181  0.7155 -0.2342
  921MOL0     O24201   7.064   7.283  10.948  0.3238  0.2326  0.1225
  921MOL0     C24202   6.984   7.238  11.031  0.6202  0.3589 -0.2909
  921MOL0     O24203   7.020   7.191  11.159  0.2892  0.6385 -0.6030
  921MOL0     C24204   7.153   7.176  11.189 -0.3186 -0.4828  0.5302
  921MOL0     C24205   7.235   7.081  11.130 -0.2239 -0.5791  0.3549
  921MOL0     C24206   7.361   7.053  11.186  0.6146 -0.4712  0.4313
  921MOL0     C24207   7.415   7.127  11.295 -0.5844  0.4253  0.1812
  921MOL0     O24208   7.543   7.094  11.351 -0.1206 -0.2185 -0.4944
  921MOL0     C24209   7.612   6.971  11.322  1.0708 -0.1747 -0.2176
  921MOL0     C24210   7.757   6.991  11.366  0.6302  0.4416  0.2418
  921MOL0     C24211   7.837   6.863  11.353  0.2363  0.1160 -0.1808
  921MOL0     C24212   7.968   6.872  11.434  0.7332  0.1144  0.2183
  921MOL0     C24213   8.081   6.966  11.376  0.2459  0.1163  0.4247
  921MOL0     C24214   8.211   6.948  11.456  0.3405  0.5019  0.6590
  921MOL0     C24215   8.303   7.068  11.436  0.6164 -0.2676  1.0303
  921MOL0     C24216   8.405   7.081  11.554  1.1332 -0.0602  1.4084
  921MOL0     N24217   8.502   7.182  11.522  1.1079 -0.9667  0.5875
  921MOL0     C24218   8.480   7.322  11.510 -0.3430 -0.8232 -0.0785
  921MOL0     C24219   8.600   7.359  11.461  0.1768  0.0581  0.2522
  921MOL0     C24220   8.637   7.502  11.437 -0.2153  0.2217  0.1464
  921MOL0     C24221   8.590   7.605  11.545  0.5805  0.2331  0.0119
  921MOL0     C24222   8.665   7.613  11.684 -0.1147 -0.2996  0.6411
  921MOL0     C24223   8.594   7.684  11.796  0.7522  0.1092 -0.7291
  921MOL0     O24224   8.588   7.821  11.765  1.1826  0.1769 -0.0467
  921MOL0     C24225   8.537   7.909  11.861  0.3124  0.9127 -0.3709
  921MOL0     C24226   8.626   7.957  11.958 -0.2479 -0.4704  0.8163
  921MOL0     C24227   8.594   8.064  12.047  0.6115 -0.1923  0.7388
  921MOL0     C24228   8.711   8.132  12.120  1.0347  0.4155 -0.6756
  921MOL0     C24229   8.457   8.101  12.062 -0.7357  0.1504  0.3137
  921MOL0     C24230   8.397   8.190  12.161 -0.7131 -0.4239 -0.1609
  921MOL0     O24231   8.268   8.216  12.151 -0.1457 -0.0307 -0.3470
  921MOL0     C24232   8.215   8.303  12.237  0.6879  0.3752 -0.6710
  921MOL0     C24233   8.138   8.259  12.346 -0.5175 -0.3453 -0.7380
  921MOL0     C24234   8.095   8.358  12.443 -0.0511  0.1874 -0.6946
  921MOL0     C24235   8.127   8.493  12.418 -1.0464 -0.3310 -0.5324
  921MOL0     O24236   8.102   8.584  12.521 -0.1581 -1.0688 -0.4405
  921MOL0     C24237   7.967   8.632  12.528 -0.4377  0.8728 -0.1025
  921MOL0     C24238   7.978   8.780  12.572 -0.4508 -0.6260  0.9798
  921MOL0     C24239   7.835   8.833  12.542 -0.0879  0.2820  0.1256
  921MOL0     C24240   7.815   8.974  12.590 -0.5132 -0.8499  0.0110
  921MOL0     C24241   7.700   9.066  12.528 -0.8677  0.2892 -0.0926
  921MOL0     C24242   7.567   8.996  12.554  0.0014 -1.0702 -0.3143
  921MOL0     C24243   7.558   8.995  12.712  0.6580  0.0020 -0.4729
  921MOL0     C24244   7.412   8.980  12.758  0.5790 -0.6187 -0.2173
  921MOL0    Cl24245   7.306   8.878  12.660  0.3578  0.1284 -0.6458
  921MOL0     C24246   8.197   8.527  12.303  0.2820 -0.1302 -0.3880
  921MOL0     C24247   8.228   8.434  12.209 -0.1641 -0.2077 -0.1985
  921MOL0     O24248   8.477   8.246  12.232 -0.0127  0.3017 -0.4485
  921MOL0     C24249   8.362   8.034  11.979 -0.0886  0.3365  0.0061
  921MOL0     C24250   8.407   7.947  11.880 -0.3214 -0.4484  0.6269
  921MOL0     N24251   8.684   7.254  11.449 -0.0659  0.4589  0.8741
  921MOL0     N24252   8.626   7.151  11.482 -0.3438  0.1487 -0.1183
  921MOL0     C24253   7.330   7.220  11.359 -0.1417 -0.1556 -0.6313
  921MOL0     C24254   7.200   7.241  11.303 -0.8682  0.1370  1.0533
  921MOL0     C24255   6.838   7.240  10.987 -0.1347 -0.6976  0.2528
  921MOL0     C24256   6.811   7.319  10.869  0.4687 -0.0761  0.3270
  921MOL0     C24257   6.698   7.299  10.787 -0.8761 -0.8579  0.1955
  921MOL0     C24258   6.602   7.204  10.826 -0.4027  0.4522  0.1927
  921MOL0     O24259   6.502   7.168  10.741  0.1504  0.0544 -0.2379
  921MOL0     C24260   6.488   7.251  10.624 -0.3940  1.0256  0.4101
  921MOL0     C24261   6.370   7.203  10.547  0.3108  1.1078  1.0195
  921MOL0     C24262   6.372   7.056  10.494 -0.8888 -0.7210  0.3051
  921MOL0     C24263   6.253   7.038  10.407 -0.3160  0.5794 -0.4281
  921MOL0     C24264   6.266   7.072  10.267  0.1202 -0.3814  0.2236
  921MOL0     C24265   6.276   7.120  10.155  0.3038 -0.0449 -0.0534
  921MOL0     C24266   6.621   7.128  10.943 -0.5917  0.7050  0.9707
  921MOL0     C24267   6.744   7.144  11.023 -0.4129  0.4004  0.3360
  921MOL0     H24268   7.192   7.032  11.043  0.3502 -0.8932  0.2408
  921MOL0     H24269   7.420   6.976  11.137  2.6165 -0.8428  3.2441
  921MOL0     H24270   7.566   6.886  11.374  2.0400 -0.6467 -0.1201
  921MOL0     H24271   7.608   6.953  11.214  1.9339  2.5533 -0.7612
  921MOL0     H24272   7.799   7.078  11.314  1.1299  0.5841  0.8710
  921MOL0     H24273   7.751   7.012  11.473 -2.1235 -0.0796  0.2617
  921MOL0     H24274   7.775   6.779  11.386  0.2487  0.1940  0.0424
  921MOL0     H24275   7.873   6.830  11.255 -2.0851  0.1042 -1.0868
  921MOL0     H24276   7.956   6.920  11.531 -0.0714  1.3683 -0.4728
  921MOL0     H24277   8.011   6.775  11.461  3.7112  1.7503  1.8844
  921MOL0     H24278   8.111   6.931  11.277 -3.7579  4.3018 -2.7008
  921MOL0     H24279   8.057   7.071  11.362 -1.3916 -0.5323 -2.3731
  921MOL0     H24280   8.167   6.946  11.556 -4.3204  0.5310 -1.1693
  921MOL0     H24281   8.261   6.851  11.453 -0.6264 -0.1291 -4.5703
  921MOL0     H24282   8.359   7.053  11.343 -1.1774  0.4488 -0.2257
  921MOL0     H24283   8.255   7.167  11.435 -0.7161 -0.8611 -1.4065
  921MOL0     H24284   8.443   6.978  11.561 -0.3629 -0.8102 -0.6333
  921MOL0     H24285   8.364   7.109  11.652 -0.0055  2.4641  0.2845
  921MOL0     H24286   8.390   7.378  11.533  1.2421  0.9330  2.3811
  921MOL0     H24287   8.744   7.508  11.414  0.0121 -2.9685 -0.1172
  921MOL0     H24288   8.599   7.542  11.343  1.5947  0.5200 -0.4891
  921MOL0     H24289   8.484   7.582  11.563  0.8346 -0.4562  0.6929
  921MOL0     H24290   8.611   7.704  11.505  1.9997  0.2751  0.8155
  921MOL0     H24291   8.753   7.676  11.670  1.5299 -2.6599 -0.3729
  921MOL0     H24292   8.706   7.514  11.709  3.5403  0.5251 -1.3168
  921MOL0     H24293   8.660   7.687  11.883  0.6274  0.1979 -0.6369
  921MOL0     H24294   8.493   7.641  11.802 -0.6322  2.9904 -1.5878
  921MOL0     H24295   8.727   7.919  11.965 -0.3189 -1.2720 -1.6856
  921MOL0     H24296   8.701   8.237  12.092 -1.2362  0.7365  1.0233
  921MOL0     H24297   8.702   8.132  12.229 -1.1380  1.6552 -0.7896
  921MOL0     H24298   8.803   8.073  12.118 -0.0054 -1.3429  0.4494
  921MOL0     H24299   8.146   8.155  12.377  0.8899  0.1975  0.9211
  921MOL0     H24300   8.034   8.339  12.531  0.2980 -1.5834 -0.7942
  921MOL0     H24301   7.918   8.611  12.433  3.1302  0.0682 -1.9480
  921MOL0     H24302   7.914   8.577  12.606 -0.8383  0.7779 -0.4389
  921MOL0     H24303   7.990   8.792  12.680  4.1136  1.3907  0.4917
  921MOL0     H24304   8.062   8.834  12.528 -1.4440 -1.6161 -2.4095
  921MOL0     H24305   7.755   8.780  12.595 -0.2012  1.2643  0.9781
  921MOL0     H24306   7.817   8.816  12.436 -2.0018 -1.4027  0.6685
  921MOL0     H24307   7.801   8.977  12.698 -1.5255 -1.1018 -0.1013
  921MOL0     H24308   7.907   9.023  12.555  1.6194 -1.9149  3.6344
  921MOL0     H24309   7.708   9.068  12.419 -1.7677 -1.8598 -0.2635
  921MOL0     H24310   7.703   9.170  12.559 -3.1332  0.5946 -0.7301
  921MOL0     H24311   7.490   9.057  12.505 -0.4972 -2.5677 -1.4775
  921MOL0     H24312   7.576   8.897  12.510  0.2759 -1.1855  0.0030
  921MOL0     H24313   7.591   9.089  12.757  0.2396 -0.5875  1.1536
  921MOL0     H24314   7.603   8.911  12.767  1.5279 -0.7480 -2.2530
  921MOL0     H24315   7.364   9.078  12.767  2.8034  0.3795  3.1339
  921MOL0     H24316   7.417   8.937  12.859 -2.7758  0.8638  0.7080
  921MOL0     H24317   8.202   8.633  12.283 -3.1348 -0.1148 -1.8616
  921MOL0     H24318   8.292   8.472  12.130 -0.4853  0.5362 -0.1114
  921MOL0     H24319   8.255   8.050  11.986  0.1245  1.2734  1.3655
  921MOL0     H24320   8.344   7.916  11.797  2.1014  1.3977 -2.1139
  921MOL0     H24321   7.352   7.277  11.448  3.0147 -2.7546  0.4588
  921MOL0     H24322   7.129   7.310  11.348 -0.3229  1.3093  0.1762
  921MOL0     H24323   6.882   7.393  10.834 -1.4434  1.5598 -0.2203
  921MOL0     H24324   6.693   7.358  10.696 -0.7004  1.1288  1.4061
  921MOL0     H24325   6.472   7.352  10.662 -0.5358  1.0225  0.3596
  921MOL0     H24326   6.574   7.244  10.557  0.5512  0.4971  1.6427
  921MOL0     H24327   6.351   7.265  10.459  0.5059 -1.3100 -0.8298
  921MOL0     H24328   6.283   7.218  10.612 -0.0123  1.2311  0.5591
  921MOL0     H24329   6.383   6.991  10.581  2.7461  0.8495  1.2062
  921MOL0     H24330   6.461   7.032  10.435 -1.5103  1.3311 -1.6190
  921MOL0     H24331   6.162   7.093  10.433  0.1205  0.9028  0.4684
  921MOL0     H24332   6.234   6.931  10.412 -1.1771  0.6872 -1.2526
  921MOL0     H24333   6.287   7.168  10.060  0.3521 -0.8378 -0.4485
  921MOL0     H24334   6.552   7.053  10.981 -1.1877  2.4753  3.6009
  921MOL0     H24335   6.769   7.084  11.110 -3.3465 -3.0331 -0.8982
  922MOL0     O24336   6.639   2.288   2.803 -0.1032 -0.2465  0.2014
  922MOL0     C24337   6.684   2.363   2.883  0.5526 -0.4483 -1.2838
  922MOL0     O24338   6.804   2.427   2.873  0.2255  0.1124  0.3380
  922MOL0     C24339   6.875   2.420   2.756  0.0077 -0.1768  0.2714
  922MOL0     C24340   7.010   2.436   2.755 -0.2449 -0.0116  0.0414
  922MOL0     C24341   7.089   2.446   2.641 -0.2253  0.1087 -0.2946
  922MOL0     C24342   7.020   2.435   2.515  0.1679 -0.4168 -0.6416
  922MOL0     O24343   7.103   2.416   2.412  0.5177 -0.7476  0.8491
  922MOL0     C24344   7.057   2.333   2.302  0.2436  0.3694  0.3577
  922MOL0     C24345   7.172   2.262   2.234 -1.0262 -0.0648  0.4154
  922MOL0     C24346   7.240   2.152   2.322  0.4054 -0.4212 -0.0432
  922MOL0     C24347   7.363   2.097   2.259  0.2912 -0.3240  0.6568
  922MOL0     C24348   7.427   2.001   2.354 -0.0644  1.0055  0.2204
  922MOL0     C24349   7.563   1.951   2.332  0.5995 -0.1486  0.6833
  922MOL0     C24350   7.581   1.849   2.215  0.9059 -0.3373 -0.9571
  922MOL0     C24351   7.731   1.816   2.195  0.0114 -0.9286 -0.2899
  922MOL0     N24352   7.810   1.925   2.129  0.1719 -0.0361  1.5934
  922MOL0     C24353   7.774   1.998   2.012  0.7284 -0.7355 -0.1380
  922MOL0     C24354   7.854   2.099   2.002  0.4641 -0.1728  0.3511
  922MOL0     C24355   7.855   2.200   1.895  0.8802  0.1981 -1.0175
  922MOL0     C24356   7.783   2.330   1.939  0.2026  0.2429 -0.0031
  922MOL0     C24357   7.743   2.421   1.831 -0.6333 -0.5083 -1.4100
  922MOL0     C24358   7.825   2.552   1.834 -0.5150 -1.2637  0.4714
  922MOL0     O24359   7.767   2.652   1.746 -0.8372 -0.0803  0.1721
  922MOL0     C24360   7.828   2.778   1.734  1.1579  0.3845 -1.3671
  922MOL0     C24361   7.945   2.818   1.793 -0.8747 -1.0699  0.2344
  922MOL0     C24362   7.969   2.954   1.836  0.8055  1.0447  0.2781
  922MOL0     C24363   8.100   2.986   1.904  0.7337 -0.7107 -0.0176
  922MOL0     C24364   7.866   3.055   1.799  0.1590  0.1492  0.3239
  922MOL0     C24365   7.885   3.192   1.809  1.4170 -0.9042  0.9060
  922MOL0     O24366   7.834   3.275   1.714  0.1016  0.1670  0.6128
  922MOL0     C24367   7.799   3.405   1.747  0.6588  1.7336  1.1696
  922MOL0     C24368   7.757   3.440   1.877  0.7721 -0.6841 -0.1859
  922MOL0     C24369   7.698   3.564   1.903  0.3151  0.5975 -0.8377
  922MOL0     C24370   7.673   3.655   1.807  0.2795  0.2542 -0.4062
  922MOL0     O24371   7.621   3.784   1.823  0.5139 -0.4948  0.3626
  922MOL0     C24372   7.540   3.815   1.937  0.4429  0.4786 -0.2580
  922MOL0     C24373   7.477   3.942   1.915 -0.3667 -1.0432  0.6012
  922MOL0     C24374   7.587   4.051   1.916 -0.3316  0.1357 -0.1748
  922MOL0     C24375   7.529   4.190   1.901  0.1580 -0.4969 -0.8325
  922MOL0     C24376   7.637   4.304   1.901  0.4321  0.3640  0.3567
  922MOL0     C24377   7.684   4.336   2.048  0.4160  0.5369 -0.9532
  922MOL0     C24378   7.582   4.414   2.142  0.6607  0.5268  0.9589
  922MOL0     C24379   7.593   4.389   2.293  1.0082 -0.3001 -0.6167
  922MOL0    Cl24380   7.769   4.399   2.357  0.0165 -0.0232  0.3991
  922MOL0     C24381   7.718   3.621   1.682 -0.4091 -0.1694  0.6716
  922MOL0     C24382   7.783   3.504   1.645 -0.7718 -0.9080 -0.4948
  922MOL0     O24383   7.943   3.228   1.912  0.3411 -0.2028 -0.0995
  922MOL0     C24384   7.749   3.007   1.735  0.9013 -0.1755 -0.3237
  922MOL0     C24385   7.727   2.880   1.702  1.0462  0.1566  0.0944
  922MOL0     N24386   7.938   2.095   2.112  0.0654 -0.0596  0.2415
  922MOL0     N24387   7.906   2.000   2.190  0.4567  0.0786  0.0501
  922MOL0     C24388   6.886   2.439   2.505 -0.2081  0.8779 -1.0324
  922MOL0     C24389   6.813   2.438   2.631 -0.0037 -0.5236  0.5023
  922MOL0     C24390   6.605   2.373   3.009 -0.3639 -0.2036  0.7125
  922MOL0     C24391   6.496   2.281   3.028  0.0784 -0.0242  0.2656
  922MOL0     C24392   6.415   2.299   3.142 -0.0361 -0.3652 -0.1831
  922MOL0     C24393   6.438   2.410   3.229  0.3123  0.2764 -0.2151
  922MOL0     O24394   6.368   2.430   3.347 -0.7246 -0.1416 -0.3867
  922MOL0     C24395   6.266   2.342   3.383  0.4980  0.0257  0.3961
  922MOL0     C24396   6.203   2.374   3.522  0.1545 -0.6199  0.9526
  922MOL0     C24397   6.070   2.284   3.556  0.4300 -0.6414 -0.6378
  922MOL0     C24398   5.997   2.337   3.666 -0.0352  0.0518 -0.4834
  922MOL0     C24399   6.062   2.319   3.792 -1.2840  0.9523 -0.2281
  922MOL0     C24400   6.119   2.298   3.898 -0.8421  0.0604  0.4704
  922MOL0     C24401   6.528   2.509   3.200  0.4571  0.2544  0.0079
  922MOL0     C24402   6.611   2.478   3.095 -0.4049  0.2120  0.3113
  922MOL0     H24403   7.065   2.438   2.848  2.9540  0.7241 -1.7099
  922MOL0     H24404   7.196   2.448   2.659 -0.5089  2.0372  1.5070
  922MOL0     H24405   6.979   2.265   2.337 -1.0003  1.1753 -0.7729
  922MOL0     H24406   7.021   2.394   2.219  3.7343 -1.4306 -2.8140
  922MOL0     H24407   7.131   2.216   2.144 -2.7470  1.2424  0.4673
  922MOL0     H24408   7.253   2.330   2.207 -2.0397  2.0666  2.3974
  922MOL0     H24409   7.259   2.191   2.423 -3.4491 -1.6265  1.3010
  922MOL0     H24410   7.173   2.069   2.342  1.4600 -2.0676 -2.8537
  922MOL0     H24411   7.332   2.050   2.165  2.1643 -0.7566  0.2095
  922MOL0     H24412   7.441   2.171   2.235  1.0765 -0.3399  2.9241
  922MOL0     H24413   7.441   2.058   2.447 -0.9032  0.0164  0.9754
  922MOL0     H24414   7.361   1.919   2.382  0.7480  0.7707  1.5785
  922MOL0     H24415   7.634   2.033   2.319 -1.2826  1.4520  0.0163
  922MOL0     H24416   7.591   1.886   2.416 -0.6100 -0.1250  1.1173
  922MOL0     H24417   7.537   1.751   2.238 -1.7006  1.1045  0.7462
  922MOL0     H24418   7.541   1.896   2.124  2.2413 -0.4184 -1.6046
  922MOL0     H24419   7.724   1.739   2.117  1.2204 -0.0700 -1.2852
  922MOL0     H24420   7.781   1.781   2.286  1.5224 -2.7431 -1.7195
  922MOL0     H24421   7.682   1.987   1.955  0.1504  1.8272  0.1828
  922MOL0     H24422   7.959   2.232   1.882  0.2569  1.0438 -5.2210
  922MOL0     H24423   7.829   2.159   1.797 -0.0378 -0.2318 -0.5975
  922MOL0     H24424   7.846   2.377   2.015  2.0831  1.4207 -2.1969
  922MOL0     H24425   7.685   2.303   1.980  0.2159  1.1025  0.6280
  922MOL0     H24426   7.644   2.460   1.854 -0.0534 -0.5140  1.4357
  922MOL0     H24427   7.746   2.379   1.730  0.9307  0.3410 -1.7423
  922MOL0     H24428   7.926   2.526   1.800  0.1646 -2.5595  3.2457
  922MOL0     H24429   7.833   2.590   1.936  0.4623 -1.4190  0.4649
  922MOL0     H24430   8.028   2.756   1.824 -1.0347 -1.6917 -0.5391
  922MOL0     H24431   8.157   2.893   1.912 -2.0531 -2.8582 -2.5073
  922MOL0     H24432   8.169   3.051   1.849  0.9889 -0.3096  0.7741
  922MOL0     H24433   8.085   3.025   2.005 -1.5899 -0.7684 -0.2801
  922MOL0     H24434   7.774   3.373   1.961  0.6746 -1.9767 -1.1648
  922MOL0     H24435   7.650   3.583   1.999  0.8281  2.1800 -0.8630
  922MOL0     H24436   7.460   3.741   1.945 -2.6087  3.5713 -0.4473
  922MOL0     H24437   7.606   3.823   2.024 -0.3217  2.7306  0.1594
  922MOL0     H24438   7.430   3.937   1.816  1.1052 -2.0824 -0.0795
  922MOL0     H24439   7.400   3.956   1.991  0.5477 -1.1981  1.5717
  922MOL0     H24440   7.667   4.031   1.845  0.7790  0.1869  1.0223
  922MOL0     H24441   7.640   4.036   2.010 -3.3608 -2.0459  1.3801
  922MOL0     H24442   7.479   4.187   1.804 -0.4491 -2.0752 -0.4905
  922MOL0     H24443   7.459   4.203   1.984  2.1891  2.2211  0.6255
  922MOL0     H24444   7.591   4.390   1.852  2.0430 -0.5788 -3.1415
  922MOL0     H24445   7.719   4.275   1.834 -0.1167  1.2778 -0.7452
  922MOL0     H24446   7.723   4.243   2.091 -0.9483  0.8447  1.0718
  922MOL0     H24447   7.765   4.409   2.039  1.0843  0.1066  1.1556
  922MOL0     H24448   7.477   4.390   2.123  0.9985  0.9728 -1.9936
  922MOL0     H24449   7.596   4.518   2.113  1.3102  1.0553  3.0377
  922MOL0     H24450   7.559   4.291   2.327  2.5757 -1.4159 -2.0492
  922MOL0     H24451   7.531   4.472   2.328  0.3741 -0.2497 -1.8061
  922MOL0     H24452   7.696   3.690   1.601 -0.0550 -0.6369  0.1738
  922MOL0     H24453   7.819   3.484   1.544 -0.6745 -1.2010 -0.4021
  922MOL0     H24454   7.672   3.082   1.720 -0.5232 -1.7382 -1.0733
  922MOL0     H24455   7.634   2.842   1.661  0.1403  2.0478  0.3052
  922MOL0     H24456   6.854   2.445   2.402  0.7456  1.1237 -1.3204
  922MOL0     H24457   6.706   2.445   2.644  0.2502  1.4543  2.1466
  922MOL0     H24458   6.482   2.209   2.947  4.0134 -0.6995 -0.0435
  922MOL0     H24459   6.337   2.223   3.143 -0.5883  0.0338 -3.3291
  922MOL0     H24460   6.198   2.348   3.298  2.1704 -1.5919 -1.1718
  922MOL0     H24461   6.304   2.239   3.380 -0.5589 -0.3574 -1.5105
  922MOL0     H24462   6.173   2.479   3.509 -2.3384 -1.5651 -2.6004
  922MOL0     H24463   6.288   2.361   3.589 -0.2120 -1.3411  1.2874
  922MOL0     H24464   6.096   2.181   3.581 -0.4322 -0.5467  0.7720
  922MOL0     H24465   6.003   2.289   3.470 -1.9097  3.0522  1.1294
  922MOL0     H24466   5.898   2.292   3.673 -0.5143  1.0307 -0.7317
  922MOL0     H24467   5.968   2.440   3.641 -0.2942 -0.4578 -2.4397
  922MOL0     H24468   6.175   2.265   3.983  0.8253 -2.6140 -1.5153
  922MOL0     H24469   6.532   2.596   3.265 -0.2987  1.6200 -1.6947
  922MOL0     H24470   6.683   2.558   3.075  1.3592 -0.6369  2.7507
  923MOL0     O24471   9.956   1.345   8.856 -0.8367 -0.2422 -0.2265
  923MOL0     C24472   9.894   1.352   8.752  0.4021  1.1252  1.0832
  923MOL0     O24473   9.772   1.295   8.731 -0.6423 -0.3237  0.4679
  923MOL0     C24474   9.706   1.201   8.815 -0.3634  0.2238 -0.0340
  923MOL0     C24475   9.573   1.214   8.821  1.2719  0.3255  0.5285
  923MOL0     C24476   9.499   1.132   8.901  0.0351  0.6388 -0.2996
  923MOL0     C24477   9.553   1.029   8.981  1.1750 -0.2436  0.7431
  923MOL0     O24478   9.482   0.945   9.068  0.5311  0.0643 -0.8126
  923MOL0     C24479   9.337   0.942   9.065  0.2345  0.6049  0.3669
  923MOL0     C24480   9.285   0.805   9.130  0.3208  1.0378 -0.8491
  923MOL0     C24481   9.383   0.689   9.104  0.1195  1.5946  0.7142
  923MOL0     C24482   9.340   0.556   9.163 -0.4563 -0.4120  1.6065
  923MOL0     C24483   9.233   0.484   9.084 -0.1955 -0.0697 -0.2841
  923MOL0     C24484   9.222   0.339   9.120  0.3158  0.4403  0.5931
  923MOL0     C24485   9.131   0.263   9.021 -0.2270  0.3309 -0.1366
  923MOL0     C24486   8.981   0.277   9.038 -0.0225  0.0638 -0.0750
  923MOL0     N24487   8.902   0.196   8.935 -0.0713  0.1489 -0.2373
  923MOL0     C24488   8.769   0.152   8.946  0.4322  0.2287  0.4121
  923MOL0     C24489   8.734   0.102   8.821  0.0107  0.1511 -0.0730
  923MOL0     C24490   8.601   0.043   8.782  0.1738  0.0960  0.1257
  923MOL0     C24491   8.542  -0.045   8.891  0.0089 -0.7212  0.2711
  923MOL0     C24492   8.618  -0.185   8.911 -0.5354  0.4440  0.1691
  923MOL0     C24493   8.558  -0.271   9.015 -0.4793  0.4220 -0.5010
  923MOL0     O24494   8.655  -0.380   9.029 -0.1393 -0.0205 -0.4818
  923MOL0     C24495   8.612  -0.491   9.094  0.7545  1.2698 -0.0226
  923MOL0     C24496   8.499  -0.484   9.177  0.1031 -0.2479  0.6694
  923MOL0     C24497   8.433  -0.600   9.224 -1.0974 -0.1062 -0.4015
  923MOL0     C24498   8.307  -0.579   9.319 -0.4897 -0.1302 -0.3655
  923MOL0     C24499   8.495  -0.723   9.193 -0.4382  0.0621  0.5163
  923MOL0     C24500   8.436  -0.850   9.230 -0.1970 -0.1669  0.0202
  923MOL0     O24501   8.523  -0.923   9.312 -0.0877  0.3278  0.6261
  923MOL0     C24502   8.482  -1.040   9.364 -0.5632  0.1857 -1.0969
  923MOL0     C24503   8.357  -1.078   9.408 -0.2195 -0.6257 -0.0400
  923MOL0     C24504   8.347  -1.211   9.451 -0.0976  0.2748 -0.2010
  923MOL0     C24505   8.453  -1.301   9.462 -0.2978  0.6716  0.4078
  923MOL0     O24506   8.443  -1.430   9.491 -0.8437  0.5331  0.4063
  923MOL0     C24507   8.460  -1.464   9.624  1.0857  0.0516 -0.0538
  923MOL0     C24508   8.409  -1.605   9.655 -0.4324  0.2687  0.8212
  923MOL0     C24509   8.487  -1.719   9.583  0.4118  0.3663  0.9493
  923MOL0     C24510   8.639  -1.731   9.596  0.3168 -0.4244 -1.0481
  923MOL0     C24511   8.686  -1.846   9.510  0.0965  0.0092  0.1670
  923MOL0     C24512   8.828  -1.905   9.541 -0.5690 -0.0853  0.4360
  923MOL0     C24513   8.808  -2.045   9.607 -0.9870 -0.7516  0.9720
  923MOL0     C24514   8.926  -2.136   9.633 -0.9302 -0.6676 -1.1191
  923MOL0    Cl24515   9.052  -2.039   9.714  0.1636  0.0701  0.5366
  923MOL0     C24516   8.575  -1.262   9.416 -0.5905  0.0322  0.5580
  923MOL0     C24517   8.591  -1.135   9.369  0.1400  0.2668  0.1365
  923MOL0     O24518   8.310  -0.866   9.226  0.3873 -0.6249  0.2832
  923MOL0     C24519   8.614  -0.730   9.122 -0.0534  0.4389  0.3903
  923MOL0     C24520   8.672  -0.615   9.064 -0.8624 -0.8218  0.0389
  923MOL0     N24521   8.843   0.107   8.735 -0.0823 -0.9825 -0.0671
  923MOL0     N24522   8.941   0.170   8.798 -0.6409 -0.3768  0.2475
  923MOL0     C24523   9.693   1.007   8.963  0.0438 -1.2348  0.1369
  923MOL0     C24524   9.762   1.088   8.876  0.5172  0.5731  0.4936
  923MOL0     C24525   9.954   1.427   8.638  0.6481  0.1039 -0.8071
  923MOL0     C24526   9.922   1.400   8.506 -0.0105 -1.0009 -0.0133
  923MOL0     C24527   9.982   1.475   8.401 -0.1202 -0.0148  0.0584
  923MOL0     C24528  10.084   1.562   8.432 -0.3910  0.5332 -0.4890
  923MOL0     O24529  10.130   1.636   8.335 -1.1122 -0.1158  1.3415
  923MOL0     C24530  10.263   1.608   8.301 -0.1468 -0.3814 -0.6006
  923MOL0     C24531  10.273   1.665   8.161 -0.5608  0.0598 -0.9130
  923MOL0     C24532  10.412   1.643   8.109  0.3705  0.2654  0.0878
  923MOL0     C24533  10.438   1.720   7.978 -0.2803 -0.1553  0.2777
  923MOL0     C24534  10.560   1.666   7.916 -0.8543 -0.0268  0.3791
  923MOL0     C24535  10.662   1.630   7.866  0.9355 -0.2149 -0.1890
  923MOL0     C24536  10.114   1.584   8.570 -0.1623 -0.0943 -0.8982
  923MOL0     C24537  10.054   1.513   8.666 -0.1850 -0.7568 -1.0487
  923MOL0     H24538   9.533   1.298   8.765  2.1183 -0.6592 -1.6431
  923MOL0     H24539   9.393   1.153   8.916  0.2879  1.1375  0.8996
  923MOL0     H24540   9.286   1.033   9.097 -2.9798 -0.3528 -1.4888
  923MOL0     H24541   9.307   0.938   8.960 -2.9574  0.6149  1.1539
  923MOL0     H24542   9.291   0.818   9.239  1.3603 -3.3848 -0.1709
  923MOL0     H24543   9.184   0.777   9.100  0.5582 -1.3539  0.3738
  923MOL0     H24544   9.420   0.674   9.002  1.9689 -2.5198  1.7659
  923MOL0     H24545   9.475   0.715   9.159  1.7082 -0.2289 -0.9188
  923MOL0     H24546   9.433   0.498   9.162  0.4104  0.9070  2.1405
  923MOL0     H24547   9.298   0.579   9.261  1.1072 -1.1599  2.4936
  923MOL0     H24548   9.139   0.535   9.108 -0.6797 -0.5724 -1.0515
  923MOL0     H24549   9.249   0.489   8.976  0.1235 -2.0303 -0.3701
  923MOL0     H24550   9.319   0.290   9.101 -0.0458 -0.2882  0.6035
  923MOL0     H24551   9.196   0.324   9.225 -2.4290  1.8903  0.1957
  923MOL0     H24552   9.157   0.313   8.927  1.2318 -0.9956 -0.4816
  923MOL0     H24553   9.150   0.155   9.017  1.0056  0.4569  1.4349
  923MOL0     H24554   8.960   0.383   9.024 -3.0869 -0.5399 -0.8057
  923MOL0     H24555   8.945   0.264   9.140 -0.3558  3.7630  0.3894
  923MOL0     H24556   8.714   0.156   9.039  0.1163 -1.3592  0.3248
  923MOL0     H24557   8.527   0.119   8.758 -1.8863 -1.9470 -0.2919
  923MOL0     H24558   8.619  -0.025   8.699  2.1503 -2.4563  2.4629
  923MOL0     H24559   8.444  -0.068   8.848  0.8505 -0.2843 -1.9990
  923MOL0     H24560   8.519   0.009   8.984  0.1494 -0.5309  0.1955
  923MOL0     H24561   8.724  -0.168   8.936  0.4431 -1.6430 -2.2033
  923MOL0     H24562   8.612  -0.256   8.829 -4.5458  1.4959 -0.6303
  923MOL0     H24563   8.463  -0.313   8.979 -0.2925  0.1866 -0.7219
  923MOL0     H24564   8.551  -0.229   9.116 -0.3056  1.4632 -0.9084
  923MOL0     H24565   8.468  -0.382   9.200 -0.0890  0.2322 -1.4628
  923MOL0     H24566   8.237  -0.660   9.295 -0.5110 -0.4143  0.6214
  923MOL0     H24567   8.330  -0.580   9.426 -1.1764  1.7978 -0.1568
  923MOL0     H24568   8.254  -0.485   9.305  0.2896  0.9384  2.9098
  923MOL0     H24569   8.269  -1.015   9.408 -0.6381 -1.1357  2.0232
  923MOL0     H24570   8.249  -1.244   9.481 -1.2585  0.8382 -3.0598
  923MOL0     H24571   8.559  -1.441   9.664  0.7386  0.6869  0.4820
  923MOL0     H24572   8.394  -1.404   9.689  1.1160  0.5517 -0.4734
  923MOL0     H24573   8.412  -1.618   9.764  0.1375 -1.0035  0.6665
  923MOL0     H24574   8.302  -1.604   9.632 -1.5101  0.4772  4.9643
  923MOL0     H24575   8.463  -1.700   9.478  0.2578  1.2449  1.1343
  923MOL0     H24576   8.439  -1.813   9.610  0.2793  0.4577  1.0373
  923MOL0     H24577   8.685  -1.639   9.561  2.1383  0.1204  2.3858
  923MOL0     H24578   8.673  -1.758   9.697  0.8231 -3.4662 -1.9105
  923MOL0     H24579   8.689  -1.810   9.407  0.5666  0.7346  0.4275
  923MOL0     H24580   8.610  -1.925   9.516  1.5184 -1.4608 -0.4969
  923MOL0     H24581   8.894  -1.901   9.454  0.6007  3.8415  1.3063
  923MOL0     H24582   8.885  -1.848   9.616  0.4904 -0.7716  0.1685
  923MOL0     H24583   8.736  -2.106   9.551  0.7697 -0.8315 -1.3561
  923MOL0     H24584   8.774  -2.022   9.708 -0.9981  0.3269  0.7451
  923MOL0     H24585   8.961  -2.168   9.534 -0.7871  2.5470 -2.2277
  923MOL0     H24586   8.890  -2.218   9.695  3.6011 -0.6607  1.9975
  923MOL0     H24587   8.661  -1.329   9.424 -0.9543 -0.4122  0.7429
  923MOL0     H24588   8.688  -1.091   9.346 -0.6297  1.4831 -0.9216
  923MOL0     H24589   8.657  -0.829   9.109 -1.0989 -0.3437  2.4471
  923MOL0     H24590   8.762  -0.605   9.003 -0.4859  0.4988  0.7730
  923MOL0     H24591   9.743   0.927   9.017  2.4866 -0.5876 -1.0202
  923MOL0     H24592   9.869   1.077   8.865  0.8578  3.1996  0.6895
  923MOL0     H24593   9.843   1.329   8.484  0.3985 -2.6656  3.2957
  923MOL0     H24594   9.956   1.467   8.296  0.2783  2.5594 -0.2948
  923MOL0     H24595  10.317   1.678   8.365 -1.1688  1.4359 -1.6285
  923MOL0     H24596  10.300   1.506   8.310 -0.5068 -0.2985  4.1125
  923MOL0     H24597  10.261   1.773   8.157 -1.0339  0.1338  1.2920
  923MOL0     H24598  10.198   1.629   8.090 -0.8436 -0.2361 -0.4747
  923MOL0     H24599  10.422   1.536   8.092 -2.9367 -0.3088  1.1228
  923MOL0     H24600  10.491   1.669   8.180  1.5440 -1.5229 -0.4823
  923MOL0     H24601  10.440   1.824   8.010 -0.7679 -0.5702  1.7965
  923MOL0     H24602  10.355   1.713   7.907  2.0343 -0.2021 -2.6021
  923MOL0     H24603  10.758   1.605   7.826  0.0908 -0.7667 -1.9824
  923MOL0     H24604  10.193   1.656   8.590  0.6383 -0.8491 -1.2596
  923MOL0     H24605  10.094   1.531   8.766 -0.3096  0.7827 -1.2446
  924MOL0     O24606   4.418   9.344   5.672  0.3313 -0.2540  0.4206
  924MOL0     C24607   4.311   9.394   5.638  0.6752 -0.5119 -0.1065
  924MOL0     O24608   4.218   9.342   5.556  0.2767 -0.1682 -0.0022
  924MOL0     C24609   4.250   9.224   5.492 -0.0370 -0.5385 -0.5839
  924MOL0     C24610   4.281   9.230   5.357  0.1545 -0.3659  0.0397
  924MOL0     C24611   4.288   9.109   5.280  0.2047 -0.2691 -0.6904
  924MOL0     C24612   4.260   8.982   5.345 -0.0905  0.4005  0.3568
  924MOL0     O24613   4.287   8.862   5.286  0.6984  0.1039  0.4350
  924MOL0     C24614   4.284   8.863   5.140 -0.1254  0.5347  0.4490
  924MOL0     C24615   4.282   8.721   5.073  0.1256 -0.8279  0.4616
  924MOL0     C24616   4.400   8.635   5.120  0.0531 -0.5220  0.8967
  924MOL0     C24617   4.372   8.497   5.068 -0.4085  0.8585 -0.3905
  924MOL0     C24618   4.504   8.408   5.068 -0.6162 -1.0265 -0.5700
  924MOL0     C24619   4.473   8.268   5.021 -0.0399  0.2369 -0.7603
  924MOL0     C24620   4.569   8.156   5.059 -0.2127 -0.3007  0.0647
  924MOL0     C24621   4.520   8.018   5.022 -0.3777 -0.1704  0.6064
  924MOL0     N24622   4.609   7.903   5.062  0.1247 -0.4289 -0.0017
  924MOL0     C24623   4.694   7.899   5.168  0.3325 -0.8865 -0.7692
  924MOL0     C24624   4.757   7.774   5.169 -0.5375 -0.3079  0.3171
  924MOL0     C24625   4.848   7.722   5.272 -1.1490 -0.0165 -0.5785
  924MOL0     C24626   5.001   7.709   5.226 -0.4537 -0.1230 -0.3299
  924MOL0     C24627   5.063   7.837   5.165  0.5361 -0.2493 -0.1989
  924MOL0     C24628   5.156   7.905   5.264  0.7039  0.2663 -0.5924
  924MOL0     O24629   5.164   8.048   5.242  0.8439  0.0940  0.3709
  924MOL0     C24630   5.063   8.140   5.265  0.8727  0.0234 -0.2592
  924MOL0     C24631   5.069   8.266   5.199 -0.6464 -0.8257 -0.5251
  924MOL0     C24632   4.970   8.366   5.212  1.0360 -0.5310  0.2068
  924MOL0     C24633   4.995   8.493   5.129 -0.1396  0.2366  0.1607
  924MOL0     C24634   4.862   8.335   5.300  0.9888 -0.8995 -0.5126
  924MOL0     C24635   4.763   8.433   5.326  0.1457 -0.1876 -0.2808
  924MOL0     O24636   4.804   8.560   5.332  0.1588 -0.1360  1.4347
  924MOL0     C24637   4.742   8.638   5.428  0.1978 -0.3314 -0.0514
  924MOL0     C24638   4.653   8.732   5.396  0.5310  0.6676  0.9893
  924MOL0     C24639   4.579   8.807   5.485 -0.1028  0.9952 -0.6196
  924MOL0     C24640   4.606   8.802   5.622 -0.6842  0.3557 -0.0196
  924MOL0     O24641   4.532   8.882   5.698 -0.4232 -0.0898 -0.2692
  924MOL0     C24642   4.543   8.852   5.845  0.4865  0.6610  0.2947
  924MOL0     C24643   4.413   8.920   5.901  0.1660 -0.4084  0.0745
  924MOL0     C24644   4.422   9.066   5.907 -0.2619 -0.7816  0.4502
  924MOL0     C24645   4.338   9.140   6.018 -0.3306 -0.5016  0.2704
  924MOL0     C24646   4.381   9.296   6.026 -0.0881  1.4348 -1.0020
  924MOL0     C24647   4.350   9.348   6.170 -0.6613 -0.5824  0.6281
  924MOL0     C24648   4.358   9.499   6.206 -1.1571 -0.0636 -0.0711
  924MOL0     C24649   4.509   9.543   6.192 -0.3312  0.1755 -0.3668
  924MOL0    Cl24650   4.554   9.692   6.277  0.3938 -0.3283  0.4735
  924MOL0     C24651   4.698   8.704   5.665 -0.0495  0.3931 -0.0954
  924MOL0     C24652   4.764   8.625   5.570  0.4274  0.7433  0.3902
  924MOL0     O24653   4.658   8.389   5.378  0.4772 -0.0697 -0.2994
  924MOL0     C24654   4.849   8.202   5.351 -0.0349 -0.3778  0.6279
  924MOL0     C24655   4.946   8.104   5.334  0.8218  0.3540  0.2240
  924MOL0     N24656   4.723   7.714   5.050 -0.1231  0.0031  0.4416
  924MOL0     N24657   4.633   7.791   4.984 -0.8629 -0.0541 -0.5135
  924MOL0     C24658   4.241   8.976   5.475 -0.3697 -0.4759  0.1339
  924MOL0     C24659   4.228   9.098   5.549  0.5451 -0.3285  0.1739
  924MOL0     C24660   4.272   9.512   5.724  0.3081  0.4826 -0.5249
  924MOL0     C24661   4.364   9.557   5.817  0.3777  0.5376  0.0697
  924MOL0     C24662   4.324   9.672   5.896  0.0592  0.6763 -1.1556
  924MOL0     C24663   4.206   9.733   5.884  0.0688 -0.7288 -0.4936
  924MOL0     O24664   4.156   9.839   5.964  0.0296  0.2132  0.1726
  924MOL0     C24665   4.211   9.866   6.089 -0.3771 -0.2531  0.7096
  924MOL0     C24666   4.156   9.984   6.161  0.1897 -0.2975 -0.6721
  924MOL0     C24667   4.016   9.964   6.203  0.2545  0.0683 -0.5973
  924MOL0     C24668   3.963  10.101   6.239  0.1494  0.1517  0.1224
  924MOL0     C24669   3.815  10.097   6.266  0.7269  0.8281  0.6217
  924MOL0     C24670   3.691  10.082   6.279  0.1997  0.6938  0.2957
  924MOL0     C24671   4.119   9.690   5.783 -0.3658  0.0503 -0.3127
  924MOL0     C24672   4.157   9.583   5.696  0.0138  1.1866 -1.0910
  924MOL0     H24673   4.285   9.330   5.313 -0.0111  0.1330  1.1167
  924MOL0     H24674   4.317   9.126   5.176  0.6149  1.9466 -0.2628
  924MOL0     H24675   4.200   8.914   5.091  1.6428  1.4357 -1.8985
  924MOL0     H24676   4.379   8.904   5.104  1.6477 -2.1288  1.7486
  924MOL0     H24677   4.189   8.666   5.093  0.6913 -1.4318  1.5093
  924MOL0     H24678   4.289   8.734   4.965 -0.5269  0.3262  0.5448
  924MOL0     H24679   4.498   8.673   5.090 -0.6860  1.0563  0.3974
  924MOL0     H24680   4.404   8.639   5.229  1.4185  1.0517  0.8208
  924MOL0     H24681   4.295   8.443   5.122 -2.7935  1.6912 -2.7325
  924MOL0     H24682   4.335   8.495   4.965  0.2687 -3.4523 -0.7249
  924MOL0     H24683   4.585   8.463   5.020 -0.8960  1.1316  1.2539
  924MOL0     H24684   4.552   8.401   5.166 -1.6984 -2.4225 -0.1093
  924MOL0     H24685   4.381   8.240   5.073  0.5903 -0.8040 -0.1605
  924MOL0     H24686   4.450   8.278   4.915 -0.8202  2.2586 -0.4445
  924MOL0     H24687   4.666   8.181   5.015 -0.7885  0.4595 -0.7918
  924MOL0     H24688   4.601   8.172   5.163  1.3170 -0.4263 -0.3683
  924MOL0     H24689   4.521   8.013   4.913  2.0093  0.5264  0.5416
  924MOL0     H24690   4.431   7.993   5.081  1.8134  1.0135  4.8395
  924MOL0     H24691   4.696   7.979   5.242 -0.2946 -0.2312 -1.4424
  924MOL0     H24692   4.845   7.807   5.341 -0.6812  0.2067 -0.8284
  924MOL0     H24693   4.812   7.624   5.303  0.6879 -0.3890  0.5869
  924MOL0     H24694   5.012   7.634   5.147 -1.0776 -2.3465  1.5742
  924MOL0     H24695   5.067   7.669   5.304  0.0779 -3.2799 -2.2300
  924MOL0     H24696   4.980   7.908   5.153  0.6876  0.0468  0.5119
  924MOL0     H24697   5.118   7.825   5.071 -1.4256 -1.2239 -1.3025
  924MOL0     H24698   5.258   7.867   5.247  1.1525  1.9016 -1.7809
  924MOL0     H24699   5.117   7.907   5.366 -0.5922  0.8502 -1.0902
  924MOL0     H24700   5.146   8.295   5.128 -0.6489 -2.4992 -1.2646
  924MOL0     H24701   5.041   8.575   5.185  4.1330 -0.4919 -1.9256
  924MOL0     H24702   5.072   8.481   5.053 -0.1593  1.0328  0.0149
  924MOL0     H24703   4.908   8.527   5.072 -0.8334 -2.6954 -0.7009
  924MOL0     H24704   4.632   8.761   5.294  3.1691 -2.1650 -0.5155
  924MOL0     H24705   4.504   8.874   5.446 -1.0349  1.1786  1.3368
  924MOL0     H24706   4.543   8.744   5.861  0.3890  0.0224 -3.2198
  924MOL0     H24707   4.632   8.906   5.878  0.6931 -0.6918  2.0951
  924MOL0     H24708   4.324   8.900   5.842 -1.3108  1.8656  1.3664
  924MOL0     H24709   4.400   8.887   6.005 -1.6534  2.7916  1.0105
  924MOL0     H24710   4.380   9.095   5.810 -0.5895  0.5753  0.9755
  924MOL0     H24711   4.528   9.085   5.927 -0.5847 -1.0081  2.6964
  924MOL0     H24712   4.230   9.133   6.001 -0.2671  3.0153 -3.0882
  924MOL0     H24713   4.363   9.094   6.114  2.4523 -0.4272 -0.3453
  924MOL0     H24714   4.335   9.352   5.944 -2.9550 -1.4384 -1.5361
  924MOL0     H24715   4.490   9.302   6.023  0.3441  0.4855  4.0011
  924MOL0     H24716   4.245   9.326   6.193 -1.4095  0.1666 -1.8493
  924MOL0     H24717   4.414   9.300   6.245 -0.8858 -1.7624  0.0831
  924MOL0     H24718   4.326   9.497   6.310  0.4543 -1.6980  0.4460
  924MOL0     H24719   4.290   9.566   6.153  1.4963  1.1673 -2.2160
  924MOL0     H24720   4.528   9.558   6.085 -0.6295  0.3549 -0.3969
  924MOL0     H24721   4.580   9.463   6.216 -0.9934 -0.5510 -0.7943
  924MOL0     H24722   4.734   8.700   5.767  0.5250  1.2733 -0.2487
  924MOL0     H24723   4.840   8.556   5.605 -0.0104  0.7471  1.3883
  924MOL0     H24724   4.760   8.175   5.407 -1.6432  1.2451 -1.0335
  924MOL0     H24725   4.934   8.007   5.380 -0.8594  0.5969  0.3668
  924MOL0     H24726   4.257   8.885   5.532  5.5714 -0.3945 -0.7920
  924MOL0     H24727   4.213   9.097   5.657 -2.4798 -2.0447 -0.1488
  924MOL0     H24728   4.464   9.518   5.832  1.0568  2.6508  1.5612
  924MOL0     H24729   4.390   9.712   5.972  0.5117 -1.7129 -0.1846
  924MOL0     H24730   4.194   9.774   6.146 -2.0232 -1.5901 -1.7374
  924MOL0     H24731   4.318   9.887   6.089 -0.1469 -1.2323 -1.1109
  924MOL0     H24732   4.174  10.068   6.093  1.6338  0.4170  0.5204
  924MOL0     H24733   4.215  10.006   6.251 -0.2716 -2.0240  0.0922
  924MOL0     H24734   4.007   9.889   6.282  1.8309  1.6579  1.1806
  924MOL0     H24735   3.962   9.933   6.113 -1.1710  1.8025 -0.4090
  924MOL0     H24736   3.997  10.190   6.186 -1.2074  1.4009  1.2622
  924MOL0     H24737   4.006  10.117   6.339 -0.6680 -1.7088  0.8104
  924MOL0     H24738   3.588  10.053   6.286  0.0185  1.2113 -0.1577
  924MOL0     H24739   4.026   9.745   5.772 -0.1518 -0.0854 -4.0620
  924MOL0     H24740   4.080   9.541   5.633  1.7183 -3.9877 -0.2538
  925MOL0     O24741   7.161   1.705   0.527 -0.1329  0.6625 -0.6910
  925MOL0     C24742   7.195   1.593   0.486  0.0779  0.0290 -0.4725
  925MOL0     O24743   7.169   1.469   0.548  0.4684 -0.2584 -0.3716
  925MOL0     C24744   7.117   1.459   0.679 -0.5806  0.3625 -0.4336
  925MOL0     C24745   7.012   1.371   0.697 -0.8296  1.0522  0.7081
  925MOL0     C24746   6.973   1.341   0.825 -0.3939 -0.1678 -0.4840
  925MOL0     C24747   7.027   1.422   0.932  0.5611  0.6534 -0.2874
  925MOL0     O24748   6.988   1.395   1.064  1.0041 -0.2550  0.7158
  925MOL0     C24749   7.103   1.369   1.150  0.0590 -0.7376  0.3117
  925MOL0     C24750   7.061   1.270   1.257  0.0888 -0.4057 -0.0914
  925MOL0     C24751   6.961   1.332   1.356  0.0096  0.3850  0.0353
  925MOL0     C24752   6.952   1.245   1.473 -0.4011  0.2345 -1.1028
  925MOL0     C24753   6.878   1.301   1.586  0.2247 -0.7731  0.3814
  925MOL0     C24754   6.887   1.207   1.704  0.0433  0.5030  0.8991
  925MOL0     C24755   6.813   1.253   1.824 -0.0274  0.4251 -0.7411
  925MOL0     C24756   6.848   1.174   1.956 -0.2208 -0.7114  0.3783
  925MOL0     N24757   6.983   1.204   2.012 -0.4623  0.6570 -0.3867
  925MOL0     C24758   7.079   1.114   2.029 -0.0308  0.5730 -0.1964
  925MOL0     C24759   7.169   1.175   2.111 -0.2017 -0.5692  0.5905
  925MOL0     C24760   7.296   1.119   2.153 -0.3797  0.4306 -0.1687
  925MOL0     C24761   7.411   1.124   2.053  0.3196  0.1069 -0.7017
  925MOL0     C24762   7.529   1.053   2.106 -0.0055  0.5548  0.4019
  925MOL0     C24763   7.595   1.121   2.232  0.0317  1.2895  0.3106
  925MOL0     O24764   7.669   1.237   2.192  0.4829  0.6655  0.9952
  925MOL0     C24765   7.703   1.321   2.286 -0.5719  0.1475 -0.7489
  925MOL0     C24766   7.818   1.289   2.362  0.1350  0.8585 -0.9058
  925MOL0     C24767   7.855   1.369   2.474  0.1802 -0.7170 -0.1170
  925MOL0     C24768   7.983   1.349   2.546 -0.0292  1.2635 -0.1740
  925MOL0     C24769   7.771   1.484   2.512 -0.4134  0.7578 -0.1310
  925MOL0     C24770   7.792   1.571   2.629 -0.7397  0.2916 -0.4732
  925MOL0     O24771   7.848   1.504   2.737 -0.8369 -0.0348  0.0986
  925MOL0     C24772   7.883   1.568   2.858 -0.2840 -0.0931  0.1925
  925MOL0     C24773   7.793   1.651   2.924 -0.1780 -0.1156  0.2617
  925MOL0     C24774   7.823   1.692   3.054 -0.0208  1.1465 -0.4802
  925MOL0     C24775   7.946   1.652   3.109  0.0451 -0.9174  0.4556
  925MOL0     O24776   7.971   1.680   3.242 -0.3456  0.1120  0.5465
  925MOL0     C24777   8.100   1.738   3.263 -0.2995 -0.0118 -0.9591
  925MOL0     C24778   8.115   1.780   3.415  0.4263 -0.2936 -0.5311
  925MOL0     C24779   8.257   1.826   3.450 -0.4622 -0.1765  0.3896
  925MOL0     C24780   8.296   1.782   3.590  0.0868  0.7745 -0.2627
  925MOL0     C24781   8.429   1.839   3.628 -0.5167 -0.1193  0.6091
  925MOL0     C24782   8.495   1.789   3.750 -0.2817 -0.4655  0.6934
  925MOL0     C24783   8.634   1.837   3.758 -0.8466 -0.1835  0.0790
  925MOL0     C24784   8.645   1.983   3.800 -0.5096  0.2636  0.7740
  925MOL0    Cl24785   8.812   2.018   3.857 -0.6911  0.4654  0.5657
  925MOL0     C24786   8.046   1.588   3.033  0.1860 -0.3501  0.1367
  925MOL0     C24787   8.000   1.532   2.913  0.1285  0.5003 -0.3136
  925MOL0     O24788   7.774   1.690   2.625  0.2637  0.4645  0.8129
  925MOL0     C24789   7.661   1.510   2.420 -0.5275 -0.0661 -0.4393
  925MOL0     C24790   7.630   1.437   2.305 -0.2120 -0.1313 -0.1516
  925MOL0     N24791   7.123   1.297   2.150  1.2501 -0.3265 -0.3569
  925MOL0     N24792   7.017   1.319   2.082  0.6781 -0.2057 -0.2612
  925MOL0     C24793   7.124   1.516   0.911  0.0713 -0.1043  0.3875
  925MOL0     C24794   7.164   1.540   0.784  0.1898  1.5485 -0.3574
  925MOL0     C24795   7.248   1.584   0.353  0.4864 -0.1192 -0.9674
  925MOL0     C24796   7.263   1.698   0.275  0.4713 -0.1152 -0.3897
  925MOL0     C24797   7.319   1.683   0.147 -0.7730 -0.3981  0.7767
  925MOL0     C24798   7.346   1.565   0.080 -0.0332  0.3052 -0.4779
  925MOL0     O24799   7.378   1.552  -0.058  0.3877  0.4975  0.1035
  925MOL0     C24800   7.410   1.677  -0.117 -0.5294 -0.3398  0.3813
  925MOL0     C24801   7.468   1.635  -0.254  0.0519 -1.0257 -0.0746
  925MOL0     C24802   7.528   1.746  -0.325  0.2415 -0.0130 -0.4815
  925MOL0     C24803   7.525   1.730  -0.466 -1.0109  0.1503  0.5297
  925MOL0     C24804   7.632   1.639  -0.512 -0.1273  0.2355  0.6184
  925MOL0     C24805   7.718   1.569  -0.556 -0.5300 -0.3134  0.4590
  925MOL0     C24806   7.327   1.446   0.163  1.1151  0.3121  0.6482
  925MOL0     C24807   7.281   1.462   0.298  0.6010 -0.1753 -0.6618
  925MOL0     H24808   6.985   1.330   0.600  1.2125  1.4933 -0.1110
  925MOL0     H24809   6.898   1.267   0.847 -0.2160 -0.2009  0.0195
  925MOL0     H24810   7.182   1.340   1.079 -1.7236  2.7229 -3.4969
  925MOL0     H24811   7.143   1.459   1.199  0.1398  0.4067 -1.7279
  925MOL0     H24812   7.004   1.188   1.213 -0.8672  0.8091 -1.2120
  925MOL0     H24813   7.151   1.231   1.305 -1.8406 -2.0609  2.4114
  925MOL0     H24814   7.006   1.423   1.398  1.4583 -2.3714  5.4066
  925MOL0     H24815   6.860   1.355   1.321 -1.5776  0.7346  4.2555
  925MOL0     H24816   6.912   1.146   1.452  2.1985 -0.9644 -0.8596
  925MOL0     H24817   7.052   1.227   1.515 -1.6735 -1.0694  1.6197
  925MOL0     H24818   6.917   1.398   1.617  1.9395 -1.1918 -0.3553
  925MOL0     H24819   6.776   1.306   1.546 -0.6766  0.5870  2.6247
  925MOL0     H24820   6.852   1.106   1.677 -3.5835  1.9726 -0.5638
  925MOL0     H24821   6.992   1.195   1.730  0.2017 -1.2563 -0.3147
  925MOL0     H24822   6.849   1.355   1.844  1.6252 -0.7463  3.1715
  925MOL0     H24823   6.704   1.254   1.820 -0.1862  1.2176  1.7946
  925MOL0     H24824   6.831   1.066   1.948  2.1009 -1.0573 -0.9215
  925MOL0     H24825   6.771   1.210   2.025 -1.3200 -0.4070 -0.9527
  925MOL0     H24826   7.088   1.014   1.987  2.6984  0.2315  1.0027
  925MOL0     H24827   7.333   1.166   2.244 -1.8212  0.3376  0.5026
  925MOL0     H24828   7.273   1.012   2.160 -1.8258  0.4931 -2.5574
  925MOL0     H24829   7.438   1.227   2.030  3.9272 -0.5398 -0.0096
  925MOL0     H24830   7.378   1.077   1.959  2.5659  0.1544 -1.5750
  925MOL0     H24831   7.604   1.052   2.027 -0.1576  1.4820  0.2375
  925MOL0     H24832   7.506   0.949   2.131 -0.4634  0.2274 -1.2568
  925MOL0     H24833   7.662   1.050   2.282  0.4334 -0.6992 -2.7847
  925MOL0     H24834   7.514   1.139   2.303  0.6214 -0.9163  1.6311
  925MOL0     H24835   7.871   1.200   2.329 -1.3229  0.3912 -2.0995
  925MOL0     H24836   7.991   1.257   2.605  2.6621  1.5200  0.0060
  925MOL0     H24837   8.060   1.333   2.470  1.3468  0.0439  1.4038
  925MOL0     H24838   8.017   1.439   2.599 -0.5303  0.8282  0.9168
  925MOL0     H24839   7.697   1.663   2.874 -0.7523  1.4122  1.6676
  925MOL0     H24840   7.755   1.754   3.111 -2.7203 -2.3720  0.4864
  925MOL0     H24841   8.184   1.669   3.246  0.0972  0.7552 -2.2388
  925MOL0     H24842   8.114   1.831   3.208  2.6618 -0.1249 -0.5911
  925MOL0     H24843   8.039   1.854   3.442 -0.7769 -1.5923 -0.1996
  925MOL0     H24844   8.097   1.693   3.480 -1.9510 -0.1986 -0.9623
  925MOL0     H24845   8.257   1.936   3.450 -0.3426 -0.1770  0.2764
  925MOL0     H24846   8.328   1.798   3.372 -1.3617  1.1142 -0.9423
  925MOL0     H24847   8.227   1.824   3.663 -0.2834  1.7067 -1.1272
  925MOL0     H24848   8.292   1.673   3.602  2.5383  0.8585  2.2180
  925MOL0     H24849   8.432   1.948   3.631 -1.0236 -0.1270  2.2485
  925MOL0     H24850   8.484   1.804   3.540 -0.7340  3.1625 -1.0099
  925MOL0     H24851   8.444   1.819   3.842  1.4312 -2.2634  2.3338
  925MOL0     H24852   8.483   1.681   3.756  0.9020 -0.5724  1.6039
  925MOL0     H24853   8.684   1.818   3.662  0.0163  0.9288  0.2890
  925MOL0     H24854   8.667   1.774   3.841 -3.1826  0.4173  1.5421
  925MOL0     H24855   8.572   2.003   3.879  0.2500 -1.0864  1.8727
  925MOL0     H24856   8.620   2.042   3.712 -0.5892 -1.9060 -0.7141
  925MOL0     H24857   8.143   1.556   3.073  0.6223  1.2214  0.3944
  925MOL0     H24858   8.063   1.479   2.842 -0.1664  1.9962 -1.7427
  925MOL0     H24859   7.586   1.583   2.448  0.4774  1.9929 -2.7495
  925MOL0     H24860   7.558   1.474   2.233  3.3084  0.4451 -3.7332
  925MOL0     H24861   7.167   1.566   0.998  0.4543 -1.1230  0.7972
  925MOL0     H24862   7.252   1.602   0.772  3.0308 -1.4477  2.7003
  925MOL0     H24863   7.248   1.799   0.312  0.0998 -0.2860 -0.0696
  925MOL0     H24864   7.336   1.778   0.098  1.8037 -0.6830  0.9698
  925MOL0     H24865   7.323   1.741  -0.106 -1.5133 -1.5214 -0.3102
  925MOL0     H24866   7.491   1.736  -0.072  0.6779 -0.2210 -1.7741
  925MOL0     H24867   7.382   1.588  -0.301 -0.2697 -0.1118 -0.4216
  925MOL0     H24868   7.546   1.558  -0.242  0.1358 -0.5018  4.5671
  925MOL0     H24869   7.631   1.763  -0.293  0.5039  0.6239 -1.5870
  925MOL0     H24870   7.481   1.843  -0.305  0.9701  0.0745  0.8736
  925MOL0     H24871   7.541   1.828  -0.513  3.6928  0.1205  1.6141
  925MOL0     H24872   7.430   1.683  -0.494 -0.1559 -2.3796  1.5925
  925MOL0     H24873   7.803   1.517  -0.597  0.0749  0.2721  0.9482
  925MOL0     H24874   7.352   1.352   0.114 -1.1944  0.8979 -1.9149
  925MOL0     H24875   7.268   1.366   0.347  0.5678 -1.1572 -2.4846
  926MOL0     O24876   4.892   6.694   0.051  0.6456  0.7197 -0.2975
  926MOL0     C24877   4.876   6.774  -0.041 -0.5278  0.3102 -0.0912
  926MOL0     O24878   4.767   6.786  -0.124 -0.8820  0.7416  0.2032
  926MOL0     C24879   4.662   6.694  -0.107 -0.5008 -0.2003  0.0876
  926MOL0     C24880   4.689   6.557  -0.097  0.4996  0.5802  0.8482
  926MOL0     C24881   4.582   6.470  -0.057 -0.0079 -0.0471 -1.0827
  926MOL0     C24882   4.451   6.513  -0.041 -0.7016 -0.2764  0.1245
  926MOL0     O24883   4.347   6.429  -0.016 -0.0823 -0.2380 -0.6012
  926MOL0     C24884   4.372   6.305   0.042 -1.0352 -0.3062  0.3875
  926MOL0     C24885   4.247   6.218   0.046 -0.3118  0.0803  0.3664
  926MOL0     C24886   4.288   6.102   0.140  0.2091 -0.5049 -0.1359
  926MOL0     C24887   4.183   5.989   0.127 -0.2629  0.1988  0.1041
  926MOL0     C24888   4.248   5.849   0.162  0.3708  0.2795  0.3209
  926MOL0     C24889   4.167   5.729   0.186 -0.4090 -0.8928  0.2153
  926MOL0     C24890   4.073   5.701   0.068  0.5714  0.1470 -0.1884
  926MOL0     C24891   3.968   5.597   0.104  0.4011 -0.3001  0.0785
  926MOL0     N24892   3.896   5.576  -0.025  0.2724 -0.1613  0.6237
  926MOL0     C24893   3.771   5.635  -0.046  0.5354 -0.4195  0.0568
  926MOL0     C24894   3.741   5.611  -0.178  0.5581 -0.6676 -0.3897
  926MOL0     C24895   3.621   5.654  -0.260  0.5984  0.8740  0.3433
  926MOL0     C24896   3.567   5.537  -0.335  0.9080 -0.0177  0.2636
  926MOL0     C24897   3.646   5.484  -0.467  0.5141 -0.1525 -0.3272
  926MOL0     C24898   3.754   5.581  -0.523 -0.3594 -0.1053 -0.1328
  926MOL0     O24899   3.697   5.694  -0.598 -0.5264  0.3913 -0.2317
  926MOL0     C24900   3.780   5.784  -0.645  0.8155 -0.3942  0.4467
  926MOL0     C24901   3.734   5.921  -0.640 -0.4383 -0.4618  0.7544
  926MOL0     C24902   3.821   6.028  -0.659 -0.2448 -0.0109  0.6674
  926MOL0     C24903   3.771   6.165  -0.630  0.6931  0.1143 -0.7620
  926MOL0     C24904   3.951   5.999  -0.720  1.0620 -0.7463  0.5163
  926MOL0     C24905   4.063   6.098  -0.742  0.1429 -0.1660  0.1225
  926MOL0     O24906   4.028   6.227  -0.769 -0.1739  0.1048 -0.0420
  926MOL0     C24907   4.126   6.328  -0.794  0.6436 -0.2753 -0.6966
  926MOL0     C24908   4.263   6.320  -0.765 -0.1947 -0.7992 -0.0229
  926MOL0     C24909   4.336   6.438  -0.768  1.3174  0.0836 -0.0732
  926MOL0     C24910   4.272   6.560  -0.809  0.9487  0.7172 -1.1527
  926MOL0     O24911   4.349   6.669  -0.822 -0.5121 -0.1090  0.1487
  926MOL0     C24912   4.328   6.764  -0.927 -0.2006  0.0050 -0.0262
  926MOL0     C24913   4.440   6.745  -1.039  0.9882 -0.9741 -0.2266
  926MOL0     C24914   4.583   6.769  -0.994  0.7969 -0.1741 -0.1813
  926MOL0     C24915   4.670   6.727  -1.106 -0.1328  0.0567 -0.1674
  926MOL0     C24916   4.822   6.729  -1.066 -0.1420 -0.1529  0.2554
  926MOL0     C24917   4.887   6.870  -1.025  0.4688 -0.6053  0.0460
  926MOL0     C24918   5.031   6.850  -0.983 -1.0842  0.2041 -0.2834
  926MOL0     C24919   5.087   6.981  -0.936 -0.7188 -0.1291 -0.1113
  926MOL0    Cl24920   5.084   7.128  -1.045  0.3750 -0.0294  0.0136
  926MOL0     C24921   4.133   6.556  -0.842  0.2566  0.0098  0.5084
  926MOL0     C24922   4.068   6.439  -0.840  0.0269  0.5563  0.4447
  926MOL0     O24923   4.177   6.048  -0.751 -0.2290  0.1217  0.0202
  926MOL0     C24924   3.981   5.868  -0.741 -1.4897  0.6204 -0.8094
  926MOL0     C24925   3.903   5.757  -0.702 -0.3500  1.1025  0.0445
  926MOL0     N24926   3.842   5.529  -0.227  0.8800 -0.4066  0.0157
  926MOL0     N24927   3.927   5.504  -0.136  0.3736  0.1177 -0.1116
  926MOL0     C24928   4.429   6.647  -0.068 -0.4455  0.2978  0.6350
  926MOL0     C24929   4.529   6.729  -0.102  0.6004 -0.8899 -1.1065
  926MOL0     C24930   4.979   6.865  -0.072 -0.1555 -0.6251 -0.4916
  926MOL0     C24931   5.092   6.879   0.014  0.3536  0.1306 -0.4472
  926MOL0     C24932   5.189   6.976  -0.011 -0.6377  0.1036 -0.2984
  926MOL0     C24933   5.178   7.054  -0.126  0.2896  1.1457  0.0063
  926MOL0     O24934   5.268   7.157  -0.155  0.2361 -0.2790  0.3800
  926MOL0     C24935   5.404   7.140  -0.106 -0.2121  0.1067  0.4632
  926MOL0     C24936   5.491   7.259  -0.163  0.3649 -0.4987  0.1017
  926MOL0     C24937   5.643   7.224  -0.142  0.1016 -0.4015 -0.2288
  926MOL0     C24938   5.743   7.343  -0.164 -0.0210 -0.7240  0.6392
  926MOL0     C24939   5.731   7.377  -0.302 -0.1832 -1.1445 -0.2489
  926MOL0     C24940   5.717   7.396  -0.419 -0.2944  0.1751  0.5332
  926MOL0     C24941   5.062   7.045  -0.201 -0.0787  0.1843 -0.9178
  926MOL0     C24942   4.965   6.953  -0.177  0.3481  0.4978  0.2280
  926MOL0     H24943   4.791   6.531  -0.124  1.3817  3.1521  1.3789
  926MOL0     H24944   4.612   6.366  -0.049 -0.4472 -0.0332  1.6940
  926MOL0     H24945   4.453   6.254  -0.012  0.2994  3.1659 -1.2252
  926MOL0     H24946   4.402   6.325   0.145 -1.9345  3.1911  0.1270
  926MOL0     H24947   4.158   6.274   0.076 -0.9104  0.2176 -1.5197
  926MOL0     H24948   4.238   6.186  -0.058  4.6244  1.9113 -0.9125
  926MOL0     H24949   4.381   6.057   0.104  0.3127  1.3466 -2.4262
  926MOL0     H24950   4.286   6.135   0.245 -0.7028 -0.4095 -0.1735
  926MOL0     H24951   4.092   6.014   0.183  1.1338  1.6153  1.8652
  926MOL0     H24952   4.157   5.976   0.021  1.7047  5.3702 -1.3085
  926MOL0     H24953   4.326   5.819   0.091  0.7223  0.3075  0.6961
  926MOL0     H24954   4.295   5.865   0.259 -0.9184 -0.7926  1.1516
  926MOL0     H24955   4.227   5.641   0.208 -0.3134 -0.8544  0.1110
  926MOL0     H24956   4.100   5.743   0.271 -1.2490  1.0589 -0.6931
  926MOL0     H24957   4.030   5.795   0.033  0.9433  0.6722  0.7233
  926MOL0     H24958   4.133   5.658  -0.013  2.0446 -2.1114  1.9555
  926MOL0     H24959   3.897   5.637   0.178  0.6415  1.9070 -0.8100
  926MOL0     H24960   4.009   5.499   0.128  2.4792  0.3423 -0.6964
  926MOL0     H24961   3.716   5.688   0.031 -0.3859 -0.9005 -0.2457
  926MOL0     H24962   3.548   5.695  -0.190 -1.6554 -0.0090 -1.3764
  926MOL0     H24963   3.633   5.729  -0.338  0.7683 -1.0651 -1.6154
  926MOL0     H24964   3.466   5.568  -0.362  0.1949 -0.4175  2.2839
  926MOL0     H24965   3.546   5.457  -0.263 -3.3451  1.1762  0.5858
  926MOL0     H24966   3.571   5.451  -0.538  0.5081  0.4871 -0.6250
  926MOL0     H24967   3.698   5.395  -0.431  1.0212  0.0325 -0.5856
  926MOL0     H24968   3.812   5.519  -0.592  0.7714  2.6403 -1.7932
  926MOL0     H24969   3.822   5.615  -0.445 -0.0268 -3.6396  1.3236
  926MOL0     H24970   3.630   5.941  -0.619 -0.9037  0.1124 -1.7467
  926MOL0     H24971   3.830   6.215  -0.552 -3.2277 -1.7315  3.9018
  926MOL0     H24972   3.758   6.227  -0.719 -4.3402 -1.7096 -1.6247
  926MOL0     H24973   3.670   6.163  -0.588  0.1154  0.9720 -2.0374
  926MOL0     H24974   4.324   6.234  -0.739  1.1511  0.2822  0.5012
  926MOL0     H24975   4.437   6.433  -0.728  1.1529  0.5926  0.4281
  926MOL0     H24976   4.228   6.764  -0.970 -1.0995 -2.7568  1.8170
  926MOL0     H24977   4.345   6.866  -0.891  0.9262 -0.4178  0.6950
  926MOL0     H24978   4.437   6.643  -1.079  2.7686 -1.0641 -0.1883
  926MOL0     H24979   4.421   6.818  -1.118  0.8787 -2.8204 -1.9668
  926MOL0     H24980   4.611   6.707  -0.908 -4.2134 -2.6522  0.0663
  926MOL0     H24981   4.589   6.877  -0.975 -0.2038 -0.4219  1.9300
  926MOL0     H24982   4.643   6.628  -1.142  0.3042  0.4987 -1.7785
  926MOL0     H24983   4.650   6.803  -1.182 -0.7406  1.9515  1.7650
  926MOL0     H24984   4.874   6.696  -1.157  1.0077  4.3723 -0.9930
  926MOL0     H24985   4.843   6.657  -0.987  1.7988 -1.8124 -1.6470
  926MOL0     H24986   4.892   6.924  -1.120 -3.0608 -2.6750 -1.5023
  926MOL0     H24987   4.842   6.931  -0.946  2.6399 -0.0719  0.9531
  926MOL0     H24988   5.087   6.823  -1.073 -3.5442 -0.7869 -1.6006
  926MOL0     H24989   5.044   6.775  -0.905 -3.8117  1.3854  1.4649
  926MOL0     H24990   5.188   6.960  -0.901 -0.2104 -2.9419 -2.8421
  926MOL0     H24991   5.047   7.009  -0.838  1.7310 -0.7288  1.1424
  926MOL0     H24992   4.090   6.648  -0.878 -1.6469 -1.1969 -0.4776
  926MOL0     H24993   3.966   6.441  -0.877  0.6257  0.4278 -1.2934
  926MOL0     H24994   4.079   5.842  -0.779 -0.9633 -0.4353  1.1525
  926MOL0     H24995   3.939   5.656  -0.712  0.6146  1.4294  0.1200
  926MOL0     H24996   4.332   6.693  -0.056  0.0921  3.0803 -3.5195
  926MOL0     H24997   4.507   6.834  -0.119 -3.1978 -1.3311 -0.0050
  926MOL0     H24998   5.088   6.819   0.104 -1.6749  2.5938  1.2406
  926MOL0     H24999   5.268   6.976   0.064 -1.0612 -0.3590  0.1543
  926MOL0     H25000   5.402   7.141   0.003  2.5933  2.5566  0.6095
  926MOL0     H25001   5.434   7.040  -0.140 -1.6466 -1.1728  2.7083
  926MOL0     H25002   5.468   7.350  -0.107  1.0188 -0.2185 -0.0748
  926MOL0     H25003   5.463   7.273  -0.268  0.1000 -0.4917  0.1727
  926MOL0     H25004   5.660   7.124  -0.184  0.8392 -0.4787  0.2371
  926MOL0     H25005   5.646   7.213  -0.034 -2.3192  0.1179 -0.0405
  926MOL0     H25006   5.843   7.310  -0.135 -0.9999 -2.4343  2.3692
  926MOL0     H25007   5.710   7.431  -0.108  2.5893  2.3142 -2.1777
  926MOL0     H25008   5.709   7.406  -0.525 -0.5640  1.0572  0.6254
  926MOL0     H25009   5.036   7.118  -0.277  1.0779 -1.1497 -2.6639
  926MOL0     H25010   4.877   6.953  -0.241  0.8359  2.2627 -0.5178
  927MOL0     O25011   5.694   1.880   1.380 -0.4566 -0.0980 -0.2583
  927MOL0     C25012   5.796   1.914   1.427 -0.2941  0.8999  0.1863
  927MOL0     O25013   5.813   1.974   1.548 -0.2170 -0.5103  0.5149
  927MOL0     C25014   5.720   1.970   1.649 -0.0725  0.8890  0.0846
  927MOL0     C25015   5.724   2.069   1.747 -0.0426 -0.3387  0.7584
  927MOL0     C25016   5.645   2.067   1.870  0.4239  0.2694  0.4476
  927MOL0     C25017   5.549   1.963   1.876 -0.0345  0.0195  0.4214
  927MOL0     O25018   5.456   1.953   1.982  0.1969  0.2008 -0.3079
  927MOL0     C25019   5.468   2.049   2.088  0.3414  0.8107  0.5910
  927MOL0     C25020   5.556   2.000   2.203 -0.0490 -0.1870  0.2170
  927MOL0     C25021   5.490   1.880   2.275  0.0714 -0.1128 -0.2192
  927MOL0     C25022   5.574   1.842   2.396  0.0183  0.5378  0.0694
  927MOL0     C25023   5.513   1.712   2.460 -0.0910 -0.3966 -0.7684
  927MOL0     C25024   5.568   1.687   2.602  0.3201 -1.0716  0.0559
  927MOL0     C25025   5.483   1.584   2.676  0.9826  0.2904  0.6237
  927MOL0     C25026   5.552   1.549   2.805 -0.3446 -0.1494  0.5024
  927MOL0     N25027   5.492   1.438   2.879  0.0779 -0.8529  0.1843
  927MOL0     C25028   5.512   1.303   2.859 -0.8721 -0.5833 -0.1941
  927MOL0     C25029   5.459   1.242   2.969 -0.8070 -0.4542 -0.3552
  927MOL0     C25030   5.446   1.095   2.993 -0.0291 -0.6885  0.4986
  927MOL0     C25031   5.405   1.011   2.868  0.9122  0.0910  0.3031
  927MOL0     C25032   5.263   1.051   2.815  0.0221 -0.7743 -0.6612
  927MOL0     C25033   5.209   0.953   2.714 -0.6894 -0.0384  0.0437
  927MOL0     O25034   5.216   0.819   2.751 -0.1835 -0.8178 -0.0021
  927MOL0     C25035   5.239   0.732   2.646 -0.2648 -0.1950  0.0090
  927MOL0     C25036   5.363   0.736   2.590 -0.4568  0.9945  0.4805
  927MOL0     C25037   5.401   0.653   2.482  1.6843 -0.1077 -0.0849
  927MOL0     C25038   5.533   0.681   2.420 -0.2614 -0.9510  0.3932
  927MOL0     C25039   5.300   0.562   2.424 -0.1082 -0.4368 -0.5942
  927MOL0     C25040   5.315   0.479   2.305  0.2320  0.4225  0.0862
  927MOL0     O25041   5.205   0.448   2.226 -0.0599 -1.0593  0.5543
  927MOL0     C25042   5.215   0.338   2.141  0.4041  0.1516 -0.7060
  927MOL0     C25043   5.187   0.209   2.194 -1.1463  0.1629  0.0640
  927MOL0     C25044   5.170   0.098   2.114 -0.7796 -0.8157 -0.9363
  927MOL0     C25045   5.173   0.118   1.975  0.1231  0.1963 -0.6912
  927MOL0     O25046   5.164   0.002   1.901 -0.0714 -1.1327  0.4685
  927MOL0     C25047   5.161   0.011   1.762 -0.6431 -0.1080 -0.6323
  927MOL0     C25048   5.114  -0.126   1.708  0.4189  0.8581  0.0589
  927MOL0     C25049   5.210  -0.251   1.741  0.0507  0.5873  0.1560
  927MOL0     C25050   5.352  -0.244   1.676  0.3575 -0.5329 -0.1022
  927MOL0     C25051   5.344  -0.212   1.524 -0.2777 -0.9712  0.1395
  927MOL0     C25052   5.304  -0.337   1.449  0.2597 -0.0649 -0.2725
  927MOL0     C25053   5.215  -0.313   1.327  0.2449  0.0864  0.1347
  927MOL0     C25054   5.297  -0.236   1.226 -0.2379  0.4606  0.6266
  927MOL0    Cl25055   5.429  -0.345   1.175  0.3359  0.2683  0.2705
  927MOL0     C25056   5.202   0.244   1.926 -0.4431 -0.2976 -0.5664
  927MOL0     C25057   5.226   0.355   2.007 -0.0056 -0.5255 -1.1045
  927MOL0     O25058   5.428   0.433   2.291  0.0940  0.1976 -0.6543
  927MOL0     C25059   5.178   0.567   2.488 -0.0128  0.0534  0.1722
  927MOL0     C25060   5.140   0.651   2.590 -0.6371 -0.8294  0.2299
  927MOL0     N25061   5.403   1.338   3.049 -0.2257 -0.1340 -0.3682
  927MOL0     N25062   5.422   1.455   2.996  0.0741  0.4035 -0.6327
  927MOL0     C25063   5.544   1.868   1.776  0.2401  0.0099  0.0467
  927MOL0     C25064   5.624   1.866   1.667 -0.4450  0.1356 -0.6087
  927MOL0     C25065   5.911   1.900   1.344 -0.2948 -0.2000 -0.2261
  927MOL0     C25066   6.023   1.841   1.409 -0.2104 -0.7019  0.7736
  927MOL0     C25067   6.148   1.852   1.345 -0.0793  0.1367 -0.6034
  927MOL0     C25068   6.166   1.905   1.223 -0.1347 -0.2548  0.5552
  927MOL0     O25069   6.294   1.900   1.171 -0.6229  0.7384  0.1801
  927MOL0     C25070   6.335   1.934   1.038 -0.4488  1.1226  1.2957
  927MOL0     C25071   6.368   2.076   1.004 -0.0190 -0.7593  0.1173
  927MOL0     C25072   6.491   2.120   1.077  0.0769  0.2119  0.9602
  927MOL0     C25073   6.457   2.167   1.217  0.3747 -0.0281 -1.2244
  927MOL0     C25074   6.582   2.187   1.300  0.3876 -0.4887 -0.6646
  927MOL0     C25075   6.677   2.202   1.377  1.4127 -0.6096  0.0732
  927MOL0     C25076   6.051   1.949   1.154  0.0283 -0.0006 -0.0295
  927MOL0     C25077   5.919   1.948   1.211 -0.3074 -0.7083  0.3045
  927MOL0     H25078   5.790   2.153   1.733  0.5020 -1.1087 -1.8094
  927MOL0     H25079   5.662   2.147   1.942 -0.3679  1.3495 -0.5039
  927MOL0     H25080   5.488   2.152   2.055  1.0801  1.2642  2.3098
  927MOL0     H25081   5.368   2.058   2.133 -1.2306 -0.0936 -2.4356
  927MOL0     H25082   5.659   1.978   2.171  0.1717 -0.6820  1.2151
  927MOL0     H25083   5.568   2.089   2.265  1.5931 -0.2040 -0.0208
  927MOL0     H25084   5.385   1.905   2.297 -0.9138 -2.3245 -1.9585
  927MOL0     H25085   5.473   1.797   2.206  2.8728 -1.0740  0.1343
  927MOL0     H25086   5.679   1.830   2.367  0.1123  2.6316 -0.5861
  927MOL0     H25087   5.571   1.932   2.458 -3.8655  1.0085 -0.5274
  927MOL0     H25088   5.404   1.722   2.467 -0.2596 -2.3841  0.6195
  927MOL0     H25089   5.539   1.626   2.397 -0.1988 -1.2251  0.2871
  927MOL0     H25090   5.672   1.652   2.600  0.9332  0.6029  0.8639
  927MOL0     H25091   5.575   1.785   2.650  0.7152  0.2342 -2.4832
  927MOL0     H25092   5.384   1.624   2.698 -0.3208 -1.1462 -2.2298
  927MOL0     H25093   5.481   1.495   2.613  2.0592  0.2606  0.6132
  927MOL0     H25094   5.562   1.637   2.870 -0.7557 -0.4661  0.9982
  927MOL0     H25095   5.652   1.516   2.775 -0.2938  0.0689  0.4293
  927MOL0     H25096   5.559   1.249   2.778  1.8314 -0.7329  1.3446
  927MOL0     H25097   5.540   1.051   3.027  0.8834  2.0624  1.8044
  927MOL0     H25098   5.366   1.077   3.065  1.2265  0.1025  2.1532
  927MOL0     H25099   5.400   0.905   2.892  0.4853  0.2406  0.8859
  927MOL0     H25100   5.480   1.021   2.789  1.2176  0.8548  0.6785
  927MOL0     H25101   5.254   1.151   2.773 -0.9601  0.6347  2.5577
  927MOL0     H25102   5.186   1.051   2.893  0.8744 -1.1164  0.1918
  927MOL0     H25103   5.266   0.976   2.624  0.5702  5.5592  1.8981
  927MOL0     H25104   5.103   0.975   2.702 -0.3164  0.5796 -2.9198
  927MOL0     H25105   5.426   0.803   2.648 -1.9037  1.3315  1.7101
  927MOL0     H25106   5.528   0.715   2.316  0.3694 -0.2616  0.5796
  927MOL0     H25107   5.586   0.760   2.474 -0.1590 -0.3885 -0.5204
  927MOL0     H25108   5.605   0.599   2.420  2.8626  1.5710  2.3432
  927MOL0     H25109   5.158   0.204   2.298  0.8215  0.9877  0.7103
  927MOL0     H25110   5.154  -0.000   2.158  1.2219  0.1538  2.2882
  927MOL0     H25111   5.093   0.093   1.739  0.5500  1.6727  1.8095
  927MOL0     H25112   5.257   0.025   1.711 -0.2465 -3.2580 -1.0071
  927MOL0     H25113   5.019  -0.156   1.753  2.4384 -4.5058  1.5021
  927MOL0     H25114   5.085  -0.124   1.603  2.1177  0.6880 -0.4475
  927MOL0     H25115   5.161  -0.346   1.721  1.0962 -0.2467  1.3634
  927MOL0     H25116   5.227  -0.240   1.849 -3.7209 -1.0711  1.1050
  927MOL0     H25117   5.419  -0.178   1.732 -1.1407  0.5881  0.4274
  927MOL0     H25118   5.402  -0.342   1.675  1.7412  0.1613 -0.4848
  927MOL0     H25119   5.447  -0.183   1.499  0.2054 -2.4278  0.3058
  927MOL0     H25120   5.278  -0.129   1.496  1.9556  1.3843  1.4497
  927MOL0     H25121   5.398  -0.393   1.443 -1.1278 -3.0110  2.3094
  927MOL0     H25122   5.244  -0.404   1.511  0.7737 -1.0169 -0.7740
  927MOL0     H25123   5.128  -0.257   1.363  0.3378 -0.9019  2.0049
  927MOL0     H25124   5.191  -0.411   1.287  2.1428 -1.2510  2.0143
  927MOL0     H25125   5.339  -0.151   1.281 -1.4337  0.2266  1.9668
  927MOL0     H25126   5.243  -0.197   1.140 -0.4396  2.0037  1.4210
  927MOL0     H25127   5.199   0.269   1.821 -4.1030  0.1106 -0.5096
  927MOL0     H25128   5.262   0.446   1.960  0.8393  0.4153  1.2260
  927MOL0     H25129   5.103   0.498   2.454  1.7745 -0.9016 -2.0963
  927MOL0     H25130   5.037   0.663   2.621 -0.6477  3.5228 -0.8535
  927MOL0     H25131   5.482   1.780   1.792  0.4472  0.2313  2.6124
  927MOL0     H25132   5.614   1.783   1.598 -0.8093 -1.0580  0.8174
  927MOL0     H25133   6.027   1.800   1.510  1.5466 -4.4104 -0.6096
  927MOL0     H25134   6.241   1.830   1.395 -1.3537 -1.4269  1.2138
  927MOL0     H25135   6.420   1.869   1.015 -2.0892 -0.0324 -2.4391
  927MOL0     H25136   6.266   1.911   0.955  1.6023 -1.2504  0.1095
  927MOL0     H25137   6.277   2.124   1.042 -1.1234 -1.7570 -1.1552
  927MOL0     H25138   6.374   2.093   0.896 -2.7628 -1.2726 -0.1931
  927MOL0     H25139   6.536   2.199   1.016 -2.5260 -0.4828 -2.1294
  927MOL0     H25140   6.568   2.042   1.066  0.8951  1.2726 -1.6346
  927MOL0     H25141   6.394   2.099   1.273 -3.8631  0.6602 -4.6420
  927MOL0     H25142   6.419   2.268   1.199  1.6479  0.7967  0.4851
  927MOL0     H25143   6.759   2.207   1.445  1.8731 -2.8101 -0.2635
  927MOL0     H25144   6.062   1.972   1.048 -1.1959 -1.6541 -0.5594
  927MOL0     H25145   5.831   1.977   1.155 -1.1950 -1.1742  1.4120
  928MOL0     O25146   7.897  10.417   5.033  0.0607  0.6870 -0.2053
  928MOL0     C25147   7.778  10.382   5.053  0.0811  1.4724 -0.7883
  928MOL0     O25148   7.741  10.272   5.133 -0.9819 -0.6658  0.5328
  928MOL0     C25149   7.825  10.221   5.229 -1.0998 -0.7861 -0.2309
  928MOL0     C25150   7.763  10.168   5.339  0.5081 -0.2765 -0.2974
  928MOL0     C25151   7.817  10.117   5.451 -0.6142 -0.9305  0.2115
  928MOL0     C25152   7.954  10.103   5.455  0.9512 -0.2545 -0.2590
  928MOL0     O25153   8.007  10.040   5.564 -1.1201  0.2080 -0.5340
  928MOL0     C25154   8.108  10.118   5.624 -0.5126  1.2291 -0.0481
  928MOL0     C25155   8.121  10.059   5.760 -0.7320  0.3878 -0.2024
  928MOL0     C25156   8.167   9.913   5.767  0.0855 -0.8273  0.1363
  928MOL0     C25157   8.173   9.873   5.924  0.0136 -0.4753  0.1039
  928MOL0     C25158   8.202   9.722   5.934 -0.0206 -0.7206  0.1980
  928MOL0     C25159   8.064   9.649   5.930  0.4800  0.1928 -1.3266
  928MOL0     C25160   8.073   9.493   5.957  0.6941 -0.5994  0.0184
  928MOL0     C25161   8.142   9.448   5.826  0.7973  0.0748 -0.9184
  928MOL0     N25162   8.158   9.300   5.826  0.5471  0.0488  0.6028
  928MOL0     C25163   8.050   9.211   5.825 -0.3597 -0.0047 -0.3523
  928MOL0     C25164   8.106   9.088   5.818 -0.5468  0.0296  0.4492
  928MOL0     C25165   8.040   8.954   5.798  0.3932 -0.3987 -0.6591
  928MOL0     C25166   8.083   8.857   5.914 -0.3642 -0.4430  0.2278
  928MOL0     C25167   8.046   8.919   6.053 -0.5658  0.2187 -0.2290
  928MOL0     C25168   8.034   8.799   6.147  0.1661 -0.6741 -0.2333
  928MOL0     O25169   7.908   8.754   6.139  0.0872  0.1288 -0.2616
  928MOL0     C25170   7.877   8.655   6.228  0.1319  0.7469  0.0032
  928MOL0     C25171   7.761   8.587   6.206  0.2521 -0.2929 -0.1442
  928MOL0     C25172   7.714   8.495   6.290  0.1888  0.8528 -0.1521
  928MOL0     C25173   7.572   8.447   6.246 -0.3965 -0.1677  0.3003
  928MOL0     C25174   7.793   8.440   6.391  0.4284  0.0566 -1.3612
  928MOL0     C25175   7.759   8.316   6.465 -0.0710 -0.4278 -0.3633
  928MOL0     O25176   7.847   8.287   6.566 -0.5765  0.3503 -0.4587
  928MOL0     C25177   7.822   8.178   6.653  0.9201 -0.1558 -0.0107
  928MOL0     C25178   7.768   8.054   6.627  1.2246  0.7426  0.0931
  928MOL0     C25179   7.751   7.951   6.721 -0.1970 -0.3535 -0.3182
  928MOL0     C25180   7.809   7.953   6.849  0.4865  0.4950  0.1663
  928MOL0     O25181   7.795   7.872   6.961 -0.4842 -0.5324 -0.3878
  928MOL0     C25182   7.726   7.752   6.924  0.5557  0.0049 -0.6461
  928MOL0     C25183   7.759   7.643   7.022 -0.1769 -0.2711 -0.2041
  928MOL0     C25184   7.909   7.622   7.040 -0.6155 -0.1466 -0.5256
  928MOL0     C25185   7.933   7.492   7.097 -0.5476 -0.4238  0.0427
  928MOL0     C25186   8.074   7.483   7.133 -0.1569  0.3146 -0.2357
  928MOL0     C25187   8.111   7.334   7.132  0.3805  0.3328  0.7032
  928MOL0     C25188   8.033   7.238   7.221 -0.7822  0.3098  0.8894
  928MOL0     C25189   8.100   7.104   7.222 -0.0266 -0.6938  1.0782
  928MOL0    Cl25190   8.006   6.999   7.115 -0.0528  0.1328 -0.0888
  928MOL0     C25191   7.869   8.075   6.876  0.5341 -0.2844 -0.6958
  928MOL0     C25192   7.879   8.182   6.781 -0.4958  0.2437  0.3182
  928MOL0     O25193   7.648   8.264   6.454 -0.4160 -0.4182 -0.1957
  928MOL0     C25194   7.925   8.503   6.415 -0.2047 -0.5500  0.1673
  928MOL0     C25195   7.958   8.618   6.336  0.2495 -0.1138  0.2424
  928MOL0     N25196   8.245   9.098   5.792 -0.2849  0.9995  0.5286
  928MOL0     N25197   8.275   9.221   5.820 -0.3636 -0.4384  0.4610
  928MOL0     C25198   8.028  10.157   5.357 -0.7965 -0.4398  0.3508
  928MOL0     C25199   7.972  10.209   5.237 -0.2565 -1.0190  0.0710
  928MOL0     C25200   7.682  10.481   5.010  0.7860 -1.1459 -0.2155
  928MOL0     C25201   7.710  10.610   4.965 -0.3570 -1.4273  0.5514
  928MOL0     C25202   7.605  10.700   4.930 -0.2024 -0.1499 -0.4824
  928MOL0     C25203   7.464  10.673   4.928 -0.4305 -0.7133  0.8502
  928MOL0     O25204   7.381  10.771   4.889 -0.1135 -0.1230 -0.3382
  928MOL0     C25205   7.266  10.736   4.818  0.5672 -0.3318 -1.4312
  928MOL0     C25206   7.156  10.837   4.819  0.2689 -0.3726 -0.0257
  928MOL0     C25207   7.121  10.894   4.956  0.5749  0.6005  0.7237
  928MOL0     C25208   7.008  10.992   4.941  1.0054 -0.4353 -0.0072
  928MOL0     C25209   7.070  11.124   4.908  1.2143 -0.5744 -0.0637
  928MOL0     C25210   7.139  11.231   4.903 -0.7700  0.7524  0.8157
  928MOL0     C25211   7.443  10.540   4.976  0.4225 -0.1539  0.3826
  928MOL0     C25212   7.550  10.455   5.022 -0.3068 -0.9319  0.2435
  928MOL0     H25213   7.655  10.186   5.339  0.2126 -1.8336  1.0968
  928MOL0     H25214   7.759  10.076   5.533 -1.2191  1.6873  1.1623
  928MOL0     H25215   8.209  10.122   5.582 -0.1684 -0.8941  0.4565
  928MOL0     H25216   8.064  10.218   5.628 -3.3056  0.0262  1.8093
  928MOL0     H25217   8.189  10.116   5.824 -0.7903 -1.4841  1.5994
  928MOL0     H25218   8.030  10.068   5.821 -0.0090 -1.6534  1.2796
  928MOL0     H25219   8.102   9.854   5.701 -0.7792  1.3939 -1.1002
  928MOL0     H25220   8.263   9.908   5.716  0.0584 -1.9555  0.1581
  928MOL0     H25221   8.247   9.935   5.974 -0.7179  0.4465  0.0734
  928MOL0     H25222   8.075   9.905   5.961  0.0704  2.4231 -1.8831
  928MOL0     H25223   8.278   9.685   5.864 -2.2932 -2.1135 -1.6709
  928MOL0     H25224   8.243   9.700   6.033  1.7128 -0.0136 -0.3215
  928MOL0     H25225   7.998   9.686   6.009 -1.1134 -1.3552 -1.8490
  928MOL0     H25226   8.001   9.668   5.843 -2.8700  1.1458  1.0963
  928MOL0     H25227   8.125   9.473   6.051 -0.0902 -2.8764  0.0217
  928MOL0     H25228   7.976   9.444   5.945  1.3711 -1.7105 -1.1861
  928MOL0     H25229   8.237   9.499   5.807 -0.3263  2.0664 -1.5192
  928MOL0     H25230   8.070   9.476   5.749 -0.7376  1.2836  0.8644
  928MOL0     H25231   7.943   9.227   5.832 -0.4384  0.2547 -1.8449
  928MOL0     H25232   7.934   8.978   5.810  0.8061  0.4999  1.7701
  928MOL0     H25233   8.057   8.927   5.693 -0.2587  2.8997 -1.7447
  928MOL0     H25234   8.191   8.845   5.906 -0.2871 -0.9684  1.7337
  928MOL0     H25235   8.045   8.756   5.902  4.0505 -2.2392 -0.4424
  928MOL0     H25236   7.955   8.977   6.069 -0.5306 -0.4370  2.9997
  928MOL0     H25237   8.128   8.979   6.093 -0.1782  0.2104 -0.9995
  928MOL0     H25238   8.053   8.837   6.247 -1.2455  0.5103 -0.3680
  928MOL0     H25239   8.114   8.729   6.121  1.1700  0.4391 -0.2307
  928MOL0     H25240   7.698   8.627   6.128  0.1292  3.3316  1.5812
  928MOL0     H25241   7.540   8.490   6.151  0.2622  0.6894  0.4458
  928MOL0     H25242   7.570   8.340   6.227  0.0271 -0.4249  1.5791
  928MOL0     H25243   7.505   8.469   6.329 -2.6253 -0.5656 -1.3016
  928MOL0     H25244   7.715   8.045   6.532  4.2384 -1.9271 -1.5211
  928MOL0     H25245   7.683   7.873   6.689  2.0706 -1.0115 -4.1746
  928MOL0     H25246   7.618   7.765   6.922  0.8068  4.0528  1.9300
  928MOL0     H25247   7.754   7.723   6.822 -2.2835 -0.2860 -1.4171
  928MOL0     H25248   7.714   7.655   7.121 -0.7104  1.4907 -0.6141
  928MOL0     H25249   7.713   7.554   6.977  1.3623 -1.9130  1.3279
  928MOL0     H25250   7.957   7.693   7.108  0.0854  0.6767 -1.8216
  928MOL0     H25251   7.957   7.630   6.942 -0.6851 -2.7101 -0.8167
  928MOL0     H25252   7.872   7.481   7.187  0.8578  1.9461  1.3677
  928MOL0     H25253   7.900   7.415   7.026 -1.3970 -1.7800  1.8290
  928MOL0     H25254   8.102   7.529   7.228 -3.3045 -0.8121  1.3717
  928MOL0     H25255   8.136   7.531   7.056 -1.8623 -1.5042 -2.9135
  928MOL0     H25256   8.097   7.294   7.031 -2.2584 -0.6161  1.3710
  928MOL0     H25257   8.220   7.337   7.139  0.5928 -1.1769 -1.1143
  928MOL0     H25258   7.935   7.223   7.177 -1.8754  0.4272  3.1182
  928MOL0     H25259   8.022   7.282   7.321 -0.8698  3.7641 -0.5219
  928MOL0     H25260   8.101   7.074   7.327  1.0112  0.1184  1.3141
  928MOL0     H25261   8.200   7.110   7.179 -1.7747  1.8137 -3.3482
  928MOL0     H25262   7.913   8.104   6.970 -1.4662 -3.0053  1.2311
  928MOL0     H25263   7.923   8.278   6.805 -2.8094  1.4298  0.1544
  928MOL0     H25264   7.988   8.475   6.498  0.6910 -2.6361 -1.1335
  928MOL0     H25265   8.050   8.670   6.359 -0.0117  1.1244 -1.3406
  928MOL0     H25266   8.136  10.150   5.356 -0.8117 -1.1396  1.5336
  928MOL0     H25267   8.035  10.247   5.157  2.1963  0.9081  2.7207
  928MOL0     H25268   7.811  10.635   4.936 -1.1676  1.0677 -0.3759
  928MOL0     H25269   7.643  10.801   4.913  2.4439 -0.7212  1.5058
  928MOL0     H25270   7.305  10.710   4.719  4.7273  0.5906 -0.1997
  928MOL0     H25271   7.220  10.645   4.858 -1.8771  2.1490  1.9396
  928MOL0     H25272   7.073  10.785   4.770  0.1622 -2.2718  2.0125
  928MOL0     H25273   7.190  10.925   4.763 -0.8214 -0.2768 -0.5734
  928MOL0     H25274   7.212  10.936   5.001  1.7711  0.4043 -1.3686
  928MOL0     H25275   7.075  10.817   5.018 -0.1233 -1.5009 -2.1858
  928MOL0     H25276   6.945  11.007   5.029 -2.0524  3.3321 -2.5370
  928MOL0     H25277   6.941  10.963   4.861  1.6528  0.5696 -0.9411
  928MOL0     H25278   7.198  11.319   4.885  2.2568 -1.5041 -1.2661
  928MOL0     H25279   7.340  10.506   4.976 -0.2508  1.6156 -2.3211
  928MOL0     H25280   7.517  10.359   5.060  1.1904 -0.0482  4.3908
  929MOL0     O25281   3.623   4.302   5.612  0.2549  0.5502  0.2689
  929MOL0     C25282   3.605   4.214   5.694  0.1381  0.2212 -0.4086
  929MOL0     O25283   3.712   4.148   5.768 -0.2828 -0.2033  0.0774
  929MOL0     C25284   3.843   4.181   5.735 -0.3626 -0.6889 -0.4106
  929MOL0     C25285   3.930   4.074   5.707  0.0687  0.4535  0.0554
  929MOL0     C25286   4.061   4.092   5.667 -0.7055 -0.5596 -0.0158
  929MOL0     C25287   4.114   4.221   5.661  0.6447 -0.3169  0.0981
  929MOL0     O25288   4.241   4.265   5.630  0.4045  0.1569  0.3609
  929MOL0     C25289   4.333   4.159   5.589 -0.3022 -0.3995  0.4996
  929MOL0     C25290   4.481   4.219   5.593  0.2897  0.3360 -0.0981
  929MOL0     C25291   4.506   4.339   5.500 -0.4648  1.4434 -0.4954
  929MOL0     C25292   4.647   4.408   5.538 -0.0184 -0.2964 -0.4145
  929MOL0     C25293   4.716   4.490   5.424 -0.0633  0.3362  0.0625
  929MOL0     C25294   4.866   4.530   5.472  0.3837 -0.9621  1.3679
  929MOL0     C25295   4.952   4.593   5.366 -0.3293  0.6018 -0.0690
  929MOL0     C25296   5.085   4.663   5.413 -0.2270  0.3900  0.2693
  929MOL0     N25297   5.200   4.578   5.455 -0.9770  0.2035  0.1970
  929MOL0     C25298   5.204   4.504   5.567 -0.2438  0.4560 -0.5927
  929MOL0     C25299   5.337   4.454   5.568 -0.4799 -0.3514 -0.2683
  929MOL0     C25300   5.400   4.369   5.675 -0.2216  0.2448  0.8549
  929MOL0     C25301   5.365   4.228   5.628 -0.0870 -0.3566 -0.5569
  929MOL0     C25302   5.419   4.199   5.479 -0.0188  0.6530  0.0232
  929MOL0     C25303   5.391   4.052   5.426  0.2067  0.4167  0.1515
  929MOL0     O25304   5.493   3.965   5.473  0.9416 -0.7866  0.1281
  929MOL0     C25305   5.597   3.928   5.384  0.7586  0.2211 -0.1830
  929MOL0     C25306   5.722   3.938   5.430 -0.1718  1.2792  0.4651
  929MOL0     C25307   5.836   3.899   5.357  0.7153 -0.4330 -0.3042
  929MOL0     C25308   5.963   3.901   5.422 -0.8185  0.2199  0.7057
  929MOL0     C25309   5.810   3.839   5.229 -1.0077  0.4784  0.1434
  929MOL0     C25310   5.915   3.815   5.131 -0.7118  0.0629 -0.9171
  929MOL0     O25311   6.026   3.735   5.170  0.3888 -0.3796  0.2695
  929MOL0     C25312   6.113   3.687   5.076 -0.2905 -0.4009  0.1054
  929MOL0     C25313   6.251   3.673   5.095 -0.8325  0.2520  0.2218
  929MOL0     C25314   6.339   3.638   4.989  0.3197  0.6866  0.4494
  929MOL0     C25315   6.293   3.615   4.852 -0.0439  0.5593  0.3734
  929MOL0     O25316   6.390   3.593   4.753  0.0495 -0.3769 -0.3762
  929MOL0     C25317   6.358   3.570   4.620 -0.2486 -0.1641 -0.0330
  929MOL0     C25318   6.427   3.672   4.530 -0.9100  0.3578  0.9007
  929MOL0     C25319   6.370   3.809   4.544 -0.1039 -0.0210  0.2540
  929MOL0     C25320   6.428   3.911   4.444  0.5744  1.0464 -0.3969
  929MOL0     C25321   6.400   4.056   4.485  0.6813 -0.7583 -0.1408
  929MOL0     C25322   6.439   4.146   4.359  0.2998  0.4411  0.3239
  929MOL0     C25323   6.426   4.288   4.396 -0.7126 -0.9993  0.7228
  929MOL0     C25324   6.286   4.342   4.366 -0.4724  0.7587  0.1564
  929MOL0    Cl25325   6.308   4.516   4.360  0.2360 -0.4417 -0.0265
  929MOL0     C25326   6.151   3.621   4.842  1.6056 -0.5310 -0.5226
  929MOL0     C25327   6.067   3.658   4.950  0.8328  0.3468  0.0833
  929MOL0     O25328   5.898   3.875   5.023 -0.5511 -0.0588  0.1258
  929MOL0     C25329   5.683   3.830   5.180  1.7051 -0.6519 -0.9682
  929MOL0     C25330   5.572   3.874   5.259  0.1386  1.2731 -0.1751
  929MOL0     N25331   5.403   4.492   5.458  0.7297  0.6555 -0.0338
  929MOL0     N25332   5.323   4.570   5.396  0.0161 -0.2991 -0.2373
  929MOL0     C25333   4.026   4.327   5.697 -0.6492  0.0103 -0.9226
  929MOL0     C25334   3.891   4.310   5.726  0.2929 -0.3641  0.4489
  929MOL0     C25335   3.469   4.178   5.737 -0.5164 -0.6868 -0.8111
  929MOL0     C25336   3.444   4.104   5.858 -0.8995  0.7232 -0.2302
  929MOL0     C25337   3.310   4.082   5.892 -0.3545  0.1437 -0.2584
  929MOL0     C25338   3.202   4.116   5.805  0.8960 -0.5733 -0.3760
  929MOL0     O25339   3.077   4.068   5.839  0.2762 -0.0491  0.4988
  929MOL0     C25340   2.966   4.105   5.757 -0.8941  0.0718 -0.0086
  929MOL0     C25341   2.902   4.241   5.775 -0.2649 -0.6501 -0.6984
  929MOL0     C25342   2.853   4.307   5.642  0.1523  0.1619 -0.5384
  929MOL0     C25343   2.745   4.222   5.560 -1.2920 -0.2278 -0.3402
  929MOL0     C25344   2.634   4.171   5.644  1.3785  0.1911 -0.0629
  929MOL0     C25345   2.543   4.131   5.704  0.4541 -0.1755  0.2503
  929MOL0     C25346   3.230   4.184   5.679  0.6242  0.3587  0.6476
  929MOL0     C25347   3.366   4.214   5.649 -0.3177 -0.7698 -0.9406
  929MOL0     H25348   3.898   3.972   5.724  0.4346  0.5907  1.7571
  929MOL0     H25349   4.128   4.011   5.642  2.7822  2.4414 -1.3978
  929MOL0     H25350   4.324   4.069   5.649 -1.4267 -1.0817 -0.6548
  929MOL0     H25351   4.310   4.141   5.484  1.7051  1.6016 -0.3689
  929MOL0     H25352   4.502   4.250   5.696 -1.9447  0.5780  0.3345
  929MOL0     H25353   4.553   4.141   5.567  1.3855  1.8357 -1.8610
  929MOL0     H25354   4.500   4.318   5.393  0.1757  0.7824 -0.4109
  929MOL0     H25355   4.432   4.417   5.518  1.6231  4.0875 -2.4094
  929MOL0     H25356   4.633   4.473   5.624  0.8745 -1.4317  0.6171
  929MOL0     H25357   4.717   4.329   5.565 -4.0265 -4.3794 -0.6891
  929MOL0     H25358   4.726   4.430   5.333  3.1025  1.2254 -0.2805
  929MOL0     H25359   4.650   4.575   5.406 -1.9836 -0.4047  2.9384
  929MOL0     H25360   4.868   4.600   5.556  2.3076 -2.5511  2.7615
  929MOL0     H25361   4.911   4.437   5.508  0.7505 -1.5505 -0.5108
  929MOL0     H25362   4.968   4.509   5.299  0.8060  1.8362 -1.4287
  929MOL0     H25363   4.894   4.665   5.308 -0.8672  0.1461 -0.0959
  929MOL0     H25364   5.065   4.731   5.496  1.6612 -1.6522  2.5447
  929MOL0     H25365   5.111   4.722   5.324  1.3038  1.4503  1.3522
  929MOL0     H25366   5.118   4.497   5.633  0.4881  2.9534  0.7605
  929MOL0     H25367   5.508   4.386   5.682  0.1829 -0.7454 -1.8003
  929MOL0     H25368   5.354   4.390   5.772 -2.1162 -3.3705  0.9389
  929MOL0     H25369   5.258   4.208   5.635 -0.4886  1.3982 -1.1092
  929MOL0     H25370   5.413   4.164   5.702 -1.0473 -1.0802 -0.5493
  929MOL0     H25371   5.526   4.219   5.481 -0.2107  1.8394  2.8907
  929MOL0     H25372   5.364   4.266   5.411 -1.9834  0.2326  1.1388
  929MOL0     H25373   5.392   4.040   5.317 -0.8934  0.3418  0.1415
  929MOL0     H25374   5.293   4.023   5.464 -2.2862  3.8975 -2.9050
  929MOL0     H25375   5.749   3.968   5.531 -0.2825 -1.7117  1.4845
  929MOL0     H25376   6.034   3.969   5.373  0.0064 -0.9795  0.1741
  929MOL0     H25377   5.964   3.923   5.529  1.7937 -0.9687  1.0064
  929MOL0     H25378   6.008   3.802   5.405  0.4042  0.4609  2.3126
  929MOL0     H25379   6.292   3.699   5.192 -3.6666 -4.5456  3.0381
  929MOL0     H25380   6.443   3.629   5.020 -0.0538  0.9355  1.8328
  929MOL0     H25381   6.389   3.470   4.587  0.1706 -1.1086  2.9424
  929MOL0     H25382   6.249   3.576   4.614 -0.4703 -1.3399  1.9542
  929MOL0     H25383   6.535   3.672   4.550 -0.7016 -1.4095 -0.0251
  929MOL0     H25384   6.422   3.650   4.423 -1.1556 -0.5508  1.0936
  929MOL0     H25385   6.400   3.845   4.643  3.5693  2.0340 -1.4300
  929MOL0     H25386   6.261   3.806   4.548 -0.4979  3.6560 -2.5747
  929MOL0     H25387   6.536   3.895   4.449  0.2165 -1.5566  3.8868
  929MOL0     H25388   6.382   3.900   4.346 -5.4271  1.0290  1.9721
  929MOL0     H25389   6.455   4.072   4.578 -1.0214  0.2410  0.7363
  929MOL0     H25390   6.293   4.053   4.508 -0.3727 -1.5453 -4.3115
  929MOL0     H25391   6.546   4.136   4.339  0.3756  3.6751 -1.7357
  929MOL0     H25392   6.372   4.120   4.275  2.1927  1.7204 -1.6836
  929MOL0     H25393   6.500   4.351   4.346 -3.4469  1.4171 -0.5638
  929MOL0     H25394   6.446   4.296   4.503  1.1942  2.3762  0.2677
  929MOL0     H25395   6.220   4.303   4.443 -1.2989 -2.3698 -1.9263
  929MOL0     H25396   6.251   4.315   4.266  2.2892  1.8129 -1.2272
  929MOL0     H25397   6.107   3.595   4.746  2.1444  1.0274 -1.2409
  929MOL0     H25398   5.962   3.649   4.925  1.5963 -1.5965 -2.9828
  929MOL0     H25399   5.661   3.800   5.078 -1.4181 -1.2588 -0.2433
  929MOL0     H25400   5.473   3.869   5.214  0.8953 -0.2032 -1.8154
  929MOL0     H25401   4.077   4.423   5.693 -0.9712  0.3492  1.7151
  929MOL0     H25402   3.832   4.397   5.752 -1.0733 -1.4979  1.2501
  929MOL0     H25403   3.520   4.063   5.923 -3.1137 -0.4381  1.8277
  929MOL0     H25404   3.291   4.028   5.984  0.7054  0.0940 -0.0576
  929MOL0     H25405   3.007   4.086   5.658  5.1520 -1.2096  2.3265
  929MOL0     H25406   2.888   4.029   5.772 -0.5947 -0.2167  0.0917
  929MOL0     H25407   2.969   4.309   5.828 -3.6870  1.1252  1.6839
  929MOL0     H25408   2.814   4.226   5.838  0.7648  0.6537  1.1554
  929MOL0     H25409   2.944   4.306   5.581  1.0956  0.5382  0.8094
  929MOL0     H25410   2.808   4.407   5.646 -1.1411 -0.3322 -1.7103
  929MOL0     H25411   2.796   4.131   5.526  0.5675 -0.1830  2.0490
  929MOL0     H25412   2.725   4.280   5.470  1.7723  0.8139 -0.4320
  929MOL0     H25413   2.454   4.086   5.743  0.7170 -1.6746 -0.8139
  929MOL0     H25414   3.155   4.214   5.607 -0.3779  0.2810  1.6269
  929MOL0     H25415   3.384   4.276   5.562  1.0124 -1.2949 -1.0704
  930MOL0     O25416  11.208   2.118   0.840 -1.3108 -0.0298  0.2833
  930MOL0     C25417  11.156   2.228   0.820  0.1630  0.5506 -0.0160
  930MOL0     O25418  11.044   2.267   0.883 -0.3887 -0.0726  0.5695
  930MOL0     C25419  10.984   2.179   0.973 -0.1013  0.6151  0.1015
  930MOL0     C25420  10.866   2.111   0.932  0.2007  1.0242 -0.1584
  930MOL0     C25421  10.816   2.013   1.023  0.6934  0.0178  1.3704
  930MOL0     C25422  10.866   1.993   1.153 -0.3080  0.6745  0.1742
  930MOL0     O25423  10.801   1.907   1.234  0.4554 -1.2969  0.2457
  930MOL0     C25424  10.873   1.796   1.272 -0.0555 -0.7323  1.1119
  930MOL0     C25425  10.780   1.711   1.350 -1.4944  0.2059 -0.4323
  930MOL0     C25426  10.843   1.581   1.396 -0.8020 -0.6432 -0.5018
  930MOL0     C25427  10.969   1.586   1.481  0.5672 -0.3964 -0.2716
  930MOL0     C25428  11.010   1.450   1.533 -0.1321 -0.6629 -0.8422
  930MOL0     C25429  11.154   1.453   1.596  0.1306 -0.4288  0.1430
  930MOL0     C25430  11.213   1.307   1.583 -1.2320  0.2586  0.8174
  930MOL0     C25431  11.148   1.201   1.660  0.8112 -0.4237 -0.3125
  930MOL0     N25432  11.218   1.074   1.654 -0.1007 -0.0298  0.0387
  930MOL0     C25433  11.324   1.032   1.731  0.6270 -0.8075  0.0018
  930MOL0     C25434  11.361   0.918   1.682  0.0911  0.5552 -0.0113
  930MOL0     C25435  11.481   0.839   1.735 -0.1889 -0.2026 -0.5715
  930MOL0     C25436  11.460   0.677   1.739  0.1675  0.0128  0.4632
  930MOL0     C25437  11.403   0.633   1.870  0.5146  0.2854 -0.4991
  930MOL0     C25438  11.443   0.482   1.888 -0.1011 -0.0593  1.5616
  930MOL0     O25439  11.569   0.465   1.953  0.1256  0.1060  0.1168
  930MOL0     C25440  11.602   0.343   2.000 -1.0216 -0.1906  0.7298
  930MOL0     C25441  11.508   0.262   2.063 -0.0249  0.0036  0.0484
  930MOL0     C25442  11.538   0.129   2.108  0.0754 -0.2615  0.0405
  930MOL0     C25443  11.431   0.055   2.188 -0.1570 -0.4174  0.2237
  930MOL0     C25444  11.666   0.076   2.081 -0.6990 -0.2540 -0.5757
  930MOL0     C25445  11.714  -0.065   2.117  0.6850 -0.5007  0.2261
  930MOL0     O25446  11.851  -0.081   2.108 -0.3784  0.2263  0.0768
  930MOL0     C25447  11.899  -0.215   2.120  0.9256  0.7695 -0.1026
  930MOL0     C25448  11.978  -0.251   2.233 -0.6094 -0.2152  0.3570
  930MOL0     C25449  12.018  -0.379   2.245 -0.3496  0.2362 -0.1924
  930MOL0     C25450  11.991  -0.480   2.150  0.2123 -0.2018 -0.1565
  930MOL0     O25451  12.039  -0.610   2.155 -0.2262  0.2628 -0.3958
  930MOL0     C25452  12.135  -0.652   2.260  0.2521 -0.7632  0.6894
  930MOL0     C25453  12.139  -0.808   2.273  0.2561 -0.5576  0.2953
  930MOL0     C25454  12.005  -0.855   2.332 -0.2297  0.5912  0.1729
  930MOL0     C25455  12.022  -1.012   2.359 -0.0617 -0.5785 -0.0151
  930MOL0     C25456  11.889  -1.071   2.392 -0.8494 -0.3126  0.1581
  930MOL0     C25457  11.894  -1.222   2.376  1.1312  0.0495  0.0057
  930MOL0     C25458  11.751  -1.275   2.398 -0.0869  0.4830  0.0438
  930MOL0     C25459  11.756  -1.429   2.394 -1.0917 -0.3371  0.2041
  930MOL0    Cl25460  11.589  -1.486   2.413  0.3619 -0.1843 -0.4403
  930MOL0     C25461  11.915  -0.447   2.032  0.3154  0.0027  0.3754
  930MOL0     C25462  11.871  -0.311   2.016 -0.1142  0.0311  0.4160
  930MOL0     O25463  11.636  -0.161   2.123  0.1947 -0.8159  0.2317
  930MOL0     C25464  11.762   0.166   2.033  0.5683  0.8061 -0.9744
  930MOL0     C25465  11.733   0.291   1.991 -0.3007  0.1522  0.5651
  930MOL0     N25466  11.284   0.883   1.576 -0.3497 -0.0106  0.8095
  930MOL0     N25467  11.194   0.979   1.554 -0.9212  0.3238  0.0335
  930MOL0     C25468  10.975   2.074   1.200  0.3398  0.7074  1.0303
  930MOL0     C25469  11.036   2.155   1.107  0.7486  0.3233  0.7351
  930MOL0     C25470  11.209   2.299   0.707 -0.1875  0.2543  0.1984
  930MOL0     C25471  11.332   2.279   0.656  0.4779  1.1589  1.3408
  930MOL0     C25472  11.378   2.354   0.544  0.2131  0.4656 -0.0296
  930MOL0     C25473  11.307   2.464   0.499  0.6553 -0.5462 -0.8723
  930MOL0     O25474  11.335   2.544   0.389 -0.7693 -0.0014 -0.2612
  930MOL0     C25475  11.474   2.587   0.371  0.7903 -0.3940  0.6399
  930MOL0     C25476  11.519   2.699   0.473  0.0146 -0.3213  0.0636
  930MOL0     C25477  11.671   2.718   0.455  0.6727 -0.2413  0.5957
  930MOL0     C25478  11.713   2.858   0.517 -0.5490 -0.5092  0.6063
  930MOL0     C25479  11.851   2.851   0.573  0.9391 -0.8134  0.2547
  930MOL0     C25480  11.974   2.849   0.598 -0.3915  0.4318  0.4559
  930MOL0     C25481  11.184   2.493   0.564  0.4052 -0.0860  0.3550
  930MOL0     C25482  11.132   2.404   0.655 -0.2122 -0.5084 -0.7350
  930MOL0     H25483  10.831   2.137   0.833 -1.3483  2.5422  0.7322
  930MOL0     H25484  10.728   1.957   0.991  0.3327  0.4721  1.5477
  930MOL0     H25485  10.921   1.759   1.181 -1.8342  2.8032 -1.4960
  930MOL0     H25486  10.953   1.826   1.341  0.3786  1.6651 -0.3304
  930MOL0     H25487  10.727   1.764   1.430 -1.6314  0.3821 -0.6369
  930MOL0     H25488  10.696   1.685   1.285 -3.1009  2.5542  0.5535
  930MOL0     H25489  10.765   1.524   1.447 -1.8978 -2.5960 -4.0419
  930MOL0     H25490  10.877   1.524   1.309 -1.0600 -0.2564 -0.8633
  930MOL0     H25491  11.049   1.619   1.414 -0.0429 -2.8692 -2.3612
  930MOL0     H25492  10.952   1.657   1.562  0.9266 -2.3423  1.5787
  930MOL0     H25493  10.939   1.413   1.608  1.2764  0.7833  1.3457
  930MOL0     H25494  11.013   1.382   1.448 -0.8859 -0.0404 -1.3754
  930MOL0     H25495  11.224   1.533   1.570 -2.6418  1.9884 -0.4906
  930MOL0     H25496  11.148   1.480   1.702  0.3407  1.3765 -0.2664
  930MOL0     H25497  11.210   1.286   1.475 -2.5921  2.1474  0.4358
  930MOL0     H25498  11.319   1.314   1.611 -0.5270  0.1987 -1.5957
  930MOL0     H25499  11.045   1.187   1.624  0.8150  0.6919 -0.7944
  930MOL0     H25500  11.148   1.237   1.763  1.0370 -0.5572 -0.2658
  930MOL0     H25501  11.365   1.080   1.819 -1.7458 -1.2196  1.4193
  930MOL0     H25502  11.556   0.867   1.661  0.6794 -0.6338  0.1243
  930MOL0     H25503  11.525   0.869   1.831 -0.2423 -0.3914 -0.4865
  930MOL0     H25504  11.561   0.638   1.725  0.4793  1.6822 -3.3062
  930MOL0     H25505  11.405   0.638   1.653 -1.9779  0.8939  1.3407
  930MOL0     H25506  11.295   0.651   1.870  0.9615  4.6578  3.4040
  930MOL0     H25507  11.454   0.678   1.956 -2.1254  2.4455  0.0591
  930MOL0     H25508  11.437   0.436   1.789  0.7405  0.9858  1.0143
  930MOL0     H25509  11.358   0.441   1.943 -3.7612  1.9921 -1.9985
  930MOL0     H25510  11.413   0.293   2.104  0.8126  0.9155  1.3819
  930MOL0     H25511  11.456   0.012   2.285  0.7124 -1.4129 -0.4079
  930MOL0     H25512  11.360   0.132   2.220  0.1604  0.5590 -1.2918
  930MOL0     H25513  11.384  -0.019   2.122  0.2609 -0.2916 -0.2190
  930MOL0     H25514  12.009  -0.170   2.298 -3.3000  2.8294 -1.8290
  930MOL0     H25515  12.079  -0.393   2.333  2.1998  0.7303 -1.8027
  930MOL0     H25516  12.230  -0.630   2.210 -0.2015  3.2241  1.3095
  930MOL0     H25517  12.122  -0.595   2.352 -2.1403  1.1432 -0.7346
  930MOL0     H25518  12.152  -0.853   2.175 -4.8353  0.4657 -1.1391
  930MOL0     H25519  12.218  -0.833   2.345 -1.2985 -1.4222  1.7935
  930MOL0     H25520  11.936  -0.833   2.250  0.0263  0.5813 -0.0492
  930MOL0     H25521  11.958  -0.796   2.411 -2.3271 -1.2880  0.4472
  930MOL0     H25522  12.062  -1.064   2.272  0.4047 -1.1927  0.5582
  930MOL0     H25523  12.093  -1.016   2.442  0.8105  4.2063 -0.2393
  930MOL0     H25524  11.823  -1.027   2.317 -1.0689 -0.7240  0.1027
  930MOL0     H25525  11.850  -1.040   2.489 -4.2322 -0.2005 -1.1111
  930MOL0     H25526  11.939  -1.248   2.280 -1.1292  2.0935 -1.7343
  930MOL0     H25527  11.951  -1.267   2.459  0.0602 -1.1349  0.1421
  930MOL0     H25528  11.682  -1.237   2.321  2.0784  3.1130 -0.7662
  930MOL0     H25529  11.723  -1.238   2.497 -0.9351  0.7048 -0.2718
  930MOL0     H25530  11.817  -1.477   2.471  1.6609  0.2700 -1.4583
  930MOL0     H25531  11.797  -1.461   2.298 -1.7861 -0.8468  0.0755
  930MOL0     H25532  11.905  -0.523   1.955 -1.8479  0.4369  0.1850
  930MOL0     H25533  11.816  -0.284   1.927  2.0640 -0.2221 -1.0813
  930MOL0     H25534  11.862   0.132   2.007  0.7149 -1.9627  2.3960
  930MOL0     H25535  11.807   0.359   1.949 -1.1407  1.4180  1.0945
  930MOL0     H25536  11.022   2.043   1.293  0.4752  1.1658  1.1206
  930MOL0     H25537  11.116   2.224   1.129 -0.0952  1.3008  0.7895
  930MOL0     H25538  11.402   2.210   0.704  0.5210  0.2718  0.0580
  930MOL0     H25539  11.473   2.330   0.498  0.1658  0.9485 -0.3884
  930MOL0     H25540  11.537   2.499   0.379 -1.8130 -2.5495 -0.8398
  930MOL0     H25541  11.483   2.623   0.268 -0.8944  1.9606  1.2209
  930MOL0     H25542  11.492   2.676   0.576 -0.5378 -0.9123 -0.2097
  930MOL0     H25543  11.459   2.787   0.447 -3.1675 -2.3340  0.0793
  930MOL0     H25544  11.690   2.725   0.347 -2.6888  0.3809 -0.0929
  930MOL0     H25545  11.720   2.633   0.504 -1.2510 -2.3318 -0.8813
  930MOL0     H25546  11.631   2.900   0.576  0.2651  2.0806  0.0235
  930MOL0     H25547  11.719   2.931   0.436 -3.3717  0.4415  1.1526
  930MOL0     H25548  12.074   2.825   0.625  0.0453 -0.4110 -1.7046
  930MOL0     H25549  11.129   2.576   0.521 -1.8457 -1.7166 -0.0347
  930MOL0     H25550  11.031   2.424   0.692 -0.0239  0.8763 -0.8944
  931MOL0     O25551   0.837   6.353   3.755  0.1726  0.4536 -0.3586
  931MOL0     C25552   0.858   6.357   3.879 -0.5273 -0.8672 -0.2700
  931MOL0     O25553   0.981   6.383   3.938  0.6204  0.3978 -0.0378
  931MOL0     C25554   1.069   6.430   3.855  0.1148 -0.4218  0.1772
  931MOL0     C25555   1.068   6.566   3.802  0.0748 -0.3472  0.5604
  931MOL0     C25556   1.161   6.605   3.713  0.2460 -0.0435  0.2967
  931MOL0     C25557   1.267   6.523   3.684  0.8460 -0.2902  0.3627
  931MOL0     O25558   1.371   6.563   3.605 -0.0072 -0.3323  1.0933
  931MOL0     C25559   1.343   6.643   3.490  0.6240  0.4775  0.1721
  931MOL0     C25560   1.413   6.777   3.476 -0.3115 -0.4939 -0.4593
  931MOL0     C25561   1.563   6.773   3.517 -0.5210  0.1734 -0.2955
  931MOL0     C25562   1.639   6.681   3.420 -0.8378  0.1950 -0.9285
  931MOL0     C25563   1.714   6.759   3.317  0.0815  0.5184 -0.0982
  931MOL0     C25564   1.636   6.830   3.205 -0.0348 -0.1584  0.8381
  931MOL0     C25565   1.713   6.885   3.082 -0.7903  0.1627  0.0422
  931MOL0     C25566   1.805   7.016   3.109 -0.2310  0.4040  0.5338
  931MOL0     N25567   1.731   7.116   3.184  0.0906  0.1209 -0.9757
  931MOL0     C25568   1.636   7.203   3.135  0.7290  0.7258  0.6065
  931MOL0     C25569   1.602   7.285   3.241 -0.1803  0.0108 -0.3383
  931MOL0     C25570   1.509   7.407   3.249  0.5475 -0.5062 -0.4228
  931MOL0     C25571   1.429   7.428   3.377 -0.7334  1.6315 -0.4042
  931MOL0     C25572   1.339   7.556   3.382  0.9351  0.2332 -0.0500
  931MOL0     C25573   1.400   7.682   3.450 -0.1919  0.6486 -0.5129
  931MOL0     O25574   1.302   7.790   3.458  0.0864  0.0802 -0.8369
  931MOL0     C25575   1.231   7.823   3.569  0.7254 -0.5874 -0.0415
  931MOL0     C25576   1.207   7.735   3.679 -0.5236  0.0137  0.6178
  931MOL0     C25577   1.124   7.775   3.784 -0.3455 -0.6358  0.1401
  931MOL0     C25578   1.086   7.657   3.881 -0.1739 -0.5155  0.3972
  931MOL0     C25579   1.075   7.912   3.788  0.0961  0.1583 -0.4823
  931MOL0     C25580   0.994   7.954   3.901  0.4094 -0.4631 -0.6628
  931MOL0     O25581   0.897   8.046   3.882  0.0943 -0.0398 -0.0030
  931MOL0     C25582   0.787   8.048   3.969  0.3132  0.1449  0.2912
  931MOL0     C25583   0.783   8.154   4.051 -0.1746  1.2235  0.2882
  931MOL0     C25584   0.689   8.170   4.151 -0.2071 -0.3413 -0.4838
  931MOL0     C25585   0.588   8.085   4.163  0.2818  0.4594  0.3747
  931MOL0     O25586   0.506   8.110   4.268  0.1000  0.5899  0.7567
  931MOL0     C25587   0.422   8.004   4.316 -0.2310  0.5367 -0.0287
  931MOL0     C25588   0.510   7.900   4.386 -0.4833  0.7186 -0.9185
  931MOL0     C25589   0.441   7.815   4.492  0.4516 -0.4084 -0.1243
  931MOL0     C25590   0.412   7.894   4.622  0.2868  0.4265 -0.6690
  931MOL0     C25591   0.527   7.945   4.701 -0.4472 -0.1631 -0.0477
  931MOL0     C25592   0.611   7.837   4.769 -0.2199  0.1456 -0.0787
  931MOL0     C25593   0.721   7.895   4.857 -0.2195 -1.3233 -0.0619
  931MOL0     C25594   0.808   7.788   4.919  0.4298 -0.2529  0.6325
  931MOL0    Cl25595   0.975   7.821   4.967 -0.3868  0.2765 -0.4541
  931MOL0     C25596   0.573   7.982   4.069  0.5583 -0.6916 -0.3361
  931MOL0     C25597   0.681   7.962   3.969  0.3919 -0.3079  0.4479
  931MOL0     O25598   1.017   7.905   4.015 -0.8704 -0.0352  0.2743
  931MOL0     C25599   1.101   7.998   3.688  0.5355  0.0214 -0.0480
  931MOL0     C25600   1.173   7.954   3.582  0.9908 -0.7218  0.7864
  931MOL0     N25601   1.677   7.246   3.349  0.3494 -0.5899  0.3474
  931MOL0     N25602   1.754   7.153   3.314  0.0654  0.5979  0.4209
  931MOL0     C25603   1.271   6.384   3.732 -0.3660 -0.3871  1.2748
  931MOL0     C25604   1.171   6.347   3.822 -0.0080  0.9585  0.2483
  931MOL0     C25605   0.745   6.335   3.978 -0.0869 -0.2717  0.3916
  931MOL0     C25606   0.606   6.351   3.948  0.0378 -0.1842 -0.0750
  931MOL0     C25607   0.503   6.328   4.042 -0.7221 -0.2950 -0.2352
  931MOL0     C25608   0.535   6.292   4.172 -1.2745 -0.2549  0.1946
  931MOL0     O25609   0.426   6.256   4.256 -0.5026 -0.4663 -0.5673
  931MOL0     C25610   0.449   6.199   4.390  0.0534 -0.7759 -0.5549
  931MOL0     C25611   0.483   6.309   4.488 -0.5523 -0.4087 -0.2537
  931MOL0     C25612   0.526   6.265   4.624 -0.8983 -0.7107 -0.7181
  931MOL0     C25613   0.436   6.189   4.718  0.0968 -0.0917  0.2264
  931MOL0     C25614   0.376   6.055   4.674  0.1311 -0.1047  0.2929
  931MOL0     C25615   0.331   5.946   4.650 -0.1262 -0.4217  0.0549
  931MOL0     C25616   0.666   6.272   4.207  1.4263  1.0962 -0.1158
  931MOL0     C25617   0.763   6.295   4.110 -0.0865 -0.1499  0.8791
  931MOL0     H25618   0.982   6.626   3.832 -2.6044 -4.0479  1.0978
  931MOL0     H25619   1.166   6.709   3.682  0.3858 -0.1282  0.0341
  931MOL0     H25620   1.380   6.581   3.408  1.4463  3.1845 -1.6269
  931MOL0     H25621   1.238   6.663   3.467  0.3158 -0.6566  0.5117
  931MOL0     H25622   1.405   6.821   3.376  0.0966  0.0196 -0.2664
  931MOL0     H25623   1.363   6.857   3.532  0.0117  0.3501 -1.3558
  931MOL0     H25624   1.604   6.874   3.524  3.3766 -1.3713  1.7449
  931MOL0     H25625   1.560   6.723   3.614 -5.5461 -1.0299 -0.7749
  931MOL0     H25626   1.718   6.631   3.477 -0.7741  1.9652  0.6229
  931MOL0     H25627   1.579   6.599   3.379  1.3026 -0.9606 -1.9272
  931MOL0     H25628   1.778   6.830   3.370  1.1874 -1.5018  1.3774
  931MOL0     H25629   1.788   6.696   3.267  0.9552  0.0411  1.7524
  931MOL0     H25630   1.561   6.762   3.163  0.4279 -0.6492  0.8044
  931MOL0     H25631   1.572   6.903   3.255  0.0119 -1.5164  3.0417
  931MOL0     H25632   1.766   6.807   3.026 -0.1562  0.2862  0.4555
  931MOL0     H25633   1.642   6.918   3.005 -1.5436 -2.2038 -0.3665
  931MOL0     H25634   1.833   7.053   3.010  3.1338 -0.6133  0.9502
  931MOL0     H25635   1.900   6.998   3.162 -0.0605 -0.8492 -0.1535
  931MOL0     H25636   1.607   7.206   3.031  3.2540  0.3400 -0.1653
  931MOL0     H25637   1.559   7.503   3.230 -2.3739  0.7529 -2.6040
  931MOL0     H25638   1.439   7.399   3.165 -0.9106  3.1132  0.2465
  931MOL0     H25639   1.496   7.423   3.463 -2.7675 -1.8006  1.1584
  931MOL0     H25640   1.366   7.339   3.384  0.3956  0.7789 -0.7833
  931MOL0     H25641   1.250   7.531   3.440  0.4843 -0.1306 -0.8727
  931MOL0     H25642   1.311   7.583   3.279  2.1694 -2.9841 -1.3473
  931MOL0     H25643   1.491   7.718   3.401  0.0963  0.4501 -0.1343
  931MOL0     H25644   1.434   7.657   3.551 -0.5405  0.6407 -0.3960
  931MOL0     H25645   1.245   7.635   3.662 -0.0204  0.2875  0.1478
  931MOL0     H25646   1.114   7.677   3.985 -1.0081 -1.1355  0.7552
  931MOL0     H25647   0.979   7.638   3.872 -0.1414 -0.2464 -0.7280
  931MOL0     H25648   1.143   7.568   3.851 -1.8165 -1.1785 -0.8538
  931MOL0     H25649   0.870   8.219   4.059  0.7019 -0.0602  1.6960
  931MOL0     H25650   0.688   8.258   4.215  1.9785 -1.5402  1.3584
  931MOL0     H25651   0.347   8.040   4.386 -2.8999 -0.6234 -2.1195
  931MOL0     H25652   0.371   7.948   4.236  1.4915 -1.0039 -0.1174
  931MOL0     H25653   0.539   7.826   4.310 -3.2751  1.5593 -2.9905
  931MOL0     H25654   0.595   7.948   4.435  0.7333 -1.6021 -0.6067
  931MOL0     H25655   0.506   7.730   4.515  0.9374 -0.1998 -0.6909
  931MOL0     H25656   0.357   7.767   4.442 -1.0422  1.5213  0.3815
  931MOL0     H25657   0.340   7.974   4.600 -0.4017 -0.2688 -0.9969
  931MOL0     H25658   0.363   7.825   4.691  1.4212 -3.3971 -3.3441
  931MOL0     H25659   0.492   8.014   4.778 -0.1879 -1.7426  1.5702
  931MOL0     H25660   0.589   7.999   4.629 -0.6341  1.1758  0.7623
  931MOL0     H25661   0.556   7.759   4.822 -0.0053  0.6440  0.9161
  931MOL0     H25662   0.660   7.788   4.685  1.9560  0.5930  0.8570
  931MOL0     H25663   0.671   7.947   4.939 -0.6585  1.1305 -1.7850
  931MOL0     H25664   0.779   7.971   4.803  1.4146 -1.8854  0.8318
  931MOL0     H25665   0.797   7.695   4.861  0.7305  0.4861 -0.6565
  931MOL0     H25666   0.783   7.789   5.025  2.4233  2.3747  1.1788
  931MOL0     H25667   0.486   7.918   4.082  1.2813 -1.6158  0.0577
  931MOL0     H25668   0.672   7.876   3.904 -3.5694 -0.3982  0.8463
  931MOL0     H25669   1.047   8.091   3.702 -3.1073 -1.9235  0.0795
  931MOL0     H25670   1.181   8.027   3.502  2.1003  1.7834  3.0100
  931MOL0     H25671   1.343   6.316   3.688  3.1002  2.9909  1.1936
  931MOL0     H25672   1.186   6.245   3.856  3.6760  1.3702  0.2203
  931MOL0     H25673   0.578   6.371   3.845 -4.7875  1.3970  1.2805
  931MOL0     H25674   0.397   6.337   4.018 -0.5558  1.6340 -0.4545
  931MOL0     H25675   0.357   6.152   4.425  0.1464  0.8531  2.2211
  931MOL0     H25676   0.532   6.129   4.396  0.4323 -0.2618  0.3979
  931MOL0     H25677   0.394   6.368   4.512  0.9600  2.3368 -0.9446
  931MOL0     H25678   0.559   6.380   4.453 -2.4026  0.9599 -1.7002
  931MOL0     H25679   0.554   6.355   4.681 -2.0465 -2.1425  2.3587
  931MOL0     H25680   0.618   6.207   4.623  0.0661  0.7027  0.7948
  931MOL0     H25681   0.345   6.250   4.726 -1.7651 -2.7415  0.4642
  931MOL0     H25682   0.496   6.171   4.807 -0.7848 -0.7225  0.7145
  931MOL0     H25683   0.300   5.849   4.615 -0.6749  0.5858 -2.4796
  931MOL0     H25684   0.703   6.247   4.306  0.4870 -2.3544 -0.5121
  931MOL0     H25685   0.862   6.281   4.152  1.5510  1.8406 -2.0187
  932MOL0     O25686   2.008  10.057  11.105  0.3040  0.1851  0.1877
  932MOL0     C25687   2.075   9.953  11.089  0.1046  0.5648  0.6007
  932MOL0     O25688   2.071   9.868  10.983 -0.1850 -0.9183 -0.0875
  932MOL0     C25689   2.018   9.892  10.855  0.0139  0.7955  0.5663
  932MOL0     C25690   2.058   9.804  10.760  0.3906  0.3385  0.1045
  932MOL0     C25691   1.993   9.798  10.635  0.3370  0.1063 -0.5082
  932MOL0     C25692   1.903   9.899  10.600 -0.0542 -0.4753 -0.0600
  932MOL0     O25693   1.842   9.914  10.478  0.3634  0.2355  0.0226
  932MOL0     C25694   1.912   9.851  10.364 -0.3868  0.6814 -0.7253
  932MOL0     C25695   1.848   9.915  10.232  0.6088 -0.5214  0.0115
  932MOL0     C25696   1.721   9.857  10.194  0.5046 -0.5039 -0.5973
  932MOL0     C25697   1.659   9.945  10.088  0.1192 -0.2384  0.1349
  932MOL0     C25698   1.700   9.926   9.943 -0.2480  0.3070 -0.2118
  932MOL0     C25699   1.616  10.020   9.860  0.1030  0.2039 -0.0799
  932MOL0     C25700   1.465   9.973   9.844 -0.7511  0.1864 -0.0004
  932MOL0     C25701   1.392  10.100   9.794 -0.1602  0.9567 -0.6809
  932MOL0     N25702   1.451  10.157   9.675 -0.2979  0.1419  0.5394
  932MOL0     C25703   1.551  10.247   9.653  0.6709  0.2796  0.4958
  932MOL0     C25704   1.567  10.261   9.520 -0.1886 -0.0427  0.6042
  932MOL0     C25705   1.667  10.351   9.445  0.5407  0.0379 -0.2426
  932MOL0     C25706   1.814  10.325   9.479  0.4004 -0.0236  1.1010
  932MOL0     C25707   1.850  10.172   9.461  0.6543 -0.5864  0.2431
  932MOL0     C25708   1.980  10.139   9.530 -0.0866  0.3680 -0.1311
  932MOL0     O25709   2.015  10.002   9.508  0.2013 -0.4284 -0.1304
  932MOL0     C25710   2.009   9.915   9.616  0.6391  0.1207  0.3651
  932MOL0     C25711   2.092   9.929   9.725 -0.3665  0.3131  0.4165
  932MOL0     C25712   2.087   9.837   9.836  0.6577 -0.0944 -0.0221
  932MOL0     C25713   2.192   9.860   9.944 -0.1675 -0.4726  0.1850
  932MOL0     C25714   1.984   9.735   9.835  0.7491 -1.0678 -0.5764
  932MOL0     C25715   1.954   9.641   9.950  0.0250  0.7217  0.6261
  932MOL0     O25716   2.017   9.655  10.064 -0.7962 -0.0192  0.1583
  932MOL0     C25717   2.010   9.567  10.175  0.3865  0.6650 -0.3827
  932MOL0     C25718   1.918   9.461  10.210 -0.0437 -1.2047  0.4698
  932MOL0     C25719   1.944   9.381  10.325 -0.1351  0.0066  1.0138
  932MOL0     C25720   2.044   9.422  10.418  0.0961  0.2202 -0.2654
  932MOL0     O25721   2.081   9.346  10.522  0.1620 -0.4642 -0.6503
  932MOL0     C25722   1.977   9.280  10.600  0.1756  0.1506 -0.3038
  932MOL0     C25723   2.028   9.262  10.747 -0.0491  0.2104 -0.2428
  932MOL0     C25724   2.020   9.397  10.805 -1.1448 -0.2334  0.3459
  932MOL0     C25725   2.047   9.384  10.958  0.0210  0.6337 -0.4206
  932MOL0     C25726   1.936   9.311  11.036 -0.2836 -0.1003  0.0330
  932MOL0     C25727   1.952   9.326  11.189  0.3804 -0.8120  0.5226
  932MOL0     C25728   1.837   9.249  11.275 -0.0354  0.1725  0.0041
  932MOL0     C25729   1.701   9.308  11.246  0.2375  0.6091  0.2602
  932MOL0    Cl25730   1.594   9.262  11.379 -0.4844  0.3805  0.2733
  932MOL0     C25731   2.143   9.525  10.383 -0.1052  0.8674 -0.0081
  932MOL0     C25732   2.109   9.596  10.266 -0.4431  0.1318 -0.3206
  932MOL0     O25733   1.882   9.550   9.918  0.6594  0.7908  0.8583
  932MOL0     C25734   1.907   9.729   9.725 -0.0618  0.1125  0.4768
  932MOL0     C25735   1.904   9.817   9.617 -0.4878  0.3741 -0.5333
  932MOL0     N25736   1.470  10.179   9.467 -0.1880  0.0234 -0.1605
  932MOL0     N25737   1.397  10.120   9.554  0.6564  0.0755  0.0278
  932MOL0     C25738   1.862   9.989  10.698 -0.6792 -0.0847 -0.3878
  932MOL0     C25739   1.915   9.990  10.829 -0.2894 -0.8749  0.8858
  932MOL0     C25740   2.159   9.899  11.197 -0.0984 -0.4759  0.1867
  932MOL0     C25741   2.219   9.773  11.187 -0.0530  0.2053 -0.2620
  932MOL0     C25742   2.292   9.725  11.293 -0.9941 -0.2767 -0.9579
  932MOL0     C25743   2.297   9.796  11.419 -0.4327  0.6370  0.0787
  932MOL0     O25744   2.362   9.719  11.513  0.0214 -0.0768  0.5537
  932MOL0     C25745   2.453   9.793  11.603 -0.2095 -0.2369 -0.1914
  932MOL0     C25746   2.591   9.844  11.551  0.0507 -0.7280  0.3677
  932MOL0     C25747   2.682   9.719  11.538  0.3129 -0.9086 -0.1412
  932MOL0     C25748   2.819   9.739  11.599 -0.2587  0.2844 -0.0027
  932MOL0     C25749   2.829   9.736  11.745  0.3979 -0.7474 -0.8976
  932MOL0     C25750   2.836   9.726  11.867  0.2007 -0.6059  0.0178
  932MOL0     C25751   2.235   9.925  11.431 -0.5008  0.2086 -0.6050
  932MOL0     C25752   2.172   9.977  11.317  0.2397  0.7402  0.2271
  932MOL0     H25753   2.135   9.731  10.785  0.8015  0.7979  0.1827
  932MOL0     H25754   2.026   9.720  10.566  0.6744 -1.7202  1.5995
  932MOL0     H25755   2.012   9.895  10.365 -0.4943  0.9207  0.1672
  932MOL0     H25756   1.899   9.742  10.367 -3.0455  0.8152 -3.0299
  932MOL0     H25757   1.824  10.021  10.246  0.2621 -0.9921  4.1066
  932MOL0     H25758   1.917   9.903  10.148  0.6601 -0.5249  0.0536
  932MOL0     H25759   1.726   9.749  10.176  0.0226 -0.1802 -2.9140
  932MOL0     H25760   1.664   9.882  10.284  1.4988 -1.2067  0.2537
  932MOL0     H25761   1.559   9.899  10.090  2.3057 -5.7048  0.9578
  932MOL0     H25762   1.653  10.051  10.117  3.1438  0.2014 -0.5337
  932MOL0     H25763   1.807   9.948   9.946 -0.6883  2.5799  0.6361
  932MOL0     H25764   1.682   9.819   9.923 -0.1773  0.3663 -0.6066
  932MOL0     H25765   1.621  10.118   9.909  0.7294  0.0235  0.2268
  932MOL0     H25766   1.661  10.021   9.761  3.0455  3.4611  1.0466
  932MOL0     H25767   1.461   9.895   9.767  0.4874  1.2250 -1.1737
  932MOL0     H25768   1.410   9.945   9.934 -3.0425 -0.2773 -1.4648
  932MOL0     H25769   1.389  10.164   9.883  0.5600 -1.3999  1.1536
  932MOL0     H25770   1.292  10.066   9.766  0.6427 -0.5069 -1.9154
  932MOL0     H25771   1.609  10.304   9.725  0.7375  0.7442  0.0793
  932MOL0     H25772   1.661  10.317   9.341 -2.3231 -2.1789  0.5306
  932MOL0     H25773   1.653  10.458   9.461  3.3529  0.4889 -0.2176
  932MOL0     H25774   1.836  10.358   9.580 -2.8019  1.9351  1.3220
  932MOL0     H25775   1.879  10.388   9.418 -0.1944 -0.1890  0.2715
  932MOL0     H25776   1.862  10.149   9.354  1.2676  3.3743 -0.7002
  932MOL0     H25777   1.770  10.113   9.508  0.7400 -0.5781  0.3989
  932MOL0     H25778   1.950  10.149   9.635 -2.1985 -2.7741 -0.3063
  932MOL0     H25779   2.058  10.201   9.485  2.3356 -3.1957 -1.2476
  932MOL0     H25780   2.165  10.008   9.712 -1.0446  0.7001 -1.2945
  932MOL0     H25781   2.135   9.878  10.036  1.5515 -0.3362  1.2527
  932MOL0     H25782   2.249   9.767   9.950  2.0119  0.6176 -2.1245
  932MOL0     H25783   2.255   9.947   9.922  1.3678 -1.6141 -0.0863
  932MOL0     H25784   1.827   9.442  10.153 -0.1847 -2.3425  1.0398
  932MOL0     H25785   1.872   9.307  10.360  0.8562 -1.3506  0.3182
  932MOL0     H25786   1.894   9.351  10.606  1.2523  1.8732 -3.4486
  932MOL0     H25787   1.946   9.186  10.552 -1.5814  0.1012  0.8343
  932MOL0     H25788   1.972   9.183  10.798  0.7516 -0.1472  0.0996
  932MOL0     H25789   2.133   9.231  10.747 -0.1028 -0.0054  0.4987
  932MOL0     H25790   1.922   9.445  10.801 -0.2928  1.8058  1.6084
  932MOL0     H25791   2.090   9.470  10.764 -2.9727  2.7777  2.1839
  932MOL0     H25792   2.133   9.325  10.990 -1.4230 -0.7683  1.0485
  932MOL0     H25793   2.056   9.486  10.995 -1.0205  0.6825 -0.2554
  932MOL0     H25794   1.942   9.204  11.014 -0.0909 -0.7539  2.9043
  932MOL0     H25795   1.839   9.351  11.006 -1.1766 -2.1590  0.0148
  932MOL0     H25796   2.048   9.299  11.233  1.1282  0.4330 -0.2722
  932MOL0     H25797   1.953   9.432  11.215  0.9066 -1.2433  2.3722
  932MOL0     H25798   1.873   9.265  11.377  0.6635  2.7906 -0.5700
  932MOL0     H25799   1.837   9.143  11.248 -0.4970  0.7007 -2.3184
  932MOL0     H25800   1.660   9.277  11.150 -1.2882  1.4254  0.6187
  932MOL0     H25801   1.702   9.417  11.243  2.2100  0.8483  3.7952
  932MOL0     H25802   2.231   9.550  10.441  0.3370 -0.1685 -0.2039
  932MOL0     H25803   2.186   9.665  10.234  0.8753 -1.1679 -0.1031
  932MOL0     H25804   1.838   9.645   9.716  0.0210  0.0182  0.7176
  932MOL0     H25805   1.842   9.798   9.530 -1.5657  1.0479  0.0568
  932MOL0     H25806   1.776  10.048  10.670 -1.3497 -2.0385 -2.8869
  932MOL0     H25807   1.875  10.047  10.913 -2.6817 -1.3628  0.1470
  932MOL0     H25808   2.204   9.715  11.097 -0.4747  1.5632 -1.0901
  932MOL0     H25809   2.339   9.629  11.273  1.4300  1.1956 -2.9851
  932MOL0     H25810   2.388   9.871  11.643 -1.9750 -1.4838 -0.5067
  932MOL0     H25811   2.473   9.728  11.689  2.3762 -3.7133 -3.1112
  932MOL0     H25812   2.645   9.916  11.613  1.5935 -1.9319  0.4797
  932MOL0     H25813   2.579   9.891  11.453 -2.6953  0.2746  1.1024
  932MOL0     H25814   2.704   9.696  11.434  4.9392 -5.2038  1.3779
  932MOL0     H25815   2.630   9.629  11.573  2.0432 -1.1310  2.0674
  932MOL0     H25816   2.855   9.837  11.569 -1.7990  0.4855 -1.3323
  932MOL0     H25817   2.895   9.679  11.548  1.9631 -0.1417  3.4476
  932MOL0     H25818   2.847   9.707  11.972  0.5792 -0.4068  0.0178
  932MOL0     H25819   2.246   9.990  11.517  1.2587 -2.1716  1.0913
  932MOL0     H25820   2.133  10.078  11.318 -1.0691  0.3272 -1.8930
  933MOL0     O25821   3.371   7.932   7.710 -0.5889 -0.0519 -0.2138
  933MOL0     C25822   3.276   7.907   7.634  0.1888  0.6508  0.1518
  933MOL0     O25823   3.147   7.947   7.652 -0.9751 -0.0058  0.4173
  933MOL0     C25824   3.105   8.011   7.758  0.3746 -0.1141 -0.3007
  933MOL0     C25825   3.081   8.149   7.754 -0.9764 -0.0498 -0.2223
  933MOL0     C25826   3.029   8.211   7.872 -0.5005 -0.7119 -0.3674
  933MOL0     C25827   3.014   8.137   7.995  0.3497 -0.1205  0.7415
  933MOL0     O25828   2.961   8.200   8.103  0.1819 -0.7524 -0.2161
  933MOL0     C25829   3.051   8.299   8.152  0.8089 -0.7004  0.0476
  933MOL0     C25830   3.027   8.323   8.298  0.0622  0.4945 -1.0957
  933MOL0     C25831   3.079   8.216   8.396  0.3843 -0.8681  0.8347
  933MOL0     C25832   3.224   8.194   8.374 -0.2339  1.2682  0.3266
  933MOL0     C25833   3.282   8.116   8.491 -0.1017  0.6319 -0.1444
  933MOL0     C25834   3.435   8.086   8.491 -0.1182  0.1832 -0.0094
  933MOL0     C25835   3.469   7.931   8.497  1.2255 -1.0390  0.5955
  933MOL0     C25836   3.614   7.903   8.537 -0.6170  1.0164  0.4183
  933MOL0     N25837   3.614   7.759   8.563 -0.5217  0.0853  0.1025
  933MOL0     C25838   3.540   7.702   8.655  0.4288  0.4100  0.5540
  933MOL0     C25839   3.560   7.567   8.642  0.2296 -0.4170 -0.7760
  933MOL0     C25840   3.488   7.473   8.747 -0.8233 -0.4989 -0.2990
  933MOL0     C25841   3.574   7.465   8.878  1.0064  0.8475  0.6256
  933MOL0     C25842   3.524   7.381   8.996 -0.6285 -1.0835  0.1711
  933MOL0     C25843   3.376   7.377   9.000  0.0291  0.5750 -0.7408
  933MOL0     O25844   3.321   7.509   9.038 -0.7021 -0.2428  0.8147
  933MOL0     C25845   3.187   7.543   9.000 -0.7359  0.3720 -0.2751
  933MOL0     C25846   3.089   7.448   8.950 -0.2286 -0.3326  0.1171
  933MOL0     C25847   2.963   7.498   8.907  0.3287 -0.0197 -0.4963
  933MOL0     C25848   2.866   7.398   8.864 -0.7148 -0.5646 -1.0615
  933MOL0     C25849   2.927   7.636   8.934 -1.0743  0.6093 -1.5388
  933MOL0     C25850   2.795   7.695   8.921  0.4333  0.3893 -0.8679
  933MOL0     O25851   2.768   7.784   9.021  0.8257  0.2854 -0.3639
  933MOL0     C25852   2.643   7.847   9.024 -0.2448 -0.3266 -0.4140
  933MOL0     C25853   2.600   7.920   8.916 -0.0800  0.5870  0.0808
  933MOL0     C25854   2.477   7.986   8.929  1.0744  0.8513  0.3952
  933MOL0     C25855   2.401   7.985   9.045  0.6058 -0.6079 -0.4589
  933MOL0     O25856   2.280   8.036   9.065 -0.7645  0.0853 -0.6254
  933MOL0     C25857   2.269   8.184   9.065  0.2931 -0.4088  0.9112
  933MOL0     C25858   2.317   8.244   9.190  0.1925 -1.0002 -0.5703
  933MOL0     C25859   2.221   8.220   9.307 -0.3068  0.7711 -0.3562
  933MOL0     C25860   2.259   8.298   9.432  0.4910  0.3314  0.1526
  933MOL0     C25861   2.356   8.210   9.506  0.1744 -0.4506 -0.3183
  933MOL0     C25862   2.286   8.096   9.591 -0.9391  0.0981 -0.4250
  933MOL0     C25863   2.389   7.986   9.613 -0.0169  0.4994  1.0530
  933MOL0     C25864   2.336   7.866   9.688  0.6673  0.9166 -0.0707
  933MOL0    Cl25865   2.474   7.742   9.720 -0.3962  0.0601 -0.0518
  933MOL0     C25866   2.449   7.901   9.146 -0.2392  0.4511  0.0296
  933MOL0     C25867   2.566   7.834   9.135 -0.1601  0.3853 -0.0627
  933MOL0     O25868   2.713   7.648   8.848 -0.0604  0.8711  0.5212
  933MOL0     C25869   3.021   7.719   8.990 -0.5875  0.0862 -0.4720
  933MOL0     C25870   3.150   7.670   9.026  0.1798 -0.3927  0.4633
  933MOL0     N25871   3.656   7.545   8.547 -0.8012  0.6045  0.4135
  933MOL0     N25872   3.675   7.662   8.489 -0.3841  0.5953 -0.2748
  933MOL0     C25873   3.043   8.002   7.999 -0.6805 -0.5305 -0.1381
  933MOL0     C25874   3.080   7.936   7.875 -0.2023 -0.5871 -0.1002
  933MOL0     C25875   3.314   7.847   7.505  0.7014 -0.1334  0.0568
  933MOL0     C25876   3.428   7.767   7.493 -0.2156  0.1415 -0.5227
  933MOL0     C25877   3.456   7.718   7.365  0.4624  0.1451  0.2381
  933MOL0     C25878   3.376   7.739   7.248 -0.1289 -0.0142 -0.4268
  933MOL0     O25879   3.426   7.707   7.132 -0.1293  0.2007  1.2825
  933MOL0     C25880   3.335   7.693   7.019  0.0195 -0.2823  0.5416
  933MOL0     C25881   3.417   7.629   6.905  0.6390  0.1750  0.7988
  933MOL0     C25882   3.516   7.734   6.850  0.5411  0.7854 -0.8950
  933MOL0     C25883   3.614   7.676   6.746 -0.5527  0.2144  0.3038
  933MOL0     C25884   3.714   7.593   6.814 -0.5671  0.9851  0.5038
  933MOL0     C25885   3.799   7.519   6.850  0.9162 -0.4275 -0.6886
  933MOL0     C25886   3.254   7.810   7.262  0.5663  0.0717 -1.1010
  933MOL0     C25887   3.226   7.864   7.396  0.7456 -0.2190 -0.1773
  933MOL0     H25888   3.108   8.211   7.669  4.3854  0.1887  1.3300
  933MOL0     H25889   3.001   8.316   7.865 -2.1754 -1.1408 -0.5341
  933MOL0     H25890   3.153   8.261   8.142  1.0779  0.2225 -0.8008
  933MOL0     H25891   3.044   8.393   8.096  3.6121  1.1562  2.5014
  933MOL0     H25892   3.084   8.409   8.336 -3.1048  1.8823  0.9373
  933MOL0     H25893   2.921   8.331   8.324  0.5696  0.8401  1.1149
  933MOL0     H25894   3.071   8.253   8.498 -0.3415  1.3964  0.0164
  933MOL0     H25895   3.018   8.125   8.385 -0.3181 -0.2747 -0.4708
  933MOL0     H25896   3.244   8.132   8.286  3.5078  1.2078  1.0321
  933MOL0     H25897   3.271   8.289   8.344  0.0742  1.2188  0.6440
  933MOL0     H25898   3.250   8.156   8.588  1.4515  0.9858  0.2535
  933MOL0     H25899   3.227   8.021   8.500  1.5456 -0.1826  3.1814
  933MOL0     H25900   3.486   8.135   8.408  1.7906 -0.6325  0.6269
  933MOL0     H25901   3.482   8.125   8.581  2.1497  0.0884 -1.0995
  933MOL0     H25902   3.409   7.899   8.583  0.2465  2.7088  1.4899
  933MOL0     H25903   3.443   7.877   8.406  0.6806  0.3291 -0.0837
  933MOL0     H25904   3.643   7.955   8.628  1.8175  0.1309  0.2152
  933MOL0     H25905   3.684   7.939   8.461 -1.0677 -0.2678 -0.6577
  933MOL0     H25906   3.471   7.746   8.727 -2.4629 -0.4388 -1.5042
  933MOL0     H25907   3.384   7.505   8.760 -1.0092 -1.7924  1.9979
  933MOL0     H25908   3.477   7.377   8.696 -1.2366 -0.6349  0.0387
  933MOL0     H25909   3.606   7.556   8.928 -0.8907  0.5107  2.5654
  933MOL0     H25910   3.662   7.411   8.838 -0.2962 -0.6519 -0.3649
  933MOL0     H25911   3.565   7.440   9.079 -2.6267  3.7389 -1.8878
  933MOL0     H25912   3.569   7.281   8.990  2.6540  0.1783  1.1801
  933MOL0     H25913   3.344   7.306   9.076  1.4407 -0.9117 -1.4658
  933MOL0     H25914   3.339   7.340   8.904  1.1642  1.8861 -1.7312
  933MOL0     H25915   3.128   7.348   8.960  3.9625  1.3320  5.1348
  933MOL0     H25916   2.783   7.400   8.936 -2.3812 -0.7886 -2.8708
  933MOL0     H25917   2.830   7.426   8.764  1.4320  1.0473 -1.4564
  933MOL0     H25918   2.902   7.296   8.849 -2.0704 -0.8749 -2.5083
  933MOL0     H25919   2.670   7.926   8.833 -0.9446  1.3074 -0.6298
  933MOL0     H25920   2.431   8.048   8.853  0.2222  2.7167  2.3265
  933MOL0     H25921   2.323   8.234   8.985  1.9499  0.9873  2.8064
  933MOL0     H25922   2.165   8.205   9.040  0.3116  1.1936  2.0819
  933MOL0     H25923   2.423   8.223   9.206  0.5088  1.5120  1.0254
  933MOL0     H25924   2.303   8.351   9.173 -3.5690 -1.1764  0.4264
  933MOL0     H25925   2.223   8.114   9.336 -1.4058  1.0336  0.7577
  933MOL0     H25926   2.118   8.245   9.282 -2.3122 -4.8425  0.8579
  933MOL0     H25927   2.318   8.389   9.419  5.7545 -2.4949  1.1135
  933MOL0     H25928   2.172   8.308   9.496  2.0436  2.0970  2.1209
  933MOL0     H25929   2.406   8.277   9.578  0.6406  1.7189 -2.5332
  933MOL0     H25930   2.432   8.170   9.439  0.1275 -1.7146  0.3510
  933MOL0     H25931   2.265   8.138   9.690  1.4880 -0.5386  0.4143
  933MOL0     H25932   2.195   8.063   9.540 -0.4224 -1.2022 -0.5343
  933MOL0     H25933   2.467   8.034   9.672  1.1775  1.9450 -1.5085
  933MOL0     H25934   2.435   7.956   9.518 -0.1025  0.6030  0.9780
  933MOL0     H25935   2.262   7.819   9.623 -2.8525  2.7675  2.3340
  933MOL0     H25936   2.295   7.912   9.778 -1.2459 -1.7562  0.5394
  933MOL0     H25937   2.391   7.900   9.237  2.8961  0.0528  2.2046
  933MOL0     H25938   2.602   7.778   9.221  0.8403  1.1591  0.0350
  933MOL0     H25939   2.988   7.821   9.009 -0.4227  0.5935 -2.6492
  933MOL0     H25940   3.227   7.728   9.075  0.2053 -0.4130  0.4468
  933MOL0     H25941   3.052   7.940   8.088 -1.5057 -0.7490 -0.2017
  933MOL0     H25942   3.103   7.831   7.857 -0.4560 -1.1608  2.5350
  933MOL0     H25943   3.489   7.757   7.582 -2.0619  1.9461  1.0499
  933MOL0     H25944   3.548   7.661   7.361  2.0109  2.4991 -0.1801
  933MOL0     H25945   3.254   7.628   7.052 -0.5279 -0.2285 -0.6577
  933MOL0     H25946   3.297   7.786   6.977  0.3183 -0.1676  0.5256
  933MOL0     H25947   3.350   7.607   6.822  3.3639 -1.2446 -1.1309
  933MOL0     H25948   3.463   7.541   6.949  3.2502  0.6286 -0.8324
  933MOL0     H25949   3.567   7.778   6.936 -1.3161 -1.1177  1.3307
  933MOL0     H25950   3.463   7.819   6.805 -0.2537  1.8697  1.8883
  933MOL0     H25951   3.660   7.761   6.694  2.2155 -1.6587 -0.5971
  933MOL0     H25952   3.565   7.619   6.666 -1.1160  0.0907  0.7376
  933MOL0     H25953   3.878   7.454   6.884  2.6204  2.5098  1.3851
  933MOL0     H25954   3.175   7.832   7.191 -0.5282  0.9723  0.3247
  933MOL0     H25955   3.134   7.922   7.403  2.1641  2.3208 -1.1091
  934MOL0     O25956   7.284   3.537   8.530  0.5390  0.5494  0.0460
  934MOL0     C25957   7.280   3.562   8.651  0.8473 -0.5892 -0.7941
  934MOL0     O25958   7.237   3.478   8.752 -0.2284 -0.8805  0.3519
  934MOL0     C25959   7.167   3.367   8.729  0.4369  0.1391 -0.3290
  934MOL0     C25960   7.102   3.326   8.616  0.8889  0.3011  0.3768
  934MOL0     C25961   7.025   3.203   8.611 -0.7380 -0.1474 -0.1677
  934MOL0     C25962   7.033   3.122   8.727  0.1781  0.6313  0.9186
  934MOL0     O25963   6.975   3.000   8.709  0.4601 -0.6752  0.2682
  934MOL0     C25964   6.930   2.919   8.821  0.6343 -0.3889 -0.0039
  934MOL0     C25965   6.947   2.776   8.779 -0.1642  0.6716 -0.4138
  934MOL0     C25966   6.886   2.684   8.885  1.3404 -0.3978 -0.6226
  934MOL0     C25967   6.938   2.543   8.869  0.1752 -0.8130  0.6714
  934MOL0     C25968   6.894   2.450   8.984 -0.3446  0.5591 -0.0465
  934MOL0     C25969   6.947   2.307   8.947 -0.1750 -0.2745 -0.0321
  934MOL0     C25970   6.880   2.200   9.042 -0.2145  0.3190 -0.0371
  934MOL0     C25971   6.971   2.185   9.170  1.1046 -0.0340  0.4074
  934MOL0     N25972   7.084   2.095   9.145 -1.3285  0.1304  0.0733
  934MOL0     C25973   7.060   1.964   9.113 -0.8697  1.5249  0.1723
  934MOL0     C25974   7.190   1.915   9.104  0.1583 -0.4097  0.5747
  934MOL0     C25975   7.227   1.767   9.096  0.3748 -0.2237 -0.9066
  934MOL0     C25976   7.138   1.684   9.012 -0.0705  0.4436 -0.2497
  934MOL0     C25977   7.168   1.533   9.002  0.4529 -0.0716 -0.2942
  934MOL0     C25978   7.316   1.497   8.966 -0.2672 -0.1648 -0.6779
  934MOL0     O25979   7.360   1.363   8.972  0.0365  0.3902  0.7672
  934MOL0     C25980   7.305   1.298   8.872 -0.8432  0.6007 -0.1539
  934MOL0     C25981   7.189   1.228   8.874  0.6101 -0.5509 -0.3777
  934MOL0     C25982   7.136   1.170   8.759  0.0363  0.3820  0.7109
  934MOL0     C25983   6.996   1.122   8.766 -0.6458 -0.1464 -0.3461
  934MOL0     C25984   7.221   1.162   8.644 -0.1636 -0.9003 -0.1117
  934MOL0     C25985   7.181   1.081   8.526 -0.6981  0.7268  0.4015
  934MOL0     O25986   7.228   1.137   8.404 -0.9128 -0.0305  0.1067
  934MOL0     C25987   7.198   1.062   8.294 -0.1784  0.2961  0.1281
  934MOL0     C25988   7.067   1.052   8.249  0.3979  0.2082 -0.4259
  934MOL0     C25989   7.036   0.976   8.137  0.8765  0.4217 -0.1052
  934MOL0     C25990   7.140   0.917   8.062 -0.2910  0.1193 -0.3906
  934MOL0     O25991   7.095   0.826   7.970  0.8218  0.4657 -0.4356
  934MOL0     C25992   7.186   0.724   7.923 -0.2350  0.0049 -0.1417
  934MOL0     C25993   7.113   0.637   7.807 -0.4201 -0.6977 -0.2802
  934MOL0     C25994   7.001   0.555   7.866  0.3251  1.1530 -0.4945
  934MOL0     C25995   6.971   0.436   7.763 -0.2914 -1.0727  0.1660
  934MOL0     C25996   6.889   0.333   7.836  0.1434  0.0754 -0.1419
  934MOL0     C25997   6.849   0.221   7.745  0.0578 -0.5177 -0.2949
  934MOL0     C25998   6.793   0.102   7.823  0.0850 -0.2406  0.1307
  934MOL0     C25999   6.718   0.012   7.723 -0.1639  0.7124 -1.3354
  934MOL0    Cl26000   6.827  -0.046   7.588  0.2647 -0.0444  0.0869
  934MOL0     C26001   7.273   0.930   8.101 -0.9534  0.7769 -1.2810
  934MOL0     C26002   7.297   1.008   8.217  0.8434 -0.1403  0.6519
  934MOL0     O26003   7.131   0.971   8.539  0.1965  0.5438  0.1587
  934MOL0     C26004   7.337   1.233   8.642  0.0257 -0.2462  0.6179
  934MOL0     C26005   7.378   1.313   8.747  0.0975  0.0949 -0.6759
  934MOL0     N26006   7.275   2.023   9.117 -0.3081 -0.3662 -0.1496
  934MOL0     N26007   7.214   2.137   9.133  1.3168  0.2189 -0.8454
  934MOL0     C26008   7.087   3.172   8.838 -1.1231  0.4539  0.5199
  934MOL0     C26009   7.152   3.288   8.840 -0.8145 -0.0631  0.2748
  934MOL0     C26010   7.281   3.703   8.689 -0.4406 -0.0864  0.3257
  934MOL0     C26011   7.312   3.800   8.589 -0.6122  0.1395  0.4219
  934MOL0     C26012   7.301   3.936   8.615  0.0291  0.8136  0.4946
  934MOL0     C26013   7.256   3.982   8.746  0.1938  0.3872 -0.1005
  934MOL0     O26014   7.260   4.111   8.775  0.4414  0.4299  0.4212
  934MOL0     C26015   7.250   4.156   8.910 -0.6993  0.6450  0.5381
  934MOL0     C26016   7.235   4.306   8.915  0.2342  0.5400  0.3795
  934MOL0     C26017   7.367   4.384   8.881  0.4798 -1.0935 -0.4478
  934MOL0     C26018   7.330   4.537   8.866 -0.2235  0.6512 -0.1077
  934MOL0     C26019   7.453   4.619   8.843 -0.7669 -0.4718  0.6841
  934MOL0     C26020   7.530   4.698   8.796 -0.6012 -0.0231 -0.4755
  934MOL0     C26021   7.232   3.879   8.847  1.2021 -0.6346  0.5689
  934MOL0     C26022   7.251   3.752   8.812 -0.1408 -0.5325 -0.4294
  934MOL0     H26023   7.092   3.387   8.527  1.0058  2.5363  1.8088
  934MOL0     H26024   6.970   3.180   8.521 -1.2264  2.9365 -0.7936
  934MOL0     H26025   6.986   2.954   8.908  1.5878  3.8031 -2.0463
  934MOL0     H26026   6.824   2.944   8.832  0.2520 -1.7627 -0.3142
  934MOL0     H26027   6.907   2.755   8.679  1.6529 -2.0571 -0.6828
  934MOL0     H26028   7.055   2.759   8.776 -0.1101 -0.7187  3.5327
  934MOL0     H26029   6.922   2.724   8.980 -2.6130  2.3780 -0.0239
  934MOL0     H26030   6.777   2.686   8.875  1.3842 -3.0074 -2.6204
  934MOL0     H26031   6.895   2.509   8.774 -0.8213 -0.1541  0.8756
  934MOL0     H26032   7.047   2.551   8.863 -0.0415  2.1762 -1.4616
  934MOL0     H26033   6.917   2.488   9.085 -2.6218  1.4118  0.2153
  934MOL0     H26034   6.785   2.447   8.978 -0.4776  0.6085  1.6485
  934MOL0     H26035   6.921   2.284   8.843 -1.8903  0.4516  0.2040
  934MOL0     H26036   7.057   2.302   8.948  0.0453  2.8521  0.1082
  934MOL0     H26037   6.776   2.226   9.064 -0.7000 -0.6406 -1.0692
  934MOL0     H26038   6.881   2.106   8.986  2.1818 -1.0577  2.0878
  934MOL0     H26039   6.919   2.143   9.256 -1.3190  3.4476  0.8747
  934MOL0     H26040   7.003   2.283   9.205 -0.1064  0.3544  0.4920
  934MOL0     H26041   6.969   1.906   9.119  0.6572 -0.9543  1.3402
  934MOL0     H26042   7.331   1.754   9.064  0.9812  1.8364  0.0224
  934MOL0     H26043   7.212   1.734   9.199  2.3588 -1.7824 -1.0433
  934MOL0     H26044   7.127   1.722   8.910 -3.2874 -0.7808 -0.4988
  934MOL0     H26045   7.037   1.697   9.052 -1.7530  0.8048 -4.0980
  934MOL0     H26046   7.109   1.490   8.921  0.9512  1.3619 -1.4587
  934MOL0     H26047   7.144   1.474   9.091 -4.1404  1.0904 -0.5214
  934MOL0     H26048   7.365   1.553   9.046  0.0944  1.2995 -1.8770
  934MOL0     H26049   7.339   1.550   8.873 -3.4078  0.6479 -1.0908
  934MOL0     H26050   7.132   1.240   8.965 -0.7766  0.5505 -1.3463
  934MOL0     H26051   6.982   1.014   8.775 -0.8630  0.0413  2.9101
  934MOL0     H26052   6.942   1.155   8.855 -0.6361  0.3599 -0.5271
  934MOL0     H26053   6.953   1.157   8.672 -1.9703  0.0287  0.3089
  934MOL0     H26054   6.980   1.094   8.299 -2.6872 -4.0392 -1.6002
  934MOL0     H26055   6.935   0.961   8.101  1.1310  0.6877 -0.9687
  934MOL0     H26056   7.281   0.770   7.894 -0.7497  1.5586  0.5114
  934MOL0     H26057   7.213   0.655   8.002 -1.7747  0.1286  0.5372
  934MOL0     H26058   7.072   0.710   7.737 -1.0531 -0.2058  0.5761
  934MOL0     H26059   7.188   0.569   7.764  2.0859 -1.5226  4.6397
  934MOL0     H26060   6.907   0.611   7.874 -0.4897 -0.3493  0.9357
  934MOL0     H26061   7.027   0.517   7.965  1.0038  0.8599 -0.7768
  934MOL0     H26062   6.924   0.477   7.673  1.4706 -1.5811 -1.0296
  934MOL0     H26063   7.066   0.395   7.728 -0.8480 -1.3565 -1.0757
  934MOL0     H26064   6.792   0.369   7.872 -0.9234 -2.6716  0.0094
  934MOL0     H26065   6.941   0.285   7.918 -0.7066  2.1199  1.6869
  934MOL0     H26066   6.776   0.270   7.680  1.4301  0.0936 -1.4514
  934MOL0     H26067   6.929   0.200   7.672 -2.5827 -0.2542 -3.5213
  934MOL0     H26068   6.713   0.146   7.884 -1.5845 -4.2916  1.1360
  934MOL0     H26069   6.869   0.050   7.883 -0.6291 -0.9698  0.4119
  934MOL0     H26070   6.625   0.061   7.693  0.1150  2.3575  0.2862
  934MOL0     H26071   6.685  -0.076   7.777 -1.0173  1.7014 -0.1922
  934MOL0     H26072   7.359   0.895   8.045 -0.4291 -0.5267  0.2600
  934MOL0     H26073   7.402   1.021   8.244  1.2908 -3.2629  0.7858
  934MOL0     H26074   7.399   1.224   8.553 -0.0630 -1.9867  0.6910
  934MOL0     H26075   7.472   1.368   8.750  1.8366 -2.7143  0.9777
  934MOL0     H26076   7.097   3.113   8.929 -0.6378  0.3399  0.3974
  934MOL0     H26077   7.186   3.326   8.936 -2.6065 -0.3436  1.0604
  934MOL0     H26078   7.337   3.763   8.489  0.0323 -1.5128  1.1469
  934MOL0     H26079   7.306   4.001   8.528  1.6284 -1.2130 -1.0609
  934MOL0     H26080   7.163   4.112   8.959  0.0651 -0.2598  1.1310
  934MOL0     H26081   7.330   4.114   8.972 -0.4824  1.1034  0.5698
  934MOL0     H26082   7.208   4.336   9.016 -0.5092 -1.0704  0.6837
  934MOL0     H26083   7.154   4.346   8.853 -0.4904 -1.8161 -0.2948
  934MOL0     H26084   7.398   4.342   8.785  0.8481  0.2375 -0.9315
  934MOL0     H26085   7.438   4.369   8.962  0.9169  1.1613 -0.3467
  934MOL0     H26086   7.291   4.583   8.957 -1.3669  0.2078 -0.3590
  934MOL0     H26087   7.255   4.552   8.788 -0.6351  0.0704  0.1710
  934MOL0     H26088   7.605   4.765   8.761  0.3564 -0.9769 -0.3312
  934MOL0     H26089   7.189   3.903   8.944 -2.7224 -0.8913 -0.9418
  934MOL0     H26090   7.232   3.673   8.884 -1.1519 -1.6655 -1.8737
  935MOL0     O26091   1.178   9.242   7.509 -0.0703  0.1038 -0.3029
  935MOL0     C26092   1.163   9.364   7.491 -0.0333  0.2135 -0.1890
  935MOL0     O26093   1.145   9.451   7.589 -0.1533 -0.7649  0.2963
  935MOL0     C26094   1.074   9.399   7.704  0.2517 -0.7183  1.0473
  935MOL0     C26095   0.955   9.322   7.705 -0.3020  0.2817 -0.2097
  935MOL0     C26096   0.894   9.274   7.820 -0.0540  0.3037 -0.3087
  935MOL0     C26097   0.949   9.298   7.945 -0.0408  0.1010  0.1006
  935MOL0     O26098   0.888   9.246   8.051 -0.6000 -0.2732 -0.3613
  935MOL0     C26099   0.906   9.300   8.182  1.3138 -0.6583 -0.1064
  935MOL0     C26100   0.846   9.440   8.194 -0.5962 -0.5851  0.4655
  935MOL0     C26101   0.694   9.429   8.161 -0.1071 -0.3609  0.2281
  935MOL0     C26102   0.630   9.561   8.121  0.4959  0.1421 -0.4287
  935MOL0     C26103   0.472   9.572   8.109 -0.1336  0.1043  0.2552
  935MOL0     C26104   0.409   9.713   8.089 -1.2773 -0.0560 -0.1289
  935MOL0     C26105   0.437   9.763   7.952 -0.1898  0.1586 -0.1041
  935MOL0     C26106   0.350   9.888   7.935  0.6997  0.0899 -0.0040
  935MOL0     N26107   0.380   9.989   7.831  0.4006  0.5171 -0.1508
  935MOL0     C26108   0.311  10.023   7.721  0.2047  0.7485 -0.2600
  935MOL0     C26109   0.373  10.126   7.672 -0.2429 -0.1203 -0.8294
  935MOL0     C26110   0.344  10.210   7.549  0.9656 -0.3798  0.0809
  935MOL0     C26111   0.337  10.361   7.573  0.2034 -0.1564 -1.1672
  935MOL0     C26112   0.212  10.407   7.653  0.7089 -0.0674  0.5717
  935MOL0     C26113   0.249  10.546   7.711  0.7281 -0.0983 -0.2738
  935MOL0     O26114   0.182  10.575   7.833  0.7477 -0.0240 -0.0920
  935MOL0     C26115   0.224  10.518   7.953  0.9034 -0.2704  0.5713
  935MOL0     C26116   0.140  10.516   8.069 -1.1505 -0.4536  0.0989
  935MOL0     C26117   0.165  10.448   8.188  0.1561 -0.1798 -1.1814
  935MOL0     C26118   0.063  10.464   8.301 -1.0109 -0.1314 -0.0525
  935MOL0     C26119   0.280  10.364   8.189 -0.0106 -0.3491 -0.1651
  935MOL0     C26120   0.314  10.269   8.295  0.5699 -0.5427  0.0501
  935MOL0     O26121   0.318  10.320   8.425  0.2053  0.5875  0.5465
  935MOL0     C26122   0.413  10.270   8.510  0.8985  0.2829  0.6530
  935MOL0     C26123   0.379  10.187   8.615  1.1566  0.1658 -0.4128
  935MOL0     C26124   0.475  10.152   8.713  0.5635  0.5815  0.0575
  935MOL0     C26125   0.611  10.184   8.693  0.1315 -0.4999  1.3333
  935MOL0     O26126   0.706  10.141   8.779  0.0920  0.3079 -0.5428
  935MOL0     C26127   0.815  10.232   8.816 -0.3352  0.3111 -0.3452
  935MOL0     C26128   0.904  10.179   8.936  0.0534 -0.5217  0.3545
  935MOL0     C26129   1.001  10.281   9.005  0.3435  0.2849  0.0291
  935MOL0     C26130   0.942  10.400   9.087 -0.2619  0.3758 -0.2574
  935MOL0     C26131   1.041  10.496   9.156  0.2509 -0.2242 -0.1751
  935MOL0     C26132   1.165  10.433   9.243  0.4196 -0.3108 -0.1438
  935MOL0     C26133   1.231  10.538   9.341 -0.4413 -0.3967 -0.3833
  935MOL0     C26134   1.369  10.492   9.382 -0.7925 -0.4167  0.2558
  935MOL0    Cl26135   1.412  10.598   9.532 -0.5532  0.1007 -0.2384
  935MOL0     C26136   0.646  10.257   8.578  0.2960 -0.1798  1.1090
  935MOL0     C26137   0.548  10.294   8.489  0.6694  0.5597 -0.4599
  935MOL0     O26138   0.354  10.158   8.258 -0.3997 -0.1253  0.3704
  935MOL0     C26139   0.374  10.370   8.082  0.1972 -0.2254  0.1815
  935MOL0     C26140   0.343  10.447   7.963  0.5723  0.5123 -0.0788
  935MOL0     N26141   0.484  10.158   7.741 -0.5939  0.8675 -0.0138
  935MOL0     N26142   0.483  10.077   7.841  0.8828 -0.0391 -0.5814
  935MOL0     C26143   1.070   9.370   7.947 -0.3419  0.0143  0.3148
  935MOL0     C26144   1.133   9.414   7.821 -0.1508 -1.1221 -1.1262
  935MOL0     C26145   1.178   9.414   7.348 -0.0642  0.8474 -0.0820
  935MOL0     C26146   1.172   9.328   7.230 -0.8459 -0.1924 -0.3668
  935MOL0     C26147   1.208   9.379   7.108  0.4391 -0.9939 -0.0862
  935MOL0     C26148   1.257   9.517   7.102 -0.5470  0.1227 -0.6035
  935MOL0     O26149   1.309   9.549   6.977 -0.1222  0.3174  0.0756
  935MOL0     C26150   1.442   9.519   6.954 -0.4603 -0.2343  0.4618
  935MOL0     C26151   1.465   9.512   6.801  0.2735  0.2660  0.2683
  935MOL0     C26152   1.403   9.377   6.742 -0.1729 -0.2149 -0.2983
  935MOL0     C26153   1.502   9.265   6.746  0.3558 -0.0696 -0.1332
  935MOL0     C26154   1.603   9.273   6.635  0.5245  0.8091 -0.1240
  935MOL0     C26155   1.680   9.272   6.537  0.1220 -0.0026 -0.2366
  935MOL0     C26156   1.251   9.602   7.210 -0.1195  0.4815 -0.0729
  935MOL0     C26157   1.213   9.548   7.332 -1.3579  0.2155  0.5956
  935MOL0     H26158   0.916   9.287   7.610 -1.2996 -1.7816  0.9028
  935MOL0     H26159   0.808   9.212   7.798  0.6839  0.0724 -2.7831
  935MOL0     H26160   0.851   9.235   8.251 -0.0386  1.0630  0.4876
  935MOL0     H26161   1.014   9.298   8.200  1.7271 -0.4493 -2.2839
  935MOL0     H26162   0.865   9.496   8.287 -2.9558  1.7690 -0.3627
  935MOL0     H26163   0.890   9.498   8.112 -0.9479  2.2654  2.1617
  935MOL0     H26164   0.677   9.362   8.076  3.1412  1.1010 -1.7702
  935MOL0     H26165   0.639   9.388   8.246  0.6896  1.7229  1.8330
  935MOL0     H26166   0.656   9.631   8.201 -0.8030 -1.1330  1.1732
  935MOL0     H26167   0.670   9.592   8.024 -0.1567 -2.5443 -1.6326
  935MOL0     H26168   0.440   9.514   8.021 -1.9212  0.0624  0.8768
  935MOL0     H26169   0.422   9.524   8.194 -0.2594 -1.9417 -0.9058
  935MOL0     H26170   0.302   9.690   8.093 -1.5641  0.6910 -2.2203
  935MOL0     H26171   0.436   9.773   8.177 -1.5250  0.7760 -0.6068
  935MOL0     H26172   0.541   9.790   7.930 -0.8566  2.0986 -1.1055
  935MOL0     H26173   0.400   9.697   7.873  1.3328 -0.9195  0.0437
  935MOL0     H26174   0.385   9.939   8.025 -1.8890 -0.1071  1.1934
  935MOL0     H26175   0.242   9.871   7.939  0.4080  1.8388  0.4718
  935MOL0     H26176   0.221   9.985   7.673 -0.3190  4.2737 -2.4565
  935MOL0     H26177   0.430  10.207   7.481  1.0610  1.3816  0.0972
  935MOL0     H26178   0.255  10.175   7.496 -1.8332  2.5659  2.4527
  935MOL0     H26179   0.366  10.421   7.487 -0.4688 -1.2479 -2.1959
  935MOL0     H26180   0.420  10.375   7.643 -0.4269 -0.8789 -0.2442
  935MOL0     H26181   0.194  10.338   7.736  5.0224 -2.1054  0.1186
  935MOL0     H26182   0.129  10.415   7.582  0.4294  2.3041  1.0668
  935MOL0     H26183   0.219  10.615   7.631  1.6661 -1.0506 -1.4989
  935MOL0     H26184   0.357  10.564   7.718  1.3993 -1.9836 -3.5764
  935MOL0     H26185   0.050  10.576   8.069 -1.7963 -1.3024 -2.4993
  935MOL0     H26186  -0.005  10.548   8.281 -0.3820  0.7771  1.4388
  935MOL0     H26187   0.013  10.367   8.291 -1.7623  0.3995 -1.9730
  935MOL0     H26188   0.103  10.470   8.402 -1.5337 -0.9794  0.2127
  935MOL0     H26189   0.275  10.157   8.620  0.8661 -0.2830 -5.2238
  935MOL0     H26190   0.441  10.106   8.805 -1.5367  2.3892  0.2693
  935MOL0     H26191   0.887  10.231   8.734  1.1747 -3.3609  0.7942
  935MOL0     H26192   0.781  10.334   8.829  0.4471  0.3452  1.8705
  935MOL0     H26193   0.828  10.152   9.009  0.0091  2.0137  1.3515
  935MOL0     H26194   0.955  10.090   8.897  0.5005  0.4406 -1.4009
  935MOL0     H26195   1.078  10.330   8.944  0.4245  0.2478  0.0990
  935MOL0     H26196   1.058  10.212   9.069 -1.5482 -0.4333  1.0149
  935MOL0     H26197   0.873  10.446   9.016 -1.7075 -0.6149  0.4503
  935MOL0     H26198   0.892  10.344   9.167 -1.8281  2.5634  0.3872
  935MOL0     H26199   0.985  10.567   9.217  0.0037 -0.0923 -0.5560
  935MOL0     H26200   1.084  10.544   9.068  2.6095 -0.5299  0.7355
  935MOL0     H26201   1.128  10.344   9.296 -2.4642  1.4618  1.0609
  935MOL0     H26202   1.245  10.404   9.174 -0.6392  1.5371 -2.2541
  935MOL0     H26203   1.168  10.542   9.430  1.9393 -3.5697  1.6854
  935MOL0     H26204   1.241  10.639   9.299  1.8219 -0.5300 -0.2760
  935MOL0     H26205   1.449  10.508   9.309 -0.1300  1.0378  1.2562
  935MOL0     H26206   1.366  10.390   9.422  1.4214 -0.5782  0.1558
  935MOL0     H26207   0.752  10.267   8.558  0.4633  0.9871  2.4646
  935MOL0     H26208   0.568  10.349   8.398 -0.8581  0.5810 -0.8052
  935MOL0     H26209   0.474  10.329   8.095  0.8338  1.9021  2.9191
  935MOL0     H26210   0.413  10.434   7.881 -3.3273 -3.6473 -3.2673
  935MOL0     H26211   1.136   9.394   8.030  0.3982  0.0771 -0.2788
  935MOL0     H26212   1.224   9.472   7.812 -0.4450 -0.6500 -1.0568
  935MOL0     H26213   1.137   9.226   7.242 -1.9389  0.0012 -1.6992
  935MOL0     H26214   1.211   9.323   7.015  0.7422 -0.0782 -0.6390
  935MOL0     H26215   1.502   9.590   7.012 -0.5052  0.9873 -0.9158
  935MOL0     H26216   1.472   9.424   6.999  0.5543 -0.3100 -0.3502
  935MOL0     H26217   1.572   9.527   6.783 -0.5081  2.2694 -3.8025
  935MOL0     H26218   1.410   9.593   6.753  0.2947  1.1616  1.6992
  935MOL0     H26219   1.357   9.373   6.642  0.4215 -1.5649 -0.5346
  935MOL0     H26220   1.313   9.352   6.798 -0.9812 -0.3369 -1.6021
  935MOL0     H26221   1.445   9.171   6.744  1.0230 -0.4701 -0.8083
  935MOL0     H26222   1.551   9.280   6.843 -2.1752  2.2754  0.9293
  935MOL0     H26223   1.753   9.274   6.458 -0.9153  0.5442 -1.2149
  935MOL0     H26224   1.270   9.707   7.186  0.9831  0.8977  2.2864
  935MOL0     H26225   1.229   9.619   7.413  2.4729  0.0558  0.1579
  936MOL0     O26226   1.481   6.501   4.677 -0.8791  0.2147  0.2247
  936MOL0     C26227   1.378   6.543   4.727 -0.2631 -0.7486  0.0046
  936MOL0     O26228   1.250   6.502   4.698  0.1320  0.3038 -0.0888
  936MOL0     C26229   1.215   6.386   4.630 -0.0160  0.7746  0.5977
  936MOL0     C26230   1.300   6.295   4.557  0.1629 -0.2234  0.3175
  936MOL0     C26231   1.244   6.181   4.483 -0.4565 -0.6081  0.4216
  936MOL0     C26232   1.104   6.165   4.478  0.8902  0.5602 -1.9331
  936MOL0     O26233   1.041   6.066   4.405 -0.5199 -0.2191 -0.4459
  936MOL0     C26234   1.115   5.996   4.305  0.7298  0.3543 -0.9878
  936MOL0     C26235   1.017   5.906   4.228 -0.0119  0.7262 -0.6629
  936MOL0     C26236   0.921   5.989   4.146  0.9504 -0.3581  0.5247
  936MOL0     C26237   0.862   5.912   4.033  0.3277  0.0882  0.1573
  936MOL0     C26238   0.743   5.971   3.962 -0.0563  0.4615  0.2427
  936MOL0     C26239   0.659   5.878   3.882  0.4158  1.0581  0.2734
  936MOL0     C26240   0.723   5.837   3.746  0.4237  0.1783 -0.0665
  936MOL0     C26241   0.620   5.764   3.655  0.1122  0.2343 -0.4701
  936MOL0     N26242   0.684   5.719   3.532  0.4061  0.4504  0.3348
  936MOL0     C26243   0.772   5.803   3.459  0.3422 -0.0791  0.4935
  936MOL0     C26244   0.809   5.718   3.356 -0.0131  0.2285 -0.1109
  936MOL0     C26245   0.900   5.759   3.242  0.1648 -0.1577 -0.0444
  936MOL0     C26246   1.025   5.847   3.279 -0.2489 -0.2334 -0.0263
  936MOL0     C26247   1.165   5.782   3.313 -0.2569  0.1442 -0.1443
  936MOL0     C26248   1.258   5.888   3.353 -0.1911 -0.2751 -0.4690
  936MOL0     O26249   1.311   5.943   3.228  0.9821 -0.4819  0.1066
  936MOL0     C26250   1.410   6.033   3.233  0.4012 -0.2765 -0.1867
  936MOL0     C26251   1.488   6.079   3.341 -0.8948  0.7311 -0.0667
  936MOL0     C26252   1.593   6.169   3.327 -0.3260  0.3235  1.0813
  936MOL0     C26253   1.674   6.209   3.448 -0.0870 -0.1228  1.0715
  936MOL0     C26254   1.624   6.226   3.201  1.0581  1.1892 -0.6537
  936MOL0     C26255   1.728   6.322   3.176  1.2647 -0.7820 -1.2851
  936MOL0     O26256   1.853   6.293   3.217  0.9471 -0.1937  0.1874
  936MOL0     C26257   1.944   6.399   3.217 -0.0027 -0.1320 -0.2319
  936MOL0     C26258   1.981   6.462   3.095  0.4372  0.2754 -1.1151
  936MOL0     C26259   2.030   6.594   3.091 -0.6964 -1.2380 -0.6753
  936MOL0     C26260   2.063   6.650   3.216  0.3102  0.0052 -0.0875
  936MOL0     O26261   2.137   6.764   3.213  0.2479 -0.2300  0.6014
  936MOL0     C26262   2.282   6.731   3.203  0.1042  0.1692 -0.4855
  936MOL0     C26263   2.357   6.847   3.266  0.5560  0.6553 -0.1055
  936MOL0     C26264   2.325   6.844   3.420 -0.7433 -0.4523  0.3999
  936MOL0     C26265   2.402   6.966   3.478 -0.6393 -0.7042 -0.3496
  936MOL0     C26266   2.404   6.954   3.627 -0.3230  0.1252 -0.5666
  936MOL0     C26267   2.467   7.068   3.684 -1.6969 -0.1711  0.0046
  936MOL0     C26268   2.514   7.048   3.825  0.6993 -0.0376 -0.2097
  936MOL0     C26269   2.553   7.171   3.895 -0.4232  0.1089  0.2671
  936MOL0    Cl26270   2.631   7.120   4.056  0.5693  0.0666 -0.2009
  936MOL0     C26271   2.044   6.578   3.338  0.3059  1.1709 -0.4885
  936MOL0     C26272   1.969   6.459   3.339 -0.4841  0.5933 -0.2231
  936MOL0     O26273   1.689   6.429   3.128 -0.2598  0.2952  0.2163
  936MOL0     C26274   1.547   6.186   3.083 -0.9082  0.2933  0.3437
  936MOL0     C26275   1.439   6.097   3.105  0.2789  0.2353  0.7963
  936MOL0     N26276   0.764   5.588   3.378 -0.0153  0.4825 -0.3183
  936MOL0     N26277   0.692   5.584   3.487  0.3259  0.0941 -0.4171
  936MOL0     C26278   1.022   6.253   4.559  0.2590 -0.2552 -0.1822
  936MOL0     C26279   1.080   6.362   4.624 -0.8672  0.7666  0.2117
  936MOL0     C26280   1.398   6.664   4.815  0.1960  0.1047  0.5328
  936MOL0     C26281   1.283   6.716   4.875 -0.4491  0.3314 -0.1164
  936MOL0     C26282   1.301   6.814   4.974 -0.3355 -0.4836  1.4562
  936MOL0     C26283   1.426   6.877   5.001  0.1800 -0.0140  0.2676
  936MOL0     O26284   1.429   6.982   5.089  0.4026 -0.5915 -0.3617
  936MOL0     C26285   1.523   7.090   5.063  0.1679  0.0165 -0.4966
  936MOL0     C26286   1.489   7.215   5.139 -0.2296  0.6709  0.8371
  936MOL0     C26287   1.470   7.200   5.297 -1.3051 -0.8795 -0.3309
  936MOL0     C26288   1.462   7.330   5.385  0.7373  0.0190 -0.1750
  936MOL0     C26289   1.393   7.440   5.326 -0.0374 -0.3784  0.2742
  936MOL0     C26290   1.350   7.546   5.274 -0.3921 -0.1581  0.4161
  936MOL0     C26291   1.543   6.819   4.937 -0.1560  0.0694  0.4209
  936MOL0     C26292   1.528   6.717   4.841 -0.0170 -0.7361  0.4524
  936MOL0     H26293   1.406   6.317   4.552 -0.4022  3.4291  1.6085
  936MOL0     H26294   1.323   6.119   4.442 -0.3033 -2.7004  3.5147
  936MOL0     H26295   1.163   6.071   4.241  1.3248  1.8422  1.0893
  936MOL0     H26296   1.176   5.933   4.369 -1.4322  1.8835  2.8739
  936MOL0     H26297   1.082   5.844   4.165 -0.4898 -0.4252 -0.0441
  936MOL0     H26298   0.968   5.840   4.300  1.0888  0.0255 -0.5305
  936MOL0     H26299   0.848   6.030   4.215 -0.2300 -0.5666 -0.5524
  936MOL0     H26300   0.980   6.071   4.104  1.3357  0.2931  2.2509
  936MOL0     H26301   0.933   5.885   3.954  0.5547  1.4800 -0.1364
  936MOL0     H26302   0.831   5.821   4.087  0.8667  0.8362  1.7927
  936MOL0     H26303   0.678   6.023   4.033  2.7513  3.2655  1.0285
  936MOL0     H26304   0.783   6.050   3.898 -2.2235  0.4742 -1.1873
  936MOL0     H26305   0.643   5.791   3.946 -0.0797 -0.9663 -2.4007
  936MOL0     H26306   0.563   5.924   3.860 -0.2049 -0.4086 -0.2073
  936MOL0     H26307   0.771   5.929   3.710  1.0434 -0.2672 -0.4163
  936MOL0     H26308   0.808   5.772   3.770 -0.3086 -0.3028  1.2865
  936MOL0     H26309   0.552   5.841   3.617 -0.6058  0.5022  1.2621
  936MOL0     H26310   0.571   5.686   3.714  1.4447  0.9791  1.7652
  936MOL0     H26311   0.783   5.911   3.453 -0.8314 -0.0203 -1.3806
  936MOL0     H26312   0.941   5.670   3.194  4.1412 -0.0714  2.7357
  936MOL0     H26313   0.840   5.816   3.170  2.4018  1.2234 -0.9286
  936MOL0     H26314   1.001   5.917   3.360  3.5829  1.0537  0.2005
  936MOL0     H26315   1.058   5.904   3.192  0.2001  0.4363  0.5688
  936MOL0     H26316   1.205   5.728   3.226  1.6767 -0.6874  1.1875
  936MOL0     H26317   1.147   5.710   3.393  0.5179  3.1106  2.8737
  936MOL0     H26318   1.341   5.845   3.410  1.6727  0.6077 -2.3730
  936MOL0     H26319   1.200   5.955   3.416 -1.7731 -0.8480 -1.2722
  936MOL0     H26320   1.469   6.037   3.439 -0.4825  0.9749  0.1225
  936MOL0     H26321   1.654   6.317   3.450 -2.1460 -0.4538  3.0685
  936MOL0     H26322   1.635   6.154   3.534 -0.2231 -2.3482 -0.3440
  936MOL0     H26323   1.783   6.202   3.444 -0.2186 -2.4071  0.1836
  936MOL0     H26324   1.972   6.415   2.997 -1.4391 -1.3573 -0.2480
  936MOL0     H26325   2.060   6.647   3.002 -1.9547 -0.6475 -0.7794
  936MOL0     H26326   2.301   6.643   3.265  1.0391  1.5862  1.3339
  936MOL0     H26327   2.319   6.706   3.104 -2.0803  2.1498 -1.9186
  936MOL0     H26328   2.462   6.815   3.267  0.5170  0.4358  1.8694
  936MOL0     H26329   2.330   6.946   3.227 -0.8741  0.5834  0.6578
  936MOL0     H26330   2.352   6.751   3.471  0.9506 -0.9440 -1.2648
  936MOL0     H26331   2.216   6.849   3.417 -0.6909  1.9915  0.5799
  936MOL0     H26332   2.503   6.950   3.438  0.1542  0.7692  0.9556
  936MOL0     H26333   2.376   7.064   3.439  1.8230  0.2840  0.3167
  936MOL0     H26334   2.448   6.861   3.663 -0.4632  1.2380  2.8493
  936MOL0     H26335   2.299   6.950   3.658  0.6212 -0.7425  2.9357
  936MOL0     H26336   2.550   7.091   3.616  1.0349 -0.7100  2.9231
  936MOL0     H26337   2.389   7.145   3.677  0.6214  2.2220 -1.0998
  936MOL0     H26338   2.604   6.987   3.840 -0.4914 -1.4348  1.8555
  936MOL0     H26339   2.436   6.999   3.884  0.7444 -1.7594 -1.5067
  936MOL0     H26340   2.466   7.236   3.908 -0.9643 -0.4011 -0.7414
  936MOL0     H26341   2.638   7.201   3.833  0.5361 -4.3878 -0.9780
  936MOL0     H26342   2.067   6.633   3.428  1.5005 -0.2866  0.1427
  936MOL0     H26343   1.926   6.412   3.427  1.1108 -1.0952 -0.2699
  936MOL0     H26344   1.579   6.221   2.985  1.6934 -0.3567  0.8794
  936MOL0     H26345   1.375   6.058   3.027 -2.5567  2.8605  1.6178
  936MOL0     H26346   0.915   6.234   4.552  0.2338 -0.1358 -0.1290
  936MOL0     H26347   1.014   6.427   4.680 -1.2822  1.8646 -1.4800
  936MOL0     H26348   1.189   6.667   4.853  1.1728 -2.6467 -1.0113
  936MOL0     H26349   1.206   6.842   5.016 -1.4463  2.2082 -2.2990
  936MOL0     H26350   1.625   7.056   5.082  0.0197 -0.1578 -0.0145
  936MOL0     H26351   1.519   7.111   4.956  2.6942  1.1845 -0.4441
  936MOL0     H26352   1.403   7.258   5.088 -2.1059 -0.3108  3.0129
  936MOL0     H26353   1.563   7.295   5.137  0.2241  0.4609  4.0630
  936MOL0     H26354   1.555   7.146   5.340 -1.0958  0.3079  0.8064
  936MOL0     H26355   1.374   7.150   5.313 -0.9455 -1.6170 -0.4200
  936MOL0     H26356   1.567   7.356   5.398  0.9068  0.1828 -1.6753
  936MOL0     H26357   1.420   7.319   5.485  2.0631 -3.1289  0.1497
  936MOL0     H26358   1.322   7.629   5.213  1.9283  1.7178  1.7587
  936MOL0     H26359   1.644   6.857   4.952 -0.7411  1.9891 -0.1981
  936MOL0     H26360   1.616   6.675   4.793 -0.4309 -2.2357  0.9458
  937MOL0     O26361   2.437   7.202   0.472  1.0785  0.1563  0.3525
  937MOL0     C26362   2.345   7.117   0.474 -0.9671  0.7517 -0.1075
  937MOL0     O26363   2.341   6.998   0.534 -0.3643 -0.5806 -0.2737
  937MOL0     C26364   2.454   6.950   0.607  0.2006  0.5007  0.5042
  937MOL0     C26365   2.528   7.040   0.690 -0.2268  0.1316 -0.4301
  937MOL0     C26366   2.643   6.994   0.759  0.4449 -0.1880  0.0481
  937MOL0     C26367   2.690   6.864   0.736 -0.3517  0.3650  0.2218
  937MOL0     O26368   2.800   6.802   0.783 -0.4217 -0.3003  0.3195
  937MOL0     C26369   2.891   6.867   0.878  0.4845 -0.5813 -0.0890
  937MOL0     C26370   2.852   6.841   1.024 -0.2259 -0.0390  0.5299
  937MOL0     C26371   2.870   6.691   1.040 -0.1759 -0.0396  0.4763
  937MOL0     C26372   2.815   6.634   1.163 -0.2573 -0.9309 -0.1334
  937MOL0     C26373   2.839   6.484   1.164 -0.4307  0.0599  0.1588
  937MOL0     C26374   2.738   6.409   1.076  0.2895  1.3157  0.6026
  937MOL0     C26375   2.771   6.258   1.059 -0.7949  0.2923 -1.4366
  937MOL0     C26376   2.659   6.186   0.977  1.0003 -0.2679 -1.1235
  937MOL0     N26377   2.534   6.190   1.051 -0.5789  0.0286  0.4775
  937MOL0     C26378   2.437   6.287   1.026  0.3843 -0.1176 -0.7899
  937MOL0     C26379   2.358   6.268   1.131  0.1064  0.0912 -0.5018
  937MOL0     C26380   2.231   6.339   1.165  0.0307 -0.7092  0.7490
  937MOL0     C26381   2.201   6.340   1.315 -0.0077  0.3130 -0.0815
  937MOL0     C26382   2.303   6.427   1.384  0.2513 -0.3114 -0.0128
  937MOL0     C26383   2.227   6.500   1.495 -0.3232 -0.6048  0.1341
  937MOL0     O26384   2.172   6.395   1.590  0.7139 -0.1721  0.6585
  937MOL0     C26385   2.241   6.376   1.706  0.2055 -0.2390 -0.5046
  937MOL0     C26386   2.372   6.409   1.730 -0.3010 -0.2548 -0.1810
  937MOL0     C26387   2.431   6.404   1.858 -0.1835 -1.3956  0.2902
  937MOL0     C26388   2.573   6.442   1.870  0.4589 -0.1536 -0.2676
  937MOL0     C26389   2.351   6.358   1.968 -0.9378  0.2637  1.0174
  937MOL0     C26390   2.380   6.351   2.113  0.6028  0.0380 -0.8074
  937MOL0     O26391   2.282   6.348   2.211 -0.5327  0.2641 -1.0099
  937MOL0     C26392   2.332   6.329   2.341  0.0709  0.5399  0.1880
  937MOL0     C26393   2.384   6.440   2.413  0.1747 -0.5110 -0.0053
  937MOL0     C26394   2.446   6.439   2.535 -0.4625 -0.7321 -0.1108
  937MOL0     C26395   2.463   6.314   2.597 -0.5940  0.4363 -0.0999
  937MOL0     O26396   2.518   6.282   2.715  0.2071 -0.4934 -0.9508
  937MOL0     C26397   2.592   6.389   2.779  0.2726 -0.0235 -0.7738
  937MOL0     C26398   2.664   6.329   2.898 -0.4891 -0.3592  0.9105
  937MOL0     C26399   2.788   6.267   2.847 -0.6903  0.5449 -0.2898
  937MOL0     C26400   2.845   6.174   2.961 -0.8992 -0.2227  0.9584
  937MOL0     C26401   2.900   6.249   3.088  0.1529  0.7869 -0.3186
  937MOL0     C26402   3.041   6.310   3.065 -0.3257 -0.3144  0.0461
  937MOL0     C26403   3.090   6.354   3.203 -0.4305 -0.2133  0.0896
  937MOL0     C26404   3.226   6.416   3.198 -0.2151 -0.2783  0.0862
  937MOL0    Cl26405   3.200   6.592   3.174  0.3172 -0.5119  0.5463
  937MOL0     C26406   2.418   6.205   2.529  0.5437  0.7505  1.0765
  937MOL0     C26407   2.356   6.202   2.396 -0.4736 -0.2402  0.8434
  937MOL0     O26408   2.497   6.351   2.141 -0.2134 -0.1166  0.7351
  937MOL0     C26409   2.225   6.306   1.937  0.1334 -1.2392  0.8714
  937MOL0     C26410   2.170   6.317   1.808  1.0565  0.0976 -0.2950
  937MOL0     N26411   2.402   6.164   1.206 -0.1281 -0.1144  0.3290
  937MOL0     N26412   2.496   6.104   1.142 -0.1865  0.5591 -0.7978
  937MOL0     C26413   2.605   6.789   0.647 -1.0170 -0.2040 -0.1636
  937MOL0     C26414   2.485   6.828   0.591 -0.7689  0.0910  0.7470
  937MOL0     C26415   2.215   7.150   0.409  0.0870 -0.1495  0.2787
  937MOL0     C26416   2.170   7.282   0.406  0.6392 -0.3437  0.3287
  937MOL0     C26417   2.056   7.313   0.328  0.0326 -0.3152 -0.4047
  937MOL0     C26418   1.990   7.218   0.259 -0.3209  0.2432  0.0345
  937MOL0     O26419   1.889   7.253   0.177  0.7659  0.5885  1.0059
  937MOL0     C26420   1.790   7.164   0.121 -0.6904 -0.1982 -0.3885
  937MOL0     C26421   1.654   7.233   0.141 -0.7902  0.0179  1.1509
  937MOL0     C26422   1.551   7.177   0.047  0.2470 -0.0512  0.5161
  937MOL0     C26423   1.420   7.255   0.052  0.0201  0.2734 -0.7455
  937MOL0     C26424   1.364   7.289  -0.074 -0.2542 -0.1182 -0.1998
  937MOL0     C26425   1.298   7.315  -0.172 -0.1418  0.4042  0.3157
  937MOL0     C26426   2.030   7.083   0.280  0.6321  0.1080 -1.0428
  937MOL0     C26427   2.143   7.046   0.347 -0.2724 -0.7092 -0.4136
  937MOL0     H26428   2.493   7.140   0.714 -2.9632 -1.3220  2.2776
  937MOL0     H26429   2.703   7.052   0.829  0.5693  0.9911 -0.9990
  937MOL0     H26430   2.990   6.823   0.873  0.3116 -1.0290  0.3533
  937MOL0     H26431   2.881   6.973   0.851 -0.6188 -1.3661 -3.1511
  937MOL0     H26432   2.912   6.898   1.096  0.6424 -0.1933 -0.0677
  937MOL0     H26433   2.750   6.877   1.043  0.1762  0.3020  2.2800
  937MOL0     H26434   2.832   6.634   0.954  0.2958 -1.8130  1.4128
  937MOL0     H26435   2.977   6.681   1.058 -0.6064 -2.3901  2.1330
  937MOL0     H26436   2.866   6.690   1.242  0.6719 -1.3468 -0.4305
  937MOL0     H26437   2.708   6.660   1.167  0.3928  2.2213  0.0229
  937MOL0     H26438   2.942   6.467   1.131 -0.1769  0.6160  0.6636
  937MOL0     H26439   2.849   6.443   1.265  3.7808  4.2295  1.8153
  937MOL0     H26440   2.641   6.412   1.127  0.1205  1.8855  0.2512
  937MOL0     H26441   2.743   6.443   0.972  1.8831 -1.6061 -0.3887
  937MOL0     H26442   2.864   6.243   1.003 -1.5710  1.5443 -3.1484
  937MOL0     H26443   2.764   6.220   1.162 -0.0818  0.7450 -1.2150
  937MOL0     H26444   2.702   6.086   0.966 -1.3676 -1.9209  2.6703
  937MOL0     H26445   2.637   6.232   0.880  1.6606 -3.7437 -3.0865
  937MOL0     H26446   2.438   6.361   0.947 -0.5032 -1.0590 -1.7199
  937MOL0     H26447   2.236   6.442   1.130  0.9624 -1.5945 -1.9476
  937MOL0     H26448   2.143   6.295   1.117  0.0287  0.4528 -0.3578
  937MOL0     H26449   2.194   6.238   1.353 -4.6107 -0.9426 -3.4541
  937MOL0     H26450   2.098   6.375   1.321  0.0002  0.1277  1.6985
  937MOL0     H26451   2.362   6.503   1.332  1.6473 -2.1234 -1.2146
  937MOL0     H26452   2.376   6.366   1.437  0.9403  2.4449  2.4927
  937MOL0     H26453   2.147   6.566   1.462  0.1318  0.6680  1.4635
  937MOL0     H26454   2.299   6.565   1.545 -0.8866  0.0783  0.0680
  937MOL0     H26455   2.431   6.423   1.640 -0.2131 -2.0162 -0.4246
  937MOL0     H26456   2.641   6.359   1.892  3.3002  1.9426 -0.6434
  937MOL0     H26457   2.589   6.491   1.774 -2.6504  1.1494 -0.2171
  937MOL0     H26458   2.573   6.518   1.948  2.7898  0.2175 -0.5607
  937MOL0     H26459   2.370   6.540   2.374  1.0111  0.6970  2.5409
  937MOL0     H26460   2.470   6.529   2.591  0.2473 -1.3855  0.6627
  937MOL0     H26461   2.658   6.429   2.702  0.4429 -0.2839 -0.7664
  937MOL0     H26462   2.524   6.468   2.811  2.4713  1.0353  1.6935
  937MOL0     H26463   2.696   6.415   2.958 -0.4643  1.2141 -1.2723
  937MOL0     H26464   2.599   6.263   2.957 -0.5145 -0.7026  0.5031
  937MOL0     H26465   2.853   6.350   2.817 -0.3266  0.4978  0.3442
  937MOL0     H26466   2.774   6.211   2.754 -3.8285 -3.3885  2.2093
  937MOL0     H26467   2.761   6.112   2.991 -1.6794  0.9657  1.2881
  937MOL0     H26468   2.924   6.115   2.914 -0.1638 -0.4005  2.3686
  937MOL0     H26469   2.898   6.175   3.169 -0.1780  1.7943  0.6277
  937MOL0     H26470   2.830   6.327   3.120  1.8945  2.8205 -1.2516
  937MOL0     H26471   3.111   6.238   3.022  1.6020  0.2986  2.0195
  937MOL0     H26472   3.042   6.396   2.998 -2.3148  0.7765  1.3097
  937MOL0     H26473   3.087   6.264   3.266  0.6723  0.6463  1.4149
  937MOL0     H26474   3.025   6.433   3.243 -1.8705 -1.7096  0.8305
  937MOL0     H26475   3.290   6.375   3.119  1.5572 -1.3274  1.9584
  937MOL0     H26476   3.275   6.392   3.293 -0.3595  2.2122  0.8327
  937MOL0     H26477   2.423   6.106   2.574 -0.3212  0.3954  0.4174
  937MOL0     H26478   2.330   6.112   2.342  1.6048  0.7101 -1.9766
  937MOL0     H26479   2.157   6.274   2.015 -1.6043  2.4784  1.1208
  937MOL0     H26480   2.069   6.279   1.799  0.8163  0.9589 -1.3966
  937MOL0     H26481   2.634   6.689   0.613  1.7513  0.3029  0.4143
  937MOL0     H26482   2.429   6.767   0.521  0.6312  0.1855 -0.5309
  937MOL0     H26483   2.227   7.361   0.452  3.2977 -0.1017 -3.0178
  937MOL0     H26484   2.032   7.419   0.320 -3.2956 -1.1056 -3.5208
  937MOL0     H26485   1.801   7.151   0.013 -1.2052 -0.7903 -0.3741
  937MOL0     H26486   1.805   7.063   0.160 -0.4309 -0.1927 -0.4725
  937MOL0     H26487   1.657   7.337   0.108 -2.7424 -0.4053 -0.5710
  937MOL0     H26488   1.629   7.243   0.246  1.7368  1.5614  1.6899
  937MOL0     H26489   1.539   7.071   0.072 -3.1419 -1.0228 -3.8966
  937MOL0     H26490   1.581   7.179  -0.058 -1.9497  2.6277 -0.1758
  937MOL0     H26491   1.428   7.343   0.116 -1.0124 -1.2429  1.6134
  937MOL0     H26492   1.340   7.192   0.093  0.6991 -0.8022 -1.0576
  937MOL0     H26493   1.250   7.351  -0.261 -0.2058 -2.7358 -1.0396
  937MOL0     H26494   1.990   6.995   0.231  0.4418  0.9633 -2.4773
  937MOL0     H26495   2.176   6.942   0.350 -1.5060 -1.1047  2.3496
  938MOL0     O26496   5.579  10.035   1.246 -0.7347  0.3858 -0.5587
  938MOL0     C26497   5.633  10.143   1.213  0.4230  0.5448  0.6109
  938MOL0     O26498   5.745  10.199   1.265  0.6514 -0.3416  0.1180
  938MOL0     C26499   5.808  10.140   1.379  0.1514  0.4370  0.1849
  938MOL0     C26500   5.861  10.218   1.489 -0.0010 -0.0950 -0.6612
  938MOL0     C26501   5.940  10.157   1.587  0.1964  0.3168  0.8836
  938MOL0     C26502   5.974  10.017   1.569  0.1994 -0.2826 -0.7020
  938MOL0     O26503   6.069   9.956   1.652 -0.1520  0.9970 -0.2155
  938MOL0     C26504   6.191   9.904   1.590  0.3394 -0.3691  0.3616
  938MOL0     C26505   6.290   9.868   1.702 -0.7540 -0.5032 -0.3389
  938MOL0     C26506   6.396   9.766   1.661 -0.2312  0.0671  0.2973
  938MOL0     C26507   6.506   9.826   1.567  0.5117  0.4025 -0.0932
  938MOL0     C26508   6.580   9.720   1.482  0.2108 -0.5652 -0.0539
  938MOL0     C26509   6.676   9.780   1.384 -0.7854  0.2496 -0.2829
  938MOL0     C26510   6.764   9.664   1.321 -0.0748  1.0065  0.0557
  938MOL0     C26511   6.703   9.604   1.194 -0.6051  0.4568 -0.8377
  938MOL0     N26512   6.672   9.696   1.093 -0.9641  0.2451  0.4444
  938MOL0     C26513   6.554   9.764   1.080 -0.6686  0.3436  0.7286
  938MOL0     C26514   6.572   9.851   0.972 -0.0842  1.0717 -0.1428
  938MOL0     C26515   6.465   9.954   0.926 -0.1885 -0.2198 -0.0287
  938MOL0     C26516   6.456   9.963   0.772 -0.0149 -0.2085  0.1205
  938MOL0     C26517   6.343  10.062   0.726 -0.3371 -0.0079  0.0894
  938MOL0     C26518   6.336  10.098   0.573 -0.2054 -0.1346 -1.3496
  938MOL0     O26519   6.213  10.167   0.538 -0.1853  0.1230 -0.1978
  938MOL0     C26520   6.161  10.150   0.410 -0.7083  0.9279 -0.0554
  938MOL0     C26521   6.204  10.246   0.316  0.0115  0.4973 -0.1702
  938MOL0     C26522   6.161  10.245   0.183  0.1919 -0.1661  0.1273
  938MOL0     C26523   6.203  10.356   0.088 -0.5020  0.0590 -0.1231
  938MOL0     C26524   6.084  10.138   0.139 -0.7981  0.9041 -0.1259
  938MOL0     C26525   6.031  10.116   0.001  0.1005  0.8098  0.5380
  938MOL0     O26526   6.009   9.990  -0.048 -0.3536  0.2302 -0.5806
  938MOL0     C26527   5.946   9.973  -0.164 -0.0853  0.7098  0.3910
  938MOL0     C26528   5.810   9.974  -0.173 -0.7947 -0.1146 -0.1415
  938MOL0     C26529   5.755   9.953  -0.294 -0.0799 -0.7921 -0.5312
  938MOL0     C26530   5.828   9.923  -0.406  0.6109 -0.3482  0.4397
  938MOL0     O26531   5.756   9.905  -0.524  0.4253  0.3272  0.2543
  938MOL0     C26532   5.775  10.003  -0.614 -0.3749  0.0690  0.4671
  938MOL0     C26533   5.735   9.943  -0.744  0.9682  0.4722  0.1441
  938MOL0     C26534   5.588   9.896  -0.754  0.5011 -0.5832 -0.9472
  938MOL0     C26535   5.548   9.883  -0.910 -0.7179 -0.3293  0.3411
  938MOL0     C26536   5.414   9.819  -0.930 -0.6362  0.5408 -0.8174
  938MOL0     C26537   5.406   9.805  -1.086  0.6728  1.1403 -1.0503
  938MOL0     C26538   5.287   9.713  -1.122  1.6192 -0.8691  0.0207
  938MOL0     C26539   5.157   9.778  -1.105 -0.0296 -0.0488  0.4097
  938MOL0    Cl26540   5.144   9.931  -1.178 -0.4909 -0.2220 -0.2417
  938MOL0     C26541   5.967   9.918  -0.401 -0.1707  0.4540  0.3943
  938MOL0     C26542   6.026   9.953  -0.278  0.1422 -0.8571 -0.3990
  938MOL0     O26543   5.994  10.221  -0.057  0.0076 -0.4437 -0.3030
  938MOL0     C26544   6.050  10.033   0.234  0.8620 -1.0823 -0.6273
  938MOL0     C26545   6.083  10.040   0.367 -0.3771  0.0270  0.4905
  938MOL0     N26546   6.698   9.830   0.925 -0.5638  0.0314  0.4719
  938MOL0     N26547   6.756   9.732   0.998 -0.1998 -0.5803  0.1053
  938MOL0     C26548   5.923   9.941   1.469  0.0511 -0.6885 -0.3764
  938MOL0     C26549   5.847  10.001   1.366 -0.4720 -0.0222 -0.4636
  938MOL0     C26550   5.569  10.204   1.090 -0.7337 -0.9097 -0.1162
  938MOL0     C26551   5.455  10.151   1.034  0.2600  1.0316  0.8585
  938MOL0     C26552   5.394  10.210   0.924 -0.0469 -0.0192 -0.7007
  938MOL0     C26553   5.444  10.325   0.871  0.1137 -0.7818 -0.8574
  938MOL0     O26554   5.396  10.387   0.755 -0.0177 -0.1729 -0.4028
  938MOL0     C26555   5.281  10.323   0.696  0.9313 -0.1308 -0.9834
  938MOL0     C26556   5.231  10.384   0.569  0.2989  0.2419 -0.7549
  938MOL0     C26557   5.338  10.403   0.452 -0.3466 -0.4757  0.3885
  938MOL0     C26558   5.328  10.525   0.360  0.0977  0.6740 -0.1136
  938MOL0     C26559   5.200  10.535   0.283  0.2068  0.0667 -0.0321
  938MOL0     C26560   5.094  10.519   0.233  0.4455  0.3730 -0.3986
  938MOL0     C26561   5.541  10.392   0.935  0.5696 -0.2610 -0.6230
  938MOL0     C26562   5.607  10.329   1.040 -0.9123  0.7315 -0.1102
  938MOL0     H26563   5.851  10.326   1.484  2.2399  0.2149  0.4213
  938MOL0     H26564   5.996  10.218   1.657 -1.3096 -1.2325  3.6199
  938MOL0     H26565   6.158   9.809   1.548  1.0563 -1.1072  1.4138
  938MOL0     H26566   6.251   9.968   1.525  1.0098  1.0457  2.2884
  938MOL0     H26567   6.339   9.960   1.734 -1.3481 -0.3734  0.2182
  938MOL0     H26568   6.240   9.819   1.787  1.4112 -0.5690  0.9596
  938MOL0     H26569   6.441   9.715   1.746  2.1503  4.0950  1.7017
  938MOL0     H26570   6.339   9.691   1.604 -0.9692 -0.2963  1.4926
  938MOL0     H26571   6.461   9.884   1.486 -4.3558 -0.8498  1.4184
  938MOL0     H26572   6.569   9.878   1.641  0.9672  0.1283 -0.2812
  938MOL0     H26573   6.635   9.652   1.547  0.5053  0.0039  0.2931
  938MOL0     H26574   6.496   9.667   1.435 -0.3413 -0.7460  1.1076
  938MOL0     H26575   6.633   9.859   1.323  0.4010  0.4188 -0.9295
  938MOL0     H26576   6.759   9.830   1.435 -1.3468 -1.0190  2.0412
  938MOL0     H26577   6.853   9.716   1.283 -0.1460  2.1710  1.4122
  938MOL0     H26578   6.801   9.591   1.393  0.0855  0.1368 -0.8843
  938MOL0     H26579   6.604   9.564   1.219 -0.0732  0.6658  1.9753
  938MOL0     H26580   6.759   9.518   1.156 -1.8277  0.0449 -1.8002
  938MOL0     H26581   6.467   9.764   1.144 -2.9899  3.3912 -2.1100
  938MOL0     H26582   6.370   9.911   0.959  0.3018 -1.2122  0.1302
  938MOL0     H26583   6.493  10.051   0.968  2.4285 -1.0474  0.3597
  938MOL0     H26584   6.438   9.862   0.735 -0.7368  0.5165 -1.6069
  938MOL0     H26585   6.554   9.998   0.739  0.9360 -1.4708  1.5004
  938MOL0     H26586   6.347  10.155   0.784  0.9604 -0.4827  0.8016
  938MOL0     H26587   6.240  10.029   0.742 -0.8775 -0.0306 -2.9189
  938MOL0     H26588   6.343   9.997   0.532  2.0616 -0.9056  0.6922
  938MOL0     H26589   6.430  10.146   0.546 -0.1514  0.1851 -0.6345
  938MOL0     H26590   6.273  10.325   0.347 -0.9685  1.0009  0.8003
  938MOL0     H26591   6.297  10.406   0.114 -1.2667  2.3185 -1.4224
  938MOL0     H26592   6.218  10.318  -0.014  0.2751 -4.1908  1.3321
  938MOL0     H26593   6.130  10.437   0.094 -0.7399 -0.2811  4.1631
  938MOL0     H26594   5.744   9.984  -0.088  1.6115  1.5452  1.6504
  938MOL0     H26595   5.650   9.968  -0.315 -0.3288 -2.1903 -0.3777
  938MOL0     H26596   5.729  10.097  -0.584 -0.0211  0.7381 -0.9937
  938MOL0     H26597   5.884  10.008  -0.614 -0.2234 -1.2271  3.2647
  938MOL0     H26598   5.752  10.015  -0.824 -1.8060 -2.1654 -3.1132
  938MOL0     H26599   5.809   9.864  -0.762 -2.0479 -2.3816 -0.7581
  938MOL0     H26600   5.515   9.961  -0.706 -2.4491 -1.6229 -3.6622
  938MOL0     H26601   5.592   9.794  -0.713  2.3247  0.2090  1.0345
  938MOL0     H26602   5.562   9.982  -0.956  1.4003 -0.1509  1.2487
  938MOL0     H26603   5.632   9.830  -0.956  0.7175  2.2428 -0.2148
  938MOL0     H26604   5.340   9.892  -0.896 -0.9928  0.8589 -2.2058
  938MOL0     H26605   5.401   9.724  -0.878 -2.8782  0.2918 -1.6978
  938MOL0     H26606   5.395   9.907  -1.122 -3.7735  1.2996  0.0969
  938MOL0     H26607   5.491   9.763  -1.141  2.3120  4.3820 -1.2084
  938MOL0     H26608   5.294   9.625  -1.058  1.7521  0.3241  1.7109
  938MOL0     H26609   5.296   9.684  -1.227 -2.0825 -1.2246 -0.3225
  938MOL0     H26610   5.137   9.783  -0.997 -2.0673 -0.9133  0.1145
  938MOL0     H26611   5.078   9.715  -1.147 -4.4622  3.0641  3.1820
  938MOL0     H26612   6.021   9.902  -0.493 -0.9253 -0.8357  0.1521
  938MOL0     H26613   6.133   9.958  -0.259  0.2514  1.4090 -1.2725
  938MOL0     H26614   6.011   9.947   0.180 -1.6923  0.8114 -2.0407
  938MOL0     H26615   6.030   9.969   0.429  0.0313 -1.4728 -0.8317
  938MOL0     H26616   5.941   9.834   1.466 -0.2396 -0.7183 -1.4690
  938MOL0     H26617   5.813   9.933   1.288 -2.0712 -2.6295  2.2730
  938MOL0     H26618   5.397  10.072   1.082 -1.4395  2.0104  0.4844
  938MOL0     H26619   5.300  10.168   0.889 -1.5161 -0.6720  3.4498
  938MOL0     H26620   5.310  10.220   0.675  0.5978 -0.7476  1.2540
  938MOL0     H26621   5.194  10.317   0.763  1.6882  3.6851  0.6128
  938MOL0     H26622   5.177  10.478   0.580  1.3275  0.8609 -0.8573
  938MOL0     H26623   5.155  10.317   0.528  0.5440  0.0500 -0.8936
  938MOL0     H26624   5.331  10.313   0.390 -1.0405 -0.1971  0.0402
  938MOL0     H26625   5.438  10.415   0.495  0.0808 -0.1338 -0.6835
  938MOL0     H26626   5.406  10.527   0.283 -1.0697  3.6624 -1.3687
  938MOL0     H26627   5.346  10.617   0.417 -2.4935  1.8556 -1.0289
  938MOL0     H26628   4.993  10.499   0.201 -0.1790  1.3180  0.9009
  938MOL0     H26629   5.573  10.480   0.880 -0.7426 -0.5563 -1.9497
  938MOL0     H26630   5.689  10.387   1.081 -1.0339  0.0781  1.1289
  939MOL0     O26631   0.582   4.195   7.931 -0.2141  0.4508  0.1004
  939MOL0     C26632   0.565   4.240   7.822 -0.5050  1.2490  0.3848
  939MOL0     O26633   0.653   4.229   7.719  0.4698  0.4929 -0.6783
  939MOL0     C26634   0.771   4.180   7.772  1.2794  0.7601  0.7904
  939MOL0     C26635   0.853   4.269   7.841  0.0176  0.7994 -0.5358
  939MOL0     C26636   0.977   4.221   7.896  0.4443 -0.3262 -0.9482
  939MOL0     C26637   1.014   4.090   7.883  0.2063 -0.6873 -0.6944
  939MOL0     O26638   1.138   4.057   7.907 -0.1961 -0.3281 -0.2188
  939MOL0     C26639   1.178   4.039   8.041 -0.0275  0.8075  1.4596
  939MOL0     C26640   1.080   3.946   8.126 -0.3436  0.1888  0.4321
  939MOL0     C26641   1.146   3.934   8.264  0.2734 -0.9676  0.2951
  939MOL0     C26642   1.064   3.824   8.346 -0.8813 -0.4775 -0.6167
  939MOL0     C26643   1.115   3.825   8.488  0.3103 -0.1586  0.4014
  939MOL0     C26644   1.043   3.925   8.575  0.7966 -0.4498  0.3400
  939MOL0     C26645   1.114   3.951   8.698  0.8648 -0.1399 -0.2713
  939MOL0     C26646   1.093   3.847   8.809  0.1594 -0.2128  0.1433
  939MOL0     N26647   1.176   3.856   8.928  0.0473 -0.0131 -0.0139
  939MOL0     C26648   1.133   3.807   9.046  0.2455  0.6355  0.2907
  939MOL0     C26649   1.243   3.817   9.127 -0.5932 -0.7722  0.1457
  939MOL0     C26650   1.239   3.777   9.271 -0.2559  0.4445 -0.6641
  939MOL0     C26651   1.189   3.899   9.357  0.0585 -0.2216 -0.0283
  939MOL0     C26652   1.301   4.000   9.361 -0.3186 -0.2130 -0.0653
  939MOL0     C26653   1.253   4.130   9.433  0.7185  0.4419 -0.7216
  939MOL0     O26654   1.218   4.106   9.569  0.0635 -0.7215 -0.4124
  939MOL0     C26655   1.193   4.225   9.639 -0.6010 -0.2698  0.5519
  939MOL0     C26656   1.126   4.336   9.594 -0.3289  0.1258  0.7127
  939MOL0     C26657   1.125   4.458   9.657 -0.7736 -1.0910  0.7524
  939MOL0     C26658   1.044   4.566   9.586 -0.0695 -0.0749 -0.7431
  939MOL0     C26659   1.192   4.476   9.784  0.4572  0.5129 -0.1596
  939MOL0     C26660   1.203   4.602   9.849  0.5160  0.3653  0.8460
  939MOL0     O26661   1.199   4.614   9.985  0.0493  0.0470  0.4832
  939MOL0     C26662   1.230   4.720  10.056 -0.5942  0.0471 -0.0570
  939MOL0     C26663   1.329   4.819  10.033  0.9402  0.8237  0.6154
  939MOL0     C26664   1.366   4.907  10.138 -0.3526  0.5700 -0.4291
  939MOL0     C26665   1.300   4.905  10.259  0.6619  1.0669  0.1950
  939MOL0     O26666   1.334   4.999  10.343 -0.2250  0.9990 -0.7240
  939MOL0     C26667   1.229   5.086  10.385 -0.3138  0.3474  0.5276
  939MOL0     C26668   1.270   5.209  10.466 -0.2356  0.5481  0.2753
  939MOL0     C26669   1.323   5.166  10.604 -0.2617 -0.4886 -0.5737
  939MOL0     C26670   1.214   5.090  10.681 -0.0818 -0.0964  0.6811
  939MOL0     C26671   1.220   5.110  10.832 -0.3981  0.7935 -0.2581
  939MOL0     C26672   1.335   5.026  10.889  1.4233 -0.6445 -0.5479
  939MOL0     C26673   1.313   5.018  11.046 -0.1857 -0.7165  0.0745
  939MOL0     C26674   1.219   4.901  11.087 -0.3000  0.4260 -0.7950
  939MOL0    Cl26675   1.268   4.845  11.241  0.2313 -0.3255  0.0137
  939MOL0     C26676   1.214   4.804  10.287  0.0190  0.6507 -0.0027
  939MOL0     C26677   1.180   4.707  10.191  0.1572  0.7958  0.8400
  939MOL0     O26678   1.209   4.695   9.770 -0.4877 -0.3898  0.3159
  939MOL0     C26679   1.248   4.361   9.834 -0.5462  0.6234 -0.0653
  939MOL0     C26680   1.248   4.240   9.764  0.4751  0.8397 -0.6222
  939MOL0     N26681   1.342   3.875   9.054 -0.6150  0.1161  0.0263
  939MOL0     N26682   1.304   3.903   8.938  0.0528  0.1779 -0.0401
  939MOL0     C26683   0.925   4.001   7.818 -0.9071 -0.4559 -0.3818
  939MOL0     C26684   0.794   4.043   7.768 -0.8272  0.4274 -0.4090
  939MOL0     C26685   0.429   4.313   7.806 -0.4429 -0.5211  0.1443
  939MOL0     C26686   0.319   4.276   7.882 -0.4965  0.5004 -0.0089
  939MOL0     C26687   0.196   4.347   7.859 -0.1547  0.0137 -0.0428
  939MOL0     C26688   0.193   4.457   7.782  0.6523 -0.6886  0.3477
  939MOL0     O26689   0.068   4.524   7.785 -0.1457 -0.9028  0.2026
  939MOL0     C26690   0.058   4.658   7.734 -0.8504 -0.5465 -0.5065
  939MOL0     C26691   0.013   4.670   7.583  0.4102 -0.0440  0.6951
  939MOL0     C26692  -0.051   4.810   7.550 -0.7582 -0.1958  0.1484
  939MOL0     C26693  -0.057   4.837   7.396  0.0448  1.0046  0.5698
  939MOL0     C26694  -0.128   4.959   7.361 -0.2960  0.5378  0.3458
  939MOL0     C26695  -0.180   5.063   7.346  1.0409  0.1443 -1.0764
  939MOL0     C26696   0.303   4.496   7.709  0.8386  0.8559 -0.0365
  939MOL0     C26697   0.426   4.416   7.715  0.4112  0.0736  0.9415
  939MOL0     H26698   0.836   4.375   7.855 -3.6726  0.7579 -3.3129
  939MOL0     H26699   1.048   4.293   7.934  0.4763 -0.7202 -0.2444
  939MOL0     H26700   1.280   4.000   8.030  0.1987  1.6931  0.1143
  939MOL0     H26701   1.193   4.138   8.085  2.4086  0.7283  0.9689
  939MOL0     H26702   0.977   3.978   8.143  0.5884  2.5622  2.0770
  939MOL0     H26703   1.076   3.850   8.073 -1.4828 -0.5839  1.8503
  939MOL0     H26704   1.246   3.892   8.249  0.6333  0.5924 -2.2367
  939MOL0     H26705   1.154   4.029   8.317 -0.0069  2.4365 -4.9857
  939MOL0     H26706   0.956   3.835   8.334 -1.0220 -2.0708 -1.0225
  939MOL0     H26707   1.100   3.727   8.309  4.0083  0.1566  1.6463
  939MOL0     H26708   1.097   3.723   8.523 -1.8932 -0.1804 -0.5778
  939MOL0     H26709   1.223   3.841   8.489  0.2224  0.7991 -1.6286
  939MOL0     H26710   1.038   4.017   8.517 -0.3488 -1.4662 -1.2806
  939MOL0     H26711   0.942   3.892   8.601 -0.5662  2.8425 -0.3338
  939MOL0     H26712   1.217   3.962   8.662  0.0922  1.4215 -2.1365
  939MOL0     H26713   1.084   4.049   8.737  0.2740  0.0028 -1.0664
  939MOL0     H26714   1.103   3.743   8.779  3.1364  0.1550 -0.4153
  939MOL0     H26715   0.991   3.865   8.844  1.0556  1.8634  1.9372
  939MOL0     H26716   1.032   3.777   9.073  0.6470 -2.2448 -0.9764
  939MOL0     H26717   1.181   3.685   9.278 -0.3506  0.5985  0.9768
  939MOL0     H26718   1.335   3.746   9.313 -1.2119 -1.2253  0.3850
  939MOL0     H26719   1.158   3.870   9.458 -1.9394  0.8264 -0.2893
  939MOL0     H26720   1.101   3.935   9.303  0.0696 -1.0430 -0.6090
  939MOL0     H26721   1.333   4.044   9.266 -1.2192  2.5576  0.8206
  939MOL0     H26722   1.386   3.951   9.409 -1.5650 -2.5295 -0.0707
  939MOL0     H26723   1.163   4.175   9.390  0.8344  0.3907 -1.0202
  939MOL0     H26724   1.332   4.206   9.432  2.5706 -1.3606  0.5094
  939MOL0     H26725   1.075   4.328   9.499 -0.4134 -0.6524  0.8229
  939MOL0     H26726   1.013   4.647   9.652  2.1950  1.0592 -0.9700
  939MOL0     H26727   1.116   4.599   9.511 -0.4112  1.3481 -0.4767
  939MOL0     H26728   0.953   4.533   9.536 -1.9377  1.1836  1.6215
  939MOL0     H26729   1.379   4.820   9.937  1.6057  1.4584  0.9640
  939MOL0     H26730   1.446   4.980  10.129 -1.8220  2.3253  0.0652
  939MOL0     H26731   1.186   5.127  10.293 -0.4192  0.4895  0.6415
  939MOL0     H26732   1.150   5.036  10.440  0.7646 -0.1049  1.7099
  939MOL0     H26733   1.346   5.265  10.410 -1.4483  1.3020 -0.6730
  939MOL0     H26734   1.184   5.277  10.464 -1.4155 -0.9212 -0.3492
  939MOL0     H26735   1.349   5.260  10.655  0.9080 -0.3659 -1.3628
  939MOL0     H26736   1.419   5.114  10.600  0.4552  0.5300  1.6064
  939MOL0     H26737   1.113   5.120  10.653  1.6290  4.2589 -1.6456
  939MOL0     H26738   1.218   4.985  10.650 -0.1721  0.4399 -1.3089
  939MOL0     H26739   1.129   5.071  10.879  1.2855  1.3322  3.8638
  939MOL0     H26740   1.241   5.214  10.858  2.4028 -0.1464  1.6902
  939MOL0     H26741   1.324   4.928  10.842 -0.7444 -0.3813 -0.6467
  939MOL0     H26742   1.437   5.060  10.866  0.6561  1.6600 -0.8280
  939MOL0     H26743   1.272   5.107  11.096  0.1855  0.2340 -1.2352
  939MOL0     H26744   1.411   5.003  11.092  0.9140 -0.9735 -2.2242
  939MOL0     H26745   1.219   4.817  11.017  0.8614  0.0967 -0.4281
  939MOL0     H26746   1.123   4.950  11.105  1.0548  2.0404  3.0004
  939MOL0     H26747   1.172   4.815  10.387 -1.3072  1.4096 -0.6111
  939MOL0     H26748   1.110   4.629  10.221  2.3638 -2.1765 -1.1272
  939MOL0     H26749   1.287   4.379   9.934 -1.8658  0.9546  0.4014
  939MOL0     H26750   1.292   4.161   9.825  0.5022  1.5347  0.2699
  939MOL0     H26751   0.952   3.897   7.806 -0.5685 -0.1401 -2.8128
  939MOL0     H26752   0.731   3.968   7.721  3.2104 -3.5721 -0.1038
  939MOL0     H26753   0.322   4.193   7.953  0.9648  0.5327 -0.0038
  939MOL0     H26754   0.111   4.309   7.915 -0.1163  1.8225  1.3127
  939MOL0     H26755  -0.016   4.710   7.794  2.0267 -0.6752  3.5663
  939MOL0     H26756   0.152   4.713   7.747 -0.9807 -0.0745 -1.4668
  939MOL0     H26757  -0.056   4.596   7.544  0.9738 -0.8412  1.1832
  939MOL0     H26758   0.093   4.657   7.510 -0.5303 -0.5068 -0.2765
  939MOL0     H26759   0.008   4.893   7.591  1.8613 -0.2820 -3.0380
  939MOL0     H26760  -0.148   4.820   7.599 -0.4050  3.1928  0.3685
  939MOL0     H26761  -0.116   4.758   7.349  0.2573  0.6442  0.8972
  939MOL0     H26762   0.043   4.834   7.352  0.5452 -1.8707  1.6646
  939MOL0     H26763  -0.236   5.155   7.345 -1.5670 -1.2876  0.3961
  939MOL0     H26764   0.297   4.576   7.636  3.5641 -1.8327 -3.5038
  939MOL0     H26765   0.515   4.438   7.657  0.7237  0.4062  1.5417
  940MOL0     O26766   7.264   6.743   6.179  0.1529 -0.2248 -0.4487
  940MOL0     C26767   7.372   6.691   6.172 -0.3835  0.2144 -0.2142
  940MOL0     O26768   7.432   6.633   6.285 -0.0098 -0.4769 -0.0784
  940MOL0     C26769   7.346   6.610   6.389  0.1570  1.1961 -0.4513
  940MOL0     C26770   7.286   6.480   6.398  0.2111  0.6479 -0.3170
  940MOL0     C26771   7.220   6.443   6.522 -0.6879 -0.3160  0.8852
  940MOL0     C26772   7.209   6.532   6.637 -0.0782 -1.0734  0.0518
  940MOL0     O26773   7.152   6.495   6.767 -1.1761  0.4346  0.2930
  940MOL0     C26774   7.095   6.364   6.757  0.5373  0.0063  0.2197
  940MOL0     C26775   7.045   6.331   6.896  0.8683  1.0346 -0.1920
  940MOL0     C26776   6.963   6.200   6.910 -0.4112  0.4626  0.1191
  940MOL0     C26777   6.970   6.134   7.050 -0.4524 -0.5344  0.6750
  940MOL0     C26778   6.865   6.022   7.057  0.4784 -0.2447 -0.6987
  940MOL0     C26779   6.875   5.966   7.204 -0.3122  0.8592 -0.4524
  940MOL0     C26780   6.764   5.859   7.241  0.6539  0.8285  0.8609
  940MOL0     C26781   6.780   5.718   7.168 -0.5892 -0.1718  0.3818
  940MOL0     N26782   6.902   5.637   7.184  0.1624  0.2653  0.5378
  940MOL0     C26783   6.931   5.545   7.287  0.6832 -0.4462  0.8922
  940MOL0     C26784   7.064   5.506   7.258 -0.6605 -0.0563  1.3118
  940MOL0     C26785   7.144   5.417   7.346  0.4497 -0.1402 -0.1075
  940MOL0     C26786   7.088   5.278   7.332  0.1588  0.9230  0.4510
  940MOL0     C26787   7.188   5.184   7.403 -0.7699 -0.2178  0.5157
  940MOL0     C26788   7.125   5.061   7.477  0.6175 -0.2527  0.4927
  940MOL0     O26789   7.006   5.089   7.553 -0.8215  0.6798  0.1645
  940MOL0     C26790   6.946   4.997   7.624  0.6534  0.3302  0.7588
  940MOL0     C26791   6.815   5.029   7.656  0.1149  0.0201  0.6129
  940MOL0     C26792   6.726   4.937   7.720  0.1357 -0.1977  0.3793
  940MOL0     C26793   6.587   4.979   7.764  0.5058  0.7934 -0.0795
  940MOL0     C26794   6.766   4.798   7.741  0.2900 -0.9727  0.1263
  940MOL0     C26795   6.686   4.693   7.815 -0.2890  1.0634  0.6264
  940MOL0     O26796   6.750   4.571   7.831 -0.0861  0.4700 -0.1629
  940MOL0     C26797   6.682   4.497   7.929 -0.0227 -0.1017  0.2303
  940MOL0     C26798   6.561   4.424   7.908  0.4046  0.1735  0.1317
  940MOL0     C26799   6.494   4.350   8.008  0.7518 -0.4266 -0.3348
  940MOL0     C26800   6.558   4.336   8.131 -0.3450 -0.0380  0.1804
  940MOL0     O26801   6.513   4.240   8.214  0.1318  0.0921 -0.7547
  940MOL0     C26802   6.611   4.143   8.263  0.6420 -0.1371  0.6532
  940MOL0     C26803   6.627   4.030   8.160  0.8647 -0.2980  0.1197
  940MOL0     C26804   6.732   4.060   8.053  0.4682 -0.0696 -1.0590
  940MOL0     C26805   6.738   3.940   7.950 -0.1730 -0.1315  0.4021
  940MOL0     C26806   6.823   3.973   7.827 -0.5067 -0.4713  0.3629
  940MOL0     C26807   6.858   3.844   7.749  0.1994 -0.1229 -0.7071
  940MOL0     C26808   6.854   3.868   7.596  0.5326 -0.5327 -0.1538
  940MOL0     C26809   6.870   3.734   7.521  1.0034 -0.1360  0.5748
  940MOL0    Cl26810   6.827   3.770   7.339 -0.0278  0.3209  0.0364
  940MOL0     C26811   6.677   4.405   8.158 -0.1364 -0.8467  0.8450
  940MOL0     C26812   6.740   4.486   8.053 -0.8594 -0.1775 -0.3404
  940MOL0     O26813   6.571   4.719   7.847  0.6465 -0.3155  1.0798
  940MOL0     C26814   6.902   4.775   7.712 -0.4223 -0.1337 -0.0912
  940MOL0     C26815   6.991   4.869   7.655  1.0089 -0.3180 -0.7276
  940MOL0     N26816   7.114   5.583   7.144 -0.4313  1.1614 -0.8188
  940MOL0     N26817   7.015   5.652   7.110  0.4094  0.7909 -0.1070
  940MOL0     C26818   7.280   6.660   6.623  0.3801  1.3908  0.4280
  940MOL0     C26819   7.347   6.697   6.501  0.4282 -0.2201  0.3277
  940MOL0     C26820   7.449   6.710   6.045 -0.3625 -0.2718  0.0445
  940MOL0     C26821   7.570   6.654   6.033  0.3526  0.4438  0.0679
  940MOL0     C26822   7.650   6.675   5.918 -0.7536  0.5165  0.0760
  940MOL0     C26823   7.601   6.726   5.802  0.2790  0.2139  0.4729
  940MOL0     O26824   7.677   6.717   5.685 -0.1011 -0.2449  0.1100
  940MOL0     C26825   7.611   6.768   5.566 -0.1415 -0.9325  0.0096
  940MOL0     C26826   7.709   6.796   5.454 -0.4814 -0.4556 -0.0339
  940MOL0     C26827   7.820   6.891   5.491 -0.0977 -0.0484 -0.4423
  940MOL0     C26828   7.776   7.027   5.528 -1.6720 -1.0866  0.3157
  940MOL0     C26829   7.684   7.112   5.454  0.3859  0.4414  0.0027
  940MOL0     C26830   7.599   7.168   5.394  0.8127  0.0715 -0.3495
  940MOL0     C26831   7.466   6.783   5.813 -0.9716 -0.6890 -1.1472
  940MOL0     C26832   7.402   6.778   5.934  0.9433  0.3768  0.1329
  940MOL0     H26833   7.275   6.408   6.318 -0.3550  0.0293  0.3140
  940MOL0     H26834   7.162   6.351   6.523  0.2459 -0.9247  0.8813
  940MOL0     H26835   7.012   6.362   6.685  0.5309  0.5822  0.2096
  940MOL0     H26836   7.171   6.296   6.718  0.3632  1.3579 -2.7649
  940MOL0     H26837   7.125   6.343   6.970  2.1847  2.7034 -1.7749
  940MOL0     H26838   6.972   6.404   6.932 -0.9917 -0.3673 -1.0011
  940MOL0     H26839   6.859   6.220   6.884 -0.2726  0.4558 -0.4440
  940MOL0     H26840   6.994   6.125   6.836 -3.2149  1.5400 -2.3128
  940MOL0     H26841   7.069   6.090   7.065  1.2314  0.9947 -3.9976
  940MOL0     H26842   6.956   6.211   7.126  0.3347 -0.6706  0.9636
  940MOL0     H26843   6.768   6.071   7.049 -0.8214 -1.8225  3.3880
  940MOL0     H26844   6.881   5.949   6.977  0.9826 -0.4192 -0.4439
  940MOL0     H26845   6.970   5.921   7.234 -1.3129  0.2324  2.0605
  940MOL0     H26846   6.867   6.045   7.279 -3.0719  0.4710 -0.2327
  940MOL0     H26847   6.772   5.852   7.350  1.9514 -2.4640  0.6544
  940MOL0     H26848   6.665   5.896   7.212  0.5261  0.9883  1.4892
  940MOL0     H26849   6.751   5.734   7.064 -0.1502 -0.2511  0.2428
  940MOL0     H26850   6.694   5.664   7.209 -2.8558  0.2391 -3.3474
  940MOL0     H26851   6.871   5.529   7.377 -1.3883  1.0448 -0.1285
  940MOL0     H26852   7.248   5.421   7.312  0.2583 -0.0208 -0.7040
  940MOL0     H26853   7.148   5.454   7.449  0.2957  0.2603 -0.2418
  940MOL0     H26854   7.084   5.251   7.226  0.8675  1.3444  0.3158
  940MOL0     H26855   6.987   5.270   7.375  0.4906 -3.4265  0.7765
  940MOL0     H26856   7.236   5.229   7.491 -0.6933  2.6952 -0.9014
  940MOL0     H26857   7.252   5.152   7.320 -0.5375  1.4224  0.0306
  940MOL0     H26858   7.196   5.018   7.547  1.3592 -0.4630 -0.3671
  940MOL0     H26859   7.104   4.984   7.402  1.0800 -2.0242  2.1172
  940MOL0     H26860   6.775   5.129   7.642  1.1936  0.5041  0.9363
  940MOL0     H26861   6.511   4.919   7.714  0.6384 -1.2745  2.0124
  940MOL0     H26862   6.564   4.970   7.871 -3.4903  2.8655 -0.5701
  940MOL0     H26863   6.567   5.080   7.726  1.7667  0.6485 -1.1926
  940MOL0     H26864   6.516   4.414   7.809  3.8921 -0.9816 -1.5200
  940MOL0     H26865   6.397   4.313   7.978  1.0601 -1.8253  0.3272
  940MOL0     H26866   6.703   4.195   8.290  1.1980  0.5862 -2.2697
  940MOL0     H26867   6.559   4.102   8.350 -3.6808 -1.8909 -2.4153
  940MOL0     H26868   6.648   3.937   8.214 -2.1204 -0.4834  1.1431
  940MOL0     H26869   6.533   4.013   8.108  2.4512 -0.5393 -2.8999
  940MOL0     H26870   6.822   4.072   8.113  0.3817  2.1540 -1.3029
  940MOL0     H26871   6.708   4.158   8.011  0.0724  0.0142 -0.6516
  940MOL0     H26872   6.778   3.857   8.009  0.5108  0.9931  1.5733
  940MOL0     H26873   6.640   3.913   7.909  0.2414  1.2054 -1.6251
  940MOL0     H26874   6.922   4.004   7.862  0.3904 -0.3326 -2.1128
  940MOL0     H26875   6.764   4.037   7.761 -1.5516  0.5752  2.2412
  940MOL0     H26876   6.957   3.803   7.771  0.0164 -0.7212 -0.9720
  940MOL0     H26877   6.789   3.765   7.780 -0.1288  0.4059 -0.0606
  940MOL0     H26878   6.939   3.934   7.574  0.1236 -0.3510 -1.2454
  940MOL0     H26879   6.760   3.918   7.575  0.8192  0.2966  0.4954
  940MOL0     H26880   6.801   3.660   7.562  2.8414 -2.2818 -0.0399
  940MOL0     H26881   6.974   3.701   7.517  0.7352 -0.9061 -0.5601
  940MOL0     H26882   6.714   4.402   8.260 -1.2068 -0.8492  1.2461
  940MOL0     H26883   6.827   4.544   8.084  0.7885 -2.2078 -0.9228
  940MOL0     H26884   6.932   4.673   7.736 -2.0505 -0.4255  0.8059
  940MOL0     H26885   7.095   4.843   7.638  1.5137 -1.7542  3.3531
  940MOL0     H26886   7.269   6.730   6.706  2.4827  1.0742  1.0379
  940MOL0     H26887   7.400   6.789   6.477 -0.8103 -0.1244 -2.5003
  940MOL0     H26888   7.603   6.575   6.099 -1.9552  0.0669  0.8489
  940MOL0     H26889   7.746   6.625   5.908 -1.6429 -1.6460  1.6589
  940MOL0     H26890   7.547   6.694   5.517 -0.1278 -0.3352 -0.9341
  940MOL0     H26891   7.560   6.860   5.597 -0.2770 -0.5531 -1.2712
  940MOL0     H26892   7.643   6.841   5.380  0.9914  2.0087  0.0223
  940MOL0     H26893   7.748   6.700   5.421  0.5019 -0.2727  0.5295
  940MOL0     H26894   7.881   6.904   5.401  0.7095 -0.9148 -0.0223
  940MOL0     H26895   7.877   6.854   5.576 -2.6431  0.3296  1.5701
  940MOL0     H26896   7.869   7.084   5.524 -1.2565 -1.6428  1.4437
  940MOL0     H26897   7.757   7.027   5.636  0.2491 -1.5220  0.6859
  940MOL0     H26898   7.532   7.235   5.343  2.1069  1.5150 -0.2481
  940MOL0     H26899   7.409   6.828   5.732 -3.4674 -0.8996  0.3668
  940MOL0     H26900   7.311   6.836   5.945  0.7675  0.4895 -1.6408
  941MOL0     O26901  10.696   3.194   3.356 -0.1945 -0.0287 -0.1971
  941MOL0     C26902  10.807   3.231   3.333  0.1592 -0.6513 -0.4718
  941MOL0     O26903  10.919   3.185   3.395 -0.0415 -0.4317 -0.6256
  941MOL0     C26904  10.934   3.065   3.461 -0.0301  0.3418  0.1071
  941MOL0     C26905  11.057   3.049   3.528  0.1507  0.7015  0.0011
  941MOL0     C26906  11.089   2.929   3.599  0.6265 -1.8792  0.7454
  941MOL0     C26907  10.986   2.820   3.593 -0.8612  0.3263  0.4217
  941MOL0     O26908  10.995   2.711   3.679 -0.5708 -0.1656 -0.5252
  941MOL0     C26909  11.108   2.688   3.766 -0.0154  0.2500 -0.1579
  941MOL0     C26910  11.085   2.551   3.832  0.5182 -1.0472 -1.0483
  941MOL0     C26911  11.177   2.529   3.950 -0.2081  0.4308 -1.1570
  941MOL0     C26912  11.112   2.581   4.077  0.1294  0.2636  0.6776
  941MOL0     C26913  11.228   2.553   4.183  0.5747  0.0022  0.3406
  941MOL0     C26914  11.211   2.639   4.308 -0.2819  0.0969  0.2421
  941MOL0     C26915  11.245   2.786   4.282  0.5782  0.1667  0.8131
  941MOL0     C26916  11.313   2.847   4.404  0.3214  0.8685  0.1563
  941MOL0     N26917  11.334   2.992   4.388 -0.2402  0.4382  0.0842
  941MOL0     C26918  11.452   3.059   4.398  0.3541 -0.5189  0.1696
  941MOL0     C26919  11.412   3.188   4.423  0.5749 -0.0501 -0.4857
  941MOL0     C26920  11.502   3.295   4.475 -0.2182 -0.1989 -1.1746
  941MOL0     C26921  11.582   3.259   4.594  0.2702 -0.6677  0.6256
  941MOL0     C26922  11.496   3.273   4.726 -0.2869  0.2804  0.6076
  941MOL0     C26923  11.583   3.241   4.851  0.5037  0.4658 -0.3620
  941MOL0     O26924  11.628   3.103   4.832  0.6199 -0.2623 -0.2214
  941MOL0     C26925  11.714   3.040   4.929 -0.5780 -0.0799 -1.0143
  941MOL0     C26926  11.781   3.113   5.033 -0.8479 -0.2890 -1.3260
  941MOL0     C26927  11.872   3.052   5.122  0.2905 -0.1713  0.3231
  941MOL0     C26928  11.962   3.146   5.197 -0.2838 -0.3223 -0.8206
  941MOL0     C26929  11.883   2.906   5.120 -0.8282 -0.2015 -0.8081
  941MOL0     C26930  11.974   2.820   5.208  0.0853 -0.3578 -0.1549
  941MOL0     O26931  11.986   2.694   5.183  0.3969  0.7449 -0.0027
  941MOL0     C26932  12.096   2.630   5.222  1.0112  0.3177 -1.0216
  941MOL0     C26933  12.078   2.540   5.331 -0.6173  0.6737  0.5883
  941MOL0     C26934  12.185   2.481   5.397 -0.5433 -0.9337  0.2550
  941MOL0     C26935  12.313   2.475   5.320  0.3754 -0.8052 -0.4928
  941MOL0     O26936  12.422   2.413   5.380 -0.4819 -0.8674 -1.0525
  941MOL0     C26937  12.543   2.487   5.378 -0.2928  0.0547  0.3000
  941MOL0     C26938  12.652   2.405   5.460  0.7206  0.6754 -0.0820
  941MOL0     C26939  12.677   2.260   5.413  0.2708  0.1987 -0.3348
  941MOL0     C26940  12.817   2.224   5.437  1.0098 -0.9009 -0.1537
  941MOL0     C26941  12.856   2.096   5.371  0.2175 -0.3121  0.7660
  941MOL0     C26942  12.898   2.104   5.224  0.7146  0.5455  0.4617
  941MOL0     C26943  12.944   1.966   5.174 -1.1361  0.4247  0.5856
  941MOL0     C26944  12.843   1.845   5.190  0.5704 -0.7276 -0.1422
  941MOL0    Cl26945  12.888   1.717   5.079  0.3684 -0.0275 -0.6452
  941MOL0     C26946  12.321   2.560   5.201  0.4616  0.5735 -0.2528
  941MOL0     C26947  12.214   2.641   5.152 -0.0971  0.3658 -0.1366
  941MOL0     O26948  12.038   2.878   5.295 -0.5634  0.2379  0.4966
  941MOL0     C26949  11.797   2.835   5.031  0.0323  0.3549 -0.3889
  941MOL0     C26950  11.719   2.904   4.936 -0.5127  0.4203 -0.2277
  941MOL0     N26951  11.276   3.194   4.406  0.0528 -0.2736  0.4150
  941MOL0     N26952  11.222   3.075   4.396 -0.5502 -0.1802  0.3572
  941MOL0     C26953  10.868   2.835   3.529  0.3113  0.0157 -0.0753
  941MOL0     C26954  10.838   2.959   3.466 -0.9871 -0.6317 -0.8632
  941MOL0     C26955  10.827   3.331   3.226  0.0438  1.0472 -0.1483
  941MOL0     C26956  10.944   3.414   3.230 -0.2848  0.0333 -0.0550
  941MOL0     C26957  10.962   3.509   3.131 -0.2266  0.1332  0.6011
  941MOL0     C26958  10.880   3.509   3.018 -0.7268 -0.1048 -0.9783
  941MOL0     O26959  10.908   3.597   2.921  0.1498 -0.3621 -0.1789
  941MOL0     C26960  10.874   3.578   2.781  0.3467 -0.3341  0.2370
  941MOL0     C26961  10.957   3.680   2.697 -0.3658  0.1766  0.1817
  941MOL0     C26962  10.922   3.669   2.549  0.2579  0.2434 -0.2092
  941MOL0     C26963  10.802   3.746   2.519 -0.0364  0.5132  0.1633
  941MOL0     C26964  10.822   3.889   2.508  0.0150  0.2927  0.2356
  941MOL0     C26965  10.826   4.009   2.488  0.6855  0.3528  0.3204
  941MOL0     C26966  10.772   3.422   3.002  0.7321  1.1639 -0.2717
  941MOL0     C26967  10.746   3.332   3.107  0.3961  0.1390  0.0495
  941MOL0     H26968  11.119   3.137   3.523  0.7424  0.2185 -1.5002
  941MOL0     H26969  11.179   2.926   3.660  0.2445  1.7374  1.7444
  941MOL0     H26970  11.205   2.679   3.716 -0.8169 -0.1853 -1.6876
  941MOL0     H26971  11.095   2.760   3.847 -2.6336 -0.3353  0.0432
  941MOL0     H26972  10.980   2.532   3.857  1.1671 -3.3263  0.1843
  941MOL0     H26973  11.101   2.479   3.752 -2.3055 -3.2098  0.1485
  941MOL0     H26974  11.189   2.423   3.970 -4.1989  0.1836  1.0438
  941MOL0     H26975  11.272   2.573   3.920  1.6554 -1.5646  1.4053
  941MOL0     H26976  11.116   2.689   4.064 -0.8244  0.2800  0.4898
  941MOL0     H26977  11.015   2.542   4.109  0.3034  0.4938  1.5003
  941MOL0     H26978  11.208   2.447   4.200  0.6385  0.1803  1.6055
  941MOL0     H26979  11.332   2.560   4.150  0.6433  1.1698  0.7573
  941MOL0     H26980  11.113   2.639   4.357  0.4080  2.7428  1.8228
  941MOL0     H26981  11.265   2.593   4.392 -1.7673 -0.2227  1.0632
  941MOL0     H26982  11.315   2.802   4.200  0.5921  1.9380  1.1228
  941MOL0     H26983  11.152   2.841   4.267  0.3953  0.3532  2.3912
  941MOL0     H26984  11.411   2.800   4.411  0.7227  1.4378 -1.3358
  941MOL0     H26985  11.247   2.826   4.489 -0.6825 -1.2923 -1.0503
  941MOL0     H26986  11.551   3.018   4.414  0.3772 -1.5759 -2.2643
  941MOL0     H26987  11.563   3.331   4.392 -2.4029  1.9681 -1.9546
  941MOL0     H26988  11.443   3.383   4.503  2.0178  0.8273  0.7864
  941MOL0     H26989  11.666   3.328   4.587 -1.0475  1.1615  1.8095
  941MOL0     H26990  11.623   3.158   4.589 -1.1455 -1.2029 -1.0755
  941MOL0     H26991  11.419   3.195   4.723  1.2356 -1.2568 -1.8203
  941MOL0     H26992  11.442   3.367   4.733 -1.3284 -0.3298  1.0136
  941MOL0     H26993  11.522   3.245   4.942 -0.9215 -3.2798 -0.9701
  941MOL0     H26994  11.669   3.308   4.855  1.8023 -1.1905  0.6270
  941MOL0     H26995  11.780   3.221   5.030 -0.0593 -0.2893 -2.9259
  941MOL0     H26996  12.061   3.100   5.200  0.4070  0.7029 -4.1417
  941MOL0     H26997  11.991   3.240   5.149  1.2255 -0.2109  0.2375
  941MOL0     H26998  11.926   3.168   5.298 -2.0469  2.5621 -1.9574
  941MOL0     H26999  11.976   2.521   5.363 -0.2098 -2.4997  0.2815
  941MOL0     H27000  12.177   2.431   5.493  0.6378  0.5013  1.1423
  941MOL0     H27001  12.573   2.484   5.273 -0.3008  2.0576  0.2163
  941MOL0     H27002  12.535   2.592   5.407 -0.1320  0.4149 -0.9053
  941MOL0     H27003  12.743   2.464   5.471  1.5899 -0.3050 -1.6395
  941MOL0     H27004  12.607   2.410   5.560 -1.5438 -0.1434 -0.9888
  941MOL0     H27005  12.656   2.242   5.308 -0.8833  0.6270 -0.1963
  941MOL0     H27006  12.613   2.193   5.472  0.0373 -0.1759 -1.0065
  941MOL0     H27007  12.885   2.299   5.397  2.3180 -0.6111  2.4237
  941MOL0     H27008  12.826   2.223   5.546  0.6838  0.5450 -0.0917
  941MOL0     H27009  12.786   2.014   5.391 -2.8533  2.1538  0.9338
  941MOL0     H27010  12.949   2.064   5.419  0.1735 -0.8246  0.5234
  941MOL0     H27011  12.816   2.146   5.164  0.1333 -0.7905  0.2823
  941MOL0     H27012  12.989   2.164   5.215  1.3615 -0.4166  0.3974
  941MOL0     H27013  13.038   1.938   5.223  0.9099  2.6242 -1.7833
  941MOL0     H27014  12.954   1.985   5.067 -3.6888  2.7835  0.6713
  941MOL0     H27015  12.742   1.879   5.165 -0.1064 -0.1545  2.9239
  941MOL0     H27016  12.838   1.806   5.292 -0.4308 -1.5737 -0.4978
  941MOL0     H27017  12.411   2.565   5.141  1.7693 -3.6017  0.9906
  941MOL0     H27018  12.215   2.709   5.068  2.1920 -3.0960 -3.2109
  941MOL0     H27019  11.787   2.728   5.049 -0.6233  1.0073  4.5065
  941MOL0     H27020  11.653   2.847   4.872  0.3744  0.4914 -1.2365
  941MOL0     H27021  10.797   2.753   3.521 -0.2245  0.3536  1.0890
  941MOL0     H27022  10.732   2.972   3.447 -1.0929  0.7246  0.4357
  941MOL0     H27023  11.005   3.408   3.319  0.4119 -0.5718 -0.5604
  941MOL0     H27024  11.046   3.578   3.131  0.6671 -0.9156  0.4033
  941MOL0     H27025  10.895   3.475   2.751 -0.4072 -0.1854 -0.8978
  941MOL0     H27026  10.767   3.598   2.771  0.8427  1.6294 -2.3251
  941MOL0     H27027  11.062   3.652   2.705 -0.9881 -3.8852 -2.5425
  941MOL0     H27028  10.943   3.784   2.728 -1.6575 -0.1063  0.5999
  941MOL0     H27029  10.913   3.564   2.521  4.3525  0.0286 -1.4939
  941MOL0     H27030  11.004   3.696   2.481  0.2528  1.0918  0.1055
  941MOL0     H27031  10.724   3.741   2.596 -0.9110  2.2330 -0.5580
  941MOL0     H27032  10.766   3.696   2.429 -1.3028 -0.3347  1.0984
  941MOL0     H27033  10.847   4.113   2.471 -3.0134  1.5210  1.9375
  941MOL0     H27034  10.696   3.408   2.926 -3.3797  2.8267  3.1425
  941MOL0     H27035  10.672   3.253   3.111 -1.0327  1.4895  2.2169
  942MOL0     O27036   2.072   1.319   4.349  0.1078 -0.2054 -0.1351
  942MOL0     C27037   2.149   1.380   4.276  0.3368  0.3170  0.6116
  942MOL0     O27038   2.127   1.513   4.240 -0.1032 -0.0512  0.0175
  942MOL0     C27039   2.028   1.589   4.303  0.2716 -0.6659  0.6876
  942MOL0     C27040   1.916   1.639   4.229  0.8428  0.1344 -0.4688
  942MOL0     C27041   1.803   1.692   4.292  0.1214  0.2130 -0.1715
  942MOL0     C27042   1.797   1.712   4.422  0.2876 -0.9437 -0.2655
  942MOL0     O27043   1.679   1.746   4.488  0.1971 -0.0444  0.1327
  942MOL0     C27044   1.591   1.854   4.425 -0.8577  0.6742 -0.1936
  942MOL0     C27045   1.501   1.930   4.528 -0.5303  0.1576  0.2498
  942MOL0     C27046   1.578   1.990   4.646  0.1730 -0.4343  0.3882
  942MOL0     C27047   1.674   2.108   4.609 -0.2058  0.7395  0.2160
  942MOL0     C27048   1.669   2.231   4.706 -0.5444 -0.0341  0.4834
  942MOL0     C27049   1.758   2.353   4.654  0.7657  0.3631 -0.4205
  942MOL0     C27050   1.787   2.452   4.764 -0.3402 -0.4183  0.2432
  942MOL0     C27051   1.663   2.531   4.811 -0.4218 -0.2573  0.4574
  942MOL0     N27052   1.608   2.625   4.705  0.9441 -0.6376 -0.9142
  942MOL0     C27053   1.621   2.759   4.697  0.2648  0.0922 -0.2252
  942MOL0     C27054   1.562   2.803   4.586  1.0543 -0.6691  0.6136
  942MOL0     C27055   1.561   2.943   4.544 -0.3752  0.9457 -0.5491
  942MOL0     C27056   1.421   3.008   4.546  0.9011  0.1763  0.5139
  942MOL0     C27057   1.348   3.001   4.680  0.6952  1.0752 -0.3868
  942MOL0     C27058   1.419   3.091   4.786 -0.5695  0.0245 -0.5580
  942MOL0     O27059   1.328   3.168   4.861 -0.0335 -0.9098  0.1732
  942MOL0     C27060   1.359   3.267   4.950  0.2426 -0.5916 -0.2759
  942MOL0     C27061   1.485   3.322   4.987  1.0221  0.0250 -0.0281
  942MOL0     C27062   1.503   3.404   5.095 -0.3878  0.5259 -0.1670
  942MOL0     C27063   1.643   3.429   5.129  0.5928 -0.6555  0.8144
  942MOL0     C27064   1.395   3.448   5.172  1.0040 -0.1119 -0.2276
  942MOL0     C27065   1.410   3.538   5.296  0.0627  0.4694  0.6717
  942MOL0     O27066   1.300   3.546   5.374  0.8715 -0.2324 -0.2748
  942MOL0     C27067   1.301   3.587   5.499 -0.0168 -0.6728 -0.0892
  942MOL0     C27068   1.177   3.600   5.561 -0.4554  0.3115  0.1470
  942MOL0     C27069   1.160   3.637   5.690 -0.2317 -0.1893 -0.2596
  942MOL0     C27070   1.267   3.674   5.764 -0.1336 -0.3916 -0.1591
  942MOL0     O27071   1.275   3.699   5.900 -0.5145 -0.1189  0.2136
  942MOL0     C27072   1.154   3.712   5.982 -0.1173  1.2603  0.2422
  942MOL0     C27073   1.130   3.573   6.034 -1.1650 -0.1041  0.4037
  942MOL0     C27074   1.250   3.527   6.128  0.6952  0.1821  0.8265
  942MOL0     C27075   1.234   3.410   6.218  0.1129 -0.7776 -0.6513
  942MOL0     C27076   1.342   3.398   6.327 -0.1787  0.5066 -0.3857
  942MOL0     C27077   1.315   3.299   6.440 -0.4603 -0.2835 -0.1049
  942MOL0     C27078   1.434   3.289   6.543 -0.0618  0.1255  0.8438
  942MOL0     C27079   1.375   3.219   6.663  0.3302  0.3382 -0.3219
  942MOL0    Cl27080   1.487   3.252   6.812 -0.2880  0.2843  0.1732
  942MOL0     C27081   1.398   3.679   5.708  0.1094 -0.9033 -0.6482
  942MOL0     C27082   1.411   3.633   5.577 -0.3484 -0.1228 -0.1025
  942MOL0     O27083   1.513   3.590   5.314  0.1841 -0.6772  0.1781
  942MOL0     C27084   1.265   3.398   5.146  0.7154 -0.8131  0.9309
  942MOL0     C27085   1.243   3.307   5.038 -0.8556  0.6090 -0.1884
  942MOL0     N27086   1.513   2.689   4.526 -0.0495 -0.3006  0.2342
  942MOL0     N27087   1.548   2.589   4.590 -0.0447  0.4094 -0.5320
  942MOL0     C27088   1.900   1.663   4.496  1.1743 -0.7263  0.7644
  942MOL0     C27089   2.018   1.594   4.441 -0.0423  0.0750 -0.3610
  942MOL0     C27090   2.272   1.320   4.230 -0.6410  0.0701 -0.0171
  942MOL0     C27091   2.308   1.201   4.280  0.6896  1.4381  0.5685
  942MOL0     C27092   2.419   1.127   4.243  0.1929 -1.3265  0.6341
  942MOL0     C27093   2.506   1.185   4.141  0.3916 -0.1799 -0.3102
  942MOL0     O27094   2.628   1.127   4.107  0.4326  0.3524 -0.1325
  942MOL0     C27095   2.680   1.002   4.156  0.0088  0.6846 -0.1692
  942MOL0     C27096   2.831   1.004   4.121  0.1227 -0.0312 -0.8949
  942MOL0     C27097   2.850   0.992   3.966 -0.1908  0.5823  0.2529
  942MOL0     C27098   2.942   1.100   3.919 -1.4700 -0.5539  0.7173
  942MOL0     C27099   2.989   1.091   3.781  0.4240  0.0496  0.4748
  942MOL0     C27100   3.032   1.055   3.669  0.3078  0.3078 -0.0199
  942MOL0     C27101   2.468   1.308   4.083 -0.1127 -0.8337  0.0811
  942MOL0     C27102   2.349   1.378   4.124  0.4717  0.2896 -0.1104
  942MOL0     H27103   1.922   1.644   4.121  0.4832  1.9442 -0.4457
  942MOL0     H27104   1.720   1.725   4.229 -0.4985 -1.6777 -0.4019
  942MOL0     H27105   1.658   1.920   4.367  0.8138 -2.7541 -2.4841
  942MOL0     H27106   1.522   1.813   4.350 -1.4982 -0.0837  0.7993
  942MOL0     H27107   1.451   2.014   4.479  1.6316 -0.1347 -2.7671
  942MOL0     H27108   1.420   1.867   4.565 -1.5168 -0.2274 -2.3703
  942MOL0     H27109   1.495   2.033   4.702  0.4224  1.1287 -0.3758
  942MOL0     H27110   1.620   1.907   4.703  0.8392  1.5745  3.0042
  942MOL0     H27111   1.777   2.074   4.601 -0.8321 -0.8326 -2.3575
  942MOL0     H27112   1.649   2.139   4.507 -0.0553 -3.1859 -1.1807
  942MOL0     H27113   1.566   2.264   4.724 -0.5826  0.1650 -0.0646
  942MOL0     H27114   1.715   2.206   4.802  2.1577 -2.8701 -1.3668
  942MOL0     H27115   1.851   2.322   4.607  1.0909 -0.9654  1.0105
  942MOL0     H27116   1.693   2.401   4.580 -1.5461 -1.1138  0.5276
  942MOL0     H27117   1.833   2.417   4.857 -1.5752  0.1891  1.1012
  942MOL0     H27118   1.862   2.524   4.729  0.2525 -1.3207 -0.4038
  942MOL0     H27119   1.686   2.588   4.901  2.3923 -1.6258  0.7413
  942MOL0     H27120   1.582   2.464   4.840  1.1374 -2.6699 -0.4088
  942MOL0     H27121   1.674   2.810   4.777  0.1728  1.7666 -1.1955
  942MOL0     H27122   1.641   2.989   4.602  1.3820 -0.8000 -1.4504
  942MOL0     H27123   1.594   2.946   4.440  1.0179 -2.5681 -0.3476
  942MOL0     H27124   1.359   2.947   4.480  1.5076  0.3725 -0.2472
  942MOL0     H27125   1.440   3.112   4.516 -1.4281  0.4502 -0.1551
  942MOL0     H27126   1.355   2.899   4.721 -4.1807  0.7816  0.2702
  942MOL0     H27127   1.245   3.037   4.674 -0.6113 -1.7911  1.8649
  942MOL0     H27128   1.490   3.157   4.735  1.4859 -0.3324  1.6807
  942MOL0     H27129   1.478   3.028   4.853 -0.5181 -1.6554 -2.1112
  942MOL0     H27130   1.578   3.287   4.943  1.0443 -1.5382  1.1827
  942MOL0     H27131   1.667   3.375   5.221 -1.2361 -1.0547  1.0936
  942MOL0     H27132   1.704   3.398   5.043 -0.1812  1.1288 -0.4384
  942MOL0     H27133   1.667   3.536   5.139 -1.6976  0.1255 -1.1004
  942MOL0     H27134   1.085   3.580   5.507 -1.0637  0.9815  0.9044
  942MOL0     H27135   1.062   3.641   5.736 -0.2890 -2.6195 -0.0811
  942MOL0     H27136   1.158   3.791   6.058 -1.4315  1.9530 -0.3657
  942MOL0     H27137   1.059   3.738   5.933 -1.2147 -0.6164  1.2594
  942MOL0     H27138   1.038   3.562   6.092 -2.1734 -1.3971 -1.3394
  942MOL0     H27139   1.124   3.502   5.951 -0.4620  0.4471 -0.1298
  942MOL0     H27140   1.267   3.611   6.195 -1.9487  1.6583 -0.1944
  942MOL0     H27141   1.346   3.521   6.077  2.0639 -0.4792  3.2991
  942MOL0     H27142   1.142   3.428   6.274  0.3247  0.4084 -0.6659
  942MOL0     H27143   1.221   3.318   6.160 -1.0695 -3.5035  3.5581
  942MOL0     H27144   1.362   3.491   6.381 -0.7534 -0.1733  1.0421
  942MOL0     H27145   1.431   3.359   6.278 -0.7157 -0.6406 -0.4640
  942MOL0     H27146   1.227   3.329   6.498  0.7872 -0.4473  1.9434
  942MOL0     H27147   1.287   3.200   6.404 -2.9890 -0.6002  2.4000
  942MOL0     H27148   1.462   3.392   6.568  2.0035 -0.2381  0.1846
  942MOL0     H27149   1.512   3.233   6.490 -0.9066 -0.7816  0.5415
  942MOL0     H27150   1.370   3.110   6.655 -2.8136  0.3315  0.2069
  942MOL0     H27151   1.269   3.245   6.678 -0.6177 -2.6713 -1.0697
  942MOL0     H27152   1.481   3.706   5.773 -0.4565 -0.0199 -0.2778
  942MOL0     H27153   1.513   3.610   5.549 -0.4344 -1.1799  0.4178
  942MOL0     H27154   1.179   3.429   5.205 -0.0365 -1.0235 -0.0228
  942MOL0     H27155   1.141   3.282   5.012 -1.5928  1.5945  1.5397
  942MOL0     H27156   1.888   1.669   4.603  0.0905  2.7413  0.5843
  942MOL0     H27157   2.093   1.532   4.490  2.3028 -0.4524 -4.1643
  942MOL0     H27158   2.246   1.138   4.343  3.1543  0.3707  2.0794
  942MOL0     H27159   2.439   1.028   4.284  0.8590 -0.7948  1.6437
  942MOL0     H27160   2.680   0.997   4.266  1.6718  1.2868 -0.1073
  942MOL0     H27161   2.632   0.916   4.109  3.0871  0.2330 -2.7850
  942MOL0     H27162   2.864   0.914   4.174 -2.1526  1.6050  3.7695
  942MOL0     H27163   2.880   1.092   4.163  1.0699 -2.1492  2.9174
  942MOL0     H27164   2.755   0.992   3.912  1.4258  3.1008 -2.9423
  942MOL0     H27165   2.894   0.893   3.952 -1.0469 -0.2435  2.7833
  942MOL0     H27166   3.031   1.102   3.982 -3.4506  0.6176  3.6861
  942MOL0     H27167   2.899   1.199   3.933 -1.2609 -0.7247  2.8527
  942MOL0     H27168   3.065   1.020   3.573  1.1601  0.2334  0.2945
  942MOL0     H27169   2.536   1.341   4.006 -1.9866  4.5030  0.3097
  942MOL0     H27170   2.305   1.467   4.079 -1.5924  0.4891  2.1099
  943MOL0     O27171   0.345   0.189   2.386  0.4410 -0.2946  0.2497
  943MOL0     C27172   0.429   0.272   2.415  0.8076  1.3190 -0.8240
  943MOL0     O27173   0.527   0.255   2.506 -0.8505 -1.0673  0.1035
  943MOL0     C27174   0.572   0.132   2.543  0.0839  0.6656 -0.4837
  943MOL0     C27175   0.716   0.133   2.576  0.5614  0.7337  0.3757
  943MOL0     C27176   0.775   0.011   2.606 -0.3975  0.3256 -0.8185
  943MOL0     C27177   0.693  -0.109   2.626 -0.1887 -0.0732  0.3935
  943MOL0     O27178   0.759  -0.229   2.661 -0.8217  0.3447  0.6721
  943MOL0     C27179   0.672  -0.337   2.679 -0.3797 -0.0450 -0.2153
  943MOL0     C27180   0.759  -0.442   2.737  0.6060  0.6400 -0.3863
  943MOL0     C27181   0.669  -0.560   2.783  0.2401  0.0797 -0.4278
  943MOL0     C27182   0.558  -0.599   2.697 -0.5099  1.4741 -0.1462
  943MOL0     C27183   0.497  -0.728   2.755  0.3186  0.4567  0.2618
  943MOL0     C27184   0.351  -0.747   2.717  0.3076  0.8617 -0.0342
  943MOL0     C27185   0.294  -0.875   2.789  0.6286 -0.7545 -0.5817
  943MOL0     C27186   0.140  -0.884   2.779  0.2660 -0.1404 -1.3384
  943MOL0     N27187   0.083  -0.916   2.642 -0.0416  0.0026 -0.2718
  943MOL0     C27188   0.060  -1.047   2.598  0.5003  0.3451  0.4759
  943MOL0     C27189  -0.038  -1.034   2.511  0.1142  0.1065  0.3972
  943MOL0     C27190  -0.109  -1.135   2.426 -1.0651  0.3160 -0.0399
  943MOL0     C27191  -0.176  -1.245   2.506 -1.2735 -0.2384 -0.0182
  943MOL0     C27192  -0.251  -1.341   2.413 -0.4007 -0.4383  0.1581
  943MOL0     C27193  -0.348  -1.433   2.483 -0.2432  0.6699  0.4076
  943MOL0     O27194  -0.329  -1.442   2.626 -0.3832  0.6880  0.6876
  943MOL0     C27195  -0.451  -1.476   2.682  0.0749  0.2270  0.1281
  943MOL0     C27196  -0.516  -1.385   2.762 -0.3152  0.1246 -0.0167
  943MOL0     C27197  -0.630  -1.414   2.832 -0.0429  1.0700  0.2461
  943MOL0     C27198  -0.702  -1.302   2.907 -0.0618 -0.0549  0.0034
  943MOL0     C27199  -0.685  -1.548   2.817 -0.4291 -0.1836 -0.2656
  943MOL0     C27200  -0.805  -1.600   2.878 -0.5348  0.2422  0.0176
  943MOL0     O27201  -0.894  -1.666   2.793  0.2142 -0.1119 -0.0581
  943MOL0     C27202  -0.991  -1.750   2.843 -0.3415 -0.3899 -0.9040
  943MOL0     C27203  -0.953  -1.870   2.905 -0.8238  0.2788  1.0572
  943MOL0     C27204  -1.048  -1.947   2.972  0.3002  0.7981 -0.3253
  943MOL0     C27205  -1.184  -1.916   2.987  0.4230  0.0809 -0.3240
  943MOL0     O27206  -1.270  -2.004   3.055 -0.4796  0.6491 -0.6576
  943MOL0     C27207  -1.408  -1.993   3.021  1.1653 -0.3533  0.2549
  943MOL0     C27208  -1.489  -2.081   3.115 -0.3279  0.0750  0.7651
  943MOL0     C27209  -1.470  -2.044   3.254  0.8888 -0.3108 -0.0772
  943MOL0     C27210  -1.552  -2.122   3.342 -0.0539 -0.3058 -0.5456
  943MOL0     C27211  -1.567  -2.066   3.484 -0.6410  0.0986 -0.1825
  943MOL0     C27212  -1.679  -2.135   3.575  0.0892 -0.2592 -0.2395
  943MOL0     C27213  -1.673  -2.062   3.713  0.0638  0.2568  0.3008
  943MOL0     C27214  -1.771  -2.104   3.827  0.7830 -0.2294  0.4963
  943MOL0    Cl27215  -1.946  -2.112   3.765 -0.1172 -0.2488  0.2791
  943MOL0     C27216  -1.225  -1.786   2.927  0.5065 -0.7394 -0.8532
  943MOL0     C27217  -1.132  -1.709   2.855 -0.0775  0.4479 -0.5460
  943MOL0     O27218  -0.810  -1.590   2.995 -0.5092 -0.6322 -0.0854
  943MOL0     C27219  -0.602  -1.643   2.744 -0.3202 -1.0055 -0.7121
  943MOL0     C27220  -0.488  -1.599   2.675  0.3361  0.1760 -0.0059
  943MOL0     N27221  -0.065  -0.898   2.491 -0.9194 -0.3673  0.0867
  943MOL0     N27222   0.003  -0.832   2.574 -0.6693 -0.1105 -0.8023
  943MOL0     C27223   0.556  -0.106   2.591  0.6720  1.0824  0.0961
  943MOL0     C27224   0.493   0.016   2.563 -0.8721  0.2244 -0.0804
  943MOL0     C27225   0.392   0.415   2.385 -0.9993 -0.3523  0.9264
  943MOL0     C27226   0.465   0.517   2.440 -0.1629 -0.5719  0.1745
  943MOL0     C27227   0.435   0.650   2.407 -0.0442  0.3899 -0.2003
  943MOL0     C27228   0.341   0.685   2.316 -0.0426  0.5409 -0.0540
  943MOL0     O27229   0.301   0.809   2.279  0.4424  0.4300 -0.4381
  943MOL0     C27230   0.394   0.920   2.286  0.4263  0.3659 -0.7858
  943MOL0     C27231   0.466   0.950   2.156  0.6593 -0.4894  0.6308
  943MOL0     C27232   0.352   0.992   2.053  0.0685  0.2234  1.2533
  943MOL0     C27233   0.404   1.064   1.930  0.6576  0.6025  0.0228
  943MOL0     C27234   0.293   1.117   1.853  0.1595  0.2681 -0.0625
  943MOL0     C27235   0.200   1.146   1.781  0.8679  0.4950  0.7679
  943MOL0     C27236   0.263   0.580   2.260 -1.1460  0.3173  0.1170
  943MOL0     C27237   0.295   0.444   2.296 -0.1345 -0.5403  0.3660
  943MOL0     H27238   0.768   0.223   2.547 -0.0011  0.3492 -2.0513
  943MOL0     H27239   0.878   0.011   2.637 -0.9316 -0.8271  1.1128
  943MOL0     H27240   0.587  -0.320   2.744 -1.6887  2.5518 -2.4262
  943MOL0     H27241   0.636  -0.376   2.583  1.2270 -0.3732 -0.7312
  943MOL0     H27242   0.829  -0.469   2.658  1.3447  2.9809 -0.6120
  943MOL0     H27243   0.814  -0.414   2.827 -0.9805 -0.6706  1.0500
  943MOL0     H27244   0.738  -0.645   2.787  3.0275  2.2368  2.3844
  943MOL0     H27245   0.644  -0.541   2.887  4.1765  1.3953  0.4423
  943MOL0     H27246   0.478  -0.525   2.705 -2.1145 -0.3893  3.8157
  943MOL0     H27247   0.580  -0.615   2.590  0.1450 -1.9539  0.3707
  943MOL0     H27248   0.559  -0.806   2.708  0.9346  0.1947  1.4598
  943MOL0     H27249   0.503  -0.736   2.864 -0.0739 -0.4260  0.2306
  943MOL0     H27250   0.284  -0.671   2.757 -0.1929  1.1762 -1.4291
  943MOL0     H27251   0.343  -0.748   2.608  1.5730  0.2349 -0.1435
  943MOL0     H27252   0.340  -0.958   2.735 -1.6072 -1.1705 -1.9586
  943MOL0     H27253   0.322  -0.866   2.894  3.2863  1.7267 -1.3690
  943MOL0     H27254   0.100  -0.789   2.817 -1.7497 -1.5709  0.3530
  943MOL0     H27255   0.096  -0.954   2.850 -0.8772  1.7221 -0.1139
  943MOL0     H27256   0.093  -1.145   2.633  2.8581  0.9443  0.1339
  943MOL0     H27257  -0.176  -1.093   2.350 -1.6424 -2.4052 -1.1570
  943MOL0     H27258  -0.040  -1.185   2.357 -2.7475 -2.7742  0.3063
  943MOL0     H27259  -0.252  -1.201   2.571 -1.3368  2.7786 -1.9465
  943MOL0     H27260  -0.104  -1.299   2.568  0.4139  1.8508 -0.0353
  943MOL0     H27261  -0.176  -1.392   2.352 -0.0612 -2.0505  1.8397
  943MOL0     H27262  -0.303  -1.277   2.340  0.7798 -3.3776 -3.5639
  943MOL0     H27263  -0.348  -1.534   2.442 -2.0112  1.2413 -1.1968
  943MOL0     H27264  -0.454  -1.409   2.467 -0.5601 -0.8088  0.1957
  943MOL0     H27265  -0.479  -1.283   2.768  0.0237 -0.0485  1.3687
  943MOL0     H27266  -0.796  -1.285   2.855 -0.0069 -2.8155 -1.2070
  943MOL0     H27267  -0.726  -1.341   3.007  1.1242 -0.1710  0.2695
  943MOL0     H27268  -0.642  -1.211   2.911 -1.9686  1.4209 -2.5140
  943MOL0     H27269  -0.848  -1.897   2.910 -1.0493 -1.4170 -1.6161
  943MOL0     H27270  -1.007  -2.029   3.030  0.2933  0.4126 -0.8591
  943MOL0     H27271  -1.445  -1.893   3.048 -0.1768 -0.1772 -2.0480
  943MOL0     H27272  -1.442  -2.021   2.921 -0.7413 -2.7388  1.4587
  943MOL0     H27273  -1.590  -2.070   3.073 -0.0318  2.5301  0.5709
  943MOL0     H27274  -1.458  -2.185   3.096 -2.5927 -0.2743 -1.7263
  943MOL0     H27275  -1.480  -1.937   3.277  1.8707 -0.3493  0.5633
  943MOL0     H27276  -1.367  -2.062   3.284 -0.0461 -1.2082  3.0026
  943MOL0     H27277  -1.657  -2.126   3.309  0.1547 -1.3434 -1.1097
  943MOL0     H27278  -1.516  -2.225   3.337  1.3280  0.1499 -0.1580
  943MOL0     H27279  -1.594  -1.961   3.473  2.0430  0.8240 -0.5349
  943MOL0     H27280  -1.472  -2.075   3.538 -2.6084  0.8771  3.7346
  943MOL0     H27281  -1.774  -2.121   3.522 -0.2778  4.2539  1.1914
  943MOL0     H27282  -1.664  -2.243   3.590 -2.0010 -0.1871  3.6606
  943MOL0     H27283  -1.697  -1.956   3.700  0.5394  0.2226 -0.9884
  943MOL0     H27284  -1.572  -2.067   3.755  0.0800  1.1597  0.3851
  943MOL0     H27285  -1.764  -2.018   3.894  0.5382  2.7338 -2.9792
  943MOL0     H27286  -1.732  -2.194   3.876  1.9907  0.0363  0.0667
  943MOL0     H27287  -1.324  -1.742   2.916 -0.1775 -1.7260  0.9105
  943MOL0     H27288  -1.152  -1.615   2.804 -2.8027 -0.4538 -1.3175
  943MOL0     H27289  -0.638  -1.744   2.726 -0.5733 -1.7381  3.0172
  943MOL0     H27290  -0.432  -1.672   2.617 -1.3226 -0.7888 -0.4872
  943MOL0     H27291   0.492  -0.194   2.584  0.7699  1.0480 -0.3872
  943MOL0     H27292   0.389   0.024   2.534 -0.4021  1.3511 -1.5916
  943MOL0     H27293   0.552   0.495   2.501 -0.2275  0.1669  0.5502
  943MOL0     H27294   0.495   0.727   2.454  1.4916 -0.9995  0.2310
  943MOL0     H27295   0.332   1.000   2.327 -0.7395 -1.0213  0.3233
  943MOL0     H27296   0.479   0.902   2.352 -0.6259 -3.6746 -0.2117
  943MOL0     H27297   0.532   0.869   2.123  0.5011  0.5892 -2.6874
  943MOL0     H27298   0.532   1.037   2.158  1.5587 -0.9755 -2.4581
  943MOL0     H27299   0.264   1.040   2.096 -0.8860 -1.5074  1.3588
  943MOL0     H27300   0.303   0.900   2.017 -0.5315  1.0055 -0.0043
  943MOL0     H27301   0.466   1.002   1.864 -0.9440 -0.9602 -0.0945
  943MOL0     H27302   0.480   1.139   1.953  1.7834  0.1330 -1.9121
  943MOL0     H27303   0.118   1.162   1.715  0.3122 -2.5136  0.5820
  943MOL0     H27304   0.188   0.608   2.187 -1.0700  0.9026  0.2548
  943MOL0     H27305   0.237   0.365   2.248  0.4303  0.3167 -1.8422
  944MOL0     O27306   6.447  10.526   7.858 -0.5269 -0.0048 -0.1012
  944MOL0     C27307   6.438  10.461   7.747 -0.8796 -0.4731  0.0074
  944MOL0     O27308   6.516  10.362   7.712  0.0094  0.3595  0.6694
  944MOL0     C27309   6.622  10.322   7.786 -0.6442  0.1547  0.1897
  944MOL0     C27310   6.727  10.412   7.812  0.3715 -0.1978  0.4495
  944MOL0     C27311   6.837  10.368   7.889 -0.1084  0.2683  0.4420
  944MOL0     C27312   6.832  10.244   7.952  0.7178  0.3411  0.7786
  944MOL0     O27313   6.937  10.210   8.037 -0.1520  0.0861 -0.2956
  944MOL0     C27314   6.899  10.153   8.163 -0.3014  0.2242 -0.1604
  944MOL0     C27315   7.023  10.136   8.246  1.3679  0.0066  0.4773
  944MOL0     C27316   7.090  10.001   8.208  0.0135 -0.1596  0.7990
  944MOL0     C27317   7.249  10.012   8.231 -0.8296  0.1394  0.5640
  944MOL0     C27318   7.309   9.865   8.212 -0.3919  0.2838  0.4018
  944MOL0     C27319   7.253   9.751   8.294 -0.5722  0.2607 -0.0241
  944MOL0     C27320   7.337   9.621   8.296 -0.6898  0.2229 -0.6506
  944MOL0     C27321   7.354   9.572   8.157 -0.1741  0.7220  0.6189
  944MOL0     N27322   7.431   9.457   8.141  0.4296  0.6677  0.3228
  944MOL0     C27323   7.371   9.330   8.137 -0.1922  0.8818  0.9446
  944MOL0     C27324   7.465   9.245   8.101  0.9367 -0.3246 -0.0643
  944MOL0     C27325   7.438   9.104   8.045 -0.1447 -0.1675  0.8122
  944MOL0     C27326   7.446   8.998   8.165  1.3109  0.5832  0.9000
  944MOL0     C27327   7.434   8.853   8.118 -0.7003  0.3852  0.5376
  944MOL0     C27328   7.547   8.816   8.021  0.1265 -0.4562  0.4206
  944MOL0     O27329   7.538   8.686   7.974 -0.2254  0.1372 -0.3225
  944MOL0     C27330   7.624   8.585   8.012  0.3470  0.8603  0.6032
  944MOL0     C27331   7.587   8.465   8.061 -0.3432  0.9326 -0.0600
  944MOL0     C27332   7.687   8.366   8.096  0.0625  0.1433 -0.2598
  944MOL0     C27333   7.636   8.243   8.176 -0.3559 -0.5605 -0.6603
  944MOL0     C27334   7.825   8.372   8.068 -0.4336  0.2332  0.3313
  944MOL0     C27335   7.918   8.267   8.110  0.0702 -0.4382 -0.0961
  944MOL0     O27336   7.887   8.134   8.100  0.0225  0.5635 -0.2631
  944MOL0     C27337   7.986   8.038   8.115  0.1147  0.7116  0.3067
  944MOL0     C27338   8.117   8.052   8.077 -0.1927  0.0365 -0.2137
  944MOL0     C27339   8.202   7.947   8.069 -0.1384  1.1715 -0.2358
  944MOL0     C27340   8.152   7.828   8.117  0.4970 -0.2762 -1.0435
  944MOL0     O27341   8.247   7.729   8.127  0.1027  0.1888  0.1896
  944MOL0     C27342   8.237   7.639   8.234  0.8419  0.2664 -0.5830
  944MOL0     C27343   8.368   7.564   8.223  0.1148  0.4915  0.0880
  944MOL0     C27344   8.375   7.456   8.118  0.2042 -0.4004 -0.1726
  944MOL0     C27345   8.425   7.529   7.989  0.3197  0.4432 -0.8542
  944MOL0     C27346   8.474   7.430   7.883 -0.0054  0.3837  1.1187
  944MOL0     C27347   8.579   7.330   7.912 -0.0168 -0.0001  0.4680
  944MOL0     C27348   8.530   7.187   7.941  0.6865 -0.7041 -0.1990
  944MOL0     C27349   8.655   7.108   7.969 -0.0373 -0.2652  0.0773
  944MOL0    Cl27350   8.626   6.927   7.940  0.2532  0.0543  0.0382
  944MOL0     C27351   8.026   7.806   8.149  0.9508  0.4886  0.3197
  944MOL0     C27352   7.936   7.912   8.148 -0.0190 -0.2819  0.2764
  944MOL0     O27353   8.028   8.321   8.139 -1.0750 -0.4844 -0.8564
  944MOL0     C27354   7.862   8.495   8.006 -0.3885 -0.1329  0.0114
  944MOL0     C27355   7.759   8.596   7.982  0.1987 -0.1637  0.2783
  944MOL0     N27356   7.583   9.313   8.088 -0.1212 -0.1936 -0.2142
  944MOL0     N27357   7.560   9.445   8.099  0.4672 -0.0673 -0.4552
  944MOL0     C27358   6.732  10.156   7.918  0.8023 -0.0965 -0.2082
  944MOL0     C27359   6.625  10.196   7.837  0.1607  0.0828 -0.3565
  944MOL0     C27360   6.321  10.500   7.667  0.0320  0.3531 -0.7388
  944MOL0     C27361   6.275  10.413   7.570 -1.2311  0.3322 -0.5023
  944MOL0     C27362   6.148  10.424   7.514  0.2541 -0.0814 -0.3686
  944MOL0     C27363   6.067  10.531   7.546  0.4939  0.0710  0.1813
  944MOL0     O27364   5.951  10.556   7.471 -0.4628 -0.4125 -0.5147
  944MOL0     C27365   5.871  10.659   7.515  0.2194  0.0665  0.6599
  944MOL0     C27366   5.737  10.648   7.436  0.4748 -0.2296  0.2590
  944MOL0     C27367   5.640  10.556   7.499 -0.7385  0.8101  1.1086
  944MOL0     C27368   5.583  10.605   7.632 -0.0802  0.1830  0.1660
  944MOL0     C27369   5.450  10.552   7.643  0.6749 -0.0704 -0.3698
  944MOL0     C27370   5.342  10.516   7.666  0.5659  0.2408  0.4066
  944MOL0     C27371   6.117  10.630   7.632  0.2179  0.3836 -0.6484
  944MOL0     C27372   6.234  10.609   7.699 -0.8812 -0.7161  0.8115
  944MOL0     H27373   6.705  10.505   7.760 -0.2447  0.5535  2.0034
  944MOL0     H27374   6.922  10.430   7.915  1.9862 -1.9528 -0.6285
  944MOL0     H27375   6.836  10.227   8.214  0.4979 -0.2593  1.6035
  944MOL0     H27376   6.850  10.056   8.173 -0.7795  0.4615 -0.1825
  944MOL0     H27377   7.085  10.223   8.220  0.1241 -0.0965 -3.6212
  944MOL0     H27378   6.995  10.122   8.350 -1.2335 -1.5413 -0.3451
  944MOL0     H27379   7.052   9.920   8.269 -3.0418  0.6519  0.1508
  944MOL0     H27380   7.069   9.968   8.106  0.4175  0.0526  0.6441
  944MOL0     H27381   7.293  10.085   8.163  0.7153  0.5431  1.9382
  944MOL0     H27382   7.273  10.050   8.331 -0.9050  0.7810  0.3398
  944MOL0     H27383   7.295   9.837   8.107  0.7251 -0.2674  0.3835
  944MOL0     H27384   7.418   9.862   8.221 -0.0463  1.1649 -2.4185
  944MOL0     H27385   7.240   9.794   8.394 -0.5754 -0.9748  0.5186
  944MOL0     H27386   7.148   9.724   8.277 -0.9630  0.2313  2.1473
  944MOL0     H27387   7.439   9.641   8.331 -0.2739 -1.2207 -0.9454
  944MOL0     H27388   7.282   9.553   8.362  0.1314 -0.8325 -1.0230
  944MOL0     H27389   7.408   9.651   8.103 -0.7659  1.0645  0.5292
  944MOL0     H27390   7.258   9.549   8.111 -0.2976  1.1432  0.6628
  944MOL0     H27391   7.264   9.309   8.137  0.1245 -1.0946 -0.6147
  944MOL0     H27392   7.344   9.094   7.991 -1.4898 -3.5445  3.4434
  944MOL0     H27393   7.517   9.082   7.973 -1.3755 -1.3348 -0.2349
  944MOL0     H27394   7.361   9.012   8.233  0.6118 -1.4904  0.5201
  944MOL0     H27395   7.540   9.002   8.221  1.6880  0.0073  0.3190
  944MOL0     H27396   7.339   8.839   8.065  1.1499 -0.9527 -2.7202
  944MOL0     H27397   7.424   8.784   8.202 -1.3334  0.0739  0.2168
  944MOL0     H27398   7.641   8.835   8.073 -0.0934 -0.5433  0.8546
  944MOL0     H27399   7.549   8.882   7.934  3.8884 -0.3864  0.4082
  944MOL0     H27400   7.485   8.446   8.092 -0.2636  1.3458  0.4650
  944MOL0     H27401   7.653   8.156   8.113  2.4910  0.1073 -0.9615
  944MOL0     H27402   7.691   8.217   8.267 -0.3556 -0.5753 -0.6643
  944MOL0     H27403   7.530   8.250   8.201 -0.6420 -1.6430 -1.4879
  944MOL0     H27404   8.149   8.151   8.048  0.2829 -0.3790 -1.1341
  944MOL0     H27405   8.307   7.960   8.048 -0.1845  2.5202  0.2792
  944MOL0     H27406   8.227   7.687   8.332  1.7022 -0.2004 -0.2514
  944MOL0     H27407   8.147   7.580   8.220  1.0101 -0.2148  0.3078
  944MOL0     H27408   8.458   7.625   8.222  0.3206  0.3268 -3.4504
  944MOL0     H27409   8.371   7.514   8.320 -2.4049  1.9659  1.0254
  944MOL0     H27410   8.279   7.411   8.094  0.1272 -0.2453 -0.1609
  944MOL0     H27411   8.451   7.387   8.154  0.3793  0.0537  0.3523
  944MOL0     H27412   8.339   7.577   7.942 -0.7203 -0.8090 -0.3036
  944MOL0     H27413   8.501   7.604   8.013 -0.3014  1.0460 -0.7605
  944MOL0     H27414   8.501   7.503   7.807 -3.5446  1.3718  0.6351
  944MOL0     H27415   8.394   7.372   7.836  1.6358  1.0220 -2.8438
  944MOL0     H27416   8.643   7.311   7.825 -2.9172 -3.8670 -1.0874
  944MOL0     H27417   8.636   7.367   7.998 -2.3448  1.8463  1.3363
  944MOL0     H27418   8.466   7.147   7.862  1.0121 -3.4109  0.7893
  944MOL0     H27419   8.468   7.191   8.031 -1.4188  1.2793 -1.6432
  944MOL0     H27420   8.695   7.122   8.070  2.6637  3.2211 -1.2634
  944MOL0     H27421   8.731   7.136   7.895 -0.5014 -0.2887 -0.4145
  944MOL0     H27422   7.991   7.711   8.189 -1.0717  1.1048  0.1346
  944MOL0     H27423   7.837   7.873   8.165  0.6891 -2.0625  0.5555
  944MOL0     H27424   7.965   8.513   7.977 -1.2769  2.7969 -1.7951
  944MOL0     H27425   7.791   8.694   7.947 -3.0561  0.3777 -1.5690
  944MOL0     H27426   6.749  10.056   7.957 -0.0202  0.0031  0.4481
  944MOL0     H27427   6.548  10.126   7.806 -0.9725  1.0485  0.2097
  944MOL0     H27428   6.339  10.329   7.549 -0.8377  1.1802 -3.0673
  944MOL0     H27429   6.132  10.354   7.433  1.3909  0.7390 -1.3341
  944MOL0     H27430   5.861  10.655   7.624 -0.3761 -0.0663  0.6069
  944MOL0     H27431   5.927  10.748   7.487  2.2685 -1.7925 -1.5266
  944MOL0     H27432   5.748  10.616   7.332 -4.0889  2.7062 -1.4709
  944MOL0     H27433   5.701  10.751   7.437  0.4323 -0.2495  0.6368
  944MOL0     H27434   5.682  10.455   7.508 -1.8496  0.3049  0.8385
  944MOL0     H27435   5.557  10.547   7.428  0.3087 -0.8549  0.0249
  944MOL0     H27436   5.583  10.714   7.623  1.1872  0.0177 -3.0123
  944MOL0     H27437   5.651  10.581   7.715  0.5941 -1.3849 -0.7865
  944MOL0     H27438   5.246  10.470   7.682  0.3207  0.6349  0.0941
  944MOL0     H27439   6.057  10.716   7.659 -2.2368 -1.0653 -1.1672
  944MOL0     H27440   6.262  10.691   7.764  3.0465  1.9237 -3.5357
  945MOL0     O27441   4.288   3.950   8.568 -1.1275 -0.6042  0.1455
  945MOL0     C27442   4.371   3.971   8.660 -0.0305  1.4307 -0.6667
  945MOL0     O27443   4.493   4.026   8.643 -0.2555 -0.4833 -1.1508
  945MOL0     C27444   4.537   4.076   8.522 -0.4432 -0.2976  0.1777
  945MOL0     C27445   4.659   4.157   8.538  0.1272  1.1968  0.1969
  945MOL0     C27446   4.711   4.218   8.422 -0.5725  0.6597 -0.2823
  945MOL0     C27447   4.660   4.191   8.293 -0.1637  0.2112  0.1960
  945MOL0     O27448   4.726   4.245   8.190 -0.2603  0.2072  0.1277
  945MOL0     C27449   4.709   4.183   8.060  0.4847  0.1407 -0.4498
  945MOL0     C27450   4.828   4.215   7.977  0.6352 -0.0914  1.0049
  945MOL0     C27451   4.811   4.177   7.830  0.7988  0.5526  0.3383
  945MOL0     C27452   4.762   4.033   7.810 -0.4133 -0.3933  0.4208
  945MOL0     C27453   4.788   3.993   7.669  0.2135  1.3965 -0.4877
  945MOL0     C27454   4.702   3.874   7.625  0.3070 -0.1554 -0.0090
  945MOL0     C27455   4.739   3.849   7.481  0.3976 -0.2532  0.5102
  945MOL0     C27456   4.680   3.726   7.402  0.3820 -0.0414  0.2925
  945MOL0     N27457   4.528   3.735   7.385 -1.3248  0.4855  0.7685
  945MOL0     C27458   4.453   3.839   7.320 -0.7404  1.2218 -1.0244
  945MOL0     C27459   4.318   3.802   7.325 -0.5397 -0.0371  0.6896
  945MOL0     C27460   4.202   3.889   7.296  0.2304 -0.2543 -0.0279
  945MOL0     C27461   4.180   3.992   7.409 -0.6514 -0.0531 -0.7613
  945MOL0     C27462   4.046   4.057   7.393 -0.3194  0.5091 -0.0760
  945MOL0     C27463   4.017   4.153   7.505 -0.4672 -0.2592 -0.8402
  945MOL0     O27464   4.045   4.285   7.468 -0.3792  0.1312 -0.6635
  945MOL0     C27465   4.010   4.380   7.567 -0.3500 -0.6000  0.6511
  945MOL0     C27466   4.031   4.512   7.515 -0.0979  0.4165  0.5934
  945MOL0     C27467   3.990   4.618   7.594 -0.3638 -0.4638 -0.0918
  945MOL0     C27468   3.999   4.749   7.520 -0.0411  0.0069  0.5267
  945MOL0     C27469   3.938   4.596   7.724  0.2176  0.1497  0.0183
  945MOL0     C27470   3.917   4.702   7.815 -0.2325 -0.9612  0.3578
  945MOL0     O27471   3.794   4.753   7.810  1.0641  0.1845 -0.6908
  945MOL0     C27472   3.791   4.884   7.854 -0.0995 -0.7459  0.5872
  945MOL0     C27473   3.812   4.996   7.766 -0.4305 -0.3672  0.2527
  945MOL0     C27474   3.797   5.128   7.813 -0.8935 -0.2694 -0.9119
  945MOL0     C27475   3.726   5.143   7.928 -0.0896 -0.1886 -0.7970
  945MOL0     O27476   3.694   5.269   7.957  0.0298 -0.9658 -0.0513
  945MOL0     C27477   3.556   5.307   7.988 -0.5314  1.3949 -0.4914
  945MOL0     C27478   3.457   5.271   7.880 -0.0502  0.3682  0.2882
  945MOL0     C27479   3.317   5.340   7.910 -0.5120  0.3451 -0.2612
  945MOL0     C27480   3.309   5.475   7.838 -0.6758 -0.2860  0.6314
  945MOL0     C27481   3.178   5.558   7.857 -0.2285  1.1125 -0.3003
  945MOL0     C27482   3.157   5.655   7.727 -0.0359  0.3418  0.2259
  945MOL0     C27483   3.251   5.770   7.722  0.1755  0.8733  1.0690
  945MOL0     C27484   3.217   5.855   7.597 -0.2529  0.3884  1.0308
  945MOL0    Cl27485   3.252   5.768   7.455 -0.2383 -0.2057  0.0312
  945MOL0     C27486   3.700   5.044   8.015 -0.5294  0.0521 -0.1090
  945MOL0     C27487   3.740   4.911   7.977  0.3878 -0.3211 -0.1473
  945MOL0     O27488   4.011   4.744   7.879  0.4955 -0.8620 -0.7813
  945MOL0     C27489   3.927   4.465   7.772 -0.6144  0.5273  0.3898
  945MOL0     C27490   3.962   4.351   7.694 -0.2566 -0.0417  0.3288
  945MOL0     N27491   4.323   3.685   7.396 -0.1625  0.0889 -0.7552
  945MOL0     N27492   4.441   3.642   7.428  1.0262 -0.9162 -0.2928
  945MOL0     C27493   4.548   4.112   8.277 -0.3179 -0.8112  0.0409
  945MOL0     C27494   4.478   4.065   8.391  0.0417  0.5728  0.1477
  945MOL0     C27495   4.327   3.922   8.798 -0.5009 -0.2192  0.2573
  945MOL0     C27496   4.192   3.891   8.830 -0.1371  0.6070 -0.3563
  945MOL0     C27497   4.147   3.865   8.959  0.1832  0.2781  0.1526
  945MOL0     C27498   4.240   3.857   9.064 -0.3173  0.3963  0.1478
  945MOL0     O27499   4.214   3.836   9.193  0.7242 -0.0019  0.5488
  945MOL0     C27500   4.093   3.762   9.219  0.1254  0.9659  0.2616
  945MOL0     C27501   4.079   3.695   9.353  0.6111 -0.1266  0.0045
  945MOL0     C27502   4.111   3.779   9.484  0.8350  0.4298 -0.1970
  945MOL0     C27503   4.064   3.696   9.611  0.9173  0.2085 -0.0233
  945MOL0     C27504   4.119   3.737   9.736 -0.3905  0.0508 -0.8750
  945MOL0     C27505   4.165   3.754   9.844 -0.1054 -0.2372 -0.0316
  945MOL0     C27506   4.382   3.882   9.031  0.1347 -0.3166 -0.3397
  945MOL0     C27507   4.423   3.913   8.898  0.0802 -0.2752 -0.4034
  945MOL0     H27508   4.699   4.181   8.636  0.4123  2.0635 -0.1254
  945MOL0     H27509   4.800   4.280   8.430  0.3954 -0.6908 -0.1061
  945MOL0     H27510   4.704   4.075   8.081 -1.1240  0.1011 -0.9088
  945MOL0     H27511   4.625   4.232   8.010  0.4294  1.1469  0.5844
  945MOL0     H27512   4.844   4.322   7.986 -3.1467  0.8169 -0.9162
  945MOL0     H27513   4.917   4.161   8.012  2.1222  0.6031 -1.4508
  945MOL0     H27514   4.742   4.250   7.787 -1.4815 -2.4435 -1.4918
  945MOL0     H27515   4.907   4.199   7.783  0.2003  0.3334 -1.0332
  945MOL0     H27516   4.810   3.959   7.875 -0.8417 -1.2370 -0.1963
  945MOL0     H27517   4.656   4.025   7.837 -1.1849  0.9602 -1.9339
  945MOL0     H27518   4.769   4.070   7.595  0.1595  0.0805 -1.8949
  945MOL0     H27519   4.895   3.979   7.653 -0.1737  0.7735 -2.9385
  945MOL0     H27520   4.715   3.783   7.685  2.7186  0.4155  0.4561
  945MOL0     H27521   4.596   3.897   7.637  0.2658 -0.7835  0.9533
  945MOL0     H27522   4.714   3.935   7.417  1.9557  0.5791  0.9823
  945MOL0     H27523   4.847   3.837   7.472  1.0121  1.5518  3.7360
  945MOL0     H27524   4.711   3.638   7.458 -0.8591  1.3254  3.3858
  945MOL0     H27525   4.720   3.710   7.302  3.6858  0.2861  1.4507
  945MOL0     H27526   4.489   3.933   7.281  4.2346 -1.1981 -3.1428
  945MOL0     H27527   4.218   3.948   7.206 -1.5779  1.1540  0.5141
  945MOL0     H27528   4.115   3.827   7.272  0.6136 -1.3045  1.1830
  945MOL0     H27529   4.266   4.059   7.403 -0.2349 -0.6793 -2.5338
  945MOL0     H27530   4.192   3.938   7.503  0.1732 -0.7699 -1.2637
  945MOL0     H27531   3.968   3.980   7.388  0.8514 -0.6267 -2.1889
  945MOL0     H27532   4.045   4.116   7.301 -0.8371  1.1495  0.3294
  945MOL0     H27533   4.087   4.128   7.585  1.0431 -1.3605 -2.4178
  945MOL0     H27534   3.912   4.145   7.535 -0.8816  2.0956 -1.4494
  945MOL0     H27535   4.074   4.513   7.416  0.7940  0.1849  0.9671
  945MOL0     H27536   4.067   4.764   7.435 -0.4070  2.4071  0.5650
  945MOL0     H27537   3.909   4.770   7.460  0.3461  0.2872  0.0270
  945MOL0     H27538   4.023   4.837   7.580  0.8594  0.5734 -0.6152
  945MOL0     H27539   3.869   4.993   7.674  1.5522 -0.7243  1.4146
  945MOL0     H27540   3.818   5.210   7.745  1.2749 -0.7942 -0.9420
  945MOL0     H27541   3.531   5.275   8.089  2.6425  0.4832  0.1111
  945MOL0     H27542   3.550   5.416   7.992 -0.6281  1.3469  1.7369
  945MOL0     H27543   3.495   5.304   7.783 -2.1975 -1.7111 -1.4000
  945MOL0     H27544   3.447   5.163   7.865 -0.7399  0.2758  1.2780
  945MOL0     H27545   3.285   5.351   8.014  2.5175 -0.7900  0.8988
  945MOL0     H27546   3.245   5.268   7.870 -1.4176  1.3912 -0.5533
  945MOL0     H27547   3.393   5.538   7.869 -1.1391  0.3219  0.6701
  945MOL0     H27548   3.309   5.462   7.730 -2.0526 -0.0597  0.5843
  945MOL0     H27549   3.187   5.613   7.951  1.1217  3.1804 -1.5487
  945MOL0     H27550   3.091   5.491   7.856  0.1215  0.6443 -1.6898
  945MOL0     H27551   3.147   5.602   7.632  1.7852 -1.1243  0.7785
  945MOL0     H27552   3.058   5.701   7.730  0.3659  1.1982  2.5630
  945MOL0     H27553   3.349   5.722   7.720  0.0026  0.4474 -2.1889
  945MOL0     H27554   3.245   5.834   7.810 -1.0141  1.3503  0.6613
  945MOL0     H27555   3.276   5.947   7.604  1.4635 -0.5624 -0.2339
  945MOL0     H27556   3.111   5.882   7.603 -0.2132  0.2950  2.5538
  945MOL0     H27557   3.643   5.049   8.107 -2.6083  1.7765 -1.3883
  945MOL0     H27558   3.749   4.832   8.051  3.0654 -0.3857 -0.4562
  945MOL0     H27559   3.903   4.445   7.876  0.4826 -2.2300  0.2107
  945MOL0     H27560   3.944   4.254   7.740 -0.4049  1.0629  2.7038
  945MOL0     H27561   4.499   4.084   8.184 -1.8169 -1.6954  1.0492
  945MOL0     H27562   4.395   3.996   8.382  0.8104 -0.2646 -0.7300
  945MOL0     H27563   4.124   3.887   8.745 -0.2426 -1.9664 -0.2226
  945MOL0     H27564   4.042   3.846   8.974  0.2393 -0.8170 -0.7469
  945MOL0     H27565   4.007   3.825   9.195  1.4945  3.1383  0.7456
  945MOL0     H27566   4.082   3.680   9.148 -4.3254 -1.3940  3.1554
  945MOL0     H27567   4.130   3.598   9.358 -1.3793 -1.1701  1.8961
  945MOL0     H27568   3.973   3.668   9.355 -0.2266  2.6818 -1.3628
  945MOL0     H27569   4.047   3.867   9.482  1.5652  1.1562  3.0824
  945MOL0     H27570   4.212   3.818   9.498  0.3450  0.9619  2.1916
  945MOL0     H27571   4.077   3.588   9.602  2.6408  0.4903 -1.3449
  945MOL0     H27572   3.956   3.716   9.614  0.9019  0.3263 -1.0142
  945MOL0     H27573   4.229   3.788   9.924  3.4045  0.7453 -2.9517
  945MOL0     H27574   4.453   3.877   9.114 -1.0944 -3.3448  0.6562
  945MOL0     H27575   4.526   3.929   8.869  0.4462  2.3016  1.8983
  946MOL0     O27576   3.386   9.062   1.127 -0.2246  0.3317 -0.5220
  946MOL0     C27577   3.326   9.170   1.137 -0.4241  0.3759 -0.5494
  946MOL0     O27578   3.360   9.263   1.233  0.8895 -0.5620 -0.3248
  946MOL0     C27579   3.464   9.240   1.318  0.1453  0.0552 -0.2019
  946MOL0     C27580   3.453   9.214   1.458 -0.6709  0.8713  0.4233
  946MOL0     C27581   3.561   9.190   1.542 -0.3346  0.1490 -0.2389
  946MOL0     C27582   3.690   9.182   1.488 -0.5845  0.3279 -0.5974
  946MOL0     O27583   3.786   9.152   1.583 -0.7622 -0.2757  0.2638
  946MOL0     C27584   3.924   9.129   1.543 -0.5874  0.0359 -0.8871
  946MOL0     C27585   4.002   9.261   1.564  0.3336 -0.6825 -0.3936
  946MOL0     C27586   4.152   9.253   1.542  0.2221  0.4882  0.2630
  946MOL0     C27587   4.229   9.383   1.571  0.1421 -0.1357 -0.1049
  946MOL0     C27588   4.176   9.502   1.503  0.5661  0.1687 -0.9148
  946MOL0     C27589   4.274   9.624   1.509  0.0322  0.5868  0.2931
  946MOL0     C27590   4.208   9.741   1.423  0.2212 -0.0935  1.0466
  946MOL0     C27591   4.271   9.869   1.455 -0.2267 -0.7434 -0.0924
  946MOL0     N27592   4.204   9.990   1.401 -0.4114  0.1658  0.1189
  946MOL0     C27593   4.225  10.115   1.460 -0.0072 -0.4712 -0.1827
  946MOL0     C27594   4.157  10.197   1.377 -0.9602 -0.9398 -0.1485
  946MOL0     C27595   4.134  10.336   1.406  0.4550 -0.2724  0.5544
  946MOL0     C27596   3.999  10.379   1.456 -0.1063 -0.0638  0.5327
  946MOL0     C27597   4.001  10.523   1.493  0.3638 -0.3128 -0.0096
  946MOL0     C27598   4.046  10.540   1.640  0.0392  0.6785  0.3062
  946MOL0     O27599   4.080  10.682   1.664 -0.0689  0.5220  0.1461
  946MOL0     C27600   3.972  10.774   1.682 -1.2878 -0.2414  0.2156
  946MOL0     C27601   4.010  10.904   1.664  0.7674 -1.0063 -0.1938
  946MOL0     C27602   3.919  11.011   1.685  0.2241 -0.1691  0.9459
  946MOL0     C27603   3.974  11.147   1.671  0.2627  0.5890  0.1717
  946MOL0     C27604   3.780  10.975   1.708  0.8071  0.4012 -0.3602
  946MOL0     C27605   3.688  11.085   1.737  0.2095 -0.0703  0.1799
  946MOL0     O27606   3.709  11.212   1.691 -0.0970  0.3213 -0.2816
  946MOL0     C27607   3.620  11.306   1.726  0.2276 -1.2606 -0.1040
  946MOL0     C27608   3.480  11.296   1.689  0.3872  0.1686  0.2740
  946MOL0     C27609   3.385  11.403   1.709 -0.6093 -0.0445  0.6322
  946MOL0     C27610   3.424  11.515   1.792  0.6890 -0.1844 -0.2852
  946MOL0     O27611   3.331  11.610   1.816 -0.4785  0.8128  0.6286
  946MOL0     C27612   3.371  11.739   1.872 -0.3543  0.2586 -0.1005
  946MOL0     C27613   3.247  11.825   1.881  0.3596 -1.0790  0.6774
  946MOL0     C27614   3.147  11.763   1.990  0.6306 -0.0767  0.4840
  946MOL0     C27615   3.079  11.867   2.084  0.0989  0.8647  0.0808
  946MOL0     C27616   2.954  11.817   2.164 -0.6504 -0.3308  0.8876
  946MOL0     C27617   2.845  11.757   2.075 -0.0874  0.1334  0.4245
  946MOL0     C27618   2.793  11.856   1.962 -0.0053 -0.5547 -0.5076
  946MOL0     C27619   2.661  11.804   1.911 -0.0397 -0.1396  0.1905
  946MOL0    Cl27620   2.603  11.913   1.773 -0.0430 -0.0363  0.3366
  946MOL0     C27621   3.554  11.520   1.844  0.2856 -0.1809  0.8784
  946MOL0     C27622   3.651  11.424   1.806 -1.2045 -0.8978 -0.2690
  946MOL0     O27623   3.588  11.037   1.796 -0.1409 -0.2299 -0.6448
  946MOL0     C27624   3.744  10.833   1.713 -0.4329  0.4991 -0.5921
  946MOL0     C27625   3.839  10.736   1.692  0.1413  0.6249  0.6883
  946MOL0     N27626   4.101  10.118   1.271 -0.0100 -0.7851  0.1998
  946MOL0     N27627   4.130   9.997   1.290  0.2923  0.7131  0.5342
  946MOL0     C27628   3.704   9.205   1.349 -0.8156  0.3553 -0.0727
  946MOL0     C27629   3.597   9.238   1.262  0.8341 -0.7867  0.0420
  946MOL0     C27630   3.219   9.193   1.037 -0.0851 -0.3387 -0.4310
  946MOL0     C27631   3.093   9.245   1.080 -0.4081 -0.2179  0.2651
  946MOL0     C27632   2.992   9.265   0.988 -0.0812  0.3096  0.0671
  946MOL0     C27633   3.011   9.232   0.853  0.4281  0.5822 -0.0499
  946MOL0     O27634   2.901   9.253   0.772  0.0559  0.4240 -0.1025
  946MOL0     C27635   2.882   9.150   0.672 -0.5470 -0.2217  0.3194
  946MOL0     C27636   2.917   9.203   0.527 -0.2637  1.1660 -0.1850
  946MOL0     C27637   2.818   9.313   0.489  0.0671  0.5744  0.2447
  946MOL0     C27638   2.835   9.366   0.341  0.0081  0.0067 -0.6596
  946MOL0     C27639   2.715   9.391   0.278 -0.5283  0.0555 -0.5078
  946MOL0     C27640   2.604   9.389   0.230 -0.0479  0.1490 -0.2608
  946MOL0     C27641   3.132   9.177   0.807 -0.0969 -0.5681 -0.3376
  946MOL0     C27642   3.234   9.166   0.898 -0.8390  0.2850 -0.4848
  946MOL0     H27643   3.353   9.216   1.500 -1.9037 -0.8973 -2.1436
  946MOL0     H27644   3.540   9.185   1.648 -0.7706  1.7168 -0.2320
  946MOL0     H27645   3.967   9.052   1.607  1.5736  0.2531 -1.9791
  946MOL0     H27646   3.924   9.087   1.442 -2.2183  0.1842 -0.9841
  946MOL0     H27647   3.964   9.342   1.501 -0.9071 -1.3796 -0.5664
  946MOL0     H27648   3.981   9.290   1.668 -0.9653 -0.3323 -0.7391
  946MOL0     H27649   4.199   9.172   1.598 -0.9521 -1.4701 -1.4377
  946MOL0     H27650   4.172   9.230   1.437  2.4183 -3.0938  1.3210
  946MOL0     H27651   4.243   9.401   1.678  0.8665 -0.6487 -0.1011
  946MOL0     H27652   4.325   9.366   1.522  1.1817  0.9930  1.4317
  946MOL0     H27653   4.141   9.484   1.401  1.3892  0.0114 -1.1729
  946MOL0     H27654   4.088   9.544   1.553  0.9789 -0.9093  0.7725
  946MOL0     H27655   4.273   9.656   1.613  1.9194  1.6294  0.0467
  946MOL0     H27656   4.376   9.596   1.481 -0.5746 -0.8535 -0.5778
  946MOL0     H27657   4.204   9.724   1.315 -3.3202  2.0417  0.6938
  946MOL0     H27658   4.107   9.762   1.457 -0.3316 -1.6849  0.4695
  946MOL0     H27659   4.375   9.877   1.420 -0.1109 -2.4158 -0.2257
  946MOL0     H27660   4.276   9.887   1.563  2.1961  2.6190 -0.6014
  946MOL0     H27661   4.281  10.150   1.546 -0.9640 -0.0061  0.2779
  946MOL0     H27662   4.205  10.358   1.485  0.1098  2.3960  0.2089
  946MOL0     H27663   4.160  10.396   1.318 -1.2324  0.2386  0.3739
  946MOL0     H27664   3.966  10.315   1.538  0.0184  1.7774  2.0963
  946MOL0     H27665   3.937  10.362   1.367  1.4050  1.4880 -0.9221
  946MOL0     H27666   3.899  10.560   1.482 -0.0704 -2.0536 -2.6626
  946MOL0     H27667   4.075  10.576   1.432 -0.7210 -1.8396 -2.8102
  946MOL0     H27668   4.142  10.490   1.654  0.3077  1.7924  3.0127
  946MOL0     H27669   3.979  10.495   1.714  0.1957 -0.2299 -0.0871
  946MOL0     H27670   4.117  10.914   1.651  0.6501  1.8323  0.3945
  946MOL0     H27671   3.953  11.202   1.764 -1.8484  1.7148 -0.8925
  946MOL0     H27672   4.082  11.144   1.657  0.2086  4.3003 -2.3329
  946MOL0     H27673   3.932  11.198   1.584 -3.4949  3.7134  3.4153
  946MOL0     H27674   3.456  11.203   1.638  3.2470 -1.0044  0.8767
  946MOL0     H27675   3.282  11.401   1.675  0.4436  0.6398 -2.9900
  946MOL0     H27676   3.412  11.736   1.974  1.3204 -1.2988 -0.7713
  946MOL0     H27677   3.452  11.788   1.817 -0.7093  1.5542  0.4867
  946MOL0     H27678   3.281  11.927   1.900 -0.3584 -0.2514 -2.0402
  946MOL0     H27679   3.194  11.812   1.786  1.6142 -0.2316 -0.1702
  946MOL0     H27680   3.209  11.702   2.056 -1.9150  0.7139  3.8394
  946MOL0     H27681   3.068  11.713   1.933  1.9632 -0.6065 -0.9834
  946MOL0     H27682   3.147  11.909   2.158 -0.7819  3.7853 -0.6376
  946MOL0     H27683   3.051  11.955   2.024  1.2933  2.5728  1.9083
  946MOL0     H27684   2.907  11.904   2.210  0.2022  0.0433  1.0693
  946MOL0     H27685   2.979  11.755   2.250  1.6721 -0.0025  0.5332
  946MOL0     H27686   2.884  11.661   2.040  2.6302  1.5324 -0.7168
  946MOL0     H27687   2.759  11.735   2.137 -1.1746  0.6224 -0.8525
  946MOL0     H27688   2.867  11.862   1.882 -0.1458  1.7791 -0.5138
  946MOL0     H27689   2.773  11.955   2.004 -1.7371  0.0738 -2.6148
  946MOL0     H27690   2.582  11.784   1.984 -1.0342 -0.3114 -0.8914
  946MOL0     H27691   2.681  11.703   1.874  1.7274  0.4718 -0.6348
  946MOL0     H27692   3.594  11.600   1.906  1.1877  0.6721 -0.7381
  946MOL0     H27693   3.754  11.430   1.840 -0.6162 -1.6741 -1.8152
  946MOL0     H27694   3.642  10.797   1.722  1.2194 -4.7550  0.6288
  946MOL0     H27695   3.814  10.630   1.695  3.6533 -0.5540 -3.0118
  946MOL0     H27696   3.807   9.199   1.317 -1.2190  3.8533 -2.5718
  946MOL0     H27697   3.611   9.259   1.157 -1.8027  0.0098 -0.2424
  946MOL0     H27698   3.089   9.269   1.185 -0.7167 -3.1061  0.9983
  946MOL0     H27699   2.892   9.293   1.021 -2.1210 -3.5077 -2.1329
  946MOL0     H27700   2.930   9.058   0.705  0.2678 -0.1134 -0.5136
  946MOL0     H27701   2.778   9.118   0.678 -0.4933 -0.4609 -0.0059
  946MOL0     H27702   2.887   9.122   0.459 -1.6690  1.6327 -0.1524
  946MOL0     H27703   3.024   9.226   0.517  1.3511 -4.5404  0.1238
  946MOL0     H27704   2.840   9.398   0.555  3.7736 -0.6075  0.7547
  946MOL0     H27705   2.717   9.280   0.513  1.1062 -1.8644  1.6040
  946MOL0     H27706   2.904   9.308   0.279  1.3007  1.7895 -0.9651
  946MOL0     H27707   2.883   9.465   0.344  1.9029 -0.8403  2.7201
  946MOL0     H27708   2.502   9.370   0.201 -0.0908 -1.3711  0.7132
  946MOL0     H27709   3.156   9.164   0.701 -0.7505  1.1841 -0.7341
  946MOL0     H27710   3.330   9.124   0.867  0.6318  2.3330  1.0301
  947MOL0     O27711   7.822  10.346   8.006  0.2210  0.6779  0.6951
  947MOL0     C27712   7.890  10.399   7.917 -1.1382  0.2916  1.1166
  947MOL0     O27713   8.010  10.353   7.858  0.2937  0.0946 -0.6692
  947MOL0     C27714   8.020  10.217   7.862  0.8188 -0.0738  0.3768
  947MOL0     C27715   7.924  10.134   7.799  0.1850 -0.8432 -0.4754
  947MOL0     C27716   7.931   9.997   7.797 -0.0407  0.5928  0.6013
  947MOL0     C27717   8.035   9.928   7.847 -1.0458 -0.4862  0.5842
  947MOL0     O27718   8.036   9.795   7.824  0.6166  0.3041 -0.0827
  947MOL0     C27719   8.146   9.708   7.868 -1.1482 -0.4189 -0.5717
  947MOL0     C27720   8.110   9.567   7.821  0.2404  0.4303  0.6385
  947MOL0     C27721   8.000   9.487   7.893  0.2143  0.3299  0.4560
  947MOL0     C27722   8.036   9.465   8.037 -0.1204  0.1883  0.0020
  947MOL0     C27723   7.943   9.371   8.109 -0.0600 -0.6589 -0.3716
  947MOL0     C27724   8.010   9.343   8.247  0.3556 -0.0920 -1.0127
  947MOL0     C27725   7.933   9.241   8.337 -0.7832 -1.3189  0.2890
  947MOL0     C27726   7.785   9.246   8.315  0.1285 -0.4177 -0.7278
  947MOL0     N27727   7.715   9.182   8.424 -0.1381  0.8550 -0.2622
  947MOL0     C27728   7.652   9.253   8.521  0.4861 -0.0170 -0.5802
  947MOL0     C27729   7.570   9.162   8.578  0.0697 -0.1939 -0.7705
  947MOL0     C27730   7.491   9.189   8.699  0.4092  0.3395 -0.8699
  947MOL0     C27731   7.417   9.329   8.709 -0.3878 -0.6388  0.0932
  947MOL0     C27732   7.330   9.364   8.584 -0.2650 -0.2055  0.3559
  947MOL0     C27733   7.216   9.256   8.564  0.3044 -0.1589 -0.5202
  947MOL0     O27734   7.124   9.239   8.675 -0.3658  0.1105 -0.8611
  947MOL0     C27735   7.115   9.112   8.731 -1.3997 -0.2618  0.4832
  947MOL0     C27736   7.124   8.990   8.661 -0.4169  0.0535  0.0112
  947MOL0     C27737   7.118   8.865   8.732 -0.0181 -0.7630  0.8039
  947MOL0     C27738   7.141   8.737   8.662  0.6473  0.7796 -0.2203
  947MOL0     C27739   7.088   8.869   8.870  0.7344  1.4302 -0.0304
  947MOL0     C27740   7.080   8.749   8.964  0.4859 -0.7522 -0.6577
  947MOL0     O27741   7.079   8.777   9.095 -0.2743  0.1461 -0.2374
  947MOL0     C27742   7.039   8.677   9.180 -0.6292 -0.8115 -0.0585
  947MOL0     C27743   7.143   8.609   9.246  0.5747 -0.1989 -0.0438
  947MOL0     C27744   7.104   8.497   9.332  0.1662 -0.4618 -0.3554
  947MOL0     C27745   6.970   8.463   9.346 -0.7275  0.3154  0.0976
  947MOL0     O27746   6.949   8.342   9.419  0.2045 -0.5775  0.0431
  947MOL0     C27747   6.818   8.309   9.461 -0.0301 -0.2040 -0.7651
  947MOL0     C27748   6.806   8.176   9.545 -0.3800 -0.9053 -0.3303
  947MOL0     C27749   6.811   8.047   9.462 -0.3085 -0.1124  0.0159
  947MOL0     C27750   6.722   8.051   9.338 -0.9694 -0.2226 -0.3020
  947MOL0     C27751   6.724   7.914   9.272 -0.1548  0.0480  0.2247
  947MOL0     C27752   6.725   7.944   9.122  0.1511  0.2277 -0.0279
  947MOL0     C27753   6.695   7.818   9.033  0.3253  0.4074  0.1209
  947MOL0     C27754   6.742   7.827   8.888 -0.1022 -0.5655 -0.1265
  947MOL0    Cl27755   6.644   7.948   8.804 -0.0307 -0.4458 -0.1465
  947MOL0     C27756   6.868   8.538   9.290 -0.1044  0.2834 -0.0681
  947MOL0     C27757   6.907   8.650   9.212 -0.3555 -0.0900  1.0344
  947MOL0     O27758   7.046   8.642   8.917  0.4299  0.9521 -0.6503
  947MOL0     C27759   7.062   8.991   8.927  0.4566 -0.3774 -0.0624
  947MOL0     C27760   7.071   9.109   8.860 -0.0059  0.3675  0.4966
  947MOL0     N27761   7.587   9.039   8.525 -0.1477 -0.3605  1.0459
  947MOL0     N27762   7.684   9.051   8.441 -0.3846  0.4382 -0.1915
  947MOL0     C27763   8.129  10.010   7.922 -0.1639 -0.4440  0.0934
  947MOL0     C27764   8.114  10.149   7.934  0.0118 -0.1441 -0.3811
  947MOL0     C27765   7.830  10.514   7.842  0.1591  0.1361 -0.6083
  947MOL0     C27766   7.691  10.527   7.844 -0.4581 -0.3424  0.2857
  947MOL0     C27767   7.625  10.642   7.787 -0.8018  0.8773 -0.3271
  947MOL0     C27768   7.702  10.731   7.716  0.0060 -0.4000  0.3913
  947MOL0     O27769   7.653  10.855   7.674  0.2949  0.3453  1.1950
  947MOL0     C27770   7.725  10.971   7.707 -0.5922 -0.5059  0.7467
  947MOL0     C27771   7.610  11.077   7.707 -0.3697 -0.2829 -0.3525
  947MOL0     C27772   7.681  11.209   7.743  0.3468  0.2851  0.1350
  947MOL0     C27773   7.594  11.321   7.797 -0.4120 -0.0385 -0.7361
  947MOL0     C27774   7.655  11.455   7.786 -0.6294 -1.2771 -0.2993
  947MOL0     C27775   7.708  11.565   7.796  0.6666 -0.2401  0.0545
  947MOL0     C27776   7.846  10.713   7.710  0.3080  0.1973  0.1850
  947MOL0     C27777   7.904  10.604   7.771  0.6180  0.6213  0.5453
  947MOL0     H27778   7.848  10.175   7.732 -0.1280 -1.3646 -0.4403
  947MOL0     H27779   7.853   9.948   7.740  1.8231  0.3526 -1.9193
  947MOL0     H27780   8.243   9.743   7.831  0.2450 -0.2042  2.8824
  947MOL0     H27781   8.165   9.716   7.975  0.5842  1.9077 -0.9697
  947MOL0     H27782   8.077   9.588   7.719 -4.2734 -1.1532  1.5482
  947MOL0     H27783   8.196   9.499   7.824 -0.4784 -0.4620  3.0662
  947MOL0     H27784   7.903   9.536   7.875 -0.5983 -0.7874  1.6118
  947MOL0     H27785   8.008   9.385   7.855  5.4902  0.3158  0.8938
  947MOL0     H27786   8.132   9.413   8.045 -1.3394 -2.2955 -0.5492
  947MOL0     H27787   8.045   9.558   8.094  0.6650 -0.3331  0.7533
  947MOL0     H27788   7.847   9.422   8.117 -0.4295 -1.6224  2.5289
  947MOL0     H27789   7.934   9.277   8.054  0.8227  0.1691 -2.0161
  947MOL0     H27790   8.111   9.302   8.239  0.2521 -0.0263 -3.2632
  947MOL0     H27791   8.016   9.440   8.297 -2.0368  0.5369 -1.8313
  947MOL0     H27792   7.972   9.140   8.326  0.6282 -0.8568  0.7452
  947MOL0     H27793   7.952   9.277   8.439 -0.3048  3.5346 -1.2282
  947MOL0     H27794   7.759   9.194   8.222 -1.5296 -1.0575  0.0564
  947MOL0     H27795   7.747   9.348   8.307  2.0845  0.6557  2.1055
  947MOL0     H27796   7.672   9.352   8.560  0.7396 -0.7794  1.3513
  947MOL0     H27797   7.422   9.106   8.715  1.6778 -0.7070 -0.6973
  947MOL0     H27798   7.559   9.199   8.784  0.8436  2.5896 -1.4072
  947MOL0     H27799   7.499   9.401   8.723  2.4155 -3.3941 -0.9134
  947MOL0     H27800   7.351   9.335   8.796 -1.7015 -0.5859 -0.8873
  947MOL0     H27801   7.395   9.377   8.497  1.8530 -0.2802  1.8556
  947MOL0     H27802   7.287   9.461   8.614 -0.7267  0.2188 -1.5515
  947MOL0     H27803   7.275   9.165   8.549 -0.8432 -0.8447 -1.0681
  947MOL0     H27804   7.157   9.268   8.473 -1.1892 -0.6113  0.3516
  947MOL0     H27805   7.142   8.998   8.554  0.2627 -0.1945  0.1069
  947MOL0     H27806   7.212   8.675   8.717 -1.2827 -1.3106  0.0528
  947MOL0     H27807   7.040   8.695   8.664  1.4361 -1.3578  3.7938
  947MOL0     H27808   7.187   8.741   8.562 -0.5390  2.4951 -0.7442
  947MOL0     H27809   7.247   8.623   9.216  1.4579 -4.3697  0.5020
  947MOL0     H27810   7.179   8.438   9.383 -1.5676 -2.1686  0.3178
  947MOL0     H27811   6.778   8.391   9.520  0.1479 -1.9270  1.8991
  947MOL0     H27812   6.755   8.296   9.373  0.2360 -2.0051 -0.7229
  947MOL0     H27813   6.886   8.168   9.620 -2.1374 -1.4910  1.5739
  947MOL0     H27814   6.730   8.173   9.623  0.8971 -0.9651  0.9760
  947MOL0     H27815   6.768   7.967   9.523 -1.6316 -0.0566 -0.8112
  947MOL0     H27816   6.915   8.017   9.444 -0.3957 -0.4653  0.0923
  947MOL0     H27817   6.614   8.067   9.350 -1.0585  2.3583 -3.2794
  947MOL0     H27818   6.758   8.135   9.277 -2.4705  2.4346  2.2178
  947MOL0     H27819   6.645   7.846   9.304 -0.0870  0.5149  1.4279
  947MOL0     H27820   6.819   7.863   9.293 -0.4463  0.1845  2.0863
  947MOL0     H27821   6.663   8.030   9.098  2.1951  1.3110 -1.7948
  947MOL0     H27822   6.825   7.984   9.100  0.3945  0.8790  2.0618
  947MOL0     H27823   6.586   7.822   9.039  0.1449  4.8311 -1.8936
  947MOL0     H27824   6.737   7.731   9.084  0.6367  0.8913  0.7038
  947MOL0     H27825   6.730   7.734   8.832  0.6135  0.3822 -1.9261
  947MOL0     H27826   6.850   7.841   8.885  0.2318 -2.0274  2.0648
  947MOL0     H27827   6.763   8.516   9.308 -0.7396  0.1370 -3.3799
  947MOL0     H27828   6.838   8.726   9.174  0.8935 -0.1335 -1.5211
  947MOL0     H27829   7.025   9.001   9.028  0.7465  0.5606 -0.0409
  947MOL0     H27830   7.034   9.192   8.920 -1.2479 -0.3177  0.7013
  947MOL0     H27831   8.219   9.967   7.964  0.0392 -1.2902 -1.1543
  947MOL0     H27832   8.186  10.203   7.994 -2.2256 -0.8370  3.2460
  947MOL0     H27833   7.632  10.451   7.894  3.2124 -1.7246  2.9573
  947MOL0     H27834   7.519  10.653   7.803 -1.0153  0.3682 -1.2877
  947MOL0     H27835   7.778  10.961   7.802  1.2201 -0.2170 -0.1754
  947MOL0     H27836   7.791  10.991   7.622  0.0588  1.3122  1.6353
  947MOL0     H27837   7.538  11.033   7.777 -1.1995 -1.0988 -1.6798
  947MOL0     H27838   7.566  11.075   7.607 -1.2232 -2.0123  0.0163
  947MOL0     H27839   7.719  11.241   7.646  0.2630 -1.6451 -0.5657
  947MOL0     H27840   7.760  11.189   7.816  1.8340 -0.0848 -1.5065
  947MOL0     H27841   7.562  11.295   7.898 -1.0509 -4.5574 -1.8772
  947MOL0     H27842   7.509  11.321   7.728 -0.0945  0.5694 -1.1380
  947MOL0     H27843   7.744  11.665   7.812  2.3895 -0.9253  0.7156
  947MOL0     H27844   7.895  10.785   7.645 -0.2196  1.1873  0.8587
  947MOL0     H27845   8.009  10.581   7.759  0.4566  0.4238 -0.6284
  948MOL0     O27846   4.496   2.709   7.364  0.6960  0.3747 -0.4566
  948MOL0     C27847   4.592   2.696   7.442  0.5991 -0.7280 -0.3538
  948MOL0     O27848   4.718   2.657   7.401  0.1150  0.0003 -0.0337
  948MOL0     C27849   4.737   2.633   7.272  0.1753  0.5624  0.6306
  948MOL0     C27850   4.789   2.507   7.236 -0.6033 -1.0933 -0.2154
  948MOL0     C27851   4.825   2.480   7.098  1.0497  0.3349  0.3259
  948MOL0     C27852   4.807   2.586   7.002 -0.0886 -0.2525  0.7606
  948MOL0     O27853   4.854   2.546   6.878 -0.0528 -0.3924 -0.2492
  948MOL0     C27854   4.862   2.649   6.779  0.1353  0.5880  0.2470
  948MOL0     C27855   4.959   2.601   6.673  0.5192 -1.1886  0.5793
  948MOL0     C27856   4.944   2.707   6.557  0.4531  0.3163  0.2411
  948MOL0     C27857   5.061   2.713   6.464 -0.5946  0.3244  0.1468
  948MOL0     C27858   5.197   2.733   6.531 -0.8251 -0.3943 -0.1672
  948MOL0     C27859   5.319   2.748   6.431  0.6247  1.3056  0.5070
  948MOL0     C27860   5.316   2.886   6.355  0.2425  0.5001  1.0932
  948MOL0     C27861   5.305   3.009   6.445  0.3197 -0.0600  0.0509
  948MOL0     N27862   5.410   3.016   6.552 -0.9676 -0.3828  1.4481
  948MOL0     C27863   5.543   3.058   6.525  0.3277  0.6664  0.2159
  948MOL0     C27864   5.602   3.075   6.644 -0.2375  0.3265  0.2901
  948MOL0     C27865   5.724   3.139   6.673 -0.0539 -0.6026 -0.1409
  948MOL0     C27866   5.819   3.116   6.561  0.7075  0.5266 -0.3202
  948MOL0     C27867   5.956   3.176   6.587 -0.2621 -0.8896 -0.9322
  948MOL0     C27868   6.039   3.127   6.707  0.6837 -0.6281  0.2195
  948MOL0     O27869   6.153   3.214   6.710  0.0821 -0.5082  0.5103
  948MOL0     C27870   6.281   3.175   6.762  0.6818 -0.3884  0.3154
  948MOL0     C27871   6.386   3.264   6.765  0.9371  0.0363 -0.0921
  948MOL0     C27872   6.509   3.234   6.825  0.2537  0.3384 -0.5011
  948MOL0     C27873   6.614   3.337   6.824 -0.3046  0.0435 -0.2024
  948MOL0     C27874   6.529   3.103   6.868 -0.5127  0.2833 -0.1007
  948MOL0     C27875   6.659   3.038   6.912 -0.3719 -0.4632  0.0061
  948MOL0     O27876   6.681   2.893   6.914  0.3777 -0.1192  0.0212
  948MOL0     C27877   6.809   2.845   6.959  0.5010 -0.2037  0.3739
  948MOL0     C27878   6.839   2.860   7.099  1.1253 -0.4496  1.3046
  948MOL0     C27879   6.965   2.817   7.134  0.3622 -0.2919  0.2705
  948MOL0     C27880   7.054   2.755   7.047  0.0300  1.1303 -0.3298
  948MOL0     O27881   7.178   2.701   7.080 -0.1381  0.5431  0.0836
  948MOL0     C27882   7.239   2.746   7.207  0.4383 -0.2450 -0.0677
  948MOL0     C27883   7.386   2.711   7.207 -0.2663 -0.3258  0.2661
  948MOL0     C27884   7.422   2.563   7.207 -0.2686  0.5013  0.2727
  948MOL0     C27885   7.397   2.491   7.340 -0.7575  0.4219  0.4551
  948MOL0     C27886   7.518   2.459   7.439  0.8222 -0.2526  0.7486
  948MOL0     C27887   7.577   2.586   7.498 -0.7727  0.4760 -0.1122
  948MOL0     C27888   7.685   2.540   7.587  0.0798  0.7319 -0.4224
  948MOL0     C27889   7.768   2.663   7.640  0.5903  0.3278 -0.2011
  948MOL0    Cl27890   7.878   2.647   7.771 -0.1829 -0.1319 -0.1470
  948MOL0     C27891   7.013   2.727   6.919 -0.0280 -0.1834  0.2028
  948MOL0     C27892   6.892   2.774   6.876  0.4001  0.8638  0.4837
  948MOL0     O27893   6.743   3.122   6.937  0.1363 -0.2947 -0.6969
  948MOL0     C27894   6.427   3.011   6.850  0.1074 -0.7565  0.8713
  948MOL0     C27895   6.299   3.047   6.805  0.4515 -0.2744 -0.8553
  948MOL0     N27896   5.514   3.026   6.745  0.9456  0.3002 -0.2248
  948MOL0     N27897   5.398   2.994   6.681  0.3005 -0.1720  0.4473
  948MOL0     C27898   4.755   2.709   7.040 -0.5047  0.0117 -0.2388
  948MOL0     C27899   4.712   2.724   7.175  0.6668 -0.3223  0.3891
  948MOL0     C27900   4.563   2.730   7.579 -0.1129  0.1189 -0.5671
  948MOL0     C27901   4.446   2.795   7.610 -1.3537 -1.2360  0.4324
  948MOL0     C27902   4.436   2.846   7.741  0.1830 -0.5896 -0.6676
  948MOL0     C27903   4.531   2.814   7.843  0.8693  0.8118 -0.1513
  948MOL0     O27904   4.496   2.862   7.973 -0.7079 -1.2331  0.0123
  948MOL0     C27905   4.571   2.851   8.089 -0.3824 -0.2113 -0.0415
  948MOL0     C27906   4.509   2.940   8.206 -0.1871 -1.3587 -0.1398
  948MOL0     C27907   4.592   2.928   8.332 -0.1672 -0.0784 -0.7374
  948MOL0     C27908   4.628   3.062   8.388  0.1785  0.6420 -0.5660
  948MOL0     C27909   4.757   3.106   8.336  0.1865  1.3254  0.2480
  948MOL0     C27910   4.856   3.171   8.300  0.7420  0.8236  1.1101
  948MOL0     C27911   4.645   2.740   7.814 -0.4002 -0.3422  0.4372
  948MOL0     C27912   4.659   2.700   7.680  0.1749  0.2158  0.1620
  948MOL0     H27913   4.801   2.432   7.314 -0.7255  3.3372  4.5733
  948MOL0     H27914   4.849   2.376   7.079 -3.9553 -1.4530  1.9741
  948MOL0     H27915   4.769   2.681   6.731  1.2189  2.3979 -0.7724
  948MOL0     H27916   4.907   2.735   6.828 -0.4467  1.0876 -0.0800
  948MOL0     H27917   5.057   2.604   6.722  0.1865  1.4174  1.2729
  948MOL0     H27918   4.931   2.505   6.630 -1.0446 -0.5792  0.1502
  948MOL0     H27919   4.861   2.695   6.486  0.4361  2.3752 -0.1414
  948MOL0     H27920   4.922   2.809   6.589  1.3495  1.4430 -2.4535
  948MOL0     H27921   5.057   2.613   6.420 -2.6899  0.8945 -1.0657
  948MOL0     H27922   5.047   2.786   6.384 -0.7045  2.5671  2.0856
  948MOL0     H27923   5.197   2.819   6.598 -2.4460 -2.3222  2.5207
  948MOL0     H27924   5.211   2.646   6.597 -1.5804  1.4523  2.5994
  948MOL0     H27925   5.416   2.724   6.475 -0.2460  0.6356  2.1428
  948MOL0     H27926   5.312   2.662   6.364  1.7107 -0.3172  2.3889
  948MOL0     H27927   5.398   2.900   6.284 -0.5423  0.9494  0.2577
  948MOL0     H27928   5.226   2.885   6.292  0.7682  0.3466  0.3295
  948MOL0     H27929   5.209   2.999   6.496 -2.0044  1.8852 -3.5027
  948MOL0     H27930   5.295   3.098   6.382  0.9356 -0.7328 -1.0366
  948MOL0     H27931   5.582   3.092   6.429 -1.5368  3.2672  0.2691
  948MOL0     H27932   5.721   3.246   6.699  1.9586 -0.1594 -1.4485
  948MOL0     H27933   5.764   3.098   6.766 -1.5233  0.4494  1.0108
  948MOL0     H27934   5.781   3.165   6.471 -2.5139  1.3554  1.3463
  948MOL0     H27935   5.831   3.009   6.543  0.9616  1.0557 -4.3427
  948MOL0     H27936   5.947   3.285   6.583 -1.1055 -0.9703 -1.7346
  948MOL0     H27937   6.002   3.152   6.491 -0.5452  1.2433 -1.6584
  948MOL0     H27938   6.069   3.024   6.686  1.9781 -0.0870 -0.7768
  948MOL0     H27939   5.978   3.135   6.797  2.5521 -0.9960  1.5824
  948MOL0     H27940   6.383   3.367   6.732  0.2482  0.2880  0.7422
  948MOL0     H27941   6.636   3.378   6.923  0.1980 -0.0821 -0.2556
  948MOL0     H27942   6.708   3.298   6.783 -1.6430 -4.9601  0.7968
  948MOL0     H27943   6.576   3.428   6.777  0.7085  0.4283 -0.3024
  948MOL0     H27944   6.763   2.907   7.160 -1.1494 -0.6996 -1.1503
  948MOL0     H27945   6.997   2.838   7.236 -1.1347  0.3292  0.6305
  948MOL0     H27946   7.234   2.855   7.210 -2.8499 -0.0566 -4.3518
  948MOL0     H27947   7.184   2.705   7.293 -1.8483  0.8449 -0.9396
  948MOL0     H27948   7.430   2.745   7.113  0.3388  0.4416  0.8127
  948MOL0     H27949   7.432   2.758   7.295  1.5744 -1.1439 -0.2218
  948MOL0     H27950   7.531   2.560   7.204 -0.1677  0.2989  2.2594
  948MOL0     H27951   7.389   2.516   7.114  3.5105  2.0084 -2.0434
  948MOL0     H27952   7.321   2.543   7.398 -2.6760 -3.5291  1.8223
  948MOL0     H27953   7.355   2.397   7.303 -0.9466  0.7692 -0.2376
  948MOL0     H27954   7.593   2.395   7.392 -0.6589 -0.5542 -1.3520
  948MOL0     H27955   7.476   2.401   7.521 -1.0858  1.6114  1.2032
  948MOL0     H27956   7.615   2.646   7.414 -1.9620 -2.0696 -2.6222
  948MOL0     H27957   7.504   2.647   7.552 -0.5189  0.5715  0.1281
  948MOL0     H27958   7.755   2.468   7.544 -2.4449 -2.2202  0.1444
  948MOL0     H27959   7.641   2.500   7.679  0.8979  0.9949  0.0999
  948MOL0     H27960   7.691   2.740   7.655 -0.2275 -0.5266  0.0801
  948MOL0     H27961   7.836   2.693   7.560  3.7669 -1.2490  1.6891
  948MOL0     H27962   7.076   2.674   6.848  1.3478  1.5092  0.0888
  948MOL0     H27963   6.852   2.747   6.779  1.9299  0.8300 -0.1747
  948MOL0     H27964   6.450   2.907   6.871  0.1746 -1.0803 -0.6862
  948MOL0     H27965   6.223   2.971   6.801  0.8971 -0.7058 -5.0427
  948MOL0     H27966   4.715   2.781   6.971 -1.7486  0.8210  1.2674
  948MOL0     H27967   4.663   2.816   7.203 -0.3765 -0.5919 -0.4638
  948MOL0     H27968   4.363   2.822   7.547  1.5530  3.4151 -2.0068
  948MOL0     H27969   4.356   2.909   7.779  1.4657 -0.1959  1.5121
  948MOL0     H27970   4.568   2.748   8.124  0.5497  0.1212  1.0569
  948MOL0     H27971   4.678   2.871   8.084 -0.6100  1.4233  0.9717
  948MOL0     H27972   4.404   2.928   8.234 -0.0406  1.0859  1.7224
  948MOL0     H27973   4.518   3.041   8.165  3.2403 -2.4992 -2.7006
  948MOL0     H27974   4.679   2.865   8.315 -0.1638  0.2175 -1.9354
  948MOL0     H27975   4.529   2.883   8.410  0.8687 -1.8466 -0.8787
  948MOL0     H27976   4.640   3.052   8.496 -0.4603 -0.2508 -0.5666
  948MOL0     H27977   4.550   3.137   8.370  0.7850  2.0330  2.0516
  948MOL0     H27978   4.947   3.213   8.263  0.4642 -0.7265 -1.6327
  948MOL0     H27979   4.719   2.720   7.892  2.9620 -1.0643 -2.6658
  948MOL0     H27980   4.751   2.648   7.657 -0.1467 -0.3486  0.1127
  949MOL0     O27981   6.789   5.169   4.062 -0.7284 -0.1131 -0.1263
  949MOL0     C27982   6.734   5.284   4.050  0.4543  0.8703  0.0622
  949MOL0     O27983   6.671   5.339   3.934  0.4633  0.8984  0.3835
  949MOL0     C27984   6.640   5.254   3.836  0.0813  1.3364 -0.1352
  949MOL0     C27985   6.747   5.195   3.775  1.6125  0.6711 -0.0029
  949MOL0     C27986   6.716   5.099   3.672 -0.1721 -0.4808 -0.7222
  949MOL0     C27987   6.590   5.071   3.628 -0.0875  0.1598 -0.5267
  949MOL0     O27988   6.585   4.984   3.524  0.2021  0.3966 -1.5323
  949MOL0     C27989   6.488   4.876   3.540 -0.4849 -0.6097  0.1452
  949MOL0     C27990   6.500   4.803   3.407 -0.2278  0.0552  0.0726
  949MOL0     C27991   6.416   4.677   3.411 -0.4209 -0.0753  0.4903
  949MOL0     C27992   6.484   4.579   3.310 -0.1161  0.6239 -0.2950
  949MOL0     C27993   6.408   4.441   3.328 -0.6197  0.5832  0.3079
  949MOL0     C27994   6.478   4.328   3.237 -0.6333  0.4909 -0.1347
  949MOL0     C27995   6.479   4.358   3.086 -0.3033  0.7859  0.5844
  949MOL0     C27996   6.358   4.401   3.017  0.1632  0.0426 -0.2620
  949MOL0     N27997   6.259   4.288   3.009  0.2362  0.3806 -0.1296
  949MOL0     C27998   6.147   4.276   3.086 -0.8780 -0.3579 -0.2428
  949MOL0     C27999   6.094   4.163   3.041  0.0145 -0.1437  0.5273
  949MOL0     C28000   5.968   4.090   3.086  0.2417 -1.0217  0.0045
  949MOL0     C28001   5.970   4.043   3.235  0.1910 -0.7020  0.2926
  949MOL0     C28002   5.841   3.975   3.278  0.1866  0.3382  0.4799
  949MOL0     C28003   5.846   3.947   3.432  0.2719 -0.0150 -0.5025
  949MOL0     O28004   5.776   3.832   3.472  0.3033 -0.3659 -0.0783
  949MOL0     C28005   5.794   3.787   3.601 -0.3429  0.6128  0.3780
  949MOL0     C28006   5.729   3.663   3.636 -0.7086  0.1810 -0.3332
  949MOL0     C28007   5.745   3.602   3.758  0.5577  0.2356 -0.8231
  949MOL0     C28008   5.705   3.468   3.768  0.4498  0.2512 -0.4099
  949MOL0     C28009   5.827   3.667   3.854 -0.5805 -0.6468 -0.7844
  949MOL0     C28010   5.840   3.618   3.999 -0.6252 -0.7217  0.9367
  949MOL0     O28011   5.962   3.619   4.058 -0.8547  0.1869  0.0878
  949MOL0     C28012   5.977   3.562   4.182 -0.4977 -0.7733 -0.2100
  949MOL0     C28013   6.081   3.467   4.208  0.3246  0.4008 -0.0908
  949MOL0     C28014   6.111   3.421   4.341  0.3755 -0.1202 -0.0745
  949MOL0     C28015   6.037   3.477   4.446 -0.5948 -0.7867  0.0059
  949MOL0     O28016   6.052   3.420   4.572  0.2713 -0.2173  0.5912
  949MOL0     C28017   6.020   3.279   4.569 -0.2940 -0.2500  0.4852
  949MOL0     C28018   6.072   3.223   4.705  0.3657  0.8511  0.2354
  949MOL0     C28019   6.235   3.214   4.723  0.6386 -0.1169  0.7433
  949MOL0     C28020   6.270   3.227   4.864 -0.2392 -0.2239 -0.9519
  949MOL0     C28021   6.417   3.199   4.891 -0.2702 -0.0771  0.3426
  949MOL0     C28022   6.453   3.199   5.039  0.2129 -0.1289 -0.0797
  949MOL0     C28023   6.609   3.213   5.060 -0.4194 -0.1243  0.2611
  949MOL0     C28024   6.632   3.273   5.196  0.0968  0.1013 -0.6719
  949MOL0    Cl28025   6.800   3.263   5.237 -0.0833  0.2569 -0.3531
  949MOL0     C28026   5.955   3.592   4.423 -0.3012 -0.3203  0.1286
  949MOL0     C28027   5.929   3.627   4.293 -0.3924 -0.2424 -0.2177
  949MOL0     O28028   5.745   3.566   4.045  0.3351  0.0917  0.2801
  949MOL0     C28029   5.890   3.785   3.824 -0.2682 -0.8506  1.0193
  949MOL0     C28030   5.871   3.854   3.703  0.4896  0.0573  0.1253
  949MOL0     N28031   6.175   4.111   2.934  0.2494  0.0633 -0.2963
  949MOL0     N28032   6.271   4.188   2.915 -0.1408  1.1508  0.1639
  949MOL0     C28033   6.487   5.141   3.690 -0.7028 -1.6245  0.3189
  949MOL0     C28034   6.512   5.221   3.801  0.4794  0.2500  0.0239
  949MOL0     C28035   6.739   5.366   4.171  0.7456  0.8251  0.0564
  949MOL0     C28036   6.687   5.494   4.173  0.2523 -0.5549 -0.5340
  949MOL0     C28037   6.668   5.563   4.293 -0.4281 -0.4737 -0.8477
  949MOL0     C28038   6.715   5.508   4.416 -0.1271 -0.5268  0.3873
  949MOL0     O28039   6.708   5.558   4.542  0.3750 -1.1433  0.9418
  949MOL0     C28040   6.574   5.534   4.596 -1.1234  0.2011  0.1768
  949MOL0     C28041   6.541   5.620   4.721 -0.2868  0.5714  0.6208
  949MOL0     C28042   6.633   5.606   4.840  0.3284 -0.9267  0.2286
  949MOL0     C28043   6.563   5.685   4.954 -0.0979 -0.2763  1.0552
  949MOL0     C28044   6.624   5.647   5.079  0.2414 -0.7786  0.3261
  949MOL0     C28045   6.664   5.639   5.194 -1.1577 -0.0069  0.1239
  949MOL0     C28046   6.764   5.374   4.409 -0.4707 -0.0903 -0.3598
  949MOL0     C28047   6.790   5.312   4.287  0.2356 -0.1995  0.4593
  949MOL0     H28048   6.851   5.206   3.805  1.6619  1.2865 -0.3825
  949MOL0     H28049   6.801   5.053   3.622 -0.5000 -1.2808 -0.5493
  949MOL0     H28050   6.523   4.812   3.621  2.3829 -0.9049 -1.1899
  949MOL0     H28051   6.387   4.910   3.568 -0.4312  0.3551 -0.7355
  949MOL0     H28052   6.479   4.868   3.322 -2.0892 -0.0351  0.4388
  949MOL0     H28053   6.607   4.779   3.403 -0.0720  0.7985 -0.4986
  949MOL0     H28054   6.411   4.638   3.513 -0.8345 -0.0988  0.4644
  949MOL0     H28055   6.312   4.690   3.379 -0.9637 -2.0981  1.2199
  949MOL0     H28056   6.477   4.619   3.208 -3.0449  0.2346 -0.3423
  949MOL0     H28057   6.586   4.549   3.333 -0.8206  0.2392  2.7721
  949MOL0     H28058   6.401   4.412   3.433  0.9592  0.7323  0.4706
  949MOL0     H28059   6.304   4.455   3.294 -0.4124  1.0353 -0.1504
  949MOL0     H28060   6.582   4.334   3.270 -1.2550  0.9843  1.8846
  949MOL0     H28061   6.437   4.228   3.255 -2.5449  0.7322 -2.5812
  949MOL0     H28062   6.564   4.422   3.064  2.0763 -1.0194  3.6829
  949MOL0     H28063   6.503   4.260   3.044 -1.8783  0.3733  0.5981
  949MOL0     H28064   6.374   4.422   2.911 -2.2084  2.2638 -0.2760
  949MOL0     H28065   6.323   4.491   3.067  2.4512  1.4735 -1.1068
  949MOL0     H28066   6.124   4.314   3.184 -2.6977  1.1605 -1.1882
  949MOL0     H28067   5.877   4.147   3.069  1.0618  0.8672  1.4912
  949MOL0     H28068   5.958   4.002   3.023 -0.1346 -1.0333  0.0788
  949MOL0     H28069   5.991   4.122   3.308  0.7384 -1.6312  1.1558
  949MOL0     H28070   6.048   3.968   3.248 -0.6268 -1.4334  1.2296
  949MOL0     H28071   5.827   3.877   3.230 -1.2380  0.0812  1.3593
  949MOL0     H28072   5.746   4.025   3.261 -1.3514 -2.4211  0.3605
  949MOL0     H28073   5.801   4.030   3.487 -1.1949 -3.1702  3.5560
  949MOL0     H28074   5.952   3.953   3.460  0.8849 -2.6695 -1.9854
  949MOL0     H28075   5.671   3.620   3.555  1.6267 -3.7475 -0.1511
  949MOL0     H28076   5.603   3.453   3.804 -0.3327 -0.9646 -2.8808
  949MOL0     H28077   5.707   3.419   3.670 -1.6827 -3.7176  1.3056
  949MOL0     H28078   5.773   3.412   3.833 -2.0763 -0.2282  2.0005
  949MOL0     H28079   6.142   3.439   4.122  1.0880 -2.1835  1.1683
  949MOL0     H28080   6.196   3.355   4.358 -0.6096 -1.5003 -0.3225
  949MOL0     H28081   5.913   3.255   4.567 -0.3042 -0.2096  0.5429
  949MOL0     H28082   6.072   3.224   4.490 -0.5569 -0.5925  0.5477
  949MOL0     H28083   6.022   3.279   4.785  0.2869 -0.4219  1.0967
  949MOL0     H28084   6.033   3.123   4.726 -0.4605  0.8791 -1.0871
  949MOL0     H28085   6.271   3.291   4.653 -0.0717 -1.6891 -1.4790
  949MOL0     H28086   6.275   3.121   4.681  0.6034 -0.0208  0.4891
  949MOL0     H28087   6.255   3.331   4.893  1.3919 -0.3117  0.3085
  949MOL0     H28088   6.203   3.162   4.922 -0.7753  0.2824 -0.9940
  949MOL0     H28089   6.483   3.275   4.848 -1.8060 -0.1690 -2.4538
  949MOL0     H28090   6.449   3.104   4.846  0.4494 -0.4587  1.6314
  949MOL0     H28091   6.382   3.263   5.093 -1.8815 -1.5602 -0.9674
  949MOL0     H28092   6.423   3.106   5.089  1.0121  0.3285  1.3053
  949MOL0     H28093   6.644   3.288   4.988  1.9599 -1.4526 -0.0914
  949MOL0     H28094   6.657   3.115   5.046 -2.0570 -0.5698 -3.9816
  949MOL0     H28095   6.580   3.208   5.266  2.2983 -2.5228 -1.2997
  949MOL0     H28096   6.593   3.375   5.206  0.1852 -0.0675  6.1935
  949MOL0     H28097   5.889   3.636   4.498  1.5904 -0.6227  2.0605
  949MOL0     H28098   5.870   3.714   4.269  1.3355  0.8023 -0.8924
  949MOL0     H28099   5.943   3.834   3.906 -2.2931  0.8367  1.4174
  949MOL0     H28100   5.921   3.949   3.684  0.5739 -0.2189 -1.0746
  949MOL0     H28101   6.391   5.094   3.670 -2.1742  1.0431  0.7283
  949MOL0     H28102   6.428   5.263   3.855 -0.2922  1.6138 -2.1113
  949MOL0     H28103   6.658   5.545   4.082  4.3449  3.2147 -0.0199
  949MOL0     H28104   6.624   5.660   4.312  1.4744 -0.3159  4.3356
  949MOL0     H28105   6.500   5.571   4.525 -0.0009  0.6284 -0.8072
  949MOL0     H28106   6.561   5.428   4.617 -1.7522  0.1784 -0.3070
  949MOL0     H28107   6.436   5.604   4.748 -1.0537  2.3115 -1.1006
  949MOL0     H28108   6.563   5.724   4.693  1.5374 -0.1151 -0.7017
  949MOL0     H28109   6.725   5.659   4.816 -0.6877  0.0136 -1.8410
  949MOL0     H28110   6.651   5.500   4.856  0.1191 -1.2340 -1.4348
  949MOL0     H28111   6.455   5.663   4.954 -0.2923 -0.0660 -3.0991
  949MOL0     H28112   6.574   5.793   4.941  1.8049 -0.5367  0.2730
  949MOL0     H28113   6.702   5.626   5.293  0.1573 -0.0305 -0.3583
  949MOL0     H28114   6.806   5.332   4.500  1.4345  2.9877  0.3273
  949MOL0     H28115   6.851   5.222   4.291 -0.9007 -0.9943  0.6919
  950MOL0     O28116   7.603   6.371   1.585  0.3606  0.1042 -0.2369
  950MOL0     C28117   7.705   6.301   1.568 -0.2365 -0.6018 -0.2143
  950MOL0     O28118   7.764   6.277   1.446  0.4916 -0.4897  0.7200
  950MOL0     C28119   7.699   6.324   1.336 -0.9242 -1.2738  0.0850
  950MOL0     C28120   7.598   6.253   1.276 -0.3052  0.3127  0.7162
  950MOL0     C28121   7.543   6.286   1.149  0.3748 -0.0182 -0.6897
  950MOL0     C28122   7.589   6.392   1.070 -0.2140  0.2706  0.3718
  950MOL0     O28123   7.522   6.419   0.949  0.0757  0.2301  0.5558
  950MOL0     C28124   7.565   6.343   0.833 -0.5191  0.6794  0.9130
  950MOL0     C28125   7.444   6.314   0.746  0.3390 -0.4128  0.2357
  950MOL0     C28126   7.366   6.439   0.701  0.6774 -0.0105  0.1748
  950MOL0     C28127   7.450   6.544   0.631  1.2149  0.2126  0.1176
  950MOL0     C28128   7.453   6.520   0.478  0.3823  1.0334 -0.1220
  950MOL0     C28129   7.537   6.629   0.416  0.4807 -0.3940  0.6899
  950MOL0     C28130   7.690   6.647   0.441 -0.5323 -0.1864 -0.5584
  950MOL0     C28131   7.718   6.803   0.436  0.2282  0.7913 -0.1302
  950MOL0     N28132   7.860   6.833   0.440 -0.3407 -0.5540  0.9966
  950MOL0     C28133   7.912   6.960   0.451 -0.5020  0.5706  0.4340
  950MOL0     C28134   8.034   6.969   0.398 -1.0874 -0.1355 -0.9643
  950MOL0     C28135   8.121   7.089   0.396  0.6397  0.0978  0.4850
  950MOL0     C28136   8.070   7.185   0.279  0.7062 -0.2531 -0.3526
  950MOL0     C28137   8.040   7.324   0.324  0.1804 -0.5373  0.3018
  950MOL0     C28138   7.989   7.401   0.204  0.6564 -0.5294 -0.6654
  950MOL0     O28139   8.086   7.438   0.104  0.1209  0.2541  0.9220
  950MOL0     C28140   8.130   7.568   0.080 -0.7585  0.3463  0.1566
  950MOL0     C28141   8.219   7.577  -0.023  0.2122 -0.9450 -0.6630
  950MOL0     C28142   8.278   7.697  -0.057 -0.4757 -0.4286 -0.7568
  950MOL0     C28143   8.363   7.687  -0.174  0.3766  0.5775  0.4303
  950MOL0     C28144   8.246   7.821   0.018  0.6832  0.5792  0.2625
  950MOL0     C28145   8.297   7.964  -0.021 -0.2178  0.4485 -0.0636
  950MOL0     O28146   8.253   8.063   0.058  0.4103  0.2740 -0.7123
  950MOL0     C28147   8.312   8.189   0.065  0.4005  1.5186  0.1392
  950MOL0     C28148   8.429   8.234   0.013  0.1457  0.4845 -0.0804
  950MOL0     C28149   8.454   8.375   0.026  0.2337  0.2324  0.4911
  950MOL0     C28150   8.375   8.462   0.101 -0.2583 -0.1990  1.2886
  950MOL0     O28151   8.403   8.593   0.115  0.7817  0.3800  0.5120
  950MOL0     C28152   8.488   8.677   0.031  0.6240  0.7519  0.4067
  950MOL0     C28153   8.514   8.814   0.095 -0.3653  1.2517 -0.3091
  950MOL0     C28154   8.385   8.882   0.117  0.9459 -0.3131 -0.4029
  950MOL0     C28155   8.413   9.030   0.128 -0.7370 -0.3814 -0.5933
  950MOL0     C28156   8.280   9.105   0.128 -0.1387  1.1023  0.7044
  950MOL0     C28157   8.288   9.261   0.125  0.5619 -0.8933 -1.2746
  950MOL0     C28158   8.140   9.317   0.109 -0.1917  0.0762 -0.0702
  950MOL0     C28159   8.151   9.473   0.093  0.9802  0.5568  0.3156
  950MOL0    Cl28160   8.247   9.518  -0.056  0.8423 -0.1917 -0.1731
  950MOL0     C28161   8.262   8.405   0.155 -0.5870  0.5166  0.3775
  950MOL0     C28162   8.224   8.267   0.138  0.6961 -0.9978  0.4396
  950MOL0     O28163   8.374   7.981  -0.116  0.2379 -0.2496  0.3828
  950MOL0     C28164   8.174   7.805   0.130  0.8325 -0.1864 -0.0638
  950MOL0     C28165   8.117   7.682   0.168 -0.5705 -0.4243  0.7224
  950MOL0     N28166   8.059   6.848   0.361 -1.4284  0.3026 -0.4437
  950MOL0     N28167   7.967   6.769   0.383  0.4183  0.0847 -0.1189
  950MOL0     C28168   7.685   6.470   1.137  0.8567 -0.2462 -0.9001
  950MOL0     C28169   7.744   6.434   1.258 -0.4204  0.1233  0.1305
  950MOL0     C28170   7.786   6.280   1.691 -0.9967  0.2323 -0.2422
  950MOL0     C28171   7.908   6.205   1.684  0.2748  0.5624  0.5013
  950MOL0     C28172   7.985   6.176   1.795 -0.1373 -0.2794  0.3985
  950MOL0     C28173   7.945   6.222   1.921  0.1320  0.5268  0.2878
  950MOL0     O28174   8.002   6.193   2.042 -0.0805 -0.2647  0.3145
  950MOL0     C28175   8.107   6.104   2.058  0.0419 -0.2034  0.7346
  950MOL0     C28176   8.149   6.093   2.209  0.3459  0.1883  0.6146
  950MOL0     C28177   8.100   6.207   2.297 -0.5316 -0.5896 -0.1135
  950MOL0     C28178   8.181   6.339   2.294 -0.2224  0.2639 -0.7321
  950MOL0     C28179   8.320   6.333   2.344  0.6014 -0.3871  0.8055
  950MOL0     C28180   8.431   6.331   2.402  0.6760 -0.0619 -0.4760
  950MOL0     C28181   7.829   6.301   1.932  0.5292  0.3000  0.2496
  950MOL0     C28182   7.751   6.324   1.819  0.1987 -0.2028 -0.2071
  950MOL0     H28183   7.571   6.162   1.329  0.0577 -0.2105  0.0263
  950MOL0     H28184   7.473   6.229   1.090  1.1097  1.6402 -3.3476
  950MOL0     H28185   7.633   6.413   0.783  0.9820 -0.3452  1.4432
  950MOL0     H28186   7.624   6.256   0.862 -1.3981 -0.3917 -0.4107
  950MOL0     H28187   7.470   6.263   0.653 -0.4814 -1.6009  0.6307
  950MOL0     H28188   7.379   6.238   0.789 -0.6279 -0.7627 -1.6940
  950MOL0     H28189   7.288   6.406   0.631 -0.0102  1.9681 -0.0570
  950MOL0     H28190   7.321   6.482   0.791 -0.6698  0.2184 -0.5807
  950MOL0     H28191   7.392   6.633   0.657  1.2226  0.5678 -1.0124
  950MOL0     H28192   7.551   6.557   0.672  1.3053  1.7209 -0.5013
  950MOL0     H28193   7.491   6.426   0.438  3.3240  1.0758  2.1853
  950MOL0     H28194   7.348   6.530   0.450  0.2558 -2.6649 -1.5263
  950MOL0     H28195   7.522   6.625   0.307  0.5913  0.1005  0.6542
  950MOL0     H28196   7.475   6.716   0.441 -4.9384 -4.4640  3.7569
  950MOL0     H28197   7.736   6.621   0.537  2.2997  1.8468 -1.2345
  950MOL0     H28198   7.750   6.607   0.358  1.5793 -2.3275  1.8083
  950MOL0     H28199   7.666   6.846   0.522  2.5796  0.1330  1.7082
  950MOL0     H28200   7.675   6.839   0.342 -2.2875  0.3227  0.7410
  950MOL0     H28201   7.866   7.046   0.497 -2.2532 -1.1177  2.0386
  950MOL0     H28202   8.115   7.149   0.487 -0.6469  2.7743 -1.2129
  950MOL0     H28203   8.224   7.055   0.377  0.6591  0.2322  0.3373
  950MOL0     H28204   7.981   7.138   0.235  1.6319 -1.1024 -1.3740
  950MOL0     H28205   8.155   7.192   0.212 -0.0112  1.0413 -1.1688
  950MOL0     H28206   8.136   7.363   0.360 -0.3451 -1.6502  3.1608
  950MOL0     H28207   7.966   7.340   0.403  0.3747  0.0250  0.3751
  950MOL0     H28208   7.947   7.499   0.230 -1.2562 -1.5690  0.3666
  950MOL0     H28209   7.908   7.347   0.155 -1.4444  1.0758  0.8371
  950MOL0     H28210   8.239   7.490  -0.085  1.9487 -2.4584  1.8542
  950MOL0     H28211   8.467   7.710  -0.147  0.4681 -0.9977  1.5367
  950MOL0     H28212   8.372   7.587  -0.219 -3.5124  0.4865 -0.4939
  950MOL0     H28213   8.339   7.763  -0.249  0.5164  0.7351  0.5435
  950MOL0     H28214   8.507   8.165  -0.020 -1.7117 -2.0142  0.4948
  950MOL0     H28215   8.538   8.417  -0.029  0.2137 -0.0502  0.2421
  950MOL0     H28216   8.579   8.619   0.019 -0.7010 -1.6275  1.2816
  950MOL0     H28217   8.450   8.691  -0.071  0.6672 -0.1779  0.2579
  950MOL0     H28218   8.573   8.797   0.186  1.5838  1.9615 -1.3825
  950MOL0     H28219   8.590   8.866   0.036 -0.8677  0.7261 -1.4339
  950MOL0     H28220   8.336   8.845   0.207  1.9741  0.1430  0.3755
  950MOL0     H28221   8.317   8.856   0.035 -1.5048 -0.5496  1.6077
  950MOL0     H28222   8.475   9.055   0.215  0.5504 -3.6472 -0.4213
  950MOL0     H28223   8.474   9.063   0.043  1.8516  1.3867  1.7523
  950MOL0     H28224   8.226   9.072   0.217  0.2414  1.0150  0.9064
  950MOL0     H28225   8.220   9.073   0.043  0.2219 -1.3506  1.3035
  950MOL0     H28226   8.333   9.294   0.219 -0.6784 -0.3080 -0.8659
  950MOL0     H28227   8.354   9.296   0.045 -0.9109 -0.2237 -2.2436
  950MOL0     H28228   8.089   9.304   0.205  0.2019  1.1536  0.2993
  950MOL0     H28229   8.085   9.265   0.029  0.9216  0.7268 -1.3011
  950MOL0     H28230   8.204   9.516   0.178 -1.5895  4.3686  0.2763
  950MOL0     H28231   8.048   9.510   0.087 -0.6108 -2.9257  2.8636
  950MOL0     H28232   8.204   8.476   0.213  0.1914  0.8437  0.7663
  950MOL0     H28233   8.131   8.223   0.173  1.6029 -2.1530  1.4751
  950MOL0     H28234   8.170   7.891   0.196 -0.1243  0.0990 -0.4793
  950MOL0     H28235   8.068   7.665   0.264 -3.5957 -2.8320 -1.0980
  950MOL0     H28236   7.723   6.561   1.093  2.6663 -1.2383 -1.5060
  950MOL0     H28237   7.829   6.489   1.295  0.7340  0.1066 -2.3458
  950MOL0     H28238   7.943   6.173   1.586  0.3843 -0.4431  0.8512
  950MOL0     H28239   8.078   6.125   1.774 -0.0735  0.6960 -2.0084
  950MOL0     H28240   8.070   6.012   2.011  0.0888 -1.1190  2.3797
  950MOL0     H28241   8.181   6.154   1.996 -0.1942  0.2124  0.7878
  950MOL0     H28242   8.258   6.100   2.220  0.1515  0.3009  3.1604
  950MOL0     H28243   8.106   5.997   2.237 -3.8390  1.1715 -1.6836
  950MOL0     H28244   8.095   6.178   2.403 -1.2691 -2.0673 -0.5304
  950MOL0     H28245   7.995   6.227   2.272  0.2296  0.8580 -2.3992
  950MOL0     H28246   8.138   6.425   2.346  2.6603  1.9523 -0.9088
  950MOL0     H28247   8.186   6.365   2.188  3.1601  1.7869 -0.3588
  950MOL0     H28248   8.513   6.332   2.470  0.9940 -2.4878 -0.7115
  950MOL0     H28249   7.791   6.342   2.025  1.1884  2.2289 -0.2706
  950MOL0     H28250   7.660   6.382   1.830 -1.2168 -1.0439 -5.0276
  951MOL0     O28251   4.612   2.906   9.292  0.2022 -0.7591  0.3052
  951MOL0     C28252   4.725   2.922   9.319 -0.1864  0.3039 -0.6078
  951MOL0     O28253   4.811   3.030   9.284  0.3710  0.3692 -0.1028
  951MOL0     C28254   4.790   3.095   9.167 -0.1124  0.2378 -0.0636
  951MOL0     C28255   4.681   3.101   9.082  0.3713 -0.4784 -0.0759
  951MOL0     C28256   4.678   3.184   8.961  0.7387  0.4423 -0.0580
  951MOL0     C28257   4.797   3.245   8.918 -0.8464  0.0642  0.9298
  951MOL0     O28258   4.812   3.335   8.812  0.0170 -0.1899 -0.0978
  951MOL0     C28259   4.733   3.310   8.698  0.2253  0.2996  0.2126
  951MOL0     C28260   4.772   3.414   8.592 -0.1403 -0.5536  0.6339
  951MOL0     C28261   4.921   3.394   8.554  0.4621  0.4917 -1.3739
  951MOL0     C28262   5.014   3.487   8.628  0.0764 -0.0286 -0.1091
  951MOL0     C28263   5.162   3.474   8.600 -0.0761  0.1408 -0.1855
  951MOL0     C28264   5.229   3.345   8.650 -0.0443 -0.6517  0.6436
  951MOL0     C28265   5.374   3.345   8.600 -0.1372  0.3254  0.5451
  951MOL0     C28266   5.442   3.209   8.638  0.4285  0.1926 -0.0253
  951MOL0     N28267   5.582   3.199   8.591  0.0001 -0.6472 -0.7210
  951MOL0     C28268   5.623   3.169   8.467  0.3260  0.1977  0.5894
  951MOL0     C28269   5.760   3.161   8.479  0.0071 -1.0041  1.0143
  951MOL0     C28270   5.859   3.138   8.367 -0.5113 -1.2040  0.4922
  951MOL0     C28271   5.857   3.255   8.265  0.7220  0.0252  0.5723
  951MOL0     C28272   5.867   3.397   8.330 -0.6994 -0.7633  0.4213
  951MOL0     C28273   5.941   3.498   8.241  0.7180 -0.4224  0.1591
  951MOL0     O28274   5.862   3.511   8.118  0.4329  0.3401  0.6353
  951MOL0     C28275   5.858   3.628   8.046 -0.3509 -0.5212 -0.4720
  951MOL0     C28276   5.925   3.638   7.924 -0.3057  0.3597  0.2471
  951MOL0     C28277   5.911   3.752   7.848  0.5035  1.0849 -0.7443
  951MOL0     C28278   5.982   3.750   7.720  0.3030 -0.5608 -0.4982
  951MOL0     C28279   5.825   3.856   7.884  0.2797 -0.5740 -0.0148
  951MOL0     C28280   5.795   3.978   7.797 -0.1179 -0.3253  0.2837
  951MOL0     O28281   5.684   4.053   7.841  0.0079  0.1091 -1.1101
  951MOL0     C28282   5.650   4.177   7.795  0.4096  0.9527 -0.3354
  951MOL0     C28283   5.599   4.261   7.890 -0.0521 -0.5059 -0.0752
  951MOL0     C28284   5.577   4.390   7.850 -0.0800 -0.7135 -0.0932
  951MOL0     C28285   5.592   4.437   7.718 -0.2132  1.0049  0.0495
  951MOL0     O28286   5.579   4.565   7.678 -0.2586  0.5709  0.1199
  951MOL0     C28287   5.480   4.645   7.747  1.1318  0.5613 -0.7945
  951MOL0     C28288   5.454   4.755   7.661  0.5911 -0.5490 -0.3994
  951MOL0     C28289   5.351   4.743   7.548  0.2044 -0.4542 -0.9574
  951MOL0     C28290   5.398   4.641   7.433 -0.5409  0.1198  0.3301
  951MOL0     C28291   5.300   4.653   7.312 -0.2286  0.3160 -0.0413
  951MOL0     C28292   5.297   4.797   7.255  0.7808 -0.4981  0.8433
  951MOL0     C28293   5.272   4.782   7.108 -0.6193 -0.2938 -0.4442
  951MOL0     C28294   5.284   4.917   7.031  0.5346 -0.2397 -0.2579
  951MOL0    Cl28295   5.461   4.965   7.017  0.1537 -0.2337  0.1910
  951MOL0     C28296   5.650   4.353   7.625 -0.6498  1.0814 -1.2748
  951MOL0     C28297   5.680   4.222   7.665 -0.2954  0.2871 -0.2483
  951MOL0     O28298   5.883   4.015   7.718 -0.3058 -0.8456 -0.1414
  951MOL0     C28299   5.762   3.851   8.013 -0.2190  0.4374 -0.2426
  951MOL0     C28300   5.775   3.732   8.087  0.0351  0.5558  0.3230
  951MOL0     N28301   5.795   3.208   8.598  0.1594 -0.7238 -1.0775
  951MOL0     N28302   5.688   3.231   8.674  0.0520  0.5385  0.2522
  951MOL0     C28303   4.908   3.235   9.000  0.1826 -0.3058  0.0655
  951MOL0     C28304   4.907   3.167   9.121 -0.1877 -0.2876 -0.0762
  951MOL0     C28305   4.792   2.827   9.408 -0.1409  0.6275  0.5286
  951MOL0     C28306   4.917   2.845   9.461 -0.8353 -0.4494  0.2371
  951MOL0     C28307   4.978   2.752   9.543  0.2799 -0.6793  0.3327
  951MOL0     C28308   4.926   2.630   9.571  0.0688 -0.7650 -0.5658
  951MOL0     O28309   4.997   2.534   9.643 -0.4684 -0.0128 -1.1543
  951MOL0     C28310   5.123   2.566   9.706 -0.2009  0.2457 -0.6772
  951MOL0     C28311   5.157   2.458   9.800 -0.5564  0.3502 -0.4686
  951MOL0     C28312   5.171   2.323   9.734  0.6322 -0.2259  0.5845
  951MOL0     C28313   5.278   2.230   9.806 -0.1622 -0.5673 -0.1245
  951MOL0     C28314   5.290   2.098   9.748 -0.1774  0.2862 -0.5556
  951MOL0     C28315   5.276   1.984   9.710  0.7759 -0.4085 -0.1843
  951MOL0     C28316   4.792   2.605   9.532  1.1640  0.4114 -0.8516
  951MOL0     C28317   4.725   2.704   9.456 -0.1523 -1.3030  0.5556
  951MOL0     H28318   4.586   3.051   9.101 -0.0133 -0.1641 -1.1286
  951MOL0     H28319   4.588   3.205   8.904  2.5759  0.8341 -3.0809
  951MOL0     H28320   4.759   3.212   8.657 -1.7792 -0.5026  0.7136
  951MOL0     H28321   4.627   3.319   8.723  0.0520  1.0798 -0.7423
  951MOL0     H28322   4.714   3.404   8.501  0.6050 -0.6205  0.1550
  951MOL0     H28323   4.757   3.513   8.637  1.2677  0.5945 -1.2633
  951MOL0     H28324   4.959   3.292   8.561 -0.3740  0.2872  1.0750
  951MOL0     H28325   4.933   3.420   8.448  0.8916  0.6967 -1.2749
  951MOL0     H28326   4.975   3.585   8.600  1.5828  0.5898 -0.1305
  951MOL0     H28327   4.991   3.488   8.735 -0.6777  1.0560 -0.2583
  951MOL0     H28328   5.177   3.478   8.492 -1.1637 -2.0149 -0.4715
  951MOL0     H28329   5.213   3.558   8.648  0.1588 -0.6116  0.9139
  951MOL0     H28330   5.226   3.346   8.760 -1.8576 -0.2427  0.6307
  951MOL0     H28331   5.171   3.262   8.607  0.4145 -2.3152  3.0358
  951MOL0     H28332   5.394   3.349   8.492  2.8420  1.8710  1.0331
  951MOL0     H28333   5.425   3.426   8.653  1.1248 -0.6830  0.9223
  951MOL0     H28334   5.388   3.129   8.586 -1.5794  0.7453  1.0681
  951MOL0     H28335   5.443   3.197   8.747  1.6663  1.2407  0.0983
  951MOL0     H28336   5.566   3.161   8.375  1.8834  1.9659 -0.6073
  951MOL0     H28337   5.960   3.135   8.409 -0.6184 -0.0810  0.8458
  951MOL0     H28338   5.836   3.042   8.319  1.3343 -1.3402 -0.2182
  951MOL0     H28339   5.757   3.247   8.222  0.1506 -2.1573  2.1658
  951MOL0     H28340   5.935   3.237   8.191  1.4968 -1.7277  1.7463
  951MOL0     H28341   5.914   3.390   8.429  1.4199 -0.8855 -0.5422
  951MOL0     H28342   5.767   3.430   8.361 -0.7446 -2.1097  1.8467
  951MOL0     H28343   6.049   3.490   8.223  0.9856  3.1038 -0.5913
  951MOL0     H28344   5.937   3.596   8.289 -0.9540  0.0728 -0.9246
  951MOL0     H28345   5.980   3.550   7.890 -0.8849 -1.2150  3.0496
  951MOL0     H28346   6.015   3.648   7.695  1.5649  0.2304 -2.2579
  951MOL0     H28347   5.915   3.791   7.644  0.1148  3.2414  1.5175
  951MOL0     H28348   6.072   3.811   7.729 -0.2123  0.2462 -0.7711
  951MOL0     H28349   5.588   4.225   7.992  3.3005  1.1481  1.0223
  951MOL0     H28350   5.535   4.466   7.916  1.5749  0.8312 -0.7223
  951MOL0     H28351   5.393   4.582   7.770  0.9586  1.1482  0.2252
  951MOL0     H28352   5.502   4.673   7.851 -3.3114  0.9221  0.2518
  951MOL0     H28353   5.406   4.835   7.719 -1.4827 -2.7175  1.0432
  951MOL0     H28354   5.549   4.786   7.616  1.7052 -4.6562 -1.2435
  951MOL0     H28355   5.338   4.844   7.507 -0.5119  0.3645  1.1510
  951MOL0     H28356   5.255   4.710   7.589  0.2692 -0.9493 -1.2014
  951MOL0     H28357   5.498   4.670   7.400 -2.4263  5.7269 -1.7153
  951MOL0     H28358   5.402   4.538   7.469  0.8196 -0.8108 -2.2277
  951MOL0     H28359   5.199   4.629   7.346  0.3318 -1.7958  0.2993
  951MOL0     H28360   5.333   4.582   7.236  2.8495  0.4673  1.0164
  951MOL0     H28361   5.218   4.847   7.311  0.7438 -1.1439  1.3798
  951MOL0     H28362   5.388   4.858   7.260 -0.5085  1.4521  1.9123
  951MOL0     H28363   5.178   4.729   7.092 -1.1383 -0.2443  2.0821
  951MOL0     H28364   5.342   4.711   7.064 -2.8865 -0.6163 -3.9346
  951MOL0     H28365   5.234   4.996   7.086  3.2607  0.0183  2.1040
  951MOL0     H28366   5.238   4.902   6.933 -0.8460 -0.6490  0.4337
  951MOL0     H28367   5.667   4.373   7.520 -2.5412 -3.9748 -2.8262
  951MOL0     H28368   5.712   4.149   7.591  3.2096  1.1262  0.2789
  951MOL0     H28369   5.686   3.925   8.035 -0.6369  0.4373 -1.6075
  951MOL0     H28370   5.724   3.708   8.179  0.4171 -0.0482  0.3793
  951MOL0     H28371   4.989   3.294   8.959 -0.2304 -0.9397 -1.7570
  951MOL0     H28372   4.997   3.156   9.181 -1.2733 -3.9915  1.1127
  951MOL0     H28373   4.980   2.933   9.452  0.7643 -1.4431  1.2470
  951MOL0     H28374   5.075   2.794   9.565 -1.2014  3.6612 -0.3565
  951MOL0     H28375   5.203   2.579   9.632  1.9189  0.9509  1.5968
  951MOL0     H28376   5.120   2.656   9.767 -0.7830  0.2377 -0.6903
  951MOL0     H28377   5.070   2.459   9.867 -1.2548  4.3438 -1.2286
  951MOL0     H28378   5.248   2.492   9.851 -0.5017  1.5996 -1.3615
  951MOL0     H28379   5.217   2.328   9.635  0.6564 -2.6993  0.4155
  951MOL0     H28380   5.078   2.265   9.735  1.0715 -1.2430 -2.9062
  951MOL0     H28381   5.253   2.221   9.912  0.5673  3.1412  0.5049
  951MOL0     H28382   5.376   2.278   9.807 -0.6211  0.4067 -0.9006
  951MOL0     H28383   5.265   1.883   9.678 -2.6970 -0.4750  0.8156
  951MOL0     H28384   4.739   2.513   9.555  0.4007  1.6253  2.9759
  951MOL0     H28385   4.622   2.687   9.426  0.3537  0.3060 -2.5479
  952MOL0     O28386   1.059   6.698   1.261  0.0299  0.5294  0.6188
  952MOL0     C28387   1.038   6.714   1.377 -0.1163 -0.2408  0.7673
  952MOL0     O28388   0.950   6.810   1.421 -0.2433 -0.6289 -1.1131
  952MOL0     C28389   0.896   6.918   1.355  0.0722 -0.8125  0.1871
  952MOL0     C28390   0.923   6.967   1.224  0.1640  0.0485 -0.2117
  952MOL0     C28391   0.876   7.089   1.185  0.1666  0.2859 -0.5242
  952MOL0     C28392   0.792   7.167   1.267 -1.0596 -0.4485 -0.3968
  952MOL0     O28393   0.763   7.286   1.214  0.2500  0.1954 -1.1416
  952MOL0     C28394   0.772   7.406   1.294 -0.1564  0.0509  0.4891
  952MOL0     C28395   0.914   7.457   1.268 -0.9159 -0.5397  0.7030
  952MOL0     C28396   0.958   7.491   1.121 -0.0742  1.2539  0.9550
  952MOL0     C28397   1.109   7.501   1.131  0.7457  0.6168 -0.5842
  952MOL0     C28398   1.185   7.525   1.001 -0.4677  0.1027  0.8899
  952MOL0     C28399   1.338   7.529   1.033  0.1759  0.7478 -0.5408
  952MOL0     C28400   1.420   7.501   0.903  0.5190  0.0901 -0.6040
  952MOL0     C28401   1.568   7.497   0.926 -0.7342  0.3389  0.5738
  952MOL0     N28402   1.614   7.386   1.005  0.1370  0.1121  0.9387
  952MOL0     C28403   1.594   7.257   0.974  0.0273 -0.1951  0.2956
  952MOL0     C28404   1.595   7.184   1.086 -0.0143  0.0684  0.0667
  952MOL0     C28405   1.559   7.043   1.116  1.0055 -0.1666 -0.0282
  952MOL0     C28406   1.407   7.019   1.099 -0.0130  0.2224  0.4808
  952MOL0     C28407   1.336   7.094   1.217  0.0010 -0.5565 -0.6178
  952MOL0     C28408   1.351   7.037   1.357 -0.3865 -0.2945 -0.0162
  952MOL0     O28409   1.242   7.085   1.437  0.1877 -0.5817  0.1628
  952MOL0     C28410   1.247   7.212   1.486  0.4158 -0.3248 -0.0496
  952MOL0     C28411   1.349   7.309   1.472  0.1022 -0.1360 -0.7907
  952MOL0     C28412   1.334   7.432   1.534  0.3713 -0.7158  0.7892
  952MOL0     C28413   1.446   7.529   1.527  1.0167  1.1365 -0.7547
  952MOL0     C28414   1.217   7.468   1.609  0.5833  0.8966 -0.1124
  952MOL0     C28415   1.184   7.594   1.669  1.1518  0.7641  0.4116
  952MOL0     O28416   1.080   7.593   1.758 -0.2072  0.1826 -0.4724
  952MOL0     C28417   1.040   7.711   1.819  0.5718  0.2592  0.1425
  952MOL0     C28418   0.913   7.745   1.781 -0.7913 -0.6697 -0.8567
  952MOL0     C28419   0.860   7.862   1.818  0.3352 -0.5389  0.4799
  952MOL0     C28420   0.917   7.934   1.917  0.7328 -0.7256  0.8612
  952MOL0     O28421   0.846   8.044   1.960 -0.6632  0.5300 -0.0909
  952MOL0     C28422   0.909   8.158   2.025  0.0653  1.0185  0.1246
  952MOL0     C28423   0.826   8.287   2.005 -0.1558 -0.0469  0.0763
  952MOL0     C28424   0.907   8.408   2.052  0.1150  0.3765 -0.8923
  952MOL0     C28425   0.812   8.516   2.098  0.7031 -0.1171 -0.4601
  952MOL0     C28426   0.880   8.648   2.108  0.0570  0.6243 -0.2459
  952MOL0     C28427   0.999   8.646   2.202 -0.5051 -0.6236 -0.2243
  952MOL0     C28428   1.058   8.792   2.218  0.2609 -0.4785  0.3014
  952MOL0     C28429   1.181   8.785   2.316 -0.2506  0.1906  0.6363
  952MOL0    Cl28430   1.317   8.698   2.233  0.4752  0.5201  0.1537
  952MOL0     C28431   1.041   7.900   1.962  0.4557  0.1264 -0.6713
  952MOL0     C28432   1.109   7.795   1.906  0.6165  0.2858 -0.3839
  952MOL0     O28433   1.241   7.697   1.627  0.1938 -0.0570  0.2098
  952MOL0     C28434   1.118   7.363   1.623  0.2131  0.8678 -0.2882
  952MOL0     C28435   1.131   7.245   1.555 -0.2451  0.5005  0.1109
  952MOL0     N28436   1.610   7.273   1.194 -0.4585  0.1501 -0.2560
  952MOL0     N28437   1.619   7.399   1.142 -0.4318  0.2983 -0.5334
  952MOL0     C28438   0.751   7.107   1.390  1.1222 -0.8196  0.2136
  952MOL0     C28439   0.819   6.994   1.436  0.9016 -0.3512  0.2550
  952MOL0     C28440   1.116   6.632   1.469 -0.2550  0.2352 -0.1418
  952MOL0     C28441   1.204   6.529   1.424 -0.1219  0.6972  0.1081
  952MOL0     C28442   1.253   6.428   1.506 -0.7459 -0.1369  0.0770
  952MOL0     C28443   1.225   6.427   1.642  0.5250 -0.0284 -0.3439
  952MOL0     O28444   1.294   6.331   1.712  0.4762 -0.3910 -0.3154
  952MOL0     C28445   1.280   6.318   1.857  0.1939  0.1493 -0.2343
  952MOL0     C28446   1.136   6.259   1.899 -0.6354  0.1100  0.9422
  952MOL0     C28447   1.125   6.109   1.831  0.0772 -0.4495  0.5901
  952MOL0     C28448   1.238   6.004   1.861  0.0161 -1.1474 -0.0527
  952MOL0     C28449   1.219   5.989   2.009  0.1162  0.4354 -0.1742
  952MOL0     C28450   1.218   5.985   2.132 -0.4967  0.4789 -0.2247
  952MOL0     C28451   1.139   6.530   1.689  0.0696  0.3208 -0.1397
  952MOL0     C28452   1.085   6.619   1.599 -0.3661 -1.4219 -0.5626
  952MOL0     H28453   0.981   6.925   1.143 -1.0384 -0.5533 -0.7759
  952MOL0     H28454   0.907   7.126   1.087  2.3556  2.6313  0.9140
  952MOL0     H28455   0.701   7.478   1.251  0.8004 -0.0522 -1.3686
  952MOL0     H28456   0.748   7.389   1.399  0.5521 -2.8640  0.2651
  952MOL0     H28457   0.926   7.550   1.326  0.0906 -1.2248  1.6353
  952MOL0     H28458   0.981   7.388   1.320 -0.9868 -1.2444 -0.1377
  952MOL0     H28459   0.927   7.412   1.052  1.1880  1.1825  0.4421
  952MOL0     H28460   0.918   7.586   1.084  2.0900  1.7196 -0.3115
  952MOL0     H28461   1.134   7.580   1.202  4.5753  1.6875 -2.8308
  952MOL0     H28462   1.151   7.410   1.176 -1.8621 -1.4483 -2.0488
  952MOL0     H28463   1.167   7.447   0.926 -1.0996  0.3073  0.8175
  952MOL0     H28464   1.155   7.620   0.956  0.1504 -1.1575 -2.5697
  952MOL0     H28465   1.368   7.627   1.071 -0.2985  0.9502 -0.6835
  952MOL0     H28466   1.359   7.447   1.102  2.9144  0.4159 -1.6485
  952MOL0     H28467   1.395   7.403   0.861 -0.7122 -0.2579  0.8403
  952MOL0     H28468   1.400   7.578   0.828 -1.3922 -0.4393 -0.7000
  952MOL0     H28469   1.615   7.583   0.976 -0.0094  1.1783 -1.4614
  952MOL0     H28470   1.621   7.495   0.831  3.2827  0.5105  2.5830
  952MOL0     H28471   1.581   7.224   0.872  2.3006  2.1413 -0.8368
  952MOL0     H28472   1.609   6.984   1.039  0.1071 -0.0374 -0.7291
  952MOL0     H28473   1.593   7.019   1.217  2.0709  0.3531 -0.2494
  952MOL0     H28474   1.367   6.918   1.088 -0.8580  0.4932  0.9213
  952MOL0     H28475   1.377   7.084   1.016  0.0718  0.2395  0.4634
  952MOL0     H28476   1.228   7.092   1.201 -0.2083  0.4341  0.5324
  952MOL0     H28477   1.363   7.200   1.222 -1.0320 -0.3244  0.5186
  952MOL0     H28478   1.450   7.071   1.388 -1.8890  3.6567  1.0597
  952MOL0     H28479   1.347   6.928   1.348 -1.9378 -0.1869 -1.0531
  952MOL0     H28480   1.436   7.279   1.414 -0.2832  0.4620 -1.7008
  952MOL0     H28481   1.540   7.478   1.502 -1.0928 -3.0125 -0.9918
  952MOL0     H28482   1.428   7.601   1.447  0.2854 -0.7249 -2.3517
  952MOL0     H28483   1.463   7.575   1.624 -0.7116 -1.6035  0.9753
  952MOL0     H28484   0.853   7.680   1.718 -0.9168 -2.0141  0.5710
  952MOL0     H28485   0.764   7.892   1.779  0.2785 -1.4305 -0.0982
  952MOL0     H28486   0.924   8.132   2.130  0.3427 -1.5526 -0.4828
  952MOL0     H28487   1.010   8.170   1.986  0.0889 -0.2978 -0.2654
  952MOL0     H28488   0.801   8.305   1.900 -0.6623 -0.1641  0.1752
  952MOL0     H28489   0.738   8.276   2.068  1.3577  0.0835  2.3445
  952MOL0     H28490   0.964   8.444   1.965  3.7700  0.0255  1.1694
  952MOL0     H28491   0.973   8.376   2.133 -0.6693 -2.6605 -1.3135
  952MOL0     H28492   0.718   8.517   2.042 -0.8306 -0.9004  1.9481
  952MOL0     H28493   0.784   8.480   2.197  1.2072  1.5760  0.3379
  952MOL0     H28494   0.810   8.724   2.143 -1.9527 -0.2980 -2.0006
  952MOL0     H28495   0.903   8.691   2.011 -1.5909  4.7690  1.0069
  952MOL0     H28496   0.955   8.610   2.295  1.4716 -1.4826  0.4197
  952MOL0     H28497   1.076   8.578   2.164  1.5352  1.3932  0.0957
  952MOL0     H28498   0.978   8.846   2.269 -0.4317 -1.8659  0.7394
  952MOL0     H28499   1.084   8.844   2.125  4.0536  0.3559  1.6716
  952MOL0     H28500   1.141   8.732   2.403 -3.0719 -0.3059 -0.8406
  952MOL0     H28501   1.217   8.884   2.343  1.0883  0.4307 -1.7776
  952MOL0     H28502   1.088   7.959   2.041  0.5392 -0.6891 -0.0984
  952MOL0     H28503   1.203   7.758   1.945 -0.0121 -0.9334  0.0316
  952MOL0     H28504   1.026   7.392   1.672 -1.2059 -3.2333 -0.1652
  952MOL0     H28505   1.065   7.162   1.577  0.9243 -1.1979 -2.2484
  952MOL0     H28506   0.664   7.154   1.435 -0.6637 -1.8370 -1.9865
  952MOL0     H28507   0.799   6.958   1.536  1.8435  1.7414  1.2394
  952MOL0     H28508   1.213   6.512   1.317 -1.1010  0.4123  0.0629
  952MOL0     H28509   1.318   6.345   1.482 -1.9047 -1.3907  1.0657
  952MOL0     H28510   1.359   6.252   1.895  0.0161  1.1672  2.1266
  952MOL0     H28511   1.310   6.411   1.907  1.5431  0.6477 -1.8968
  952MOL0     H28512   1.056   6.319   1.853  0.6159  0.7006 -0.5831
  952MOL0     H28513   1.126   6.252   2.008  1.4847  1.9990  1.3492
  952MOL0     H28514   1.122   6.132   1.724  3.0129 -1.0697  0.2945
  952MOL0     H28515   1.026   6.072   1.859  0.0855 -0.4992  0.5510
  952MOL0     H28516   1.336   6.023   1.817 -0.4946 -2.8931 -2.0757
  952MOL0     H28517   1.200   5.911   1.818 -2.9493  0.2427 -0.6879
  952MOL0     H28518   1.226   5.984   2.239  2.0736  0.2987 -0.3531
  952MOL0     H28519   1.116   6.528   1.795  2.6134  1.6190  0.5118
  952MOL0     H28520   1.020   6.700   1.630  1.3873  0.8797 -2.5341
  953MOL0     O28521   7.002   6.579   5.064 -0.6990 -0.8933 -0.8217
  953MOL0     C28522   6.938   6.566   5.170  0.1598 -0.9113  0.1093
  953MOL0     O28523   6.804   6.572   5.171 -0.1533  0.2396 -0.4454
  953MOL0     C28524   6.729   6.553   5.059 -0.1860 -0.3962  1.1110
  953MOL0     C28525   6.755   6.454   4.962  0.5355  0.5252 -0.3518
  953MOL0     C28526   6.686   6.458   4.839  0.6662 -0.4030 -0.5739
  953MOL0     C28527   6.587   6.555   4.814  0.5491 -0.1221  0.6633
  953MOL0     O28528   6.530   6.550   4.686 -0.4297  0.1923 -0.3521
  953MOL0     C28529   6.394   6.598   4.680 -0.0589 -0.7291 -0.3514
  953MOL0     C28530   6.308   6.501   4.755  0.1813 -0.0992 -0.4669
  953MOL0     C28531   6.159   6.541   4.747  0.1237  0.3174 -0.3984
  953MOL0     C28532   6.069   6.415   4.755 -0.8366  0.0802 -0.2012
  953MOL0     C28533   5.921   6.470   4.743 -0.3679  0.1668  0.6690
  953MOL0     C28534   5.809   6.351   4.769 -0.7769 -0.8727  0.9352
  953MOL0     C28535   5.672   6.414   4.738  0.3368 -0.1565  0.5025
  953MOL0     C28536   5.626   6.526   4.837 -0.4008  0.1559  0.0357
  953MOL0     N28537   5.480   6.548   4.816  0.8168  0.1062  0.7964
  953MOL0     C28538   5.438   6.649   4.732 -0.2244 -0.1909 -0.1076
  953MOL0     C28539   5.306   6.648   4.752 -0.5367  0.3903  0.1701
  953MOL0     C28540   5.215   6.721   4.656 -0.1230  1.2293 -0.2719
  953MOL0     C28541   5.142   6.834   4.719 -0.1216 -0.4495 -0.2502
  953MOL0     C28542   5.239   6.950   4.754  0.1391 -0.5023  0.3865
  953MOL0     C28543   5.184   7.059   4.849  0.7101  0.0869 -0.0469
  953MOL0     O28544   5.115   7.007   4.961 -0.5439  0.9143  0.9678
  953MOL0     C28545   5.196   6.974   5.076  0.1845 -0.6222  0.8545
  953MOL0     C28546   5.275   6.856   5.086  0.1940 -0.1491 -0.0937
  953MOL0     C28547   5.353   6.833   5.199  1.3075 -0.9558  0.1995
  953MOL0     C28548   5.444   6.712   5.190  0.0660  0.1614 -0.0290
  953MOL0     C28549   5.340   6.925   5.306 -0.1510  0.0454  0.1174
  953MOL0     C28550   5.419   6.903   5.431 -0.1021 -0.1932  0.3344
  953MOL0     O28551   5.477   6.783   5.465  0.2107  0.1171  0.4405
  953MOL0     C28552   5.540   6.769   5.588  0.9121  0.9669 -0.3107
  953MOL0     C28553   5.486   6.811   5.713  0.1438 -1.4326 -0.5923
  953MOL0     C28554   5.552   6.770   5.826 -0.2295  0.2250  0.4862
  953MOL0     C28555   5.662   6.680   5.824  0.7629 -0.6695 -0.0638
  953MOL0     O28556   5.736   6.642   5.931  0.0686 -0.4725 -0.6321
  953MOL0     C28557   5.707   6.662   6.071  0.2749 -0.8646  0.0280
  953MOL0     C28558   5.768   6.547   6.148 -0.0078 -0.3248 -0.6501
  953MOL0     C28559   5.918   6.530   6.130 -0.1680 -0.1024 -0.4170
  953MOL0     C28560   5.990   6.427   6.233 -0.1097 -0.6081  0.5010
  953MOL0     C28561   6.021   6.296   6.170  0.3953 -0.2446 -0.8266
  953MOL0     C28562   5.923   6.188   6.211 -0.3168  0.2444 -0.1382
  953MOL0     C28563   5.785   6.203   6.154  0.2234  1.3606  1.1363
  953MOL0     C28564   5.719   6.070   6.129 -0.2799 -0.1849  0.3411
  953MOL0    Cl28565   5.671   5.993   6.273 -0.0920  0.1113 -0.2038
  953MOL0     C28566   5.714   6.648   5.696 -0.6244  0.3952  0.9739
  953MOL0     C28567   5.653   6.689   5.582 -0.6943 -0.1618 -0.2556
  953MOL0     O28568   5.426   7.001   5.501 -0.2092  0.6258  0.4766
  953MOL0     C28569   5.251   7.036   5.296 -0.1641 -0.3774 -0.3572
  953MOL0     C28570   5.179   7.065   5.181 -0.1333  0.7716  0.1616
  953MOL0     N28571   5.263   6.550   4.849 -0.4156  0.5602  0.4284
  953MOL0     N28572   5.369   6.493   4.881  0.8453  0.6792 -0.2105
  953MOL0     C28573   6.555   6.644   4.920  0.1901  0.1855  0.1940
  953MOL0     C28574   6.627   6.647   5.031  0.2937 -0.4317 -0.0822
  953MOL0     C28575   7.006   6.551   5.295 -0.4103  0.9846  0.4539
  953MOL0     C28576   6.954   6.493   5.408 -0.6520  0.3315  0.0217
  953MOL0     C28577   7.023   6.473   5.522 -0.3821 -0.1827  0.4560
  953MOL0     C28578   7.160   6.510   5.534 -0.1180 -0.2407  0.5162
  953MOL0     O28579   7.246   6.496   5.645  0.1774  0.0019 -0.3048
  953MOL0     C28580   7.198   6.407   5.745  0.1603  0.4901 -1.2432
  953MOL0     C28581   7.179   6.491   5.865 -0.7064 -0.4776  0.8099
  953MOL0     C28582   7.171   6.416   6.001  0.0215 -0.4559 -0.0059
  953MOL0     C28583   7.036   6.398   6.041  1.2504 -0.4572  1.3113
  953MOL0     C28584   7.031   6.298   6.154 -0.5510  0.0128  0.9723
  953MOL0     C28585   7.016   6.203   6.232 -0.4504  0.1499 -0.0392
  953MOL0     C28586   7.216   6.573   5.417  0.5720 -0.2675 -0.3902
  953MOL0     C28587   7.141   6.591   5.302  0.2542 -0.1104 -1.0438
  953MOL0     H28588   6.829   6.380   4.991 -1.9901 -1.2486  2.0195
  953MOL0     H28589   6.707   6.380   4.767 -2.0450 -0.2206 -1.6845
  953MOL0     H28590   6.388   6.697   4.726  0.0004 -0.3737 -1.0919
  953MOL0     H28591   6.358   6.600   4.576 -0.3736 -1.4660 -0.2654
  953MOL0     H28592   6.327   6.403   4.712  0.6519 -1.2688  2.1899
  953MOL0     H28593   6.328   6.500   4.863  0.9611 -0.6799 -0.6094
  953MOL0     H28594   6.140   6.605   4.833 -1.9814 -1.7936  0.8469
  953MOL0     H28595   6.137   6.589   4.651 -0.4379 -0.3996 -0.6389
  953MOL0     H28596   6.094   6.341   4.679 -1.8778 -0.9592  0.4445
  953MOL0     H28597   6.103   6.371   4.849  2.3233 -0.7189 -1.5796
  953MOL0     H28598   5.907   6.541   4.824  1.4232 -0.2067  1.3510
  953MOL0     H28599   5.903   6.522   4.649 -0.6109 -3.3637 -1.4244
  953MOL0     H28600   5.825   6.264   4.706 -2.7999 -0.6627  0.0532
  953MOL0     H28601   5.810   6.307   4.869 -1.1077  1.3059  1.9537
  953MOL0     H28602   5.680   6.446   4.634 -0.6247 -1.3330  0.0531
  953MOL0     H28603   5.598   6.334   4.737 -0.0267  0.1713 -0.6761
  953MOL0     H28604   5.689   6.615   4.833  3.5714 -2.3280  1.7021
  953MOL0     H28605   5.630   6.491   4.941  1.1637  1.6348  0.5218
  953MOL0     H28606   5.499   6.722   4.680  1.2718  0.3166  2.1867
  953MOL0     H28607   5.278   6.740   4.569 -1.5065 -1.3551 -2.0090
  953MOL0     H28608   5.145   6.647   4.615  0.9132  0.0908 -0.0438
  953MOL0     H28609   5.089   6.801   4.809 -3.1576  1.9536 -1.0147
  953MOL0     H28610   5.073   6.877   4.647 -0.0843  0.5952  0.3186
  953MOL0     H28611   5.268   7.005   4.665 -0.9241  1.2118  1.0447
  953MOL0     H28612   5.324   6.902   4.803  0.6770  0.1202  0.0709
  953MOL0     H28613   5.109   7.125   4.805 -1.8883 -1.1639  2.1882
  953MOL0     H28614   5.266   7.122   4.883 -0.9241  1.0122  2.4990
  953MOL0     H28615   5.285   6.798   4.995 -2.8624  0.9540 -1.2786
  953MOL0     H28616   5.390   6.627   5.231  1.8133  0.4381  3.1282
  953MOL0     H28617   5.469   6.697   5.084 -3.0697  0.7159 -0.9729
  953MOL0     H28618   5.542   6.723   5.237  0.2550  0.3325 -0.4506
  953MOL0     H28619   5.394   6.868   5.714  1.8225  1.5777 -2.5731
  953MOL0     H28620   5.507   6.799   5.921 -2.8715  1.9921 -1.1571
  953MOL0     H28621   5.736   6.758   6.114 -2.3128 -0.2093  0.4941
  953MOL0     H28622   5.598   6.657   6.081 -0.0382  0.0790 -2.3268
  953MOL0     H28623   5.746   6.561   6.254 -4.0051 -3.6753 -0.7504
  953MOL0     H28624   5.721   6.453   6.116  1.7737 -1.4932 -0.0284
  953MOL0     H28625   5.958   6.631   6.142 -2.0261  0.4628  1.8390
  953MOL0     H28626   5.936   6.489   6.031 -0.2277 -1.2337  0.0221
  953MOL0     H28627   6.083   6.479   6.258 -0.9645 -0.1955  3.0948
  953MOL0     H28628   5.933   6.414   6.325 -2.0074 -1.0087 -0.6614
  953MOL0     H28629   6.118   6.269   6.212  0.6464  1.4677 -0.1967
  953MOL0     H28630   6.029   6.301   6.061  0.3198 -0.6937 -0.8512
  953MOL0     H28631   5.968   6.095   6.176 -1.5797  0.7438 -3.5134
  953MOL0     H28632   5.921   6.176   6.319  2.3477 -0.9494 -0.1584
  953MOL0     H28633   5.791   6.259   6.060 -1.6861 -0.8682 -0.4189
  953MOL0     H28634   5.715   6.250   6.223 -0.8127 -0.3008  1.2669
  953MOL0     H28635   5.786   6.002   6.076 -0.1038  0.0212  0.2993
  953MOL0     H28636   5.631   6.094   6.068  0.0835  2.7963  0.8396
  953MOL0     H28637   5.804   6.591   5.681  0.5773  2.1384  1.2130
  953MOL0     H28638   5.686   6.659   5.483  1.7718 -0.2172  0.5019
  953MOL0     H28639   5.241   7.116   5.369  0.3835  0.9498 -1.6811
  953MOL0     H28640   5.116   7.154   5.180  2.7427  2.9942  1.3687
  953MOL0     H28641   6.466   6.707   4.910 -0.4535 -0.2915  2.3672
  953MOL0     H28642   6.601   6.731   5.094  0.5158 -0.3322 -0.1226
  953MOL0     H28643   6.852   6.455   5.406  0.1303 -1.9826  0.0007
  953MOL0     H28644   6.971   6.424   5.604 -2.8869  2.0890  0.3507
  953MOL0     H28645   7.104   6.355   5.724 -0.1633  0.8283 -0.6846
  953MOL0     H28646   7.282   6.338   5.760  1.1493  1.0842 -3.6227
  953MOL0     H28647   7.089   6.551   5.850 -0.1705  0.4736  1.2493
  953MOL0     H28648   7.263   6.561   5.879 -1.4643  0.2627  1.8299
  953MOL0     H28649   7.237   6.456   6.079 -1.8002  3.7685 -0.4234
  953MOL0     H28650   7.203   6.315   5.974  1.7351  0.2246 -0.6581
  953MOL0     H28651   6.978   6.368   5.953 -0.1511  2.2883  1.1975
  953MOL0     H28652   6.995   6.490   6.085  2.1686  1.0271 -0.7719
  953MOL0     H28653   7.011   6.120   6.299  1.2034  1.7568  2.2585
  953MOL0     H28654   7.319   6.606   5.425  0.1210  0.9202  1.0042
  953MOL0     H28655   7.185   6.652   5.224 -1.0501  1.1586 -0.8279
  954MOL0     O28656   0.125   6.820   6.764 -0.0915  0.3735  0.5043
  954MOL0     C28657   0.060   6.766   6.853  0.3466 -0.3517  0.1827
  954MOL0     O28658   0.109   6.684   6.946 -0.6960  0.6008 -0.2532
  954MOL0     C28659   0.253   6.684   6.957  0.1640  0.1675 -0.0581
  954MOL0     C28660   0.321   6.614   6.858 -0.4343 -0.0938  0.2057
  954MOL0     C28661   0.457   6.596   6.871 -0.0322  0.1317 -0.5001
  954MOL0     C28662   0.535   6.650   6.971 -0.1365 -0.2038  0.0958
  954MOL0     O28663   0.671   6.612   6.970 -0.4110  0.2991 -0.2629
  954MOL0     C28664   0.764   6.665   7.071  0.2578 -0.2820  1.2962
  954MOL0     C28665   0.910   6.621   7.049 -0.5206 -0.2937 -0.5644
  954MOL0     C28666   0.924   6.467   7.046  0.2711 -0.0125  0.7838
  954MOL0     C28667   1.065   6.414   6.997 -0.1860 -0.6049 -0.3471
  954MOL0     C28668   1.056   6.269   6.973 -0.0941 -0.8051 -1.0915
  954MOL0     C28669   1.207   6.216   6.955  0.3562  0.2670  0.3452
  954MOL0     C28670   1.208   6.059   6.950 -0.2337 -0.3003  0.3605
  954MOL0     C28671   1.362   6.004   6.967  0.3055  0.5624 -0.3382
  954MOL0     N28672   1.353   5.858   6.956 -0.1826 -0.2780 -1.2728
  954MOL0     C28673   1.455   5.788   6.892 -0.5203 -1.2248  0.3182
  954MOL0     C28674   1.444   5.663   6.942  0.3955 -0.5859  0.7071
  954MOL0     C28675   1.539   5.551   6.916  0.4652 -0.2187 -0.0679
  954MOL0     C28676   1.535   5.503   6.769  0.7265  0.1593 -0.0405
  954MOL0     C28677   1.395   5.472   6.716  0.2454 -0.2048 -0.1745
  954MOL0     C28678   1.319   5.367   6.802 -0.4799 -0.1744  0.2689
  954MOL0     O28679   1.202   5.320   6.737 -0.5361 -0.9015 -0.2982
  954MOL0     C28680   1.104   5.410   6.698 -0.3909 -0.4056 -0.5949
  954MOL0     C28681   1.035   5.370   6.588  1.3104 -0.4789 -0.1074
  954MOL0     C28682   0.942   5.453   6.522  0.5058 -0.5814 -0.5375
  954MOL0     C28683   0.868   5.397   6.410  0.9536 -0.9756  1.1609
  954MOL0     C28684   0.906   5.580   6.587  0.6195  0.0397 -0.4022
  954MOL0     C28685   0.812   5.683   6.539  0.4839  0.3103  0.8901
  954MOL0     O28686   0.707   5.641   6.461 -0.0836 -0.4525 -0.1021
  954MOL0     C28687   0.612   5.731   6.414 -1.0904 -0.4814 -1.0262
  954MOL0     C28688   0.503   5.780   6.491  0.3191 -0.3372 -0.5065
  954MOL0     C28689   0.406   5.863   6.433  0.2894 -0.1265  0.1292
  954MOL0     C28690   0.421   5.909   6.300  0.6543  0.2454 -0.3175
  954MOL0     O28691   0.329   5.983   6.228 -0.3249 -0.2193 -0.2159
  954MOL0     C28692   0.204   6.014   6.293  0.0703 -0.2570  0.4901
  954MOL0     C28693   0.105   6.077   6.184  1.2163 -0.0736  0.5296
  954MOL0     C28694   0.171   6.198   6.115 -0.0394 -0.1909  0.2365
  954MOL0     C28695   0.060   6.274   6.039 -0.4094 -0.4564  0.3308
  954MOL0     C28696  -0.023   6.353   6.140 -0.0648  0.3308 -0.0835
  954MOL0     C28697  -0.055   6.497   6.098  0.2178  0.5480 -0.1248
  954MOL0     C28698  -0.138   6.499   5.974  0.2872  0.1485 -0.7638
  954MOL0     C28699  -0.164   6.636   5.910 -0.1422 -0.1393 -0.0221
  954MOL0    Cl28700  -0.253   6.743   6.014 -0.3221 -0.0970 -0.0446
  954MOL0     C28701   0.520   5.850   6.230 -0.0858 -0.0886  0.0646
  954MOL0     C28702   0.614   5.763   6.283  0.1505  0.2886  0.1283
  954MOL0     O28703   0.825   5.797   6.578  0.1516 -0.9179  1.0965
  954MOL0     C28704   0.975   5.613   6.710 -0.4977  0.4576  0.0245
  954MOL0     C28705   1.079   5.533   6.761  0.0881  0.2102  0.8070
  954MOL0     N28706   1.345   5.660   7.038 -0.5797 -0.1099  0.6005
  954MOL0     N28707   1.301   5.779   7.057  0.2065 -0.1160  0.2019
  954MOL0     C28708   0.470   6.733   7.065  1.1160 -0.4301 -1.3867
  954MOL0     C28709   0.330   6.744   7.059  0.5356  0.4382  0.0270
  954MOL0     C28710  -0.079   6.789   6.868  0.9735  0.0373  0.3154
  954MOL0     C28711  -0.174   6.813   6.763  0.6876 -0.2022 -0.5234
  954MOL0     C28712  -0.309   6.832   6.797 -0.0123 -0.5985 -0.3137
  954MOL0     C28713  -0.358   6.814   6.922  0.2768 -0.1477  0.2603
  954MOL0     O28714  -0.488   6.811   6.958  0.6500  1.3030 -0.7785
  954MOL0     C28715  -0.589   6.780   6.858 -0.1802  0.4143 -0.3613
  954MOL0     C28716  -0.730   6.758   6.924 -0.8342  0.3423 -0.2002
  954MOL0     C28717  -0.829   6.738   6.813 -0.4822  0.2395  0.6313
  954MOL0     C28718  -0.968   6.755   6.869 -0.2295  0.0312 -0.4784
  954MOL0     C28719  -1.010   6.633   6.931  0.0850  1.6190 -0.2393
  954MOL0     C28720  -1.057   6.536   6.986  0.0541  0.0617  0.8191
  954MOL0     C28721  -0.277   6.787   7.030 -0.7816 -1.2973 -1.1611
  954MOL0     C28722  -0.140   6.778   6.994 -0.2174  1.1131 -0.1693
  954MOL0     H28723   0.263   6.551   6.792  2.0410 -6.1046  3.0215
  954MOL0     H28724   0.502   6.532   6.796  0.4863 -0.7497  0.5433
  954MOL0     H28725   0.761   6.774   7.073  2.1071 -0.1943  0.7938
  954MOL0     H28726   0.729   6.638   7.171  0.7406  1.1941  1.8943
  954MOL0     H28727   0.972   6.684   6.983  1.5712  0.1748  1.7310
  954MOL0     H28728   0.961   6.649   7.142  0.9281 -0.5892 -1.2352
  954MOL0     H28729   0.894   6.440   7.147 -2.8909  0.1061 -0.0252
  954MOL0     H28730   0.844   6.433   6.980 -2.2318  1.2989  2.9524
  954MOL0     H28731   1.090   6.469   6.905 -0.5844  0.4747  0.1781
  954MOL0     H28732   1.143   6.435   7.070 -0.7561  1.4142 -0.2586
  954MOL0     H28733   1.025   6.217   7.064  2.3234 -1.3240 -0.4792
  954MOL0     H28734   0.978   6.245   6.901 -3.7084  0.8910  1.9166
  954MOL0     H28735   1.254   6.258   6.866  2.0143  0.9200  1.4760
  954MOL0     H28736   1.263   6.249   7.043 -0.3697  1.7439  0.2861
  954MOL0     H28737   1.154   6.030   7.040  4.3565  0.2532  3.6379
  954MOL0     H28738   1.166   6.025   6.855  1.7229 -0.9154 -0.3457
  954MOL0     H28739   1.412   6.043   7.057 -0.0184  0.4224 -0.0936
  954MOL0     H28740   1.419   6.044   6.883  1.5660 -0.5004 -0.0321
  954MOL0     H28741   1.534   5.820   6.825 -0.7275 -1.1971  0.0867
  954MOL0     H28742   1.644   5.573   6.938  2.5371 -6.5157 -1.6666
  954MOL0     H28743   1.504   5.471   6.982 -3.4657  0.1760 -1.3920
  954MOL0     H28744   1.593   5.411   6.774 -0.1553 -0.4082 -0.0322
  954MOL0     H28745   1.581   5.573   6.700 -1.2190  1.6182  0.0330
  954MOL0     H28746   1.405   5.425   6.618 -0.7004  0.1181 -0.4409
  954MOL0     H28747   1.336   5.563   6.705  2.0265  0.7970 -2.0149
  954MOL0     H28748   1.292   5.424   6.892 -0.1610 -0.3414  0.4705
  954MOL0     H28749   1.379   5.280   6.827  0.1643  0.3824  0.7002
  954MOL0     H28750   1.048   5.268   6.551 -1.4547 -0.3356 -1.7463
  954MOL0     H28751   0.896   5.295   6.381  1.2915 -0.4629 -0.4003
  954MOL0     H28752   0.763   5.387   6.438  1.2942 -2.4027  2.0311
  954MOL0     H28753   0.880   5.469   6.328  1.0871 -1.4217  0.7844
  954MOL0     H28754   0.499   5.747   6.594  1.4400  1.2758  0.0915
  954MOL0     H28755   0.313   5.882   6.485 -0.1916  1.0069 -1.1047
  954MOL0     H28756   0.161   5.923   6.335 -1.5473 -1.0793 -2.6646
  954MOL0     H28757   0.246   6.076   6.374  2.5396 -1.5644  0.3202
  954MOL0     H28758   0.079   6.000   6.111 -1.0913 -2.3601  3.4940
  954MOL0     H28759   0.009   6.110   6.226  1.5189  0.4619  0.8061
  954MOL0     H28760   0.243   6.157   6.044 -1.5037 -1.1590 -0.7226
  954MOL0     H28761   0.226   6.252   6.193 -1.4386 -0.7949  1.7159
  954MOL0     H28762   0.109   6.346   5.972 -2.4772 -0.3915 -1.2054
  954MOL0     H28763  -0.005   6.220   5.970  0.4528  3.2726 -3.8863
  954MOL0     H28764   0.046   6.369   6.223 -0.4879 -3.2973  1.1812
  954MOL0     H28765  -0.117   6.308   6.174  1.1888 -1.0778  1.7471
  954MOL0     H28766  -0.110   6.538   6.184  2.6886  0.8939  1.3859
  954MOL0     H28767   0.040   6.547   6.079 -0.2460  0.1451 -4.5262
  954MOL0     H28768  -0.231   6.453   6.005  0.5245  1.0186  1.3891
  954MOL0     H28769  -0.106   6.436   5.890 -1.2380 -1.9559  0.1598
  954MOL0     H28770  -0.227   6.623   5.821 -2.5581  0.6427  1.4962
  954MOL0     H28771  -0.063   6.669   5.883  0.7790 -1.2375  1.8878
  954MOL0     H28772   0.527   5.867   6.123  0.8487 -0.4092  0.0641
  954MOL0     H28773   0.688   5.711   6.225  0.3966  0.0668  0.6357
  954MOL0     H28774   0.944   5.703   6.761 -1.4802 -0.2998  0.8177
  954MOL0     H28775   1.140   5.558   6.847  2.5189 -1.9764 -0.1560
  954MOL0     H28776   0.525   6.767   7.152 -3.6991  0.6589  1.5927
  954MOL0     H28777   0.274   6.794   7.138  0.4222  0.7037 -0.2188
  954MOL0     H28778  -0.143   6.821   6.660  1.8987  1.4108 -0.0727
  954MOL0     H28779  -0.386   6.877   6.735  2.1025  1.5939 -1.5427
  954MOL0     H28780  -0.588   6.858   6.782 -1.1053 -2.4331 -3.5442
  954MOL0     H28781  -0.563   6.686   6.809 -0.4101 -0.5938  1.3628
  954MOL0     H28782  -0.745   6.861   6.959  1.6130  0.4022  0.8311
  954MOL0     H28783  -0.726   6.687   7.006  0.1526  3.4731  2.7120
  954MOL0     H28784  -0.814   6.643   6.763  0.4131 -0.4114  2.0639
  954MOL0     H28785  -0.816   6.816   6.737  1.5275 -1.6641 -1.0889
  954MOL0     H28786  -1.033   6.774   6.783  0.0453 -1.2608 -0.9903
  954MOL0     H28787  -0.973   6.832   6.946 -1.9329  1.1328 -1.6078
  954MOL0     H28788  -1.093   6.446   7.031  1.1836 -0.9444 -0.2036
  954MOL0     H28789  -0.316   6.764   7.128 -3.5517 -1.0099 -2.1022
  954MOL0     H28790  -0.074   6.768   7.080  1.5413 -0.7859 -1.6459
  955MOL0     O28791   2.256   7.098   8.703 -0.4891 -0.2925 -0.1941
  955MOL0     C28792   2.129   7.078   8.721 -0.3917  0.3422 -0.5808
  955MOL0     O28793   2.067   7.065   8.843 -0.5847 -0.6384 -0.5434
  955MOL0     C28794   2.131   7.066   8.965  0.0383  0.3777  0.2471
  955MOL0     C28795   2.262   7.024   8.984 -0.3349 -0.8500 -0.3660
  955MOL0     C28796   2.314   7.012   9.110  0.3075  0.0612  0.2564
  955MOL0     C28797   2.234   7.030   9.222 -0.3713 -0.8549 -0.3120
  955MOL0     O28798   2.294   7.003   9.346  0.0942  0.8173  0.0293
  955MOL0     C28799   2.248   7.070   9.463 -0.2226  0.5920  0.0981
  955MOL0     C28800   2.328   7.040   9.595  0.6915 -0.1997 -0.0718
  955MOL0     C28801   2.468   7.113   9.603 -0.2113  1.0113  0.4376
  955MOL0     C28802   2.458   7.260   9.660 -0.3234 -0.0049 -0.4276
  955MOL0     C28803   2.515   7.266   9.804 -0.3182 -0.2849  0.1524
  955MOL0     C28804   2.553   7.411   9.850 -0.1554  0.2483  0.6979
  955MOL0     C28805   2.614   7.416   9.989 -0.1379  0.0199 -0.4632
  955MOL0     C28806   2.505   7.386  10.092 -0.0285  0.1860 -0.5459
  955MOL0     N28807   2.555   7.384  10.229  0.2289 -0.7845 -0.9668
  955MOL0     C28808   2.551   7.485  10.316  1.0305  0.3617 -0.0623
  955MOL0     C28809   2.578   7.428  10.440  1.1572 -0.9377 -0.2035
  955MOL0     C28810   2.574   7.507  10.570 -0.1448 -0.1412 -0.3682
  955MOL0     C28811   2.456   7.453  10.653 -0.3396  0.6603  0.3000
  955MOL0     C28812   2.314   7.504  10.608  0.0562  0.5785  0.6144
  955MOL0     C28813   2.300   7.653  10.637 -0.6840  0.3714  0.1863
  955MOL0     O28814   2.337   7.739  10.532 -0.0576  0.5834  0.6644
  955MOL0     C28815   2.264   7.722  10.411 -0.7157 -0.4458 -0.8601
  955MOL0     C28816   2.322   7.768  10.290  0.2058 -0.8005  0.0978
  955MOL0     C28817   2.268   7.769  10.169 -1.2709 -0.5999  0.0376
  955MOL0     C28818   2.340   7.848  10.060  0.1457  0.1899 -0.5888
  955MOL0     C28819   2.142   7.700  10.154 -0.3916 -0.5710  0.8719
  955MOL0     C28820   2.049   7.718  10.035 -1.9996  0.1535 -0.3765
  955MOL0     O28821   1.926   7.664  10.052 -0.4871 -0.4965 -0.2342
  955MOL0     C28822   1.836   7.672   9.953  0.5304  0.7425  0.1083
  955MOL0     C28823   1.770   7.560   9.902 -0.2285 -0.2411  0.1058
  955MOL0     C28824   1.668   7.567   9.810  0.8274 -0.2497  0.9869
  955MOL0     C28825   1.630   7.693   9.760  0.1024  0.4293 -0.5837
  955MOL0     O28826   1.541   7.722   9.665  1.0710 -0.5747  0.9669
  955MOL0     C28827   1.474   7.616   9.597  0.0910  0.0881  0.7967
  955MOL0     C28828   1.392   7.668   9.473 -0.7994  0.2798 -0.0224
  955MOL0     C28829   1.305   7.551   9.420  0.3282 -0.4198  0.0409
  955MOL0     C28830   1.234   7.593   9.286 -0.1144  0.3811  0.6213
  955MOL0     C28831   1.122   7.694   9.303  0.1860  0.0628  0.3525
  955MOL0     C28832   1.056   7.713   9.168  0.2608  0.8158 -0.1638
  955MOL0     C28833   0.983   7.844   9.168 -0.2424  0.3498  0.8911
  955MOL0     C28834   0.861   7.849   9.257 -0.6182 -0.3351 -0.1359
  955MOL0    Cl28835   0.717   7.756   9.205  0.2008 -0.0959  0.0163
  955MOL0     C28836   1.701   7.807   9.806  1.0304  0.3684  0.1080
  955MOL0     C28837   1.796   7.793   9.906 -0.6914  0.6310 -0.0900
  955MOL0     O28838   2.092   7.773   9.935  0.3484  0.3987  0.3464
  955MOL0     C28839   2.082   7.645  10.270 -0.6140 -0.0604  0.3533
  955MOL0     C28840   2.138   7.661  10.397  0.3040  0.1741 -0.1297
  955MOL0     N28841   2.592   7.286  10.416  0.1791  0.6550 -0.0724
  955MOL0     N28842   2.571   7.264  10.295  0.4692  0.5526  0.6462
  955MOL0     C28843   2.105   7.081   9.209 -0.0818 -0.8592  0.8527
  955MOL0     C28844   2.053   7.101   9.080 -0.3808 -0.1871  0.5794
  955MOL0     C28845   2.049   7.046   8.600 -0.2665 -0.4997 -0.8124
  955MOL0     C28846   2.113   7.025   8.477  0.2613 -0.2103 -0.2261
  955MOL0     C28847   2.034   6.982   8.367  1.6139  0.3280 -0.2122
  955MOL0     C28848   1.898   7.001   8.363 -0.5719 -0.3392 -0.7588
  955MOL0     O28849   1.848   6.987   8.238  0.5114  1.2241  1.0206
  955MOL0     C28850   1.711   7.030   8.205  0.1473  0.2681 -0.6520
  955MOL0     C28851   1.667   6.963   8.070  0.3002  0.1931 -0.3627
  955MOL0     C28852   1.767   6.954   7.970  0.0423 -0.1126  0.1147
  955MOL0     C28853   1.712   6.902   7.840 -0.7235 -0.2546  0.1379
  955MOL0     C28854   1.817   6.897   7.738  0.4707 -0.2128 -0.4274
  955MOL0     C28855   1.892   6.894   7.647 -0.0076  0.5287 -0.1591
  955MOL0     C28856   1.830   7.046   8.479 -1.3260  0.5669  0.3691
  955MOL0     C28857   1.906   7.057   8.603  0.2343  0.4323 -0.1236
  955MOL0     H28858   2.328   7.007   8.899  0.1295 -0.7752 -0.0264
  955MOL0     H28859   2.419   6.989   9.120  0.4510 -0.7049 -2.3981
  955MOL0     H28860   2.249   7.178   9.442  1.6219  0.1880 -2.3888
  955MOL0     H28861   2.145   7.045   9.489 -0.7309  0.1535 -2.0898
  955MOL0     H28862   2.274   7.067   9.685 -0.0938 -1.3593 -0.1752
  955MOL0     H28863   2.342   6.932   9.609 -0.7456 -0.8766 -3.0387
  955MOL0     H28864   2.524   7.049   9.672 -0.1881  0.8292  0.2508
  955MOL0     H28865   2.525   7.112   9.510 -1.6040  0.6588 -0.4424
  955MOL0     H28866   2.504   7.335   9.597 -0.0617  1.0120  0.9280
  955MOL0     H28867   2.355   7.296   9.666  0.0303  1.9853 -3.9700
  955MOL0     H28868   2.434   7.232   9.869 -2.2758  2.2647 -0.8072
  955MOL0     H28869   2.605   7.204   9.815  0.3621  0.2865 -1.8210
  955MOL0     H28870   2.629   7.442   9.778 -0.3065 -1.5255 -0.2938
  955MOL0     H28871   2.471   7.478   9.824  2.3223  2.6420 -1.6961
  955MOL0     H28872   2.697   7.345   9.993 -1.4105 -1.4974  3.1598
  955MOL0     H28873   2.661   7.511  10.016  0.9552 -1.2041  2.3133
  955MOL0     H28874   2.463   7.287  10.074 -1.4959  1.0019 -1.7938
  955MOL0     H28875   2.423   7.455  10.073  0.6325  0.3647 -3.1110
  955MOL0     H28876   2.521   7.587  10.294 -0.3388 -0.3809 -1.7799
  955MOL0     H28877   2.663   7.488  10.631 -0.0417 -0.0226 -0.4807
  955MOL0     H28878   2.568   7.616  10.560 -1.0018 -0.1560 -0.1097
  955MOL0     H28879   2.471   7.471  10.759  0.2458  0.7055  0.2116
  955MOL0     H28880   2.459   7.344  10.648 -0.3189  0.6439  0.6494
  955MOL0     H28881   2.236   7.444  10.655  1.4789 -2.3373 -0.5159
  955MOL0     H28882   2.303   7.478  10.502 -2.0971 -3.0099  1.5620
  955MOL0     H28883   2.359   7.674  10.727  0.7040 -1.4811 -0.2328
  955MOL0     H28884   2.198   7.663  10.674 -1.2717 -0.6691 -1.0615
  955MOL0     H28885   2.420   7.807  10.314  0.4914 -1.9514  0.8695
  955MOL0     H28886   2.350   7.787   9.970 -0.8764  2.6809 -2.4919
  955MOL0     H28887   2.273   7.931  10.033  1.4778  1.1617 -0.9875
  955MOL0     H28888   2.437   7.883  10.096  0.5925  1.0492 -2.5136
  955MOL0     H28889   1.787   7.466   9.954 -2.3111  0.2603  1.8346
  955MOL0     H28890   1.605   7.482   9.784  1.9395 -0.0343 -3.1519
  955MOL0     H28891   1.547   7.539   9.573  0.0844  0.3898 -0.2363
  955MOL0     H28892   1.395   7.570   9.658  0.5956 -1.9873 -0.0327
  955MOL0     H28893   1.334   7.755   9.504  3.7485  3.2003  1.2826
  955MOL0     H28894   1.450   7.697   9.385  1.1258 -2.2908  0.2580
  955MOL0     H28895   1.230   7.525   9.495 -0.3098  0.2917 -0.3447
  955MOL0     H28896   1.371   7.470   9.385  1.6886 -0.0432  1.6163
  955MOL0     H28897   1.317   7.630   9.225  1.8934 -1.1985  2.2548
  955MOL0     H28898   1.174   7.510   9.247 -0.3880  1.7872 -2.1513
  955MOL0     H28899   1.161   7.791   9.335 -2.7262  2.9421 -3.6020
  955MOL0     H28900   1.053   7.662   9.382  2.1071  1.0965  2.5698
  955MOL0     H28901   1.126   7.719   9.084  1.5709  3.0593  0.9972
  955MOL0     H28902   0.990   7.626   9.158  0.6381  0.4870  0.1730
  955MOL0     H28903   0.962   7.860   9.062 -3.8559 -1.6884  1.1575
  955MOL0     H28904   1.041   7.928   9.207 -0.5883  1.3955 -0.7174
  955MOL0     H28905   0.830   7.952   9.274 -0.1717  0.4323 -3.2403
  955MOL0     H28906   0.902   7.807   9.349  1.1922  3.1966  0.8199
  955MOL0     H28907   1.679   7.910   9.780 -2.4994 -0.2377  0.2025
  955MOL0     H28908   1.843   7.879   9.953  1.8422 -0.5940 -0.2316
  955MOL0     H28909   1.983   7.602  10.261 -0.4780 -0.2835 -0.0988
  955MOL0     H28910   2.080   7.632  10.484 -1.5020 -1.4573 -1.7933
  955MOL0     H28911   2.044   7.120   9.290  1.5081  3.1214  0.3296
  955MOL0     H28912   1.958   7.154   9.069 -1.2242 -1.8220 -0.3816
  955MOL0     H28913   2.221   7.017   8.469  0.1019 -0.8309 -2.4991
  955MOL0     H28914   2.083   6.960   8.272 -0.4883  0.8404 -1.4986
  955MOL0     H28915   1.655   6.998   8.293  1.2314  2.1211  0.8082
  955MOL0     H28916   1.698   7.137   8.186 -1.7903  0.0051 -0.9907
  955MOL0     H28917   1.572   7.002   8.031  0.6514  0.4151 -1.0167
  955MOL0     H28918   1.638   6.861   8.097  2.5280 -0.2019  0.7542
  955MOL0     H28919   1.841   6.880   8.003 -0.1274 -0.1355  0.4507
  955MOL0     H28920   1.832   7.042   7.976  1.3400 -1.1314  2.9966
  955MOL0     H28921   1.631   6.954   7.789  0.6753 -0.7317 -2.7896
  955MOL0     H28922   1.686   6.798   7.863 -0.9285 -0.0066  1.0571
  955MOL0     H28923   1.956   6.904   7.562 -0.7462 -1.4812 -1.0008
  955MOL0     H28924   1.723   7.065   8.477 -2.0630 -2.9104 -2.0653
  955MOL0     H28925   1.838   7.073   8.685 -3.0417 -2.6606 -1.9696
  956MOL0     O28926   2.962   9.348   8.053 -0.2622 -0.2464 -0.3706
  956MOL0     C28927   3.066   9.291   8.054 -0.0596 -0.6322  0.5667
  956MOL0     O28928   3.172   9.315   7.964 -0.5335 -0.7691 -1.1850
  956MOL0     C28929   3.128   9.350   7.843  0.8942  0.2196  0.1834
  956MOL0     C28930   3.015   9.285   7.786 -0.1185 -1.0067 -0.6872
  956MOL0     C28931   2.979   9.316   7.657 -0.4123 -0.3424  0.0230
  956MOL0     C28932   3.051   9.416   7.588 -0.0646 -0.0635  0.2478
  956MOL0     O28933   3.001   9.442   7.467  0.4693  0.9495  0.1801
  956MOL0     C28934   3.073   9.528   7.382  0.3359  0.2177 -0.2720
  956MOL0     C28935   3.062   9.672   7.418  0.0792  0.5070  0.0574
  956MOL0     C28936   3.179   9.751   7.348  0.4547  0.9535 -0.0069
  956MOL0     C28937   3.199   9.886   7.417 -0.5526 -0.9800 -0.9694
  956MOL0     C28938   3.253  10.002   7.325  0.0342 -0.1879  0.1311
  956MOL0     C28939   3.272  10.138   7.386 -0.2646  1.1380  0.5190
  956MOL0     C28940   3.297  10.265   7.298 -0.6875  0.5404  0.5580
  956MOL0     C28941   3.180  10.301   7.198 -0.2143  0.0257  0.4986
  956MOL0     N28942   3.093  10.389   7.272 -0.3648 -0.1011  0.4824
  956MOL0     C28943   3.011  10.359   7.373  0.6546 -0.2765  0.0473
  956MOL0     C28944   2.974  10.476   7.434 -0.2705 -0.4456  0.5441
  956MOL0     C28945   2.866  10.493   7.544  0.1692  0.4186  0.0728
  956MOL0     C28946   2.919  10.506   7.683  0.8608  0.1603  0.3732
  956MOL0     C28947   2.939  10.369   7.752  0.9983  0.2107  0.0852
  956MOL0     C28948   2.801  10.309   7.795 -0.0400  0.1610  0.1392
  956MOL0     O28949   2.826  10.218   7.895 -1.2163  0.6253  0.4410
  956MOL0     C28950   2.712  10.145   7.932  0.4419 -1.0751 -0.0499
  956MOL0     C28951   2.710  10.075   8.051 -0.2249  0.2302  0.3732
  956MOL0     C28952   2.610  10.006   8.107  0.0795  0.6517 -0.1796
  956MOL0     C28953   2.622   9.949   8.241  0.6893  0.2488 -0.4339
  956MOL0     C28954   2.494   9.990   8.027 -0.1251 -0.4771  0.8288
  956MOL0     C28955   2.369   9.911   8.062  0.1001 -0.6847  0.2533
  956MOL0     O28956   2.271   9.904   7.960 -0.0609 -0.3973 -0.0777
  956MOL0     C28957   2.146   9.838   7.984  0.2861 -0.8452  0.2040
  956MOL0     C28958   2.135   9.712   8.033  0.5552 -0.3920  0.6912
  956MOL0     C28959   2.012   9.643   8.053  0.1211  0.1467  0.9183
  956MOL0     C28960   1.893   9.709   7.995 -0.4683  0.7075  0.0112
  956MOL0     O28961   1.770   9.643   8.009  0.1432 -0.4139  0.1764
  956MOL0     C28962   1.651   9.707   7.958 -0.4479 -0.1606  0.7947
  956MOL0     C28963   1.530   9.616   7.970 -1.2120 -0.3347  0.0967
  956MOL0     C28964   1.447   9.665   8.092 -0.1617  0.2628  0.2393
  956MOL0     C28965   1.315   9.606   8.091  0.3061  0.7444  0.8060
  956MOL0     C28966   1.205   9.682   8.173  0.0473  0.2545  0.5149
  956MOL0     C28967   1.239   9.666   8.324 -0.4500 -0.0858 -0.0586
  956MOL0     C28968   1.174   9.538   8.390  1.6018  1.0732 -0.9214
  956MOL0     C28969   1.255   9.483   8.505  0.2149 -0.3053  0.2893
  956MOL0    Cl28970   1.288   9.590   8.645 -0.4759 -0.0845 -0.0549
  956MOL0     C28971   1.902   9.839   7.937  0.2693  0.1842 -1.0397
  956MOL0     C28972   2.029   9.903   7.936 -0.9807 -0.5191 -0.6961
  956MOL0     O28973   2.357   9.854   8.167  0.0984  0.7529 -0.6253
  956MOL0     C28974   2.481  10.075   7.911 -0.0805  0.0145  0.1156
  956MOL0     C28975   2.589  10.150   7.863 -0.1395 -0.5657 -0.7036
  956MOL0     N28976   3.048  10.573   7.366  1.1171 -0.8942  0.3715
  956MOL0     N28977   3.117  10.521   7.271  0.6158  0.3930  0.3218
  956MOL0     C28978   3.163   9.478   7.645  0.4045  0.7784  0.7369
  956MOL0     C28979   3.202   9.437   7.771 -0.5459  0.4909  0.2274
  956MOL0     C28980   3.075   9.181   8.150  0.5036  0.0396  0.4432
  956MOL0     C28981   2.968   9.168   8.244 -0.3629 -0.3153  0.2622
  956MOL0     C28982   2.968   9.068   8.340 -0.5436  0.1221  0.9075
  956MOL0     C28983   3.069   8.972   8.336 -0.3033  0.6221  0.8027
  956MOL0     O28984   3.071   8.876   8.432  0.1029  0.0258  1.3947
  956MOL0     C28985   3.186   8.784   8.445  0.9693  0.0421  0.0626
  956MOL0     C28986   3.207   8.740   8.591 -0.5342  1.1164  0.3365
  956MOL0     C28987   3.301   8.616   8.583  0.0203 -0.3734  1.2073
  956MOL0     C28988   3.220   8.488   8.614 -0.0321 -0.1698 -0.7600
  956MOL0     C28989   3.139   8.503   8.736 -0.7085  0.5375 -0.0998
  956MOL0     C28990   3.067   8.512   8.831 -0.0830 -0.3424 -0.8690
  956MOL0     C28991   3.182   8.986   8.242 -0.4156  0.2830  0.3524
  956MOL0     C28992   3.177   9.092   8.148 -0.1182  0.4238  0.7456
  956MOL0     H28993   2.964   9.211   7.847  0.4172  1.2926  2.8031
  956MOL0     H28994   2.893   9.264   7.618  0.2870 -2.2148  0.8587
  956MOL0     H28995   3.179   9.501   7.378  0.3569  0.3640 -0.7907
  956MOL0     H28996   3.029   9.530   7.282 -0.1906  1.8021 -0.0322
  956MOL0     H28997   2.958   9.704   7.407 -0.6099 -1.2506  1.0367
  956MOL0     H28998   3.089   9.693   7.522  0.2507 -1.5702  0.4693
  956MOL0     H28999   3.268   9.688   7.349  0.1066  0.4519  0.3034
  956MOL0     H29000   3.152   9.758   7.243  1.0282 -1.4402 -0.3772
  956MOL0     H29001   3.113   9.934   7.465  0.5725  0.5469 -0.3879
  956MOL0     H29002   3.279   9.870   7.490 -0.7860 -0.9704 -0.7076
  956MOL0     H29003   3.344   9.969   7.273  0.7098 -0.4258  1.4186
  956MOL0     H29004   3.168  10.012   7.257 -0.9957 -1.6850  1.1357
  956MOL0     H29005   3.183  10.154   7.448 -1.1839  1.4266 -0.8339
  956MOL0     H29006   3.355  10.135   7.457 -1.1524 -0.8387  1.5650
  956MOL0     H29007   3.329  10.349   7.360  1.1883 -0.1501  0.5782
  956MOL0     H29008   3.381  10.241   7.232 -3.3328 -2.1277 -2.1489
  956MOL0     H29009   3.134  10.208   7.165  0.0694  0.0522  0.0296
  956MOL0     H29010   3.224  10.357   7.115 -2.9741  1.7602  0.0958
  956MOL0     H29011   2.981  10.259   7.404  2.8713  0.0282  3.6955
  956MOL0     H29012   2.798  10.577   7.526  1.0248  1.1423  0.1264
  956MOL0     H29013   2.792  10.413   7.537 -3.5814  3.5715 -0.0928
  956MOL0     H29014   2.845  10.562   7.740 -0.1502 -1.9275  1.1851
  956MOL0     H29015   3.017  10.555   7.688  0.8886  0.4157 -1.6628
  956MOL0     H29016   2.997  10.390   7.842  1.1965 -1.0986  0.2841
  956MOL0     H29017   2.987  10.298   7.684  3.4637 -0.1840  2.1094
  956MOL0     H29018   2.762  10.253   7.710 -0.6288  0.6350  0.1007
  956MOL0     H29019   2.733  10.388   7.827  1.2053 -0.2405  4.4401
  956MOL0     H29020   2.810  10.053   8.087  0.5738  0.5337 -1.5431
  956MOL0     H29021   2.599   9.842   8.235  0.2843  0.3321 -0.3585
  956MOL0     H29022   2.723   9.951   8.283 -0.8284  0.6366  3.6827
  956MOL0     H29023   2.567  10.010   8.314  3.1392  2.3428 -0.2019
  956MOL0     H29024   2.230   9.674   8.070  0.9923 -0.8985 -0.9081
  956MOL0     H29025   2.016   9.542   8.094  3.2708 -1.8539 -3.5079
  956MOL0     H29026   1.630   9.809   7.990 -2.8254 -1.5091  4.0673
  956MOL0     H29027   1.666   9.716   7.850  0.3884 -0.9902  0.8346
  956MOL0     H29028   1.469   9.626   7.879  2.1851 -1.9597 -2.5781
  956MOL0     H29029   1.565   9.513   7.967  2.8866  0.8339  1.5762
  956MOL0     H29030   1.437   9.773   8.080  1.2955  0.3943  0.0331
  956MOL0     H29031   1.500   9.637   8.183 -2.2021 -1.5383  0.9605
  956MOL0     H29032   1.276   9.624   7.990 -0.0984 -0.3611  0.7583
  956MOL0     H29033   1.320   9.498   8.107  2.0278  0.6909  0.1352
  956MOL0     H29034   1.111   9.636   8.141 -0.7328  2.8548 -1.2921
  956MOL0     H29035   1.215   9.786   8.142 -1.1699  0.3166  0.2611
  956MOL0     H29036   1.347   9.650   8.336 -0.7294 -0.5838  2.2417
  956MOL0     H29037   1.201   9.745   8.389 -0.9944 -0.2701 -0.1508
  956MOL0     H29038   1.168   9.460   8.313  1.8082  2.6628 -2.6285
  956MOL0     H29039   1.073   9.558   8.427  2.3606 -0.1341  2.0926
  956MOL0     H29040   1.346   9.447   8.457  1.7133  0.9007  2.0756
  956MOL0     H29041   1.208   9.393   8.548 -0.5184  0.7997  1.9352
  956MOL0     H29042   1.813   9.885   7.896 -2.5625 -2.8132  1.2931
  956MOL0     H29043   2.038  10.000   7.887  2.8829 -0.7673 -0.8151
  956MOL0     H29044   2.377  10.097   7.888 -0.5396  1.7987  3.2007
  956MOL0     H29045   2.583  10.206   7.770 -3.2841  3.3668  1.5169
  956MOL0     H29046   3.216   9.559   7.597  0.1026 -0.4267 -1.7981
  956MOL0     H29047   3.291   9.487   7.810  1.0648 -2.3012  0.4294
  956MOL0     H29048   2.890   9.244   8.254 -1.7309 -1.2741 -2.2282
  956MOL0     H29049   2.894   9.071   8.419  0.8616 -2.4032  2.4812
  956MOL0     H29050   3.158   8.697   8.384  1.6518  0.2029 -0.5068
  956MOL0     H29051   3.285   8.813   8.408  1.2962 -3.8542 -2.7601
  956MOL0     H29052   3.104   8.725   8.626 -0.3170  0.7406  0.8300
  956MOL0     H29053   3.249   8.822   8.651  0.4950  2.6295 -2.2982
  956MOL0     H29054   3.371   8.616   8.667  0.1371  0.7454  1.1187
  956MOL0     H29055   3.353   8.608   8.487  0.2356 -0.7511  1.3515
  956MOL0     H29056   3.285   8.402   8.630 -0.3577 -0.1823  0.5789
  956MOL0     H29057   3.150   8.462   8.533  0.0481 -2.2446 -0.2057
  956MOL0     H29058   3.002   8.532   8.914 -1.6313  1.3875 -2.4139
  956MOL0     H29059   3.253   8.904   8.234  0.3974  0.7890  1.9586
  956MOL0     H29060   3.256   9.104   8.075 -0.4847  0.7536  0.4009
  957MOL0     O29061   0.961   1.092   9.418  0.2447  0.0563 -0.4684
  957MOL0     C29062   1.054   1.019   9.465 -0.0071  0.0994  0.5345
  957MOL0     O29063   1.117   0.923   9.402  0.2069 -0.0564 -0.2512
  957MOL0     C29064   1.179   0.977   9.291 -0.3689  0.3694  0.5178
  957MOL0     C29065   1.289   1.075   9.296  0.2368 -0.0627 -0.3546
  957MOL0     C29066   1.362   1.105   9.188 -0.2710  0.1028  0.5226
  957MOL0     C29067   1.330   1.047   9.061  0.0881  0.5127 -0.4741
  957MOL0     O29068   1.422   1.061   8.958  1.1447  0.2493 -0.2273
  957MOL0     C29069   1.465   1.192   8.915  0.1372  0.4888 -0.0696
  957MOL0     C29070   1.372   1.243   8.800  0.3200 -0.3569  0.0773
  957MOL0     C29071   1.401   1.387   8.749 -0.8562  0.3106  0.0713
  957MOL0     C29072   1.533   1.388   8.667 -0.0865 -0.4566 -0.5105
  957MOL0     C29073   1.514   1.346   8.515  0.1716  0.0600 -0.1442
  957MOL0     C29074   1.643   1.394   8.441  0.2679 -0.2598 -0.6273
  957MOL0     C29075   1.769   1.335   8.503 -1.2959 -0.5227  0.8194
  957MOL0     C29076   1.781   1.189   8.468  0.1504 -0.5288 -0.5828
  957MOL0     N29077   1.774   1.158   8.321  0.1735 -0.0782  0.2857
  957MOL0     C29078   1.831   1.231   8.227 -0.4297  0.0934  0.9918
  957MOL0     C29079   1.745   1.218   8.122  0.0138 -0.0606 -0.3666
  957MOL0     C29080   1.744   1.307   8.001 -0.0555  1.1230  0.5392
  957MOL0     C29081   1.858   1.288   7.901 -1.0910 -0.1933  1.0292
  957MOL0     C29082   1.827   1.383   7.780  0.0144  0.0783 -0.8513
  957MOL0     C29083   1.845   1.325   7.643  0.4270  0.5136 -0.5972
  957MOL0     O29084   1.783   1.194   7.624 -0.0937 -0.2950  1.8039
  957MOL0     C29085   1.688   1.174   7.529 -0.7444 -0.7371  0.5117
  957MOL0     C29086   1.714   1.084   7.423 -0.2183 -0.5817  0.6743
  957MOL0     C29087   1.613   1.048   7.331 -0.5834  0.1868 -0.0567
  957MOL0     C29088   1.653   0.951   7.220  0.7622  0.1824  0.0808
  957MOL0     C29089   1.485   1.103   7.341 -0.2196  1.2213  0.1905
  957MOL0     C29090   1.378   1.066   7.252 -0.1268  0.1299  0.6414
  957MOL0     O29091   1.276   1.167   7.229  0.0887  0.3058  0.3127
  957MOL0     C29092   1.148   1.120   7.198 -0.2486  0.5993 -1.2128
  957MOL0     C29093   1.092   1.145   7.076  0.8654  0.5367 -0.8623
  957MOL0     C29094   0.959   1.103   7.051  0.4407 -0.3646  0.2370
  957MOL0     C29095   0.882   1.042   7.154 -0.3895 -0.4089 -0.1452
  957MOL0     O29096   0.749   1.012   7.133  0.7909 -0.2592  0.8017
  957MOL0     C29097   0.684   0.902   7.203  0.3279 -0.3700  0.6306
  957MOL0     C29098   0.544   0.886   7.146 -0.3339 -0.2494 -0.4346
  957MOL0     C29099   0.446   1.011   7.131 -0.2584  0.0068 -0.1203
  957MOL0     C29100   0.336   1.008   7.237  0.1741 -0.2320  0.0201
  957MOL0     C29101   0.377   1.037   7.384 -0.7734  0.0611 -0.9991
  957MOL0     C29102   0.272   1.001   7.489  1.2533 -0.4885 -0.0521
  957MOL0     C29103   0.155   1.106   7.470 -0.3321  0.4255  0.2366
  957MOL0     C29104   0.194   1.253   7.460  0.7498  0.0264 -0.8498
  957MOL0    Cl29105   0.043   1.329   7.473  0.0901  0.1557  0.1596
  957MOL0     C29106   0.933   1.044   7.284 -0.0850  0.2610 -0.6340
  957MOL0     C29107   1.068   1.079   7.310 -0.7537  0.1036  0.2766
  957MOL0     O29108   1.374   0.956   7.198 -0.6282 -0.5667 -0.0994
  957MOL0     C29109   1.464   1.193   7.449 -0.2888  0.3315 -0.3625
  957MOL0     C29110   1.561   1.230   7.540  0.1033 -1.4857 -0.0838
  957MOL0     N29111   1.645   1.130   8.141  0.0709 -0.5414 -0.6800
  957MOL0     N29112   1.673   1.086   8.258 -0.1290 -0.3381  0.5897
  957MOL0     C29113   1.226   0.954   9.058  1.3053  0.3210  0.3050
  957MOL0     C29114   1.153   0.921   9.165 -0.7689 -1.3483 -0.5206
  957MOL0     C29115   1.069   1.033   9.609  0.0073 -0.2151  0.2048
  957MOL0     C29116   0.989   1.126   9.682 -0.4074 -0.3663 -0.7151
  957MOL0     C29117   1.019   1.149   9.820  0.1334 -0.3817  0.0838
  957MOL0     C29118   1.109   1.079   9.896 -0.4235  0.4075  0.4359
  957MOL0     O29119   1.127   1.114  10.027 -0.3972 -0.6241 -0.6674
  957MOL0     C29120   1.169   1.013  10.124  0.4040 -1.5740 -0.7972
  957MOL0     C29121   1.131   1.075  10.260 -0.8177  0.9781  0.1124
  957MOL0     C29122   1.231   1.030  10.367  0.1086  0.3159  0.0887
  957MOL0     C29123   1.206   1.109  10.495  0.1803  0.2317 -0.5275
  957MOL0     C29124   1.102   1.067  10.581 -0.5064  0.3761 -0.5292
  957MOL0     C29125   1.032   1.009  10.661  1.1803  0.3681  0.2903
  957MOL0     C29126   1.173   0.984   9.822  0.3018  0.5222 -0.2074
  957MOL0     C29127   1.165   0.971   9.686 -1.2801  0.2505  1.2775
  957MOL0     H29128   1.325   1.109   9.393  0.4214 -1.5158  0.1099
  957MOL0     H29129   1.454   1.161   9.195  1.6850 -2.9305  0.8411
  957MOL0     H29130   1.462   1.262   8.999  0.9775 -1.1601  1.3935
  957MOL0     H29131   1.568   1.188   8.877  2.0409  0.1736  4.4647
  957MOL0     H29132   1.374   1.168   8.721  1.8340 -0.1506 -0.1038
  957MOL0     H29133   1.273   1.246   8.848  0.0423  1.5327 -0.4930
  957MOL0     H29134   1.322   1.420   8.682  0.8691  2.0028 -1.2649
  957MOL0     H29135   1.408   1.456   8.833  0.5773  0.4171 -0.0999
  957MOL0     H29136   1.578   1.487   8.682 -0.5968 -0.6789  3.6288
  957MOL0     H29137   1.601   1.313   8.708  1.3663  1.7984  1.5446
  957MOL0     H29138   1.500   1.237   8.505  1.3747 -0.0073 -1.4577
  957MOL0     H29139   1.426   1.395   8.472 -0.0011  1.3493  1.6037
  957MOL0     H29140   1.642   1.361   8.336 -2.2786 -1.8528 -0.1995
  957MOL0     H29141   1.641   1.503   8.452  1.5515 -0.0176 -2.2965
  957MOL0     H29142   1.853   1.387   8.456 -1.5610  1.6484  2.5964
  957MOL0     H29143   1.778   1.342   8.612  2.6732  0.7108  0.5670
  957MOL0     H29144   1.694   1.140   8.514  2.0196 -0.9027  2.8767
  957MOL0     H29145   1.870   1.146   8.514  0.4838  2.0872  1.4179
  957MOL0     H29146   1.915   1.299   8.229  2.1490 -2.7053 -1.5213
  957MOL0     H29147   1.651   1.291   7.947  1.4922  0.2979 -2.0925
  957MOL0     H29148   1.750   1.406   8.047  2.1327 -0.0391  3.0466
  957MOL0     H29149   1.866   1.186   7.861 -1.4127  0.1091  0.1542
  957MOL0     H29150   1.955   1.319   7.939  0.2832 -0.9679 -1.5514
  957MOL0     H29151   1.888   1.473   7.789 -0.6518  0.6734 -2.0251
  957MOL0     H29152   1.721   1.411   7.788  0.1887  0.6787 -0.5886
  957MOL0     H29153   1.953   1.312   7.634  0.2124 -2.3551 -0.0305
  957MOL0     H29154   1.793   1.392   7.573  0.5847  0.7535 -0.4843
  957MOL0     H29155   1.812   1.042   7.404 -1.5302 -3.5868 -0.1260
  957MOL0     H29156   1.761   0.964   7.204  0.1145  1.6478 -4.8735
  957MOL0     H29157   1.620   0.854   7.256 -1.7221  1.6730  2.1293
  957MOL0     H29158   1.600   0.964   7.125  0.7317  0.8865  0.1849
  957MOL0     H29159   1.149   1.188   6.994  0.4434  1.3972 -0.7192
  957MOL0     H29160   0.926   1.122   6.950  2.3467 -0.9128 -0.5164
  957MOL0     H29161   0.731   0.805   7.185  2.2635  0.4665  0.9507
  957MOL0     H29162   0.669   0.904   7.311 -2.5694  0.1668  0.2943
  957MOL0     H29163   0.544   0.829   7.053  2.6647 -0.1200 -0.6149
  957MOL0     H29164   0.495   0.814   7.213 -0.2172  0.9747  0.9991
  957MOL0     H29165   0.385   1.010   7.040 -2.6076 -0.3640  1.3851
  957MOL0     H29166   0.499   1.106   7.132 -1.1171  0.4912 -0.1707
  957MOL0     H29167   0.280   1.097   7.206 -0.2449  0.1814  1.8349
  957MOL0     H29168   0.277   0.917   7.224  0.8946 -0.5807 -0.9128
  957MOL0     H29169   0.422   1.136   7.396  0.3258 -0.6331  1.0661
  957MOL0     H29170   0.457   0.966   7.410  0.4457  2.2467  1.6704
  957MOL0     H29171   0.232   0.900   7.487 -2.4345  0.6689  2.8802
  957MOL0     H29172   0.301   1.009   7.594  0.9609 -0.9428  0.0658
  957MOL0     H29173   0.101   1.098   7.565 -1.2898  1.0181 -0.2438
  957MOL0     H29174   0.089   1.079   7.387  0.0925 -0.7145  0.2564
  957MOL0     H29175   0.249   1.285   7.371 -0.3934 -2.2498 -2.4652
  957MOL0     H29176   0.258   1.291   7.540 -0.9590  4.7442 -1.4136
  957MOL0     H29177   0.875   1.023   7.374 -1.4894  1.5991 -1.1958
  957MOL0     H29178   1.102   1.069   7.413 -2.9242  0.8811  1.1281
  957MOL0     H29179   1.368   1.230   7.482 -1.0010 -1.9845  0.3910
  957MOL0     H29180   1.531   1.287   7.628 -1.1346 -0.1229 -1.3305
  957MOL0     H29181   1.203   0.910   8.961  4.5024  0.0871 -0.4817
  957MOL0     H29182   1.079   0.841   9.161 -3.5949  0.8826  2.2411
  957MOL0     H29183   0.904   1.186   9.650 -2.0040 -1.1099  1.8072
  957MOL0     H29184   0.970   1.226   9.879  2.8353  1.4752  0.1169
  957MOL0     H29185   1.119   0.917  10.105 -1.6357 -0.4433 -1.4948
  957MOL0     H29186   1.277   1.002  10.115  0.6913 -1.7193  1.9412
  957MOL0     H29187   1.026   1.048  10.272 -0.2579 -2.4546 -1.4212
  957MOL0     H29188   1.124   1.184  10.256 -4.8086  1.0180  2.3463
  957MOL0     H29189   1.329   1.058  10.328 -0.2589  0.3209 -0.8551
  957MOL0     H29190   1.228   0.921  10.383 -0.7528  0.3562  0.2610
  957MOL0     H29191   1.183   1.215  10.479 -0.9723 -0.1421 -1.5855
  957MOL0     H29192   1.303   1.116  10.544 -0.1147  3.2783 -0.1955
  957MOL0     H29193   0.961   0.976  10.734 -0.4654  1.6042 -0.6553
  957MOL0     H29194   1.247   0.914   9.858  0.9540  1.2551 -0.0973
  957MOL0     H29195   1.229   0.898   9.636 -0.5417  3.7029 -3.4794
  958MOL0     O29196   0.005  11.246   0.861  0.3731  0.5969 -1.2266
  958MOL0     C29197  -0.081  11.189   0.794  0.7095 -0.1224  0.0624
  958MOL0     O29198  -0.158  11.248   0.700 -0.5134 -0.0087 -0.5369
  958MOL0     C29199  -0.120  11.372   0.660  0.7039 -1.1470 -1.0528
  958MOL0     C29200  -0.042  11.392   0.547 -0.3146 -1.1775  0.7035
  958MOL0     C29201  -0.011  11.522   0.500 -0.2855 -0.1957 -1.1039
  958MOL0     C29202  -0.068  11.635   0.560  0.4443  0.2467 -0.3418
  958MOL0     O29203  -0.044  11.756   0.506  1.1423  0.0163  0.6173
  958MOL0     C29204  -0.148  11.849   0.516  1.0482 -0.0953 -0.0507
  958MOL0     C29205  -0.126  11.977   0.432 -0.0292 -0.0512  0.0338
  958MOL0     C29206  -0.142  11.951   0.276 -0.3153  0.6251 -0.9519
  958MOL0     C29207   0.003  11.925   0.212 -0.7941 -0.2423 -0.8165
  958MOL0     C29208   0.011  11.857   0.081  0.7365 -0.4123 -0.1469
  958MOL0     C29209   0.147  11.785   0.067  0.1835  0.0812 -0.2137
  958MOL0     C29210   0.172  11.717  -0.075 -0.6961  0.1372 -0.5486
  958MOL0     C29211   0.207  11.818  -0.189  0.5893 -0.2564  0.3123
  958MOL0     N29212   0.337  11.875  -0.158  0.3045  0.1508  0.3202
  958MOL0     C29213   0.360  12.008  -0.103 -0.5767 -0.1281  0.1202
  958MOL0     C29214   0.490  12.021  -0.091  0.4752 -0.8813  0.6751
  958MOL0     C29215   0.561  12.119  -0.006 -0.3368 -0.7640  0.5445
  958MOL0     C29216   0.689  12.191  -0.071  0.2291  0.3605  1.2727
  958MOL0     C29217   0.655  12.287  -0.190 -0.9362  0.7433  0.3171
  958MOL0     C29218   0.786  12.343  -0.252 -0.2471  0.4500 -1.2934
  958MOL0     O29219   0.842  12.264  -0.355 -0.3789 -0.3247  0.1159
  958MOL0     C29220   0.793  12.268  -0.483 -0.9966 -0.7797  0.2088
  958MOL0     C29221   0.842  12.170  -0.563  0.2094 -0.6577  0.8358
  958MOL0     C29222   0.799  12.154  -0.698 -0.2337 -0.4363  1.0098
  958MOL0     C29223   0.863  12.049  -0.777 -0.0934  0.1010  0.1486
  958MOL0     C29224   0.709  12.249  -0.753 -0.4634  0.5225  0.0629
  958MOL0     C29225   0.705  12.262  -0.906 -0.7643  0.4459  0.3937
  958MOL0     O29226   0.650  12.373  -0.937 -0.2137 -0.0990  0.6907
  958MOL0     C29227   0.633  12.423  -1.064 -0.3556  0.7094  0.7010
  958MOL0     C29228   0.525  12.492  -1.100 -0.4136  0.2659  0.6163
  958MOL0     C29229   0.473  12.511  -1.234  0.2296 -0.1587  0.1398
  958MOL0     C29230   0.548  12.442  -1.330 -0.4441  0.3965 -0.0753
  958MOL0     O29231   0.503  12.454  -1.461  0.2940  0.1454  0.1235
  958MOL0     C29232   0.582  12.423  -1.577 -0.2071  0.4669  0.4568
  958MOL0     C29233   0.512  12.483  -1.694  0.1038  0.4896 -0.4558
  958MOL0     C29234   0.594  12.482  -1.818 -0.1443  0.3122  0.8801
  958MOL0     C29235   0.513  12.534  -1.946 -1.1479  0.0019 -0.0110
  958MOL0     C29236   0.598  12.538  -2.068 -0.2121  0.2088 -0.0418
  958MOL0     C29237   0.636  12.392  -2.104 -0.0729 -0.5165 -0.2477
  958MOL0     C29238   0.705  12.385  -2.244 -0.5127  0.5255 -0.1945
  958MOL0     C29239   0.735  12.239  -2.264 -0.0108  1.2375 -0.3428
  958MOL0    Cl29240   0.847  12.254  -2.410  0.3098  0.5901  0.4630
  958MOL0     C29241   0.677  12.397  -1.300 -0.1463  0.0795 -0.1738
  958MOL0     C29242   0.723  12.391  -1.166  0.0663 -0.6053 -0.1971
  958MOL0     O29243   0.731  12.165  -0.976  0.1546  0.3451 -0.2957
  958MOL0     C29244   0.647  12.340  -0.670 -0.6873 -1.0372 -0.1825
  958MOL0     C29245   0.690  12.350  -0.539 -0.4334 -0.1643  0.5740
  958MOL0     N29246   0.547  11.899  -0.132 -0.4726 -0.5407 -0.1773
  958MOL0     N29247   0.461  11.817  -0.175  0.2224  0.1352  0.9548
  958MOL0     C29248  -0.141  11.627   0.682  0.0984 -0.0278 -0.3502
  958MOL0     C29249  -0.163  11.491   0.733  0.0622 -0.1107 -0.0486
  958MOL0     C29250  -0.133  11.050   0.838  0.5400 -0.4303 -0.7945
  958MOL0     C29251  -0.090  10.990   0.955 -0.2368  0.0498  0.8956
  958MOL0     C29252  -0.150  10.874   1.013 -1.0262  0.1298  0.8389
  958MOL0     C29253  -0.255  10.816   0.938 -0.0271 -0.4369 -0.1500
  958MOL0     O29254  -0.308  10.710   0.997 -0.1275 -0.0408  0.0539
  958MOL0     C29255  -0.445  10.665   0.963  0.7140  0.2936  0.6072
  958MOL0     C29256  -0.466  10.548   1.056  0.0808  0.1499  0.4463
  958MOL0     C29257  -0.442  10.574   1.204  0.1144  1.4150  0.2293
  958MOL0     C29258  -0.444  10.446   1.293  0.4694 -0.2651  0.0272
  958MOL0     C29259  -0.346  10.346   1.254  1.4080 -0.2901 -0.0334
  958MOL0     C29260  -0.258  10.280   1.218  0.0592 -0.0559  0.3939
  958MOL0     C29261  -0.302  10.876   0.820  0.5380  0.6093 -0.1559
  958MOL0     C29262  -0.238  10.988   0.769 -0.6188  0.3859 -0.0349
  958MOL0     H29263  -0.007  11.305   0.494  1.2788  2.3707 -4.9504
  958MOL0     H29264   0.063  11.543   0.424  0.3822  0.4721 -0.2961
  958MOL0     H29265  -0.243  11.798   0.494 -0.7199  1.6022  2.9256
  958MOL0     H29266  -0.155  11.884   0.619  0.6982 -0.5259  0.0733
  958MOL0     H29267  -0.193  12.054   0.471 -0.4195 -0.5247  0.3159
  958MOL0     H29268  -0.023  12.014   0.435 -1.2318  3.7058 -0.1627
  958MOL0     H29269  -0.212  11.869   0.259 -1.8313  1.5702  0.4831
  958MOL0     H29270  -0.187  12.042   0.236 -0.4023  2.1188  2.2512
  958MOL0     H29271   0.050  12.021   0.188 -2.4742  0.3598 -1.8502
  958MOL0     H29272   0.066  11.877   0.287 -1.4371  0.1621  0.0005
  958MOL0     H29273  -0.074  11.789   0.067 -1.3606  1.6352  1.7172
  958MOL0     H29274  -0.006  11.926  -0.002  0.7535 -0.1323  0.0822
  958MOL0     H29275   0.225  11.850   0.105  0.4657 -2.1345  3.3909
  958MOL0     H29276   0.147  11.702   0.139  2.1626  1.2755  1.2344
  958MOL0     H29277   0.246  11.636  -0.078 -1.7807 -0.8789 -3.2461
  958MOL0     H29278   0.081  11.658  -0.087  0.0052 -1.8502  2.7870
  958MOL0     H29279   0.123  11.888  -0.197 -0.9333 -2.1137 -1.1036
  958MOL0     H29280   0.207  11.763  -0.284  1.4844  0.4485 -0.1129
  958MOL0     H29281   0.291  12.079  -0.059  2.4642  3.5724 -0.5109
  958MOL0     H29282   0.490  12.195   0.029  0.1186  1.3036 -2.5709
  958MOL0     H29283   0.604  12.065   0.078  3.3307  2.3275  0.9469
  958MOL0     H29284   0.754  12.112  -0.109  2.0155  1.1560  2.5142
  958MOL0     H29285   0.747  12.248   0.001  0.8202  2.2525 -0.5784
  958MOL0     H29286   0.608  12.372  -0.139 -0.2813  0.8467  0.7640
  958MOL0     H29287   0.579  12.241  -0.254 -0.8626 -1.0291  1.4411
  958MOL0     H29288   0.861  12.346  -0.173 -2.1986 -3.0719  0.9445
  958MOL0     H29289   0.769  12.441  -0.298 -1.3477  0.4550 -0.9020
  958MOL0     H29290   0.917  12.102  -0.525 -0.2958 -1.3039  0.7043
  958MOL0     H29291   0.921  11.985  -0.710 -1.9176  0.0770  1.7950
  958MOL0     H29292   0.794  11.978  -0.822 -1.7360  1.0962  1.0286
  958MOL0     H29293   0.931  12.087  -0.855 -0.5062  1.4343  0.4151
  958MOL0     H29294   0.463  12.536  -1.022 -0.3088 -2.2240  2.1949
  958MOL0     H29295   0.378  12.560  -1.250  0.8081  1.7186  1.9620
  958MOL0     H29296   0.681  12.468  -1.563 -0.7647  1.3131  1.9175
  958MOL0     H29297   0.593  12.315  -1.592 -0.7404  0.4622  0.0825
  958MOL0     H29298   0.420  12.426  -1.710 -0.7422  1.2780  1.3114
  958MOL0     H29299   0.479  12.585  -1.670  1.8958  0.6220  1.8314
  958MOL0     H29300   0.627  12.382  -1.847  1.0780  0.3021  2.1801
  958MOL0     H29301   0.684  12.540  -1.796 -0.5221  1.7264 -1.0926
  958MOL0     H29302   0.426  12.468  -1.947 -0.1493 -1.4269  1.8322
  958MOL0     H29303   0.481  12.636  -1.921 -1.1055  0.3950 -1.4654
  958MOL0     H29304   0.677  12.614  -2.059 -0.4127  0.4845 -0.5853
  958MOL0     H29305   0.543  12.585  -2.150  3.5018  0.2355 -2.7940
  958MOL0     H29306   0.713  12.362  -2.032  0.0739 -0.0515 -0.2053
  958MOL0     H29307   0.545  12.332  -2.111 -0.7724  0.3514  0.9405
  958MOL0     H29308   0.798  12.442  -2.235  1.9458 -2.9485 -1.6459
  958MOL0     H29309   0.642  12.420  -2.327 -2.9213 -0.7772  0.9815
  958MOL0     H29310   0.653  12.168  -2.283  0.4955  0.4702  0.2571
  958MOL0     H29311   0.788  12.193  -2.180  0.0432  0.2765 -0.8864
  958MOL0     H29312   0.745  12.357  -1.375  1.0236  2.6885 -0.6175
  958MOL0     H29313   0.812  12.338  -1.133 -1.8689 -1.6086  4.1948
  958MOL0     H29314   0.578  12.415  -0.707 -1.4560 -0.8042  1.6089
  958MOL0     H29315   0.648  12.422  -0.470  0.9355 -0.7080  2.0640
  958MOL0     H29316  -0.185  11.709   0.736  0.9406  0.7731 -0.8438
  958MOL0     H29317  -0.226  11.470   0.819  0.4573  0.5726  0.4132
  958MOL0     H29318  -0.008  11.043   1.002 -0.5708  1.6080 -0.2196
  958MOL0     H29319  -0.111  10.831   1.105  0.6880  0.5203  0.3168
  958MOL0     H29320  -0.513  10.744   0.996  0.7125 -0.5239  2.7102
  958MOL0     H29321  -0.455  10.637   0.858  0.3797 -0.4147  0.8207
  958MOL0     H29322  -0.397  10.472   1.018  1.2237  2.0318 -1.4733
  958MOL0     H29323  -0.568  10.511   1.041 -1.4391  2.3366  4.1280
  958MOL0     H29324  -0.521  10.640   1.241 -1.6281 -0.2031 -0.5053
  958MOL0     H29325  -0.342  10.617   1.221  1.7418 -1.5279 -1.0823
  958MOL0     H29326  -0.542  10.398   1.289 -0.1331  0.8087  1.2952
  958MOL0     H29327  -0.431  10.474   1.398 -3.4202  0.4652  0.4717
  958MOL0     H29328  -0.183  10.212   1.185 -1.6167 -1.6916 -0.2696
  958MOL0     H29329  -0.390  10.838   0.769 -0.1091  1.2637  0.4574
  958MOL0     H29330  -0.278  11.051   0.690 -1.9994 -0.7035 -0.2344
  959MOL0     O29331   4.043   6.567   9.498  0.6024  0.2811 -0.0441
  959MOL0     C29332   4.004   6.627   9.395 -0.0089  0.9337 -0.2605
  959MOL0     O29333   4.003   6.573   9.266 -0.0844 -0.0734 -0.2536
  959MOL0     C29334   3.983   6.434   9.262  0.5083 -1.0747 -0.5740
  959MOL0     C29335   3.914   6.355   9.355 -0.1908  0.2918 -0.6956
  959MOL0     C29336   3.888   6.219   9.323  0.0783 -0.4757  0.3845
  959MOL0     C29337   3.917   6.166   9.198  0.0882 -0.1574  0.2416
  959MOL0     O29338   3.889   6.036   9.159  0.3051  1.0075 -1.2438
  959MOL0     C29339   3.934   5.931   9.258 -0.9151  0.2265 -0.4096
  959MOL0     C29340   4.094   5.904   9.236 -0.0886 -0.0055 -0.2724
  959MOL0     C29341   4.154   5.781   9.309 -0.3888  0.1591 -1.0338
  959MOL0     C29342   4.096   5.654   9.241  0.5011 -0.0299 -0.1103
  959MOL0     C29343   4.139   5.524   9.313  0.2717  0.2662 -0.0614
  959MOL0     C29344   4.054   5.417   9.240 -0.0156 -0.0801 -1.0865
  959MOL0     C29345   4.075   5.290   9.318 -1.4678 -1.0761 -0.2014
  959MOL0     C29346   4.022   5.171   9.255  0.2568  1.2135  0.1582
  959MOL0     N29347   3.880   5.159   9.291 -0.9968  0.5512  0.0196
  959MOL0     C29348   3.844   5.137   9.420  0.0580  1.2298  0.5027
  959MOL0     C29349   3.713   5.134   9.425  0.3400 -0.3938  0.5252
  959MOL0     C29350   3.634   5.092   9.540  0.3077 -0.0555 -0.6457
  959MOL0     C29351   3.664   4.939   9.569 -0.7863  0.0116 -0.2691
  959MOL0     C29352   3.678   4.881   9.710 -0.0704  0.2356 -0.5485
  959MOL0     C29353   3.803   4.926   9.799 -0.2352  0.5189  0.0328
  959MOL0     O29354   3.791   4.880   9.929 -0.0861 -0.7518 -0.1011
  959MOL0     C29355   3.904   4.901  10.014 -0.4143  0.0347  0.0131
  959MOL0     C29356   3.992   5.003  10.004 -0.2705 -0.3921  0.0005
  959MOL0     C29357   4.093   5.030  10.098  1.5987  0.1331 -0.6121
  959MOL0     C29358   4.172   5.155  10.064 -1.0507 -0.4101  0.0141
  959MOL0     C29359   4.128   4.935  10.196  0.2097 -0.7255  0.4243
  959MOL0     C29360   4.237   4.944  10.301  0.0621 -0.2247 -0.3865
  959MOL0     O29361   4.286   4.824  10.352  0.0587 -0.5097  0.0876
  959MOL0     C29362   4.404   4.824  10.426 -0.2571  0.0206  0.5085
  959MOL0     C29363   4.502   4.735  10.381  0.5228 -0.0566 -0.3611
  959MOL0     C29364   4.619   4.708  10.452 -0.5450  0.0547  0.2371
  959MOL0     C29365   4.654   4.772  10.573  0.9122 -0.3683  0.1125
  959MOL0     O29366   4.777   4.752  10.619  0.4324 -0.2638  0.0734
  959MOL0     C29367   4.804   4.789  10.751  0.0142  0.6386 -0.8977
  959MOL0     C29368   4.948   4.763  10.792  0.8320  0.1722  0.5597
  959MOL0     C29369   4.961   4.751  10.946 -0.1529 -0.7101  0.0680
  959MOL0     C29370   5.097   4.706  10.983 -0.0295  0.5241 -0.6808
  959MOL0     C29371   5.115   4.708  11.138  0.2988  0.1108 -1.1585
  959MOL0     C29372   5.256   4.667  11.187 -0.2117 -0.7198  0.5056
  959MOL0     C29373   5.276   4.521  11.225 -0.1838 -0.5489  0.7265
  959MOL0     C29374   5.263   4.427  11.106  0.4344 -0.1246 -0.0689
  959MOL0    Cl29375   5.353   4.277  11.145 -0.0284  0.2896  0.1017
  959MOL0     C29376   4.565   4.876  10.606 -0.6787 -0.0771 -0.8109
  959MOL0     C29377   4.444   4.897  10.545 -0.7556  0.3314  0.0880
  959MOL0     O29378   4.272   5.054  10.333 -0.0603 -0.2703  0.0582
  959MOL0     C29379   4.033   4.826  10.204  0.0351 -1.3163  0.5143
  959MOL0     C29380   3.921   4.821  10.122  0.2384  0.2433 -0.2719
  959MOL0     N29381   3.667   5.151   9.295  0.3778 -0.2054 -0.8560
  959MOL0     N29382   3.763   5.169   9.210  0.0087 -0.4393 -0.5969
  959MOL0     C29383   3.991   6.243   9.108  0.0089  0.4286 -0.4794
  959MOL0     C29384   4.029   6.375   9.149  0.1644  0.5878 -0.1498
  959MOL0     C29385   3.970   6.765   9.405  0.2619 -0.1721 -0.5615
  959MOL0     C29386   4.039   6.848   9.499  0.1346  0.5301  0.0699
  959MOL0     C29387   4.021   6.989   9.489  0.3104 -0.7147  0.0806
  959MOL0     C29388   3.935   7.044   9.390  0.3792  0.3223 -0.9047
  959MOL0     O29389   3.920   7.174   9.385 -0.3812 -0.0328 -0.5129
  959MOL0     C29390   3.807   7.220   9.464  0.5441 -0.4899 -0.0476
  959MOL0     C29391   3.812   7.377   9.504  0.4858 -0.9629  0.2579
  959MOL0     C29392   3.888   7.470   9.406 -0.1567 -1.2869 -0.6841
  959MOL0     C29393   3.908   7.602   9.470  0.0972  0.0785  0.4716
  959MOL0     C29394   3.967   7.702   9.378 -0.2794 -0.0372  0.2569
  959MOL0     C29395   4.026   7.768   9.292  0.7410  0.8251 -0.3349
  959MOL0     C29396   3.880   6.965   9.294  0.1409 -0.8311  0.1251
  959MOL0     C29397   3.901   6.828   9.303  1.0233 -0.2463  0.1697
  959MOL0     H29398   3.880   6.395   9.450  3.3155  0.4351  0.6496
  959MOL0     H29399   3.830   6.167   9.399 -1.6400 -0.1904 -0.6703
  959MOL0     H29400   3.914   5.964   9.360  0.3149  0.5406 -0.2503
  959MOL0     H29401   3.880   5.839   9.234  3.0211 -1.8383 -2.4114
  959MOL0     H29402   4.121   5.901   9.130  3.1908  0.7328  0.4331
  959MOL0     H29403   4.139   5.997   9.273  1.3721 -1.6399  2.3882
  959MOL0     H29404   4.263   5.781   9.319 -0.5440 -0.6695  1.3890
  959MOL0     H29405   4.126   5.790   9.414  0.4851  0.3948 -0.8197
  959MOL0     H29406   3.989   5.667   9.224  0.2127 -2.0651 -0.0741
  959MOL0     H29407   4.136   5.660   9.140 -2.6026  0.3833 -1.4276
  959MOL0     H29408   4.245   5.498   9.302  0.3928  1.0003 -0.7860
  959MOL0     H29409   4.105   5.537   9.416  1.6639 -1.5144  0.6759
  959MOL0     H29410   3.947   5.440   9.239  0.1185  0.6860  0.0957
  959MOL0     H29411   4.072   5.400   9.133 -0.0738 -3.6551 -0.6414
  959MOL0     H29412   4.182   5.273   9.334 -0.9962  0.2355 -1.7026
  959MOL0     H29413   4.033   5.306   9.417  0.1023  0.1002  0.3036
  959MOL0     H29414   4.072   5.082   9.293 -0.9074 -0.2503 -1.5533
  959MOL0     H29415   4.036   5.186   9.147 -2.0402  0.1153 -0.3639
  959MOL0     H29416   3.911   5.126   9.505  3.6837  1.5459 -2.0887
  959MOL0     H29417   3.667   5.157   9.622  0.8670 -1.1472  0.0149
  959MOL0     H29418   3.526   5.110   9.535  0.3017 -0.2532 -1.2142
  959MOL0     H29419   3.760   4.916   9.522 -0.6057  3.7020 -2.0454
  959MOL0     H29420   3.586   4.895   9.505  2.4238 -0.1856 -4.4706
  959MOL0     H29421   3.665   4.773   9.701  2.2919 -0.3789  2.1082
  959MOL0     H29422   3.586   4.911   9.761 -0.8058 -0.1866 -1.5926
  959MOL0     H29423   3.805   5.036   9.806  2.0363  0.4513  1.9903
  959MOL0     H29424   3.898   4.895   9.757  0.7909  2.1713  0.9801
  959MOL0     H29425   3.983   5.077   9.925  2.1176  1.3590  1.2347
  959MOL0     H29426   4.242   5.170  10.147  0.4882  1.4258 -1.5368
  959MOL0     H29427   4.231   5.129   9.976 -0.6147  2.4727 -0.6368
  959MOL0     H29428   4.115   5.246  10.042  0.2443  0.8164  1.4478
  959MOL0     H29429   4.487   4.667  10.297 -1.5281 -2.4764  1.8121
  959MOL0     H29430   4.700   4.658  10.400 -2.2080 -0.8515 -1.6334
  959MOL0     H29431   4.776   4.893  10.773  0.1851  0.5887 -0.4247
  959MOL0     H29432   4.738   4.737  10.820  1.2106 -0.2525 -0.3957
  959MOL0     H29433   4.969   4.664  10.753 -0.4500 -0.9936  2.6549
  959MOL0     H29434   5.001   4.844  10.741 -2.4739 -0.1786 -4.0795
  959MOL0     H29435   4.886   4.678  10.978  1.1308 -1.9840  0.2624
  959MOL0     H29436   4.930   4.845  10.992 -1.1669 -0.5718 -0.8475
  959MOL0     H29437   5.104   4.601  10.953  1.5169 -0.2867  2.1218
  959MOL0     H29438   5.159   4.777  10.928 -0.3279  0.3918 -1.1857
  959MOL0     H29439   5.039   4.639  11.176 -0.8905  1.2457 -1.4078
  959MOL0     H29440   5.100   4.803  11.189  0.8872 -1.5307  2.3850
  959MOL0     H29441   5.332   4.706  11.118 -1.0968  0.8094  0.3575
  959MOL0     H29442   5.261   4.720  11.282 -2.3594  2.3050 -0.8939
  959MOL0     H29443   5.202   4.502  11.304 -1.2719 -1.0070 -0.3731
  959MOL0     H29444   5.375   4.507  11.269 -0.0085 -1.1033  0.1664
  959MOL0     H29445   5.320   4.467  11.022  3.1975  0.3705  1.9282
  959MOL0     H29446   5.159   4.408  11.077  0.0288 -0.3746  1.4781
  959MOL0     H29447   4.587   4.946  10.686  1.6562 -2.1932  0.5665
  959MOL0     H29448   4.382   4.981  10.575  0.6647  2.6172 -2.8469
  959MOL0     H29449   4.046   4.750  10.281 -1.9754 -0.2600  2.0050
  959MOL0     H29450   3.854   4.736  10.131  0.4330  0.0690 -0.4387
  959MOL0     H29451   4.031   6.211   9.012 -0.4276 -1.1629 -0.1601
  959MOL0     H29452   4.084   6.440   9.082 -0.1146  0.6785 -0.2944
  959MOL0     H29453   4.113   6.806   9.566  0.3490  0.3661 -0.2658
  959MOL0     H29454   4.069   7.057   9.558 -1.5538  0.1310  0.6207
  959MOL0     H29455   3.716   7.208   9.405 -1.5567  0.1441  2.8636
  959MOL0     H29456   3.789   7.160   9.554  1.5422  0.2136  0.6379
  959MOL0     H29457   3.865   7.372   9.600 -2.9075  0.1510  2.3448
  959MOL0     H29458   3.713   7.423   9.509 -0.0884 -2.2051  1.1603
  959MOL0     H29459   3.818   7.483   9.323 -0.4097 -0.0309 -0.3050
  959MOL0     H29460   3.989   7.433   9.385 -0.5715 -1.9269 -1.5771
  959MOL0     H29461   3.973   7.595   9.558 -1.0051 -0.8427  1.2353
  959MOL0     H29462   3.815   7.643   9.509 -0.6417  1.4744 -2.4129
  959MOL0     H29463   4.076   7.830   9.221  2.4649 -0.3972 -0.2418
  959MOL0     H29464   3.833   7.005   9.205  0.7833 -0.9005 -0.2518
  959MOL0     H29465   3.854   6.763   9.231 -2.1232  1.8439  0.1064
  960MOL0     O29466   8.008   6.033   9.904 -0.0881 -0.9673  0.1168
  960MOL0     C29467   7.939   5.968   9.825  1.5560 -0.4883  0.2629
  960MOL0     O29468   7.978   5.912   9.708  0.0381 -0.5310 -0.2610
  960MOL0     C29469   8.087   5.948   9.635  0.0294 -0.9240  0.8854
  960MOL0     C29470   8.124   5.850   9.546  0.3360 -0.3247  0.6981
  960MOL0     C29471   8.235   5.873   9.457 -0.0089  0.6404 -0.4134
  960MOL0     C29472   8.309   5.996   9.461  0.0520  0.1864 -0.1514
  960MOL0     O29473   8.407   6.034   9.376 -0.4376  0.2150  0.0328
  960MOL0     C29474   8.382   6.004   9.237 -0.4537  0.3772  0.0531
  960MOL0     C29475   8.496   5.926   9.178 -0.4609 -0.0396 -0.0408
  960MOL0     C29476   8.617   6.029   9.153 -0.6212 -0.0579  0.0509
  960MOL0     C29477   8.753   5.964   9.125 -1.1002 -0.7709 -0.0359
  960MOL0     C29478   8.792   5.926   8.986 -0.3773 -0.9265 -0.4081
  960MOL0     C29479   8.931   5.882   8.988 -0.4947  0.6807 -0.4584
  960MOL0     C29480   8.953   5.763   8.890 -0.1621 -1.3954  0.6950
  960MOL0     C29481   8.932   5.791   8.741 -0.2070 -0.4217 -0.4401
  960MOL0     N29482   9.016   5.905   8.699  0.0235 -1.0272  0.3965
  960MOL0     C29483   9.147   5.926   8.664  1.0792  0.0271  0.5969
  960MOL0     C29484   9.146   6.049   8.618 -1.1827  0.8132 -0.3702
  960MOL0     C29485   9.264   6.119   8.572 -0.0581 -0.4032  0.1193
  960MOL0     C29486   9.336   6.191   8.682  0.7434  0.4374 -0.5503
  960MOL0     C29487   9.262   6.269   8.793  0.6834  0.5626  0.8062
  960MOL0     C29488   9.346   6.359   8.879 -0.3098 -1.3450  0.2162
  960MOL0     O29489   9.432   6.271   8.945 -0.1690  0.5575  0.1128
  960MOL0     C29490   9.537   6.333   9.007 -0.8451 -0.5052 -1.1042
  960MOL0     C29491   9.633   6.240   9.053  0.1078  0.6293  0.5131
  960MOL0     C29492   9.754   6.273   9.115  0.3903  0.1642  0.2205
  960MOL0     C29493   9.853   6.158   9.134 -0.7879 -0.5671 -1.1897
  960MOL0     C29494   9.775   6.409   9.152  0.0394 -0.1913  0.1343
  960MOL0     C29495   9.899   6.443   9.225  0.2260 -0.1098  0.2351
  960MOL0     O29496  10.010   6.419   9.150  0.1197  0.4068 -0.3010
  960MOL0     C29497  10.120   6.490   9.170  0.4523  1.0153  0.4493
  960MOL0     C29498  10.241   6.436   9.194 -0.3751  0.6015  0.0564
  960MOL0     C29499  10.366   6.503   9.212  0.8055  0.3098 -0.1263
  960MOL0     C29500  10.364   6.644   9.208 -0.9044  0.2631  0.8206
  960MOL0     O29501  10.486   6.703   9.238 -1.0633  0.2939  0.1099
  960MOL0     C29502  10.497   6.851   9.254 -0.4700 -0.9172  0.1399
  960MOL0     C29503  10.429   6.890   9.383  0.4458  0.7481 -0.5599
  960MOL0     C29504  10.439   7.037   9.416 -0.3959 -0.5126  0.1241
  960MOL0     C29505  10.401   7.078   9.559 -0.0344 -0.1159 -0.0631
  960MOL0     C29506  10.442   7.226   9.590 -0.2077 -0.4951 -0.5803
  960MOL0     C29507  10.410   7.276   9.739 -0.0312  0.1645 -0.0360
  960MOL0     C29508  10.454   7.426   9.754  0.5781 -0.1221  0.3687
  960MOL0     C29509  10.518   7.461   9.890  0.5043  0.1178 -0.9768
  960MOL0    Cl29510  10.693   7.432   9.879  0.1891 -0.0815  0.1228
  960MOL0     C29511  10.242   6.707   9.165  0.2938 -0.1154 -0.7386
  960MOL0     C29512  10.124   6.626   9.153 -0.5653 -0.3175  1.2269
  960MOL0     O29513   9.892   6.492   9.337 -0.0142  0.7481  0.3898
  960MOL0     C29514   9.667   6.509   9.136 -0.8663  0.0987  1.3857
  960MOL0     C29515   9.554   6.464   9.053  0.2350  0.1289 -0.6947
  960MOL0     N29516   9.027   6.103   8.616 -0.1041 -0.3999 -0.2315
  960MOL0     N29517   8.951   6.024   8.666  0.0512  0.4126 -0.4955
  960MOL0     C29518   8.268   6.086   9.558 -0.8123  0.0506  0.0142
  960MOL0     C29519   8.157   6.072   9.642 -0.0997  0.4582  0.4675
  960MOL0     C29520   7.797   5.946   9.861 -0.4121 -0.2460 -0.8142
  960MOL0     C29521   7.723   5.849   9.792  0.5929 -0.4045  0.5418
  960MOL0     C29522   7.600   5.814   9.841 -0.3404  0.1809 -0.1869
  960MOL0     C29523   7.530   5.879   9.939 -0.3055 -1.8172 -0.1783
  960MOL0     O29524   7.402   5.844   9.954 -0.4239 -0.1051 -0.4938
  960MOL0     C29525   7.317   5.907  10.060 -0.4057  0.5425 -0.8876
  960MOL0     C29526   7.383   5.872  10.194 -0.5199  0.8787  0.2749
  960MOL0     C29527   7.277   5.878  10.297 -0.1030  0.2054  0.0733
  960MOL0     C29528   7.318   5.842  10.435 -0.2302  0.5874  0.5029
  960MOL0     C29529   7.197   5.802  10.514  0.2198  0.8667 -0.1656
  960MOL0     C29530   7.104   5.786  10.584  0.6637 -0.0560 -0.2983
  960MOL0     C29531   7.585   5.994   9.982 -0.3522  0.1337 -0.4125
  960MOL0     C29532   7.720   6.024   9.957  0.7437 -0.5114 -0.4656
  960MOL0     H29533   8.078   5.752   9.545  1.2741 -0.7735  0.3120
  960MOL0     H29534   8.242   5.782   9.399 -1.2020  0.4438 -0.2588
  960MOL0     H29535   8.292   5.943   9.221  0.1821 -0.8751  1.0911
  960MOL0     H29536   8.377   6.100   9.185 -1.6244  0.3540  0.0812
  960MOL0     H29537   8.526   5.838   9.235 -1.4900 -1.1111 -1.0984
  960MOL0     H29538   8.469   5.891   9.078  1.1349 -0.0586 -0.4994
  960MOL0     H29539   8.596   6.094   9.067 -0.6114 -0.9509 -0.6382
  960MOL0     H29540   8.625   6.101   9.235  1.8098  2.9855 -2.5946
  960MOL0     H29541   8.825   6.036   9.163  0.1400 -0.7677 -2.2294
  960MOL0     H29542   8.771   5.868   9.175 -1.4798 -1.3033 -0.8924
  960MOL0     H29543   8.735   5.842   8.945  0.4177 -2.2143  1.0162
  960MOL0     H29544   8.773   6.013   8.922  3.4728  0.0064 -0.5245
  960MOL0     H29545   9.000   5.966   8.969  1.6839 -1.5653 -3.3269
  960MOL0     H29546   8.956   5.841   9.086 -1.1310  1.9770  0.2713
  960MOL0     H29547   9.058   5.734   8.899  0.5172  0.6777  0.0655
  960MOL0     H29548   8.887   5.680   8.918 -0.3515 -0.5776  2.8414
  960MOL0     H29549   8.829   5.824   8.727 -0.2036 -0.9588 -1.9575
  960MOL0     H29550   8.942   5.701   8.678 -2.1635 -2.1496  1.5537
  960MOL0     H29551   9.227   5.853   8.667  0.4722 -0.6486  0.6710
  960MOL0     H29552   9.324   6.058   8.503 -0.0197 -0.7375  0.4477
  960MOL0     H29553   9.226   6.201   8.510  2.3530  1.4909  0.9434
  960MOL0     H29554   9.391   6.266   8.625  2.5381  0.7391  1.4415
  960MOL0     H29555   9.407   6.123   8.730 -1.3534 -3.3424 -2.3472
  960MOL0     H29556   9.208   6.193   8.851  1.6505  0.1050  1.1190
  960MOL0     H29557   9.180   6.328   8.753  0.6732  0.0595  0.0755
  960MOL0     H29558   9.281   6.406   8.954  0.4604 -0.3625  0.2870
  960MOL0     H29559   9.393   6.433   8.814  0.5598 -0.7734  1.4789
  960MOL0     H29560   9.611   6.142   9.013  1.1555 -0.6366  2.8401
  960MOL0     H29561   9.898   6.124   9.040  0.0779  0.8562 -1.3255
  960MOL0     H29562   9.936   6.177   9.203 -1.0759 -0.8597 -0.7564
  960MOL0     H29563   9.807   6.071   9.182  0.9532 -0.1482  1.4502
  960MOL0     H29564  10.228   6.328   9.195 -2.1295  0.7608  2.0807
  960MOL0     H29565  10.458   6.449   9.234  0.2108 -2.1109 -2.9865
  960MOL0     H29566  10.604   6.868   9.269 -0.9787 -0.3158  4.2585
  960MOL0     H29567  10.449   6.902   9.170 -0.0653 -1.3671 -0.3756
  960MOL0     H29568  10.323   6.865   9.375  0.6479  0.1769 -1.6291
  960MOL0     H29569  10.484   6.833   9.458  5.0922  0.6151 -3.6572
  960MOL0     H29570  10.383   7.090   9.338 -1.2447  0.6816  1.5100
  960MOL0     H29571  10.547   7.055   9.411 -0.1401 -0.7327  3.2321
  960MOL0     H29572  10.297   7.069   9.590  0.2134  0.7243  1.1027
  960MOL0     H29573  10.463   7.023   9.631 -2.0490 -0.7354  1.2865
  960MOL0     H29574  10.384   7.283   9.517 -0.6472  0.0582  0.1814
  960MOL0     H29575  10.545   7.254   9.565 -0.0004 -0.2802  0.4596
  960MOL0     H29576  10.305   7.255   9.761  1.5098 -2.9913  7.4183
  960MOL0     H29577  10.465   7.215   9.812 -0.8269  1.0773  1.3654
  960MOL0     H29578  10.372   7.497   9.746  1.6300  1.0498 -0.3897
  960MOL0     H29579  10.515   7.452   9.667 -3.6617  2.1724 -2.2358
  960MOL0     H29580  10.483   7.394   9.969  1.1209  0.4883 -0.3817
  960MOL0     H29581  10.515   7.568   9.908  0.0045 -0.3990  2.9759
  960MOL0     H29582  10.230   6.814   9.152 -3.3427 -0.5783 -2.3321
  960MOL0     H29583  10.028   6.672   9.134 -0.5997 -1.7446 -2.9236
  960MOL0     H29584   9.688   6.607   9.178 -0.2305  0.1695  0.9284
  960MOL0     H29585   9.476   6.539   9.045  1.8208  1.6272 -3.2284
  960MOL0     H29586   8.344   6.164   9.563  0.2282 -0.6068 -3.3135
  960MOL0     H29587   8.124   6.148   9.711  3.4380  1.3116  1.4600
  960MOL0     H29588   7.775   5.783   9.723 -0.7069 -0.5386 -0.3293
  960MOL0     H29589   7.548   5.728   9.800 -0.7947  0.3441  0.0493
  960MOL0     H29590   7.303   6.015  10.053  0.2530  0.5431 -2.9719
  960MOL0     H29591   7.219   5.859  10.045 -1.5545  2.7793 -0.9027
  960MOL0     H29592   7.458   5.944  10.225  1.7967 -1.1637 -0.2655
  960MOL0     H29593   7.417   5.768  10.194 -1.1543  0.6521  1.2350
  960MOL0     H29594   7.199   5.805  10.272 -1.4517  0.9035  1.9404
  960MOL0     H29595   7.242   5.981  10.306 -2.6205 -0.7269  2.5442
  960MOL0     H29596   7.368   5.920  10.493 -1.8261  0.5103  2.0636
  960MOL0     H29597   7.391   5.760  10.431 -0.3050  0.4309  1.8316
  960MOL0     H29598   7.032   5.770  10.662  0.9633  1.0499  0.2303
  960MOL0     H29599   7.534   6.059  10.053 -2.1325 -1.5743 -0.0310
  960MOL0     H29600   7.759   6.114  10.002 -1.4657  0.6218 -0.6887
  961MOL0     O29601   9.248   9.363   8.236  0.6603  0.2261  0.4176
  961MOL0     C29602   9.257   9.464   8.173 -0.4904  0.1848 -0.3336
  961MOL0     O29603   9.208   9.477   8.039 -0.1847  0.6653 -0.0540
  961MOL0     C29604   9.127   9.371   8.004 -0.9165  0.0812  0.4997
  961MOL0     C29605   9.175   9.266   7.918  0.1290 -1.1609 -0.3089
  961MOL0     C29606   9.093   9.162   7.872  0.3361 -0.8776 -0.0662
  961MOL0     C29607   8.962   9.146   7.927 -0.7442  0.6681 -1.0080
  961MOL0     O29608   8.876   9.053   7.891 -0.6369  0.0428 -0.3162
  961MOL0     C29609   8.934   8.935   7.832 -1.1342  0.9094 -0.2857
  961MOL0     C29610   8.837   8.827   7.804  0.3520  0.7201 -0.5399
  961MOL0     C29611   8.899   8.723   7.715 -0.3756 -0.0994 -0.3572
  961MOL0     C29612   8.855   8.581   7.754 -0.3126 -0.2594  0.4797
  961MOL0     C29613   8.919   8.480   7.661 -0.2874  0.5638  0.0888
  961MOL0     C29614   8.900   8.339   7.695 -0.6289 -0.3970  0.5961
  961MOL0     C29615   8.962   8.259   7.581 -0.9913 -0.3543 -0.4882
  961MOL0     C29616   8.968   8.110   7.592  0.1966 -0.7333 -0.3121
  961MOL0     N29617   8.840   8.040   7.592  0.7043  0.0974 -0.2103
  961MOL0     C29618   8.783   7.990   7.710  0.0575  0.8361 -0.0381
  961MOL0     C29619   8.667   7.934   7.673  0.1326  0.6737 -0.4964
  961MOL0     C29620   8.556   7.886   7.773 -0.2397 -0.7384  1.5413
  961MOL0     C29621   8.425   7.968   7.767  0.2366  0.0755  0.2876
  961MOL0     C29622   8.431   8.101   7.826  0.0614  0.1368  0.0874
  961MOL0     C29623   8.481   8.215   7.734 -0.3460  0.0558  0.0320
  961MOL0     O29624   8.439   8.330   7.801  0.0435 -0.4574  0.1666
  961MOL0     C29625   8.454   8.453   7.738 -0.6101  0.1642 -0.5667
  961MOL0     C29626   8.408   8.562   7.809  0.6342  0.1032  0.9432
  961MOL0     C29627   8.409   8.694   7.766 -0.1191 -1.7062 -0.3292
  961MOL0     C29628   8.349   8.791   7.870 -0.3877 -0.6140  0.3489
  961MOL0     C29629   8.461   8.723   7.633 -0.1786  0.5873  1.1691
  961MOL0     C29630   8.473   8.861   7.575  0.1843  0.5747 -0.7127
  961MOL0     O29631   8.416   8.961   7.648  0.3181 -0.5201 -0.3400
  961MOL0     C29632   8.454   9.081   7.614 -0.3083 -0.9720 -0.1072
  961MOL0     C29633   8.375   9.148   7.524 -0.3469  0.0792  0.6551
  961MOL0     C29634   8.396   9.284   7.494  0.4471 -0.4155  0.0951
  961MOL0     C29635   8.509   9.347   7.550  1.2334 -0.4311  0.2700
  961MOL0     O29636   8.522   9.477   7.513  0.4231 -0.1797  0.4787
  961MOL0     C29637   8.630   9.545   7.557  0.4454 -0.7647  0.3085
  961MOL0     C29638   8.587   9.692   7.558 -0.3636 -0.2376  0.4535
  961MOL0     C29639   8.713   9.771   7.581 -0.1035 -0.6461  0.0816
  961MOL0     C29640   8.685   9.927   7.585  0.0810  0.3605  0.7752
  961MOL0     C29641   8.788  10.007   7.666 -0.0311  0.0094  0.1492
  961MOL0     C29642   8.751  10.151   7.697 -0.7546  0.0795  0.3252
  961MOL0     C29643   8.705  10.180   7.838 -0.0508 -0.4372  0.4703
  961MOL0     C29644   8.577  10.116   7.870  0.7036  0.4246  0.5411
  961MOL0    Cl29645   8.557  10.135   8.041  0.5001  0.0348  0.3733
  961MOL0     C29646   8.589   9.277   7.646 -0.0681  0.0636 -0.4571
  961MOL0     C29647   8.562   9.139   7.672 -0.3392 -0.6263  0.4886
  961MOL0     O29648   8.536   8.871   7.471  1.0350 -0.5379 -0.1142
  961MOL0     C29649   8.513   8.614   7.552  1.3396 -0.2862 -0.6307
  961MOL0     C29650   8.506   8.481   7.605 -0.1270 -0.5246  0.1944
  961MOL0     N29651   8.655   7.950   7.536 -0.3593  0.1545  0.1345
  961MOL0     N29652   8.755   8.020   7.486 -1.4204  0.4025 -1.2444
  961MOL0     C29653   8.919   9.239   8.021  0.2005 -0.6227 -0.1829
  961MOL0     C29654   8.992   9.353   8.049 -0.0834 -0.4419 -0.3149
  961MOL0     C29655   9.333   9.573   8.234 -0.7582 -0.2964 -0.2307
  961MOL0     C29656   9.355   9.691   8.163 -0.0636 -0.3819  0.0583
  961MOL0     C29657   9.409   9.802   8.226 -0.5145 -1.0162 -0.5455
  961MOL0     C29658   9.456   9.798   8.364 -0.0662 -0.3012 -0.1267
  961MOL0     O29659   9.511   9.907   8.430 -0.3846  0.4660  0.7438
  961MOL0     C29660   9.568   9.895   8.567 -0.4301  0.0859 -0.2705
  961MOL0     C29661   9.694   9.818   8.575  1.1551  0.3582 -0.2483
  961MOL0     C29662   9.742   9.829   8.716 -0.3975 -0.8326 -0.4340
  961MOL0     C29663   9.838   9.943   8.751  0.2913 -0.1786  0.2782
  961MOL0     C29664   9.794  10.079   8.722 -0.0124  0.1386 -0.3361
  961MOL0     C29665   9.738  10.187   8.724 -0.3127  0.5157  0.2592
  961MOL0     C29666   9.423   9.677   8.435  0.7165 -1.0702  0.4054
  961MOL0     C29667   9.368   9.573   8.367 -0.1344 -0.8201 -0.8926
  961MOL0     H29668   9.271   9.276   7.867  0.0271  0.7143 -0.1950
  961MOL0     H29669   9.131   9.107   7.786 -1.5614  0.5725 -1.9693
  961MOL0     H29670   8.969   8.956   7.730  0.5163 -0.7485 -0.1174
  961MOL0     H29671   9.015   8.887   7.887 -2.9642 -3.6328 -1.0992
  961MOL0     H29672   8.827   8.778   7.902  0.1553 -0.9590 -1.3548
  961MOL0     H29673   8.736   8.851   7.770  0.4070  1.0091 -0.5026
  961MOL0     H29674   8.874   8.744   7.611 -1.6704 -1.7672 -0.4172
  961MOL0     H29675   9.009   8.724   7.719 -0.2162  2.8096 -2.1194
  961MOL0     H29676   8.885   8.553   7.856 -1.0976  2.5012  1.5593
  961MOL0     H29677   8.746   8.579   7.749 -0.3705  2.2961 -0.7191
  961MOL0     H29678   8.864   8.487   7.567  2.4898 -3.9141 -2.2311
  961MOL0     H29679   9.026   8.496   7.645 -0.0280 -1.7793 -0.8628
  961MOL0     H29680   8.961   8.319   7.784  0.2765  0.8076  0.2700
  961MOL0     H29681   8.794   8.318   7.711 -1.1219  2.2240  1.1813
  961MOL0     H29682   8.904   8.285   7.492  0.0683 -2.6080 -1.9464
  961MOL0     H29683   9.069   8.284   7.572 -0.0787 -3.1450  1.2162
  961MOL0     H29684   9.030   8.059   7.667 -0.5580 -1.1271  0.0536
  961MOL0     H29685   9.031   8.092   7.505 -1.8143 -0.9486 -1.7898
  961MOL0     H29686   8.811   8.002   7.814 -3.3226  2.8777  0.7881
  961MOL0     H29687   8.537   7.779   7.763  1.9852 -0.9776 -4.0156
  961MOL0     H29688   8.596   7.890   7.874  0.3314 -0.9413  1.3248
  961MOL0     H29689   8.347   7.919   7.826  0.9133 -0.5325  0.6839
  961MOL0     H29690   8.386   7.972   7.665  1.1161 -1.7257 -0.1569
  961MOL0     H29691   8.485   8.111   7.920 -0.9237 -0.2441  0.7192
  961MOL0     H29692   8.327   8.130   7.847  0.3238  1.4234 -0.3051
  961MOL0     H29693   8.447   8.214   7.630 -3.7319  0.4706  1.0316
  961MOL0     H29694   8.590   8.205   7.729 -0.4111 -0.2413 -1.2103
  961MOL0     H29695   8.375   8.540   7.910 -1.8765 -0.2950  0.1006
  961MOL0     H29696   8.314   8.736   7.958  0.9330 -1.5107  0.3337
  961MOL0     H29697   8.433   8.858   7.893  1.7535 -2.6248 -1.1455
  961MOL0     H29698   8.263   8.841   7.824 -1.2989 -0.4082  2.1672
  961MOL0     H29699   8.295   9.086   7.486  0.6416 -1.3561  0.8447
  961MOL0     H29700   8.329   9.338   7.428 -2.0773  0.8281  3.4023
  961MOL0     H29701   8.671   9.515   7.653  1.9852 -3.1709 -1.0059
  961MOL0     H29702   8.707   9.534   7.480 -1.2699 -0.4140 -1.5546
  961MOL0     H29703   8.546   9.721   7.461 -0.5734  0.9907  0.8888
  961MOL0     H29704   8.507   9.711   7.630 -0.6017 -0.7088  0.3126
  961MOL0     H29705   8.790   9.753   7.505 -0.6721  1.5846 -1.1185
  961MOL0     H29706   8.749   9.740   7.679 -0.8104  1.4956  1.0995
  961MOL0     H29707   8.670   9.980   7.490  1.8981  1.2710  0.9484
  961MOL0     H29708   8.585   9.939   7.626 -0.7776 -0.7234 -0.9079
  961MOL0     H29709   8.879  10.014   7.605  0.9951 -1.4919  1.4060
  961MOL0     H29710   8.789   9.949   7.758 -2.6148 -0.0928  0.1678
  961MOL0     H29711   8.840  10.214   7.688 -0.2761 -0.6551 -0.2879
  961MOL0     H29712   8.681  10.199   7.628  1.3145  2.7645 -0.0704
  961MOL0     H29713   8.696  10.288   7.851  1.1201 -0.1991 -0.4377
  961MOL0     H29714   8.778  10.140   7.910 -1.1056  2.7559  3.5926
  961MOL0     H29715   8.573  10.010   7.845  0.9275 -0.4912  3.9203
  961MOL0     H29716   8.498  10.159   7.808  0.4069 -2.4839 -1.2792
  961MOL0     H29717   8.680   9.319   7.688  0.4646 -0.4590 -1.0715
  961MOL0     H29718   8.631   9.084   7.735  1.2501  0.3820 -0.3179
  961MOL0     H29719   8.546   8.627   7.450  1.0715  2.2716 -0.4438
  961MOL0     H29720   8.550   8.404   7.541 -0.3410  1.6463 -2.7708
  961MOL0     H29721   8.825   9.233   8.074  0.1458  1.7874  0.0982
  961MOL0     H29722   8.942   9.433   8.103 -1.7452  1.0947 -3.7716
  961MOL0     H29723   9.350   9.695   8.054  2.3951  0.2208 -0.0749
  961MOL0     H29724   9.430   9.887   8.162 -1.3917 -0.1728  0.2564
  961MOL0     H29725   9.582   9.998   8.600  0.5641 -0.2586  0.4374
  961MOL0     H29726   9.500   9.839   8.632  0.6683 -1.1153 -0.1035
  961MOL0     H29727   9.764   9.863   8.503 -0.8435  0.8338 -1.9792
  961MOL0     H29728   9.694   9.714   8.541  0.4022  1.3381 -3.7046
  961MOL0     H29729   9.793   9.737   8.746 -2.0694 -1.2816  1.1915
  961MOL0     H29730   9.662   9.846   8.790 -1.5394  0.6854 -1.9237
  961MOL0     H29731   9.937   9.928   8.706  1.7787  3.0678  2.1828
  961MOL0     H29732   9.859   9.934   8.858 -0.9249  0.5493  0.6016
  961MOL0     H29733   9.672  10.271   8.725 -0.6505  0.3177  3.2193
  961MOL0     H29734   9.449   9.672   8.540 -2.5339 -2.2055  1.2856
  961MOL0     H29735   9.344   9.485   8.426  0.9906 -0.3023  0.3986
  962MOL0     O29736   5.249  11.031   8.974  0.4155 -0.1394 -0.3255
  962MOL0     C29737   5.207  11.139   9.022 -0.2171 -0.3116  0.7054
  962MOL0     O29738   5.095  11.206   8.991  0.3539  0.5391 -0.2250
  962MOL0     C29739   5.010  11.191   8.881  0.2708  0.1885  0.1637
  962MOL0     C29740   5.033  11.188   8.743 -1.0037  0.1468 -0.2452
  962MOL0     C29741   4.930  11.181   8.651 -0.0879  0.4046 -0.8325
  962MOL0     C29742   4.801  11.200   8.692  0.5664 -0.2160  0.5048
  962MOL0     O29743   4.696  11.198   8.597  0.4174  0.8280 -0.3022
  962MOL0     C29744   4.719  11.286   8.482 -0.3527  0.1922  0.0596
  962MOL0     C29745   4.725  11.431   8.514 -0.5518 -0.5623 -0.4017
  962MOL0     C29746   4.824  11.514   8.433  0.4964 -0.5038  0.0567
  962MOL0     C29747   4.973  11.500   8.479  0.2835 -0.5046  0.3072
  962MOL0     C29748   5.057  11.628   8.432 -0.1846  0.1001  0.6515
  962MOL0     C29749   5.081  11.636   8.281 -1.0413 -0.0006 -0.5279
  962MOL0     C29750   5.213  11.571   8.251  0.4849  0.3950  0.5405
  962MOL0     C29751   5.333  11.666   8.259 -0.3607  0.2771  0.7395
  962MOL0     N29752   5.345  11.779   8.171  0.0660  0.0689 -0.5386
  962MOL0     C29753   5.271  11.899   8.187 -1.2913  0.0346  0.1739
  962MOL0     C29754   5.322  11.980   8.090  0.2894 -0.5035  0.1537
  962MOL0     C29755   5.290  12.132   8.066 -0.2402  1.0598  0.7244
  962MOL0     C29756   5.387  12.237   8.115  0.2834 -0.7365 -0.2520
  962MOL0     C29757   5.532  12.191   8.109 -0.6954  0.6615  0.1812
  962MOL0     C29758   5.623  12.301   8.158 -0.7000 -0.0954  0.2784
  962MOL0     O29759   5.599  12.359   8.286  0.6008  0.1516 -0.0585
  962MOL0     C29760   5.543  12.483   8.278 -0.8026  0.6113 -1.2458
  962MOL0     C29761   5.607  12.586   8.199  0.0436  0.4784  0.2157
  962MOL0     C29762   5.566  12.720   8.207  0.3864  0.6586 -0.2690
  962MOL0     C29763   5.634  12.830   8.121  0.1819  0.6396  0.1515
  962MOL0     C29764   5.448  12.751   8.288  0.5825  1.1942  0.1606
  962MOL0     C29765   5.383  12.882   8.293  0.3628 -0.1989  0.3859
  962MOL0     O29766   5.257  12.885   8.341  0.1641  0.9370 -0.0237
  962MOL0     C29767   5.194  12.999   8.397 -0.2952  0.1752 -1.0397
  962MOL0     C29768   5.271  13.095   8.463 -0.4654 -0.8376 -0.2217
  962MOL0     C29769   5.216  13.208   8.532  0.9608  0.4590  0.0986
  962MOL0     C29770   5.077  13.226   8.543 -0.2634 -0.6379  0.4150
  962MOL0     O29771   5.017  13.321   8.620 -0.2693  0.6260  0.0710
  962MOL0     C29772   4.957  13.257   8.737 -0.0628  0.1604  0.7443
  962MOL0     C29773   4.990  13.341   8.869 -1.2380 -0.4278 -0.6287
  962MOL0     C29774   4.865  13.420   8.908  0.7089 -0.7435  0.5132
  962MOL0     C29775   4.849  13.437   9.057  0.2793 -0.0469  0.2739
  962MOL0     C29776   4.760  13.563   9.078  0.1367  0.5819 -0.3167
  962MOL0     C29777   4.707  13.574   9.226 -0.6574 -0.4758  0.1904
  962MOL0     C29778   4.598  13.677   9.221  0.0806  0.0673  0.9006
  962MOL0     C29779   4.534  13.678   9.364 -0.3843 -0.0370 -1.1466
  962MOL0    Cl29780   4.467  13.520   9.392 -0.0847  0.0847 -0.1069
  962MOL0     C29781   4.998  13.137   8.458  0.5165  0.3724 -0.5286
  962MOL0     C29782   5.053  13.022   8.395  0.3889  0.5703 -0.1011
  962MOL0     O29783   5.444  12.980   8.267  0.8154  0.3157 -0.6845
  962MOL0     C29784   5.387  12.647   8.361 -0.7541  0.1946 -0.5655
  962MOL0     C29785   5.437  12.515   8.357  0.4591  0.0432 -0.2900
  962MOL0     N29786   5.421  11.908   8.017 -0.3064  0.1588  0.3510
  962MOL0     N29787   5.427  11.791   8.070 -0.7725  0.4318 -0.6269
  962MOL0     C29788   4.766  11.199   8.823 -0.2505  0.3965  0.1924
  962MOL0     C29789   4.869  11.203   8.916 -0.0128  0.7051 -0.0378
  962MOL0     C29790   5.303  11.212   9.108 -0.5028  0.4979  0.1809
  962MOL0     C29791   5.422  11.155   9.158 -1.2228  0.8763 -1.1802
  962MOL0     C29792   5.502  11.226   9.241  0.1740 -0.3084 -0.5126
  962MOL0     C29793   5.473  11.354   9.281 -0.1871  0.3195 -0.5632
  962MOL0     O29794   5.556  11.417   9.377 -0.1407 -0.4563 -0.7941
  962MOL0     C29795   5.530  11.551   9.417 -0.3701 -0.4508  0.5729
  962MOL0     C29796   5.597  11.661   9.332 -0.2066  1.1543  0.5111
  962MOL0     C29797   5.747  11.624   9.332  0.0662 -0.0185 -0.8827
  962MOL0     C29798   5.839  11.710   9.245  0.0694 -0.4166  0.1160
  962MOL0     C29799   5.843  11.854   9.286  0.1092  0.1004  0.0563
  962MOL0     C29800   5.824  11.970   9.315 -0.4417 -0.1568  0.7640
  962MOL0     C29801   5.356  11.409   9.226  0.7136  0.4837 -0.1617
  962MOL0     C29802   5.275  11.344   9.135  0.5925 -0.2194 -0.6357
  962MOL0     H29803   5.134  11.177   8.705 -1.9815 -0.2066 -2.9080
  962MOL0     H29804   4.950  11.164   8.545 -4.5844  1.1107 -1.9711
  962MOL0     H29805   4.803  11.255   8.418 -0.7630 -0.6182 -0.1026
  962MOL0     H29806   4.631  11.291   8.417  1.0477 -2.7690 -2.3870
  962MOL0     H29807   4.635  11.489   8.489 -0.5720  0.0007  0.8954
  962MOL0     H29808   4.727  11.442   8.623 -0.1611 -4.1326  0.0460
  962MOL0     H29809   4.806  11.494   8.327  0.8944  2.1253 -0.5825
  962MOL0     H29810   4.803  11.620   8.450  0.9169 -0.5488  0.9521
  962MOL0     H29811   4.978  11.485   8.587 -0.9442 -1.0674  0.3059
  962MOL0     H29812   5.001  11.408   8.428 -0.0622  0.9151 -2.6680
  962MOL0     H29813   4.997  11.717   8.455 -1.3040 -0.4098 -0.2175
  962MOL0     H29814   5.155  11.634   8.481 -0.0340 -0.7711  0.4748
  962MOL0     H29815   4.997  11.580   8.237 -1.0058  0.2604 -0.9389
  962MOL0     H29816   5.086  11.737   8.241 -0.2196  0.6371  1.1153
  962MOL0     H29817   5.219  11.484   8.318 -3.7092  0.4895  1.3391
  962MOL0     H29818   5.203  11.530   8.150 -3.9756  1.2247  0.4253
  962MOL0     H29819   5.419  11.600   8.241 -0.1463  0.6851  0.2287
  962MOL0     H29820   5.341  11.696   8.364 -0.4376 -2.3445  1.5741
  962MOL0     H29821   5.200  11.921   8.266 -0.9060  1.7151  0.1001
  962MOL0     H29822   5.270  12.140   7.959  1.0815  0.2809  0.3898
  962MOL0     H29823   5.202  12.156   8.125  2.4985  2.2040  4.7549
  962MOL0     H29824   5.350  12.258   8.216 -3.5570 -0.6859 -1.5191
  962MOL0     H29825   5.368  12.326   8.054 -1.0409 -1.1002 -0.3973
  962MOL0     H29826   5.560  12.154   8.010  1.7557 -0.9657  1.3639
  962MOL0     H29827   5.545  12.106   8.176 -3.0081 -0.0093 -0.1364
  962MOL0     H29828   5.628  12.375   8.078  1.0379  1.2094  1.5144
  962MOL0     H29829   5.726  12.268   8.144 -1.8501 -2.5704 -4.0394
  962MOL0     H29830   5.675  12.563   8.117 -0.2007  0.4415  0.0244
  962MOL0     H29831   5.717  12.780   8.070 -0.6789 -0.8729  0.1728
  962MOL0     H29832   5.567  12.877   8.049  1.3981 -3.8951 -4.5277
  962MOL0     H29833   5.683  12.900   8.190  0.3422 -0.8152  1.5746
  962MOL0     H29834   5.378  13.079   8.464  0.0036  1.7479 -1.2381
  962MOL0     H29835   5.262  13.286   8.593 -4.1331  2.1973  2.3165
  962MOL0     H29836   4.848  13.249   8.728 -0.4374  2.5938  2.2602
  962MOL0     H29837   4.993  13.155   8.756  0.9487  0.7425  2.0481
  962MOL0     H29838   5.000  13.273   8.954 -0.4069  1.3837  0.7945
  962MOL0     H29839   5.081  13.401   8.871 -0.9726 -0.8539  0.2962
  962MOL0     H29840   4.779  13.377   8.858 -0.0196  1.7459 -0.5588
  962MOL0     H29841   4.855  13.512   8.850  0.7443  0.5553  2.4593
  962MOL0     H29842   4.799  13.349   9.099  1.2977 -0.2403  1.1037
  962MOL0     H29843   4.946  13.442   9.108 -0.8369 -1.6556  2.7547
  962MOL0     H29844   4.679  13.565   9.004  0.4675 -4.0437 -1.0632
  962MOL0     H29845   4.823  13.652   9.065 -0.6274  1.3817  1.2550
  962MOL0     H29846   4.676  13.473   9.254 -0.1491 -0.5872  0.3631
  962MOL0     H29847   4.776  13.619   9.298 -1.9551  0.2845  0.9961
  962MOL0     H29848   4.527  13.658   9.140  2.8676 -1.3990 -1.3729
  962MOL0     H29849   4.646  13.774   9.205 -0.8828  0.2528 -1.2137
  962MOL0     H29850   4.449  13.746   9.365 -0.5492  0.0140  3.7614
  962MOL0     H29851   4.606  13.709   9.440 -0.7166 -0.2673 -0.7351
  962MOL0     H29852   4.890  13.140   8.460  0.3463 -2.4940  1.3933
  962MOL0     H29853   5.005  12.943   8.339 -2.1927  0.5489  1.9335
  962MOL0     H29854   5.304  12.669   8.428  0.0351  0.3034  0.3910
  962MOL0     H29855   5.381  12.441   8.412 -2.5611  0.0021 -3.1471
  962MOL0     H29856   4.665  11.207   8.862 -0.5154 -4.2546  1.0625
  962MOL0     H29857   4.825  11.213   9.014 -3.4581  3.1010 -1.6446
  962MOL0     H29858   5.455  11.056   9.128 -0.0855  0.6477  0.6629
  962MOL0     H29859   5.593  11.180   9.279  1.0639  1.5296 -0.3283
  962MOL0     H29860   5.422  11.568   9.428 -0.3322  1.7247 -1.7532
  962MOL0     H29861   5.574  11.569   9.516 -2.1413 -0.2493  1.3625
  962MOL0     H29862   5.572  11.762   9.367 -2.5979  1.7301 -2.5057
  962MOL0     H29863   5.554  11.667   9.232  2.9291 -0.4442 -1.0907
  962MOL0     H29864   5.754  11.518   9.305  0.2912 -0.0491 -0.7028
  962MOL0     H29865   5.785  11.627   9.435  3.2232  1.2752 -1.9779
  962MOL0     H29866   5.803  11.706   9.142 -0.6060 -2.7240  0.3822
  962MOL0     H29867   5.939  11.665   9.243 -0.0627 -0.7322 -2.1373
  962MOL0     H29868   5.818  12.077   9.321 -1.1533 -0.1900  0.7853
  962MOL0     H29869   5.335  11.515   9.239 -1.2806  0.0717  0.3919
  962MOL0     H29870   5.195  11.400   9.088  2.1153  0.3277 -2.7033
  963MOL0     O29871   6.272  10.776   0.088  0.7460  0.2344 -0.0237
  963MOL0     C29872   6.233  10.694   0.002  0.3293 -1.3368 -1.3281
  963MOL0     O29873   6.096  10.666  -0.023  0.0114 -0.5260 -0.6375
  963MOL0     C29874   6.001  10.704   0.061 -0.1931  0.7694  0.1266
  963MOL0     C29875   5.980  10.826   0.119 -0.4391 -0.0153  0.1526
  963MOL0     C29876   5.867  10.853   0.196 -0.3893  0.0529  0.1084
  963MOL0     C29877   5.780  10.760   0.234 -0.3958 -0.9290 -0.9398
  963MOL0     O29878   5.693  10.783   0.339 -0.0721  0.3630 -0.5061
  963MOL0     C29879   5.646  10.917   0.351  0.2546 -0.6646 -0.1761
  963MOL0     C29880   5.505  10.915   0.413  0.5815 -0.0098  0.6974
  963MOL0     C29881   5.500  10.851   0.555  0.3150 -0.0781  0.2694
  963MOL0     C29882   5.530  10.941   0.678  0.3406 -0.3868  0.6294
  963MOL0     C29883   5.561  10.870   0.815  0.9621  0.2496 -0.6159
  963MOL0     C29884   5.683  10.773   0.814 -0.6606 -0.5507 -0.5063
  963MOL0     C29885   5.813  10.848   0.853  0.0919  0.6564 -0.1848
  963MOL0     C29886   5.921  10.753   0.907 -0.0855  0.2583  0.5907
  963MOL0     N29887   5.919  10.743   1.049  0.1537  0.0798  0.6259
  963MOL0     C29888   5.815  10.696   1.120  1.3396  1.0396  0.3092
  963MOL0     C29889   5.854  10.693   1.254  0.4614 -0.0060  0.2322
  963MOL0     C29890   5.768  10.640   1.368  0.2237 -0.1957  0.2398
  963MOL0     C29891   5.663  10.743   1.415 -0.0419 -0.6555  0.2025
  963MOL0     C29892   5.511  10.700   1.416 -0.7469  0.2289  0.3268
  963MOL0     C29893   5.457  10.695   1.267 -0.4694  0.3006  0.3827
  963MOL0     O29894   5.328  10.651   1.270  0.3837 -0.0783 -0.3430
  963MOL0     C29895   5.251  10.684   1.165 -0.1285  0.5396 -0.6456
  963MOL0     C29896   5.119  10.742   1.176  0.2069  0.9088  0.6514
  963MOL0     C29897   5.046  10.788   1.068 -0.4763 -0.6453  0.0019
  963MOL0     C29898   4.914  10.853   1.099 -0.0617  0.1117 -0.0087
  963MOL0     C29899   5.100  10.773   0.936 -0.6809 -0.0144 -0.0423
  963MOL0     C29900   5.031  10.830   0.815  0.1815 -0.1696 -0.0051
  963MOL0     O29901   5.119  10.857   0.707  0.2309 -0.1074 -0.1566
  963MOL0     C29902   5.076  10.884   0.582  1.0508 -0.0825  0.2579
  963MOL0     C29903   4.988  10.798   0.513 -0.2728 -0.1630  0.0394
  963MOL0     C29904   4.978  10.810   0.377  1.0753 -0.9508  0.5056
  963MOL0     C29905   5.029  10.922   0.313 -0.5661  0.2904 -0.6376
  963MOL0     O29906   5.007  10.949   0.175  0.3562 -0.4374 -0.1603
  963MOL0     C29907   5.083  10.862   0.092 -0.0784 -0.9366  0.7152
  963MOL0     C29908   5.042  10.901  -0.053 -0.1591  0.0272  0.1928
  963MOL0     C29909   5.153  10.888  -0.153 -1.0237 -0.3559  0.0077
  963MOL0     C29910   5.251  11.007  -0.149  0.3129 -0.2709  0.0313
  963MOL0     C29911   5.363  11.010  -0.267  0.1883 -1.2548 -0.7479
  963MOL0     C29912   5.457  10.890  -0.259 -0.1932  0.3874  0.5552
  963MOL0     C29913   5.535  10.881  -0.124 -0.3086 -0.7214 -0.4653
  963MOL0     C29914   5.628  10.764  -0.107  0.6140 -0.5113  0.4894
  963MOL0    Cl29915   5.739  10.758  -0.242 -0.0459  0.2581 -0.1301
  963MOL0     C29916   5.115  11.006   0.387 -0.8123 -0.7228  0.1522
  963MOL0     C29917   5.141  10.984   0.515  0.6969 -0.1568  0.2494
  963MOL0     O29918   4.910  10.842   0.816  0.5532  0.2110  0.3433
  963MOL0     C29919   5.230  10.708   0.923  0.5638 -0.1296  0.1544
  963MOL0     C29920   5.301  10.660   1.031 -0.6140 -0.0057 -0.1896
  963MOL0     N29921   5.978  10.760   1.248 -0.1930  0.8378  0.0856
  963MOL0     N29922   6.016  10.793   1.129 -0.4233 -0.7847  0.9754
  963MOL0     C29923   5.796  10.636   0.186 -0.4051  0.1251  0.5864
  963MOL0     C29924   5.901  10.614   0.094 -0.0362 -0.2802  0.1148
  963MOL0     C29925   6.326  10.642  -0.097 -0.1871  0.0417 -0.7595
  963MOL0     C29926   6.453  10.610  -0.050 -0.0682 -0.2550  0.3915
  963MOL0     C29927   6.545  10.564  -0.141  0.6827 -0.5813  0.2256
  963MOL0     C29928   6.522  10.549  -0.277  2.9332 -0.5256  0.0333
  963MOL0     O29929   6.628  10.512  -0.345 -0.5050 -1.8882  0.2016
  963MOL0     C29930   6.646  10.554  -0.482  0.0956 -0.0252  0.5862
  963MOL0     C29931   6.652  10.709  -0.480 -0.8159 -0.3678 -1.7396
  963MOL0     C29932   6.706  10.752  -0.619  0.3482  0.5773 -0.3681
  963MOL0     C29933   6.670  10.893  -0.665  0.2668  0.4013  0.5770
  963MOL0     C29934   6.718  10.996  -0.570  0.2053  0.8470 -0.6988
  963MOL0     C29935   6.757  11.072  -0.486  0.8850  0.4839 -0.0835
  963MOL0     C29936   6.387  10.557  -0.317 -0.3505 -0.1709 -0.9802
  963MOL0     C29937   6.290  10.605  -0.226 -1.3386  0.4160 -0.3719
  963MOL0     H29938   6.058  10.899   0.098  0.1393 -1.2152 -2.2774
  963MOL0     H29939   5.876  10.948   0.247 -0.2662 -0.5747  1.2937
  963MOL0     H29940   5.714  10.977   0.412 -1.5503 -1.1063  2.4345
  963MOL0     H29941   5.641  10.964   0.252  1.3511  3.5796  1.5591
  963MOL0     H29942   5.462  11.014   0.425 -2.4613 -1.2262  0.7489
  963MOL0     H29943   5.446  10.863   0.337  0.4840  1.1890 -0.0757
  963MOL0     H29944   5.405  10.798   0.561  0.1741  0.1295 -0.1439
  963MOL0     H29945   5.565  10.763   0.557 -0.9730 -1.0714  2.7516
  963MOL0     H29946   5.615  11.005   0.652 -1.3209  1.2491 -1.1043
  963MOL0     H29947   5.443  11.006   0.691 -1.3521 -2.3382 -0.2706
  963MOL0     H29948   5.571  10.929   0.906  2.9292 -1.6401  0.4976
  963MOL0     H29949   5.470  10.811   0.824  0.9378 -0.1873 -2.9131
  963MOL0     H29950   5.663  10.687   0.879 -1.6444 -1.3427 -1.8148
  963MOL0     H29951   5.694  10.746   0.709 -0.4417  0.7153 -0.8251
  963MOL0     H29952   5.847  10.900   0.763 -2.4298 -0.0070 -1.6092
  963MOL0     H29953   5.794  10.914   0.938 -2.2855  0.0117 -0.1487
  963MOL0     H29954   6.011  10.797   0.865 -0.7263 -0.0117 -1.1497
  963MOL0     H29955   5.914  10.650   0.871 -0.7268 -0.0837  1.6556
  963MOL0     H29956   5.721  10.659   1.081  2.3968 -0.5874 -0.8281
  963MOL0     H29957   5.716  10.553   1.327  0.2687 -1.0464  1.9107
  963MOL0     H29958   5.836  10.609   1.448  0.5054 -1.9063 -0.6123
  963MOL0     H29959   5.679  10.830   1.351 -0.1356 -1.6989 -1.3063
  963MOL0     H29960   5.682  10.775   1.517 -0.8398  0.6151 -0.0269
  963MOL0     H29961   5.459  10.785   1.462 -0.8224  2.3900 -3.3723
  963MOL0     H29962   5.486  10.610   1.473 -2.4134  0.7092  0.4170
  963MOL0     H29963   5.521  10.627   1.210  2.1407  3.9906 -1.5133
  963MOL0     H29964   5.476  10.794   1.225  1.4145  0.0102  0.4539
  963MOL0     H29965   5.076  10.768   1.272  0.3895 -0.9268  1.2843
  963MOL0     H29966   4.883  10.843   1.204  0.8120 -0.6127  0.1852
  963MOL0     H29967   4.913  10.958   1.068  0.3071  0.0447 -0.2504
  963MOL0     H29968   4.823  10.821   1.046 -0.3827  2.1198 -0.7621
  963MOL0     H29969   4.940  10.710   0.555 -0.8438  0.3219  0.4114
  963MOL0     H29970   4.924  10.742   0.312  0.4493  1.6892 -1.9923
  963MOL0     H29971   5.189  10.884   0.107 -0.5854  2.6798 -0.0745
  963MOL0     H29972   5.068  10.758   0.124  3.0526 -1.3191  1.2607
  963MOL0     H29973   4.953  10.853  -0.095 -0.9968  1.0917  0.6981
  963MOL0     H29974   5.025  11.009  -0.051 -0.1382  0.0307  0.1380
  963MOL0     H29975   5.113  10.899  -0.254  0.7579  1.9460 -0.5328
  963MOL0     H29976   5.207  10.793  -0.145 -0.1835  0.1191  0.0233
  963MOL0     H29977   5.189  11.096  -0.161  0.5606 -0.4036 -2.7392
  963MOL0     H29978   5.300  11.018  -0.052  0.2486 -0.3402  0.0711
  963MOL0     H29979   5.420  11.103  -0.263 -1.5075 -0.2248  2.1371
  963MOL0     H29980   5.315  11.004  -0.365 -1.0211 -5.1151 -0.0912
  963MOL0     H29981   5.385  10.808  -0.263 -0.5746  0.7268 -2.4338
  963MOL0     H29982   5.524  10.881  -0.345 -1.1248 -0.2344 -0.1224
  963MOL0     H29983   5.469  10.863  -0.039 -0.4886  0.0333 -0.4381
  963MOL0     H29984   5.588  10.974  -0.102  0.8134 -1.8493  1.9695
  963MOL0     H29985   5.558  10.680  -0.104 -2.1796  1.6535  0.8119
  963MOL0     H29986   5.674  10.782  -0.009  0.6476  1.8304  0.1113
  963MOL0     H29987   5.165  11.081   0.326  0.4553 -1.3036  0.4433
  963MOL0     H29988   5.204  11.043   0.582 -0.6744  1.5584  0.1037
  963MOL0     H29989   5.282  10.699   0.828 -0.8376  2.7282 -1.0016
  963MOL0     H29990   5.394  10.605   1.027 -1.0595 -1.4186  4.0620
  963MOL0     H29991   5.727  10.555   0.209  2.9512 -2.2291  3.4916
  963MOL0     H29992   5.914  10.517   0.047 -0.8989 -1.2120  1.7124
  963MOL0     H29993   6.478  10.623   0.055 -1.7020 -0.6004  0.8496
  963MOL0     H29994   6.641  10.550  -0.092  0.1615 -0.3519  1.3411
  963MOL0     H29995   6.739  10.509  -0.519 -0.7439  0.9547 -3.1276
  963MOL0     H29996   6.562  10.518  -0.541  0.5631  1.0703 -0.8033
  963MOL0     H29997   6.701  10.754  -0.393  0.1195 -4.4815  0.1207
  963MOL0     H29998   6.553  10.754  -0.471 -0.2275  0.6713  0.0437
  963MOL0     H29999   6.654  10.688  -0.692  2.7074  1.4031 -2.9585
  963MOL0     H30000   6.813  10.735  -0.634 -0.1893 -1.5409 -2.5601
  963MOL0     H30001   6.561  10.890  -0.672 -0.1974  4.3066  2.9092
  963MOL0     H30002   6.706  10.923  -0.764 -3.8191  1.8074 -0.6970
  963MOL0     H30003   6.781  11.142  -0.409 -0.1574 -2.5859  3.3955
  963MOL0     H30004   6.366  10.533  -0.420 -0.0780 -0.6593 -0.9247
  963MOL0     H30005   6.189  10.608  -0.264 -1.8570  0.1151  0.9220
  964MOL0     O30006   7.838   3.090  10.654  0.5493 -0.0828  0.2350
  964MOL0     C30007   7.729   3.116  10.692  0.1177 -0.0580 -0.4999
  964MOL0     O30008   7.630   3.163  10.607 -0.2982  0.2944  1.1881
  964MOL0     C30009   7.632   3.126  10.472  0.1282 -0.0883  0.2222
  964MOL0     C30010   7.708   3.201  10.388  0.2352  0.2646 -0.1549
  964MOL0     C30011   7.704   3.173  10.248 -0.3154  0.4188 -0.7322
  964MOL0     C30012   7.616   3.075  10.199  0.0362  0.5994  0.5004
  964MOL0     O30013   7.604   3.065  10.062  0.3220 -0.3902  0.3238
  964MOL0     C30014   7.567   2.953   9.980 -0.2331 -0.1820  0.2212
  964MOL0     C30015   7.695   2.857   9.976  1.0142  0.3065 -0.6196
  964MOL0     C30016   7.815   2.909   9.898  0.3580  0.1877 -0.2291
  964MOL0     C30017   7.922   2.798   9.891  0.0571 -0.3339  0.6373
  964MOL0     C30018   8.051   2.823   9.818 -1.0323  0.6118 -0.5465
  964MOL0     C30019   8.032   2.818   9.673 -0.1333  0.0544  0.0672
  964MOL0     C30020   8.164   2.803   9.588 -0.0669 -0.2095 -0.5274
  964MOL0     C30021   8.148   2.852   9.441 -0.0570  0.5067 -0.7022
  964MOL0     N30022   8.108   2.993   9.437 -0.9118  0.2468 -0.7827
  964MOL0     C30023   8.173   3.097   9.485 -0.5160  0.3327 -0.3662
  964MOL0     C30024   8.117   3.207   9.435  1.3114  0.5925 -0.8396
  964MOL0     C30025   8.134   3.350   9.475 -0.4434 -0.0516  0.8672
  964MOL0     C30026   8.178   3.387   9.622 -0.7492  0.1140  0.8499
  964MOL0     C30027   8.057   3.373   9.710  0.0161  0.3299 -0.5809
  964MOL0     C30028   8.008   3.229   9.741  0.8168 -0.5688 -0.6987
  964MOL0     O30029   7.882   3.247   9.807  0.1832  0.6205 -0.4758
  964MOL0     C30030   7.757   3.239   9.743  0.4367  0.7642 -0.2665
  964MOL0     C30031   7.644   3.255   9.821 -0.9529  1.0086  1.3751
  964MOL0     C30032   7.514   3.245   9.770  0.3337 -0.4839 -0.3493
  964MOL0     C30033   7.401   3.258   9.876  0.9124  0.3135 -0.1062
  964MOL0     C30034   7.493   3.218   9.631  0.6413 -0.4990 -0.3859
  964MOL0     C30035   7.356   3.219   9.575 -0.0077 -0.3894  0.3488
  964MOL0     O30036   7.259   3.282   9.652  0.2094  0.3512  0.1667
  964MOL0     C30037   7.136   3.293   9.601 -0.0565  0.4482 -0.2448
  964MOL0     C30038   7.038   3.215   9.669 -0.2415  0.1850  0.7184
  964MOL0     C30039   6.900   3.232   9.645 -0.5037  0.1250  0.7532
  964MOL0     C30040   6.861   3.311   9.530 -0.6032 -0.4399  0.2503
  964MOL0     O30041   6.732   3.331   9.470  0.5883  0.2330 -0.0451
  964MOL0     C30042   6.622   3.284   9.539 -0.0123  0.3017 -0.0220
  964MOL0     C30043   6.500   3.346   9.480  0.3437  0.1250  0.3693
  964MOL0     C30044   6.375   3.345   9.572  0.7586 -0.4770 -0.7169
  964MOL0     C30045   6.255   3.413   9.517  0.5376 -1.1720 -0.0771
  964MOL0     C30046   6.131   3.381   9.599  0.2330  0.2420 -0.1665
  964MOL0     C30047   6.028   3.493   9.586  0.1981  0.1919 -0.3516
  964MOL0     C30048   5.934   3.491   9.710  0.1528 -0.0429 -0.2203
  964MOL0     C30049   5.832   3.609   9.707 -0.0322  0.1047  0.3552
  964MOL0    Cl30050   5.768   3.666   9.868 -0.6179 -0.3176 -0.2545
  964MOL0     C30051   6.960   3.380   9.461  0.1260  0.0514  0.8787
  964MOL0     C30052   7.092   3.365   9.495 -0.4327 -0.1363  0.3268
  964MOL0     O30053   7.336   3.181   9.461 -0.5566 -0.0161 -0.0313
  964MOL0     C30054   7.608   3.200   9.548 -0.2499 -1.1507 -0.9699
  964MOL0     C30055   7.734   3.216   9.605 -0.0277 -0.7078 -0.5966
  964MOL0     N30056   8.019   3.167   9.347  0.2949 -0.6915  0.7777
  964MOL0     N30057   8.015   3.039   9.357  0.2646 -0.3391 -0.4474
  964MOL0     C30058   7.531   3.001  10.283 -0.9596 -0.3496 -0.1882
  964MOL0     C30059   7.544   3.031  10.420  0.4193  0.4646  0.1784
  964MOL0     C30060   7.696   3.137  10.829  0.2422  0.7010  0.6297
  964MOL0     C30061   7.790   3.184  10.919 -0.9443  0.0625 -0.1929
  964MOL0     C30062   7.750   3.220  11.050  1.2141  0.1209 -0.3541
  964MOL0     C30063   7.622   3.177  11.096 -0.8675  0.2972  0.5511
  964MOL0     O30064   7.579   3.191  11.225 -0.3779  0.3668  0.7431
  964MOL0     C30065   7.661   3.241  11.332 -1.2013  0.2917 -0.9002
  964MOL0     C30066   7.641   3.389  11.350 -0.7365 -0.3266  0.2972
  964MOL0     C30067   7.724   3.462  11.458 -0.4020  0.6132  0.3236
  964MOL0     C30068   7.710   3.621  11.432 -0.8296  0.6941  0.4385
  964MOL0     C30069   7.587   3.663  11.499 -0.5020 -0.9692 -0.1266
  964MOL0     C30070   7.497   3.720  11.565 -0.1594  0.0418 -0.1372
  964MOL0     C30071   7.527   3.126  11.005 -0.3004 -0.0705  0.3185
  964MOL0     C30072   7.570   3.100  10.873  0.2551  0.5220 -0.1746
  964MOL0     H30073   7.767   3.275  10.442 -0.5679  0.4713  0.4507
  964MOL0     H30074   7.765   3.226  10.175  0.6022 -1.9610 -1.7901
  964MOL0     H30075   7.484   2.897  10.024 -0.9309 -0.4095 -1.3145
  964MOL0     H30076   7.539   2.990   9.882  1.6941  2.5944  0.6085
  964MOL0     H30077   7.732   2.833  10.076 -2.2215 -0.3741  0.5418
  964MOL0     H30078   7.662   2.760   9.938  1.8658  0.3460 -1.5052
  964MOL0     H30079   7.798   2.937   9.793  1.5134 -0.8046 -0.7126
  964MOL0     H30080   7.843   2.995   9.958  0.1041  0.1315 -0.0285
  964MOL0     H30081   7.946   2.766   9.993 -0.5745 -0.7213  0.6692
  964MOL0     H30082   7.877   2.718   9.831 -1.1043 -0.5631  1.7660
  964MOL0     H30083   8.102   2.917   9.839  1.8760 -0.9115 -0.2077
  964MOL0     H30084   8.126   2.751   9.851 -0.1827  2.2025  1.1828
  964MOL0     H30085   7.972   2.734   9.637  1.2054 -0.1006 -1.9505
  964MOL0     H30086   7.979   2.912   9.657 -1.1206 -0.3646  0.7767
  964MOL0     H30087   8.242   2.865   9.633  1.1816  0.1132 -2.9441
  964MOL0     H30088   8.204   2.702   9.589 -1.0606 -0.6304  1.7746
  964MOL0     H30089   8.068   2.798   9.389  1.1312 -0.0328 -2.0342
  964MOL0     H30090   8.242   2.828   9.391 -1.8156 -3.9861 -2.3920
  964MOL0     H30091   8.256   3.118   9.552 -0.7874  1.7292 -0.4301
  964MOL0     H30092   8.218   3.386   9.415  1.7085 -1.0462  3.0952
  964MOL0     H30093   8.043   3.406   9.451  0.5511  0.7586 -1.3524
  964MOL0     H30094   8.199   3.494   9.622  3.5683 -0.5346 -0.8394
  964MOL0     H30095   8.269   3.338   9.658  1.4485  2.8231 -0.6037
  964MOL0     H30096   7.969   3.424   9.670 -1.6864 -0.9724  1.3178
  964MOL0     H30097   8.089   3.417   9.805  1.2864 -0.7883 -0.4681
  964MOL0     H30098   8.077   3.174   9.806  1.2354  1.0971  0.3339
  964MOL0     H30099   7.992   3.169   9.651  1.6501 -0.0741 -1.1851
  964MOL0     H30100   7.668   3.264   9.926  4.0393 -0.5936  0.6609
  964MOL0     H30101   7.441   3.236   9.976  1.7237  0.3798 -0.4077
  964MOL0     H30102   7.345   3.351   9.881 -0.8480 -0.7664  3.1003
  964MOL0     H30103   7.322   3.184   9.862  0.9602  0.0898  0.7720
  964MOL0     H30104   7.082   3.156   9.748  1.2200  0.1423 -0.0903
  964MOL0     H30105   6.816   3.210   9.711  0.7647  0.7620  2.6453
  964MOL0     H30106   6.610   3.176   9.544  1.6718  0.1553  3.3171
  964MOL0     H30107   6.634   3.312   9.644 -1.4962  0.2073  0.2014
  964MOL0     H30108   6.520   3.449   9.451 -3.0049  0.8987  0.4030
  964MOL0     H30109   6.475   3.296   9.386  0.6539 -1.3789  1.0582
  964MOL0     H30110   6.401   3.384   9.670 -1.2868  0.3332 -0.4391
  964MOL0     H30111   6.336   3.243   9.579 -1.8710  0.5218  0.4457
  964MOL0     H30112   6.276   3.520   9.524 -2.2734 -0.5049 -0.6196
  964MOL0     H30113   6.249   3.406   9.408 -0.3348  1.1849 -0.2432
  964MOL0     H30114   6.156   3.366   9.705  0.3757  1.9710  0.0747
  964MOL0     H30115   6.096   3.285   9.559  4.2367 -0.1467 -3.3494
  964MOL0     H30116   6.084   3.587   9.588  0.1821  0.2339 -1.3128
  964MOL0     H30117   5.970   3.481   9.494  0.2987 -2.5406 -0.1375
  964MOL0     H30118   5.992   3.497   9.803  1.3382 -0.5899 -0.8898
  964MOL0     H30119   5.871   3.403   9.722 -0.5507  0.4475 -0.2529
  964MOL0     H30120   5.749   3.596   9.637  3.1790 -0.5807 -3.6956
  964MOL0     H30121   5.888   3.695   9.670 -1.4085  0.9004  0.0305
  964MOL0     H30122   6.938   3.451   9.381  2.4109 -0.1003  0.0413
  964MOL0     H30123   7.167   3.421   9.441  0.5395 -1.5201  0.1925
  964MOL0     H30124   7.590   3.181   9.442 -2.0534 -1.7417 -0.5898
  964MOL0     H30125   7.816   3.203   9.535 -0.5203  0.1473 -1.3539
  964MOL0     H30126   7.449   2.936  10.256 -1.7664  1.0210 -1.2192
  964MOL0     H30127   7.473   2.979  10.483 -0.0815 -0.0006 -0.7460
  964MOL0     H30128   7.888   3.215  10.885 -1.0023 -1.1773 -1.5733
  964MOL0     H30129   7.812   3.285  11.111  1.5385 -1.7013  1.3540
  964MOL0     H30130   7.623   3.196  11.424 -1.2902 -1.5465 -1.7881
  964MOL0     H30131   7.766   3.210  11.323 -0.4330  1.4547  2.5073
  964MOL0     H30132   7.533   3.406  11.355 -0.6057  0.3528  1.0095
  964MOL0     H30133   7.679   3.433  11.257  0.1419  1.0761  1.2951
  964MOL0     H30134   7.829   3.431  11.448  0.0396  2.4060 -0.9972
  964MOL0     H30135   7.683   3.436  11.556 -0.4421  0.8668  0.3762
  964MOL0     H30136   7.707   3.637  11.324  0.1536  1.0983  0.4677
  964MOL0     H30137   7.794   3.669  11.482 -0.0138 -1.7855  1.5905
  964MOL0     H30138   7.415   3.776  11.603 -1.0962 -1.4425  0.1193
  964MOL0     H30139   7.423   3.128  11.038  0.0579  0.2009  1.4819
  964MOL0     H30140   7.496   3.060  10.804 -0.1599  1.0390 -0.0351
  965MOL0     O30141  10.301   3.427   1.785 -0.8061 -0.9210  0.7307
  965MOL0     C30142  10.282   3.470   1.897 -0.2285 -0.3384 -0.8999
  965MOL0     O30143  10.301   3.603   1.945  0.1027  0.9294 -0.0894
  965MOL0     C30144  10.326   3.707   1.854  0.7128  0.2600 -0.6014
  965MOL0     C30145  10.281   3.834   1.884  0.4999 -1.3405  0.2921
  965MOL0     C30146  10.303   3.942   1.793  0.0650  0.2948  0.3021
  965MOL0     C30147  10.403   3.921   1.695 -0.1368 -0.8186 -0.4431
  965MOL0     O30148  10.439   4.013   1.600 -0.3755 -0.3615 -0.5794
  965MOL0     C30149  10.445   4.149   1.649  0.4115 -0.2107  0.4057
  965MOL0     C30150  10.546   4.214   1.543  0.5756 -0.5391  0.0127
  965MOL0     C30151  10.553   4.367   1.555 -0.7272  0.6036 -0.0686
  965MOL0     C30152  10.669   4.433   1.487  0.3499  0.5200  0.1269
  965MOL0     C30153  10.790   4.445   1.583  0.7597 -0.4820  1.2592
  965MOL0     C30154  10.909   4.518   1.513 -0.0372 -0.7849  0.4639
  965MOL0     C30155  11.015   4.521   1.620  0.1489 -0.1256 -0.0828
  965MOL0     C30156  11.141   4.586   1.580  0.1503 -0.1229 -0.2939
  965MOL0     N30157  11.205   4.501   1.486  0.7063 -0.3548  0.1718
  965MOL0     C30158  11.287   4.398   1.518  0.5688 -0.4427 -0.2684
  965MOL0     C30159  11.324   4.351   1.402 -0.2533  0.0472  0.5214
  965MOL0     C30160  11.439   4.256   1.379 -0.0999 -0.0989 -0.7875
  965MOL0     C30161  11.408   4.120   1.322 -1.0051 -0.3038  0.0593
  965MOL0     C30162  11.304   4.038   1.397 -0.7156  0.2592  0.4416
  965MOL0     C30163  11.290   3.898   1.343 -0.8277 -0.2481 -0.4243
  965MOL0     O30164  11.193   3.838   1.415  0.1116 -0.0937  0.4668
  965MOL0     C30165  11.116   3.768   1.334 -0.1288  0.6635  0.2476
  965MOL0     C30166  11.124   3.628   1.327 -0.3193  0.1779  0.1816
  965MOL0     C30167  11.037   3.551   1.241 -0.6312 -0.9540 -0.5137
  965MOL0     C30168  11.056   3.394   1.246 -0.2185  0.5231  0.2882
  965MOL0     C30169  10.945   3.608   1.152 -0.0133  0.2047  0.7681
  965MOL0     C30170  10.846   3.535   1.058  0.2365  0.1656 -0.0032
  965MOL0     O30171  10.807   3.611   0.952  0.3134 -0.0260  0.0254
  965MOL0     C30172  10.687   3.571   0.887  0.3089 -0.3718 -0.2998
  965MOL0     C30173  10.674   3.453   0.803  0.2228 -0.7325  0.7331
  965MOL0     C30174  10.555   3.404   0.755  0.0783  0.4501  0.6463
  965MOL0     C30175  10.439   3.470   0.787  0.1497  0.4413  0.5360
  965MOL0     O30176  10.318   3.418   0.758 -0.2686 -0.9438  0.3622
  965MOL0     C30177  10.295   3.286   0.808 -0.9519  0.6749 -0.3364
  965MOL0     C30178  10.148   3.246   0.770  0.1328  0.1924 -0.5626
  965MOL0     C30179  10.138   3.193   0.631  0.4776  0.0586  0.4234
  965MOL0     C30180  10.124   3.315   0.530 -0.3407  0.1582  1.2199
  965MOL0     C30181  10.034   3.293   0.407 -0.1001  0.1188  0.5738
  965MOL0     C30182  10.086   3.175   0.323  0.4515 -0.0563  0.9067
  965MOL0     C30183  10.218   3.211   0.251  0.6749  0.1365 -0.7523
  965MOL0     C30184  10.230   3.135   0.122 -0.2093  0.1424 -0.6134
  965MOL0    Cl30185  10.264   2.959   0.147 -0.1704 -0.0758  0.3890
  965MOL0     C30186  10.438   3.592   0.854 -0.2536 -0.5806 -0.3137
  965MOL0     C30187  10.566   3.638   0.906  0.2150  0.0273  0.0124
  965MOL0     O30188  10.798   3.423   1.087 -0.1154  0.1255  1.0771
  965MOL0     C30189  10.930   3.747   1.155 -0.5780  0.0022 -0.0906
  965MOL0     C30190  11.015   3.822   1.243  0.9139 -0.6624 -0.4645
  965MOL0     N30191  11.272   4.435   1.302  0.9984 -0.5729 -0.4171
  965MOL0     N30192  11.203   4.529   1.356 -0.3295  0.1550  0.2088
  965MOL0     C30193  10.458   3.797   1.673  0.4402  0.0794 -0.6137
  965MOL0     C30194  10.419   3.691   1.756 -0.8802  0.5726  0.6147
  965MOL0     C30195  10.221   3.368   1.992 -0.0417 -0.1402  0.3639
  965MOL0     C30196  10.208   3.392   2.127  0.0697 -0.1598 -0.3049
  965MOL0     C30197  10.138   3.300   2.213  0.0702 -0.3135  0.3169
  965MOL0     C30198  10.086   3.184   2.158 -0.1423 -0.0930  0.5106
  965MOL0     O30199  10.031   3.100   2.245 -0.4570  0.6292  0.1857
  965MOL0     C30200   9.978   2.968   2.208  0.1148 -0.6045  0.1787
  965MOL0     C30201   9.865   2.907   2.302 -0.2002  0.3535 -0.2446
  965MOL0     C30202   9.916   2.897   2.452 -0.7091 -1.0500  0.6534
  965MOL0     C30203  10.018   2.782   2.476  0.6022 -0.7824 -0.0447
  965MOL0     C30204  10.146   2.792   2.406 -0.4008  0.2707  0.3262
  965MOL0     C30205  10.254   2.808   2.347 -0.4076  1.2087  0.5517
  965MOL0     C30206  10.113   3.146   2.027  0.9215 -1.0787 -0.2857
  965MOL0     C30207  10.169   3.244   1.951 -0.0472 -0.3578  1.0602
  965MOL0     H30208  10.215   3.853   1.967  0.5622  0.5744 -0.0478
  965MOL0     H30209  10.253   4.036   1.813  2.4910  1.5941  0.6640
  965MOL0     H30210  10.352   4.205   1.639  1.3794  1.1048 -2.4734
  965MOL0     H30211  10.483   4.155   1.751 -1.0358  1.0881  0.9094
  965MOL0     H30212  10.648   4.176   1.555  0.2475 -1.1083  1.1783
  965MOL0     H30213  10.506   4.185   1.446  0.5839 -0.3897 -0.0355
  965MOL0     H30214  10.466   4.402   1.499 -0.2663  0.8910 -0.6152
  965MOL0     H30215  10.521   4.394   1.656 -2.3339 -0.0623 -0.3739
  965MOL0     H30216  10.711   4.389   1.397  1.5301 -0.8335  1.3061
  965MOL0     H30217  10.628   4.530   1.455 -3.3620 -0.6992  0.6657
  965MOL0     H30218  10.761   4.504   1.671  0.5016  0.9386  0.2646
  965MOL0     H30219  10.822   4.345   1.612  3.9737  0.6434  1.9914
  965MOL0     H30220  10.936   4.449   1.431  0.5193 -0.0671  0.0316
  965MOL0     H30221  10.885   4.616   1.471  4.4054 -0.0415 -0.8364
  965MOL0     H30222  10.983   4.584   1.703 -1.1335 -0.4037 -0.3398
  965MOL0     H30223  11.026   4.419   1.658  0.7566 -0.5798 -1.4324
  965MOL0     H30224  11.216   4.596   1.658  2.5466  1.0367 -2.5873
  965MOL0     H30225  11.109   4.684   1.542 -3.8085 -1.2816 -0.4250
  965MOL0     H30226  11.324   4.368   1.616 -0.6085 -0.9304  0.0384
  965MOL0     H30227  11.514   4.295   1.309 -0.2213  2.9500  0.5959
  965MOL0     H30228  11.481   4.242   1.480  0.8482  1.4112 -0.9276
  965MOL0     H30229  11.503   4.067   1.307 -1.2608 -0.6971 -0.1890
  965MOL0     H30230  11.378   4.130   1.217 -4.7173  0.5868  1.0572
  965MOL0     H30231  11.206   4.085   1.383  0.1215  1.4907 -1.8140
  965MOL0     H30232  11.327   4.039   1.504 -2.2505 -0.2571  0.8074
  965MOL0     H30233  11.386   3.847   1.355 -1.0332 -0.5844 -0.1955
  965MOL0     H30234  11.283   3.913   1.234  3.2474 -1.6112 -1.0362
  965MOL0     H30235  11.187   3.578   1.401 -1.0178  1.4528  1.7057
  965MOL0     H30236  11.110   3.365   1.155  0.8606  0.4958  0.9219
  965MOL0     H30237  11.122   3.360   1.326 -2.3823  0.9083  2.3594
  965MOL0     H30238  10.962   3.339   1.252  0.4061 -0.6991 -0.6246
  965MOL0     H30239  10.754   3.381   0.792  1.4564  0.7914 -0.7783
  965MOL0     H30240  10.542   3.316   0.694  3.9808  1.6017 -2.1830
  965MOL0     H30241  10.368   3.216   0.767  0.0716  1.4194  0.1552
  965MOL0     H30242  10.291   3.278   0.917 -1.2431 -4.2010 -0.4902
  965MOL0     H30243  10.106   3.164   0.829  0.4281 -0.2343 -0.9392
  965MOL0     H30244  10.083   3.333   0.783  1.3150  0.8632  1.3481
  965MOL0     H30245  10.043   3.138   0.632 -2.1867  4.0649 -2.2171
  965MOL0     H30246  10.216   3.119   0.617  0.6443  0.0573  1.2539
  965MOL0     H30247  10.092   3.409   0.577  2.5041  1.1567  1.3613
  965MOL0     H30248  10.226   3.335   0.495  0.6123 -2.4356  2.2779
  965MOL0     H30249  10.033   3.379   0.338 -1.3438 -0.6275 -0.3743
  965MOL0     H30250   9.930   3.291   0.439 -0.5174  3.0779 -0.3162
  965MOL0     H30251  10.101   3.081   0.379 -0.3536 -0.8647 -0.1923
  965MOL0     H30252  10.014   3.160   0.243  0.9797  2.6394 -0.1716
  965MOL0     H30253  10.302   3.185   0.316  2.0280 -0.1194 -2.5197
  965MOL0     H30254  10.218   3.319   0.232  0.0361  0.5633  1.4152
  965MOL0     H30255  10.318   3.160   0.063  0.4164 -3.1809 -1.3164
  965MOL0     H30256  10.147   3.153   0.053  0.9266  1.5864 -1.6523
  965MOL0     H30257  10.348   3.648   0.876  0.2878  0.0928  0.2815
  965MOL0     H30258  10.566   3.719   0.978  0.1346  0.3400 -0.3348
  965MOL0     H30259  10.869   3.801   1.083 -1.0531  0.5167  0.6862
  965MOL0     H30260  11.007   3.930   1.232 -1.6371 -0.8227 -0.8065
  965MOL0     H30261  10.530   3.778   1.594  1.0763 -2.2088  0.4434
  965MOL0     H30262  10.472   3.598   1.737  1.6436  2.0960 -0.3900
  965MOL0     H30263  10.230   3.486   2.175 -1.4226  0.3297 -0.5080
  965MOL0     H30264  10.133   3.305   2.321  1.6793  0.6377  0.3695
  965MOL0     H30265   9.917   2.989   2.120 -2.7375 -4.3225  0.9687
  965MOL0     H30266  10.053   2.892   2.184  1.9759  0.8348  1.2262
  965MOL0     H30267   9.827   2.809   2.274  0.4657 -0.3036  1.0451
  965MOL0     H30268   9.773   2.964   2.290 -3.2404 -4.1734 -0.5685
  965MOL0     H30269   9.831   2.879   2.518  0.5525  0.0609  2.6789
  965MOL0     H30270   9.956   2.994   2.484 -0.3043 -1.2093  0.6402
  965MOL0     H30271   9.974   2.684   2.453  0.5452 -0.8424  0.3233
  965MOL0     H30272  10.034   2.778   2.584 -0.1509  2.0691  0.2461
  965MOL0     H30273  10.348   2.808   2.296 -0.5116 -0.8766  0.2726
  965MOL0     H30274  10.076   3.052   1.988 -0.9315 -1.7227  2.6604
  965MOL0     H30275  10.163   3.216   1.846  0.3080  2.5342  0.1587
  966MOL0     O30276   4.227  10.378   4.770  0.5795 -0.1294 -0.2377
  966MOL0     C30277   4.168  10.313   4.854 -0.3902  0.4318 -0.1648
  966MOL0     O30278   4.144  10.180   4.854 -0.5771  0.1992  0.5629
  966MOL0     C30279   4.198  10.100   4.750 -0.3752 -0.0189  0.3230
  966MOL0     C30280   4.230   9.971   4.788  0.3046  1.4421  0.1943
  966MOL0     C30281   4.299   9.886   4.697 -0.5874  0.0880 -0.5310
  966MOL0     C30282   4.315   9.923   4.559 -0.7818 -0.1376 -0.0643
  966MOL0     O30283   4.366   9.825   4.488 -0.5833  0.1909  0.2248
  966MOL0     C30284   4.405   9.862   4.356  0.0246 -0.0009 -0.8232
  966MOL0     C30285   4.475   9.748   4.281 -1.3362 -0.0784 -0.5108
  966MOL0     C30286   4.558   9.793   4.159 -0.2919  0.2867 -0.0389
  966MOL0     C30287   4.626   9.672   4.094 -0.0371  0.6147  0.7906
  966MOL0     C30288   4.687   9.721   3.961 -0.1986  0.7970  0.8772
  966MOL0     C30289   4.728   9.602   3.871  0.2941  0.4523 -0.3346
  966MOL0     C30290   4.769   9.652   3.729 -0.0600 -0.0704 -0.2222
  966MOL0     C30291   4.827   9.541   3.643 -0.7746  0.2000  0.4046
  966MOL0     N30292   4.726   9.444   3.601 -0.3405  0.0687  0.4682
  966MOL0     C30293   4.713   9.312   3.640  1.0326  0.2884  0.3710
  966MOL0     C30294   4.635   9.258   3.539  0.0933  0.3935 -0.4201
  966MOL0     C30295   4.587   9.116   3.537 -0.3693 -0.0765  0.8375
  966MOL0     C30296   4.583   9.044   3.403 -0.4225  0.2591 -0.2082
  966MOL0     C30297   4.714   9.060   3.329 -0.3739  0.4316 -0.1533
  966MOL0     C30298   4.708   8.998   3.195  0.3718  0.0214 -0.6315
  966MOL0     O30299   4.582   9.025   3.133 -0.4566 -0.4552 -0.1048
  966MOL0     C30300   4.572   9.007   2.997  0.0164  1.0437 -0.6943
  966MOL0     C30301   4.655   8.928   2.930 -0.8169 -0.1079 -0.8179
  966MOL0     C30302   4.651   8.901   2.792 -0.1636 -0.8137  0.0193
  966MOL0     C30303   4.764   8.817   2.739 -0.4110 -0.3463 -0.3640
  966MOL0     C30304   4.549   8.958   2.717 -0.2307 -1.0371  0.4853
  966MOL0     C30305   4.535   8.954   2.563  0.1544 -0.4517 -0.8388
  966MOL0     O30306   4.453   9.043   2.507 -0.0435 -0.1825  0.2592
  966MOL0     C30307   4.466   9.060   2.372  0.1647 -0.6593  0.3246
  966MOL0     C30308   4.343   9.073   2.304 -0.7734  0.3867 -0.1135
  966MOL0     C30309   4.344   9.117   2.175  0.0199 -0.2004 -0.3544
  966MOL0     C30310   4.465   9.149   2.112  0.0925 -0.2722  0.1716
  966MOL0     O30311   4.467   9.204   1.980 -0.0581 -0.3142 -0.5191
  966MOL0     C30312   4.378   9.145   1.880  0.6941 -0.1794  0.6596
  966MOL0     C30313   4.430   9.143   1.741 -1.1009 -1.0572 -0.8277
  966MOL0     C30314   4.572   9.090   1.731  0.0252  0.1428  0.1208
  966MOL0     C30315   4.603   8.965   1.811  0.2147 -0.3584 -0.6651
  966MOL0     C30316   4.736   8.901   1.771 -0.2048  0.6424 -0.4477
  966MOL0     C30317   4.735   8.754   1.833 -0.6305 -1.5190  0.6486
  966MOL0     C30318   4.869   8.695   1.793  0.4832 -0.1708  0.3245
  966MOL0     C30319   4.858   8.542   1.820  0.0721  0.3783  0.0431
  966MOL0    Cl30320   5.016   8.479   1.767  0.3423 -0.5191  0.1958
  966MOL0     C30321   4.580   9.141   2.175 -0.3964 -0.1596  0.5277
  966MOL0     C30322   4.584   9.093   2.306  0.2450 -0.3893 -0.0497
  966MOL0     O30323   4.603   8.865   2.503  0.4693  0.3080  0.3818
  966MOL0     C30324   4.457   9.037   2.787  0.7565  0.4075  0.7743
  966MOL0     C30325   4.464   9.060   2.922 -0.1048  0.5191  0.2763
  966MOL0     N30326   4.602   9.351   3.443  0.7099  0.6902 -0.5147
  966MOL0     N30327   4.662   9.463   3.484  0.4890  0.2587 -0.6338
  966MOL0     C30328   4.263  10.044   4.515  0.3237 -0.9247  0.1038
  966MOL0     C30329   4.212  10.131   4.610  0.2674 -0.5807 -0.6337
  966MOL0     C30330   4.132  10.389   4.978 -0.1388  0.0395 -0.2182
  966MOL0     C30331   4.112  10.529   4.968  0.7983 -0.0085  0.0766
  966MOL0     C30332   4.038  10.603   5.066 -0.7452 -0.0040  0.0342
  966MOL0     C30333   3.988  10.532   5.181  0.3055  0.9303  0.0397
  966MOL0     O30334   3.920  10.580   5.294 -0.2078  0.7197  0.1968
  966MOL0     C30335   3.868  10.708   5.305  0.6921 -0.3955 -0.0933
  966MOL0     C30336   3.948  10.793   5.413  0.3393 -0.4432  0.2441
  966MOL0     C30337   3.912  10.944   5.399  0.5232 -0.8495  0.2219
  966MOL0     C30338   3.921  11.023   5.528  0.1686 -0.8532 -0.6499
  966MOL0     C30339   4.041  11.004   5.609  1.0224  0.7431  1.5442
  966MOL0     C30340   4.140  10.989   5.671 -0.3750  0.2589  0.3674
  966MOL0     C30341   4.017  10.391   5.197 -0.5579 -0.2443  0.2372
  966MOL0     C30342   4.092  10.324   5.091 -0.2063 -0.3851 -0.3260
  966MOL0     H30343   4.204   9.927   4.884 -2.0766 -5.9150 -3.0363
  966MOL0     H30344   4.356   9.798   4.725  0.7821  0.0928 -3.0048
  966MOL0     H30345   4.320   9.903   4.300  1.3552  1.5548 -1.8126
  966MOL0     H30346   4.479   9.943   4.363  2.3972 -2.1372  0.5942
  966MOL0     H30347   4.533   9.696   4.358  0.9633  3.3390  0.2700
  966MOL0     H30348   4.392   9.678   4.261 -2.0102  0.0086  1.7195
  966MOL0     H30349   4.489   9.842   4.091 -0.4269 -0.4031 -0.4070
  966MOL0     H30350   4.633   9.868   4.186 -2.0604  1.9583  0.4643
  966MOL0     H30351   4.687   9.626   4.171 -2.3742 -3.6502  0.3922
  966MOL0     H30352   4.553   9.593   4.075 -1.0281  1.7172 -0.1721
  966MOL0     H30353   4.619   9.779   3.899 -0.2709 -2.4031 -2.3823
  966MOL0     H30354   4.773   9.782   3.991 -1.8882  3.0033  1.4278
  966MOL0     H30355   4.802   9.533   3.913  1.0724 -1.1652 -3.9856
  966MOL0     H30356   4.636   9.546   3.854 -1.8920  4.2970 -2.5288
  966MOL0     H30357   4.694   9.701   3.666  1.5650  1.3227 -1.1800
  966MOL0     H30358   4.856   9.716   3.749  0.9402 -1.8429  1.4148
  966MOL0     H30359   4.905   9.484   3.695  0.5721 -3.2269 -4.6256
  966MOL0     H30360   4.871   9.585   3.553 -1.3511 -0.4864 -0.2352
  966MOL0     H30361   4.771   9.247   3.704 -1.4012 -2.1503  0.2703
  966MOL0     H30362   4.650   9.047   3.595  0.2462  0.1226  0.4208
  966MOL0     H30363   4.487   9.113   3.581 -0.4041 -2.6921  0.7030
  966MOL0     H30364   4.499   9.074   3.340  0.1916 -0.4993 -1.4397
  966MOL0     H30365   4.575   8.937   3.420 -0.7670  0.3639  0.3107
  966MOL0     H30366   4.792   9.008   3.384  0.2719  0.6564 -0.8396
  966MOL0     H30367   4.750   9.161   3.308  3.4601 -0.8993 -0.7104
  966MOL0     H30368   4.720   8.892   3.216  2.5419  0.6079  1.5225
  966MOL0     H30369   4.790   9.028   3.129 -0.7116 -1.8278 -2.9759
  966MOL0     H30370   4.745   8.884   2.972 -0.4249  1.5775  0.2051
  966MOL0     H30371   4.726   8.722   2.700  1.7673 -1.0912 -0.7798
  966MOL0     H30372   4.810   8.864   2.651 -1.7758 -2.6267 -2.4234
  966MOL0     H30373   4.845   8.797   2.809 -0.4466 -1.5451 -0.6500
  966MOL0     H30374   4.252   9.038   2.352 -0.4177 -2.6992 -1.4562
  966MOL0     H30375   4.246   9.139   2.134  0.4859  5.0419  0.6842
  966MOL0     H30376   4.367   9.037   1.896 -2.9356 -0.1811 -1.0468
  966MOL0     H30377   4.283   9.199   1.880  1.3231  0.9728 -0.4210
  966MOL0     H30378   4.364   9.077   1.683 -2.3676 -1.7585  1.2977
  966MOL0     H30379   4.428   9.248   1.708  2.4353 -1.0533 -1.3755
  966MOL0     H30380   4.640   9.169   1.763 -0.5292  0.8320 -0.3709
  966MOL0     H30381   4.577   9.060   1.626 -3.1595  0.4835 -0.2279
  966MOL0     H30382   4.606   8.999   1.915 -2.2189  1.8606 -1.1975
  966MOL0     H30383   4.515   8.903   1.792 -2.2763  2.8353 -0.4953
  966MOL0     H30384   4.816   8.959   1.817 -2.0894  1.5441  1.9150
  966MOL0     H30385   4.747   8.886   1.663 -1.5757 -0.8446 -0.4153
  966MOL0     H30386   4.724   8.769   1.940  0.4228  2.4171  0.3535
  966MOL0     H30387   4.651   8.706   1.781 -1.0518  1.0634 -1.3367
  966MOL0     H30388   4.941   8.753   1.851 -0.9256  1.1608  0.8276
  966MOL0     H30389   4.880   8.723   1.688 -2.2088 -3.0047 -0.8618
  966MOL0     H30390   4.780   8.493   1.761  2.9062 -3.7816 -0.7142
  966MOL0     H30391   4.839   8.503   1.920  1.3369 -0.8088 -0.1465
  966MOL0     H30392   4.671   9.164   2.121 -1.3460 -2.3763 -2.2465
  966MOL0     H30393   4.683   9.091   2.351  0.3130 -3.5349 -0.1235
  966MOL0     H30394   4.367   9.087   2.754 -0.1980  0.1048  2.7841
  966MOL0     H30395   4.405   9.128   2.982  2.9123  2.3025  1.4813
  966MOL0     H30396   4.275  10.077   4.413  1.8317 -0.8914  0.2635
  966MOL0     H30397   4.172  10.226   4.573 -0.3808  0.4057  2.3706
  966MOL0     H30398   4.143  10.581   4.878  2.6153 -0.4218  0.4270
  966MOL0     H30399   4.016  10.707   5.044  1.4689  0.3451 -0.6974
  966MOL0     H30400   3.865  10.744   5.202 -3.5148 -3.8983 -1.4807
  966MOL0     H30401   3.768  10.709   5.349  0.9531 -1.4735  0.5597
  966MOL0     H30402   4.056  10.778   5.401  0.5531  2.1692 -2.4119
  966MOL0     H30403   3.923  10.752   5.511  2.2025 -0.1738  0.8758
  966MOL0     H30404   3.807  10.950   5.370  1.1326 -0.6238 -2.1604
  966MOL0     H30405   3.974  10.992   5.323 -1.4564 -1.6367 -2.0249
  966MOL0     H30406   3.840  10.999   5.598  1.2418  1.4803  1.5397
  966MOL0     H30407   3.911  11.130   5.507 -0.2092 -0.9103 -0.7807
  966MOL0     H30408   4.226  10.984   5.735  2.0952  0.3432 -2.6815
  966MOL0     H30409   3.991  10.328   5.281 -2.7096  0.0289 -0.1838
  966MOL0     H30410   4.131  10.222   5.100  2.2444  0.5906  1.2335
  967MOL0     O30411   7.201   3.075   5.260 -0.3061 -0.2457 -0.4194
  967MOL0     C30412   7.292   3.144   5.204  0.0276  0.1732  0.6574
  967MOL0     O30413   7.415   3.107   5.189 -0.2319 -0.3875 -0.0724
  967MOL0     C30414   7.485   3.020   5.267 -0.8169 -0.3367  1.0241
  967MOL0     C30415   7.445   2.968   5.388 -1.3050 -0.1835  0.6114
  967MOL0     C30416   7.520   2.879   5.457  0.4877 -0.4404 -0.4156
  967MOL0     C30417   7.645   2.831   5.413  0.1872 -0.6495 -0.2581
  967MOL0     O30418   7.700   2.721   5.469  0.4299 -0.3174 -0.1090
  967MOL0     C30419   7.714   2.710   5.610  0.0965  0.2285  0.9765
  967MOL0     C30420   7.819   2.807   5.664  0.2805 -0.3420  0.2444
  967MOL0     C30421   7.962   2.784   5.601  0.1335 -0.4445  0.0166
  967MOL0     C30422   8.063   2.890   5.639 -0.1875  0.1991 -0.6737
  967MOL0     C30423   8.116   2.856   5.784 -0.0649 -0.0849  0.9663
  967MOL0     C30424   8.250   2.915   5.808 -0.6276  0.1577 -0.5625
  967MOL0     C30425   8.326   2.850   5.919  0.7422 -0.7803 -0.1333
  967MOL0     C30426   8.458   2.920   5.944  0.0483  0.5653  0.3116
  967MOL0     N30427   8.506   2.892   6.082  0.4007  0.2664  0.0923
  967MOL0     C30428   8.598   2.795   6.112 -0.6677 -0.5343  0.5585
  967MOL0     C30429   8.651   2.841   6.228 -0.8228  0.3012 -0.6794
  967MOL0     C30430   8.747   2.761   6.302  0.0741 -0.2272  0.6151
  967MOL0     C30431   8.883   2.783   6.236 -0.5292 -0.0163  0.3859
  967MOL0     C30432   8.970   2.896   6.293  0.1144 -0.8517 -0.2796
  967MOL0     C30433   9.000   2.886   6.441 -0.2689 -0.1656 -0.5655
  967MOL0     O30434   9.051   3.006   6.497 -0.7240 -0.1830 -0.0706
  967MOL0     C30435   9.188   3.037   6.481 -0.5100 -0.7057 -0.5349
  967MOL0     C30436   9.241   3.146   6.538  0.8746  0.0255 -0.5801
  967MOL0     C30437   9.374   3.188   6.518 -0.8170 -0.4957  0.1006
  967MOL0     C30438   9.407   3.323   6.585  0.3982  0.2685  0.0157
  967MOL0     C30439   9.462   3.114   6.433  0.7644  0.9959  0.4309
  967MOL0     C30440   9.596   3.166   6.405  1.0034 -0.0397  0.7345
  967MOL0     O30441   9.676   3.070   6.365 -0.5506  0.5540 -0.9151
  967MOL0     C30442   9.803   3.094   6.316  1.1968  0.8130  1.2951
  967MOL0     C30443   9.838   3.040   6.186  0.0039  1.2683 -0.0713
  967MOL0     C30444   9.973   3.044   6.141  0.4884 -0.8359  0.1069
  967MOL0     C30445  10.073   3.091   6.224  0.5121 -0.8139  0.5631
  967MOL0     O30446  10.201   3.087   6.181 -0.2873 -0.0991 -0.9892
  967MOL0     C30447  10.324   3.099   6.270 -0.0880  0.5596 -0.3367
  967MOL0     C30448  10.443   3.080   6.179  0.1026 -0.3278 -0.1923
  967MOL0     C30449  10.580   3.068   6.250  0.1406  0.4724 -1.0603
  967MOL0     C30450  10.687   3.038   6.149  0.0367 -0.1130 -0.1185
  967MOL0     C30451  10.826   2.997   6.217  0.0606  0.1089 -0.6888
  967MOL0     C30452  10.895   3.114   6.291 -0.1194  0.1933 -0.4882
  967MOL0     C30453  11.049   3.102   6.316 -0.0094  0.4537  0.7670
  967MOL0     C30454  11.121   3.092   6.188 -0.1531 -0.6893  0.8298
  967MOL0    Cl30455  11.084   3.239   6.083  0.1124  0.2459  0.1433
  967MOL0     C30456  10.040   3.150   6.350 -1.1477 -0.5883  1.1337
  967MOL0     C30457   9.903   3.156   6.391 -0.2157  0.1699  0.3852
  967MOL0     O30458   9.610   3.286   6.406 -0.6903 -0.2155  0.0973
  967MOL0     C30459   9.412   2.990   6.386  0.5824 -0.1062 -0.2391
  967MOL0     C30460   9.276   2.949   6.415  0.4427 -0.5992 -0.4545
  967MOL0     N30461   8.599   2.966   6.268  0.2304 -0.0107  0.0658
  967MOL0     N30462   8.515   2.995   6.169  0.1846 -0.8534 -0.0327
  967MOL0     C30463   7.697   2.888   5.289 -0.4752  0.1740 -0.4649
  967MOL0     C30464   7.623   2.983   5.222  0.5424 -0.1646  0.4706
  967MOL0     C30465   7.252   3.269   5.134  0.4144  0.3669  0.0362
  967MOL0     C30466   7.128   3.325   5.155 -0.4796  0.1446  0.6147
  967MOL0     C30467   7.093   3.446   5.116  0.9613  0.5489  1.0319
  967MOL0     C30468   7.174   3.511   5.020  0.4889  0.1970 -0.1306
  967MOL0     O30469   7.141   3.635   4.972 -0.1955  0.4461  0.0833
  967MOL0     C30470   7.010   3.685   4.950 -0.5008  0.5415 -0.2628
  967MOL0     C30471   6.993   3.826   4.908 -0.4711 -0.5766  0.4039
  967MOL0     C30472   7.068   3.873   4.777 -0.0298 -0.0537 -0.3739
  967MOL0     C30473   7.022   4.019   4.747  0.0594  0.4594  1.3724
  967MOL0     C30474   6.892   4.008   4.682 -0.3456  0.1328  0.9767
  967MOL0     C30475   6.788   3.980   4.615 -0.2603  0.0216 -0.4805
  967MOL0     C30476   7.296   3.457   4.981  0.1715  0.4168  0.4323
  967MOL0     C30477   7.341   3.338   5.045 -0.0912 -0.0209 -0.0293
  967MOL0     H30478   7.345   2.991   5.425 -0.8879 -0.0344  1.6569
  967MOL0     H30479   7.475   2.851   5.553  1.2344 -0.3519 -0.0347
  967MOL0     H30480   7.616   2.739   5.649 -2.0667 -1.2228 -2.8713
  967MOL0     H30481   7.748   2.607   5.630  0.8049 -0.2886 -2.4011
  967MOL0     H30482   7.788   2.910   5.646 -0.0583 -0.8022 -2.1238
  967MOL0     H30483   7.830   2.788   5.772 -0.8011  0.8247  0.5815
  967MOL0     H30484   7.989   2.681   5.629 -0.1255 -0.6903 -0.6238
  967MOL0     H30485   7.952   2.779   5.492 -0.8000  2.0303 -0.0774
  967MOL0     H30486   8.145   2.876   5.568  2.0073  1.3468  1.4688
  967MOL0     H30487   8.037   2.996   5.630  1.3381  0.5653 -1.0600
  967MOL0     H30488   8.041   2.900   5.850 -2.1382  0.5804 -1.6403
  967MOL0     H30489   8.132   2.749   5.792  2.3590  0.2807  1.9274
  967MOL0     H30490   8.314   2.919   5.720  0.1601  0.4183  0.0134
  967MOL0     H30491   8.234   3.020   5.833  1.1776  0.8841 -2.2421
  967MOL0     H30492   8.263   2.855   6.008 -2.6929 -1.8354 -2.2865
  967MOL0     H30493   8.351   2.748   5.885  1.6041 -0.0973 -1.6626
  967MOL0     H30494   8.421   3.022   5.929 -2.5005 -0.4211 -0.5743
  967MOL0     H30495   8.536   2.911   5.868  1.1268  2.0721  1.1684
  967MOL0     H30496   8.620   2.699   6.068  1.3266  0.5447 -0.9439
  967MOL0     H30497   8.738   2.798   6.404 -0.5698  0.3725  0.3522
  967MOL0     H30498   8.710   2.658   6.297 -0.5109  0.0261 -1.0136
  967MOL0     H30499   8.874   2.772   6.128  1.2488 -0.5184  0.2478
  967MOL0     H30500   8.941   2.698   6.275  1.8606  1.4966  0.3239
  967MOL0     H30501   8.924   2.992   6.266  1.3891 -0.6541 -1.9270
  967MOL0     H30502   9.058   2.900   6.228 -0.0105  0.2628 -0.4125
  967MOL0     H30503   9.061   2.800   6.467 -0.6804 -0.0995  0.6624
  967MOL0     H30504   8.907   2.867   6.496 -0.7452 -0.0786 -1.3260
  967MOL0     H30505   9.180   3.212   6.598  2.8971  2.5921 -1.1302
  967MOL0     H30506   9.420   3.402   6.510 -2.0295  0.4175 -0.3490
  967MOL0     H30507   9.322   3.358   6.645  1.1224  0.2405  1.0842
  967MOL0     H30508   9.495   3.305   6.647 -0.3485 -1.1472  0.7057
  967MOL0     H30509   9.753   2.993   6.137  0.8312  1.3653 -1.6569
  967MOL0     H30510  10.001   2.992   6.050 -0.5411 -0.9289 -0.1648
  967MOL0     H30511  10.327   3.192   6.327 -2.3641  0.2703  0.3481
  967MOL0     H30512  10.325   3.016   6.342  1.3908  2.0128  1.4169
  967MOL0     H30513  10.415   3.007   6.103 -0.5919 -0.2983  0.0288
  967MOL0     H30514  10.438   3.170   6.116 -0.7796 -0.2420 -0.0069
  967MOL0     H30515  10.578   2.979   6.314  0.1346  1.3471  0.1864
  967MOL0     H30516  10.622   3.147   6.313 -2.3521  1.8567 -1.0395
  967MOL0     H30517  10.654   2.959   6.081 -2.6632  1.9657 -1.4086
  967MOL0     H30518  10.703   3.132   6.097 -1.4106  0.6695  0.7884
  967MOL0     H30519  10.891   2.956   6.140 -1.7801 -3.1578 -0.6995
  967MOL0     H30520  10.814   2.917   6.292 -2.7014 -0.6668 -1.8511
  967MOL0     H30521  10.873   3.203   6.232 -1.6883  0.0826 -0.1091
  967MOL0     H30522  10.846   3.137   6.386  0.4111  3.6550 -0.9209
  967MOL0     H30523  11.074   3.012   6.373 -0.2380 -0.5736 -0.7007
  967MOL0     H30524  11.087   3.181   6.381  2.0059  0.1142  0.0700
  967MOL0     H30525  11.085   2.999   6.144 -0.1823 -0.2255 -0.1670
  967MOL0     H30526  11.229   3.083   6.202  0.0912 -3.5512 -1.8099
  967MOL0     H30527  10.119   3.193   6.411 -1.2990 -0.0020  0.9290
  967MOL0     H30528   9.866   3.200   6.484 -0.4642 -0.6430  0.6768
  967MOL0     H30529   9.475   2.930   6.321  2.5305 -0.6550  2.0379
  967MOL0     H30530   9.234   2.861   6.367 -2.3419  0.5385 -0.2882
  967MOL0     H30531   7.799   2.858   5.266 -0.5860 -0.8735  0.3121
  967MOL0     H30532   7.663   3.013   5.126 -2.5203  0.6442 -0.6818
  967MOL0     H30533   7.062   3.264   5.216 -1.0597 -2.2542 -2.1711
  967MOL0     H30534   6.998   3.483   5.153  1.5743  2.9851  0.3739
  967MOL0     H30535   6.962   3.622   4.875 -0.9976 -0.4707  0.8785
  967MOL0     H30536   6.944   3.665   5.035 -0.4764 -0.1873 -0.4109
  967MOL0     H30537   7.015   3.895   4.990  0.3575  0.4483 -0.6440
  967MOL0     H30538   6.887   3.834   4.879 -0.1006 -0.9877 -1.1646
  967MOL0     H30539   7.043   3.799   4.699  4.2988 -0.7398 -1.3905
  967MOL0     H30540   7.177   3.876   4.790  0.0086 -1.6943 -0.0728
  967MOL0     H30541   7.100   4.061   4.685  0.5534  0.6134  2.0871
  967MOL0     H30542   7.017   4.082   4.836 -0.1357 -0.7054  2.2204
  967MOL0     H30543   6.700   3.953   4.561 -1.8828  4.3351 -0.3925
  967MOL0     H30544   7.349   3.511   4.903  2.6049 -2.0717  0.2121
  967MOL0     H30545   7.440   3.298   5.024 -1.6493 -2.9112 -2.7012
  968MOL0     O30546   7.060   0.930  11.074  0.3253 -0.4592  0.3639
  968MOL0     C30547   6.939   0.917  11.113  0.0771  0.1732  0.4093
  968MOL0     O30548   6.837   0.987  11.062 -0.0524  0.5109 -0.4207
  968MOL0     C30549   6.862   1.071  10.961  0.2836  0.1251  0.1947
  968MOL0     C30550   6.886   1.024  10.830 -0.4622 -0.0094  0.2157
  968MOL0     C30551   6.913   1.109  10.724 -1.1584 -0.1776  0.3362
  968MOL0     C30552   6.877   1.241  10.746  0.3577 -0.5105  0.5060
  968MOL0     O30553   6.888   1.331  10.643 -0.4712  0.6502  0.2284
  968MOL0     C30554   6.792   1.319  10.537  0.2794  0.1758 -0.0502
  968MOL0     C30555   6.783   1.446  10.455 -0.1182 -1.0805  1.0369
  968MOL0     C30556   6.660   1.456  10.370  0.5314  0.3005  1.1935
  968MOL0     C30557   6.661   1.596  10.313  0.3338 -0.5960 -0.4106
  968MOL0     C30558   6.574   1.606  10.184  1.1373 -0.1985 -0.7156
  968MOL0     C30559   6.428   1.556  10.184  0.2123 -0.4564  0.1740
  968MOL0     C30560   6.362   1.527  10.054  0.2674  0.3971 -0.7452
  968MOL0     C30561   6.218   1.483  10.082  0.5924  0.7694  0.2095
  968MOL0     N30562   6.200   1.353  10.152 -0.4058  0.4677 -0.0181
  968MOL0     C30563   6.226   1.227  10.111  0.0340  0.6389  0.2902
  968MOL0     C30564   6.191   1.141  10.205  0.3736  0.2563 -0.2873
  968MOL0     C30565   6.211   0.999  10.204  0.7278 -0.2188 -0.3524
  968MOL0     C30566   6.322   0.969  10.303 -0.5094 -0.5913 -0.4015
  968MOL0     C30567   6.346   0.815  10.322  0.7173  0.3621  0.4661
  968MOL0     C30568   6.434   0.794  10.448 -0.2648 -0.3271  0.0527
  968MOL0     O30569   6.554   0.853  10.421 -0.3859  0.2917 -0.4538
  968MOL0     C30570   6.667   0.814  10.490  0.5371  0.0330  0.3386
  968MOL0     C30571   6.662   0.755  10.615 -0.1590  0.3237  1.1037
  968MOL0     C30572   6.783   0.722  10.688 -0.3277  0.2554  0.5571
  968MOL0     C30573   6.770   0.675  10.839  0.4744 -0.3059  0.3949
  968MOL0     C30574   6.910   0.748  10.619 -0.2728  0.5428  0.7497
  968MOL0     C30575   7.044   0.721  10.668  0.5888  0.2678  0.0738
  968MOL0     O30576   7.136   0.779  10.588  0.0081 -0.2709  0.3213
  968MOL0     C30577   7.269   0.767  10.622 -0.3369 -0.0057  0.4064
  968MOL0     C30578   7.319   0.799  10.751  0.9940  0.5723  0.2505
  968MOL0     C30579   7.446   0.782  10.786 -0.7535 -0.3044  0.5549
  968MOL0     C30580   7.540   0.730  10.684  0.8524  0.0053  0.5271
  968MOL0     O30581   7.661   0.702  10.729  0.3252  0.8365 -0.1314
  968MOL0     C30582   7.760   0.636  10.639 -0.8612  0.1486  0.3838
  968MOL0     C30583   7.892   0.610  10.710  0.4386  0.6528 -0.2830
  968MOL0     C30584   7.857   0.496  10.808 -0.6031 -0.5328  0.6279
  968MOL0     C30585   7.847   0.360  10.744 -0.0912 -0.5931  0.3120
  968MOL0     C30586   7.873   0.246  10.841 -0.3473 -0.4373 -0.3614
  968MOL0     C30587   7.797   0.241  10.968 -0.5983  0.1568 -0.6215
  968MOL0     C30588   7.849   0.126  11.053 -0.5590  1.2763  0.2262
  968MOL0     C30589   7.741   0.089  11.152 -1.0967  0.0380  0.6238
  968MOL0    Cl30590   7.682   0.223  11.260 -0.1948 -0.2160  0.2332
  968MOL0     C30591   7.501   0.723  10.550  0.0781 -0.1768 -0.0925
  968MOL0     C30592   7.363   0.733  10.519  0.6113  0.0062 -0.2905
  968MOL0     O30593   7.064   0.664  10.773  0.0226  0.8783 -0.5085
  968MOL0     C30594   6.900   0.818  10.497 -0.5447 -0.1006  0.8495
  968MOL0     C30595   6.788   0.846  10.437  0.7165 -1.3830 -0.0897
  968MOL0     N30596   6.136   1.214  10.312  0.2058  0.0819  0.5098
  968MOL0     N30597   6.146   1.336  10.284 -0.3935  0.4071  0.2351
  968MOL0     C30598   6.833   1.285  10.874 -0.6474  0.2218  1.0777
  968MOL0     C30599   6.843   1.205  10.985 -0.5692 -0.7959 -0.3052
  968MOL0     C30600   6.897   0.796  11.203  0.4845 -1.1285  0.7658
  968MOL0     C30601   6.767   0.745  11.191  0.0569  0.4918  0.1577
  968MOL0     C30602   6.723   0.632  11.269  0.3185 -0.7296  0.2983
  968MOL0     C30603   6.817   0.561  11.344  0.5677  0.2114 -0.6070
  968MOL0     O30604   6.787   0.449  11.414 -0.0271 -0.0040  1.4706
  968MOL0     C30605   6.670   0.377  11.392 -0.4133 -0.2434 -0.2610
  968MOL0     C30606   6.574   0.422  11.503 -0.7016  0.3842 -0.5571
  968MOL0     C30607   6.608   0.382  11.647  0.0672 -0.1984 -1.3128
  968MOL0     C30608   6.607   0.235  11.674  0.7777  0.4568  0.1239
  968MOL0     C30609   6.486   0.165  11.622 -0.5638 -0.3246 -0.0870
  968MOL0     C30610   6.388   0.100  11.605 -0.5802 -0.5925 -0.5052
  968MOL0     C30611   6.942   0.612  11.357  0.7973  0.4120  0.2370
  968MOL0     C30612   6.989   0.720  11.285 -0.2676 -0.4857 -0.3424
  968MOL0     H30613   6.883   0.916  10.821 -2.2854 -0.0613  0.9657
  968MOL0     H30614   6.937   1.067  10.626  0.2343  3.8751 -1.2850
  968MOL0     H30615   6.813   1.234  10.471 -0.1344  0.3481 -0.4050
  968MOL0     H30616   6.692   1.295  10.573  0.2995 -0.6152 -0.4924
  968MOL0     H30617   6.773   1.529  10.525  0.3863 -2.9184  3.4370
  968MOL0     H30618   6.868   1.450  10.385 -0.1669  0.6294  1.0387
  968MOL0     H30619   6.661   1.380  10.292 -0.2062 -0.0597  1.5306
  968MOL0     H30620   6.561   1.444  10.413 -1.1304  3.1438 -1.4325
  968MOL0     H30621   6.608   1.660  10.384 -1.1415 -1.4313 -0.7173
  968MOL0     H30622   6.763   1.632  10.298  1.2758 -3.0569 -0.2760
  968MOL0     H30623   6.576   1.710  10.149 -0.6122 -0.3072 -1.2500
  968MOL0     H30624   6.622   1.547  10.106  2.3998  2.7883 -2.3951
  968MOL0     H30625   6.418   1.465  10.245  0.0834  0.3067  1.3143
  968MOL0     H30626   6.374   1.630  10.242  0.5904 -2.1551  2.8638
  968MOL0     H30627   6.345   1.613   9.987 -1.2519 -0.8483 -2.0554
  968MOL0     H30628   6.407   1.453   9.987 -2.1871 -0.0787 -2.0041
  968MOL0     H30629   6.176   1.482   9.981  0.3591 -1.6343  0.2809
  968MOL0     H30630   6.163   1.553  10.145 -1.5683 -1.2643  0.6966
  968MOL0     H30631   6.271   1.205  10.015  0.1708 -0.5262  0.6045
  968MOL0     H30632   6.122   0.945  10.238 -0.8770 -0.1652 -3.9289
  968MOL0     H30633   6.236   0.969  10.102  2.0305 -1.1490  0.2238
  968MOL0     H30634   6.303   1.020  10.398  0.1761  1.5912 -1.3818
  968MOL0     H30635   6.417   1.010  10.269  0.5452 -3.8611 -1.7973
  968MOL0     H30636   6.398   0.774  10.235 -0.1552 -1.7331  0.8661
  968MOL0     H30637   6.254   0.756  10.330  0.5810  0.5496  0.2671
  968MOL0     H30638   6.448   0.686  10.461 -4.1264 -1.0340 -0.4291
  968MOL0     H30639   6.381   0.831  10.536 -1.9650 -1.6404 -0.3409
  968MOL0     H30640   6.563   0.745  10.657 -1.4651 -1.2638 -2.0813
  968MOL0     H30641   6.837   0.722  10.911 -0.7128 -0.2007  1.4785
  968MOL0     H30642   6.672   0.696  10.883  0.1875 -2.2623  0.7743
  968MOL0     H30643   6.787   0.567  10.837  0.1512 -0.4597 -3.6491
  968MOL0     H30644   7.250   0.843  10.822  0.9502  1.9951 -0.6420
  968MOL0     H30645   7.486   0.793  10.886  1.5594  5.6998 -0.6037
  968MOL0     H30646   7.718   0.543  10.599  0.9396 -0.4585 -0.1854
  968MOL0     H30647   7.778   0.702  10.554 -3.2309  0.2078 -0.1657
  968MOL0     H30648   7.975   0.579  10.646 -0.5249 -1.8764 -0.4082
  968MOL0     H30649   7.917   0.703  10.762 -3.0969  1.1994  0.6870
  968MOL0     H30650   7.762   0.507  10.863 -0.6403 -3.1446  1.2182
  968MOL0     H30651   7.938   0.487  10.881  0.3974 -0.1569 -0.4067
  968MOL0     H30652   7.747   0.343  10.701  0.3395 -1.1502 -0.5157
  968MOL0     H30653   7.918   0.362  10.660 -0.6031 -1.1103 -0.1528
  968MOL0     H30654   7.981   0.235  10.860 -0.4305 -1.4173 -0.4005
  968MOL0     H30655   7.840   0.151  10.798  1.8409 -0.6236 -1.8223
  968MOL0     H30656   7.802   0.333  11.027 -0.8693 -1.2390  1.7163
  968MOL0     H30657   7.692   0.227  10.941 -1.1096  0.5256  1.0848
  968MOL0     H30658   7.933   0.163  11.113  0.6293  0.3544 -0.8019
  968MOL0     H30659   7.876   0.042  10.987 -0.2294  1.3540  0.2592
  968MOL0     H30660   7.784   0.010  11.215 -1.1404  1.1721  2.1395
  968MOL0     H30661   7.656   0.044  11.100  1.7870 -3.1355 -1.7873
  968MOL0     H30662   7.585   0.718  10.482 -0.7104 -0.0010 -1.0994
  968MOL0     H30663   7.323   0.731  10.417 -0.6558  2.9242  0.0346
  968MOL0     H30664   6.991   0.847  10.445 -0.7998 -2.3356 -1.0025
  968MOL0     H30665   6.788   0.909  10.348  0.2976 -1.9585 -0.5046
  968MOL0     H30666   6.815   1.391  10.889 -1.9514 -0.1321  2.2266
  968MOL0     H30667   6.823   1.243  11.084 -0.3026  0.3376 -0.6698
  968MOL0     H30668   6.694   0.807  11.141 -3.0933 -1.3695  2.1565
  968MOL0     H30669   6.617   0.612  11.270 -0.3639  1.6646  4.8167
  968MOL0     H30670   6.628   0.388  11.291 -2.3017  0.9510  0.6048
  968MOL0     H30671   6.680   0.269  11.406  0.5844  0.0035  1.1218
  968MOL0     H30672   6.473   0.387  11.482  0.5639 -3.0172 -1.6546
  968MOL0     H30673   6.555   0.530  11.500  2.9701  1.2261  0.4789
  968MOL0     H30674   6.532   0.434  11.706  3.4324  0.5621  2.8216
  968MOL0     H30675   6.705   0.423  11.674  0.7504 -2.5598  0.0321
  968MOL0     H30676   6.606   0.228  11.783 -1.9596  2.8262  0.3583
  968MOL0     H30677   6.694   0.178  11.639  0.3509 -1.1501  1.5617
  968MOL0     H30678   6.297   0.045  11.593 -0.8943 -0.5161  1.2459
  968MOL0     H30679   7.008   0.552  11.418  1.2947 -0.3313 -0.9984
  968MOL0     H30680   7.092   0.754  11.284 -0.5824  0.4883 -0.4122
  969MOL0     O30681  10.868   3.787   7.588  0.3386  0.5904 -0.4659
  969MOL0     C30682  10.882   3.889   7.661 -0.7091  0.8601  0.2270
  969MOL0     O30683  10.929   3.882   7.785  0.2128 -0.3676 -0.4489
  969MOL0     C30684  10.959   3.766   7.852 -0.6572 -0.0054  0.1438
  969MOL0     C30685  10.985   3.776   7.990 -0.7460 -0.1042  0.2163
  969MOL0     C30686  11.017   3.667   8.067  0.2904  0.6204  0.2348
  969MOL0     C30687  11.036   3.541   8.012 -0.1389  0.4601  0.0288
  969MOL0     O30688  11.041   3.430   8.094 -0.0035  0.2207  0.0602
  969MOL0     C30689  11.163   3.351   8.096  0.0793  0.0631  0.6635
  969MOL0     C30690  11.157   3.250   8.215  0.4478 -0.2927  0.3072
  969MOL0     C30691  11.162   3.329   8.350  0.5659  0.6796 -0.0548
  969MOL0     C30692  11.254   3.452   8.329 -1.6369 -0.5765 -0.4772
  969MOL0     C30693  11.299   3.506   8.472  0.0412  0.1066  0.1013
  969MOL0     C30694  11.179   3.566   8.549  0.1474 -0.0758 -0.4017
  969MOL0     C30695  11.094   3.661   8.470 -0.0863  0.8275  0.1997
  969MOL0     C30696  10.992   3.729   8.558  0.0835  0.6315 -0.3856
  969MOL0     N30697  10.883   3.636   8.614  0.0700  0.3198  0.0064
  969MOL0     C30698  10.815   3.553   8.532 -0.0114  0.5831 -0.3201
  969MOL0     C30699  10.747   3.471   8.620 -0.3316 -0.0221 -0.3596
  969MOL0     C30700  10.687   3.341   8.578 -0.3544  1.0251  0.6630
  969MOL0     C30701  10.636   3.260   8.695 -0.8566  0.4273  0.4870
  969MOL0     C30702  10.510   3.313   8.754  0.3503  0.4907 -0.3573
  969MOL0     C30703  10.397   3.334   8.659 -0.4701  0.0613 -0.5380
  969MOL0     O30704  10.375   3.222   8.571  0.0522  0.6611  0.5283
  969MOL0     C30705  10.247   3.202   8.516 -1.1911  0.1784 -0.5928
  969MOL0     C30706  10.222   3.072   8.465 -0.2050 -0.5664 -0.1874
  969MOL0     C30707  10.100   3.034   8.405  0.1519 -0.7432  1.2687
  969MOL0     C30708  10.093   2.894   8.351  0.8515  0.0179 -0.0297
  969MOL0     C30709  10.006   3.144   8.386 -0.2409 -0.0958 -0.6587
  969MOL0     C30710   9.884   3.120   8.302 -0.8763 -0.7067 -0.4508
  969MOL0     O30711   9.811   3.232   8.278 -0.2515  0.1482  0.5182
  969MOL0     C30712   9.691   3.252   8.209 -1.3211  0.2296  0.3704
  969MOL0     C30713   9.629   3.152   8.140 -0.4005  1.2627  0.1017
  969MOL0     C30714   9.512   3.181   8.070 -0.8344  0.2952  0.1286
  969MOL0     C30715   9.452   3.309   8.062  1.0395  0.6479  0.5730
  969MOL0     O30716   9.344   3.348   7.982  0.4428 -0.5061  0.0440
  969MOL0     C30717   9.304   3.268   7.866  0.0188  0.1698 -0.0585
  969MOL0     C30718   9.212   3.355   7.781 -0.2901  0.4458  0.5408
  969MOL0     C30719   9.083   3.367   7.865 -0.5090  0.6294  0.2502
  969MOL0     C30720   8.982   3.450   7.783 -0.3797  0.2948 -0.5646
  969MOL0     C30721   8.839   3.444   7.835  0.3461  0.9940 -0.8423
  969MOL0     C30722   8.829   3.487   7.984  0.0920  0.2001  0.4596
  969MOL0     C30723   8.879   3.630   7.997  0.4936  0.3141 -0.0930
  969MOL0     C30724   8.815   3.744   7.914  1.0195  0.1351  0.2049
  969MOL0    Cl30725   8.642   3.729   7.909  0.2726  0.7810  0.2132
  969MOL0     C30726   9.514   3.412   8.128 -0.5294 -0.8655  0.3310
  969MOL0     C30727   9.635   3.380   8.199 -0.0010 -0.2679 -0.7556
  969MOL0     O30728   9.851   3.014   8.264  0.6130 -0.2876  0.1273
  969MOL0     C30729  10.045   3.275   8.437 -0.2220  0.6116  0.3906
  969MOL0     C30730  10.167   3.306   8.489  1.2533  0.5433  1.2361
  969MOL0     N30731  10.771   3.514   8.748  0.1166  0.0464 -0.5323
  969MOL0     N30732  10.869   3.600   8.745  0.7454  1.1097 -0.5362
  969MOL0     C30733  11.024   3.522   7.879  0.6664 -0.1214 -0.2331
  969MOL0     C30734  10.970   3.631   7.798  0.8755  0.4920 -0.1529
  969MOL0     C30735  10.861   4.027   7.608  0.0628  0.6992 -0.0647
  969MOL0     C30736  10.892   4.131   7.692  0.1027  0.0284 -0.0713
  969MOL0     C30737  10.852   4.260   7.659  0.3230  0.1413 -0.5284
  969MOL0     C30738  10.793   4.285   7.532 -0.9883 -0.4664 -0.4126
  969MOL0     O30739  10.738   4.411   7.503 -0.0372 -0.4203 -0.0057
  969MOL0     C30740  10.736   4.507   7.613 -1.0079 -0.2808  0.6501
  969MOL0     C30741  10.712   4.648   7.557 -0.1451 -0.8070  0.1174
  969MOL0     C30742  10.752   4.670   7.417  0.2783 -0.2622  0.5391
  969MOL0     C30743  10.728   4.812   7.369  0.4660 -0.7904 -0.8481
  969MOL0     C30744  10.771   4.827   7.231 -1.2173 -0.5162  0.9892
  969MOL0     C30745  10.813   4.831   7.120  0.0080 -0.6850  0.4249
  969MOL0     C30746  10.784   4.183   7.438  0.3312  0.4653 -1.8150
  969MOL0     C30747  10.818   4.052   7.480 -0.9338 -0.7392  0.4702
  969MOL0     H30748  10.974   3.869   8.045  0.5166 -0.0274  0.3812
  969MOL0     H30749  11.007   3.669   8.175  1.8979  1.5179  0.3925
  969MOL0     H30750  11.156   3.281   8.012  1.3532 -0.2897  0.8256
  969MOL0     H30751  11.258   3.402   8.079  0.5064 -0.2939  1.8657
  969MOL0     H30752  11.063   3.193   8.214  2.2198 -3.4263  0.3061
  969MOL0     H30753  11.242   3.181   8.214  2.4246  2.0185 -0.6180
  969MOL0     H30754  11.064   3.361   8.387  0.5879  2.3800 -1.3099
  969MOL0     H30755  11.207   3.261   8.423 -0.6877  0.4132  0.4841
  969MOL0     H30756  11.352   3.425   8.288 -0.2679  0.5614  1.8524
  969MOL0     H30757  11.213   3.527   8.261  0.0587 -1.2432 -2.3331
  969MOL0     H30758  11.344   3.424   8.527  1.7909  0.9437 -0.0124
  969MOL0     H30759  11.363   3.591   8.447  0.3528 -0.8928 -2.9646
  969MOL0     H30760  11.118   3.485   8.590  1.0641  0.1158  1.4219
  969MOL0     H30761  11.217   3.615   8.639 -1.8469 -0.9641  0.9770
  969MOL0     H30762  11.153   3.742   8.426  2.7928 -0.5602  1.2636
  969MOL0     H30763  11.048   3.600   8.392 -2.4748  2.7036  0.0081
  969MOL0     H30764  10.928   3.795   8.499 -1.3356  2.4777  2.9045
  969MOL0     H30765  11.046   3.793   8.628  0.9093 -0.2067 -0.2456
  969MOL0     H30766  10.827   3.541   8.424  0.1384 -0.3806 -0.2002
  969MOL0     H30767  10.604   3.358   8.509  0.4827  1.0250 -0.3591
  969MOL0     H30768  10.772   3.291   8.531 -0.4766  1.2843  0.1652
  969MOL0     H30769  10.723   3.259   8.762  1.0939 -0.3055 -1.9307
  969MOL0     H30770  10.611   3.157   8.669  3.1143 -0.9858  1.5254
  969MOL0     H30771  10.531   3.401   8.815  0.0865  1.0848 -1.1092
  969MOL0     H30772  10.477   3.238   8.827 -0.1289  3.9911  3.4067
  969MOL0     H30773  10.410   3.430   8.609  2.3555  0.8161  1.4483
  969MOL0     H30774  10.300   3.354   8.706 -2.1497 -2.3735 -2.6788
  969MOL0     H30775  10.314   3.015   8.461 -2.1713 -4.0271  0.0948
  969MOL0     H30776  10.052   2.888   8.250 -0.2658 -0.1919  0.4225
  969MOL0     H30777  10.186   2.839   8.367 -0.3892 -1.3328  3.6771
  969MOL0     H30778  10.021   2.847   8.419  0.2889 -0.3087 -0.8386
  969MOL0     H30779   9.662   3.050   8.125  0.2675  1.9306 -4.2436
  969MOL0     H30780   9.468   3.093   8.024  1.4107  0.1559 -1.9413
  969MOL0     H30781   9.391   3.245   7.804  2.3308 -0.7829  3.2030
  969MOL0     H30782   9.261   3.172   7.897  2.2988 -0.4912  1.3094
  969MOL0     H30783   9.251   3.458   7.781 -1.0478  0.7452  0.7808
  969MOL0     H30784   9.190   3.312   7.683 -0.9886  1.7574  0.1005
  969MOL0     H30785   9.115   3.411   7.960  0.5660  1.0815 -0.3125
  969MOL0     H30786   9.039   3.268   7.881  0.4526 -0.4687 -3.1079
  969MOL0     H30787   9.025   3.549   7.796 -0.0970  0.0374  0.6688
  969MOL0     H30788   8.989   3.420   7.678  2.7894  0.0861 -0.3796
  969MOL0     H30789   8.801   3.342   7.828  0.0196  1.1428 -1.2633
  969MOL0     H30790   8.773   3.500   7.768 -0.8030 -0.1789 -0.7292
  969MOL0     H30791   8.725   3.479   8.015  0.5673  3.7696  3.8075
  969MOL0     H30792   8.886   3.419   8.048 -1.6537 -1.4439  0.3632
  969MOL0     H30793   8.987   3.635   7.983  0.5966 -0.3297  0.4387
  969MOL0     H30794   8.858   3.652   8.102 -1.3253  1.4260 -0.6439
  969MOL0     H30795   8.855   3.759   7.813 -2.2838  2.7351 -0.9002
  969MOL0     H30796   8.837   3.842   7.958 -0.5685  1.2806 -1.4061
  969MOL0     H30797   9.476   3.513   8.116  1.2313 -0.0529  1.1657
  969MOL0     H30798   9.686   3.464   8.244 -0.6864 -0.5138  0.5331
  969MOL0     H30799   9.978   3.358   8.416  0.1217  1.0360  0.9458
  969MOL0     H30800  10.188   3.407   8.523 -0.1582  0.6010  1.9868
  969MOL0     H30801  11.046   3.423   7.840  0.8933 -1.1442  2.3183
  969MOL0     H30802  10.960   3.595   7.696  2.2422  0.8251 -0.4296
  969MOL0     H30803  10.953   4.107   7.778 -1.9456 -3.0008  0.7253
  969MOL0     H30804  10.855   4.333   7.739 -2.4392 -2.7385  2.5590
  969MOL0     H30805  10.651   4.479   7.676 -1.9512  2.2634  0.5993
  969MOL0     H30806  10.823   4.520   7.678 -2.6163  1.5470  2.5841
  969MOL0     H30807  10.763   4.715   7.628  1.7989 -0.2006 -1.7339
  969MOL0     H30808  10.604   4.658   7.565 -0.0821 -0.3953  0.5004
  969MOL0     H30809  10.702   4.608   7.343 -1.0468  4.0489 -2.5794
  969MOL0     H30810  10.861   4.660   7.409  0.5284  2.3950 -0.5740
  969MOL0     H30811  10.790   4.885   7.424  0.5223 -0.8917 -0.7772
  969MOL0     H30812  10.623   4.839   7.380  0.4882 -0.3746 -1.5749
  969MOL0     H30813  10.850   4.832   7.020  2.0682  0.7029  1.1338
  969MOL0     H30814  10.758   4.193   7.333  2.6743 -2.3662 -2.7769
  969MOL0     H30815  10.801   3.963   7.419  0.8362  0.0265 -1.2691
  970MOL0     O30816   9.427   4.147   3.201 -0.7441 -0.5309  0.1839
  970MOL0     C30817   9.474   4.137   3.085 -0.1071 -0.7329 -0.8521
  970MOL0     O30818   9.409   4.093   2.979  0.1049  0.0600  0.0230
  970MOL0     C30819   9.303   4.011   2.988 -0.7055  0.0906  0.1137
  970MOL0     C30820   9.333   3.879   2.954  0.0893  1.0079 -0.3130
  970MOL0     C30821   9.232   3.783   2.940  0.1945 -1.0534 -0.5473
  970MOL0     C30822   9.097   3.813   2.960  0.1503 -0.0484 -0.6373
  970MOL0     O30823   9.008   3.708   2.946  0.4383 -0.5216 -0.4800
  970MOL0     C30824   8.868   3.744   2.924  0.3931 -0.8958  0.4955
  970MOL0     C30825   8.839   3.798   2.785  0.0423 -0.8388 -0.1164
  970MOL0     C30826   8.790   3.697   2.679  0.1041 -0.0610  0.0492
  970MOL0     C30827   8.720   3.766   2.563  0.1680 -0.7146  0.0486
  970MOL0     C30828   8.636   3.666   2.493 -0.2306  0.1115  0.6611
  970MOL0     C30829   8.585   3.734   2.367 -0.7446 -0.4935 -0.2771
  970MOL0     C30830   8.496   3.627   2.294  0.0161 -0.8601 -0.0988
  970MOL0     C30831   8.432   3.694   2.172 -0.0461 -0.6010  0.4427
  970MOL0     N30832   8.528   3.733   2.066  0.3657 -0.0673 -0.9142
  970MOL0     C30833   8.650   3.681   2.055 -0.3627  0.1376  0.5277
  970MOL0     C30834   8.733   3.764   1.975  0.2070  0.3376 -0.8869
  970MOL0     C30835   8.872   3.745   1.931 -0.0842 -0.1350 -0.7016
  970MOL0     C30836   8.963   3.729   2.050 -0.3247 -0.9227  1.3793
  970MOL0     C30837   8.973   3.856   2.127  0.2129 -0.6479 -0.0401
  970MOL0     C30838   9.071   3.870   2.243  0.3257  0.2643  0.0078
  970MOL0     O30839   9.192   3.789   2.230 -0.2515  0.2791  0.4451
  970MOL0     C30840   9.295   3.810   2.316 -0.5403  1.1212 -0.6274
  970MOL0     C30841   9.423   3.852   2.269 -0.0881 -0.0042  0.1346
  970MOL0     C30842   9.532   3.888   2.351  0.4415  0.3482  0.6145
  970MOL0     C30843   9.660   3.935   2.292 -0.0203 -0.4155  0.6658
  970MOL0     C30844   9.528   3.862   2.495  0.0134 -0.4746 -0.1411
  970MOL0     C30845   9.630   3.902   2.594 -0.4136  0.2581 -0.2636
  970MOL0     O30846   9.646   3.829   2.714  0.1345  0.3373  0.5636
  970MOL0     C30847   9.652   3.690   2.713 -0.3477  0.4466 -0.0834
  970MOL0     C30848   9.635   3.607   2.821  0.2872 -0.0066  0.4170
  970MOL0     C30849   9.658   3.474   2.831 -0.8441 -0.3726 -0.3745
  970MOL0     C30850   9.707   3.409   2.715 -0.5360  0.5533  0.5941
  970MOL0     O30851   9.734   3.280   2.728 -0.4461  0.8230 -0.3205
  970MOL0     C30852   9.852   3.238   2.650 -0.1421 -0.9154 -0.2042
  970MOL0     C30853   9.962   3.276   2.752  0.5403 -0.3786  0.4597
  970MOL0     C30854  10.094   3.215   2.715  0.1865 -0.1378  0.0802
  970MOL0     C30855  10.157   3.242   2.575  0.6662  0.5334  1.2792
  970MOL0     C30856  10.299   3.179   2.547  0.2521  0.2254 -0.0770
  970MOL0     C30857  10.406   3.269   2.603  0.0113  0.2053  0.3509
  970MOL0     C30858  10.426   3.405   2.532  0.3959  0.1126 -0.0198
  970MOL0     C30859  10.565   3.458   2.555 -0.0367 -0.8960 -0.0427
  970MOL0    Cl30860  10.687   3.328   2.527  0.0469  0.1902  0.1566
  970MOL0     C30861   9.723   3.488   2.597  0.1915  0.0210 -0.2706
  970MOL0     C30862   9.697   3.624   2.593  0.4028 -0.2037 -0.0503
  970MOL0     O30863   9.695   4.007   2.570  0.5924  0.9225  0.1992
  970MOL0     C30864   9.404   3.800   2.535 -0.5903 -0.6150 -0.7367
  970MOL0     C30865   9.291   3.782   2.454  0.1235  0.9308 -0.2236
  970MOL0     N30866   8.642   3.865   1.939  0.0597 -0.8797 -0.4399
  970MOL0     N30867   8.522   3.843   1.990  0.2289 -0.0921  0.3803
  970MOL0     C30868   9.074   3.955   2.998  0.0386  0.4270 -0.1663
  970MOL0     C30869   9.176   4.048   3.008 -0.9980 -0.4885  0.0219
  970MOL0     C30870   9.608   4.198   3.051 -0.1193 -0.0210  0.3770
  970MOL0     C30871   9.672   4.296   3.132  0.4007  0.2095 -0.2468
  970MOL0     C30872   9.790   4.365   3.080  1.3223  0.1454  0.1847
  970MOL0     C30873   9.853   4.335   2.961 -0.3510 -0.2695 -0.2361
  970MOL0     O30874   9.969   4.398   2.925 -0.7304  0.8311  0.3485
  970MOL0     C30875   9.954   4.532   2.859  1.2699 -0.1287 -0.2068
  970MOL0     C30876  10.083   4.557   2.774 -0.0238 -0.2862 -0.7926
  970MOL0     C30877  10.104   4.698   2.755  0.1146 -0.1378  0.3056
  970MOL0     C30878  10.192   4.737   2.634 -0.2686  0.4965 -0.6229
  970MOL0     C30879  10.228   4.878   2.641 -0.2323 -0.4165 -0.0379
  970MOL0     C30880  10.226   5.002   2.650 -0.1868  0.3410  0.0508
  970MOL0     C30881   9.795   4.236   2.879 -0.6157 -0.2927 -0.6343
  970MOL0     C30882   9.672   4.171   2.920 -0.3958  0.6342  0.4251
  970MOL0     H30883   9.431   3.847   2.922 -0.0105 -2.3312  2.1601
  970MOL0     H30884   9.260   3.681   2.914 -1.0484 -1.4013 -0.6091
  970MOL0     H30885   8.808   3.653   2.932  0.2878 -0.7700  1.2692
  970MOL0     H30886   8.824   3.812   2.998 -0.1097 -0.5638 -0.0993
  970MOL0     H30887   8.757   3.869   2.801 -0.4679 -1.9561  2.7317
  970MOL0     H30888   8.920   3.861   2.747 -3.4190  3.9744 -0.5614
  970MOL0     H30889   8.869   3.631   2.642 -0.6475 -1.6905  1.2195
  970MOL0     H30890   8.725   3.623   2.727 -3.3272  1.1961 -2.2412
  970MOL0     H30891   8.654   3.842   2.605 -2.4684 -3.5216  1.4473
  970MOL0     H30892   8.784   3.823   2.495 -2.0110  0.2458 -1.3316
  970MOL0     H30893   8.701   3.582   2.469 -2.9706 -1.4735 -1.7001
  970MOL0     H30894   8.561   3.631   2.565  1.7727 -0.3684  2.6471
  970MOL0     H30895   8.541   3.832   2.392 -0.7674 -0.4164 -0.6109
  970MOL0     H30896   8.674   3.761   2.309 -1.4791  3.5863  0.1333
  970MOL0     H30897   8.548   3.537   2.259  3.0493  1.3833 -1.9590
  970MOL0     H30898   8.422   3.598   2.368  0.9861 -0.7332  0.9538
  970MOL0     H30899   8.378   3.783   2.206  0.5116  0.3419 -1.0438
  970MOL0     H30900   8.361   3.618   2.136 -0.2854  0.6559 -1.8577
  970MOL0     H30901   8.687   3.590   2.101  3.3219 -0.3222 -2.7898
  970MOL0     H30902   8.870   3.651   1.875  4.2358 -2.4380  2.4157
  970MOL0     H30903   8.911   3.824   1.867  3.4077 -1.2805 -0.2077
  970MOL0     H30904   9.063   3.714   2.008 -1.4682 -0.2330 -1.8925
  970MOL0     H30905   8.929   3.642   2.107 -3.5506 -0.2635  0.6229
  970MOL0     H30906   8.870   3.880   2.155  0.3710 -0.8114  0.7242
  970MOL0     H30907   8.992   3.934   2.053  1.2860 -2.0624 -1.3328
  970MOL0     H30908   9.019   3.846   2.337  2.2270  1.7362  1.5080
  970MOL0     H30909   9.103   3.974   2.252 -2.8372  1.4358 -0.8635
  970MOL0     H30910   9.431   3.869   2.163  0.8674 -3.8790 -0.5423
  970MOL0     H30911   9.747   3.884   2.335  2.5299  4.4068  1.9855
  970MOL0     H30912   9.665   3.926   2.183 -2.2364  0.0145  0.4858
  970MOL0     H30913   9.663   4.041   2.320  1.1548 -0.6735  1.6356
  970MOL0     H30914   9.589   3.673   2.894 -1.9734  0.5129 -1.3366
  970MOL0     H30915   9.631   3.419   2.920 -0.3107 -0.2379 -0.1276
  970MOL0     H30916   9.829   3.132   2.635 -1.0279 -1.0793  1.9724
  970MOL0     H30917   9.871   3.290   2.555 -2.3046  1.6375  0.6392
  970MOL0     H30918   9.981   3.384   2.751 -0.6413 -0.1592  0.0518
  970MOL0     H30919   9.940   3.244   2.854  1.6367 -0.8737  0.5590
  970MOL0     H30920  10.098   3.106   2.716  2.0824 -0.1476  3.1740
  970MOL0     H30921  10.166   3.250   2.790  0.2591 -1.5322  0.6846
  970MOL0     H30922  10.085   3.196   2.506 -2.7158  2.8375  2.9670
  970MOL0     H30923  10.159   3.349   2.554  1.9047 -0.0330 -2.0996
  970MOL0     H30924  10.306   3.147   2.443 -1.9073 -1.4152  0.1971
  970MOL0     H30925  10.303   3.082   2.598 -0.2837 -0.0706 -0.5810
  970MOL0     H30926  10.384   3.287   2.709  1.0015 -2.7521  1.1525
  970MOL0     H30927  10.495   3.207   2.591  0.3171  0.5986  0.5599
  970MOL0     H30928  10.349   3.474   2.568 -0.2824 -1.1349  1.0025
  970MOL0     H30929  10.405   3.385   2.426 -1.1907 -1.3765  0.5301
  970MOL0     H30930  10.566   3.494   2.658 -2.8815 -0.9221  0.0749
  970MOL0     H30931  10.596   3.533   2.481  1.6962 -2.1394 -0.6571
  970MOL0     H30932   9.752   3.459   2.496 -3.5326 -0.1854 -1.4399
  970MOL0     H30933   9.716   3.675   2.499  0.9716 -2.2475 -1.1045
  970MOL0     H30934   9.393   3.775   2.640 -2.5608  0.0106 -0.7665
  970MOL0     H30935   9.207   3.731   2.500  1.1292 -1.2292 -0.6566
  970MOL0     H30936   8.976   3.997   3.015 -0.9189 -0.7819 -2.2051
  970MOL0     H30937   9.160   4.153   3.029 -4.4023 -0.5216 -1.7235
  970MOL0     H30938   9.647   4.327   3.233 -2.5515  1.1381 -1.1756
  970MOL0     H30939   9.840   4.421   3.159 -0.4352  0.0605  1.4258
  970MOL0     H30940   9.875   4.528   2.783 -1.5116 -2.5987  2.5088
  970MOL0     H30941   9.924   4.612   2.928 -0.5771  0.3723 -1.5002
  970MOL0     H30942  10.070   4.502   2.681 -2.9369 -0.4302 -0.3989
  970MOL0     H30943  10.165   4.510   2.829  0.7208  0.6611 -1.0609
  970MOL0     H30944  10.162   4.733   2.840  2.7281  2.0931 -2.1975
  970MOL0     H30945  10.007   4.749   2.747  0.8014  1.1543 -0.0031
  970MOL0     H30946  10.141   4.710   2.541  2.6097 -1.3952 -1.8164
  970MOL0     H30947  10.288   4.684   2.635  0.1415  1.0052  3.5122
  970MOL0     H30948  10.228   5.109   2.644 -0.6485  0.3615  0.1983
  970MOL0     H30949   9.854   4.200   2.796  0.4116  0.4000 -0.2308
  970MOL0     H30950   9.656   4.092   2.848  2.2403  1.3458 -1.1270
  971MOL0     O30951   1.764  10.639   2.764 -0.0385 -0.2991  0.0727
  971MOL0     C30952   1.685  10.714   2.709  0.2622 -0.1609  0.3179
  971MOL0     O30953   1.616  10.809   2.780 -0.5843 -0.7952  0.1165
  971MOL0     C30954   1.661  10.869   2.895  0.1632  0.5566  0.3609
  971MOL0     C30955   1.747  10.983   2.893 -0.5021  0.2202  0.4647
  971MOL0     C30956   1.780  11.058   3.009  0.5841 -0.5774  0.4277
  971MOL0     C30957   1.722  11.010   3.129  0.7467  0.0792 -0.0704
  971MOL0     O30958   1.751  11.085   3.239 -0.4874  0.0548 -0.7496
  971MOL0     C30959   1.802  11.019   3.358  0.4751 -0.1461  0.3742
  971MOL0     C30960   1.901  11.094   3.438  0.1394  0.0779  0.3558
  971MOL0     C30961   1.927  11.022   3.576 -0.4773  0.7475  0.6036
  971MOL0     C30962   1.990  11.105   3.687 -0.3145  0.1867  0.5577
  971MOL0     C30963   2.047  11.032   3.800  0.9472 -0.9018 -0.5548
  971MOL0     C30964   1.939  10.969   3.894 -0.0272 -0.2486  0.0207
  971MOL0     C30965   1.997  10.916   4.027  0.6764 -0.1872 -0.6303
  971MOL0     C30966   1.889  10.844   4.114 -0.1065 -0.4532 -0.4037
  971MOL0     N30967   1.748  10.905   4.100  0.5102  0.3967  0.8178
  971MOL0     C30968   1.635  10.837   4.049  0.1968 -0.0299 -0.4306
  971MOL0     C30969   1.532  10.928   4.051 -0.4824 -0.0124 -0.4678
  971MOL0     C30970   1.399  10.904   3.988  0.7580 -0.1061 -0.3839
  971MOL0     C30971   1.389  10.960   3.848  0.1895  0.1279 -0.6158
  971MOL0     C30972   1.405  11.107   3.847  0.8666  0.3304 -0.5135
  971MOL0     C30973   1.343  11.159   3.724  0.5943 -0.5790 -0.0809
  971MOL0     O30974   1.395  11.090   3.613 -0.8525  0.1397  1.2696
  971MOL0     C30975   1.348  11.121   3.484 -0.4546 -0.6381  0.1406
  971MOL0     C30976   1.257  11.221   3.451 -0.0696 -0.4029  0.0496
  971MOL0     C30977   1.197  11.234   3.323 -1.2809 -0.3672  0.1013
  971MOL0     C30978   1.097  11.350   3.316  0.2585 -0.3891  0.9237
  971MOL0     C30979   1.232  11.138   3.222  0.1797 -0.5244  0.8458
  971MOL0     C30980   1.189  11.142   3.078 -0.8197  0.9329  0.2169
  971MOL0     O30981   1.287  11.101   2.992  0.0157  0.5795  0.0279
  971MOL0     C30982   1.287  11.135   2.849  0.8806 -0.3638  0.0215
  971MOL0     C30983   1.415  11.106   2.795 -0.1960  0.0025 -0.8008
  971MOL0     C30984   1.443  11.144   2.658 -0.6533  0.5668 -0.4681
  971MOL0     C30985   1.336  11.182   2.573  0.1654 -0.5092  0.0104
  971MOL0     O30986   1.359  11.216   2.442 -0.0216  0.2375 -0.3622
  971MOL0     C30987   1.345  11.106   2.354 -0.1110  0.1289  0.3128
  971MOL0     C30988   1.250  11.137   2.243  0.2635  1.0579 -0.5225
  971MOL0     C30989   1.230  11.003   2.168  0.1434 -0.6849 -0.0501
  971MOL0     C30990   1.132  11.010   2.050  0.3156 -0.3288  0.9593
  971MOL0     C30991   1.124  10.882   1.965 -0.0545 -0.4622  0.0351
  971MOL0     C30992   1.037  10.900   1.849  0.2717 -1.5629  0.0903
  971MOL0     C30993   1.071  11.010   1.753  0.9814 -0.0247 -0.7033
  971MOL0     C30994   0.976  11.033   1.637  0.6121  0.7677  0.7857
  971MOL0    Cl30995   1.027  11.181   1.573 -0.1391  0.1276  0.2182
  971MOL0     C30996   1.206  11.205   2.626 -0.0266  0.4789  0.1574
  971MOL0     C30997   1.184  11.190   2.768 -0.6805  1.0902 -0.8867
  971MOL0     O30998   1.074  11.174   3.047 -0.3373 -0.0819 -0.2626
  971MOL0     C30999   1.336  11.045   3.247  0.2119  0.4254 -0.6499
  971MOL0     C31000   1.391  11.033   3.382  0.1700 -0.3951  0.6792
  971MOL0     N31001   1.579  11.044   4.116 -0.0931  0.2209  0.6989
  971MOL0     N31002   1.709  11.029   4.142 -0.3619 -0.8460 -0.2296
  971MOL0     C31003   1.631  10.895   3.135  0.3696 -0.3308  0.3953
  971MOL0     C31004   1.606  10.825   3.019 -0.4780 -1.0672  0.1993
  971MOL0     C31005   1.667  10.705   2.560 -0.3135 -2.0507  0.2444
  971MOL0     C31006   1.591  10.793   2.487  0.2681  0.0880 -0.4336
  971MOL0     C31007   1.561  10.781   2.352  0.6578  0.3121  0.6200
  971MOL0     C31008   1.636  10.681   2.279 -0.0530  0.1361  0.6012
  971MOL0     O31009   1.623  10.672   2.139  0.9149 -0.1008 -1.0014
  971MOL0     C31010   1.688  10.568   2.068 -0.2420  0.8294 -0.2611
  971MOL0     C31011   1.618  10.558   1.935 -0.6634  0.9475 -0.5924
  971MOL0     C31012   1.618  10.695   1.857 -0.6843  1.0378  0.1426
  971MOL0     C31013   1.552  10.683   1.729  0.9071 -0.0134 -0.0055
  971MOL0     C31014   1.619  10.603   1.627 -0.2670  0.3833  0.8255
  971MOL0     C31015   1.676  10.540   1.539  0.2941  0.4955 -0.2918
  971MOL0     C31016   1.728  10.594   2.344 -0.0626  1.0297 -0.1726
  971MOL0     C31017   1.734  10.604   2.489  0.4173  0.0785 -0.5073
  971MOL0     H31018   1.771  11.010   2.791  0.0608  0.1030  0.5610
  971MOL0     H31019   1.840  11.148   3.007  0.8899 -0.7830 -1.2646
  971MOL0     H31020   1.720  10.991   3.426 -2.4036  3.9171 -1.0554
  971MOL0     H31021   1.853  10.926   3.330 -0.2854 -0.3098 -0.5271
  971MOL0     H31022   1.999  11.120   3.396 -0.2108  2.4797  0.8356
  971MOL0     H31023   1.858  11.191   3.463  2.3520  2.0879 -2.7137
  971MOL0     H31024   1.834  10.975   3.609 -0.8900  2.1366  1.4830
  971MOL0     H31025   1.994  10.938   3.555 -0.3226  1.0612 -0.2142
  971MOL0     H31026   2.082  11.149   3.648 -1.6887  1.0674 -1.9020
  971MOL0     H31027   1.930  11.189   3.722  0.6548  0.6296  1.1987
  971MOL0     H31028   2.129  10.962   3.780  1.1154 -0.7979 -0.2381
  971MOL0     H31029   2.106  11.107   3.853  0.4568 -0.4199 -0.6907
  971MOL0     H31030   1.860  11.041   3.919  0.6198 -0.1764  2.1107
  971MOL0     H31031   1.879  10.892   3.845  0.6261 -0.4628 -0.4495
  971MOL0     H31032   2.077  10.843   4.015  0.1727 -0.9822  0.5812
  971MOL0     H31033   2.041  11.005   4.071  0.5311 -0.3959 -0.0537
  971MOL0     H31034   1.920  10.862   4.218  3.1422 -1.3419 -1.0940
  971MOL0     H31035   1.870  10.737   4.102  4.4022 -1.4665 -0.1542
  971MOL0     H31036   1.629  10.744   3.995 -2.5384 -0.1880  0.0005
  971MOL0     H31037   1.395  10.796   3.969  2.1358  0.0093 -1.5643
  971MOL0     H31038   1.321  10.935   4.057  1.6589 -0.2855  0.7563
  971MOL0     H31039   1.294  10.927   3.806 -0.0821 -1.7596  1.2851
  971MOL0     H31040   1.457  10.915   3.776 -2.5336 -1.9986 -2.0577
  971MOL0     H31041   1.511  11.137   3.847  1.3075 -1.0373  1.2832
  971MOL0     H31042   1.365  11.159   3.934  1.8829 -0.1332  0.2606
  971MOL0     H31043   1.347  11.268   3.721 -4.2105 -0.2034 -0.6240
  971MOL0     H31044   1.235  11.137   3.726  1.1570 -3.8298  0.8603
  971MOL0     H31045   1.223  11.289   3.529  0.6968 -1.8666  1.7150
  971MOL0     H31046   1.036  11.351   3.226  4.6218  0.9451 -2.3478
  971MOL0     H31047   1.026  11.352   3.399  1.2926  1.3723  1.8384
  971MOL0     H31048   1.152  11.444   3.324  0.1164 -0.3594  1.7137
  971MOL0     H31049   1.490  11.057   2.857 -0.5521 -0.7594 -0.9611
  971MOL0     H31050   1.544  11.150   2.619 -0.2357  3.5114  0.7825
  971MOL0     H31051   1.443  11.097   2.305 -0.1207  2.1689 -0.1702
  971MOL0     H31052   1.311  11.011   2.397 -0.1790  0.3516  0.7639
  971MOL0     H31053   1.153  11.163   2.287  0.6023 -0.3037  1.0949
  971MOL0     H31054   1.282  11.225   2.186  2.1498  2.0397  1.8820
  971MOL0     H31055   1.187  10.929   2.235  0.2306 -0.3229  0.4067
  971MOL0     H31056   1.326  10.969   2.126 -0.7232 -2.7887 -0.4169
  971MOL0     H31057   1.027  11.016   2.080 -0.8333  0.2171 -2.7202
  971MOL0     H31058   1.147  11.097   1.985 -0.3036 -1.7019 -1.0997
  971MOL0     H31059   1.093  10.801   2.032 -0.7754 -1.8062 -1.8350
  971MOL0     H31060   1.225  10.867   1.926  0.0425  2.6034 -1.1609
  971MOL0     H31061   1.023  10.801   1.804 -2.4777 -1.2221  0.0143
  971MOL0     H31062   0.938  10.932   1.885  1.5797  0.1790  2.4264
  971MOL0     H31063   1.165  10.976   1.709  0.0276 -1.9115 -1.4233
  971MOL0     H31064   1.076  11.107   1.803 -0.9323 -1.4586  2.5632
  971MOL0     H31065   0.869  11.033   1.663  0.7384 -0.6819  1.3992
  971MOL0     H31066   0.983  10.968   1.549 -0.0944  3.2817 -1.2386
  971MOL0     H31067   1.123  11.238   2.566 -2.8394  0.7858  3.8637
  971MOL0     H31068   1.087  11.205   2.813  0.2591 -0.2930  1.8313
  971MOL0     H31069   1.383  10.984   3.171 -2.5357 -0.8459 -1.4553
  971MOL0     H31070   1.472  10.962   3.393 -0.0847 -0.5466  1.6759
  971MOL0     H31071   1.582  10.865   3.227  0.1441 -0.3400  0.2724
  971MOL0     H31072   1.548  10.734   3.027 -1.8809 -0.1526  0.8507
  971MOL0     H31073   1.539  10.873   2.538 -3.0840 -1.7860 -0.6082
  971MOL0     H31074   1.495  10.851   2.302  1.8837  0.8559 -0.2820
  971MOL0     H31075   1.795  10.591   2.063  0.1893 -0.6923  0.9949
  971MOL0     H31076   1.673  10.471   2.117 -2.4311  1.8686  1.3316
  971MOL0     H31077   1.514  10.527   1.949 -1.2591  0.4088 -4.7874
  971MOL0     H31078   1.663  10.480   1.873 -1.5235  1.7512 -2.2898
  971MOL0     H31079   1.715  10.744   1.850 -1.7340  3.1616 -0.2106
  971MOL0     H31080   1.561  10.772   1.910 -0.7844  1.4134 -0.5028
  971MOL0     H31081   1.549  10.784   1.687  0.5337 -0.5584 -1.3284
  971MOL0     H31082   1.447  10.656   1.746  1.0877 -3.0137 -2.8154
  971MOL0     H31083   1.739  10.495   1.465  1.1654  1.3411 -0.0958
  971MOL0     H31084   1.791  10.528   2.284  0.6431  1.8009 -0.3056
  971MOL0     H31085   1.801  10.539   2.544  1.3146  2.4933  1.4335
  972MOL0     O31086   3.775   5.484   9.046  0.0806 -0.3261 -0.0894
  972MOL0     C31087   3.685   5.562   9.035  0.5306 -0.3819  0.3850
  972MOL0     O31088   3.685   5.666   8.947  0.1103 -0.0839 -0.1229
  972MOL0     C31089   3.798   5.681   8.869  0.4482 -1.0275 -0.1612
  972MOL0     C31090   3.803   5.614   8.746 -0.2007 -0.1541 -0.8869
  972MOL0     C31091   3.918   5.637   8.667  0.8941  0.0718 -0.2135
  972MOL0     C31092   4.031   5.714   8.712 -0.2795  0.1369  0.4088
  972MOL0     O31093   4.144   5.720   8.645  0.4040  1.2458 -0.0422
  972MOL0     C31094   4.181   5.614   8.554  1.0547 -0.5885 -0.0978
  972MOL0     C31095   4.319   5.629   8.492  0.2330  0.0332 -0.3415
  972MOL0     C31096   4.316   5.747   8.384 -0.1474  0.0421  0.1767
  972MOL0     C31097   4.455   5.744   8.320  0.4556  0.9860 -0.0876
  972MOL0     C31098   4.463   5.806   8.185  0.5551 -0.2550  0.2747
  972MOL0     C31099   4.411   5.950   8.193  0.0624 -1.1766 -0.3564
  972MOL0     C31100   4.453   6.033   8.069 -0.2694 -0.0102  0.6802
  972MOL0     C31101   4.433   6.183   8.069 -0.0249  0.4102  0.4684
  972MOL0     N31102   4.520   6.245   8.175 -0.5950  0.6515  1.0976
  972MOL0     C31103   4.652   6.250   8.169  0.0321  0.5896 -0.1146
  972MOL0     C31104   4.694   6.312   8.279 -0.3338 -0.6434 -0.0651
  972MOL0     C31105   4.840   6.343   8.312  0.2541  0.3592 -0.4737
  972MOL0     C31106   4.909   6.223   8.376 -0.0951 -0.2261 -0.3990
  972MOL0     C31107   4.848   6.182   8.511 -0.5014 -0.1808 -0.5574
  972MOL0     C31108   4.899   6.263   8.628 -0.3017 -0.7789 -0.0167
  972MOL0     O31109   5.038   6.249   8.657 -0.1768  0.7097 -0.2591
  972MOL0     C31110   5.095   6.149   8.734  0.4451  0.2013 -0.2457
  972MOL0     C31111   5.228   6.162   8.762 -0.0921 -0.2613 -0.4025
  972MOL0     C31112   5.292   6.075   8.852  0.9000  0.1377  0.9564
  972MOL0     C31113   5.437   6.103   8.869  0.0356  0.2502 -0.1406
  972MOL0     C31114   5.216   5.979   8.930  0.4105  0.0242 -0.0392
  972MOL0     C31115   5.275   5.885   9.016 -0.4831  0.2135  0.0563
  972MOL0     O31116   5.188   5.782   9.051  0.2942 -0.1447  0.4617
  972MOL0     C31117   5.236   5.666   9.108 -0.4777 -0.5509 -0.1834
  972MOL0     C31118   5.256   5.549   9.025 -0.1921 -0.3072 -1.5651
  972MOL0     C31119   5.295   5.433   9.099  0.4341  0.2438 -0.2674
  972MOL0     C31120   5.317   5.429   9.239 -0.4308 -0.3197  0.1141
  972MOL0     O31121   5.358   5.317   9.313 -0.1003 -0.4595 -0.3897
  972MOL0     C31122   5.398   5.201   9.251  0.2893 -0.8501  0.2262
  972MOL0     C31123   5.435   5.095   9.358  0.5491  0.6750 -0.9146
  972MOL0     C31124   5.491   4.967   9.295 -0.0754 -0.7016  0.1548
  972MOL0     C31125   5.391   4.911   9.201  0.1858  0.2743 -0.4042
  972MOL0     C31126   5.428   4.763   9.184  0.3293 -0.3912 -0.6560
  972MOL0     C31127   5.339   4.666   9.264  0.0742  0.0263 -0.2013
  972MOL0     C31128   5.386   4.522   9.250 -0.7166 -0.1197  0.8863
  972MOL0     C31129   5.322   4.422   9.342 -0.6945 -0.5237  0.9923
  972MOL0    Cl31130   5.155   4.445   9.331 -0.1516 -0.1991 -0.1559
  972MOL0     C31131   5.287   5.549   9.316 -0.9661  0.3052  0.9744
  972MOL0     C31132   5.253   5.668   9.244 -0.8357  0.1960 -0.5209
  972MOL0     O31133   5.386   5.903   9.064 -0.1614 -0.7072  0.1317
  972MOL0     C31134   5.076   5.975   8.899 -0.3000 -0.4419  0.0736
  972MOL0     C31135   5.012   6.057   8.810  0.6461 -1.2670  0.5329
  972MOL0     N31136   4.580   6.338   8.354  0.0336  0.3140  0.0781
  972MOL0     N31137   4.474   6.290   8.288 -0.0437 -0.9713 -1.0710
  972MOL0     C31138   4.008   5.798   8.824 -0.4472  0.3406  0.2858
  972MOL0     C31139   3.894   5.778   8.900  0.0360 -0.1706 -0.0596
  972MOL0     C31140   3.567   5.535   9.119 -0.1969  1.1210  0.0048
  972MOL0     C31141   3.518   5.400   9.134  0.0020  0.4257  0.1991
  972MOL0     C31142   3.403   5.371   9.207  0.6505  0.4878  0.6360
  972MOL0     C31143   3.319   5.475   9.260 -0.0798  0.4622 -0.5018
  972MOL0     O31144   3.206   5.468   9.338  0.6328  0.1417 -0.4579
  972MOL0     C31145   3.111   5.374   9.292  0.1118 -0.2015  0.3455
  972MOL0     C31146   3.126   5.229   9.336 -0.0576 -0.2074 -0.1695
  972MOL0     C31147   3.123   5.211   9.490 -0.2608 -0.2996 -0.3194
  972MOL0     C31148   2.998   5.248   9.553  0.3642  0.3758 -0.0668
  972MOL0     C31149   3.014   5.249   9.703  0.0730 -0.3880 -0.0351
  972MOL0     C31150   3.047   5.235   9.816 -0.7216  0.7030 -0.0452
  972MOL0     C31151   3.369   5.602   9.244  0.2205 -0.2118  0.5591
  972MOL0     C31152   3.492   5.633   9.177  0.5074 -0.0836  0.5577
  972MOL0     H31153   3.713   5.557   8.723 -0.2368  1.1600 -4.6885
  972MOL0     H31154   3.919   5.584   8.572 -5.5572  0.2378 -0.8162
  972MOL0     H31155   4.184   5.518   8.606 -2.0460 -0.4810  0.5067
  972MOL0     H31156   4.101   5.608   8.479  0.0059  2.7964  0.5703
  972MOL0     H31157   4.398   5.645   8.566 -1.4325  1.2461  1.2939
  972MOL0     H31158   4.336   5.525   8.464  0.3420 -0.4812  1.4846
  972MOL0     H31159   4.242   5.727   8.306  0.5997 -3.2983  0.1828
  972MOL0     H31160   4.294   5.849   8.416  0.4305  0.3899 -0.5168
  972MOL0     H31161   4.533   5.797   8.375 -1.9520  2.5497  2.0815
  972MOL0     H31162   4.486   5.639   8.308  0.0112  0.4335  2.9369
  972MOL0     H31163   4.570   5.819   8.163 -0.1954  2.2755 -2.6402
  972MOL0     H31164   4.426   5.750   8.098 -2.2455 -0.5101  1.5436
  972MOL0     H31165   4.302   5.952   8.204 -0.3464  2.5902 -2.9741
  972MOL0     H31166   4.450   5.994   8.286  1.2717 -1.3290 -0.7710
  972MOL0     H31167   4.558   6.011   8.044  0.0246  1.6585  0.3456
  972MOL0     H31168   4.409   5.983   7.982 -1.5708  2.1201  0.0451
  972MOL0     H31169   4.330   6.206   8.098 -0.0561  0.8927 -0.0227
  972MOL0     H31170   4.461   6.209   7.967  3.0758 -2.9648  0.2571
  972MOL0     H31171   4.715   6.216   8.089  0.9651  2.8529 -0.4178
  972MOL0     H31172   4.890   6.382   8.223  2.2265  0.2673  0.5635
  972MOL0     H31173   4.838   6.427   8.382  2.8487  0.4216 -0.3925
  972MOL0     H31174   5.015   6.250   8.375 -0.9296  3.7288 -2.4202
  972MOL0     H31175   4.896   6.135   8.313 -0.8559 -1.4487  1.3957
  972MOL0     H31176   4.859   6.077   8.538 -0.0897  0.1201  0.4860
  972MOL0     H31177   4.741   6.200   8.498 -0.8004 -2.6736 -2.1748
  972MOL0     H31178   4.843   6.249   8.721  0.1820  0.3518  0.4725
  972MOL0     H31179   4.879   6.368   8.605 -1.3678 -1.2212 -1.2296
  972MOL0     H31180   5.276   6.238   8.701 -0.5618  0.0516 -0.3943
  972MOL0     H31181   5.479   6.005   8.845 -3.6581 -1.2928 -0.8814
  972MOL0     H31182   5.483   6.188   8.816  1.5724 -0.6235 -0.2785
  972MOL0     H31183   5.452   6.123   8.975 -1.4246 -1.0997  0.3545
  972MOL0     H31184   5.233   5.557   8.920  1.7991  2.4047 -1.9026
  972MOL0     H31185   5.310   5.335   9.055 -2.1494 -0.7744  0.8656
  972MOL0     H31186   5.322   5.165   9.181 -1.5747  1.2469  1.0549
  972MOL0     H31187   5.486   5.215   9.188 -0.1944 -0.4129 -0.3636
  972MOL0     H31188   5.500   5.123   9.441  0.6473  0.1716 -0.8209
  972MOL0     H31189   5.344   5.074   9.415 -0.3408  1.2800 -2.0775
  972MOL0     H31190   5.529   4.897   9.371  3.3446 -1.1775 -1.7948
  972MOL0     H31191   5.578   4.993   9.235 -0.8672 -1.7569 -1.5287
  972MOL0     H31192   5.289   4.911   9.241  0.6395  0.0008  0.8042
  972MOL0     H31193   5.395   4.970   9.109 -1.4380  0.6831 -0.2405
  972MOL0     H31194   5.530   4.734   9.211 -0.4531 -1.7247  1.0661
  972MOL0     H31195   5.420   4.739   9.077 -0.5813 -0.4505 -0.5873
  972MOL0     H31196   5.335   4.682   9.372 -3.1408  2.0230 -0.4987
  972MOL0     H31197   5.236   4.670   9.228 -1.2276 -4.7235  2.2133
  972MOL0     H31198   5.493   4.505   9.264 -1.0191 -3.1968  0.1927
  972MOL0     H31199   5.368   4.493   9.146  0.7885  1.3867  0.1493
  972MOL0     H31200   5.360   4.450   9.440 -1.4073 -1.0907  1.4468
  972MOL0     H31201   5.362   4.323   9.318  1.0816  0.1874  0.8920
  972MOL0     H31202   5.307   5.558   9.423 -0.0152  2.4774  0.6740
  972MOL0     H31203   5.217   5.751   9.304 -2.8336 -0.2639 -1.0163
  972MOL0     H31204   5.011   5.905   8.951 -2.0517  1.6287  0.8444
  972MOL0     H31205   4.904   6.052   8.796  0.0173  1.2061  3.4042
  972MOL0     H31206   4.076   5.874   8.861 -1.5082  2.2567 -1.4273
  972MOL0     H31207   3.880   5.820   8.998  1.1527 -0.7965  0.3878
  972MOL0     H31208   3.585   5.328   9.090  0.3533  0.2336  1.0293
  972MOL0     H31209   3.381   5.267   9.228 -1.3477  0.1280 -2.5490
  972MOL0     H31210   3.018   5.413   9.334  0.1815 -0.1583  0.4622
  972MOL0     H31211   3.102   5.375   9.183  0.1313 -2.0783  0.2874
  972MOL0     H31212   3.216   5.189   9.288  0.4349  1.9655 -1.1869
  972MOL0     H31213   3.051   5.168   9.285  0.8540  2.9715 -6.2342
  972MOL0     H31214   3.206   5.272   9.526 -1.2687  2.4446 -2.3067
  972MOL0     H31215   3.148   5.105   9.502 -0.7839 -0.1816  2.4546
  972MOL0     H31216   2.921   5.177   9.523  2.1695 -0.5615 -2.7725
  972MOL0     H31217   2.966   5.353   9.549  0.4308  0.4128  0.3268
  972MOL0     H31218   3.081   5.227   9.917 -3.1599  1.6920  0.9460
  972MOL0     H31219   3.316   5.687   9.285  2.1272  1.1541  0.3101
  972MOL0     H31220   3.522   5.736   9.164  0.6761 -0.4592 -3.1252
  973MOL0     O31221   3.625  10.496   4.303 -0.7690  0.9678  0.4700
  973MOL0     C31222   3.550  10.571   4.248  0.3850 -0.8176 -0.2058
  973MOL0     O31223   3.542  10.603   4.112  0.4520  0.1663 -0.2805
  973MOL0     C31224   3.610  10.519   4.037 -0.0791 -0.0147  0.9002
  973MOL0     C31225   3.716  10.564   3.957  0.3969  0.3701  0.1208
  973MOL0     C31226   3.779  10.479   3.871 -0.7111  0.4953 -0.1882
  973MOL0     C31227   3.744  10.348   3.866  1.1048 -0.1220 -0.5364
  973MOL0     O31228   3.796  10.248   3.784 -0.1291  0.0645  0.6224
  973MOL0     C31229   3.801  10.271   3.646  0.4809 -0.4091  0.0510
  973MOL0     C31230   3.795  10.143   3.564  0.2142 -0.3412  0.6276
  973MOL0     C31231   3.664  10.121   3.485 -0.4076 -0.4257 -0.4843
  973MOL0     C31232   3.666   9.987   3.415 -0.3510  0.2518 -0.3306
  973MOL0     C31233   3.535   9.958   3.335 -1.1273 -0.5159 -0.1150
  973MOL0     C31234   3.564   9.841   3.234 -0.3959 -0.1085  0.3024
  973MOL0     C31235   3.441   9.833   3.141 -0.2774  0.1437  0.0052
  973MOL0     C31236   3.431   9.956   3.044 -0.3346 -0.0254  0.6896
  973MOL0     N31237   3.396   9.904   2.913 -0.0679 -0.3937  0.9327
  973MOL0     C31238   3.281   9.833   2.875  0.0243 -0.0273 -0.9925
  973MOL0     C31239   3.268   9.845   2.745  0.9614  0.4420 -0.1504
  973MOL0     C31240   3.152   9.797   2.658 -0.0951 -0.0450  0.0243
  973MOL0     C31241   3.167   9.639   2.641 -0.3222  0.7788  0.1190
  973MOL0     C31242   3.038   9.572   2.581 -0.7163 -0.2920 -0.4572
  973MOL0     C31243   3.056   9.423   2.549 -0.3728 -0.3139  0.0300
  973MOL0     O31244   2.933   9.358   2.569  0.3912  0.5054  0.1451
  973MOL0     C31245   2.846   9.334   2.461 -0.0253 -0.1302 -0.8382
  973MOL0     C31246   2.733   9.257   2.484  0.8807 -0.0491 -0.4578
  973MOL0     C31247   2.643   9.219   2.383 -0.3723 -0.1680 -1.3014
  973MOL0     C31248   2.532   9.122   2.424 -0.7083  0.3671 -0.2633
  973MOL0     C31249   2.655   9.281   2.261  0.9112 -0.4133  0.2179
  973MOL0     C31250   2.563   9.268   2.141 -0.2852  0.4516  0.0998
  973MOL0     O31251   2.573   9.340   2.023 -0.5840  0.4956  0.1052
  973MOL0     C31252   2.490   9.349   1.917  0.7427 -0.0714  0.0071
  973MOL0     C31253   2.373   9.273   1.896  0.1304  0.5351 -0.0822
  973MOL0     C31254   2.272   9.312   1.797 -1.2786  0.2912  0.0505
  973MOL0     C31255   2.304   9.419   1.721  0.7865  0.1370  1.0207
  973MOL0     O31256   2.202   9.452   1.626 -0.0788 -0.3669  0.4578
  973MOL0     C31257   2.221   9.516   1.499 -0.3680  0.2078  0.6822
  973MOL0     C31258   2.098   9.471   1.417  0.0455  0.3986  0.1139
  973MOL0     C31259   2.117   9.329   1.344 -0.2734 -0.4835  0.8868
  973MOL0     C31260   2.021   9.296   1.236 -0.0199  0.0710  0.1461
  973MOL0     C31261   2.064   9.154   1.186 -0.0058 -0.3469 -0.1114
  973MOL0     C31262   1.955   9.083   1.121  0.4577 -0.6381  0.0141
  973MOL0     C31263   1.989   8.941   1.106  0.0682 -0.6216 -0.3204
  973MOL0     C31264   1.865   8.868   1.040  0.0056 -0.3689 -0.1446
  973MOL0    Cl31265   1.807   8.952   0.889  0.0403  0.4109 -0.2741
  973MOL0     C31266   2.430   9.485   1.726  0.5043 -0.3026  0.0902
  973MOL0     C31267   2.519   9.455   1.829 -0.2749 -0.8951 -0.0121
  973MOL0     O31268   2.478   9.184   2.158 -0.4387  0.1442  0.3240
  973MOL0     C31269   2.761   9.370   2.239 -0.5530  0.2209 -0.3974
  973MOL0     C31270   2.860   9.396   2.332 -1.3173 -0.5926 -0.1903
  973MOL0     N31271   3.382   9.912   2.692 -0.3384 -0.5939 -1.1314
  973MOL0     N31272   3.462   9.944   2.802  0.7061  0.6540 -0.8246
  973MOL0     C31273   3.635  10.294   3.950  0.0616  0.4239  0.7415
  973MOL0     C31274   3.571  10.383   4.036 -0.5679  1.3292 -0.3071
  973MOL0     C31275   3.460  10.652   4.342 -0.6223 -0.3783  0.3900
  973MOL0     C31276   3.466  10.634   4.481 -0.3383 -0.4547 -1.1426
  973MOL0     C31277   3.410  10.729   4.561 -0.4435  0.3381 -0.0431
  973MOL0     C31278   3.341  10.835   4.511  0.0014  0.1122 -0.0771
  973MOL0     O31279   3.279  10.933   4.595 -1.5275 -0.1304  0.4963
  973MOL0     C31280   3.307  10.935   4.737 -0.0475 -0.0401 -0.2815
  973MOL0     C31281   3.228  11.044   4.803  0.2454 -0.5257  0.3671
  973MOL0     C31282   3.261  11.180   4.758 -1.9058 -0.0268 -0.1064
  973MOL0     C31283   3.164  11.275   4.841 -0.6044 -0.3468 -0.3721
  973MOL0     C31284   3.205  11.292   4.980  0.0621  0.4393  0.3666
  973MOL0     C31285   3.228  11.292   5.100  0.0597  0.2247 -0.0840
  973MOL0     C31286   3.308  10.838   4.380  0.5313  0.4416  0.2444
  973MOL0     C31287   3.374  10.750   4.295  0.9619 -0.9087 -0.4770
  973MOL0     H31288   3.752  10.663   3.981 -2.5238  1.6181 -0.1364
  973MOL0     H31289   3.866  10.507   3.812 -1.3144 -0.1309 -1.4081
  973MOL0     H31290   3.723  10.339   3.610 -1.0769 -1.6941  0.8727
  973MOL0     H31291   3.897  10.323   3.636 -0.7445  2.3103  1.4405
  973MOL0     H31292   3.876  10.152   3.491  0.5106 -1.1062  0.8562
  973MOL0     H31293   3.820  10.060   3.631  0.3264 -0.8234  0.0043
  973MOL0     H31294   3.577  10.129   3.551 -0.1627  0.7281 -0.2792
  973MOL0     H31295   3.650  10.196   3.406 -0.1253 -0.3531 -0.4684
  973MOL0     H31296   3.756   9.971   3.356  0.7248 -0.3994  1.3922
  973MOL0     H31297   3.674   9.917   3.499  4.6696  0.4600 -0.3718
  973MOL0     H31298   3.458   9.915   3.399 -1.1550 -0.9185 -0.4173
  973MOL0     H31299   3.508  10.049   3.281  0.0781 -0.6062 -0.9274
  973MOL0     H31300   3.657   9.866   3.182 -0.5409 -2.6095 -1.3008
  973MOL0     H31301   3.567   9.752   3.297  0.6594  0.0849  0.5603
  973MOL0     H31302   3.451   9.739   3.086  0.7553  0.0705  0.3173
  973MOL0     H31303   3.358   9.824   3.212 -0.5354  0.3330 -0.2655
  973MOL0     H31304   3.519  10.020   3.028 -2.3169  2.6325 -0.3457
  973MOL0     H31305   3.352  10.020   3.085  0.2910  0.8093  0.6164
  973MOL0     H31306   3.219   9.775   2.942 -0.1200  1.1592 -0.0646
  973MOL0     H31307   3.055   9.815   2.706  0.8001  1.2030  1.4784
  973MOL0     H31308   3.164   9.851   2.564 -0.1002  3.1175  1.7043
  973MOL0     H31309   3.190   9.592   2.737 -0.0754  2.7771  1.1020
  973MOL0     H31310   3.259   9.618   2.587  1.6938  1.2821  3.1172
  973MOL0     H31311   3.013   9.625   2.488 -2.0523  1.2080  0.6976
  973MOL0     H31312   2.955   9.582   2.651 -0.8492 -4.8194  0.3072
  973MOL0     H31313   3.118   9.378   2.627 -0.9692  0.2431  0.8372
  973MOL0     H31314   3.088   9.390   2.450 -1.2001 -2.9646  0.5635
  973MOL0     H31315   2.741   9.225   2.587  0.7091  0.1303 -0.3881
  973MOL0     H31316   2.556   9.029   2.373  2.6787  0.7248  0.4783
  973MOL0     H31317   2.516   9.096   2.529 -0.6920  1.7852  0.1230
  973MOL0     H31318   2.434   9.158   2.389 -2.0796  1.9875  4.4405
  973MOL0     H31319   2.350   9.189   1.960  1.4152  1.1970  1.3123
  973MOL0     H31320   2.178   9.258   1.790 -0.7244 -0.6022 -0.9394
  973MOL0     H31321   2.216   9.625   1.503  1.5756  0.2795  2.8109
  973MOL0     H31322   2.314   9.491   1.447 -0.0548 -0.9240  1.7445
  973MOL0     H31323   2.007   9.451   1.474  0.7977 -2.3931  0.5230
  973MOL0     H31324   2.077   9.541   1.336 -2.7544 -2.2125 -1.6530
  973MOL0     H31325   2.116   9.250   1.420 -0.4433 -1.0473  0.3111
  973MOL0     H31326   2.216   9.338   1.297 -1.2526  0.3637 -1.1714
  973MOL0     H31327   1.922   9.292   1.281 -0.2082  0.8809 -0.1805
  973MOL0     H31328   2.021   9.372   1.157  1.7092 -0.6402 -0.6000
  973MOL0     H31329   2.082   9.093   1.275  0.3628 -3.2374 -2.0716
  973MOL0     H31330   2.145   9.163   1.114 -0.1588 -1.0417 -0.3791
  973MOL0     H31331   1.867   9.088   1.186  0.6452  0.5147  0.1977
  973MOL0     H31332   1.948   9.133   1.024 -1.0529 -0.7229  0.0457
  973MOL0     H31333   2.018   8.895   1.201 -0.2324 -0.4437 -0.1411
  973MOL0     H31334   2.074   8.926   1.039 -0.2669 -0.7843 -0.7206
  973MOL0     H31335   1.784   8.869   1.114  0.5040 -1.7857  0.4674
  973MOL0     H31336   1.885   8.766   1.007 -1.1366 -1.0845  1.2610
  973MOL0     H31337   2.439   9.575   1.667 -3.5427 -0.0921 -0.4588
  973MOL0     H31338   2.609   9.512   1.846 -0.3277 -1.3657  2.1262
  973MOL0     H31339   2.763   9.423   2.144 -1.5787 -1.5249 -1.4651
  973MOL0     H31340   2.950   9.455   2.318 -1.6000  0.2769  1.3797
  973MOL0     H31341   3.609  10.189   3.943  0.2979  0.3965  0.2530
  973MOL0     H31342   3.494  10.347   4.103 -0.9673  0.5912 -1.1385
  973MOL0     H31343   3.511  10.540   4.513  1.9889 -0.5708 -4.2012
  973MOL0     H31344   3.416  10.704   4.667 -0.8701 -0.5430 -0.2178
  973MOL0     H31345   3.257  10.844   4.773 -3.3422  2.0618  0.9332
  973MOL0     H31346   3.416  10.932   4.746 -0.0914 -1.4903  0.0197
  973MOL0     H31347   3.241  11.032   4.911 -2.0896  0.0088  0.7744
  973MOL0     H31348   3.122  11.022   4.783 -0.1042  1.8137 -0.7716
  973MOL0     H31349   3.239  11.191   4.651  0.9228  0.2695 -0.7482
  973MOL0     H31350   3.363  11.212   4.780 -1.5565  1.7797 -3.6609
  973MOL0     H31351   3.062  11.238   4.839  0.4168 -3.8770  2.7769
  973MOL0     H31352   3.165  11.375   4.795  1.9027  0.5715  1.4427
  973MOL0     H31353   3.264  11.290   5.200  1.3206 -1.1417 -0.5270
  973MOL0     H31354   3.232  10.910   4.351 -0.5210 -0.4346  0.7313
  973MOL0     H31355   3.348  10.747   4.189 -0.4345 -2.5499 -0.1383
  974MOL0     O31356  10.043   0.854   0.400  0.0359  0.1192 -0.2404
  974MOL0     C31357   9.997   0.875   0.511  0.7361  0.1866  0.4164
  974MOL0     O31358   9.906   0.971   0.533  0.3521  0.4997 -0.5431
  974MOL0     C31359   9.839   1.036   0.432 -0.3848  0.9628  0.1779
  974MOL0     C31360   9.774   0.966   0.330  0.5459  0.8392  0.3550
  974MOL0     C31361   9.680   1.025   0.235  0.0689  0.1168  0.1112
  974MOL0     C31362   9.666   1.159   0.239  0.2796  0.0235 -0.0656
  974MOL0     O31363   9.581   1.208   0.143  0.3456 -0.6238 -0.9642
  974MOL0     C31364   9.577   1.354   0.108 -0.3854  0.6573 -0.3782
  974MOL0     C31365   9.515   1.367  -0.027  0.5394  0.1301 -0.2396
  974MOL0     C31366   9.362   1.311  -0.040  0.3873  0.4285 -1.2250
  974MOL0     C31367   9.267   1.381   0.059 -0.4983 -0.5920 -0.3303
  974MOL0     C31368   9.116   1.348   0.032 -0.4770 -0.3524 -1.2915
  974MOL0     C31369   9.024   1.429   0.125 -0.1792  0.0539  0.2237
  974MOL0     C31370   8.881   1.378   0.132 -0.1639 -0.2611 -0.7087
  974MOL0     C31371   8.845   1.225   0.145  0.6727 -0.2665  0.7870
  974MOL0     N31372   8.850   1.189   0.286  0.2055  0.0815 -0.0861
  974MOL0     C31373   8.959   1.142   0.347 -0.0268  0.7401  0.7662
  974MOL0     C31374   8.924   1.114   0.479  1.6519  0.9546  0.7479
  974MOL0     C31375   9.024   1.062   0.571  0.5999  0.4393 -0.0871
  974MOL0     C31376   9.017   0.910   0.585  0.4641 -0.6688 -0.0119
  974MOL0     C31377   8.932   0.871   0.715 -0.2439 -0.0265  0.5599
  974MOL0     C31378   8.902   0.725   0.734  0.3950  0.3258  0.0942
  974MOL0     O31379   9.026   0.676   0.769  0.0625 -0.5889 -1.0647
  974MOL0     C31380   9.052   0.544   0.735 -0.3821 -0.4874 -0.7876
  974MOL0     C31381   9.085   0.504   0.602 -0.3080 -0.3271 -0.1773
  974MOL0     C31382   9.133   0.369   0.576  0.4419 -0.6136 -0.7301
  974MOL0     C31383   9.156   0.333   0.433  0.2340 -0.1394 -0.2700
  974MOL0     C31384   9.134   0.272   0.680 -0.4427 -0.0075  0.6634
  974MOL0     C31385   9.159   0.124   0.657 -0.3775  0.3592  0.4063
  974MOL0     O31386   9.182   0.057   0.777  0.6946 -0.3572 -0.1778
  974MOL0     C31387   9.226  -0.068   0.759  0.5063  0.6906 -0.2785
  974MOL0     C31388   9.364  -0.091   0.757  0.6137  0.4130  0.0802
  974MOL0     C31389   9.413  -0.221   0.737  0.5804  0.8937  0.7796
  974MOL0     C31390   9.325  -0.320   0.727 -0.4719  1.0492  0.4057
  974MOL0     O31391   9.370  -0.440   0.703  0.2990  0.0882 -0.2314
  974MOL0     C31392   9.429  -0.471   0.572  0.6676 -0.0513 -0.7255
  974MOL0     C31393   9.327  -0.528   0.475 -0.1322 -0.0077  0.9861
  974MOL0     C31394   9.242  -0.655   0.518 -0.3057 -0.1770 -0.2930
  974MOL0     C31395   9.320  -0.791   0.503  0.7413 -0.0079  0.1840
  974MOL0     C31396   9.258  -0.906   0.589  0.1599  0.0819 -0.4082
  974MOL0     C31397   9.326  -1.040   0.552 -0.4809 -0.0700  0.5297
  974MOL0     C31398   9.246  -1.157   0.609 -0.2637 -0.7658  0.3923
  974MOL0     C31399   9.329  -1.277   0.609 -0.0669  0.9905  0.5844
  974MOL0    Cl31400   9.252  -1.396   0.715  0.1778  0.1485 -0.2890
  974MOL0     C31401   9.195  -0.310   0.744 -1.1799 -0.3243  0.2800
  974MOL0     C31402   9.144  -0.182   0.760 -0.0439  0.1688  0.0792
  974MOL0     O31403   9.157   0.073   0.543  0.2768 -0.4535 -0.5250
  974MOL0     C31404   9.082   0.309   0.807 -0.6365 -0.2459 -0.6027
  974MOL0     C31405   9.049   0.442   0.834  0.0170  0.3199 -0.6074
  974MOL0     N31406   8.789   1.139   0.486 -0.0346 -0.2959  0.1761
  974MOL0     N31407   8.742   1.193   0.373  0.4115  0.3516  0.0279
  974MOL0     C31408   9.726   1.236   0.344 -0.7807 -0.5206 -0.1191
  974MOL0     C31409   9.814   1.172   0.430 -0.5191  0.2622 -0.1288
  974MOL0     C31410  10.056   0.812   0.633 -0.3049 -0.1108 -0.5636
  974MOL0     C31411  10.163   0.720   0.623 -0.1668 -1.1260 -0.4036
  974MOL0     C31412  10.232   0.687   0.740 -0.6184  0.8000  0.6768
  974MOL0     C31413  10.187   0.724   0.865 -0.5415 -0.2213  0.3073
  974MOL0     O31414  10.257   0.708   0.978  0.3161 -0.0675  0.2133
  974MOL0     C31415  10.333   0.595   1.007  0.5648 -1.0829  0.8773
  974MOL0     C31416  10.275   0.508   1.115  0.6791 -0.0808 -0.7550
  974MOL0     C31417  10.164   0.424   1.062 -0.3348  0.9202 -0.4739
  974MOL0     C31418  10.205   0.295   0.991  0.2906 -0.4285  0.0635
  974MOL0     C31419  10.090   0.221   0.939 -0.2786 -0.7451  0.2428
  974MOL0     C31420  10.005   0.145   0.903  0.0682 -0.4622 -0.5566
  974MOL0     C31421  10.071   0.801   0.877  0.4820 -0.6119  0.2524
  974MOL0     C31422  10.002   0.845   0.760 -0.4291 -0.2021 -0.3730
  974MOL0     H31423   9.782   0.858   0.325  4.4404  0.8133  2.8271
  974MOL0     H31424   9.629   0.961   0.164 -1.1374  1.2667 -0.1101
  974MOL0     H31425   9.525   1.408   0.188  0.7957 -2.8934  3.1576
  974MOL0     H31426   9.680   1.388   0.095 -0.5282  0.9830 -0.6775
  974MOL0     H31427   9.501   1.473  -0.050  2.1579  0.2877 -0.6208
  974MOL0     H31428   9.583   1.328  -0.104 -0.2680 -0.7675 -0.5110
  974MOL0     H31429   9.322   1.331  -0.139 -0.7005  2.8434 -0.3969
  974MOL0     H31430   9.352   1.203  -0.028 -0.7676  0.5569 -0.9096
  974MOL0     H31431   9.303   1.352   0.158 -0.3132  3.2833  0.8952
  974MOL0     H31432   9.273   1.489   0.045 -0.8905 -0.8218 -2.8458
  974MOL0     H31433   9.087   1.370  -0.071 -1.1259  1.1024 -0.8218
  974MOL0     H31434   9.094   1.241   0.036  0.0717 -0.4384 -0.4059
  974MOL0     H31435   9.059   1.424   0.229 -0.0654 -2.7478  0.1211
  974MOL0     H31436   9.024   1.536   0.103 -2.2920 -0.5801 -3.7356
  974MOL0     H31437   8.817   1.428   0.206 -2.7838 -5.6085  1.1865
  974MOL0     H31438   8.837   1.397   0.033 -1.6948 -1.9100 -0.4021
  974MOL0     H31439   8.916   1.174   0.080  0.8104 -0.1059  0.8098
  974MOL0     H31440   8.745   1.205   0.105  0.8051  0.4241  0.0934
  974MOL0     H31441   9.059   1.137   0.304  0.5898  1.8453  2.0211
  974MOL0     H31442   9.127   1.085   0.541  1.2341 -0.3148  1.4128
  974MOL0     H31443   9.001   1.098   0.671 -1.4643  3.2704 -1.4419
  974MOL0     H31444   9.119   0.871   0.587  0.5733 -0.4026 -0.4004
  974MOL0     H31445   8.970   0.863   0.498 -0.1838 -2.1192  1.0643
  974MOL0     H31446   8.837   0.923   0.700 -1.4832 -2.7257 -1.9212
  974MOL0     H31447   8.968   0.901   0.814  2.7012 -3.7825  0.8683
  974MOL0     H31448   8.860   0.678   0.645  0.4404 -0.7590  0.6201
  974MOL0     H31449   8.836   0.690   0.814  1.3175  0.6185  1.0185
  974MOL0     H31450   9.095   0.582   0.527  4.5285  0.3063  0.7791
  974MOL0     H31451   9.154   0.419   0.366 -2.8633 -1.7968 -2.5560
  974MOL0     H31452   9.252   0.280   0.431 -0.8322 -2.1523  0.0172
  974MOL0     H31453   9.078   0.263   0.403  2.1192 -2.0953 -0.9120
  974MOL0     H31454   9.442  -0.016   0.765  0.0451  0.9798  0.3209
  974MOL0     H31455   9.519  -0.237   0.728  0.2408 -2.1234  1.1432
  974MOL0     H31456   9.474  -0.383   0.525  2.6632 -0.5680  0.1149
  974MOL0     H31457   9.502  -0.549   0.595  1.7354  1.6914  2.4017
  974MOL0     H31458   9.263  -0.442   0.452  2.5848  2.0444  0.5730
  974MOL0     H31459   9.376  -0.564   0.384  0.1805  3.0398 -0.1894
  974MOL0     H31460   9.151  -0.649   0.457 -0.8527  0.9273  0.5822
  974MOL0     H31461   9.207  -0.651   0.621 -0.0321 -2.4892 -0.0470
  974MOL0     H31462   9.327  -0.819   0.398 -4.7761 -1.7801 -0.0192
  974MOL0     H31463   9.425  -0.767   0.524  1.6219 -0.3252 -3.2211
  974MOL0     H31464   9.149  -0.912   0.578  0.0915  0.3434  0.0888
  974MOL0     H31465   9.275  -0.877   0.693 -0.6743  2.2242 -0.8072
  974MOL0     H31466   9.327  -1.057   0.443  1.5230  0.3937  0.4448
  974MOL0     H31467   9.433  -1.037   0.573  0.0607 -0.6232 -1.7796
  974MOL0     H31468   9.157  -1.169   0.547 -1.1221  1.5224  1.0754
  974MOL0     H31469   9.204  -1.140   0.709 -2.5810 -0.9425 -0.5019
  974MOL0     H31470   9.426  -1.255   0.655 -0.2533  0.6765  1.1339
  974MOL0     H31471   9.351  -1.313   0.508 -1.1659  2.3950 -0.1852
  974MOL0     H31472   9.138  -0.402   0.747 -0.1137 -1.0751 -1.6095
  974MOL0     H31473   9.036  -0.189   0.761 -0.0627  0.4601  0.1890
  974MOL0     H31474   9.100   0.245   0.892 -0.6503  1.1674  0.5102
  974MOL0     H31475   9.034   0.465   0.940 -1.0770 -0.8223 -0.4853
  974MOL0     H31476   9.705   1.342   0.356 -2.7475 -1.0826  2.1667
  974MOL0     H31477   9.869   1.237   0.498 -2.2012  0.6928  0.8823
  974MOL0     H31478  10.197   0.689   0.525 -1.5427 -0.0107 -1.2813
  974MOL0     H31479  10.330   0.640   0.734 -0.2191  1.6442  0.3900
  974MOL0     H31480  10.358   0.532   0.921  0.7345 -1.5560  1.2678
  974MOL0     H31481  10.427   0.628   1.053 -0.2867  0.8175  1.3401
  974MOL0     H31482  10.235   0.579   1.188  1.8928  3.2419 -3.0795
  974MOL0     H31483  10.345   0.435   1.156 -0.2913  0.3000  1.7127
  974MOL0     H31484  10.096   0.495   1.013  0.8077  3.3597  1.2594
  974MOL0     H31485  10.119   0.386   1.155  0.6447 -1.1337 -0.7806
  974MOL0     H31486  10.263   0.231   1.058  0.5193  0.9183  1.2073
  974MOL0     H31487  10.276   0.301   0.908 -0.4739 -1.3098 -0.6697
  974MOL0     H31488   9.926   0.081   0.867 -1.6105  0.4886  1.2281
  974MOL0     H31489  10.032   0.843   0.969 -2.2036  2.1021 -1.9014
  974MOL0     H31490   9.913   0.905   0.774  0.0479  0.7994 -1.5120
  975MOL0     O31491   7.971   1.390  10.214 -0.1969  0.5975  0.5681
  975MOL0     C31492   8.085   1.402  10.260 -0.1774 -0.2797  0.6602
  975MOL0     O31493   8.197   1.360  10.201  0.0575  0.3394 -0.3677
  975MOL0     C31494   8.177   1.287  10.090 -0.8693  0.6507 -1.0167
  975MOL0     C31495   8.208   1.340   9.968 -1.1151  0.4642  0.2061
  975MOL0     C31496   8.179   1.264   9.852 -0.4086  0.2106 -0.3171
  975MOL0     C31497   8.119   1.134   9.863 -0.8424 -0.6652  0.2433
  975MOL0     O31498   8.089   1.050   9.757  0.5344 -0.7640  0.7078
  975MOL0     C31499   8.056   1.115   9.637  0.1933  0.4468  1.1892
  975MOL0     C31500   8.006   1.013   9.538  0.2709 -0.3296 -0.6095
  975MOL0     C31501   7.866   0.959   9.557 -0.4281 -0.2599 -0.0169
  975MOL0     C31502   7.822   0.856   9.465 -0.0247  0.1062  0.5600
  975MOL0     C31503   7.676   0.815   9.498  0.7136 -0.0448 -0.1479
  975MOL0     C31504   7.649   0.688   9.438  0.4106 -0.0645  0.5542
  975MOL0     C31505   7.507   0.661   9.395 -0.3324  0.1294 -0.3689
  975MOL0     C31506   7.411   0.667   9.507 -0.2920  0.1218 -0.1506
  975MOL0     N31507   7.286   0.592   9.479 -0.2308 -0.7254 -0.1436
  975MOL0     C31508   7.188   0.625   9.389 -0.2409 -0.5726 -1.1492
  975MOL0     C31509   7.131   0.515   9.346 -1.0577 -0.1946 -0.0448
  975MOL0     C31510   7.016   0.510   9.250 -0.2612 -0.2422 -0.0802
  975MOL0     C31511   6.964   0.371   9.221 -0.1395  0.3333 -0.6487
  975MOL0     C31512   6.817   0.378   9.164 -0.7045 -0.2394 -0.5171
  975MOL0     C31513   6.786   0.482   9.042 -0.4500 -0.2139  0.0116
  975MOL0     O31514   6.831   0.436   8.914 -0.3765 -0.1585 -0.5206
  975MOL0     C31515   6.768   0.341   8.841  0.1472 -0.9569 -0.3217
  975MOL0     C31516   6.807   0.311   8.714 -0.0908 -2.0059  0.0626
  975MOL0     C31517   6.752   0.204   8.641  0.3463 -0.1453  0.0875
  975MOL0     C31518   6.816   0.175   8.502 -0.0950  0.1335  0.6804
  975MOL0     C31519   6.654   0.122   8.706  0.4582 -0.1638  0.5019
  975MOL0     C31520   6.575   0.011   8.640  1.4555 -0.6003  0.3303
  975MOL0     O31521   6.529  -0.077   8.728  0.0192  0.3537 -0.5059
  975MOL0     C31522   6.511  -0.205   8.680 -0.4641 -0.2407  0.1673
  975MOL0     C31523   6.597  -0.259   8.591 -0.6514 -0.7138 -0.6744
  975MOL0     C31524   6.589  -0.387   8.532 -0.1478  0.5112  0.1439
  975MOL0     C31525   6.489  -0.476   8.583  0.1976 -0.0051  0.2214
  975MOL0     O31526   6.488  -0.598   8.526 -0.4815 -0.1340  0.1416
  975MOL0     C31527   6.388  -0.688   8.557  0.3858 -0.2766 -0.1892
  975MOL0     C31528   6.416  -0.775   8.676  0.9458 -0.7219 -0.1657
  975MOL0     C31529   6.292  -0.860   8.713 -0.0976 -0.7638  0.0239
  975MOL0     C31530   6.337  -0.945   8.830  0.4049 -0.0527 -0.1108
  975MOL0     C31531   6.202  -1.000   8.893  0.5479 -0.0825  0.2385
  975MOL0     C31532   6.212  -0.985   9.046 -0.5081  0.8218 -0.7547
  975MOL0     C31533   6.069  -1.019   9.110 -0.2969  0.5701  0.1384
  975MOL0     C31534   6.071  -1.019   9.266  0.3987  0.4533 -0.1758
  975MOL0    Cl31535   6.096  -0.845   9.307  0.5338 -0.5751  0.4387
  975MOL0     C31536   6.399  -0.423   8.675  0.4879 -0.4463  1.2595
  975MOL0     C31537   6.410  -0.285   8.728  1.0164 -0.2426 -0.6573
  975MOL0     O31538   6.553   0.008   8.515 -0.4334  0.0900 -0.1994
  975MOL0     C31539   6.622   0.157   8.829  0.3974 -1.1612 -0.7944
  975MOL0     C31540   6.668   0.264   8.898 -0.3723  1.0588 -0.0362
  975MOL0     N31541   7.194   0.409   9.409 -0.3474 -0.1410  0.6255
  975MOL0     N31542   7.286   0.455   9.490 -1.4257  0.1230  0.2448
  975MOL0     C31543   8.112   1.075   9.986 -0.3419 -0.2121  0.0354
  975MOL0     C31544   8.138   1.151  10.107 -0.6688  0.8869 -0.8236
  975MOL0     C31545   8.086   1.466  10.392  0.9784  0.3873 -0.0487
  975MOL0     C31546   7.989   1.564  10.414 -0.1182 -0.7130  0.1770
  975MOL0     C31547   7.986   1.625  10.538 -0.3573 -0.6244  0.1416
  975MOL0     C31548   8.082   1.599  10.635  0.4940 -0.3717 -0.6642
  975MOL0     O31549   8.077   1.655  10.757  0.4603 -0.2964 -0.3186
  975MOL0     C31550   8.066   1.796  10.778 -0.0979  0.2508  0.6761
  975MOL0     C31551   8.181   1.832  10.859 -0.1448  0.0816 -0.5457
  975MOL0     C31552   8.156   1.781  11.003  0.6117  0.1053 -0.2772
  975MOL0     C31553   8.233   1.849  11.118  0.1321 -0.9256 -0.0443
  975MOL0     C31554   8.379   1.826  11.117  0.4548 -0.5553 -1.1240
  975MOL0     C31555   8.500   1.834  11.121  0.0109 -0.2975  0.8271
  975MOL0     C31556   8.187   1.509  10.606  0.7351  0.1786  0.1038
  975MOL0     C31557   8.192   1.445  10.482  0.7356  0.7799  0.0984
  975MOL0     H31558   8.251   1.439   9.960  0.6124 -0.3491 -1.3075
  975MOL0     H31559   8.198   1.308   9.755 -0.4303  1.2712  0.1440
  975MOL0     H31560   7.968   1.179   9.645 -0.1269  0.9837 -3.4255
  975MOL0     H31561   8.142   1.162   9.587 -1.4541 -0.4595 -2.9579
  975MOL0     H31562   8.016   1.036   9.431 -2.3747 -5.0659 -2.1482
  975MOL0     H31563   8.069   0.925   9.548  0.8808  0.3185  1.9740
  975MOL0     H31564   7.858   0.934   9.663 -0.5335  2.7166  0.7817
  975MOL0     H31565   7.800   1.047   9.553  1.1455  1.0425  1.1469
  975MOL0     H31566   7.822   0.891   9.362  1.2489 -1.3919  0.0275
  975MOL0     H31567   7.890   0.776   9.494 -0.6469  0.0032  1.8268
  975MOL0     H31568   7.649   0.827   9.603 -0.8731 -2.2131 -0.2402
  975MOL0     H31569   7.619   0.894   9.449  1.8939  0.6856 -0.3746
  975MOL0     H31570   7.708   0.673   9.347  0.2816  1.2827  0.2197
  975MOL0     H31571   7.678   0.605   9.502  0.2270 -1.7158 -1.3909
  975MOL0     H31572   7.477   0.720   9.307  0.7053  0.2780 -0.6393
  975MOL0     H31573   7.508   0.556   9.364 -1.6307 -0.1091  0.3386
  975MOL0     H31574   7.404   0.773   9.534 -1.1154  0.5261 -1.7886
  975MOL0     H31575   7.454   0.615   9.593  0.7103 -3.4384 -2.5918
  975MOL0     H31576   7.150   0.723   9.364  0.7995  0.6816  1.7854
  975MOL0     H31577   6.937   0.570   9.294 -2.2557 -2.5730 -0.2637
  975MOL0     H31578   7.045   0.564   9.160 -0.6585 -0.8435 -0.5747
  975MOL0     H31579   6.952   0.299   9.302 -0.4931 -1.2485 -2.0588
  975MOL0     H31580   7.023   0.320   9.144  1.2540  0.5852  0.2067
  975MOL0     H31581   6.755   0.416   9.246 -0.6611  1.1175 -1.0953
  975MOL0     H31582   6.781   0.276   9.147  0.5891 -0.7403 -0.3273
  975MOL0     H31583   6.838   0.574   9.069 -0.1274 -0.2993 -0.3032
  975MOL0     H31584   6.679   0.497   9.031 -0.5740 -1.1513 -0.1145
  975MOL0     H31585   6.892   0.367   8.675 -1.4645  0.2156  0.0276
  975MOL0     H31586   6.797   0.072   8.471  1.7017  0.5747 -2.2332
  975MOL0     H31587   6.764   0.239   8.430  0.2687  0.8027  1.0012
  975MOL0     H31588   6.924   0.189   8.507 -0.3003  1.6014  1.6838
  975MOL0     H31589   6.683  -0.199   8.564 -2.6864  2.3051 -0.9840
  975MOL0     H31590   6.664  -0.426   8.463  0.3272 -1.1870  1.5402
  975MOL0     H31591   6.291  -0.638   8.565  0.8045  0.7134 -1.0582
  975MOL0     H31592   6.375  -0.751   8.468  2.2272  0.6110 -1.1313
  975MOL0     H31593   6.497  -0.833   8.631 -0.9067 -2.9796 -0.8068
  975MOL0     H31594   6.452  -0.717   8.761 -0.1752 -1.8534  1.1217
  975MOL0     H31595   6.258  -0.924   8.631  0.4744 -0.5627 -0.3733
  975MOL0     H31596   6.212  -0.797   8.752 -1.1220 -2.1626  0.2899
  975MOL0     H31597   6.401  -1.023   8.787  2.7682  1.8529 -0.2627
  975MOL0     H31598   6.399  -0.886   8.898  0.9698 -1.4558  0.6386
  975MOL0     H31599   6.202  -1.103   8.855  1.2968  1.6105 -5.1865
  975MOL0     H31600   6.110  -0.955   8.853 -1.6533 -1.0522  3.7153
  975MOL0     H31601   6.285  -1.059   9.080 -1.2031  0.0126 -1.0006
  975MOL0     H31602   6.235  -0.882   9.077 -1.3297  2.3865 -4.7692
  975MOL0     H31603   6.030  -1.113   9.070  1.0129  0.2177 -0.3420
  975MOL0     H31604   6.006  -0.935   9.077 -3.6863 -1.7671  0.1462
  975MOL0     H31605   6.153  -1.081   9.304 -2.9534 -4.5649 -0.1618
  975MOL0     H31606   5.972  -1.046   9.303  0.5259 -2.4013 -1.6533
  975MOL0     H31607   6.308  -0.478   8.701 -0.4937  1.2359  1.5449
  975MOL0     H31608   6.363  -0.244   8.816 -0.4451 -0.9555 -1.0770
  975MOL0     H31609   6.538   0.111   8.880  0.4698 -2.2138 -1.6051
  975MOL0     H31610   6.627   0.273   8.998  1.4512 -0.9016  0.9708
  975MOL0     H31611   8.096   0.968   9.984  0.6934 -0.3762 -0.0972
  975MOL0     H31612   8.116   1.129  10.211 -0.0687  2.4854 -0.3334
  975MOL0     H31613   7.913   1.589  10.341  0.3278 -0.1636 -0.1097
  975MOL0     H31614   7.906   1.697  10.554  0.5761  1.0071 -2.0315
  975MOL0     H31615   8.071   1.845  10.680  1.5215 -0.0685  0.5776
  975MOL0     H31616   7.977   1.809  10.840 -0.5950 -2.9499  0.7935
  975MOL0     H31617   8.194   1.940  10.874 -1.8025  0.0107  2.0759
  975MOL0     H31618   8.271   1.780  10.827 -1.9563 -2.0894 -2.4327
  975MOL0     H31619   8.181   1.674  11.008  1.0517  0.0829 -2.0868
  975MOL0     H31620   8.049   1.790  11.022  0.5749  1.8656 -1.1339
  975MOL0     H31621   8.197   1.810  11.213  0.4853  0.6974  0.7845
  975MOL0     H31622   8.217   1.957  11.120  1.2061 -0.7661  1.0195
  975MOL0     H31623   8.606   1.850  11.114  0.2173 -2.0817 -1.5296
  975MOL0     H31624   8.264   1.494  10.681 -0.4249  0.4062  1.4019
  975MOL0     H31625   8.273   1.376  10.458  1.8103  2.1058 -0.1817
  976MOL0     O31626   3.544   6.319   2.836 -0.2941  0.7883  0.2931
  976MOL0     C31627   3.428   6.355   2.829 -0.5052  0.2425  0.5887
  976MOL0     O31628   3.321   6.279   2.821  0.2826  0.2619 -0.3793
  976MOL0     C31629   3.326   6.141   2.829  0.8943 -0.3176  0.4710
  976MOL0     C31630   3.199   6.091   2.818  0.4008  0.2468 -0.1964
  976MOL0     C31631   3.177   5.952   2.828  0.6945  0.4932  0.3849
  976MOL0     C31632   3.284   5.869   2.840  0.0233 -0.4303  1.0533
  976MOL0     O31633   3.271   5.734   2.847  0.3939  0.3433 -0.2153
  976MOL0     C31634   3.134   5.678   2.827  0.0889  0.4726 -0.4649
  976MOL0     C31635   3.131   5.527   2.860  0.3778 -0.0860  0.1370
  976MOL0     C31636   3.220   5.439   2.765 -0.7319 -0.1605  0.3984
  976MOL0     C31637   3.146   5.392   2.637  0.1589 -0.2433  0.3201
  976MOL0     C31638   3.217   5.430   2.509  0.0030 -0.1154 -0.0342
  976MOL0     C31639   3.236   5.579   2.490  0.5798  0.1260 -0.1028
  976MOL0     C31640   3.315   5.603   2.353  0.8941  0.1853  0.4649
  976MOL0     C31641   3.462   5.623   2.394  0.8723 -1.2976 -0.6032
  976MOL0     N31642   3.552   5.606   2.273 -0.0342 -0.3001 -0.4214
  976MOL0     C31643   3.633   5.506   2.249 -0.9573  0.4856 -0.3436
  976MOL0     C31644   3.726   5.546   2.159  0.2383 -0.3730 -0.5584
  976MOL0     C31645   3.860   5.482   2.134 -0.2476 -0.5118 -0.3145
  976MOL0     C31646   3.865   5.326   2.149 -0.6837  0.1384 -1.1524
  976MOL0     C31647   3.967   5.265   2.061 -0.2062  0.1163 -0.6134
  976MOL0     C31648   3.965   5.112   2.050  0.7116  0.0615 -0.7893
  976MOL0     O31649   4.008   5.054   2.177  0.2798  0.5178  1.3036
  976MOL0     C31650   3.991   4.916   2.188 -0.0714 -0.2791  0.2705
  976MOL0     C31651   4.077   4.845   2.271  0.5748 -1.3495  0.6699
  976MOL0     C31652   4.072   4.706   2.288 -0.6109 -0.4407 -0.1171
  976MOL0     C31653   4.168   4.651   2.389  0.6446  0.2362 -0.2544
  976MOL0     C31654   3.984   4.637   2.210  0.4597  0.2356  0.3846
  976MOL0     C31655   3.966   4.488   2.218 -0.5969  1.0881  0.4747
  976MOL0     O31656   3.835   4.432   2.209  0.2712 -0.3662  0.3510
  976MOL0     C31657   3.823   4.295   2.202  0.1920 -0.4509 -0.0338
  976MOL0     C31658   3.734   4.228   2.287  0.0271 -1.3246  0.8553
  976MOL0     C31659   3.704   4.095   2.263 -0.3909  0.1635  0.1760
  976MOL0     C31660   3.748   4.024   2.151 -0.2268  0.7743 -0.9205
  976MOL0     O31661   3.719   3.890   2.122  0.0004 -0.2871  0.0694
  976MOL0     C31662   3.643   3.811   2.219 -0.4193 -0.1489  0.2554
  976MOL0     C31663   3.705   3.761   2.352 -0.6734  0.1170  0.4313
  976MOL0     C31664   3.601   3.667   2.417  0.1841 -1.7945 -0.2416
  976MOL0     C31665   3.671   3.585   2.536 -0.0986  0.3307  0.0842
  976MOL0     C31666   3.567   3.511   2.614  1.1142  0.2247 -0.6649
  976MOL0     C31667   3.505   3.396   2.528  0.0050  0.0607 -0.1974
  976MOL0     C31668   3.424   3.295   2.601 -0.2841 -0.3829 -0.4545
  976MOL0     C31669   3.377   3.187   2.518  1.0760  0.5038 -0.7184
  976MOL0    Cl31670   3.301   3.058   2.610 -0.0893  0.3838 -0.0727
  976MOL0     C31671   3.850   4.087   2.079  0.2634  0.6041 -0.3898
  976MOL0     C31672   3.886   4.222   2.100  0.0855  0.5816  0.0053
  976MOL0     O31673   4.074   4.425   2.209  0.3140 -0.4067 -0.3773
  976MOL0     C31674   3.903   4.698   2.106 -0.4086 -0.6451  0.1060
  976MOL0     C31675   3.916   4.838   2.092 -0.6739  0.0314  0.0449
  976MOL0     N31676   3.680   5.670   2.103  0.1973 -0.1813 -0.6026
  976MOL0     N31677   3.582   5.708   2.177  0.0714 -0.2052 -0.0817
  976MOL0     C31678   3.410   5.922   2.864 -0.1522  0.8815  0.0263
  976MOL0     C31679   3.435   6.063   2.858  0.4856  0.0863 -0.0124
  976MOL0     C31680   3.393   6.502   2.841  0.3166 -0.9523 -0.6566
  976MOL0     C31681   3.488   6.607   2.861  0.5123  0.1616 -0.0897
  976MOL0     C31682   3.451   6.743   2.863  0.1773  0.6272  0.1626
  976MOL0     C31683   3.320   6.782   2.865 -0.5015 -0.6426 -0.9938
  976MOL0     O31684   3.276   6.913   2.883 -0.7712 -0.1138 -0.9007
  976MOL0     C31685   3.304   6.963   3.018 -0.1860 -0.3730 -0.7628
  976MOL0     C31686   3.185   7.013   3.098  0.7789 -0.7314 -0.4940
  976MOL0     C31687   3.147   7.160   3.063 -0.1933 -0.3195  0.0817
  976MOL0     C31688   3.099   7.176   2.918  0.7005  0.8362 -0.1848
  976MOL0     C31689   3.018   7.294   2.903  0.0914 -0.3492 -0.0486
  976MOL0     C31690   2.959   7.399   2.871 -0.1325  0.6942  0.4605
  976MOL0     C31691   3.227   6.681   2.841  0.1822  0.5517  0.6232
  976MOL0     C31692   3.253   6.540   2.825 -0.6554  0.1436 -0.0665
  976MOL0     H31693   3.118   6.162   2.801 -1.7924 -2.0372  0.1324
  976MOL0     H31694   3.072   5.925   2.819  0.1029  3.3011 -3.3603
  976MOL0     H31695   3.066   5.731   2.894 -0.0655 -1.6316  1.1295
  976MOL0     H31696   3.088   5.687   2.728 -3.5119  1.4351  1.1190
  976MOL0     H31697   3.159   5.505   2.963 -1.2825  0.1747  0.6743
  976MOL0     H31698   3.026   5.500   2.840  0.1811  0.7561 -0.0143
  976MOL0     H31699   3.312   5.491   2.737 -1.0823  0.1388 -0.2309
  976MOL0     H31700   3.255   5.347   2.812  0.6770  0.5413  0.7765
  976MOL0     H31701   3.156   5.284   2.646 -0.4062 -0.5515 -2.1507
  976MOL0     H31702   3.041   5.421   2.644 -0.1761 -1.1728 -0.6610
  976MOL0     H31703   3.313   5.378   2.510  1.2747  2.0280 -1.9468
  976MOL0     H31704   3.151   5.414   2.424 -1.4006 -1.6766  1.2737
  976MOL0     H31705   3.145   5.632   2.462  0.6165  2.3071  3.3038
  976MOL0     H31706   3.295   5.634   2.564  3.1241 -2.1169 -0.3238
  976MOL0     H31707   3.307   5.521   2.282 -0.8851  0.8132 -0.1177
  976MOL0     H31708   3.274   5.692   2.304 -3.0350 -1.4257  0.5247
  976MOL0     H31709   3.482   5.560   2.481 -2.1067 -0.8115  0.5508
  976MOL0     H31710   3.467   5.726   2.430  0.6754 -1.1595 -0.9628
  976MOL0     H31711   3.627   5.420   2.316 -1.8133 -0.6746 -1.8366
  976MOL0     H31712   3.900   5.511   2.037 -0.4169 -0.7715 -0.4618
  976MOL0     H31713   3.922   5.524   2.214 -1.4854  1.0695 -0.1331
  976MOL0     H31714   3.778   5.282   2.099  0.0787 -0.4652 -1.9835
  976MOL0     H31715   3.863   5.295   2.254 -1.3704  1.0758 -0.8741
  976MOL0     H31716   4.061   5.293   2.110  0.7692 -1.9981 -1.1103
  976MOL0     H31717   3.964   5.314   1.963  2.4802  1.5557 -0.0860
  976MOL0     H31718   4.038   5.079   1.975 -0.7528 -5.0054 -0.3112
  976MOL0     H31719   3.871   5.078   2.006 -0.7894  3.0531 -0.1301
  976MOL0     H31720   4.141   4.909   2.330 -1.0497  0.9207  0.1023
  976MOL0     H31721   4.188   4.732   2.460 -0.2915  1.2902 -1.1421
  976MOL0     H31722   4.123   4.564   2.438  0.9052  0.2672  0.0423
  976MOL0     H31723   4.260   4.618   2.342  0.6482 -3.1723  1.8585
  976MOL0     H31724   3.691   4.270   2.377  1.0056 -2.1934  1.7577
  976MOL0     H31725   3.644   4.036   2.331  2.6811  0.3747  3.3322
  976MOL0     H31726   3.552   3.868   2.243 -0.0654  1.0212 -1.0812
  976MOL0     H31727   3.635   3.722   2.156  1.8522 -0.3054  0.1060
  976MOL0     H31728   3.802   3.712   2.333 -1.1883 -0.4300 -0.9515
  976MOL0     H31729   3.734   3.842   2.419 -0.2646 -0.5540  1.0793
  976MOL0     H31730   3.556   3.600   2.343 -1.5738 -1.7509  0.7328
  976MOL0     H31731   3.513   3.724   2.450  1.8805  0.9404 -0.1530
  976MOL0     H31732   3.742   3.509   2.503  0.7044  0.6237  1.1009
  976MOL0     H31733   3.729   3.650   2.602  1.5541  0.2299 -1.2114
  976MOL0     H31734   3.485   3.572   2.653  2.2319  0.7372  1.0442
  976MOL0     H31735   3.620   3.470   2.701  0.7034  0.7813 -0.1407
  976MOL0     H31736   3.445   3.431   2.444  0.9511 -0.3675 -1.0660
  976MOL0     H31737   3.598   3.344   2.503  1.9542  2.1911  2.0247
  976MOL0     H31738   3.339   3.353   2.640  1.7623  0.6771  2.8305
  976MOL0     H31739   3.460   3.255   2.697 -0.8630  1.0777  0.4068
  976MOL0     H31740   3.466   3.163   2.459  2.1852  1.7996  0.3774
  976MOL0     H31741   3.302   3.231   2.452  0.1506  1.8114  1.1279
  976MOL0     H31742   3.910   4.037   2.004  1.4916  2.0351 -0.3923
  976MOL0     H31743   3.948   4.272   2.026 -0.1912  0.2523 -0.4547
  976MOL0     H31744   3.829   4.647   2.046 -1.1029  0.2659  0.1659
  976MOL0     H31745   3.862   4.869   2.003 -0.4442 -3.1760 -1.3563
  976MOL0     H31746   3.489   5.852   2.890 -0.5404 -0.6530 -2.6643
  976MOL0     H31747   3.527   6.113   2.887  0.1086  0.0043  1.4022
  976MOL0     H31748   3.593   6.577   2.861  0.9520  1.0934 -4.0057
  976MOL0     H31749   3.529   6.819   2.863  1.6192 -0.7908  1.0441
  976MOL0     H31750   3.335   6.877   3.079 -2.1229 -0.2154  0.5544
  976MOL0     H31751   3.389   7.030   3.006 -0.2607 -0.0070  0.5736
  976MOL0     H31752   3.214   7.006   3.203  1.2893  2.6119 -0.3136
  976MOL0     H31753   3.101   6.944   3.081 -0.6762  0.2681  2.0927
  976MOL0     H31754   3.218   7.240   3.085 -0.3665  0.5137 -2.0598
  976MOL0     H31755   3.061   7.192   3.123 -1.2026 -0.6015 -1.1517
  976MOL0     H31756   3.033   7.095   2.887  0.7970  0.1993  1.1940
  976MOL0     H31757   3.180   7.173   2.845 -0.6936 -3.4546 -1.8760
  976MOL0     H31758   2.922   7.493   2.837  3.2961  1.5020 -1.5462
  976MOL0     H31759   3.122   6.700   2.822 -0.0908 -0.6037  0.8849
  976MOL0     H31760   3.173   6.469   2.806  0.5642 -0.6222 -2.8049
  977MOL0     O31761   9.910   3.686  10.954 -0.1439 -0.7729 -0.0243
  977MOL0     C31762   9.899   3.576  11.009 -0.6662 -0.2905 -0.5650
  977MOL0     O31763   9.788   3.498  11.008 -0.5235 -0.3959  0.2330
  977MOL0     C31764   9.677   3.568  10.974  0.7380  1.1305 -0.2596
  977MOL0     C31765   9.619   3.652  11.065 -0.2158  0.1849 -0.1959
  977MOL0     C31766   9.494   3.706  11.029  0.5188 -0.3447  0.1849
  977MOL0     C31767   9.429   3.678  10.912  0.2765  1.2280  0.3388
  977MOL0     O31768   9.304   3.731  10.882  0.2067 -0.1344 -0.5035
  977MOL0     C31769   9.235   3.680  10.765 -0.1041 -0.0346  0.2946
  977MOL0     C31770   9.187   3.533  10.794 -0.1155 -0.6685  0.1849
  977MOL0     C31771   9.066   3.511  10.888  0.1858  0.1013 -0.9620
  977MOL0     C31772   9.034   3.363  10.870 -0.1483 -0.0905  0.8766
  977MOL0     C31773   8.903   3.317  10.935 -0.0620 -0.7275  0.0968
  977MOL0     C31774   8.777   3.391  10.897  0.3596  0.0567  0.8614
  977MOL0     C31775   8.697   3.319  10.787 -0.6069  0.1076 -0.3028
  977MOL0     C31776   8.603   3.418  10.742  0.7289 -0.4242 -0.3690
  977MOL0     N31777   8.511   3.366  10.644 -0.0649  0.4599  0.4249
  977MOL0     C31778   8.414   3.267  10.653 -0.6551 -0.4195  0.6553
  977MOL0     C31779   8.370   3.238  10.526  0.5065  0.7785 -0.9412
  977MOL0     C31780   8.257   3.145  10.502  0.0987 -0.0687 -0.5702
  977MOL0     C31781   8.233   3.098  10.361 -0.9795  0.3651  0.0268
  977MOL0     C31782   8.084   3.062  10.336  0.5982 -1.2247  0.7805
  977MOL0     C31783   8.046   3.063  10.196  0.6781 -0.7272  0.2216
  977MOL0     O31784   8.076   3.180  10.122  0.1165 -0.7730 -0.3721
  977MOL0     C31785   8.198   3.203  10.077 -0.0522  0.2554  0.1499
  977MOL0     C31786   8.222   3.336  10.056 -0.1643 -0.7459 -0.0415
  977MOL0     C31787   8.332   3.386   9.985 -0.2364 -0.0763 -0.5174
  977MOL0     C31788   8.345   3.530   9.963  0.1149  0.1859  0.0392
  977MOL0     C31789   8.421   3.291   9.917  1.7102 -1.0429 -0.3568
  977MOL0     C31790   8.537   3.322   9.832  0.9933  0.2981 -0.6632
  977MOL0     O31791   8.544   3.263   9.712  0.3857  0.4667  0.4223
  977MOL0     C31792   8.645   3.315   9.623  1.1795  1.1999 -0.1857
  977MOL0     C31793   8.625   3.430   9.557  0.3417 -0.2889 -0.2792
  977MOL0     C31794   8.711   3.461   9.447  0.7474 -0.1289 -0.1679
  977MOL0     C31795   8.822   3.382   9.424 -0.3878  0.0523 -0.2889
  977MOL0     O31796   8.906   3.421   9.323 -1.0021 -0.2192 -0.6516
  977MOL0     C31797   8.939   3.320   9.230 -0.4107 -0.3852 -0.7687
  977MOL0     C31798   8.971   3.384   9.090 -0.0197 -0.1051  0.3032
  977MOL0     C31799   8.850   3.444   9.018 -0.4019 -0.3580  0.4471
  977MOL0     C31800   8.897   3.507   8.887 -0.1002 -0.9625 -0.9120
  977MOL0     C31801   8.777   3.533   8.806  0.2322 -0.4985  0.5918
  977MOL0     C31802   8.814   3.601   8.670 -0.5044  0.3469 -0.5707
  977MOL0     C31803   8.728   3.550   8.560 -0.6949 -0.3879  0.2579
  977MOL0     C31804   8.808   3.564   8.431  0.3741 -0.7398 -0.2841
  977MOL0    Cl31805   8.714   3.499   8.295  0.4950 -0.3606  0.3016
  977MOL0     C31806   8.850   3.274   9.514  0.1689 -0.5154  0.2420
  977MOL0     C31807   8.757   3.233   9.606  0.2666  0.7931  0.0855
  977MOL0     O31808   8.606   3.417   9.867  0.8187 -0.2786  0.1635
  977MOL0     C31809   8.389   3.157   9.934  0.2210  0.3141 -0.7191
  977MOL0     C31810   8.281   3.109  10.005  0.0384 -0.3570 -0.0247
  977MOL0     N31811   8.440   3.317  10.442 -0.1852 -0.0343 -0.1229
  977MOL0     N31812   8.528   3.381  10.512 -0.1641 -0.6280 -0.7069
  977MOL0     C31813   9.494   3.598  10.822 -0.4903 -0.3503 -1.1016
  977MOL0     C31814   9.626   3.547  10.850  0.6094 -1.0861 -0.7428
  977MOL0     C31815  10.014   3.547  11.094 -0.3066  0.0802 -0.2362
  977MOL0     C31816  10.146   3.594  11.073  0.2609 -0.8872 -0.9491
  977MOL0     C31817  10.256   3.550  11.149 -0.4146  0.9138  0.3543
  977MOL0     C31818  10.233   3.456  11.253  0.5197  0.0908 -0.3306
  977MOL0     O31819  10.341   3.415  11.330 -0.2851  0.2312  0.3826
  977MOL0     C31820  10.410   3.307  11.260 -0.0762  0.8334  0.1884
  977MOL0     C31821  10.556   3.286  11.299 -0.2811  0.0103  0.2316
  977MOL0     C31822  10.638   3.417  11.294 -1.0606  0.6790 -0.1821
  977MOL0     C31823  10.793   3.393  11.312 -0.4057  0.6392  0.0478
  977MOL0     C31824  10.850   3.500  11.396 -0.8651  0.3084 -0.1049
  977MOL0     C31825  10.879   3.595  11.470 -0.4586 -0.9617 -0.1595
  977MOL0     C31826  10.105   3.412  11.275 -0.5053 -0.2502 -0.5673
  977MOL0     C31827  10.001   3.451  11.196  1.0974  0.4960 -1.3761
  977MOL0     H31828   9.674   3.669  11.157  0.4042 -0.2282 -0.4909
  977MOL0     H31829   9.455   3.780  11.098  2.2643 -0.1132  0.9853
  977MOL0     H31830   9.149   3.747  10.757  0.5181  0.5398 -2.5316
  977MOL0     H31831   9.285   3.694  10.669  2.9865  2.5120  2.1088
  977MOL0     H31832   9.158   3.496  10.695  1.3094 -1.0414 -0.1102
  977MOL0     H31833   9.274   3.475  10.825  0.4217  0.7540  1.4243
  977MOL0     H31834   9.108   3.532  10.987  2.7231 -1.9878 -1.4518
  977MOL0     H31835   8.989   3.580  10.854 -0.0852  0.2317 -0.1081
  977MOL0     H31836   9.014   3.358  10.762  0.4531 -3.0198  0.8322
  977MOL0     H31837   9.116   3.293  10.888  0.3612 -0.2009 -1.4311
  977MOL0     H31838   8.894   3.211  10.912  1.7323 -0.6827 -1.0485
  977MOL0     H31839   8.923   3.325  11.043  1.3604  0.4293 -0.2125
  977MOL0     H31840   8.710   3.397  10.983  1.5629 -0.2913  1.8545
  977MOL0     H31841   8.791   3.492  10.859 -3.6474 -0.2926 -2.3137
  977MOL0     H31842   8.755   3.284  10.701 -1.3971 -1.4557 -0.2297
  977MOL0     H31843   8.644   3.236  10.834 -0.9010  1.5941  2.1675
  977MOL0     H31844   8.661   3.502  10.704  0.4918  0.2669  0.7679
  977MOL0     H31845   8.541   3.444  10.828 -0.0785 -0.7997 -0.8170
  977MOL0     H31846   8.392   3.225  10.751  0.7422 -2.7279  0.0394
  977MOL0     H31847   8.269   3.054  10.562 -0.6818  0.1313 -0.0864
  977MOL0     H31848   8.166   3.197  10.534  2.1048  2.7427  0.9563
  977MOL0     H31849   8.304   3.017  10.340 -1.1547 -0.3119  1.8497
  977MOL0     H31850   8.265   3.187  10.306  0.4304  0.7484  1.4183
  977MOL0     H31851   8.023   3.140  10.382 -3.0337 -2.8776 -0.8482
  977MOL0     H31852   8.058   2.965  10.380  0.3550 -0.5412  2.1789
  977MOL0     H31853   7.937   3.065  10.195  0.6803 -0.5333  0.2831
  977MOL0     H31854   8.075   2.975  10.138 -1.3254 -0.5314 -1.1600
  977MOL0     H31855   8.158   3.412  10.100  3.1737  2.2243  0.1167
  977MOL0     H31856   8.262   3.580  10.014  0.4908  1.2467 -0.3477
  977MOL0     H31857   8.440   3.572   9.999  1.6851 -3.0137 -0.0358
  977MOL0     H31858   8.327   3.558   9.858  0.9718  1.0253  0.1032
  977MOL0     H31859   8.527   3.473   9.574 -0.6057 -2.8178  1.1250
  977MOL0     H31860   8.673   3.533   9.375  1.6658 -0.7069 -1.2607
  977MOL0     H31861   9.035   3.275   9.259 -0.0884  0.3466 -0.6591
  977MOL0     H31862   8.863   3.245   9.209 -2.5862  1.0716  1.4113
  977MOL0     H31863   9.049   3.458   9.104 -0.4876  0.5911 -0.6447
  977MOL0     H31864   9.013   3.309   9.023  1.5409  1.8360 -0.9970
  977MOL0     H31865   8.799   3.516   9.082 -0.1405 -2.3662  3.0854
  977MOL0     H31866   8.778   3.366   8.990 -3.8062  3.8510 -4.1906
  977MOL0     H31867   8.952   3.599   8.910 -2.1674  0.5667 -1.7099
  977MOL0     H31868   8.963   3.437   8.836  2.6129 -0.2926  1.4315
  977MOL0     H31869   8.706   3.603   8.852 -2.8670 -1.2925 -2.5309
  977MOL0     H31870   8.719   3.443   8.784  1.5361 -1.1211 -0.4812
  977MOL0     H31871   8.793   3.708   8.685 -2.7467 -0.2907  1.6473
  977MOL0     H31872   8.916   3.588   8.635 -1.1032  1.4056 -2.9274
  977MOL0     H31873   8.638   3.612   8.563 -0.7624 -0.3779 -1.1150
  977MOL0     H31874   8.708   3.443   8.573  3.3464 -1.3596 -0.3866
  977MOL0     H31875   8.901   3.507   8.431 -0.9129 -2.9654  0.4660
  977MOL0     H31876   8.832   3.667   8.402 -0.4021 -1.0591 -2.2391
  977MOL0     H31877   8.938   3.212   9.496  0.0321 -0.1851 -1.8248
  977MOL0     H31878   8.763   3.144   9.668 -0.7492  0.8759  0.3363
  977MOL0     H31879   8.455   3.086   9.886  0.9981 -0.2020  1.0074
  977MOL0     H31880   8.259   3.003  10.002 -0.6660 -0.2305  0.3488
  977MOL0     H31881   9.445   3.567  10.731  1.8645 -1.6920 -1.9930
  977MOL0     H31882   9.677   3.493  10.771 -1.9683 -0.6131 -2.8849
  977MOL0     H31883  10.169   3.667  10.996  3.3192 -1.8452 -1.0560
  977MOL0     H31884  10.354   3.588  11.123  2.7381 -6.4824 -1.3798
  977MOL0     H31885  10.355   3.212  11.259  0.1386  0.6543 -2.4229
  977MOL0     H31886  10.408   3.321  11.151 -0.2655 -3.4555 -0.5592
  977MOL0     H31887  10.595   3.204  11.238  3.6029  1.5874  0.2915
  977MOL0     H31888  10.550   3.242  11.399 -1.8678 -3.2730 -1.1857
  977MOL0     H31889  10.602   3.495  11.360  2.6253 -0.0715  3.1047
  977MOL0     H31890  10.632   3.457  11.192 -0.8270 -2.5298 -1.5679
  977MOL0     H31891  10.847   3.403  11.217 -0.1488 -1.3184 -0.0496
  977MOL0     H31892  10.809   3.289  11.341  1.3034  0.4720 -1.3281
  977MOL0     H31893  10.902   3.674  11.539  0.1714 -2.6215  1.6201
  977MOL0     H31894  10.075   3.346  11.356 -1.2195 -0.7786 -1.2416
  977MOL0     H31895   9.905   3.408  11.224  1.3095  0.7658 -0.1693
  978MOL0     O31896   3.622  10.830   2.287  0.1545  0.2923  0.6596
  978MOL0     C31897   3.598  10.711   2.258  0.0316  1.0719 -0.1708
  978MOL0     O31898   3.639  10.594   2.332 -0.0129  0.2242 -0.0441
  978MOL0     C31899   3.748  10.626   2.419 -0.4844  0.7188  0.2409
  978MOL0     C31900   3.877  10.579   2.398  0.0656 -0.2758  1.1352
  978MOL0     C31901   3.989  10.626   2.472  0.0316 -0.2938 -0.5938
  978MOL0     C31902   3.961  10.724   2.572 -0.7879  0.0018 -0.4902
  978MOL0     O31903   4.053  10.803   2.621 -0.8338  0.4672 -0.1253
  978MOL0     C31904   4.192  10.775   2.594  0.3148 -0.1922  0.0031
  978MOL0     C31905   4.290  10.883   2.660 -0.0134  0.2295 -0.2557
  978MOL0     C31906   4.303  10.881   2.813  0.5146 -0.2140 -1.3270
  978MOL0     C31907   4.415  10.984   2.849  0.6168  0.5210 -0.2897
  978MOL0     C31908   4.385  11.042   2.993 -0.0699 -0.1969  0.6473
  978MOL0     C31909   4.473  11.176   3.010  0.8936  1.3994 -0.7243
  978MOL0     C31910   4.417  11.265   3.119  0.7844 -0.6632 -0.1111
  978MOL0     C31911   4.461  11.415   3.116 -0.2083  0.1149 -0.7419
  978MOL0     N31912   4.373  11.514   3.185  0.6293 -0.2556  0.3314
  978MOL0     C31913   4.358  11.525   3.316 -0.0880  0.4349  0.3019
  978MOL0     C31914   4.241  11.598   3.321 -0.4625  1.2059 -0.2452
  978MOL0     C31915   4.192  11.652   3.452  0.1734  0.6847  0.5855
  978MOL0     C31916   4.057  11.724   3.427  0.1051 -1.1248  0.3944
  978MOL0     C31917   3.984  11.770   3.556  0.3015 -0.2611  0.7843
  978MOL0     C31918   4.058  11.877   3.642  0.1415 -0.4812  0.1253
  978MOL0     O31919   4.154  11.817   3.724 -0.5135  0.4005 -0.1162
  978MOL0     C31920   4.228  11.911   3.789  0.0886 -0.0867  0.5387
  978MOL0     C31921   4.206  12.046   3.791  0.0680 -0.2978  0.4774
  978MOL0     C31922   4.278  12.148   3.858  0.2348  0.7239  0.1539
  978MOL0     C31923   4.281  12.286   3.813 -0.1916  0.1741  0.1792
  978MOL0     C31924   4.379  12.099   3.948  0.2687  0.3783 -0.8507
  978MOL0     C31925   4.464  12.179   4.033 -0.7650 -0.8560 -0.9227
  978MOL0     O31926   4.564  12.119   4.097 -0.9230  0.7027  0.5195
  978MOL0     C31927   4.629  12.184   4.196  0.0093  0.6743  0.3227
  978MOL0     C31928   4.558  12.220   4.311 -0.6938 -0.0085  0.1427
  978MOL0     C31929   4.633  12.269   4.428  0.7699 -0.9217  1.3093
  978MOL0     C31930   4.768  12.284   4.426  0.3690 -0.8118  0.0305
  978MOL0     O31931   4.823  12.346   4.543  0.4826  0.4186  0.6233
  978MOL0     C31932   4.960  12.377   4.541  0.2619  0.0589 -0.3760
  978MOL0     C31933   5.004  12.395   4.682  0.4796  0.0498 -0.0913
  978MOL0     C31934   4.950  12.527   4.755  0.0280  0.5868  0.0145
  978MOL0     C31935   5.010  12.521   4.892  0.5021  0.1564  0.2464
  978MOL0     C31936   4.911  12.590   4.984  0.0336 -0.0398 -0.9886
  978MOL0     C31937   4.980  12.632   5.110  0.9684 -0.5781 -0.4822
  978MOL0     C31938   4.891  12.733   5.177 -0.0442 -0.1343 -0.2428
  978MOL0     C31939   4.905  12.737   5.328 -0.1914 -0.3006 -1.5449
  978MOL0    Cl31940   4.764  12.835   5.386 -0.1568 -0.0298 -0.1598
  978MOL0     C31941   4.834  12.253   4.307 -1.0618  0.6040  1.0798
  978MOL0     C31942   4.773  12.192   4.197  0.4950  0.0615  0.5516
  978MOL0     O31943   4.433  12.294   4.040 -0.2258 -0.2585 -1.4760
  978MOL0     C31944   4.407  11.958   3.942  0.0474 -1.2004  0.5748
  978MOL0     C31945   4.339  11.871   3.857  0.1802  0.9901  0.0759
  978MOL0     N31946   4.201  11.640   3.196 -0.5465  0.0864 -0.3021
  978MOL0     N31947   4.285  11.592   3.116 -0.2276 -0.3520  0.6352
  978MOL0     C31948   3.828  10.760   2.603  1.0314 -0.4925 -0.5959
  978MOL0     C31949   3.722  10.699   2.538  0.4261  0.1970  0.2993
  978MOL0     C31950   3.519  10.679   2.133  0.1980  0.4463 -1.0865
  978MOL0     C31951   3.490  10.548   2.094  0.7681 -0.2537  0.4474
  978MOL0     C31952   3.412  10.519   1.978 -0.1612 -0.2302  0.6115
  978MOL0     C31953   3.358  10.619   1.899 -0.0486  1.0524  0.6003
  978MOL0     O31954   3.289  10.576   1.792  0.7861  0.8843 -0.4738
  978MOL0     C31955   3.215  10.666   1.718 -0.7733  1.0177  0.5202
  978MOL0     C31956   3.128  10.581   1.627  0.0220  0.1130 -0.3741
  978MOL0     C31957   3.010  10.524   1.699  1.0207 -0.2477 -0.9114
  978MOL0     C31958   2.944  10.418   1.613  0.0536 -0.1871 -0.1500
  978MOL0     C31959   2.890  10.479   1.496  0.1465  0.0341 -1.3081
  978MOL0     C31960   2.840  10.530   1.394  0.5540 -0.6091 -0.2988
  978MOL0     C31961   3.390  10.754   1.933 -0.1252 -0.4660 -0.6558
  978MOL0     C31962   3.473  10.783   2.045 -0.6874  0.2183 -0.5418
  978MOL0     H31963   3.895  10.505   2.321 -0.9503  0.4054  0.2189
  978MOL0     H31964   4.088  10.604   2.433  1.3441  3.8539 -0.1370
  978MOL0     H31965   4.230  10.676   2.621  1.3040  0.4472  1.0685
  978MOL0     H31966   4.192  10.788   2.485  1.2087 -1.4602 -0.1726
  978MOL0     H31967   4.392  10.871   2.622  0.4476  0.3208  0.9172
  978MOL0     H31968   4.256  10.985   2.641 -2.5557 -0.0009  2.4728
  978MOL0     H31969   4.203  10.889   2.855  0.3659 -2.9547 -1.0002
  978MOL0     H31970   4.336  10.783   2.848  0.5856  0.0378 -0.6694
  978MOL0     H31971   4.513  10.937   2.864  1.8879  3.0127 -0.1891
  978MOL0     H31972   4.416  11.067   2.778  2.0657  0.9965  0.2356
  978MOL0     H31973   4.278  11.054   3.007 -0.2846 -2.7600  1.8194
  978MOL0     H31974   4.422  10.966   3.063 -1.2574 -2.4297 -1.0043
  978MOL0     H31975   4.574  11.138   3.030 -0.1813 -1.0356  0.5473
  978MOL0     H31976   4.470  11.235   2.918 -1.0662  1.3747 -0.7153
  978MOL0     H31977   4.308  11.267   3.108  0.9135 -2.7090 -2.6279
  978MOL0     H31978   4.436  11.222   3.218  0.7162  2.4754  1.3893
  978MOL0     H31979   4.463  11.448   3.011  3.2483 -0.3494 -0.9361
  978MOL0     H31980   4.558  11.416   3.167  0.0290 -3.9572 -0.7887
  978MOL0     H31981   4.410  11.476   3.397 -0.8934  0.4596  0.8360
  978MOL0     H31982   4.167  11.575   3.525 -2.2570  1.4138  0.6292
  978MOL0     H31983   4.265  11.717   3.501  1.3904 -0.7560  0.7591
  978MOL0     H31984   3.991  11.663   3.364  1.0875  1.6781 -3.7477
  978MOL0     H31985   4.077  11.813   3.368 -1.8489  0.3682  1.8516
  978MOL0     H31986   3.960  11.686   3.621  3.6317 -2.9897 -1.1762
  978MOL0     H31987   3.894  11.811   3.509 -0.5884 -0.0054  2.6177
  978MOL0     H31988   3.986  11.942   3.693  0.4465 -1.4900  1.9071
  978MOL0     H31989   4.108  11.946   3.573  0.8412  1.6474  2.6005
  978MOL0     H31990   4.126  12.096   3.739  0.6620  0.9768  0.7603
  978MOL0     H31991   4.215  12.339   3.882 -0.9226 -0.5708  0.0656
  978MOL0     H31992   4.372  12.346   3.809  1.1543 -1.7845  0.4439
  978MOL0     H31993   4.237  12.289   3.712  1.0089 -0.2670 -0.3670
  978MOL0     H31994   4.449  12.218   4.309 -0.9845  4.0947  1.7036
  978MOL0     H31995   4.573  12.299   4.514  1.8329  1.8088  1.1933
  978MOL0     H31996   5.029  12.296   4.514  2.8401  1.7074  0.8831
  978MOL0     H31997   4.983  12.466   4.483 -2.2280  1.6201  0.8928
  978MOL0     H31998   4.971  12.302   4.729 -1.0087 -0.7252 -2.5108
  978MOL0     H31999   5.112  12.387   4.696  0.1907 -1.3476  1.9036
  978MOL0     H32000   4.842  12.515   4.762  0.2290 -0.8599  1.2242
  978MOL0     H32001   4.981  12.615   4.698  2.3760 -0.4691 -0.4783
  978MOL0     H32002   5.039  12.419   4.916  0.2303 -0.1040 -0.4930
  978MOL0     H32003   5.100  12.583   4.895 -1.0357  2.5136  0.5764
  978MOL0     H32004   4.828  12.522   5.006 -0.5182  0.5220 -1.3164
  978MOL0     H32005   4.875  12.681   4.936  0.6491  0.7189 -0.0192
  978MOL0     H32006   5.006  12.556   5.184  0.7438  0.6805  0.9308
  978MOL0     H32007   5.075  12.685   5.093  0.7535  0.7510  1.9997
  978MOL0     H32008   4.789  12.696   5.163  1.1215 -3.0342 -2.0538
  978MOL0     H32009   4.904  12.835   5.140  0.1938  0.9984  2.6968
  978MOL0     H32010   5.001  12.784   5.353 -0.3525 -0.5414 -0.4052
  978MOL0     H32011   4.902  12.638   5.373  0.9380 -0.2206 -1.2572
  978MOL0     H32012   4.939  12.281   4.302 -1.0701  0.6401  1.1045
  978MOL0     H32013   4.820  12.166   4.103 -1.9431 -0.0260 -0.7349
  978MOL0     H32014   4.487  11.911   3.999 -0.0173  1.1268  2.7552
  978MOL0     H32015   4.370  11.768   3.848 -1.0667  0.5295  0.7608
  978MOL0     H32016   3.814  10.828   2.686 -0.2468 -1.7363  0.2287
  978MOL0     H32017   3.623  10.713   2.580  1.9426  1.5724  3.9240
  978MOL0     H32018   3.530  10.460   2.144  1.9932  0.2092  0.3192
  978MOL0     H32019   3.387  10.419   1.944  0.4046 -0.6384  1.3634
  978MOL0     H32020   3.148  10.735   1.770  0.4252  2.9192 -0.3210
  978MOL0     H32021   3.281  10.726   1.654 -2.8048  0.9411 -1.8016
  978MOL0     H32022   3.190  10.510   1.573  0.3451  1.8625 -2.4721
  978MOL0     H32023   3.093  10.647   1.547 -4.2185 -2.4499 -0.9598
  978MOL0     H32024   2.932  10.597   1.722 -1.1940 -3.2447  2.0448
  978MOL0     H32025   3.027  10.468   1.791  0.4330  0.7377 -0.1902
  978MOL0     H32026   2.853  10.388   1.666 -0.7483  0.0342 -1.3469
  978MOL0     H32027   3.005  10.327   1.608 -0.2305 -0.4059  0.2902
  978MOL0     H32028   2.817  10.586   1.305  1.8363  3.6777  1.7993
  978MOL0     H32029   3.365  10.832   1.862  0.4202  0.0120 -0.3317
  978MOL0     H32030   3.483  10.885   2.079  0.6281 -0.1421  0.2202
  979MOL0     O32031   4.760   8.819   3.749  0.9576  0.7301 -1.3128
  979MOL0     C32032   4.792   8.711   3.800 -0.4653  0.4422 -0.2312
  979MOL0     O32033   4.842   8.603   3.726 -0.2653  0.3261 -0.5623
  979MOL0     C32034   4.818   8.601   3.594 -0.5574  0.6968 -0.1798
  979MOL0     C32035   4.924   8.534   3.525 -0.1397  0.0597 -1.1604
  979MOL0     C32036   4.912   8.525   3.389  0.1223  0.8146 -0.0532
  979MOL0     C32037   4.804   8.575   3.319 -0.1500 -0.4742  0.1573
  979MOL0     O32038   4.798   8.554   3.188 -0.1032 -0.4554  0.2121
  979MOL0     C32039   4.666   8.546   3.127 -0.2879  0.3956  0.3891
  979MOL0     C32040   4.684   8.502   2.980 -0.5177  0.2714 -0.4041
  979MOL0     C32041   4.549   8.479   2.911  0.0267 -0.6996  0.0506
  979MOL0     C32042   4.553   8.366   2.811  0.2920 -0.3237  0.7615
  979MOL0     C32043   4.411   8.298   2.787 -0.5739  0.3901  0.7546
  979MOL0     C32044   4.315   8.388   2.708  0.4425  0.1833  0.4297
  979MOL0     C32045   4.212   8.313   2.617 -0.0978 -0.2918  0.4150
  979MOL0     C32046   4.150   8.398   2.501  0.8921  0.0761 -0.6163
  979MOL0     N32047   4.068   8.314   2.415  0.3499  0.0669 -0.0322
  979MOL0     C32048   3.972   8.221   2.445 -1.0853  0.1505 -0.8401
  979MOL0     C32049   3.922   8.187   2.321 -0.6609 -0.8312  0.4590
  979MOL0     C32050   3.803   8.105   2.303 -0.2711 -0.0392  0.6692
  979MOL0     C32051   3.851   7.949   2.255 -0.9272 -0.4302  0.0279
  979MOL0     C32052   3.737   7.861   2.202 -0.4317 -0.3269 -0.0308
  979MOL0     C32053   3.807   7.757   2.122 -0.3540 -0.2793 -0.1456
  979MOL0     O32054   3.716   7.678   2.052  0.1810  0.1821 -0.1746
  979MOL0     C32055   3.769   7.569   1.990 -0.0071  0.3586 -0.6240
  979MOL0     C32056   3.685   7.485   1.913  0.2327  1.0332 -0.6359
  979MOL0     C32057   3.734   7.375   1.841 -0.1971 -0.1454  0.2422
  979MOL0     C32058   3.630   7.298   1.769 -0.8439  0.9444  0.2265
  979MOL0     C32059   3.869   7.342   1.855  0.2247 -0.4572  0.0345
  979MOL0     C32060   3.933   7.226   1.781  0.0212 -0.8309 -0.2952
  979MOL0     O32061   3.848   7.142   1.707 -0.0597 -0.1566  0.1653
  979MOL0     C32062   3.895   7.019   1.683 -0.2852 -0.0970  0.3640
  979MOL0     C32063   3.998   7.000   1.595 -0.4553  0.1476 -0.0567
  979MOL0     C32064   4.042   6.871   1.574  0.0210 -0.4089  0.3528
  979MOL0     C32065   3.971   6.757   1.625  0.7498  0.2248 -0.0596
  979MOL0     O32066   3.992   6.628   1.593 -0.2028  0.1076  0.5669
  979MOL0     C32067   4.070   6.596   1.481 -0.0119  0.2023 -0.1447
  979MOL0     C32068   4.110   6.457   1.485 -0.5047  0.7089 -0.4955
  979MOL0     C32069   3.997   6.355   1.482  0.1172  0.0930  0.3353
  979MOL0     C32070   4.057   6.216   1.505 -0.1079  0.5465 -0.1447
  979MOL0     C32071   4.137   6.171   1.383 -0.1444  0.0822 -0.0748
  979MOL0     C32072   4.123   6.028   1.344 -0.2088  0.5388 -1.0912
  979MOL0     C32073   4.193   5.985   1.207  0.1384 -1.0720  0.3268
  979MOL0     C32074   4.182   5.836   1.187 -0.2537 -0.1269 -0.2929
  979MOL0    Cl32075   4.013   5.787   1.197  0.2380  0.2678  0.1193
  979MOL0     C32076   3.864   6.780   1.709 -0.0310 -0.4946  0.5074
  979MOL0     C32077   3.829   6.915   1.744 -0.2258 -0.4975 -0.2915
  979MOL0     O32078   4.056   7.211   1.797  0.9102  0.6081  0.2756
  979MOL0     C32079   3.948   7.409   1.945 -0.0565 -0.4244 -0.5740
  979MOL0     C32080   3.901   7.526   2.012  0.5962 -0.3472 -0.0484
  979MOL0     N32081   3.987   8.263   2.223 -0.5337  0.1864 -0.3282
  979MOL0     N32082   4.076   8.334   2.280 -0.1239 -0.3585  0.7480
  979MOL0     C32083   4.695   8.632   3.394 -0.0472  0.3689  0.6074
  979MOL0     C32084   4.704   8.645   3.529  0.5400  0.3265  0.4680
  979MOL0     C32085   4.802   8.708   3.950  0.0834 -0.4789  0.0493
  979MOL0     C32086   4.860   8.601   4.013 -0.5103  0.0885 -0.2573
  979MOL0     C32087   4.899   8.602   4.151  0.4988 -0.7015 -0.2609
  979MOL0     C32088   4.877   8.713   4.227  0.6644 -0.4642  0.6431
  979MOL0     O32089   4.918   8.731   4.357 -0.3496 -0.2569 -0.3012
  979MOL0     C32090   4.933   8.627   4.448  0.8640 -1.0546  0.6653
  979MOL0     C32091   5.013   8.680   4.566 -0.1327 -0.2319  0.1600
  979MOL0     C32092   5.032   8.569   4.677 -0.1555 -0.7904 -1.0116
  979MOL0     C32093   4.899   8.492   4.700  0.7623  0.0558  0.1421
  979MOL0     C32094   4.909   8.387   4.802  0.1078 -0.2300  0.2471
  979MOL0     C32095   4.915   8.297   4.882 -0.2216  1.7018 -1.1561
  979MOL0     C32096   4.822   8.829   4.162  0.0279 -0.0735 -0.3541
  979MOL0     C32097   4.769   8.823   4.030  0.5236 -0.2447 -0.1490
  979MOL0     H32098   4.998   8.485   3.589 -2.2140 -1.3437  0.2823
  979MOL0     H32099   4.972   8.469   3.318  0.1706  1.2651 -0.3746
  979MOL0     H32100   4.599   8.479   3.181 -2.6012  3.4173  1.5557
  979MOL0     H32101   4.615   8.643   3.128 -3.7283 -1.2649  0.2177
  979MOL0     H32102   4.745   8.575   2.927  1.2618 -1.0011 -0.1987
  979MOL0     H32103   4.751   8.416   2.976  1.0447  1.5112 -3.0921
  979MOL0     H32104   4.476   8.455   2.988 -0.0217  0.7735  0.4846
  979MOL0     H32105   4.516   8.567   2.855  1.2643 -0.3512 -0.1794
  979MOL0     H32106   4.592   8.392   2.713  0.8406 -1.5618  0.6286
  979MOL0     H32107   4.623   8.292   2.853 -0.3449 -1.1193  0.4532
  979MOL0     H32108   4.431   8.209   2.727  1.5325  0.5818  1.0930
  979MOL0     H32109   4.370   8.268   2.884 -0.6234  0.4536  0.7536
  979MOL0     H32110   4.269   8.439   2.793  2.1855 -0.2765  1.7281
  979MOL0     H32111   4.370   8.470   2.659 -1.6346  0.8336 -0.9279
  979MOL0     H32112   4.268   8.226   2.581  2.2677  0.6112  1.6575
  979MOL0     H32113   4.127   8.283   2.679  0.7694 -0.6589  1.4514
  979MOL0     H32114   4.231   8.448   2.446  1.4602  1.1662  1.1255
  979MOL0     H32115   4.085   8.472   2.548  2.0164  0.2721  0.6976
  979MOL0     H32116   3.941   8.201   2.547  3.1277 -0.7533  0.4536
  979MOL0     H32117   3.738   8.093   2.391 -2.1013  0.4875 -0.5573
  979MOL0     H32118   3.751   8.155   2.221  3.1019  0.7532 -1.1535
  979MOL0     H32119   3.923   7.897   2.319  2.0154 -1.7314 -3.9575
  979MOL0     H32120   3.913   7.972   2.168  1.4714 -0.9763  1.5072
  979MOL0     H32121   3.666   7.909   2.134  1.8331  0.3000 -2.0956
  979MOL0     H32122   3.690   7.819   2.291  1.3887 -0.2203  1.0327
  979MOL0     H32123   3.861   7.702   2.199 -2.3544  0.5628  1.9921
  979MOL0     H32124   3.877   7.805   2.052 -0.4221 -0.3803 -0.2838
  979MOL0     H32125   3.581   7.511   1.903 -0.9276 -3.3775 -2.5158
  979MOL0     H32126   3.531   7.338   1.745 -0.5135  0.4601 -2.2948
  979MOL0     H32127   3.664   7.264   1.670 -2.3850 -0.4538  0.1375
  979MOL0     H32128   3.613   7.200   1.814 -1.6540  0.1299 -1.7301
  979MOL0     H32129   4.051   7.089   1.561 -3.5472  0.9325 -3.4900
  979MOL0     H32130   4.130   6.863   1.511 -2.4243  3.9587 -4.4524
  979MOL0     H32131   4.024   6.626   1.386  0.1791  2.4213  0.4203
  979MOL0     H32132   4.161   6.656   1.483  0.2082 -0.0973  2.8800
  979MOL0     H32133   4.181   6.421   1.410  0.3117 -0.9034  0.9954
  979MOL0     H32134   4.156   6.440   1.582  0.9499  2.2265 -0.8642
  979MOL0     H32135   3.936   6.373   1.393 -2.6184  2.2445  2.4849
  979MOL0     H32136   3.922   6.380   1.558 -0.9908  3.4838 -1.6642
  979MOL0     H32137   4.105   6.207   1.602 -0.7340 -0.7371  0.0736
  979MOL0     H32138   3.974   6.145   1.501 -0.8649  1.4066 -3.7561
  979MOL0     H32139   4.243   6.192   1.395  0.0633 -0.7767 -0.3099
  979MOL0     H32140   4.100   6.222   1.294  1.5289 -1.9094 -2.0222
  979MOL0     H32141   4.167   5.963   1.420 -0.5207 -0.2069 -1.5306
  979MOL0     H32142   4.017   6.007   1.323 -0.3508  0.2357 -0.1060
  979MOL0     H32143   4.299   6.012   1.206  0.1870 -1.1651  1.5016
  979MOL0     H32144   4.149   6.041   1.124  1.5080 -0.3791  0.0356
  979MOL0     H32145   4.244   5.776   1.254  1.2838  0.2952 -1.2870
  979MOL0     H32146   4.224   5.808   1.090 -1.4119 -1.2879 -0.4840
  979MOL0     H32147   3.811   6.702   1.764 -0.4647 -2.0995 -2.0410
  979MOL0     H32148   3.759   6.924   1.827  2.0177 -1.9765  1.8982
  979MOL0     H32149   4.049   7.378   1.968 -0.2721  0.1209  1.2926
  979MOL0     H32150   3.964   7.590   2.074 -0.5664  1.6630 -0.8260
  979MOL0     H32151   4.607   8.673   3.345  1.1345  4.3878  1.5006
  979MOL0     H32152   4.622   8.687   3.586 -0.8372 -1.6607  0.0618
  979MOL0     H32153   4.873   8.505   3.962 -4.9353 -1.2780  0.8182
  979MOL0     H32154   4.949   8.520   4.201  0.9244  0.9324  2.1838
  979MOL0     H32155   4.834   8.594   4.482 -0.5426  0.9561 -1.1851
  979MOL0     H32156   4.988   8.545   4.402 -0.3818  0.2099 -3.5318
  979MOL0     H32157   4.972   8.772   4.608  0.4154 -0.6463  1.6917
  979MOL0     H32158   5.114   8.702   4.530 -0.6602  1.5433 -0.2838
  979MOL0     H32159   5.078   8.618   4.763  1.8721  0.8657 -2.9216
  979MOL0     H32160   5.106   8.493   4.648  1.6394  0.0992  0.9371
  979MOL0     H32161   4.866   8.438   4.611  0.5903  0.3070  0.0510
  979MOL0     H32162   4.823   8.562   4.736 -1.2450 -1.5898 -0.6906
  979MOL0     H32163   4.921   8.222   4.959  0.7591  1.2364 -1.6660
  979MOL0     H32164   4.818   8.919   4.223 -0.4511  1.6325 -2.7595
  979MOL0     H32165   4.723   8.908   3.981  1.4227 -0.6746 -1.8025
  980MOL0     O32166   7.860   4.721  10.063  0.3743  0.2532 -0.1704
  980MOL0     C32167   7.906   4.716   9.947  0.0207 -1.1683  0.0705
  980MOL0     O32168   8.014   4.790   9.911  0.1787 -0.1234  0.6315
  980MOL0     C32169   8.058   4.892   9.986  0.4244 -1.0108 -0.2211
  980MOL0     C32170   8.095   5.015   9.936 -0.4282 -0.3752 -0.4816
  980MOL0     C32171   8.160   5.117  10.011 -0.6336 -0.0102 -0.4014
  980MOL0     C32172   8.186   5.097  10.153  0.7960  0.2854 -0.2736
  980MOL0     O32173   8.219   5.205  10.235  1.0900 -0.1758 -0.2337
  980MOL0     C32174   8.111   5.308  10.237  1.1951  0.2700  0.6003
  980MOL0     C32175   7.970   5.258  10.274 -0.6074  0.1707  0.1526
  980MOL0     C32176   7.970   5.194  10.409 -0.4087 -0.1191  0.7727
  980MOL0     C32177   7.971   5.300  10.511  0.9843  0.3164  0.0530
  980MOL0     C32178   7.980   5.238  10.656  0.4154 -0.5486  0.5588
  980MOL0     C32179   7.974   5.344  10.772  0.4456  0.0784  0.1492
  980MOL0     C32180   7.838   5.400  10.799 -0.1426  0.1819 -0.4498
  980MOL0     C32181   7.852   5.474  10.932 -0.1116 -0.2067 -0.2942
  980MOL0     N32182   7.721   5.528  10.966  0.2275  0.0619  0.1743
  980MOL0     C32183   7.597   5.456  10.995 -0.2154  0.4352  0.6523
  980MOL0     C32184   7.503   5.560  10.990  0.4792  1.2299 -0.1420
  980MOL0     C32185   7.355   5.539  11.000 -0.8429 -0.3804 -0.1369
  980MOL0     C32186   7.292   5.576  11.136  0.7373 -0.3455 -0.9966
  980MOL0     C32187   7.345   5.481  11.241  0.4413 -0.3117  0.0216
  980MOL0     C32188   7.269   5.522  11.375 -0.2337 -0.0562 -0.1020
  980MOL0     O32189   7.282   5.420  11.479 -0.1293 -0.0488  0.2317
  980MOL0     C32190   7.207   5.442  11.594  0.5488 -0.1854  0.5130
  980MOL0     C32191   7.205   5.343  11.684 -0.4975 -0.3177 -0.3792
  980MOL0     C32192   7.150   5.356  11.812 -0.2331 -1.1744  0.7647
  980MOL0     C32193   7.163   5.240  11.907 -0.4700  0.0623  0.4748
  980MOL0     C32194   7.088   5.477  11.857 -1.3411  0.3414  0.2247
  980MOL0     C32195   7.000   5.488  11.972 -0.7242 -0.0434  0.0605
  980MOL0     O32196   6.999   5.614  12.037  1.1890 -0.7857  0.9144
  980MOL0     C32197   6.919   5.613  12.152  0.2446 -0.5190  0.0663
  980MOL0     C32198   6.781   5.626  12.152 -0.6330  0.0286 -1.0077
  980MOL0     C32199   6.709   5.652  12.268  1.8069  0.0144  0.2171
  980MOL0     C32200   6.765   5.654  12.391  0.5098  0.5036 -0.8446
  980MOL0     O32201   6.677   5.699  12.493 -0.6775 -0.5908  0.5844
  980MOL0     C32202   6.741   5.773  12.611 -0.1143 -0.0694 -1.0963
  980MOL0     C32203   6.634   5.862  12.679  0.8644 -1.3177 -1.2261
  980MOL0     C32204   6.692   5.962  12.777 -0.1941  0.4731  0.4173
  980MOL0     C32205   6.761   5.897  12.903  0.6245  0.1906 -0.4483
  980MOL0     C32206   6.871   5.988  12.957  0.1510 -0.2779 -0.5185
  980MOL0     C32207   6.913   5.952  13.095 -0.3809  0.6194  0.1464
  980MOL0     C32208   6.974   5.818  13.113 -0.8295 -0.6264  0.3765
  980MOL0     C32209   7.058   5.813  13.241  0.1064  0.2190 -0.3158
  980MOL0    Cl32210   7.214   5.916  13.249  0.3206 -0.6756  0.0943
  980MOL0     C32211   6.903   5.630  12.400  0.9428  0.2741 -0.3980
  980MOL0     C32212   6.979   5.620  12.279 -0.2118 -0.2156 -0.2449
  980MOL0     O32213   6.945   5.386  12.013 -0.0135 -0.5868 -1.1556
  980MOL0     C32214   7.093   5.578  11.762  0.9381  0.0285 -0.4732
  980MOL0     C32215   7.145   5.557  11.635  0.1444 -0.2454  0.1093
  980MOL0     N32216   7.568   5.681  10.971 -0.1626 -0.9889  0.2911
  980MOL0     N32217   7.691   5.660  10.955  0.2413  0.8920 -0.1855
  980MOL0     C32218   8.151   4.971  10.206  0.6262  0.0225  0.4377
  980MOL0     C32219   8.097   4.867  10.119 -0.1588  0.4246 -0.3118
  980MOL0     C32220   7.833   4.620   9.857  0.0521 -0.5941 -0.2266
  980MOL0     C32221   7.905   4.517   9.798 -0.1398 -0.1891 -1.2879
  980MOL0     C32222   7.852   4.425   9.710 -0.3182  0.1489  0.6226
  980MOL0     C32223   7.706   4.430   9.696 -0.0476  0.7013  0.6513
  980MOL0     O32224   7.637   4.346   9.597 -0.1383 -0.2503 -1.1379
  980MOL0     C32225   7.717   4.309   9.489 -0.3334  0.0183  0.0166
  980MOL0     C32226   7.757   4.165   9.495 -1.6991  0.0964 -0.1277
  980MOL0     C32227   7.647   4.057   9.501  0.3917  0.3474 -0.2834
  980MOL0     C32228   7.608   3.995   9.363  0.1372 -0.0649  0.2715
  980MOL0     C32229   7.515   4.080   9.292 -0.2476 -0.6699 -1.1619
  980MOL0     C32230   7.423   4.144   9.241  1.3516 -0.0001  0.1309
  980MOL0     C32231   7.626   4.519   9.763  0.4842 -0.5222 -0.0981
  980MOL0     C32232   7.694   4.617   9.844  0.4285 -0.3893 -0.0905
  980MOL0     H32233   8.070   5.020   9.830 -3.5978 -2.0223  0.0523
  980MOL0     H32234   8.179   5.215   9.967 -1.8371  0.8802  0.9986
  980MOL0     H32235   8.134   5.388  10.307  1.7421 -0.0399  0.7765
  980MOL0     H32236   8.108   5.349  10.135  0.6330 -2.2923 -0.4955
  980MOL0     H32237   7.898   5.340  10.282 -1.4252 -0.5396  0.2724
  980MOL0     H32238   7.943   5.189  10.194 -3.4273 -0.9936  1.9172
  980MOL0     H32239   7.874   5.142  10.413 -0.4138 -0.0605  1.4392
  980MOL0     H32240   8.050   5.120  10.418 -0.4967 -0.6286 -1.7849
  980MOL0     H32241   8.044   5.381  10.508 -0.7208  1.8671 -0.9083
  980MOL0     H32242   7.872   5.347  10.516  1.8399  2.0668  2.3537
  980MOL0     H32243   7.898   5.167  10.669  0.9026 -0.7979  2.5989
  980MOL0     H32244   8.077   5.191  10.672  0.2233 -0.0712  3.8583
  980MOL0     H32245   8.007   5.280  10.855  0.8535  2.0533  1.5866
  980MOL0     H32246   8.031   5.428  10.732 -1.6776  1.9166  0.7717
  980MOL0     H32247   7.802   5.459  10.714  0.0745  3.3154  1.4836
  980MOL0     H32248   7.767   5.317  10.810 -2.6586  2.2997  0.0936
  980MOL0     H32249   7.931   5.549  10.944 -0.3513 -0.0017  0.0299
  980MOL0     H32250   7.875   5.400  11.009 -0.0380  1.1047  0.9929
  980MOL0     H32251   7.585   5.349  11.009 -0.6295  0.6756  2.4964
  980MOL0     H32252   7.315   5.615  10.933 -2.5452  0.6267  1.9060
  980MOL0     H32253   7.335   5.438  10.963  1.3289 -0.4741 -1.2209
  980MOL0     H32254   7.184   5.570  11.124  0.4556 -0.0537  0.9625
  980MOL0     H32255   7.324   5.674  11.171  0.6094 -1.6933  3.6427
  980MOL0     H32256   7.453   5.487  11.260  0.2705  1.2419  0.6289
  980MOL0     H32257   7.323   5.377  11.217  2.3187 -0.6353 -0.5309
  980MOL0     H32258   7.165   5.542  11.349 -0.3379 -1.1929 -0.5978
  980MOL0     H32259   7.308   5.617  11.415 -1.0575  0.4545 -0.4983
  980MOL0     H32260   7.256   5.254  11.647  3.4705  2.5279 -2.4938
  980MOL0     H32261   7.155   5.265  12.014 -0.0798  0.3741  0.4294
  980MOL0     H32262   7.100   5.156  11.876  1.7248 -1.1240 -1.0313
  980MOL0     H32263   7.265   5.202  11.900 -0.8064 -1.2247  1.8406
  980MOL0     H32264   6.733   5.640  12.055 -1.6004 -0.0948 -0.5560
  980MOL0     H32265   6.602   5.666  12.258  1.6862 -0.5148  0.6841
  980MOL0     H32266   6.781   5.704  12.687  1.4309  0.8083 -1.0668
  980MOL0     H32267   6.819   5.841  12.577  1.0729 -0.1449  1.2501
  980MOL0     H32268   6.584   5.922  12.603 -1.4912  2.0958  2.5552
  980MOL0     H32269   6.552   5.809  12.728  0.1527  1.1218  0.4163
  980MOL0     H32270   6.623   6.039  12.812  0.6522  1.7607 -0.6643
  980MOL0     H32271   6.774   6.000  12.716  1.4194 -0.5013  1.8914
  980MOL0     H32272   6.682   5.875  12.975  0.5801  1.7507  0.0048
  980MOL0     H32273   6.821   5.809  12.878  3.4385  1.6595  0.6734
  980MOL0     H32274   6.830   6.088  12.968 -2.0142 -1.0355 -1.2476
  980MOL0     H32275   6.947   6.016  12.883 -0.8013  0.4664 -1.2338
  980MOL0     H32276   6.980   6.034  13.124  1.2676 -0.1722 -1.2458
  980MOL0     H32277   6.824   5.958  13.158  0.1674 -0.2831  1.0393
  980MOL0     H32278   7.034   5.791  13.025  1.5829 -0.8643  1.9888
  980MOL0     H32279   6.897   5.741  13.120 -0.3246 -1.8115 -4.0641
  980MOL0     H32280   7.091   5.709  13.251 -2.0407 -0.6127 -1.4109
  980MOL0     H32281   6.998   5.835  13.330 -1.3513 -0.5166 -1.0984
  980MOL0     H32282   6.947   5.632  12.500 -1.2858 -0.4301  0.6789
  980MOL0     H32283   7.085   5.599  12.290 -0.2987  0.5048  3.0825
  980MOL0     H32284   7.045   5.673  11.782 -0.3144 -0.6617 -0.0742
  980MOL0     H32285   7.144   5.643  11.568  1.0597  2.3041  3.1357
  980MOL0     H32286   8.170   4.949  10.311  0.2262  4.8196  1.7362
  980MOL0     H32287   8.090   4.765  10.156  3.1880 -1.1921 -3.5544
  980MOL0     H32288   8.011   4.515   9.822 -0.2838  0.1418 -0.6221
  980MOL0     H32289   7.921   4.358   9.661  2.0819  0.2948  3.5036
  980MOL0     H32290   7.658   4.324   9.398 -1.0782  2.1960  0.7801
  980MOL0     H32291   7.813   4.354   9.463  1.1732 -3.2966 -0.6505
  980MOL0     H32292   7.824   4.141   9.579  1.5562 -1.5535 -2.9382
  980MOL0     H32293   7.820   4.141   9.408  1.2588 -0.0290  1.8908
  980MOL0     H32294   7.559   4.101   9.547  2.4808  4.0374  0.5725
  980MOL0     H32295   7.690   3.977   9.562  0.1554 -1.0980 -1.9313
  980MOL0     H32296   7.558   3.898   9.371  1.2742 -0.7262 -0.5429
  980MOL0     H32297   7.694   3.979   9.298  1.1302  0.7188  1.3320
  980MOL0     H32298   7.342   4.207   9.211  0.2634 -2.0751 -1.5947
  980MOL0     H32299   7.518   4.514   9.750 -0.0154 -4.2657  3.4873
  980MOL0     H32300   7.639   4.692   9.900 -1.0838 -0.1670 -1.7778
  981MOL0     O32301   6.107   6.678   9.637  0.9725 -0.0233  0.5050
  981MOL0     C32302   6.064   6.629   9.533  0.2035  0.2655  0.1607
  981MOL0     O32303   6.084   6.506   9.488 -0.1776  0.0254  0.0547
  981MOL0     C32304   6.172   6.431   9.566 -0.4626  0.1870  0.6395
  981MOL0     C32305   6.140   6.299   9.598 -0.9669  0.5896 -0.0090
  981MOL0     C32306   6.231   6.211   9.650 -0.2414 -0.0317  0.0052
  981MOL0     C32307   6.354   6.257   9.692 -0.2301 -0.5572 -0.4573
  981MOL0     O32308   6.444   6.166   9.751 -0.7291  0.3473 -1.1944
  981MOL0     C32309   6.584   6.198   9.772  0.6916  0.4299 -0.1687
  981MOL0     C32310   6.661   6.085   9.843  0.1775 -0.5368 -0.9580
  981MOL0     C32311   6.809   6.115   9.886  0.3000  1.6067  0.6387
  981MOL0     C32312   6.895   6.121   9.758  0.3155  0.1485  0.3328
  981MOL0     C32313   7.041   6.145   9.778 -0.3741 -0.4944 -0.4327
  981MOL0     C32314   7.109   6.133   9.641  0.1228  0.9744  0.5457
  981MOL0     C32315   7.264   6.142   9.641 -0.3861 -0.1433 -0.5207
  981MOL0     C32316   7.318   6.283   9.675 -0.7854 -0.6264  0.3791
  981MOL0     N32317   7.321   6.302   9.820  0.1416  0.3776 -0.2719
  981MOL0     C32318   7.306   6.419   9.882 -0.5570 -1.0369 -0.3874
  981MOL0     C32319   7.350   6.403  10.010  0.5541  1.0690 -0.2913
  981MOL0     C32320   7.359   6.498  10.115 -0.0681  0.7109 -0.6763
  981MOL0     C32321   7.455   6.620  10.105 -0.0628 -0.3947  0.8854
  981MOL0     C32322   7.466   6.702  10.233 -0.1452  0.1086 -0.6713
  981MOL0     C32323   7.586   6.792  10.222 -0.4276 -0.0346  0.0753
  981MOL0     O32324   7.585   6.857  10.346  0.5612 -0.4599  0.5187
  981MOL0     C32325   7.697   6.942  10.370  0.5011  0.3344  0.3507
  981MOL0     C32326   7.790   6.908  10.470  0.7149  0.3335 -0.0327
  981MOL0     C32327   7.887   7.000  10.506 -0.5477 -0.1080 -0.0733
  981MOL0     C32328   7.984   6.960  10.618 -0.4486 -1.3796  0.6371
  981MOL0     C32329   7.884   7.133  10.453 -0.4307 -0.3223  0.0380
  981MOL0     C32330   7.983   7.244  10.477 -0.4992  0.6072 -1.0251
  981MOL0     O32331   7.934   7.378  10.457 -0.3743  0.5320  0.5219
  981MOL0     C32332   8.023   7.474  10.471  1.0905  0.4420  0.0946
  981MOL0     C32333   8.088   7.528  10.355  0.1771  0.1427 -0.7068
  981MOL0     C32334   8.174   7.642  10.371  0.5368 -0.4355  0.1146
  981MOL0     C32335   8.197   7.702  10.500  0.4482  0.3478 -0.1938
  981MOL0     O32336   8.295   7.791  10.532  0.3777  0.2253  1.7018
  981MOL0     C32337   8.381   7.836  10.427 -0.3406 -0.3045  0.7869
  981MOL0     C32338   8.313   7.935  10.328 -0.5905 -0.8186  0.4373
  981MOL0     C32339   8.241   8.042  10.410  0.5454  0.4547  0.2481
  981MOL0     C32340   8.311   8.127  10.524 -0.7309 -0.0121 -0.0600
  981MOL0     C32341   8.212   8.223  10.588 -0.2258  0.1686 -0.0328
  981MOL0     C32342   8.089   8.162  10.662 -0.2503 -0.0937 -0.0708
  981MOL0     C32343   8.024   8.261  10.752 -0.3769 -0.3362 -0.2517
  981MOL0     C32344   7.885   8.240  10.805 -0.1870 -0.2003 -0.1520
  981MOL0    Cl32345   7.760   8.231  10.670 -0.3285 -0.7005 -0.1962
  981MOL0     C32346   8.127   7.648  10.607 -0.0051 -0.4461 -0.6771
  981MOL0     C32347   8.043   7.541  10.586  0.0106  1.1789  0.8173
  981MOL0     O32348   8.101   7.212  10.485  0.5115 -0.0765 -0.6994
  981MOL0     C32349   7.787   7.160  10.348  0.1900  0.6297 -0.2958
  981MOL0     C32350   7.702   7.062  10.302  0.2944  0.4055 -0.6087
  981MOL0     N32351   7.361   6.267  10.033 -0.3415  0.0970  0.6775
  981MOL0     N32352   7.360   6.208   9.916 -0.6032  0.6924 -0.0916
  981MOL0     C32353   6.391   6.392   9.663 -0.3621  0.1043 -0.5024
  981MOL0     C32354   6.305   6.473   9.597 -0.2311 -0.5784  0.3219
  981MOL0     C32355   5.975   6.710   9.444 -0.0782  0.0545  0.6720
  981MOL0     C32356   5.944   6.841   9.481 -0.3174  0.1678  0.3550
  981MOL0     C32357   5.871   6.923   9.395  1.0660 -0.3940 -0.0400
  981MOL0     C32358   5.835   6.886   9.267 -0.0184 -0.6670  0.0007
  981MOL0     O32359   5.759   6.977   9.203 -0.4531 -0.4388 -0.0822
  981MOL0     C32360   5.722   6.942   9.076  0.2631  0.7675 -0.2195
  981MOL0     C32361   5.704   7.063   8.992  0.0409  0.7836 -0.4152
  981MOL0     C32362   5.781   7.062   8.853 -0.3129 -0.4726 -1.0950
  981MOL0     C32363   5.935   7.067   8.852 -0.8632 -0.4654  0.5134
  981MOL0     C32364   5.992   7.149   8.957 -0.6128 -0.2691  0.0791
  981MOL0     C32365   6.067   7.217   9.036  0.5778  0.1975  1.0861
  981MOL0     C32366   5.865   6.751   9.224  0.1430 -0.3638  0.1586
  981MOL0     C32367   5.933   6.664   9.314 -0.5484  0.1074 -0.5739
  981MOL0     H32368   6.049   6.261   9.552  0.4771 -1.7288 -1.1392
  981MOL0     H32369   6.211   6.105   9.656 -0.3695  0.0564  2.7618
  981MOL0     H32370   6.629   6.218   9.675  0.9114  0.5632 -0.0414
  981MOL0     H32371   6.597   6.293   9.826 -0.8179  1.8458 -2.1522
  981MOL0     H32372   6.614   6.061   9.939  2.4731 -0.8023  0.1599
  981MOL0     H32373   6.656   5.998   9.776 -3.0999 -0.5441 -0.8783
  981MOL0     H32374   6.823   6.204   9.948 -1.4530  3.2437 -1.1589
  981MOL0     H32375   6.853   6.029   9.936 -0.0414 -0.2748 -2.0840
  981MOL0     H32376   6.891   6.034   9.692  1.3418  2.0751 -2.4705
  981MOL0     H32377   6.856   6.200   9.694 -1.3720 -0.8675  0.0467
  981MOL0     H32378   7.069   6.241   9.821  2.2133 -0.5202 -1.8213
  981MOL0     H32379   7.081   6.065   9.842  3.2693 -2.6327 -4.7608
  981MOL0     H32380   7.078   6.040   9.592 -0.3828  0.4512  1.8229
  981MOL0     H32381   7.070   6.219   9.586 -1.4786  1.8368  2.8635
  981MOL0     H32382   7.315   6.068   9.703  2.7156  1.3404 -1.1186
  981MOL0     H32383   7.295   6.128   9.537 -1.5247  3.5119 -1.5122
  981MOL0     H32384   7.248   6.355   9.631  0.4339 -0.2250 -0.9973
  981MOL0     H32385   7.413   6.317   9.633 -1.0827 -0.0099  0.1844
  981MOL0     H32386   7.286   6.514   9.835  2.1347  0.1130  0.6020
  981MOL0     H32387   7.260   6.544  10.130  0.2866  1.4551 -0.5699
  981MOL0     H32388   7.383   6.446  10.208 -1.6691  0.7862 -0.1811
  981MOL0     H32389   7.423   6.692  10.029  0.7745 -0.0201  0.8822
  981MOL0     H32390   7.557   6.595  10.073  0.1583 -1.3320  2.2414
  981MOL0     H32391   7.475   6.640  10.322 -0.7014 -2.2446 -2.1478
  981MOL0     H32392   7.378   6.767  10.237  1.5528  2.6188 -1.8037
  981MOL0     H32393   7.564   6.861  10.140 -1.5741  1.3088  1.4576
  981MOL0     H32394   7.673   6.726  10.221 -0.0689  0.4367 -0.3446
  981MOL0     H32395   7.769   6.808  10.507 -0.3837  0.1503 -1.0818
  981MOL0     H32396   8.071   6.911  10.572  1.5673  1.2076  1.3789
  981MOL0     H32397   8.018   7.049  10.672 -2.0538 -0.2359 -0.1564
  981MOL0     H32398   7.927   6.904  10.693 -3.8220  0.4859 -0.3336
  981MOL0     H32399   8.071   7.479  10.259 -1.2444 -1.8714  0.4957
  981MOL0     H32400   8.241   7.671  10.290 -0.9679 -1.4830 -1.5815
  981MOL0     H32401   8.465   7.887  10.476  0.5049  0.2014 -1.1255
  981MOL0     H32402   8.427   7.754  10.373  1.3263  1.3742 -0.4596
  981MOL0     H32403   8.382   7.984  10.259 -1.5668  2.7373  1.7558
  981MOL0     H32404   8.238   7.885  10.266  0.3953 -0.0944 -1.3845
  981MOL0     H32405   8.149   7.993  10.445 -0.2931  0.7228 -1.4802
  981MOL0     H32406   8.190   8.105  10.337 -1.7052  0.7004  1.9190
  981MOL0     H32407   8.351   8.048  10.589 -0.1773  0.0965 -0.2626
  981MOL0     H32408   8.392   8.188  10.484 -0.7711  0.2987  0.3299
  981MOL0     H32409   8.169   8.294  10.517 -0.1500  2.4912  2.0898
  981MOL0     H32410   8.279   8.274  10.658  0.2725  0.4688 -0.7250
  981MOL0     H32411   8.009   8.127  10.596 -1.4207  0.3863  1.0297
  981MOL0     H32412   8.119   8.071  10.714  1.5788  2.0513  2.9540
  981MOL0     H32413   8.026   8.357  10.698 -0.0597 -1.2362 -1.9102
  981MOL0     H32414   8.095   8.262  10.835  0.4596  1.1588 -0.9374
  981MOL0     H32415   7.857   8.314  10.879  1.2089 -2.0344  2.3567
  981MOL0     H32416   7.888   8.145  10.858 -0.6164  0.2810  0.7379
  981MOL0     H32417   8.138   7.704  10.700  0.1182  2.6846 -2.4478
  981MOL0     H32418   7.995   7.513  10.680 -0.7604 -0.2837  0.0219
  981MOL0     H32419   7.788   7.259  10.304 -0.4508  2.0024  2.5742
  981MOL0     H32420   7.632   7.073  10.220 -0.3917 -0.4044 -0.1370
  981MOL0     H32421   6.483   6.444   9.690  0.5163 -1.7363  0.2114
  981MOL0     H32422   6.328   6.577   9.580  0.5520 -0.6996  0.5502
  981MOL0     H32423   5.974   6.879   9.579 -0.7170  0.7022  0.2713
  981MOL0     H32424   5.850   7.023   9.431  0.7781 -1.1519  2.0205
  981MOL0     H32425   5.798   6.876   9.033 -2.5759 -3.7181  0.9788
  981MOL0     H32426   5.638   6.872   9.084  1.0470 -0.3063 -1.0678
  981MOL0     H32427   5.730   7.159   9.037  0.0608  0.8384 -0.5456
  981MOL0     H32428   5.596   7.069   8.980 -0.7572 -2.3321  3.2352
  981MOL0     H32429   5.750   7.155   8.805  1.9290  0.0591 -1.6447
  981MOL0     H32430   5.743   6.982   8.788 -3.8909  0.0493  0.1720
  981MOL0     H32431   5.979   7.094   8.756 -2.6449  0.3046 -0.1264
  981MOL0     H32432   5.968   6.963   8.863  0.7049 -0.3154 -2.0022
  981MOL0     H32433   6.139   7.267   9.097 -0.2376  0.2484  2.0292
  981MOL0     H32434   5.822   6.702   9.138  0.9211  0.0972 -0.5059
  981MOL0     H32435   5.966   6.565   9.283  0.1567 -0.7314  2.5693
  982MOL0     O32436   1.998   3.376   1.745  0.7665  0.3429 -0.2640
  982MOL0     C32437   1.930   3.358   1.844 -0.7037  0.0403  1.1213
  982MOL0     O32438   1.972   3.387   1.971  0.1976 -0.2653 -0.1312
  982MOL0     C32439   2.104   3.426   1.991  0.6835 -0.2551  0.6465
  982MOL0     C32440   2.133   3.565   1.965 -0.3022  0.9814  0.6964
  982MOL0     C32441   2.252   3.619   1.998  0.1061  0.2072 -0.3138
  982MOL0     C32442   2.352   3.532   2.047 -1.2699  0.0511  0.0788
  982MOL0     O32443   2.477   3.589   2.078 -0.0198 -0.3157 -0.5861
  982MOL0     C32444   2.583   3.495   2.075 -0.1391  0.2522 -0.3988
  982MOL0     C32445   2.720   3.558   2.049 -0.3505 -1.1757  0.2514
  982MOL0     C32446   2.719   3.692   1.978  0.0042  0.0018  0.3784
  982MOL0     C32447   2.853   3.755   1.973 -0.0245  0.3339 -0.0680
  982MOL0     C32448   2.853   3.874   1.883 -0.9507 -0.0965  0.0583
  982MOL0     C32449   2.997   3.939   1.865 -1.1973  0.2505  0.3842
  982MOL0     C32450   3.105   3.834   1.826 -0.0154 -0.4102 -0.5597
  982MOL0     C32451   3.084   3.775   1.693 -0.6066 -0.7069 -0.1060
  982MOL0     N32452   3.164   3.661   1.697  0.5479 -0.5797 -1.4104
  982MOL0     C32453   3.120   3.539   1.739  0.4631  0.1351 -0.6906
  982MOL0     C32454   3.236   3.466   1.755  0.5607 -0.4909  0.1526
  982MOL0     C32455   3.253   3.328   1.801 -0.3067  1.5362  0.4290
  982MOL0     C32456   3.199   3.310   1.940  0.0812  0.0580 -0.1700
  982MOL0     C32457   3.305   3.308   2.048  0.7427  0.1787  0.5737
  982MOL0     C32458   3.364   3.448   2.065  0.2289  0.0549 -0.3739
  982MOL0     O32459   3.275   3.527   2.147  0.7466  0.1052 -0.2723
  982MOL0     C32460   3.278   3.670   2.148 -0.8133  1.0907  0.4601
  982MOL0     C32461   3.358   3.742   2.057  0.8232 -0.4975 -0.0191
  982MOL0     C32462   3.357   3.885   2.051 -0.9791  0.1821 -0.2049
  982MOL0     C32463   3.437   3.954   1.948  0.5137  0.5121 -0.1001
  982MOL0     C32464   3.292   3.952   2.151 -0.0721 -1.2954 -0.6679
  982MOL0     C32465   3.300   4.103   2.166  0.2002 -0.6058 -0.2688
  982MOL0     O32466   3.330   4.157   2.290  0.2546  0.1568 -0.2426
  982MOL0     C32467   3.359   4.301   2.296  0.0701  0.0051  0.4998
  982MOL0     C32468   3.288   4.377   2.388  0.2017  0.6152 -0.1102
  982MOL0     C32469   3.317   4.510   2.394  0.2915  0.5103 -0.0427
  982MOL0     C32470   3.421   4.570   2.319  0.8785 -0.5648 -0.5233
  982MOL0     O32471   3.454   4.700   2.369 -0.2446 -0.5921  0.3427
  982MOL0     C32472   3.581   4.761   2.325  0.4384  0.7216 -0.9167
  982MOL0     C32473   3.563   4.821   2.188 -0.1240 -0.6177  0.1258
  982MOL0     C32474   3.459   4.934   2.185  0.6586  0.3726 -1.1305
  982MOL0     C32475   3.507   5.049   2.098 -0.1842  0.3735 -0.2712
  982MOL0     C32476   3.405   5.156   2.085  0.5283 -0.4137  0.1838
  982MOL0     C32477   3.433   5.247   1.972  0.1137  0.0155 -0.0217
  982MOL0     C32478   3.319   5.350   1.947 -0.6751  0.4378 -0.2545
  982MOL0     C32479   3.359   5.452   1.845 -0.3033  1.4866 -0.5913
  982MOL0    Cl32480   3.446   5.376   1.701 -0.0112  0.4280  0.2917
  982MOL0     C32481   3.493   4.488   2.237 -0.3640 -0.1848 -0.7214
  982MOL0     C32482   3.462   4.353   2.218 -0.1685 -0.3081 -0.2684
  982MOL0     O32483   3.262   4.173   2.075  0.0052  0.7484 -0.0895
  982MOL0     C32484   3.208   3.880   2.230 -0.0217 -0.9443 -0.5412
  982MOL0     C32485   3.210   3.742   2.242  0.2346 -0.1200  0.7804
  982MOL0     N32486   3.347   3.548   1.730  0.0331  0.5920  0.2340
  982MOL0     N32487   3.305   3.664   1.687  0.3226  0.4062 -0.2059
  982MOL0     C32488   2.322   3.398   2.076  0.2289 -0.5167 -0.6437
  982MOL0     C32489   2.194   3.344   2.052 -0.4871  0.6940 -0.3166
  982MOL0     C32490   1.790   3.310   1.812  0.3696  0.1688 -0.1919
  982MOL0     C32491   1.758   3.253   1.689  0.7763 -0.3455 -0.4421
  982MOL0     C32492   1.625   3.214   1.677 -1.2609  0.7462 -0.4801
  982MOL0     C32493   1.527   3.226   1.775  0.0100  1.0712 -0.2557
  982MOL0     O32494   1.405   3.175   1.766 -0.1888  1.3691 -0.5258
  982MOL0     C32495   1.352   3.088   1.661 -0.3975  0.4973  0.4220
  982MOL0     C32496   1.298   3.167   1.544 -0.2174 -0.7409 -0.0861
  982MOL0     C32497   1.203   3.090   1.452 -0.1035 -0.9929 -0.7134
  982MOL0     C32498   1.144   3.154   1.333 -0.4638  0.4644 -0.2420
  982MOL0     C32499   1.248   3.197   1.246 -0.4061 -0.3744  0.3211
  982MOL0     C32500   1.319   3.242   1.160  0.8135 -0.0028 -0.7898
  982MOL0     C32501   1.561   3.310   1.876  0.4417 -0.3128 -0.8783
  982MOL0     C32502   1.694   3.337   1.906  0.0161 -0.1820 -0.1373
  982MOL0     H32503   2.061   3.638   1.931  0.7060  0.6738 -2.4644
  982MOL0     H32504   2.255   3.726   1.979 -1.0336  0.5488  1.1973
  982MOL0     H32505   2.577   3.454   2.176 -2.5944 -0.7162 -0.8865
  982MOL0     H32506   2.564   3.406   2.015 -0.9759 -0.6553  1.1513
  982MOL0     H32507   2.775   3.569   2.143 -0.8471  2.1680  0.2704
  982MOL0     H32508   2.773   3.490   1.982 -0.2475 -0.9585  0.1099
  982MOL0     H32509   2.675   3.670   1.880 -1.6513 -0.7932  1.2546
  982MOL0     H32510   2.645   3.756   2.026 -0.5033 -2.2013  2.7341
  982MOL0     H32511   2.874   3.783   2.076 -4.4139 -3.4534  2.2303
  982MOL0     H32512   2.933   3.681   1.956  1.6777  1.6160  1.8718
  982MOL0     H32513   2.818   3.845   1.783  2.7604  2.1741 -2.1456
  982MOL0     H32514   2.783   3.949   1.922  1.0502  1.3176  1.0906
  982MOL0     H32515   2.994   4.023   1.796 -0.3924 -1.1945 -1.4954
  982MOL0     H32516   3.031   3.980   1.961  1.2459  2.8564 -1.4521
  982MOL0     H32517   3.198   3.891   1.817 -0.0152 -0.2249  0.4394
  982MOL0     H32518   3.133   3.759   1.902  0.2306  0.7350  0.5209
  982MOL0     H32519   3.116   3.837   1.609 -0.7423 -0.3257  0.1249
  982MOL0     H32520   2.982   3.736   1.681 -0.8399  0.4732 -2.7309
  982MOL0     H32521   3.016   3.515   1.761  0.5925  0.4518  0.3423
  982MOL0     H32522   3.219   3.257   1.725  0.2961  0.1603  1.3966
  982MOL0     H32523   3.362   3.314   1.807 -0.3978  0.5933 -0.0240
  982MOL0     H32524   3.150   3.213   1.931  1.6858 -0.6178 -2.5743
  982MOL0     H32525   3.121   3.386   1.948 -0.5382 -0.1516 -3.1085
  982MOL0     H32526   3.386   3.235   2.037  0.0195 -0.9825  2.4445
  982MOL0     H32527   3.255   3.287   2.143  0.9329 -1.1740  0.3931
  982MOL0     H32528   3.391   3.504   1.975  2.7512 -0.0777  0.2133
  982MOL0     H32529   3.461   3.436   2.114  1.0248  1.4823 -1.5205
  982MOL0     H32530   3.422   3.694   1.984  3.1811  0.9564  0.9833
  982MOL0     H32531   3.516   4.015   1.994  3.1790 -0.1265 -3.3949
  982MOL0     H32532   3.481   3.886   1.875  3.8178  1.7370  0.5737
  982MOL0     H32533   3.371   4.022   1.894  1.6130 -0.5692 -2.9918
  982MOL0     H32534   3.201   4.354   2.448 -3.6771  0.9694 -4.9222
  982MOL0     H32535   3.257   4.577   2.454  2.1111  2.5842 -0.4136
  982MOL0     H32536   3.621   4.830   2.400  0.7497 -2.1057  1.7285
  982MOL0     H32537   3.660   4.686   2.314 -2.9769 -3.1923 -1.0709
  982MOL0     H32538   3.657   4.862   2.149 -2.4050  1.6739 -3.4966
  982MOL0     H32539   3.542   4.741   2.116 -0.1037  1.8071 -2.7423
  982MOL0     H32540   3.456   4.965   2.290  1.4376 -3.0964  0.0699
  982MOL0     H32541   3.358   4.897   2.163 -0.3930  2.2227  0.2890
  982MOL0     H32542   3.604   5.090   2.126  1.1763 -2.3736 -0.6199
  982MOL0     H32543   3.522   5.007   1.998 -2.6442 -2.7896  0.5386
  982MOL0     H32544   3.394   5.206   2.182 -0.7560  0.5155 -0.4090
  982MOL0     H32545   3.311   5.106   2.064  1.0508 -1.2764 -0.1354
  982MOL0     H32546   3.529   5.299   1.979  2.1828 -3.1463 -2.0039
  982MOL0     H32547   3.452   5.182   1.886  1.8553 -3.3883  2.6772
  982MOL0     H32548   3.291   5.389   2.045 -2.3334  0.0554 -0.5451
  982MOL0     H32549   3.229   5.302   1.907 -0.9029 -0.0162  0.7818
  982MOL0     H32550   3.427   5.517   1.901  0.7372  0.1070 -0.1969
  982MOL0     H32551   3.267   5.502   1.813  0.0670  1.1922 -2.2365
  982MOL0     H32552   3.576   4.518   2.174 -0.6437  0.0340 -0.9864
  982MOL0     H32553   3.511   4.291   2.144 -0.1561 -0.4995 -0.1028
  982MOL0     H32554   3.141   3.937   2.293 -0.8643 -1.1312 -1.2586
  982MOL0     H32555   3.164   3.690   2.326  1.9325 -0.0959  1.7753
  982MOL0     H32556   2.389   3.332   2.129  1.7906  1.7126  0.3493
  982MOL0     H32557   2.169   3.248   2.095 -0.2321  0.1584 -1.3453
  982MOL0     H32558   1.835   3.242   1.612  3.2165  4.4021  0.9196
  982MOL0     H32559   1.596   3.163   1.585  0.2119  3.2925 -2.5036
  982MOL0     H32560   1.421   3.007   1.634 -1.8302 -0.4089 -0.6973
  982MOL0     H32561   1.268   3.032   1.701  0.8847 -4.1796 -2.5850
  982MOL0     H32562   1.386   3.217   1.501  0.4915  0.3508  2.4456
  982MOL0     H32563   1.235   3.246   1.586  0.2219 -0.8656  0.8360
  982MOL0     H32564   1.115   3.071   1.514  0.8961  1.2942  1.6055
  982MOL0     H32565   1.242   2.988   1.439 -0.3859 -1.2893  0.5535
  982MOL0     H32566   1.093   3.248   1.355 -1.5977 -0.9339  4.1410
  982MOL0     H32567   1.076   3.081   1.289  0.6703 -1.0381  0.4079
  982MOL0     H32568   1.389   3.271   1.084 -1.0759  0.8828 -2.2766
  982MOL0     H32569   1.484   3.337   1.947 -0.1105  0.8923 -1.8948
  982MOL0     H32570   1.709   3.373   2.007 -2.2458  1.0500 -0.1558
  983MOL0     O32571  10.566   7.801   3.644  0.4835  0.3773 -0.9579
  983MOL0     C32572  10.467   7.729   3.664 -0.2698  0.3957  0.1384
  983MOL0     O32573  10.461   7.599   3.637  0.4340 -0.5914 -0.2131
  983MOL0     C32574  10.546   7.527   3.559 -1.0208  0.3051  0.4059
  983MOL0     C32575  10.663   7.471   3.614  0.3026 -0.9766 -0.3109
  983MOL0     C32576  10.744   7.392   3.533 -0.3553 -0.0581 -0.1198
  983MOL0     C32577  10.712   7.373   3.396  0.7076  0.5526  0.5062
  983MOL0     O32578  10.803   7.311   3.312  0.0533  0.2548  1.3463
  983MOL0     C32579  10.934   7.264   3.348 -0.7831  0.2118  0.2770
  983MOL0     C32580  11.007   7.192   3.234  0.0471 -0.3679  0.1472
  983MOL0     C32581  11.161   7.169   3.262  0.5542  0.4779 -0.3708
  983MOL0     C32582  11.184   7.033   3.330 -0.3291  1.1225 -0.4035
  983MOL0     C32583  11.340   7.002   3.325  0.4331 -0.1859 -1.1370
  983MOL0     C32584  11.416   7.077   3.429 -0.4925  0.4502 -0.0243
  983MOL0     C32585  11.534   6.987   3.478 -0.4449 -0.5326 -0.5907
  983MOL0     C32586  11.477   6.884   3.585  0.3298 -0.1028 -0.2761
  983MOL0     N32587  11.583   6.810   3.645  0.1384  0.0367 -0.8890
  983MOL0     C32588  11.644   6.843   3.767 -0.3694 -0.5410  0.1330
  983MOL0     C32589  11.735   6.751   3.777 -0.0660 -1.0240  0.8233
  983MOL0     C32590  11.855   6.776   3.864 -0.4672 -0.3081  0.0512
  983MOL0     C32591  11.846   6.701   3.999  0.0253  0.4790  1.4039
  983MOL0     C32592  11.916   6.784   4.097 -0.2935 -0.9763 -1.1066
  983MOL0     C32593  11.936   6.693   4.231 -0.2019 -0.7930  0.4193
  983MOL0     O32594  11.975   6.780   4.329  0.2995 -0.3556  0.1133
  983MOL0     C32595  11.895   6.879   4.375 -0.4417 -0.4390 -0.3468
  983MOL0     C32596  11.756   6.873   4.370 -0.1926  0.0411 -0.1620
  983MOL0     C32597  11.673   6.967   4.440  0.7930 -0.1228 -0.8344
  983MOL0     C32598  11.522   6.967   4.411 -0.0479 -0.2873 -0.3660
  983MOL0     C32599  11.737   7.056   4.522  0.7508 -0.3090  0.6556
  983MOL0     C32600  11.666   7.147   4.610  0.3369  0.0210  0.8933
  983MOL0     O32601  11.699   7.275   4.593  0.5382  0.3986  0.1340
  983MOL0     C32602  11.649   7.376   4.682  0.4160 -0.5470  0.3146
  983MOL0     C32603  11.622   7.355   4.817  0.3780  0.1299  0.4260
  983MOL0     C32604  11.592   7.465   4.901 -0.2854 -0.2748 -0.5342
  983MOL0     C32605  11.576   7.596   4.856 -0.4579  0.4441  0.3772
  983MOL0     O32606  11.533   7.714   4.920  0.3166  0.2945  0.0595
  983MOL0     C32607  11.438   7.691   5.028 -0.6398 -0.9247  0.6244
  983MOL0     C32608  11.401   7.831   5.079 -1.1311  0.8289  1.1324
  983MOL0     C32609  11.325   7.838   5.215 -0.0335 -0.1391 -0.2664
  983MOL0     C32610  11.184   7.778   5.217 -0.4881  0.3745  0.0916
  983MOL0     C32611  11.122   7.832   5.344 -0.1060  0.3223  0.6777
  983MOL0     C32612  11.190   7.798   5.477 -0.0248  0.0785  0.2407
  983MOL0     C32613  11.098   7.828   5.598  0.2220 -0.2076  0.7662
  983MOL0     C32614  11.141   7.948   5.684 -0.0595 -0.2415 -0.0297
  983MOL0    Cl32615  11.116   8.103   5.594 -0.0441  0.3286  0.5101
  983MOL0     C32616  11.606   7.613   4.718 -1.2842  0.1307 -0.0389
  983MOL0     C32617  11.635   7.509   4.632  1.0423  0.1761 -0.6469
  983MOL0     O32618  11.571   7.106   4.680  0.7315  0.6334  0.2153
  983MOL0     C32619  11.877   7.049   4.533 -0.3199  0.7239  0.6822
  983MOL0     C32620  11.957   6.967   4.451 -0.3661  0.5292 -0.0961
  983MOL0     N32621  11.740   6.662   3.672  0.1838 -0.0821 -0.1032
  983MOL0     N32622  11.633   6.685   3.596 -0.1922 -0.5049 -0.1811
  983MOL0     C32623  10.598   7.426   3.340  0.1799  0.1187  0.3568
  983MOL0     C32624  10.512   7.496   3.425 -0.3356 -0.9952 -0.4904
  983MOL0     C32625  10.350   7.780   3.736 -0.2970  0.6024  0.2215
  983MOL0     C32626  10.236   7.693   3.762  0.8673 -1.2571 -0.4210
  983MOL0     C32627  10.121   7.740   3.833  0.0335  0.0726 -1.0448
  983MOL0     C32628  10.117   7.868   3.877 -0.1278  0.0218 -0.6728
  983MOL0     O32629  10.002   7.898   3.943 -0.7983  0.5024 -0.4128
  983MOL0     C32630   9.968   8.032   3.979  0.3486 -0.0147 -0.9028
  983MOL0     C32631   9.864   8.090   3.885  0.1134 -0.6921 -0.2977
  983MOL0     C32632   9.728   8.011   3.876  0.6367 -0.0508 -0.6239
  983MOL0     C32633   9.637   8.047   3.760  1.2904 -0.3027  0.1786
  983MOL0     C32634   9.664   8.180   3.711  0.0925 -0.0382 -0.9085
  983MOL0     C32635   9.683   8.295   3.681 -0.3347 -0.2008 -0.0203
  983MOL0     C32636  10.223   7.960   3.842  0.0004  0.1457 -0.2418
  983MOL0     C32637  10.338   7.915   3.782 -0.7514  0.4429 -0.0295
  983MOL0     H32638  10.671   7.476   3.722  0.7225  0.0895 -0.3856
  983MOL0     H32639  10.838   7.352   3.571  0.5353  0.6780 -1.4591
  983MOL0     H32640  10.995   7.348   3.385  0.9427 -1.7731  2.2030
  983MOL0     H32641  10.918   7.185   3.422 -0.6482  0.3103  0.4116
  983MOL0     H32642  10.965   7.092   3.226  1.0999 -0.9226  1.1770
  983MOL0     H32643  10.997   7.248   3.141  0.5084 -1.4775 -0.5859
  983MOL0     H32644  11.206   7.170   3.162 -1.2758 -0.8865 -1.2527
  983MOL0     H32645  11.208   7.253   3.315  1.1894 -1.0580  1.5981
  983MOL0     H32646  11.152   7.021   3.434 -0.7134  0.5289 -0.5843
  983MOL0     H32647  11.137   6.951   3.274  1.0242 -1.2723  1.8012
  983MOL0     H32648  11.352   6.893   3.322  2.5937  0.0364 -2.8910
  983MOL0     H32649  11.383   7.036   3.231  0.1706  1.6078 -0.6398
  983MOL0     H32650  11.458   7.168   3.386  1.8963 -1.5697 -2.3582
  983MOL0     H32651  11.352   7.114   3.509 -1.3572  0.4316 -0.7071
  983MOL0     H32652  11.591   6.947   3.394 -2.3604 -3.1311 -0.7924
  983MOL0     H32653  11.596   7.063   3.526 -0.6379  1.4423 -3.2313
  983MOL0     H32654  11.405   6.821   3.531 -1.5272  2.0564 -0.5056
  983MOL0     H32655  11.417   6.926   3.666  0.6839 -1.9571  1.0092
  983MOL0     H32656  11.627   6.928   3.833  0.8263  0.0775 -0.3198
  983MOL0     H32657  11.946   6.739   3.816 -1.3361 -2.4748 -0.0485
  983MOL0     H32658  11.866   6.882   3.889 -1.1578  0.0124 -0.9264
  983MOL0     H32659  11.892   6.603   3.985 -0.5614  0.0577  2.3297
  983MOL0     H32660  11.744   6.684   4.033  0.7885 -1.3477  2.9569
  983MOL0     H32661  11.868   6.880   4.119  2.2815 -0.0661  1.1687
  983MOL0     H32662  12.010   6.823   4.058 -1.5241  2.2289 -1.1988
  983MOL0     H32663  12.010   6.612   4.219 -0.4182 -0.6058 -3.3417
  983MOL0     H32664  11.843   6.641   4.254 -0.3937 -0.1743  1.0646
  983MOL0     H32665  11.692   6.813   4.306 -1.3069  1.5305 -0.5275
  983MOL0     H32666  11.489   6.885   4.347 -1.0680 -0.2592  0.1077
  983MOL0     H32667  11.471   6.956   4.507 -2.1060  0.7925 -1.2852
  983MOL0     H32668  11.501   7.055   4.350  2.0432 -1.0643 -2.3429
  983MOL0     H32669  11.615   7.253   4.852  0.1162 -1.0880 -2.8216
  983MOL0     H32670  11.565   7.443   5.004 -0.6951  1.4249 -0.2445
  983MOL0     H32671  11.361   7.631   4.979  0.2190 -3.5871  2.3246
  983MOL0     H32672  11.499   7.635   5.099  2.1798  1.3407  0.1688
  983MOL0     H32673  11.498   7.878   5.093 -0.3231  0.6789 -2.7534
  983MOL0     H32674  11.357   7.893   5.000  3.1749  4.4077  1.1515
  983MOL0     H32675  11.313   7.945   5.235  1.1482  0.2329 -1.4108
  983MOL0     H32676  11.389   7.794   5.292  2.1737  3.8337  0.4321
  983MOL0     H32677  11.122   7.812   5.133 -0.2534  0.7321  0.0591
  983MOL0     H32678  11.183   7.669   5.230 -4.7697  0.1134 -0.7552
  983MOL0     H32679  11.025   7.781   5.338 -0.4828  1.2169 -2.2318
  983MOL0     H32680  11.092   7.937   5.338 -1.3565 -0.0928 -1.9164
  983MOL0     H32681  11.217   7.692   5.482 -1.4894 -0.3516 -0.6437
  983MOL0     H32682  11.284   7.852   5.493 -0.2673  0.7064 -0.4433
  983MOL0     H32683  11.087   7.737   5.658  0.9278 -0.8675 -0.0744
  983MOL0     H32684  10.999   7.839   5.553  1.1923  0.9077 -1.2658
  983MOL0     H32685  11.248   7.950   5.707  0.5456 -5.2843 -1.3162
  983MOL0     H32686  11.077   7.952   5.773  0.5359  0.1181  0.3917
  983MOL0     H32687  11.598   7.712   4.675  2.0686  0.3476 -0.4372
  983MOL0     H32688  11.674   7.513   4.531  1.3827 -1.4827 -0.6027
  983MOL0     H32689  11.926   7.120   4.599  0.7260 -1.0143  1.8775
  983MOL0     H32690  12.064   6.965   4.465 -0.4918 -0.5736  0.9133
  983MOL0     H32691  10.574   7.399   3.238 -0.5181  1.8751  0.0137
  983MOL0     H32692  10.430   7.542   3.370 -1.1019 -1.1714  0.4785
  983MOL0     H32693  10.222   7.591   3.728 -0.5736 -1.1754 -0.1411
  983MOL0     H32694  10.045   7.669   3.864 -0.1489 -0.2076 -2.0742
  983MOL0     H32695   9.925   8.041   4.079  0.2541  0.7815 -1.0141
  983MOL0     H32696  10.053   8.100   3.971  0.5579 -0.4911 -4.8948
  983MOL0     H32697   9.903   8.078   3.783  0.9855  2.2322 -0.4017
  983MOL0     H32698   9.852   8.194   3.915 -0.0287 -1.2154  1.6288
  983MOL0     H32699   9.671   8.034   3.967  2.1349 -2.0199  0.8986
  983MOL0     H32700   9.745   7.903   3.873  0.7267 -0.0234 -1.1665
  983MOL0     H32701   9.533   8.032   3.793  1.1352  0.5316  0.0991
  983MOL0     H32702   9.655   7.977   3.678  1.6243  0.3870 -0.3486
  983MOL0     H32703   9.705   8.399   3.669  0.2060 -0.3629 -0.4503
  983MOL0     H32704  10.213   8.066   3.866 -1.3723 -0.2413  1.0345
  983MOL0     H32705  10.410   7.993   3.760 -1.5004  0.5916 -2.2777
  984MOL0     O32706   7.377   2.520  11.363  0.3918 -0.2332 -0.1758
  984MOL0     C32707   7.485   2.530  11.302  0.8145 -0.4604 -0.0277
  984MOL0     O32708   7.573   2.627  11.321 -0.5249  0.1299 -0.3121
  984MOL0     C32709   7.548   2.725  11.418 -0.2155  0.1323 -1.1584
  984MOL0     C32710   7.424   2.793  11.428 -0.8960 -0.0480 -0.1698
  984MOL0     C32711   7.394   2.877  11.538  0.4389 -1.0864 -0.0416
  984MOL0     C32712   7.489   2.904  11.635 -0.3415  1.3485 -0.4387
  984MOL0     O32713   7.475   3.001  11.738 -0.2073 -0.3426  0.1292
  984MOL0     C32714   7.408   3.122  11.718 -0.0553 -0.2371 -0.6484
  984MOL0     C32715   7.458   3.201  11.837  0.6169 -0.7676  0.8740
  984MOL0     C32716   7.418   3.341  11.822  0.6059  0.6518 -0.7764
  984MOL0     C32717   7.268   3.376  11.878 -0.9198  0.1982 -0.9570
  984MOL0     C32718   7.210   3.502  11.821 -0.0150 -0.0893  0.3767
  984MOL0     C32719   7.264   3.628  11.902 -0.0387 -0.0736  0.0541
  984MOL0     C32720   7.191   3.758  11.850 -0.0469  0.2111  0.0222
  984MOL0     C32721   7.048   3.766  11.889 -0.3144  0.2312 -0.0265
  984MOL0     N32722   7.025   3.741  12.034  0.6325 -0.0637  0.2711
  984MOL0     C32723   6.978   3.627  12.084  0.0038  0.4967  0.6557
  984MOL0     C32724   7.010   3.637  12.220 -0.5248  0.0107  0.6373
  984MOL0     C32725   6.982   3.523  12.326  0.7644 -0.1175 -0.4960
  984MOL0     C32726   6.942   3.584  12.464  0.0804  0.1424  1.4191
  984MOL0     C32727   6.946   3.491  12.582 -0.0839  0.8061 -0.1609
  984MOL0     C32728   6.848   3.363  12.567  0.0689 -0.9630  0.3590
  984MOL0     O32729   6.899   3.280  12.457  0.1914 -0.6844  0.2155
  984MOL0     C32730   7.008   3.194  12.483  0.8396  0.1077 -0.2207
  984MOL0     C32731   7.079   3.146  12.365 -0.3997  0.2023 -0.3339
  984MOL0     C32732   7.202   3.083  12.363  1.2529  0.3189  0.1271
  984MOL0     C32733   7.270   3.036  12.235  0.1209  0.2664  0.3543
  984MOL0     C32734   7.266   3.062  12.491  0.5836 -0.6815  1.1640
  984MOL0     C32735   7.390   2.973  12.504 -0.2486 -0.5224 -0.4181
  984MOL0     O32736   7.441   2.980  12.627 -0.1814  0.6871  0.0962
  984MOL0     C32737   7.572   2.951  12.652 -0.1966  0.5613  0.6301
  984MOL0     C32738   7.627   2.826  12.623 -0.0072 -1.1653  0.1687
  984MOL0     C32739   7.756   2.795  12.674  0.2830  1.1603  0.1002
  984MOL0     C32740   7.832   2.884  12.742  0.4909  0.2904 -0.4217
  984MOL0     O32741   7.950   2.856  12.799  0.1275 -0.2846  0.1642
  984MOL0     C32742   8.022   2.747  12.751 -0.5805 -0.0104  0.3149
  984MOL0     C32743   7.981   2.611  12.806  0.0548  0.4314 -0.0423
  984MOL0     C32744   8.087   2.510  12.762  0.5141  0.4325  0.4648
  984MOL0     C32745   8.072   2.459  12.616 -0.5891  0.1456 -0.0341
  984MOL0     C32746   8.182   2.369  12.581  0.0723 -0.2658  1.0533
  984MOL0     C32747   8.153   2.319  12.443 -0.8046 -0.1220  0.7315
  984MOL0     C32748   8.250   2.206  12.407 -0.1312  0.5856 -0.2053
  984MOL0     C32749   8.212   2.148  12.269 -0.5433 -0.3476  0.0235
  984MOL0    Cl32750   8.336   2.026  12.215  0.0699 -0.5644  0.1741
  984MOL0     C32751   7.785   3.015  12.760  0.4441  1.0511  0.7316
  984MOL0     C32752   7.652   3.048  12.726  0.4176  0.1500 -0.3356
  984MOL0     O32753   7.439   2.903  12.416 -0.1613 -0.1106 -0.2179
  984MOL0     C32754   7.195   3.098  12.606  0.0161  0.2946 -0.0683
  984MOL0     C32755   7.075   3.169  12.604 -0.5048  0.0396 -0.7561
  984MOL0     N32756   7.058   3.760  12.242 -0.2120  1.4914 -0.6040
  984MOL0     N32757   7.074   3.824  12.130 -0.2004  0.1008 -0.8152
  984MOL0     C32758   7.612   2.824  11.637  0.2746  0.9226  0.1641
  984MOL0     C32759   7.637   2.749  11.521 -0.2012  0.5369 -0.6911
  984MOL0     C32760   7.528   2.424  11.213  0.4463 -0.1374 -0.0882
  984MOL0     C32761   7.477   2.288  11.206  0.1254  0.0789 -0.0848
  984MOL0     C32762   7.526   2.196  11.118 -0.7992 -0.1559 -0.3343
  984MOL0     C32763   7.645   2.213  11.045  0.2881 -0.3431 -0.4299
  984MOL0     O32764   7.679   2.111  10.956  0.2088 -0.5075  0.1182
  984MOL0     C32765   7.777   2.144  10.853 -0.2555  1.2894 -0.0336
  984MOL0     C32766   7.743   2.044  10.733  0.4537  0.2861  0.5875
  984MOL0     C32767   7.614   2.077  10.657  0.2318 -0.2914 -0.8097
  984MOL0     C32768   7.602   2.217  10.591 -0.4877 -0.2277 -0.7927
  984MOL0     C32769   7.710   2.217  10.488  0.5489  0.3118 -1.2960
  984MOL0     C32770   7.796   2.209  10.403  0.0812 -0.3824 -0.0663
  984MOL0     C32771   7.696   2.349  11.052 -0.0972  0.2951  0.6350
  984MOL0     C32772   7.644   2.448  11.137  0.0204 -0.3632  0.1321
  984MOL0     H32773   7.335   2.782  11.367 -0.6306 -1.6506 -0.3071
  984MOL0     H32774   7.295   2.918  11.554  0.1600 -2.9490  4.9125
  984MOL0     H32775   7.434   3.178  11.628  1.5503 -1.9350 -1.2819
  984MOL0     H32776   7.300   3.107  11.719  0.1164 -1.6542  0.7971
  984MOL0     H32777   7.411   3.168  11.930 -1.9068  0.3477  0.1012
  984MOL0     H32778   7.567   3.199  11.839  0.7320  2.3243  1.8328
  984MOL0     H32779   7.490   3.416  11.857  1.7392 -1.4465  1.6708
  984MOL0     H32780   7.411   3.375  11.718 -0.6138  3.0214  0.0087
  984MOL0     H32781   7.207   3.288  11.855 -1.3750  0.1680  0.2741
  984MOL0     H32782   7.264   3.378  11.987 -0.5915  0.4661 -0.9468
  984MOL0     H32783   7.236   3.496  11.715 -1.2135 -5.9826  0.0560
  984MOL0     H32784   7.101   3.501  11.823 -0.1955  0.0912 -3.3041
  984MOL0     H32785   7.250   3.609  12.009  2.0088  0.9463  0.5513
  984MOL0     H32786   7.373   3.625  11.892 -0.0557 -2.8817 -0.0843
  984MOL0     H32787   7.247   3.840  11.896 -0.7648  1.4260 -1.2050
  984MOL0     H32788   7.200   3.766  11.741  2.2128 -2.5899 -0.0958
  984MOL0     H32789   7.012   3.690  11.820  2.8196  0.2234 -1.8690
  984MOL0     H32790   7.000   3.857  11.852 -1.1330  0.8923  2.4390
  984MOL0     H32791   6.956   3.531  12.039 -0.0968  1.2614 -0.9611
  984MOL0     H32792   6.898   3.465  12.289  0.2111  1.1041 -1.2241
  984MOL0     H32793   7.061   3.449  12.345 -0.0002 -0.6897  0.5519
  984MOL0     H32794   6.839   3.619  12.454 -0.8269 -2.5452  0.3596
  984MOL0     H32795   7.005   3.668  12.494 -0.2738  0.8808  0.1277
  984MOL0     H32796   6.913   3.555  12.664 -1.1974  0.2357 -0.1544
  984MOL0     H32797   7.048   3.460  12.607 -1.1016 -1.1295  2.0146
  984MOL0     H32798   6.745   3.396  12.550  0.2023 -1.0641 -0.6865
  984MOL0     H32799   6.841   3.315  12.665 -2.0633 -0.7070  0.3634
  984MOL0     H32800   7.029   3.175  12.273  0.2295 -0.6278 -0.9581
  984MOL0     H32801   7.379   3.032  12.244  0.3072  1.1886 -1.0364
  984MOL0     H32802   7.233   2.935  12.217 -1.6663  0.9894 -0.2646
  984MOL0     H32803   7.244   3.100  12.150  1.4825 -0.8814 -0.9842
  984MOL0     H32804   7.576   2.755  12.558  2.4135 -1.1269 -1.9250
  984MOL0     H32805   7.786   2.697  12.638 -0.8151  1.4578 -1.7737
  984MOL0     H32806   8.031   2.743  12.642  2.1830  0.1908  0.4755
  984MOL0     H32807   8.124   2.754  12.789 -0.1320 -2.5834 -0.1973
  984MOL0     H32808   7.984   2.615  12.915  0.4432  0.2297 -0.0471
  984MOL0     H32809   7.883   2.570  12.778 -0.7493 -0.0217  3.0715
  984MOL0     H32810   8.070   2.424  12.827  0.8746  0.5566  0.7233
  984MOL0     H32811   8.191   2.541  12.775  1.9148 -2.2852 -2.5400
  984MOL0     H32812   7.978   2.406  12.603 -0.7201 -0.4404  2.6614
  984MOL0     H32813   8.073   2.538  12.540 -2.4769 -3.3019 -4.0462
  984MOL0     H32814   8.182   2.280  12.645 -1.5067 -2.3472 -1.6239
  984MOL0     H32815   8.275   2.427  12.587 -0.8556  1.3886  0.1826
  984MOL0     H32816   8.049   2.287  12.431 -0.7367 -0.1509  0.1913
  984MOL0     H32817   8.165   2.405  12.376  1.2511 -1.4197 -0.7371
  984MOL0     H32818   8.243   2.121  12.476  0.0289  0.8185  0.0984
  984MOL0     H32819   8.355   2.234  12.407 -0.3337  1.8004  3.3415
  984MOL0     H32820   8.200   2.227  12.194  0.1539 -1.6123 -1.4708
  984MOL0     H32821   8.114   2.100  12.274 -0.0889 -1.2571  0.4256
  984MOL0     H32822   7.847   3.090  12.808  0.9091  1.2016 -0.0804
  984MOL0     H32823   7.617   3.150  12.734 -4.7297 -1.2322 -1.7080
  984MOL0     H32824   7.228   3.042  12.693  1.1149 -5.3002 -3.5728
  984MOL0     H32825   7.021   3.187  12.696  0.7855  3.6393 -0.5716
  984MOL0     H32826   7.678   2.842  11.721 -0.6649 -2.0767  1.7033
  984MOL0     H32827   7.738   2.707  11.519 -0.3623  0.1569 -1.3796
  984MOL0     H32828   7.389   2.260  11.263 -0.2002 -2.1287 -1.5024
  984MOL0     H32829   7.485   2.097  11.100  0.7179 -0.8536 -0.1012
  984MOL0     H32830   7.785   2.249  10.825 -0.4877  1.3700  0.1934
  984MOL0     H32831   7.876   2.111  10.887 -1.0249  1.3023  2.4453
  984MOL0     H32832   7.743   1.942  10.773  0.1292  0.2699  0.5486
  984MOL0     H32833   7.825   2.060  10.662 -1.2774  2.6819 -1.0345
  984MOL0     H32834   7.532   2.066  10.728  1.3979  1.3168  0.8685
  984MOL0     H32835   7.606   2.001  10.579  0.7468  0.6337 -1.7957
  984MOL0     H32836   7.619   2.293  10.668 -1.7868 -0.4328 -0.2789
  984MOL0     H32837   7.502   2.228  10.547  0.5312  1.5586 -2.8691
  984MOL0     H32838   7.870   2.185  10.330  0.3504  1.9725 -0.6793
  984MOL0     H32839   7.786   2.364  10.992  0.1496 -1.0974  0.6257
  984MOL0     H32840   7.695   2.543  11.127  3.1276 -1.9173 -0.3873
  985MOL0     O32841   0.375   8.770   3.899 -0.5921 -0.2863 -0.2301
  985MOL0     C32842   0.254   8.727   3.884  0.6983  0.6069  0.1054
  985MOL0     O32843   0.193   8.634   3.962 -0.0714 -0.0499 -0.8074
  985MOL0     C32844   0.274   8.583   4.061  0.4397  0.5482  0.0951
  985MOL0     C32845   0.318   8.660   4.170 -0.5940 -1.1178 -1.1513
  985MOL0     C32846   0.392   8.605   4.278 -1.0448  0.1946  0.8548
  985MOL0     C32847   0.435   8.470   4.277 -0.0555 -0.0404 -1.1939
  985MOL0     O32848   0.499   8.395   4.377  0.1285  0.0462 -1.1128
  985MOL0     C32849   0.434   8.413   4.509  0.3733  0.2142  0.2636
  985MOL0     C32850   0.511   8.335   4.613  0.3390 -0.1061 -0.8867
  985MOL0     C32851   0.663   8.343   4.614 -0.0085 -0.4030 -0.1506
  985MOL0     C32852   0.731   8.276   4.728  0.8486  0.3922  0.0982
  985MOL0     C32853   0.885   8.270   4.721 -0.4500  0.4905 -0.1899
  985MOL0     C32854   0.944   8.409   4.702  0.9691  0.0021 -0.4307
  985MOL0     C32855   1.080   8.424   4.775 -0.5219  0.0290 -0.1222
  985MOL0     C32856   1.073   8.491   4.917  0.0442  0.9269 -0.2472
  985MOL0     N32857   1.208   8.487   4.975  0.3943 -0.8863  0.4533
  985MOL0     C32858   1.330   8.470   4.920 -1.6675 -0.3959 -0.0345
  985MOL0     C32859   1.413   8.453   5.028 -1.0882  0.1775  0.1879
  985MOL0     C32860   1.578   8.421   5.018  0.8254 -0.3110  0.1048
  985MOL0     C32861   1.657   8.443   5.151  0.0978  0.0041 -0.5018
  985MOL0     C32862   1.634   8.334   5.258  1.2479  0.2346  1.0693
  985MOL0     C32863   1.731   8.339   5.373 -0.5510 -0.0843 -0.6192
  985MOL0     O32864   1.736   8.221   5.453  0.0314 -0.2732 -0.6913
  985MOL0     C32865   1.842   8.176   5.533  0.3815  0.1963  0.0007
  985MOL0     C32866   1.944   8.264   5.573  0.3025 -0.3961 -0.3504
  985MOL0     C32867   2.040   8.217   5.666  0.0500  0.1721  0.8886
  985MOL0     C32868   2.126   8.328   5.714  0.2012 -0.0803 -0.5360
  985MOL0     C32869   2.040   8.086   5.718  0.8353  0.7787 -0.6975
  985MOL0     C32870   2.141   8.027   5.805 -0.0395 -0.6087 -0.1045
  985MOL0     O32871   2.277   8.084   5.811  0.1978  0.0620 -0.1944
  985MOL0     C32872   2.373   8.042   5.911 -0.0459  0.5892  0.7963
  985MOL0     C32873   2.341   7.989   6.036 -0.2217 -0.2922 -0.4467
  985MOL0     C32874   2.438   7.941   6.122  0.6756  1.1189 -0.2742
  985MOL0     C32875   2.570   7.938   6.082 -1.2315 -0.9363 -0.6545
  985MOL0     O32876   2.673   7.899   6.164 -0.1293 -0.8445  0.0849
  985MOL0     C32877   2.641   7.912   6.305 -0.6134 -0.2374  0.1277
  985MOL0     C32878   2.777   7.925   6.387  0.2678  0.2274  0.3890
  985MOL0     C32879   2.750   7.973   6.530  0.6262 -0.0009  0.2956
  985MOL0     C32880   2.881   8.023   6.583 -0.8177 -0.4912 -0.6257
  985MOL0     C32881   2.858   8.106   6.710  0.3874  0.0970 -0.5704
  985MOL0     C32882   2.803   8.030   6.827 -0.4031  0.7840  0.0058
  985MOL0     C32883   2.805   8.124   6.952 -0.5503 -0.4159  0.9880
  985MOL0     C32884   2.766   8.056   7.081  0.3961  0.0820  0.0092
  985MOL0    Cl32885   2.862   7.902   7.100 -0.1002 -0.0756 -0.1065
  985MOL0     C32886   2.604   7.980   5.953 -0.0936  0.4711  1.1044
  985MOL0     C32887   2.504   8.031   5.867 -0.8370 -0.5581 -0.3489
  985MOL0     O32888   2.104   7.920   5.863 -0.1266 -0.6074  1.1904
  985MOL0     C32889   1.930   8.002   5.682  1.0520 -0.5135 -0.3746
  985MOL0     C32890   1.840   8.052   5.593 -0.0871  0.3655 -0.2621
  985MOL0     N32891   1.344   8.471   5.142 -0.7004  0.5008  0.5035
  985MOL0     N32892   1.225   8.502   5.106  0.2243 -0.2165 -0.2261
  985MOL0     C32893   0.398   8.400   4.165  0.1131  0.3480  0.3420
  985MOL0     C32894   0.323   8.456   4.059 -0.2630  0.7942 -0.1609
  985MOL0     C32895   0.155   8.798   3.794 -0.4758 -0.0943 -0.2225
  985MOL0     C32896   0.071   8.722   3.707  0.0192 -0.1861  0.4941
  985MOL0     C32897   0.002   8.793   3.603  0.4886  0.1516 -1.1543
  985MOL0     C32898   0.007   8.928   3.584  0.4295  0.1310  0.8040
  985MOL0     O32899  -0.065   8.982   3.478 -0.1165  0.0264 -0.1188
  985MOL0     C32900  -0.056   9.127   3.455  0.3237 -0.0873  1.0579
  985MOL0     C32901  -0.153   9.173   3.345 -0.2158 -0.2483  0.8459
  985MOL0     C32902  -0.145   9.324   3.315 -0.3119 -0.3965  0.1438
  985MOL0     C32903  -0.014   9.361   3.243 -0.6175 -0.3812 -0.5328
  985MOL0     C32904  -0.015   9.300   3.109  0.3844  0.2910 -0.0893
  985MOL0     C32905  -0.010   9.238   3.003 -0.5967 -0.1381 -0.2165
  985MOL0     C32906   0.074   9.003   3.680  0.0418  0.6659 -0.4244
  985MOL0     C32907   0.141   8.940   3.785  0.2989 -0.5444  0.1783
  985MOL0     H32908   0.280   8.761   4.177 -6.6583 -2.4515 -5.8360
  985MOL0     H32909   0.424   8.671   4.358  0.1780 -0.2043  0.7196
  985MOL0     H32910   0.431   8.517   4.542 -2.8996 -0.2552  1.8777
  985MOL0     H32911   0.333   8.373   4.497 -0.3002  1.8420  0.1815
  985MOL0     H32912   0.477   8.347   4.717 -3.1548 -2.9003 -1.5247
  985MOL0     H32913   0.473   8.233   4.609 -0.3469 -0.1259  2.7207
  985MOL0     H32914   0.712   8.297   4.527  3.4119 -0.3401  1.5871
  985MOL0     H32915   0.684   8.451   4.616 -0.1748 -0.3743  0.0213
  985MOL0     H32916   0.697   8.325   4.819  0.7690 -1.0076  0.8486
  985MOL0     H32917   0.692   8.176   4.745  0.7289  0.1309 -1.5365
  985MOL0     H32918   0.929   8.227   4.812 -2.3953 -0.8864  0.1726
  985MOL0     H32919   0.927   8.205   4.644  1.8074  1.5091  0.0938
  985MOL0     H32920   0.952   8.430   4.595 -2.2874  0.0338 -0.7771
  985MOL0     H32921   0.875   8.483   4.743 -1.1669 -2.9268  1.7087
  985MOL0     H32922   1.135   8.331   4.782 -0.7942 -0.0993  0.3329
  985MOL0     H32923   1.125   8.496   4.706 -1.1425  0.5209 -0.0296
  985MOL0     H32924   1.006   8.433   4.982 -0.4053  2.9795  1.2067
  985MOL0     H32925   1.043   8.594   4.897  1.6947  1.1488 -1.8340
  985MOL0     H32926   1.355   8.450   4.817 -0.9400  0.8735 -0.1143
  985MOL0     H32927   1.599   8.326   4.968 -0.0995 -0.6450  0.3253
  985MOL0     H32928   1.618   8.495   4.948  1.0805  0.4610  1.0432
  985MOL0     H32929   1.629   8.537   5.200  1.2025  0.1251 -0.0664
  985MOL0     H32930   1.764   8.455   5.129  0.5416 -0.0218  1.5097
  985MOL0     H32931   1.659   8.237   5.214  2.8148  0.6158  1.0578
  985MOL0     H32932   1.527   8.336   5.281 -0.3315  3.2965 -4.7474
  985MOL0     H32933   1.704   8.419   5.443 -0.8324 -2.1749  1.8260
  985MOL0     H32934   1.835   8.350   5.340  0.4099 -2.1689  1.3999
  985MOL0     H32935   1.939   8.365   5.535 -0.4865  0.6285  2.2401
  985MOL0     H32936   2.150   8.308   5.819 -1.2315 -3.0373 -0.6834
  985MOL0     H32937   2.220   8.330   5.657  0.4131 -1.4527 -0.2549
  985MOL0     H32938   2.084   8.428   5.700  3.1502  1.2529 -0.7523
  985MOL0     H32939   2.236   7.973   6.058  0.0759  0.1078  1.4468
  985MOL0     H32940   2.417   7.904   6.222 -0.5685  0.4045 -0.7826
  985MOL0     H32941   2.575   7.996   6.328 -1.0598  0.2207 -2.5807
  985MOL0     H32942   2.588   7.825   6.345 -1.1820  0.4522  0.9089
  985MOL0     H32943   2.833   7.831   6.384 -0.6318 -0.3063 -1.0382
  985MOL0     H32944   2.841   7.998   6.336  0.2477  0.1369  0.2311
  985MOL0     H32945   2.702   7.902   6.597  0.4315 -0.6485 -0.5185
  985MOL0     H32946   2.682   8.058   6.520  3.3386  2.2279 -0.3949
  985MOL0     H32947   2.942   7.938   6.615 -0.6309  0.1207  0.7613
  985MOL0     H32948   2.927   8.090   6.510 -2.3398 -0.0200 -1.1756
  985MOL0     H32949   2.795   8.187   6.672 -1.0166 -1.6387 -2.1468
  985MOL0     H32950   2.949   8.156   6.746  1.4923 -2.5895  0.6212
  985MOL0     H32951   2.702   7.990   6.810 -1.2663  2.5019  0.7834
  985MOL0     H32952   2.885   7.967   6.861  0.3491  2.6886  1.9817
  985MOL0     H32953   2.745   8.214   6.938  0.1567 -0.3685 -2.5353
  985MOL0     H32954   2.900   8.175   6.966 -2.4166  4.5541 -1.8881
  985MOL0     H32955   2.660   8.029   7.081  1.0147 -2.6314 -0.0884
  985MOL0     H32956   2.774   8.130   7.161  1.6629  0.2864 -0.2799
  985MOL0     H32957   2.705   7.975   5.913 -1.2072 -0.0525 -1.8923
  985MOL0     H32958   2.537   8.058   5.767 -1.8781  0.3984 -0.4484
  985MOL0     H32959   1.915   7.900   5.715 -1.7852 -0.5719 -1.5417
  985MOL0     H32960   1.751   7.997   5.567 -0.2473  0.8503 -0.7716
  985MOL0     H32961   0.422   8.295   4.149 -0.5121  0.0260  1.4347
  985MOL0     H32962   0.293   8.398   3.973  0.7835  0.5021 -0.3411
  985MOL0     H32963   0.064   8.614   3.706  0.1484 -0.1938  0.4287
  985MOL0     H32964  -0.057   8.738   3.529  1.5980 -0.1766 -1.8126
  985MOL0     H32965  -0.080   9.185   3.545 -1.4582 -1.4561  1.5178
  985MOL0     H32966   0.048   9.155   3.439  0.5090 -1.2058  0.1823
  985MOL0     H32967  -0.258   9.149   3.366 -0.7184 -0.6392 -1.8142
  985MOL0     H32968  -0.136   9.110   3.258 -0.4859 -0.6029  1.0496
  985MOL0     H32969  -0.158   9.376   3.411 -2.4933 -4.7759  2.5118
  985MOL0     H32970  -0.225   9.362   3.251 -1.1516 -1.3009  0.6378
  985MOL0     H32971   0.074   9.330   3.300 -0.3495  0.8937 -0.2113
  985MOL0     H32972  -0.005   9.470   3.248 -2.0103 -0.2792  3.8702
  985MOL0     H32973   0.016   9.195   2.908  2.5560  0.2768  0.3614
  985MOL0     H32974   0.089   9.110   3.673  0.1956  0.8606  2.0271
  985MOL0     H32975   0.199   8.996   3.857  0.1950  0.1391 -0.2627
  986MOL0     O32976  10.281   2.676   4.566  0.2890 -0.3013 -0.7102
  986MOL0     C32977  10.343   2.782   4.584  0.3033  0.0160 -0.6186
  986MOL0     O32978  10.328   2.871   4.687  1.1464 -0.0628  0.2122
  986MOL0     C32979  10.241   2.856   4.793  0.1580 -0.4028  0.5366
  986MOL0     C32980  10.214   2.737   4.856 -0.2669 -0.2255  0.5945
  986MOL0     C32981  10.128   2.722   4.966  0.0105 -1.0146 -0.1471
  986MOL0     C32982  10.076   2.844   5.023  1.1683  0.3878  0.3925
  986MOL0     O32983  10.005   2.839   5.136  0.0913 -0.9199  0.6057
  986MOL0     C32984   9.949   2.711   5.172  0.5753 -0.1633  0.0482
  986MOL0     C32985   9.853   2.739   5.292 -0.2791 -0.1128  0.0381
  986MOL0     C32986   9.814   2.607   5.359 -1.1764  0.4129 -0.1432
  986MOL0     C32987   9.940   2.567   5.451 -0.1842 -0.2642 -0.3327
  986MOL0     C32988   9.897   2.463   5.554  1.0637 -0.4869  0.2564
  986MOL0     C32989  10.020   2.423   5.629  0.5450  0.6773 -1.2913
  986MOL0     C32990  10.107   2.337   5.551 -0.5156  0.7599  0.4520
  986MOL0     C32991  10.226   2.289   5.640 -0.7658 -0.4413 -0.6171
  986MOL0     N32992  10.292   2.402   5.713  0.1106  0.8346 -0.0922
  986MOL0     C32993  10.352   2.514   5.661 -0.1713 -0.0776 -0.3432
  986MOL0     C32994  10.340   2.607   5.766  0.5523 -0.4025  0.2258
  986MOL0     C32995  10.370   2.754   5.763  0.5965  0.4393 -0.6515
  986MOL0     C32996  10.241   2.848   5.781 -0.3766 -0.1991  0.6393
  986MOL0     C32997  10.264   2.977   5.710 -0.2851  0.2167 -0.0408
  986MOL0     C32998  10.152   3.084   5.729 -1.1280  0.3874 -0.1482
  986MOL0     O32999  10.174   3.198   5.647 -0.1030  0.0021 -0.0946
  986MOL0     C33000  10.270   3.292   5.679  0.0558  1.1262 -0.6370
  986MOL0     C33001  10.306   3.387   5.587  0.0836  0.3115  0.3448
  986MOL0     C33002  10.394   3.491   5.607 -0.1343  0.4130  0.8220
  986MOL0     C33003  10.421   3.591   5.500  0.1448  0.3393 -0.1690
  986MOL0     C33004  10.464   3.475   5.730 -0.5742 -0.1539  0.1199
  986MOL0     C33005  10.565   3.583   5.773  0.1419  0.0717 -0.5745
  986MOL0     O33006  10.694   3.546   5.774  0.0306 -0.6762 -0.3352
  986MOL0     C33007  10.794   3.621   5.823 -0.7003 -0.4876  0.4618
  986MOL0     C33008  10.890   3.542   5.880 -0.3322  0.4024  0.0220
  986MOL0     C33009  11.009   3.606   5.921  0.5327 -1.2290 -0.0416
  986MOL0     C33010  11.018   3.747   5.931 -0.4447  0.5754  0.6218
  986MOL0     O33011  11.137   3.791   5.995  0.7159 -0.5326  0.1322
  986MOL0     C33012  11.170   3.934   5.969  0.4906  0.5590  0.7913
  986MOL0     C33013  11.222   3.974   5.825  0.2770  0.9534 -0.2439
  986MOL0     C33014  11.369   3.962   5.809 -0.4111 -1.3404 -0.7296
  986MOL0     C33015  11.409   3.820   5.780 -1.0012  0.1360 -0.5443
  986MOL0     C33016  11.553   3.804   5.801 -0.2841 -0.9149  0.0392
  986MOL0     C33017  11.594   3.655   5.769 -0.4263 -0.0282 -0.7786
  986MOL0     C33018  11.729   3.625   5.839  0.4257 -0.1552 -0.0607
  986MOL0     C33019  11.728   3.484   5.884  0.6085 -0.3140 -0.3872
  986MOL0    Cl33020  11.680   3.378   5.742 -0.2244 -0.0403 -0.0655
  986MOL0     C33021  10.904   3.827   5.893 -0.8621  0.0196  0.4213
  986MOL0     C33022  10.798   3.758   5.836 -0.5046 -0.7069  0.2203
  986MOL0     O33023  10.513   3.688   5.795 -0.8823 -0.1364  0.2819
  986MOL0     C33024  10.434   3.379   5.823  0.3356  0.1344 -1.1464
  986MOL0     C33025  10.341   3.284   5.799  0.6814  0.9156 -0.6341
  986MOL0     N33026  10.283   2.550   5.876 -0.0374  0.3983  0.4267
  986MOL0     N33027  10.246   2.422   5.836 -0.5648 -0.0237 -0.8003
  986MOL0     C33028  10.097   2.969   4.960  0.0616 -0.7117  0.0328
  986MOL0     C33029  10.183   2.970   4.849  1.0947  0.2213  0.3019
  986MOL0     C33030  10.453   2.811   4.486  0.5478  0.3793  0.1528
  986MOL0     C33031  10.517   2.938   4.495  0.4857 -0.0913 -0.7604
  986MOL0     C33032  10.611   2.975   4.397  0.6356  0.5950 -1.2209
  986MOL0     C33033  10.660   2.892   4.306 -0.4781 -0.0402  0.2345
  986MOL0     O33034  10.761   2.943   4.229 -0.1940 -0.1125 -0.0535
  986MOL0     C33035  10.793   2.867   4.109  0.7674 -0.0708  0.6085
  986MOL0     C33036  10.682   2.884   4.013 -0.3332  0.8128  0.4778
  986MOL0     C33037  10.709   2.849   3.865  0.3590  0.5336  0.0065
  986MOL0     C33038  10.678   2.699   3.822  0.3332  0.3288 -0.2984
  986MOL0     C33039  10.706   2.595   3.916 -1.1762  0.7578 -0.1221
  986MOL0     C33040  10.745   2.525   4.010 -1.3737  0.5183 -1.2141
  986MOL0     C33041  10.603   2.759   4.307 -1.0052  0.5527 -0.7376
  986MOL0     C33042  10.505   2.717   4.393  0.1788  0.8192  0.8581
  986MOL0     H33043  10.257   2.644   4.821  0.9559  0.3251  0.5925
  986MOL0     H33044  10.112   2.621   5.002  1.8422 -0.5409  2.2456
  986MOL0     H33045   9.878   2.669   5.100  0.5034 -0.6316  0.3868
  986MOL0     H33046  10.025   2.645   5.216  0.7713  2.2137  3.7903
  986MOL0     H33047   9.891   2.813   5.363  0.7517  1.5060 -2.0851
  986MOL0     H33048   9.760   2.773   5.245 -1.2565 -2.4761  0.1292
  986MOL0     H33049   9.728   2.622   5.425 -1.8538 -0.5156 -0.7935
  986MOL0     H33050   9.797   2.511   5.310 -0.9915  0.0712  0.4475
  986MOL0     H33051  10.026   2.527   5.396 -1.5849 -3.9130 -0.1831
  986MOL0     H33052   9.976   2.652   5.509 -0.9255 -2.4336  3.6633
  986MOL0     H33053   9.825   2.506   5.624 -0.5709 -1.6844 -0.6156
  986MOL0     H33054   9.844   2.378   5.511  1.8843 -0.4058 -0.9510
  986MOL0     H33055  10.081   2.508   5.661 -1.0553  0.8895  1.5683
  986MOL0     H33056   9.981   2.363   5.713  0.1317  2.8734  0.1751
  986MOL0     H33057  10.054   2.251   5.509  0.5953  0.3717 -0.1931
  986MOL0     H33058  10.144   2.402   5.471  1.3580 -2.7329 -1.7843
  986MOL0     H33059  10.302   2.232   5.586  0.9998 -0.0820  1.3480
  986MOL0     H33060  10.182   2.214   5.707  1.6154 -2.1526 -0.8424
  986MOL0     H33061  10.372   2.522   5.554 -0.7635  0.8329 -0.4020
  986MOL0     H33062  10.450   2.785   5.831  0.5029 -1.4257  0.3731
  986MOL0     H33063  10.414   2.777   5.666  1.2468  1.0962 -0.2084
  986MOL0     H33064  10.240   2.855   5.890  1.8627 -0.8792  0.7432
  986MOL0     H33065  10.146   2.803   5.749 -1.6784  2.6189  0.2141
  986MOL0     H33066  10.250   2.954   5.604 -6.0117 -1.4834  0.7033
  986MOL0     H33067  10.361   3.019   5.737  0.4208 -1.9975  1.1735
  986MOL0     H33068  10.147   3.103   5.837 -2.9490 -3.2261  0.5534
  986MOL0     H33069  10.051   3.048   5.705 -1.4009  1.0694 -0.0502
  986MOL0     H33070  10.265   3.374   5.487  1.9588 -0.0454 -0.4069
  986MOL0     H33071  10.411   3.686   5.553 -2.0958 -0.2076  0.5015
  986MOL0     H33072  10.527   3.587   5.472  0.0366 -1.9440 -0.4734
  986MOL0     H33073  10.349   3.585   5.418 -1.1066  0.9244  0.8716
  986MOL0     H33074  10.889   3.434   5.879 -1.7589  0.3928 -0.6233
  986MOL0     H33075  11.085   3.543   5.968  0.0869 -1.1528  0.7977
  986MOL0     H33076  11.083   3.999   5.985  1.2196  2.2339 -1.5188
  986MOL0     H33077  11.231   3.979   6.049  0.6475  2.5441 -0.3799
  986MOL0     H33078  11.166   3.919   5.749  0.4457 -1.4230  1.2271
  986MOL0     H33079  11.186   4.076   5.811 -0.8044  0.6391  0.0919
  986MOL0     H33080  11.428   4.001   5.893 -2.7055  3.5758 -1.0009
  986MOL0     H33081  11.405   4.031   5.732 -0.8898 -0.9700 -0.6348
  986MOL0     H33082  11.353   3.750   5.844  0.0620  1.2147  1.7013
  986MOL0     H33083  11.385   3.783   5.680 -1.6818  0.7143 -0.6066
  986MOL0     H33084  11.568   3.836   5.905  2.5472  2.6775 -1.2430
  986MOL0     H33085  11.608   3.859   5.724 -0.9306  0.1586  0.3093
  986MOL0     H33086  11.520   3.592   5.819  1.0716  1.0529  3.1431
  986MOL0     H33087  11.599   3.634   5.661  0.6942  2.0907 -1.1957
  986MOL0     H33088  11.745   3.681   5.932  1.4300  0.3177 -0.5084
  986MOL0     H33089  11.815   3.635   5.773  1.4772 -1.0485  1.1378
  986MOL0     H33090  11.674   3.473   5.978  0.2389  1.9162 -0.2797
  986MOL0     H33091  11.829   3.463   5.921 -0.3597 -0.6597  2.3110
  986MOL0     H33092  10.903   3.935   5.901  0.3336  0.4530 -3.3607
  986MOL0     H33093  10.718   3.823   5.802  1.0783  0.1546 -2.0197
  986MOL0     H33094  10.486   3.380   5.918 -1.7130 -0.3637  0.0251
  986MOL0     H33095  10.329   3.197   5.862  1.9189 -1.6591 -3.6706
  986MOL0     H33096  10.050   3.059   4.999 -1.2690 -1.2028 -0.3929
  986MOL0     H33097  10.214   3.066   4.810  0.6366 -0.0944 -0.9115
  986MOL0     H33098  10.491   3.010   4.572 -0.8660 -2.2905  0.9861
  986MOL0     H33099  10.635   3.080   4.410 -1.0008  0.9452 -0.7196
  986MOL0     H33100  10.887   2.905   4.066  0.2898 -0.5494 -0.9183
  986MOL0     H33101  10.799   2.764   4.143  2.5058  0.9086  3.6652
  986MOL0     H33102  10.653   2.989   4.008 -3.7240 -0.0555 -2.2748
  986MOL0     H33103  10.591   2.839   4.053 -0.5084 -0.1165 -0.8792
  986MOL0     H33104  10.809   2.883   3.839 -0.7592  1.5475 -3.7022
  986MOL0     H33105  10.659   2.914   3.792 -1.3799  0.3515  0.9655
  986MOL0     H33106  10.722   2.670   3.727 -2.3220  0.3562 -1.6305
  986MOL0     H33107  10.571   2.692   3.800  0.2594  0.3094  0.0564
  986MOL0     H33108  10.795   2.450   4.068 -1.7015  0.2768 -1.2448
  986MOL0     H33109  10.621   2.691   4.225 -0.2663 -0.4195  0.2064
  986MOL0     H33110  10.455   2.621   4.394  1.2037  0.2589  0.0536
  987MOL0     O33111   7.495   8.473   0.976 -0.5147  0.4788  0.7334
  987MOL0     C33112   7.591   8.487   0.897 -0.5874  0.3342 -0.0989
  987MOL0     O33113   7.680   8.389   0.867 -0.6309  0.1071 -0.9013
  987MOL0     C33114   7.700   8.292   0.959 -0.2226 -0.1223  0.0316
  987MOL0     C33115   7.708   8.156   0.912  0.5161 -0.0918 -0.3588
  987MOL0     C33116   7.747   8.059   1.000 -1.1689  0.6565  0.6071
  987MOL0     C33117   7.758   8.081   1.138  0.4168  0.3054 -0.4046
  987MOL0     O33118   7.781   7.968   1.224 -0.4535  0.4489 -0.4043
  987MOL0     C33119   7.877   7.976   1.330 -0.2247 -0.4301  0.8178
  987MOL0     C33120   8.010   7.907   1.291 -0.4416 -0.3001  0.2060
  987MOL0     C33121   8.118   8.001   1.218  1.0964 -0.6991  0.5874
  987MOL0     C33122   8.238   7.946   1.151  0.3700  0.5066 -0.3279
  987MOL0     C33123   8.207   7.830   1.053 -0.4861 -0.6096 -0.1734
  987MOL0     C33124   8.304   7.835   0.939 -0.1685  0.5159  1.0699
  987MOL0     C33125   8.294   7.706   0.860 -0.9341 -0.5207  0.6358
  987MOL0     C33126   8.358   7.724   0.717 -0.3277  0.1481 -0.5464
  987MOL0     N33127   8.350   7.596   0.658  0.6661  0.0918  0.4171
  987MOL0     C33128   8.408   7.476   0.707 -0.6529 -0.8295 -0.5421
  987MOL0     C33129   8.417   7.384   0.610  0.5736 -0.7610  0.2960
  987MOL0     C33130   8.474   7.241   0.616  0.6938  0.6642 -0.8578
  987MOL0     C33131   8.585   7.219   0.506 -0.3785  0.2969  0.3619
  987MOL0     C33132   8.713   7.300   0.531  0.1319  0.4728  0.4077
  987MOL0     C33133   8.813   7.290   0.414 -0.5521  0.5510 -0.2337
  987MOL0     O33134   8.930   7.347   0.470 -0.0239  0.6614 -0.6649
  987MOL0     C33135   9.031   7.353   0.376  0.0704 -0.4978  0.6682
  987MOL0     C33136   9.155   7.300   0.405 -0.0064  0.2210 -0.7093
  987MOL0     C33137   9.270   7.316   0.332 -0.3760  0.3721  0.0594
  987MOL0     C33138   9.384   7.243   0.376 -0.1867  0.2818 -0.0443
  987MOL0     C33139   9.265   7.412   0.224  1.2858 -0.3329  0.3650
  987MOL0     C33140   9.380   7.436   0.125 -0.3061  0.0947 -0.1278
  987MOL0     O33141   9.487   7.354   0.143  0.2491  0.1566  0.6646
  987MOL0     C33142   9.569   7.336   0.033 -0.0420 -0.3406  0.0668
  987MOL0     C33143   9.665   7.436   0.003 -0.0434 -0.1881  0.1184
  987MOL0     C33144   9.749   7.408  -0.102  0.7941 -1.7286 -0.4939
  987MOL0     C33145   9.727   7.295  -0.184 -0.0321  0.5530 -0.4778
  987MOL0     O33146   9.794   7.271  -0.293 -0.4030  0.3842  0.2222
  987MOL0     C33147   9.867   7.370  -0.365  0.2763  0.2248 -0.0867
  987MOL0     C33148   9.934   7.292  -0.476  0.4387 -0.5793 -0.3108
  987MOL0     C33149   9.939   7.378  -0.604 -0.8591  0.2983  0.2822
  987MOL0     C33150   9.796   7.399  -0.656 -0.3083  0.0780 -0.2034
  987MOL0     C33151   9.809   7.436  -0.805 -0.2527 -0.9650  0.2409
  987MOL0     C33152   9.713   7.361  -0.890 -0.0939  0.3577  0.5480
  987MOL0     C33153   9.705   7.396  -1.037  0.1589 -0.5808  0.5895
  987MOL0     C33154   9.847   7.422  -1.109 -0.1037  0.3727  0.3947
  987MOL0    Cl33155   9.846   7.476  -1.287 -0.5267  0.1755  0.2931
  987MOL0     C33156   9.631   7.194  -0.145  0.4006 -0.0159 -0.2236
  987MOL0     C33157   9.553   7.218  -0.036 -0.5276 -0.3223  0.1881
  987MOL0     O33158   9.359   7.511   0.034 -0.2259  0.0686 -0.5363
  987MOL0     C33159   9.145   7.480   0.207 -0.1877  0.0589 -0.2926
  987MOL0     C33160   9.030   7.450   0.284  0.6665 -0.1641  1.2458
  987MOL0     N33161   8.351   7.447   0.509 -0.8593 -0.2849  0.2803
  987MOL0     N33162   8.318   7.567   0.533 -0.5282 -1.1184  0.6167
  987MOL0     C33163   7.746   8.207   1.184 -0.7168 -0.4612  0.2055
  987MOL0     C33164   7.717   8.316   1.097  0.6298 -0.1356 -0.3625
  987MOL0     C33165   7.608   8.618   0.835  0.2277  0.9372 -0.2553
  987MOL0     C33166   7.516   8.719   0.855  0.0222 -0.3141 -0.9534
  987MOL0     C33167   7.526   8.843   0.801  0.2179  0.1559  1.1666
  987MOL0     C33168   7.642   8.878   0.732  1.0914 -0.5593  0.1641
  987MOL0     O33169   7.643   9.015   0.687 -0.3236  0.4921  0.3108
  987MOL0     C33170   7.758   9.058   0.607  0.5844 -0.7591  0.3236
  987MOL0     C33171   7.885   9.088   0.689 -0.3248 -0.3278 -0.2339
  987MOL0     C33172   7.996   9.164   0.618 -0.8524  0.7200 -0.6485
  987MOL0     C33173   7.971   9.318   0.583  0.7001 -0.2984 -1.5615
  987MOL0     C33174   8.100   9.370   0.538  1.1869 -0.5897 -0.7218
  987MOL0     C33175   8.199   9.404   0.481 -0.9543  0.1546 -0.4969
  987MOL0     C33176   7.744   8.785   0.713 -0.8096  0.0307 -0.0434
  987MOL0     C33177   7.727   8.652   0.759 -0.5097  0.7928 -0.2695
  987MOL0     H33178   7.692   8.131   0.807 -0.1119 -3.0075  0.3416
  987MOL0     H33179   7.765   7.962   0.954 -0.3493  1.9536 -2.0122
  987MOL0     H33180   7.899   8.081   1.351  2.1579 -0.7642  0.2847
  987MOL0     H33181   7.831   7.930   1.418  0.1726  1.6203  2.1593
  987MOL0     H33182   8.059   7.877   1.383  0.4959  1.4544  0.3220
  987MOL0     H33183   7.990   7.817   1.232  0.3065 -0.1221 -0.3390
  987MOL0     H33184   8.064   8.063   1.145  2.8295  0.2200  0.0185
  987MOL0     H33185   8.143   8.067   1.301 -0.2421 -0.7172  1.0270
  987MOL0     H33186   8.292   8.028   1.101 -0.8559  0.4801 -1.7463
  987MOL0     H33187   8.298   7.895   1.227 -1.4614  0.3188  1.0496
  987MOL0     H33188   8.217   7.733   1.102 -3.1991 -1.1621 -0.5412
  987MOL0     H33189   8.107   7.848   1.011 -1.0458  0.4972  1.5442
  987MOL0     H33190   8.291   7.924   0.877 -0.2763 -0.1498  0.1029
  987MOL0     H33191   8.400   7.842   0.991  0.5466  0.3316 -0.1762
  987MOL0     H33192   8.349   7.624   0.908  1.8383  0.3360 -0.8621
  987MOL0     H33193   8.188   7.688   0.842 -0.6068 -0.8295 -1.1585
  987MOL0     H33194   8.460   7.763   0.721 -0.1425 -0.0937 -2.3050
  987MOL0     H33195   8.288   7.792   0.667 -0.3930 -0.5478 -1.4210
  987MOL0     H33196   8.432   7.470   0.812 -2.9738  1.8773  0.2783
  987MOL0     H33197   8.523   7.223   0.712 -1.3066 -0.3363  0.0426
  987MOL0     H33198   8.394   7.167   0.613  0.0483  0.8255  3.8855
  987MOL0     H33199   8.545   7.248   0.408  0.8183  2.1856  0.3708
  987MOL0     H33200   8.606   7.112   0.508 -0.0724  0.3655  0.9425
  987MOL0     H33201   8.754   7.278   0.630 -3.2147  3.6276  2.7826
  987MOL0     H33202   8.689   7.407   0.541 -1.4486  0.2499 -0.5814
  987MOL0     H33203   8.769   7.347   0.332 -1.2282  0.2554 -0.0876
  987MOL0     H33204   8.820   7.187   0.377  1.3177  0.0018  1.4552
  987MOL0     H33205   9.158   7.250   0.502  0.7777 -0.2729 -0.9750
  987MOL0     H33206   9.413   7.162   0.308  0.7444  0.1570  0.4857
  987MOL0     H33207   9.475   7.302   0.384  1.1498 -1.9064  3.4764
  987MOL0     H33208   9.367   7.185   0.467 -0.3269 -1.2046 -0.9867
  987MOL0     H33209   9.671   7.526   0.064 -0.4992  0.2497 -0.4784
  987MOL0     H33210   9.823   7.486  -0.117  0.4107 -1.2936 -0.1244
  987MOL0     H33211   9.793   7.445  -0.394 -0.8051 -0.3355  1.1089
  987MOL0     H33212   9.946   7.419  -0.307  1.3558 -2.2364  0.6228
  987MOL0     H33213  10.031   7.254  -0.443 -0.1751 -1.7115  0.2218
  987MOL0     H33214   9.878   7.201  -0.500  1.2283 -1.0791 -0.2947
  987MOL0     H33215  10.001   7.321  -0.673  2.4955 -0.6045  3.7159
  987MOL0     H33216   9.996   7.471  -0.589  0.6962 -0.5601 -0.1240
  987MOL0     H33217   9.738   7.307  -0.647  0.5300 -0.3489  1.1727
  987MOL0     H33218   9.734   7.473  -0.602  0.2853 -0.6921  1.6158
  987MOL0     H33219   9.909   7.411  -0.841 -0.6356  1.3999 -2.8514
  987MOL0     H33220   9.796   7.542  -0.828 -0.1340 -0.9038  0.4512
  987MOL0     H33221   9.739   7.254  -0.888  2.2293  0.8744  1.6139
  987MOL0     H33222   9.613   7.367  -0.846 -1.0260  1.5492 -1.5657
  987MOL0     H33223   9.642   7.482  -1.057 -0.6175 -1.6119 -1.7258
  987MOL0     H33224   9.657   7.312  -1.089 -0.6475  1.2759 -1.8077
  987MOL0     H33225   9.904   7.329  -1.110 -0.7197 -0.0077 -0.9572
  987MOL0     H33226   9.903   7.497  -1.052  1.4910 -0.5128  0.0496
  987MOL0     H33227   9.612   7.101  -0.199 -0.7982  0.0397  0.0796
  987MOL0     H33228   9.474   7.148  -0.012 -2.0350  1.2852  0.0830
  987MOL0     H33229   9.134   7.555   0.129 -1.0869  1.0412  0.7293
  987MOL0     H33230   8.939   7.508   0.274 -0.6550 -2.4994 -1.7105
  987MOL0     H33231   7.755   8.225   1.291  0.6024  0.1602  0.0045
  987MOL0     H33232   7.703   8.417   1.133 -4.2010 -0.1451 -1.5410
  987MOL0     H33233   7.430   8.686   0.913  0.5055 -2.5354 -1.4084
  987MOL0     H33234   7.450   8.918   0.820  0.1841  0.2642  0.6182
  987MOL0     H33235   7.788   8.994   0.523 -3.6312 -1.0483 -1.2187
  987MOL0     H33236   7.725   9.156   0.572  0.0256 -1.6180 -1.7206
  987MOL0     H33237   7.925   8.994   0.729  0.1755 -0.4485 -0.9945
  987MOL0     H33238   7.854   9.155   0.770 -0.0543 -0.9256  0.3729
  987MOL0     H33239   8.003   9.116   0.520  0.5488  1.5657 -1.0047
  987MOL0     H33240   8.091   9.156   0.673 -1.0793  1.2789 -0.1554
  987MOL0     H33241   7.943   9.380   0.669  2.0117 -0.3019 -1.1006
  987MOL0     H33242   7.899   9.325   0.502 -1.5632  0.0989  0.3843
  987MOL0     H33243   8.283   9.420   0.417 -0.4564  5.2187  0.9917
  987MOL0     H33244   7.840   8.818   0.673  0.4373 -2.8304  0.3316
  987MOL0     H33245   7.811   8.586   0.745 -0.2117  1.7460 -3.9659
  988MOL0     O33246   9.511   4.572   5.238 -0.2578  0.1919  0.7233
  988MOL0     C33247   9.424   4.642   5.283 -0.4248 -0.0456 -0.3059
  988MOL0     O33248   9.420   4.783   5.277 -0.1287  0.3033  0.4278
  988MOL0     C33249   9.544   4.845   5.288  0.3601  0.3305 -0.4187
  988MOL0     C33250   9.646   4.813   5.198 -0.5422 -0.5203  0.3753
  988MOL0     C33251   9.772   4.870   5.207  0.1636  0.4197  0.1370
  988MOL0     C33252   9.786   4.981   5.304 -0.4622  0.1158  0.6940
  988MOL0     O33253   9.900   5.060   5.305  0.0184  0.7661 -0.3058
  988MOL0     C33254   9.953   5.098   5.177  0.4890  0.2312  0.3130
  988MOL0     C33255  10.102   5.070   5.167  0.5329 -0.5554 -0.1079
  988MOL0     C33256  10.193   5.153   5.263  0.9178  0.1323  0.4034
  988MOL0     C33257  10.337   5.110   5.253  0.2562 -0.0451  0.0277
  988MOL0     C33258  10.373   4.995   5.351 -0.1177 -0.2129  0.6693
  988MOL0     C33259  10.528   4.995   5.371 -0.3602 -0.0063  0.5628
  988MOL0     C33260  10.571   4.883   5.458  0.0136 -0.3619  0.3142
  988MOL0     C33261  10.716   4.871   5.458  0.2339  0.4204 -0.1321
  988MOL0     N33262  10.755   4.843   5.595  0.3121 -0.1775  0.2121
  988MOL0     C33263  10.766   4.716   5.653  0.4843  0.3075  0.0693
  988MOL0     C33264  10.819   4.744   5.773  0.4849 -0.8968  0.1559
  988MOL0     C33265  10.854   4.638   5.875 -0.2276  0.0133 -0.5669
  988MOL0     C33266  10.873   4.496   5.814 -0.0812  0.1045  0.5959
  988MOL0     C33267  10.906   4.382   5.917  0.5299 -0.1876  0.1428
  988MOL0     C33268  10.785   4.354   6.001  0.5088 -0.0623  0.0396
  988MOL0     O33269  10.784   4.221   6.039  0.7599  0.4423 -0.2238
  988MOL0     C33270  10.791   4.190   6.173  0.4683  0.3046  0.8484
  988MOL0     C33271  10.763   4.053   6.205  0.0648 -0.9888 -0.1509
  988MOL0     C33272  10.767   4.009   6.336 -1.0190  0.2800  0.3644
  988MOL0     C33273  10.719   3.870   6.365  0.3903  0.2769 -0.0162
  988MOL0     C33274  10.814   4.093   6.438  0.3489 -0.5553  0.1123
  988MOL0     C33275  10.848   4.050   6.579 -0.2547 -0.5731 -0.6352
  988MOL0     O33276  10.881   3.921   6.597 -0.4662 -0.6586 -0.2400
  988MOL0     C33277  10.944   3.892   6.721  0.4017  0.3846 -0.3131
  988MOL0     C33278  10.881   3.811   6.806 -0.3791 -0.1663 -0.5783
  988MOL0     C33279  10.925   3.802   6.934 -0.0360  0.2272  0.3495
  988MOL0     C33280  11.034   3.876   6.980 -1.0537  0.3722 -0.5521
  988MOL0     O33281  11.071   3.903   7.113  0.3886  0.1342  0.0109
  988MOL0     C33282  10.974   3.878   7.203 -0.6402 -0.7863  0.6718
  988MOL0     C33283  11.003   3.738   7.271 -0.2039 -0.8412 -0.2186
  988MOL0     C33284  11.126   3.742   7.369 -0.4910  0.9140  0.5662
  988MOL0     C33285  11.162   3.600   7.410 -0.1984  0.0640  1.0522
  988MOL0     C33286  11.271   3.614   7.520  0.4638  0.4119 -0.4106
  988MOL0     C33287  11.325   3.471   7.556 -0.1453 -0.7574 -0.8608
  988MOL0     C33288  11.439   3.476   7.666  0.4129  0.5649  0.3742
  988MOL0     C33289  11.375   3.468   7.805 -0.7589  0.8733  0.2610
  988MOL0    Cl33290  11.380   3.297   7.855  0.1898 -0.1162  0.0477
  988MOL0     C33291  11.109   3.950   6.888 -0.8672  0.5277 -0.2427
  988MOL0     C33292  11.066   3.955   6.755 -0.0333 -0.0567 -1.0346
  988MOL0     O33293  10.831   4.136   6.670 -0.5809  0.3546  0.0034
  988MOL0     C33294  10.851   4.225   6.404  0.4158 -0.7395  0.2580
  988MOL0     C33295  10.843   4.269   6.271  0.4052  0.4058 -0.0334
  988MOL0     N33296  10.838   4.884   5.781  0.0608  0.4974 -0.0564
  988MOL0     N33297  10.810   4.943   5.670  0.8967  0.2207 -0.6515
  988MOL0     C33298   9.678   5.015   5.380  0.2472  0.4478  0.2420
  988MOL0     C33299   9.555   4.954   5.369  1.3407 -0.3988 -0.2940
  988MOL0     C33300   9.295   4.585   5.321 -0.3275 -1.0877 -0.3977
  988MOL0     C33301   9.194   4.663   5.379 -0.3449 -0.4982 -0.2173
  988MOL0     C33302   9.075   4.603   5.421  0.5078 -0.1227  0.0170
  988MOL0     C33303   9.047   4.464   5.411 -0.1759 -0.2780  0.2205
  988MOL0     O33304   8.932   4.405   5.458 -0.2864 -0.2719  0.1192
  988MOL0     C33305   8.835   4.477   5.532  0.3237 -0.6878 -0.4686
  988MOL0     C33306   8.721   4.543   5.445 -0.6060 -0.2637 -0.4897
  988MOL0     C33307   8.594   4.563   5.536  0.9001  0.3513  0.4962
  988MOL0     C33308   8.489   4.444   5.559  0.6274 -0.0013 -0.1387
  988MOL0     C33309   8.393   4.436   5.444 -0.6539 -0.0526  0.4860
  988MOL0     C33310   8.316   4.422   5.346 -0.1031 -0.4720 -0.0252
  988MOL0     C33311   9.148   4.383   5.353 -0.6568 -0.2353 -0.0435
  988MOL0     C33312   9.274   4.446   5.303  0.1252  0.5820  0.1712
  988MOL0     H33313   9.637   4.739   5.118 -0.6388  0.6045 -0.6808
  988MOL0     H33314   9.859   4.831   5.155 -0.2694 -2.3340  1.2903
  988MOL0     H33315   9.913   5.041   5.093  4.5381 -2.6908  0.0844
  988MOL0     H33316   9.930   5.205   5.172  0.8795  0.5058  3.0371
  988MOL0     H33317  10.104   4.966   5.199 -1.0244 -0.5890 -0.0545
  988MOL0     H33318  10.131   5.089   5.064  1.0724  2.2905  0.4581
  988MOL0     H33319  10.183   5.259   5.239 -0.0492 -0.0868 -0.2434
  988MOL0     H33320  10.159   5.142   5.366 -0.3788 -4.6911 -0.2852
  988MOL0     H33321  10.370   5.086   5.151 -0.7260  2.2403 -0.8815
  988MOL0     H33322  10.404   5.192   5.280  0.1456 -0.4139  1.5284
  988MOL0     H33323  10.315   5.000   5.444 -1.7837 -0.6754 -0.3012
  988MOL0     H33324  10.351   4.892   5.324  0.7432 -0.7712  1.9713
  988MOL0     H33325  10.571   4.969   5.275 -1.6533  0.9634 -0.3250
  988MOL0     H33326  10.568   5.090   5.407  4.4753 -1.7639  0.4799
  988MOL0     H33327  10.532   4.890   5.560 -1.4286  0.7118 -0.2687
  988MOL0     H33328  10.530   4.794   5.408 -2.2011  1.3359 -1.0959
  988MOL0     H33329  10.751   4.970   5.428 -0.6131  0.1256 -2.3059
  988MOL0     H33330  10.753   4.796   5.388 -0.4938 -1.2806  1.2410
  988MOL0     H33331  10.731   4.629   5.597 -0.2064 -0.2684  1.3606
  988MOL0     H33332  10.957   4.668   5.898 -0.9790  1.1624  1.5458
  988MOL0     H33333  10.792   4.638   5.965 -0.1574  0.1394 -0.5173
  988MOL0     H33334  10.955   4.503   5.742 -0.7815 -1.3425 -0.4064
  988MOL0     H33335  10.781   4.459   5.767  1.2435 -1.1151 -1.1254
  988MOL0     H33336  10.986   4.403   5.989  2.0296 -4.8753  0.1922
  988MOL0     H33337  10.936   4.285   5.877  0.6286 -0.9645  2.0190
  988MOL0     H33338  10.698   4.387   5.944  1.6354  0.0631 -1.6769
  988MOL0     H33339  10.793   4.427   6.082  0.3694  2.1363 -1.8335
  988MOL0     H33340  10.735   3.995   6.117 -1.3382  2.0275 -1.8705
  988MOL0     H33341  10.628   3.847   6.309 -0.4439 -0.8317  1.7225
  988MOL0     H33342  10.789   3.786   6.360 -0.4919 -0.4133 -1.4449
  988MOL0     H33343  10.674   3.862   6.464 -3.5408 -1.8134 -1.7760
  988MOL0     H33344  10.792   3.756   6.777  0.1864 -1.1570 -0.4483
  988MOL0     H33345  10.855   3.748   6.997 -1.6336  2.7133  0.8361
  988MOL0     H33346  10.970   3.960   7.275  2.0829  1.1819 -1.1997
  988MOL0     H33347  10.876   3.876   7.154  0.1491  1.9121 -1.2264
  988MOL0     H33348  10.922   3.731   7.344  2.3025 -0.9966  2.7353
  988MOL0     H33349  11.015   3.652   7.204  1.8102 -0.0180 -0.9907
  988MOL0     H33350  11.092   3.803   7.453 -0.8172  0.4034  0.8087
  988MOL0     H33351  11.218   3.791   7.335  0.3951  2.2822  4.4035
  988MOL0     H33352  11.078   3.542   7.450  1.1703 -1.9740  1.1482
  988MOL0     H33353  11.197   3.560   7.314  0.4569  1.9427  0.4675
  988MOL0     H33354  11.226   3.664   7.606 -2.1841  0.6211 -1.8467
  988MOL0     H33355  11.351   3.682   7.489  0.2541  0.1766 -1.4985
  988MOL0     H33356  11.245   3.405   7.588 -0.5643  0.3439  0.4301
  988MOL0     H33357  11.374   3.435   7.464  0.9910  1.7843 -1.3483
  988MOL0     H33358  11.487   3.574   7.660  0.2955  0.6279  0.4439
  988MOL0     H33359  11.509   3.395   7.643  1.6271  1.1743  1.7869
  988MOL0     H33360  11.277   3.516   7.814 -1.8271 -0.5089 -2.7860
  988MOL0     H33361  11.443   3.509   7.880 -1.2518 -1.7062  2.2923
  988MOL0     H33362  11.188   4.017   6.920  0.3607 -1.4318  1.0337
  988MOL0     H33363  11.118   4.002   6.672  0.5865  0.8380 -0.1446
  988MOL0     H33364  10.895   4.292   6.477  0.8081 -1.4172  0.6547
  988MOL0     H33365  10.887   4.368   6.261 -0.1803  0.8621  1.6170
  988MOL0     H33366   9.695   5.100   5.444  1.7962  0.8391 -0.6241
  988MOL0     H33367   9.466   4.985   5.424  1.2769 -0.2351 -0.4911
  988MOL0     H33368   9.212   4.769   5.390 -0.4890 -0.6115  1.3298
  988MOL0     H33369   9.000   4.673   5.455 -0.4259 -1.6686  1.2850
  988MOL0     H33370   8.791   4.411   5.607 -1.3287 -0.0496 -0.8272
  988MOL0     H33371   8.888   4.543   5.602 -0.0508  0.3903 -1.1745
  988MOL0     H33372   8.702   4.482   5.356 -0.6008 -0.3598 -0.4265
  988MOL0     H33373   8.756   4.640   5.409  3.5466 -0.8650  1.3116
  988MOL0     H33374   8.537   4.640   5.484 -1.1194 -2.4071 -1.6668
  988MOL0     H33375   8.627   4.611   5.629  1.7490  3.2804 -1.1746
  988MOL0     H33376   8.432   4.455   5.652  0.9988 -3.7753  0.7196
  988MOL0     H33377   8.543   4.349   5.569 -0.6858 -0.8573 -0.9602
  988MOL0     H33378   8.252   4.409   5.261 -1.9520  0.0249  1.2337
  988MOL0     H33379   9.138   4.277   5.332 -1.6536 -0.3211  0.8390
  988MOL0     H33380   9.350   4.379   5.264 -2.2212 -0.6717 -2.6237
  989MOL0     O33381   2.123   7.331   9.936  0.3246  0.4910 -0.1131
  989MOL0     C33382   2.027   7.250   9.927 -0.0618  0.0357 -1.1901
  989MOL0     O33383   1.976   7.179  10.029  0.3080 -0.8699  0.5370
  989MOL0     C33384   2.020   7.169  10.159  0.5587  0.6219  0.8802
  989MOL0     C33385   2.137   7.221  10.224 -0.5211  0.2542  0.8235
  989MOL0     C33386   2.186   7.181  10.347 -0.1849 -0.3580  0.7046
  989MOL0     C33387   2.119   7.081  10.427  0.2974 -0.4941 -0.5326
  989MOL0     O33388   2.171   7.028  10.545  0.4356 -0.9304 -0.2766
  989MOL0     C33389   2.296   7.075  10.582  1.0998 -0.3299 -0.5039
  989MOL0     C33390   2.336   6.983  10.693  0.5430 -0.3784 -0.0259
  989MOL0     C33391   2.454   7.038  10.770 -0.0861  0.1911 -1.1760
  989MOL0     C33392   2.585   7.026  10.692  0.7470  0.5627 -0.3970
  989MOL0     C33393   2.687   7.126  10.746  0.5889 -0.2921  1.1568
  989MOL0     C33394   2.826   7.094  10.679  0.6596 -0.0496  0.7609
  989MOL0     C33395   2.882   6.968  10.744 -0.5251  0.5504 -0.2434
  989MOL0     C33396   3.017   6.939  10.690 -0.5608  0.6380  0.6503
  989MOL0     N33397   3.121   6.938  10.799  0.0975 -0.2640  0.0627
  989MOL0     C33398   3.175   7.044  10.867 -0.1599  0.5069 -0.2180
  989MOL0     C33399   3.266   6.986  10.955 -0.1194  0.6391 -1.0869
  989MOL0     C33400   3.348   7.064  11.057 -0.0961 -0.3503  1.5215
  989MOL0     C33401   3.329   7.056  11.208  0.2509 -0.3222 -0.0937
  989MOL0     C33402   3.257   7.179  11.264 -0.5226  0.8823  0.2593
  989MOL0     C33403   3.184   7.160  11.406  0.5123  1.1457 -0.3768
  989MOL0     O33404   3.256   7.079  11.502 -0.3515  0.0138 -0.1657
  989MOL0     C33405   3.210   7.072  11.628 -0.2950 -0.2407 -0.6691
  989MOL0     C33406   3.079   7.045  11.680  0.4693  0.3415 -0.4355
  989MOL0     C33407   3.055   7.026  11.820 -0.9842 -0.2750 -0.6280
  989MOL0     C33408   2.911   6.972  11.851  0.6160  0.2136  0.0859
  989MOL0     C33409   3.152   7.058  11.912 -0.0014  0.6120 -0.5573
  989MOL0     C33410   3.141   7.058  12.061 -0.2553  0.4367 -0.6331
  989MOL0     O33411   3.239   7.106  12.151 -0.0529  0.2550  0.3121
  989MOL0     C33412   3.235   7.072  12.288  0.3016 -1.1397  0.8604
  989MOL0     C33413   3.334   6.989  12.349 -0.1740  0.5656 -0.6588
  989MOL0     C33414   3.322   6.949  12.487 -0.2139  1.2360 -0.9972
  989MOL0     C33415   3.210   6.992  12.560  0.0845 -0.2569 -0.3697
  989MOL0     O33416   3.195   6.959  12.689 -0.1462  0.7885  0.0235
  989MOL0     C33417   3.198   6.820  12.717  0.5204 -0.4838 -0.0452
  989MOL0     C33418   3.128   6.785  12.853 -0.9310 -0.7264  0.5750
  989MOL0     C33419   3.135   6.637  12.888  0.2220 -0.3135 -0.2348
  989MOL0     C33420   3.046   6.618  13.017  0.0027  0.4022 -0.9493
  989MOL0     C33421   3.054   6.475  13.073  0.3084  0.4665  0.7340
  989MOL0     C33422   3.197   6.411  13.078 -0.0769  0.6879  0.5025
  989MOL0     C33423   3.197   6.267  13.137  0.0705 -0.3388  0.1929
  989MOL0     C33424   3.337   6.204  13.175 -0.0771  0.4612  0.6139
  989MOL0    Cl33425   3.435   6.197  13.023  0.0645 -0.3222  0.4338
  989MOL0     C33426   3.117   7.077  12.501  0.7902  0.3354  0.2640
  989MOL0     C33427   3.134   7.120  12.366  0.1295  0.4242  0.7498
  989MOL0     O33428   3.026   7.028  12.096  0.1992  0.0715  0.0194
  989MOL0     C33429   3.273   7.092  11.860 -0.2985  0.2964 -0.9620
  989MOL0     C33430   3.304   7.090  11.730 -0.6026  0.3329 -0.3946
  989MOL0     N33431   3.266   6.854  10.940  0.3388  0.5325  1.4627
  989MOL0     N33432   3.178   6.822  10.842  0.2794  0.1698 -0.6129
  989MOL0     C33433   1.989   7.039  10.374 -0.9546  0.9416  0.0115
  989MOL0     C33434   1.953   7.075  10.242  1.8537 -1.2193  0.8809
  989MOL0     C33435   1.966   7.224   9.796  0.3659 -0.2708 -0.3000
  989MOL0     C33436   1.849   7.148   9.781  0.0650 -0.2928  0.6292
  989MOL0     C33437   1.798   7.124   9.653 -0.4969 -0.3798 -0.3700
  989MOL0     C33438   1.851   7.181   9.532 -0.0396  0.2825  0.1764
  989MOL0     O33439   1.794   7.181   9.407  0.3183  1.1015 -0.9458
  989MOL0     C33440   1.658   7.219   9.402  0.5592  0.6584 -0.0840
  989MOL0     C33441   1.596   7.191   9.268  0.0584  0.8789 -0.3521
  989MOL0     C33442   1.618   7.049   9.214 -0.6573  0.1478  0.4594
  989MOL0     C33443   1.576   6.944   9.313 -0.0436  0.0215  0.4388
  989MOL0     C33444   1.584   6.816   9.245 -0.1997 -0.0143  0.1042
  989MOL0     C33445   1.582   6.722   9.176  0.0318 -1.3907  0.2761
  989MOL0     C33446   1.971   7.248   9.549  0.5130 -0.6942  0.2216
  989MOL0     C33447   2.030   7.277   9.679  0.4696  0.9400 -0.3363
  989MOL0     H33448   2.189   7.301  10.173 -2.0321  3.7490  4.2388
  989MOL0     H33449   2.277   7.225  10.387 -0.1355 -0.2524  0.4719
  989MOL0     H33450   2.372   7.073  10.504  0.7460 -0.0348 -0.8590
  989MOL0     H33451   2.278   7.174  10.625 -1.2585 -0.7724 -0.3198
  989MOL0     H33452   2.250   6.980  10.761  1.2313  0.5373  0.9237
  989MOL0     H33453   2.371   6.883  10.670  0.1694 -1.7736  4.4756
  989MOL0     H33454   2.449   7.146  10.783  0.5216  0.1132 -0.0945
  989MOL0     H33455   2.471   6.987  10.866  0.3948  2.2036 -0.1471
  989MOL0     H33456   2.612   6.921  10.707 -2.5152 -0.3071  0.1163
  989MOL0     H33457   2.568   7.041  10.585  0.4104  1.3932 -0.2357
  989MOL0     H33458   2.669   7.233  10.738 -1.3274 -0.5228  2.0299
  989MOL0     H33459   2.692   7.104  10.853  0.3401  2.1027  1.7189
  989MOL0     H33460   2.806   7.096  10.571 -3.8052 -1.0135  1.3485
  989MOL0     H33461   2.885   7.181  10.710 -2.7369  2.9095 -0.3548
  989MOL0     H33462   2.894   6.982  10.852 -2.7440  3.1058 -0.2404
  989MOL0     H33463   2.812   6.886  10.728 -3.1714  2.1538  2.2531
  989MOL0     H33464   3.051   7.003  10.609 -1.2224  0.7627  0.4596
  989MOL0     H33465   3.015   6.842  10.640 -3.6998  1.0524 -0.2846
  989MOL0     H33466   3.150   7.146  10.841  2.5784  0.7006 -2.7089
  989MOL0     H33467   3.435   7.002  11.033 -1.7126 -1.7574 -1.3068
  989MOL0     H33468   3.359   7.166  11.020 -2.0859 -0.6520 -0.1216
  989MOL0     H33469   3.425   7.044  11.259 -0.1438 -3.7886  0.0563
  989MOL0     H33470   3.271   6.966  11.230  2.2832 -1.5415  0.4968
  989MOL0     H33471   3.182   7.216  11.194 -1.7758  0.6552  1.4459
  989MOL0     H33472   3.333   7.256  11.277 -0.7474  1.1554 -0.0447
  989MOL0     H33473   3.086   7.117  11.383 -1.3613  4.2490  1.1053
  989MOL0     H33474   3.162   7.253  11.459 -0.8533 -1.2531  3.7718
  989MOL0     H33475   2.995   7.020  11.616  0.0273  0.0383  0.2447
  989MOL0     H33476   2.860   6.916  11.772  2.2563 -1.9421  0.4568
  989MOL0     H33477   2.931   6.892  11.923 -3.0743 -1.4432 -0.5097
  989MOL0     H33478   2.850   7.049  11.898 -0.3494 -0.4102 -0.1299
  989MOL0     H33479   3.424   6.954  12.300 -1.5786 -1.6828 -1.8629
  989MOL0     H33480   3.391   6.880  12.535 -0.4062  2.3421  0.9646
  989MOL0     H33481   3.160   6.753  12.639  0.6165  0.5006 -0.9712
  989MOL0     H33482   3.303   6.793  12.730  0.5426  0.3173  1.6790
  989MOL0     H33483   3.186   6.839  12.928 -0.1798  0.3759 -0.7444
  989MOL0     H33484   3.025   6.823  12.851 -1.0276 -0.9919 -0.2390
  989MOL0     H33485   3.239   6.631  12.922  0.1238  3.5561  1.2888
  989MOL0     H33486   3.118   6.560  12.813  0.0931 -1.7062  1.1869
  989MOL0     H33487   3.091   6.681  13.094 -1.9850 -0.4287  0.9722
  989MOL0     H33488   2.943   6.648  12.993  0.7513  2.5654 -1.6805
  989MOL0     H33489   3.007   6.399  13.009  1.6629  1.0979 -1.1120
  989MOL0     H33490   2.998   6.474  13.167  0.3264  0.4968  0.7453
  989MOL0     H33491   3.231   6.414  12.974 -1.6497 -2.7133 -0.2334
  989MOL0     H33492   3.271   6.464  13.139 -0.8476 -1.0476  3.0966
  989MOL0     H33493   3.144   6.194  13.075  0.7963 -2.7492  2.2252
  989MOL0     H33494   3.147   6.274  13.234  4.6213 -0.7969  2.8773
  989MOL0     H33495   3.319   6.104  13.216  5.7194  0.6611  4.9516
  989MOL0     H33496   3.382   6.265  13.253  0.3840  1.3982 -0.3558
  989MOL0     H33497   3.034   7.110  12.564 -0.4758  0.3347 -1.3271
  989MOL0     H33498   3.059   7.184  12.320  1.1784  0.8326 -0.4601
  989MOL0     H33499   3.358   7.116  11.923 -2.3752  3.0414  1.0131
  989MOL0     H33500   3.409   7.097  11.702 -0.7055  0.2268 -0.8261
  989MOL0     H33501   1.919   6.980  10.432  2.3783 -2.7737  0.6218
  989MOL0     H33502   1.862   7.045  10.191  1.2539 -2.8657  2.8130
  989MOL0     H33503   1.796   7.104   9.865 -1.0124 -0.5515 -0.1591
  989MOL0     H33504   1.701   7.079   9.636 -0.0318 -1.1661 -1.0178
  989MOL0     H33505   1.595   7.168   9.475  0.2750  2.3704  0.9257
  989MOL0     H33506   1.659   7.328   9.415  0.2374  0.8459 -1.4879
  989MOL0     H33507   1.629   7.255   9.186 -1.8443 -0.0652 -1.9171
  989MOL0     H33508   1.489   7.209   9.280 -0.2718 -1.6222  1.1417
  989MOL0     H33509   1.721   7.028   9.181 -1.9844 -2.8726 -2.2954
  989MOL0     H33510   1.553   7.034   9.128  0.8736 -1.5399 -0.4970
  989MOL0     H33511   1.477   6.965   9.356  0.5597  1.7430  1.0970
  989MOL0     H33512   1.644   6.948   9.399  0.3632  3.3885  0.1255
  989MOL0     H33513   1.584   6.642   9.105 -1.5531 -1.5040  0.3415
  989MOL0     H33514   2.018   7.292   9.462  3.7873 -2.1482  1.1069
  989MOL0     H33515   2.121   7.335   9.693  0.9807  0.4578 -1.5165
  990MOL0     O33516   3.397   3.361   5.987 -0.3320  0.0698 -0.1661
  990MOL0     C33517   3.340   3.362   6.096  0.5921 -0.4694 -0.2846
  990MOL0     O33518   3.393   3.377   6.215  0.2459 -0.1560 -0.2285
  990MOL0     C33519   3.532   3.392   6.216 -0.3633 -0.4589  0.1240
  990MOL0     C33520   3.598   3.516   6.254  0.3409  0.5740 -0.2559
  990MOL0     C33521   3.738   3.524   6.255 -0.6517 -0.3508  0.8298
  990MOL0     C33522   3.823   3.424   6.224  0.2307 -0.2284 -0.5961
  990MOL0     O33523   3.963   3.443   6.232  0.0824 -0.2626  1.0351
  990MOL0     C33524   4.056   3.378   6.153  0.2770 -0.4149  0.3670
  990MOL0     C33525   4.188   3.459   6.137  0.5389  0.4869 -0.1547
  990MOL0     C33526   4.178   3.607   6.119 -0.5133  0.9526  0.3332
  990MOL0     C33527   4.071   3.656   6.016 -0.9270 -0.3249  0.9750
  990MOL0     C33528   4.102   3.611   5.865  0.1994 -0.6593 -0.0305
  990MOL0     C33529   4.047   3.722   5.776 -0.0513  0.5124 -0.0139
  990MOL0     C33530   4.066   3.691   5.625  0.7160 -0.0351 -0.1148
  990MOL0     C33531   4.212   3.688   5.590  1.2443 -0.0845  0.8320
  990MOL0     N33532   4.235   3.727   5.454 -0.0580 -0.2780 -0.3944
  990MOL0     C33533   4.293   3.647   5.357  0.4563 -0.1175 -0.6539
  990MOL0     C33534   4.296   3.739   5.255  0.2051  0.0078 -0.0538
  990MOL0     C33535   4.322   3.690   5.107 -0.1308 -0.0332 -0.2936
  990MOL0     C33536   4.475   3.670   5.077  0.0285 -0.2117  0.7214
  990MOL0     C33537   4.504   3.680   4.923 -0.0517 -0.0401 -0.2796
  990MOL0     C33538   4.659   3.677   4.902 -0.1736  0.4545 -0.0192
  990MOL0     O33539   4.712   3.553   4.957 -0.1152 -0.4605  0.2242
  990MOL0     C33540   4.846   3.528   4.948 -0.2625  0.5881  0.2298
  990MOL0     C33541   4.933   3.607   4.886 -0.8258  0.0587 -0.3019
  990MOL0     C33542   5.070   3.572   4.870  0.5912 -0.5268  0.5229
  990MOL0     C33543   5.154   3.663   4.783  1.4270 -0.7290  0.0606
  990MOL0     C33544   5.114   3.449   4.913  0.0348  0.4041 -0.8741
  990MOL0     C33545   5.256   3.396   4.904 -0.0446 -0.3518  0.9632
  990MOL0     O33546   5.351   3.477   4.850  0.1481 -0.7920 -0.0156
  990MOL0     C33547   5.481   3.446   4.893  0.7242 -1.0881  1.0460
  990MOL0     C33548   5.540   3.517   5.005  1.1628  0.3302  0.2199
  990MOL0     C33549   5.666   3.486   5.039 -0.0730 -0.1278 -0.5156
  990MOL0     C33550   5.746   3.397   4.968  0.7839 -0.1946  0.1991
  990MOL0     O33551   5.876   3.368   4.994  0.0053 -1.0489 -0.0865
  990MOL0     C33552   5.921   3.361   5.133  0.4107  0.8923  0.3836
  990MOL0     C33553   5.923   3.211   5.162  0.8323  0.0357  0.3479
  990MOL0     C33554   5.975   3.184   5.302 -0.4783 -0.4714  0.3617
  990MOL0     C33555   6.097   3.278   5.344  0.5111 -1.3394 -0.3418
  990MOL0     C33556   6.179   3.213   5.450  0.4451 -0.4096 -0.1033
  990MOL0     C33557   6.236   3.310   5.556 -1.0847 -0.1802 -0.2725
  990MOL0     C33558   6.361   3.385   5.512  0.4968  0.6904 -0.1185
  990MOL0     C33559   6.350   3.496   5.404 -0.4920  0.9525 -0.2989
  990MOL0    Cl33560   6.214   3.603   5.452 -0.2882  0.5082  0.1191
  990MOL0     C33561   5.688   3.327   4.859 -0.4490 -0.0240 -0.1162
  990MOL0     C33562   5.555   3.353   4.815  0.1638 -0.1135  0.7613
  990MOL0     O33563   5.275   3.272   4.934  0.0108 -0.0167  0.1914
  990MOL0     C33564   5.020   3.369   4.975  1.0043 -0.1325  0.6919
  990MOL0     C33565   4.885   3.406   4.998 -0.6406 -0.3184 -0.0696
  990MOL0     N33566   4.277   3.865   5.300  1.2179  0.6498 -0.6574
  990MOL0     N33567   4.250   3.855   5.426 -0.2448  0.8976  0.3501
  990MOL0     C33568   3.767   3.302   6.188  0.7727 -0.0108 -0.2071
  990MOL0     C33569   3.628   3.284   6.183  0.3134 -0.8727 -0.2412
  990MOL0     C33570   3.195   3.330   6.094 -0.0083  0.1994 -0.5122
  990MOL0     C33571   3.121   3.320   6.213  1.2720 -0.7856  0.6910
  990MOL0     C33572   2.988   3.295   6.209 -0.0327  0.4187 -0.4374
  990MOL0     C33573   2.910   3.282   6.098  1.4076  0.0004 -0.2574
  990MOL0     O33574   2.771   3.266   6.115  0.4833  0.0461  0.1286
  990MOL0     C33575   2.691   3.321   6.013  0.7628 -0.3367  0.3621
  990MOL0     C33576   2.547   3.314   6.076  0.4575  0.8971  0.2551
  990MOL0     C33577   2.460   3.438   6.037 -0.3742  0.3413  0.2238
  990MOL0     C33578   2.310   3.428   6.058  0.4354  0.3550 -0.4377
  990MOL0     C33579   2.231   3.524   5.978 -0.5994  0.1846  0.2350
  990MOL0     C33580   2.160   3.595   5.901  0.0017 -0.1530 -0.6067
  990MOL0     C33581   2.985   3.273   5.983 -0.4916 -0.2126  0.6855
  990MOL0     C33582   3.127   3.295   5.978 -0.5362 -0.1543  0.1286
  990MOL0     H33583   3.544   3.610   6.266  0.3987  0.4050  1.7438
  990MOL0     H33584   3.773   3.624   6.278 -2.1146  0.6435 -1.0057
  990MOL0     H33585   4.060   3.275   6.190 -0.4621 -1.3901 -2.0579
  990MOL0     H33586   4.020   3.356   6.052  2.2424 -1.7426 -0.1058
  990MOL0     H33587   4.242   3.450   6.232 -0.9494  3.2986  1.0725
  990MOL0     H33588   4.233   3.410   6.050 -5.8986 -1.7812 -2.7948
  990MOL0     H33589   4.164   3.656   6.215  0.5090  1.2204  0.3594
  990MOL0     H33590   4.276   3.644   6.086 -1.7452  1.3228 -3.4624
  990MOL0     H33591   3.969   3.629   6.044 -0.6962 -1.4724  0.7455
  990MOL0     H33592   4.074   3.765   6.023 -0.2454 -0.4315  2.7863
  990MOL0     H33593   4.210   3.623   5.857 -0.2074  4.5905 -0.7784
  990MOL0     H33594   4.065   3.509   5.848 -0.0961 -0.6604  0.5671
  990MOL0     H33595   3.940   3.743   5.791 -0.0555  2.0436 -1.7674
  990MOL0     H33596   4.102   3.814   5.794  2.7381 -0.8983 -0.8635
  990MOL0     H33597   4.015   3.605   5.581  1.3196 -1.4674  1.8683
  990MOL0     H33598   4.026   3.777   5.570 -0.0046 -0.4424 -0.2363
  990MOL0     H33599   4.238   3.585   5.614 -0.6905 -1.2628 -1.5750
  990MOL0     H33600   4.274   3.745   5.659 -1.9118  3.6553  0.9426
  990MOL0     H33601   4.318   3.542   5.358  0.6442 -0.1274  2.6750
  990MOL0     H33602   4.276   3.592   5.088  0.4130  0.0621 -2.4059
  990MOL0     H33603   4.277   3.766   5.043  2.0746  2.4973  0.9498
  990MOL0     H33604   4.505   3.580   5.131  1.0248 -1.8574 -2.3418
  990MOL0     H33605   4.527   3.757   5.119 -1.0034  0.5970  0.3476
  990MOL0     H33606   4.462   3.769   4.876  0.4374  1.5249  2.0765
  990MOL0     H33607   4.474   3.587   4.873 -0.0955  0.5464 -1.3753
  990MOL0     H33608   4.706   3.766   4.944 -0.0877 -0.5058  2.0516
  990MOL0     H33609   4.689   3.670   4.798 -1.4651 -1.0104 -0.3354
  990MOL0     H33610   4.905   3.711   4.869 -0.9305  0.2131  0.7484
  990MOL0     H33611   5.170   3.615   4.686 -3.7525 -2.0281 -0.4363
  990MOL0     H33612   5.096   3.756   4.772  1.1533  0.0002  5.1098
  990MOL0     H33613   5.249   3.686   4.831  1.4099  0.9502 -0.6213
  990MOL0     H33614   5.476   3.572   5.074 -1.3777 -0.8503 -1.0485
  990MOL0     H33615   5.706   3.544   5.122 -2.5610  1.9244 -0.6233
  990MOL0     H33616   6.022   3.403   5.125  1.7008 -1.8473  0.8731
  990MOL0     H33617   5.856   3.416   5.201 -0.1435  1.0520 -0.2716
  990MOL0     H33618   5.830   3.156   5.149  1.1902 -0.0609 -2.3508
  990MOL0     H33619   5.988   3.176   5.081 -0.9890  1.0653 -1.6416
  990MOL0     H33620   5.999   3.078   5.295 -1.5263 -0.6106 -2.9077
  990MOL0     H33621   5.890   3.199   5.370 -2.1694 -1.8214 -1.3478
  990MOL0     H33622   6.165   3.296   5.260  0.3125  1.4746 -0.0059
  990MOL0     H33623   6.059   3.378   5.370  1.0252 -1.2245 -0.0277
  990MOL0     H33624   6.251   3.141   5.409  0.9501  1.2612 -2.3307
  990MOL0     H33625   6.120   3.155   5.522  0.5661 -0.4570 -0.0410
  990MOL0     H33626   6.159   3.377   5.597 -1.2279  0.4641 -1.5550
  990MOL0     H33627   6.269   3.245   5.638 -1.5832  0.0970  0.1589
  990MOL0     H33628   6.434   3.312   5.474 -1.5245 -1.4145 -0.1592
  990MOL0     H33629   6.407   3.443   5.592 -0.1614  1.2228 -0.1239
  990MOL0     H33630   6.336   3.438   5.312 -0.8868 -1.8935  1.4300
  990MOL0     H33631   6.449   3.543   5.404  1.3171 -2.5451 -0.2606
  990MOL0     H33632   5.752   3.258   4.805  2.4756  0.7040  2.1788
  990MOL0     H33633   5.513   3.316   4.722 -0.0700  1.6648  0.1257
  990MOL0     H33634   5.045   3.265   4.990  1.4468  0.0815  1.5136
  990MOL0     H33635   4.812   3.337   5.037  1.1824 -1.8577  0.8034
  990MOL0     H33636   3.841   3.223   6.175 -0.1728 -1.2950  1.7814
  990MOL0     H33637   3.587   3.184   6.169 -1.7250 -0.8558  3.9053
  990MOL0     H33638   3.171   3.341   6.307  0.5281  0.2145  0.8723
  990MOL0     H33639   2.928   3.286   6.299 -0.1508 -0.5585 -0.6017
  990MOL0     H33640   2.717   3.426   5.994 -2.7890  1.9869  5.9111
  990MOL0     H33641   2.707   3.258   5.925  2.0376  1.2796 -0.6332
  990MOL0     H33642   2.555   3.319   6.185  1.1184  0.4060  0.2345
  990MOL0     H33643   2.496   3.221   6.048 -0.2872  0.5180  2.6872
  990MOL0     H33644   2.486   3.464   5.933  0.0260 -1.8771 -0.2857
  990MOL0     H33645   2.493   3.525   6.095  0.3291  0.9701 -1.0593
  990MOL0     H33646   2.272   3.425   6.160 -0.1053  0.1073 -0.6431
  990MOL0     H33647   2.279   3.328   6.026  1.6960 -0.1237 -0.2055
  990MOL0     H33648   2.096   3.663   5.848 -0.8130  0.5276  1.1417
  990MOL0     H33649   2.936   3.268   5.886  4.1604 -0.5899 -1.9533
  990MOL0     H33650   3.176   3.306   5.883 -1.7180 -1.4228 -0.6747
  991MOL0     O33651   6.535   4.984   2.447 -0.0360  1.1910 -0.4978
  991MOL0     C33652   6.441   5.016   2.514 -0.1515  0.3761  0.4503
  991MOL0     O33653   6.422   4.980   2.643 -0.5503  0.5868 -0.2555
  991MOL0     C33654   6.506   4.894   2.711  0.9395 -0.3350 -0.3623
  991MOL0     C33655   6.511   4.926   2.850 -0.2729 -0.8714 -0.2027
  991MOL0     C33656   6.572   4.833   2.933  0.1087  0.2015 -0.2525
  991MOL0     C33657   6.638   4.716   2.888 -0.5875 -0.5333  0.6137
  991MOL0     O33658   6.712   4.645   2.977 -0.3596  0.0792  0.0334
  991MOL0     C33659   6.850   4.623   2.931 -1.0272 -0.7407 -0.5952
  991MOL0     C33660   6.924   4.523   3.015 -0.1164  0.3052 -0.7901
  991MOL0     C33661   6.906   4.521   3.165  0.4832 -0.4074  0.1196
  991MOL0     C33662   6.953   4.647   3.244  0.4012  0.4998  0.2444
  991MOL0     C33663   6.977   4.616   3.391  0.0376 -0.0008 -0.1590
  991MOL0     C33664   6.859   4.584   3.476 -0.5319  0.5321 -0.1019
  991MOL0     C33665   6.886   4.593   3.629 -0.2127  0.0045 -0.5844
  991MOL0     C33666   6.960   4.719   3.691 -0.4838 -0.1829  0.2407
  991MOL0     N33667   6.955   4.730   3.844 -0.0874 -0.4095 -0.5070
  991MOL0     C33668   6.959   4.837   3.927 -0.3273 -0.5372 -0.5022
  991MOL0     C33669   6.960   4.787   4.054 -0.6504  1.1479  0.2038
  991MOL0     C33670   6.972   4.853   4.186  0.1783  0.2645  0.0608
  991MOL0     C33671   6.840   4.854   4.265  0.1544  0.2338  0.0417
  991MOL0     C33672   6.866   4.915   4.398 -0.0679 -0.0386  0.1475
  991MOL0     C33673   6.729   4.957   4.459 -0.1910 -0.6090 -0.4036
  991MOL0     O33674   6.764   5.011   4.591 -0.0919  0.1766 -0.1974
  991MOL0     C33675   6.660   5.077   4.662 -1.3159  0.0857  0.0705
  991MOL0     C33676   6.678   5.140   4.776 -0.1861  0.1152 -0.0142
  991MOL0     C33677   6.584   5.200   4.856  0.1084 -1.3695  0.0625
  991MOL0     C33678   6.626   5.245   4.994  0.6141  0.3988  0.0500
  991MOL0     C33679   6.449   5.213   4.806 -0.5077  0.6340 -0.1542
  991MOL0     C33680   6.331   5.275   4.881  0.4817  0.6099 -0.3640
  991MOL0     O33681   6.344   5.370   4.961 -0.1788 -0.6893 -0.6709
  991MOL0     C33682   6.228   5.409   5.027 -0.6315  0.0086  0.1767
  991MOL0     C33683   6.168   5.539   5.002 -0.3338  0.0443  0.0100
  991MOL0     C33684   6.053   5.574   5.073  0.8682 -0.0136  0.7495
  991MOL0     C33685   5.997   5.491   5.172  0.6754 -0.1951 -0.0161
  991MOL0     O33686   5.887   5.540   5.242  0.8203 -0.7382  0.2843
  991MOL0     C33687   5.787   5.446   5.297  1.4997  1.0933  0.9741
  991MOL0     C33688   5.652   5.498   5.342  0.1509 -0.9469  0.1491
  991MOL0     C33689   5.550   5.528   5.229 -0.6454  0.4911  1.1464
  991MOL0     C33690   5.465   5.660   5.249  0.6890  0.0034 -0.0903
  991MOL0     C33691   5.393   5.661   5.379 -0.1270  0.2884 -0.7295
  991MOL0     C33692   5.269   5.568   5.388  0.2046  0.1593  0.8389
  991MOL0     C33693   5.290   5.427   5.436  0.6341  0.8391  0.3877
  991MOL0     C33694   5.162   5.341   5.425  0.1513 -0.0884 -0.0002
  991MOL0    Cl33695   5.021   5.417   5.510  0.5888  0.2918  0.1311
  991MOL0     C33696   6.056   5.369   5.202  0.6161  0.6209 -0.5943
  991MOL0     C33697   6.173   5.330   5.134  0.2405  0.3655 -0.1360
  991MOL0     O33698   6.227   5.215   4.858  0.2236 -1.3240 -0.0397
  991MOL0     C33699   6.419   5.151   4.686  0.0798 -0.3830  0.4883
  991MOL0     C33700   6.527   5.092   4.610  0.0779 -0.2325 -0.1070
  991MOL0     N33701   6.952   4.644   4.044 -0.0847 -0.6615 -0.4694
  991MOL0     N33702   6.967   4.608   3.918  0.0448 -0.0826  0.7034
  991MOL0     C33703   6.619   4.682   2.756 -0.4089 -0.4247 -0.0976
  991MOL0     C33704   6.559   4.770   2.666  0.7779  0.5289 -0.0488
  991MOL0     C33705   6.332   5.095   2.471  0.2485 -0.1146  0.0761
  991MOL0     C33706   6.237   5.150   2.560  0.5535  0.0401 -0.1027
  991MOL0     C33707   6.130   5.221   2.517 -0.4131  0.0488 -0.0392
  991MOL0     C33708   6.114   5.248   2.380 -0.9003  0.2431 -0.5129
  991MOL0     O33709   6.006   5.310   2.325  0.6006 -1.1224 -0.0931
  991MOL0     C33710   5.894   5.358   2.403  0.8722  0.7071  0.8372
  991MOL0     C33711   5.873   5.502   2.351 -0.1646 -0.9880  0.0800
  991MOL0     C33712   5.789   5.588   2.450 -0.3701 -0.8723 -0.1906
  991MOL0     C33713   5.635   5.586   2.411  1.0247 -0.2818 -0.5434
  991MOL0     C33714   5.582   5.451   2.381  0.5954 -0.7847 -0.6257
  991MOL0     C33715   5.534   5.350   2.333 -0.7247  0.0648  1.1780
  991MOL0     C33716   6.208   5.189   2.291  0.4378  0.1029  0.0042
  991MOL0     C33717   6.311   5.113   2.334  0.2713 -0.5130 -0.2428
  991MOL0     H33718   6.483   5.028   2.875  1.7077 -0.9566  2.8804
  991MOL0     H33719   6.582   4.855   3.038  3.8060 -1.9204  0.0376
  991MOL0     H33720   6.862   4.591   2.827  1.6522 -1.0344 -0.2920
  991MOL0     H33721   6.906   4.717   2.936 -0.6871 -0.9818  0.7969
  991MOL0     H33722   6.900   4.424   2.976  0.9251 -0.1572 -0.3112
  991MOL0     H33723   7.030   4.539   2.993  0.4935 -0.3899  1.3864
  991MOL0     H33724   6.799   4.519   3.192  0.3376 -1.9967 -0.4349
  991MOL0     H33725   6.936   4.428   3.215 -1.3014 -1.9381 -1.4869
  991MOL0     H33726   7.050   4.665   3.197 -0.7473 -0.1091 -2.6195
  991MOL0     H33727   6.884   4.732   3.239  0.5303  0.5641 -0.7441
  991MOL0     H33728   7.054   4.538   3.395  1.5900  1.5036  1.6207
  991MOL0     H33729   7.006   4.716   3.427  2.0463 -0.5376 -0.1680
  991MOL0     H33730   6.781   4.654   3.447 -3.0754 -2.6520 -1.5557
  991MOL0     H33731   6.827   4.483   3.448  0.3013  0.3110 -0.2845
  991MOL0     H33732   6.787   4.598   3.676  0.5448  0.7784  0.9966
  991MOL0     H33733   6.934   4.496   3.641  1.6537  1.1186  1.7183
  991MOL0     H33734   6.907   4.806   3.652 -1.6463 -1.5991 -1.4410
  991MOL0     H33735   7.069   4.723   3.676 -0.1887 -0.2318  2.0342
  991MOL0     H33736   6.970   4.942   3.905  3.5003 -0.4577  1.0530
  991MOL0     H33737   7.048   4.797   4.243  1.2802  1.4866 -0.1587
  991MOL0     H33738   7.007   4.955   4.168  0.4802  0.0569 -0.5696
  991MOL0     H33739   6.812   4.748   4.271  1.8146 -0.2195  0.4753
  991MOL0     H33740   6.768   4.915   4.210 -0.1829  0.5944  0.8702
  991MOL0     H33741   6.934   5.001   4.393  1.9024 -1.5184  0.1732
  991MOL0     H33742   6.911   4.837   4.460  0.5187 -0.7161 -1.0795
  991MOL0     H33743   6.665   4.870   4.474  0.5054 -1.0249  0.2370
  991MOL0     H33744   6.683   5.034   4.396 -1.1343  1.9948  3.1471
  991MOL0     H33745   6.777   5.134   4.819 -1.1292 -1.6886  2.1150
  991MOL0     H33746   6.679   5.161   5.041  0.4999  1.3890  2.0489
  991MOL0     H33747   6.684   5.338   4.993 -2.0082  2.1805 -2.7545
  991MOL0     H33748   6.536   5.250   5.055 -0.8203 -0.7145 -1.8740
  991MOL0     H33749   6.204   5.608   4.926  1.6356  0.4580  1.2351
  991MOL0     H33750   6.002   5.667   5.049 -0.7359 -1.2453 -0.8945
  991MOL0     H33751   5.768   5.366   5.225  2.9078  1.4231  0.1794
  991MOL0     H33752   5.838   5.394   5.378  0.2436 -0.8371  0.5721
  991MOL0     H33753   5.604   5.420   5.402 -3.0596 -0.1362 -1.1294
  991MOL0     H33754   5.670   5.593   5.393  1.4805  0.2945 -2.4190
  991MOL0     H33755   5.483   5.443   5.212 -2.9538  2.2447  1.0217
  991MOL0     H33756   5.599   5.535   5.131 -0.8478 -4.3020  0.4319
  991MOL0     H33757   5.541   5.738   5.249  0.8369 -0.1399  0.3100
  991MOL0     H33758   5.397   5.676   5.164  0.9095  0.7422 -0.1353
  991MOL0     H33759   5.341   5.756   5.397 -1.5308 -0.3420 -1.2967
  991MOL0     H33760   5.449   5.638   5.470  0.6354  2.9156 -0.4486
  991MOL0     H33761   5.199   5.610   5.460  0.5565  0.2843  1.1104
  991MOL0     H33762   5.221   5.565   5.290  0.2876 -1.9894  0.8228
  991MOL0     H33763   5.328   5.419   5.539  2.2313 -2.6762 -0.3298
  991MOL0     H33764   5.359   5.370   5.373 -2.2189 -2.7600  0.1664
  991MOL0     H33765   5.173   5.239   5.463 -0.8568  0.2652  1.3523
  991MOL0     H33766   5.124   5.355   5.324  1.2213 -0.2505 -0.4306
  991MOL0     H33767   6.023   5.303   5.282 -0.5614  2.4508  0.4957
  991MOL0     H33768   6.214   5.235   5.166 -2.7375 -0.9285  0.1216
  991MOL0     H33769   6.322   5.155   4.638  0.4985  0.2216 -0.3329
  991MOL0     H33770   6.511   5.043   4.515  1.5430 -2.6462  0.7945
  991MOL0     H33771   6.674   4.597   2.719 -0.0714 -1.0057  1.6325
  991MOL0     H33772   6.548   4.744   2.561  2.2637 -1.6092  0.2751
  991MOL0     H33773   6.238   5.133   2.667 -0.7898 -0.3716 -0.1338
  991MOL0     H33774   6.059   5.248   2.594  1.7041  1.2940  1.5649
  991MOL0     H33775   5.810   5.291   2.383  1.0254  0.2386  1.7343
  991MOL0     H33776   5.909   5.359   2.511 -3.1697  1.4884  1.5637
  991MOL0     H33777   5.823   5.499   2.254  0.1488 -1.4441 -0.0710
  991MOL0     H33778   5.975   5.541   2.339 -0.3624 -0.3061  0.5378
  991MOL0     H33779   5.838   5.685   2.464 -2.3608  0.7439 -3.3169
  991MOL0     H33780   5.800   5.551   2.553 -1.9133  2.7931  1.4971
  991MOL0     H33781   5.618   5.657   2.330  1.2113  0.3455 -0.0423
  991MOL0     H33782   5.590   5.640   2.494  3.4191  1.4708 -0.2802
  991MOL0     H33783   5.476   5.283   2.273 -0.8371  0.7541  0.4983
  991MOL0     H33784   6.192   5.201   2.184 -1.2140 -1.2978  0.0603
  991MOL0     H33785   6.379   5.081   2.256  0.0262 -1.4748 -0.0779
  992MOL0     O33786   9.775   8.551   7.144  0.1581 -0.4052 -0.7867
  992MOL0     C33787   9.665   8.517   7.103  0.0932  0.5773  0.3182
  992MOL0     O33788   9.620   8.389   7.079 -0.6041  0.1185 -0.3266
  992MOL0     C33789   9.717   8.294   7.107 -0.1570  0.1205 -0.9463
  992MOL0     C33790   9.667   8.196   7.189  0.4786  0.4306  0.2195
  992MOL0     C33791   9.734   8.078   7.205 -0.1663 -0.4433 -0.2041
  992MOL0     C33792   9.861   8.056   7.150 -0.2655  0.5889  0.3579
  992MOL0     O33793   9.924   7.927   7.146 -0.1370  0.3653  0.1075
  992MOL0     C33794   9.899   7.854   7.022  0.3305 -0.0112  0.1200
  992MOL0     C33795   9.985   7.734   6.999  0.8553 -0.2354 -0.0736
  992MOL0     C33796  10.129   7.786   6.977 -0.8229  0.2935 -0.5247
  992MOL0     C33797  10.229   7.666   6.977  0.4270 -0.0213 -1.0388
  992MOL0     C33798  10.379   7.728   6.967  0.3808 -0.2813  0.2417
  992MOL0     C33799  10.488   7.624   6.951 -0.9791  0.8746 -0.3892
  992MOL0     C33800  10.627   7.690   6.955 -0.6754  0.1134  0.7884
  992MOL0     C33801  10.741   7.587   6.958 -0.4911  0.6187 -0.7819
  992MOL0     N33802  10.795   7.558   6.825 -0.2353 -0.4402  0.1262
  992MOL0     C33803  10.722   7.529   6.715 -0.0015  0.9504 -0.4842
  992MOL0     C33804  10.805   7.536   6.607 -0.0961 -0.8106 -0.2004
  992MOL0     C33805  10.764   7.522   6.466  0.0753  0.0871  0.3475
  992MOL0     C33806  10.619   7.571   6.456  0.1890  0.2849 -0.0981
  992MOL0     C33807  10.581   7.602   6.312  0.8356 -0.0887  0.4243
  992MOL0     C33808  10.607   7.516   6.192 -0.7234  1.0125  0.2294
  992MOL0     O33809  10.592   7.378   6.213 -0.6258  0.2918 -0.2225
  992MOL0     C33810  10.616   7.284   6.108  0.2810 -0.0688 -0.4199
  992MOL0     C33811  10.589   7.153   6.133 -0.5423  0.2273  0.4576
  992MOL0     C33812  10.609   7.052   6.035  0.1932 -0.5733 -0.3101
  992MOL0     C33813  10.562   6.908   6.077 -0.8444  0.0133  0.8944
  992MOL0     C33814  10.651   7.097   5.902  0.4263 -0.2367  0.2995
  992MOL0     C33815  10.670   7.002   5.787 -0.3478 -0.0367  0.3149
  992MOL0     O33816  10.662   7.046   5.654 -0.1353 -0.3011 -0.4074
  992MOL0     C33817  10.658   6.961   5.546 -1.4960  0.1977 -0.5346
  992MOL0     C33818  10.744   6.987   5.444 -0.6535  0.5569  0.0664
  992MOL0     C33819  10.764   6.893   5.335 -0.6847  0.2311 -0.1794
  992MOL0     C33820  10.678   6.776   5.331 -0.0622 -0.3667 -0.1201
  992MOL0     O33821  10.669   6.700   5.215  0.7360  0.6650  0.1279
  992MOL0     C33822  10.794   6.637   5.178 -1.0074  0.0319 -0.5521
  992MOL0     C33823  10.774   6.554   5.057  0.0502  0.9506  0.4835
  992MOL0     C33824  10.903   6.499   5.007  0.1064 -0.2471  0.2446
  992MOL0     C33825  11.008   6.435   5.108 -0.1925 -0.0565 -0.3294
  992MOL0     C33826  11.111   6.354   5.015  0.8964 -0.6514 -0.5779
  992MOL0     C33827  11.073   6.210   5.011  1.9845 -0.1037  0.7315
  992MOL0     C33828  11.187   6.123   4.956 -0.5423 -0.0396 -0.3799
  992MOL0     C33829  11.172   5.982   4.996  0.2339  0.3089 -0.1588
  992MOL0    Cl33830  11.195   5.946   5.165  0.1737  0.4754  0.3142
  992MOL0     C33831  10.585   6.757   5.432 -0.7964  0.6218 -1.1455
  992MOL0     C33832  10.577   6.844   5.539 -0.2205 -0.3094 -0.1809
  992MOL0     O33833  10.695   6.884   5.819  0.0833  0.9977 -0.4076
  992MOL0     C33834  10.661   7.233   5.877 -0.6982 -0.2762 -1.0904
  992MOL0     C33835  10.644   7.323   5.981  0.1049  0.4404 -0.4309
  992MOL0     N33836  10.925   7.575   6.660 -0.3600 -0.4343 -0.5574
  992MOL0     N33837  10.921   7.593   6.787  0.2557 -0.9101 -0.6701
  992MOL0     C33838   9.911   8.158   7.070 -0.3281 -0.3989  0.8369
  992MOL0     C33839   9.835   8.264   7.032  0.0424  0.0902 -0.4493
  992MOL0     C33840   9.568   8.631   7.087 -0.5935 -0.1609  0.8035
  992MOL0     C33841   9.619   8.765   7.099  0.2514  0.5747 -1.1149
  992MOL0     C33842   9.535   8.869   7.069  0.6290 -0.7177  0.0704
  992MOL0     C33843   9.401   8.858   7.030 -0.1418 -0.0290  0.3472
  992MOL0     O33844   9.322   8.969   7.002 -0.0377  0.6961  0.5452
  992MOL0     C33845   9.383   9.098   7.024 -0.1056 -0.3238 -0.5649
  992MOL0     C33846   9.291   9.215   7.004 -0.1782  0.3554 -0.0817
  992MOL0     C33847   9.371   9.343   7.040 -0.2299  0.9165  0.2646
  992MOL0     C33848   9.384   9.370   7.184  0.0835  0.3962 -0.0522
  992MOL0     C33849   9.459   9.492   7.205 -0.5265  1.0269 -0.3581
  992MOL0     C33850   9.530   9.589   7.203  0.6437  0.0235  0.1070
  992MOL0     C33851   9.347   8.729   7.017  0.7152  0.2396 -0.7526
  992MOL0     C33852   9.429   8.611   7.044 -0.4328  0.2832 -0.4851
  992MOL0     H33853   9.569   8.198   7.237  1.2893  3.2513  1.9960
  992MOL0     H33854   9.679   7.998   7.254  1.3181 -1.6429 -0.4065
  992MOL0     H33855   9.802   7.805   7.030  1.4570 -2.3926  0.2898
  992MOL0     H33856   9.906   7.915   6.931 -0.3638 -1.1840 -0.7603
  992MOL0     H33857   9.978   7.672   7.089 -2.6778  0.0652 -0.0132
  992MOL0     H33858   9.956   7.677   6.910  2.9128  1.0879 -1.6911
  992MOL0     H33859  10.127   7.830   6.877  1.1888  0.3187 -0.5856
  992MOL0     H33860  10.171   7.851   7.055 -1.0293 -0.0201 -0.1445
  992MOL0     H33861  10.201   7.596   7.056  1.2443  0.1324 -0.6044
  992MOL0     H33862  10.206   7.629   6.877 -0.6026  2.3067 -1.7520
  992MOL0     H33863  10.385   7.792   6.879 -3.8234  0.5015  0.3307
  992MOL0     H33864  10.399   7.799   7.047  0.9115 -0.1655  0.0096
  992MOL0     H33865  10.485   7.549   7.030  2.2255 -0.7599 -1.6135
  992MOL0     H33866  10.467   7.564   6.862  1.4007 -0.0153 -0.4310
  992MOL0     H33867  10.628   7.758   6.869 -1.3418  0.1142  0.7691
  992MOL0     H33868  10.615   7.738   7.053 -1.9833 -1.0609  1.2425
  992MOL0     H33869  10.717   7.496   7.015  0.6359  1.9826  2.0218
  992MOL0     H33870  10.821   7.636   7.014 -0.8406  2.1933 -1.5986
  992MOL0     H33871  10.616   7.507   6.725  0.8520 -3.1614  1.8110
  992MOL0     H33872  10.829   7.582   6.402  0.3862 -2.7597 -2.2327
  992MOL0     H33873  10.783   7.418   6.438  3.4076  0.3992  0.9857
  992MOL0     H33874  10.595   7.664   6.508 -0.3931 -0.5927  1.2644
  992MOL0     H33875  10.564   7.485   6.495  2.1727 -0.9122  0.1973
  992MOL0     H33876  10.606   7.705   6.286 -0.9721  0.4378  0.5941
  992MOL0     H33877  10.472   7.605   6.323  0.7492 -0.8571 -0.1826
  992MOL0     H33878  10.707   7.539   6.153 -0.8973  1.7817  0.2319
  992MOL0     H33879  10.539   7.551   6.114  0.1327 -0.0996 -1.0749
  992MOL0     H33880  10.564   7.121   6.233 -0.3573 -1.4144  0.0149
  992MOL0     H33881  10.647   6.839   6.081 -0.3518  0.5363 -0.2799
  992MOL0     H33882  10.514   6.912   6.176 -0.1363 -0.5529  1.2679
  992MOL0     H33883  10.484   6.862   6.015  1.2456 -0.9935 -1.1290
  992MOL0     H33884  10.801   7.079   5.454 -0.1539  0.1631  0.9375
  992MOL0     H33885  10.824   6.924   5.250 -0.4539 -2.4540 -1.0845
  992MOL0     H33886  10.870   6.713   5.156 -0.9679  1.2554  3.0979
  992MOL0     H33887  10.829   6.575   5.261 -0.2908  0.8911 -0.1874
  992MOL0     H33888  10.702   6.472   5.066 -0.8030  1.4672 -1.1658
  992MOL0     H33889  10.736   6.614   4.974 -0.5616 -2.6721 -2.1038
  992MOL0     H33890  10.945   6.585   4.954  1.1532 -2.4938 -2.8668
  992MOL0     H33891  10.883   6.416   4.938 -1.2878  0.2837 -0.0072
  992MOL0     H33892  11.060   6.515   5.162  1.1454 -0.8626 -0.3772
  992MOL0     H33893  10.967   6.367   5.183  2.5464  1.8491  3.2681
  992MOL0     H33894  11.214   6.368   5.047  0.5061 -1.9792  1.5058
  992MOL0     H33895  11.107   6.398   4.915 -1.5481 -0.1816 -0.3528
  992MOL0     H33896  11.064   6.178   5.116 -0.8016  2.3485  1.3586
  992MOL0     H33897  10.988   6.198   4.944  1.7286  2.8724  0.3914
  992MOL0     H33898  11.285   6.152   4.994  0.1970 -2.7279 -0.0019
  992MOL0     H33899  11.188   6.125   4.846  1.6183  0.0623 -0.3893
  992MOL0     H33900  11.259   5.933   4.951 -0.3539 -1.4530  0.5572
  992MOL0     H33901  11.086   5.935   4.948  0.0835 -1.2487  1.5553
  992MOL0     H33902  10.533   6.663   5.417  0.5781 -0.1441 -1.2828
  992MOL0     H33903  10.516   6.804   5.619 -1.5396  4.8009  1.7257
  992MOL0     H33904  10.688   7.278   5.781  0.0422 -0.8066 -1.1405
  992MOL0     H33905  10.642   7.430   5.966 -0.1452  0.4772 -0.1541
  992MOL0     H33906   9.999   8.147   7.007  1.1080  0.7171  2.5663
  992MOL0     H33907   9.859   8.327   6.946 -0.7405 -0.3969 -1.0449
  992MOL0     H33908   9.721   8.784   7.130 -0.3892 -1.0704  2.4132
  992MOL0     H33909   9.587   8.965   7.064  0.0315 -0.4267 -0.8528
  992MOL0     H33910   9.434   9.099   7.120 -1.8966 -0.5403  0.4181
  992MOL0     H33911   9.457   9.103   6.943 -0.9244  1.0223 -1.2830
  992MOL0     H33912   9.213   9.197   7.079  0.1846  0.0885  0.2300
  992MOL0     H33913   9.246   9.220   6.904  1.8881 -1.3456 -1.1814
  992MOL0     H33914   9.315   9.425   6.994 -2.0258 -0.4682 -0.1178
  992MOL0     H33915   9.469   9.350   6.991  0.4393 -0.3006  1.3830
  992MOL0     H33916   9.437   9.293   7.241  1.4731  0.6792 -0.9033
  992MOL0     H33917   9.288   9.388   7.234 -0.0265 -2.0559  0.7544
  992MOL0     H33918   9.566   9.690   7.193 -1.8694  0.8338 -1.9948
  992MOL0     H33919   9.246   8.727   6.978  0.2416  2.7652  0.1654
  992MOL0     H33920   9.394   8.512   7.016 -1.5354  1.2789 -2.8700
  993MOL0     O33921   4.584   5.762  11.378  0.5391 -0.9271 -0.2174
  993MOL0     C33922   4.704   5.769  11.401  0.4387 -0.2302 -0.7874
  993MOL0     O33923   4.777   5.677  11.477  0.1724 -0.3698 -0.3760
  993MOL0     C33924   4.715   5.559  11.505 -0.2842  1.0335  0.0509
  993MOL0     C33925   4.761   5.440  11.439  0.2516 -0.2101 -0.5038
  993MOL0     C33926   4.685   5.323  11.460 -1.0823  0.2777 -0.2249
  993MOL0     C33927   4.581   5.309  11.542  0.1546  0.9818 -0.0415
  993MOL0     O33928   4.501   5.202  11.553  0.3099  0.1565  0.7168
  993MOL0     C33929   4.429   5.174  11.428  0.5503 -0.6668  0.4842
  993MOL0     C33930   4.303   5.107  11.484  0.4411  0.6737  0.4732
  993MOL0     C33931   4.209   5.066  11.365  0.1094 -0.0641  0.6972
  993MOL0     C33932   4.111   5.180  11.332  0.2159 -0.0154  0.4678
  993MOL0     C33933   4.006   5.138  11.227 -0.4320  0.4632 -0.7885
  993MOL0     C33934   3.908   5.031  11.293 -0.8432 -0.8938  0.4174
  993MOL0     C33935   3.797   5.002  11.204  0.4249  0.9670 -0.1599
  993MOL0     C33936   3.687   5.105  11.207 -0.5081 -0.4427  0.0889
  993MOL0     N33937   3.621   5.099  11.078 -0.1451  0.2783  0.2317
  993MOL0     C33938   3.521   5.014  11.056  0.5703  0.2804 -0.0680
  993MOL0     C33939   3.486   5.013  10.926 -0.1839  0.3860  0.3737
  993MOL0     C33940   3.392   4.925  10.831 -0.0017  0.6243 -0.4260
  993MOL0     C33941   3.251   4.929  10.893  0.8497 -0.1231 -1.4467
  993MOL0     C33942   3.174   4.833  10.808 -0.2942 -0.1078  0.5722
  993MOL0     C33943   3.031   4.819  10.861  0.3201  0.0202  0.9027
  993MOL0     O33944   3.032   4.758  10.990  0.2072 -1.0106 -0.7691
  993MOL0     C33945   2.909   4.727  11.047 -0.2126  0.2858 -0.1266
  993MOL0     C33946   2.909   4.737  11.184  0.5106  0.0975 -0.6566
  993MOL0     C33947   2.794   4.727  11.261 -0.9042 -0.4386  0.3311
  993MOL0     C33948   2.808   4.735  11.406  0.3139  0.3779 -0.4296
  993MOL0     C33949   2.672   4.690  11.203  0.2035 -0.4926  0.1106
  993MOL0     C33950   2.562   4.642  11.289 -0.0741  0.0136  0.2011
  993MOL0     O33951   2.522   4.517  11.256 -0.1270 -0.1535 -0.6747
  993MOL0     C33952   2.427   4.449  11.329 -0.5700 -0.9566 -0.1178
  993MOL0     C33953   2.342   4.363  11.260  0.2620  0.1422  0.0986
  993MOL0     C33954   2.239   4.291  11.325  0.5355 -0.5024 -0.7099
  993MOL0     C33955   2.220   4.315  11.463 -0.6752  0.0624 -0.6489
  993MOL0     O33956   2.120   4.242  11.523  0.4159  0.0592 -0.2085
  993MOL0     C33957   2.051   4.327  11.618 -0.2249 -0.3591 -0.0147
  993MOL0     C33958   1.903   4.320  11.594  0.2167  0.0953  0.0265
  993MOL0     C33959   1.867   4.412  11.469  0.4502  0.9211  0.1247
  993MOL0     C33960   1.713   4.400  11.455  0.0718 -0.5236  0.6788
  993MOL0     C33961   1.656   4.481  11.328  0.5332 -0.2016 -0.5538
  993MOL0     C33962   1.706   4.617  11.270  0.8696 -0.4283  0.4139
  993MOL0     C33963   1.697   4.728  11.373 -1.1145 -0.0108 -1.0847
  993MOL0     C33964   1.553   4.741  11.431 -1.4790  0.7611 -0.8258
  993MOL0    Cl33965   1.522   4.893  11.518 -0.3648  0.1333 -0.4051
  993MOL0     C33966   2.323   4.383  11.534 -0.1475  0.1944 -0.9261
  993MOL0     C33967   2.432   4.452  11.473  0.1228  0.1778  0.2059
  993MOL0     O33968   2.517   4.722  11.367  0.6055  0.4861  0.1113
  993MOL0     C33969   2.675   4.669  11.061 -0.1922 -0.5411 -0.2241
  993MOL0     C33970   2.786   4.702  10.980 -0.5210 -0.1548  0.5162
  993MOL0     N33971   3.577   5.098  10.861  0.0543 -0.1029  0.7606
  993MOL0     N33972   3.651   5.155  10.951 -0.2123  0.3383  0.7270
  993MOL0     C33973   4.543   5.423  11.606  0.1752 -0.5249 -0.4687
  993MOL0     C33974   4.606   5.545  11.593  0.3221  0.3678 -0.3439
  993MOL0     C33975   4.774   5.900  11.357 -0.8855 -0.0576 -0.4313
  993MOL0     C33976   4.916   5.884  11.352  0.0470 -0.9014  0.1665
  993MOL0     C33977   4.989   5.990  11.317 -0.3828  0.3228  0.3291
  993MOL0     C33978   4.927   6.119  11.299  1.3928  0.7140 -0.3844
  993MOL0     O33979   4.995   6.239  11.275  0.4033  0.1060 -1.1215
  993MOL0     C33980   5.122   6.266  11.339  0.5266  0.7935  0.6681
  993MOL0     C33981   5.116   6.303  11.482  0.4975  0.1292 -0.6420
  993MOL0     C33982   5.256   6.327  11.540  0.4397  0.5667 -0.3454
  993MOL0     C33983   5.302   6.203  11.627 -0.6980 -0.3811  0.2524
  993MOL0     C33984   5.247   6.180  11.759  0.5471  0.4385  0.4549
  993MOL0     C33985   5.199   6.160  11.864  0.4576 -0.1268 -1.6930
  993MOL0     C33986   4.785   6.120  11.291 -0.3832  0.2572  0.1508
  993MOL0     C33987   4.710   6.008  11.315  0.3643  0.4246 -0.3550
  993MOL0     H33988   4.843   5.433  11.369 -2.5187 -1.8721 -3.9047
  993MOL0     H33989   4.720   5.239  11.401  0.0439  0.9188 -0.5026
  993MOL0     H33990   4.395   5.266  11.379 -0.8712 -2.4804 -2.2532
  993MOL0     H33991   4.482   5.121  11.348 -2.3141 -0.5284 -1.6854
  993MOL0     H33992   4.339   5.026  11.547 -1.8068 -0.8774 -0.1159
  993MOL0     H33993   4.246   5.180  11.542  0.5042  3.1675 -2.3384
  993MOL0     H33994   4.255   5.046  11.267 -3.5449 -0.9070 -1.0028
  993MOL0     H33995   4.161   4.971  11.387  0.1154 -0.1279  0.4431
  993MOL0     H33996   4.050   5.213  11.417  2.5491 -0.7624  2.5420
  993MOL0     H33997   4.168   5.264  11.292  1.2497 -0.1685  1.5556
  993MOL0     H33998   3.950   5.226  11.193  2.8949  1.5835 -4.0986
  993MOL0     H33999   4.065   5.095  11.145  3.5459  0.3313  1.8738
  993MOL0     H34000   3.968   4.940  11.291  1.0885  0.3048  1.0254
  993MOL0     H34001   3.888   5.054  11.398  4.1626  2.9217  0.9130
  993MOL0     H34002   3.835   4.989  11.102  0.1935  0.7879 -0.2219
  993MOL0     H34003   3.759   4.907  11.241  1.5395  0.5402 -0.0639
  993MOL0     H34004   3.745   5.198  11.216 -0.4661 -0.4279 -0.3374
  993MOL0     H34005   3.621   5.091  11.293 -0.6405  0.2751  0.1133
  993MOL0     H34006   3.470   4.961  11.136 -0.3604  0.7762 -0.3193
  993MOL0     H34007   3.392   4.971  10.732 -2.5717 -1.2013 -1.3845
  993MOL0     H34008   3.424   4.821  10.823 -1.8951 -0.0758  0.5026
  993MOL0     H34009   3.200   5.024  10.906 -0.1791 -1.0886  2.9633
  993MOL0     H34010   3.251   4.880  10.991  2.9987 -1.2047 -1.9246
  993MOL0     H34011   3.222   4.734  10.809  1.4881  0.7110  0.3240
  993MOL0     H34012   3.180   4.856  10.701 -0.1503  2.4078  1.0667
  993MOL0     H34013   2.981   4.756  10.788  3.0812 -0.3163 -0.8371
  993MOL0     H34014   2.983   4.917  10.858 -2.1024 -1.1223 -2.0248
  993MOL0     H34015   3.002   4.766  11.233 -0.7323  2.3906  0.5365
  993MOL0     H34016   2.915   4.735  11.430  0.2605  2.2036 -0.0425
  993MOL0     H34017   2.750   4.810  11.460  0.5268  1.5791 -1.8343
  993MOL0     H34018   2.771   4.634  11.428 -0.4916  0.0538 -2.9321
  993MOL0     H34019   2.357   4.347  11.154  1.5163 -1.3774  0.4757
  993MOL0     H34020   2.160   4.231  11.281 -2.6889  0.6963  2.9357
  993MOL0     H34021   2.083   4.295  11.718  1.1156 -1.1735 -0.6781
  993MOL0     H34022   2.071   4.431  11.591 -3.2963 -0.2590 -2.5818
  993MOL0     H34023   1.882   4.215  11.573 -0.8471  0.0982  0.9936
  993MOL0     H34024   1.857   4.347  11.689  0.6215  1.6320 -0.1860
  993MOL0     H34025   1.925   4.387  11.380 -2.7541 -1.9465 -1.3390
  993MOL0     H34026   1.893   4.515  11.497 -1.7177  1.4806  0.2087
  993MOL0     H34027   1.693   4.293  11.442  1.0380 -0.6454  0.1620
  993MOL0     H34028   1.662   4.432  11.547  0.3393  1.5514  0.1597
  993MOL0     H34029   1.547   4.472  11.339  0.7986 -1.7039  1.4119
  993MOL0     H34030   1.677   4.412  11.246 -2.2318 -1.9213  0.0533
  993MOL0     H34031   1.809   4.596  11.241  0.0717 -1.5544 -1.8081
  993MOL0     H34032   1.654   4.648  11.180  1.9075 -1.9514 -0.7625
  993MOL0     H34033   1.729   4.822  11.329  1.2531 -0.4822 -0.5222
  993MOL0     H34034   1.771   4.710  11.452 -0.0291  0.6531 -1.9211
  993MOL0     H34035   1.539   4.656  11.498 -0.0313  0.9379 -0.2629
  993MOL0     H34036   1.476   4.730  11.353 -1.0599 -1.3656 -0.9913
  993MOL0     H34037   2.324   4.382  11.643  0.5864  1.4029 -0.8946
  993MOL0     H34038   2.512   4.503  11.525  3.2718 -1.3397 -2.7381
  993MOL0     H34039   2.587   4.626  11.014  0.1795 -0.9859 -0.5254
  993MOL0     H34040   2.778   4.688  10.872 -0.5237 -0.1737  0.5186
  993MOL0     H34041   4.457   5.421  11.672 -0.7438  1.9323 -1.4757
  993MOL0     H34042   4.569   5.636  11.640 -0.1926 -0.7643  1.5613
  993MOL0     H34043   4.962   5.788  11.374  2.7608  0.6260  1.5905
  993MOL0     H34044   5.097   5.979  11.307 -0.4620  0.2785 -0.5441
  993MOL0     H34045   5.186   6.179  11.318  0.9843  1.4429 -0.7512
  993MOL0     H34046   5.183   6.342  11.289  2.1088  0.3115  1.7535
  993MOL0     H34047   5.055   6.222  11.523  0.0441  1.3501  1.2429
  993MOL0     H34048   5.062   6.398  11.491  0.1856  0.0147 -1.2540
  993MOL0     H34049   5.245   6.428  11.580 -2.0377  1.0448 -2.0390
  993MOL0     H34050   5.322   6.339  11.454  3.0951  5.2815  1.9736
  993MOL0     H34051   5.407   6.231  11.644  0.3386 -1.6338 -3.3268
  993MOL0     H34052   5.304   6.107  11.575 -1.3983 -0.8427  1.0386
  993MOL0     H34053   5.149   6.124  11.951  2.4364  1.1668  0.0911
  993MOL0     H34054   4.730   6.211  11.272 -1.6272 -0.3976  0.4601
  993MOL0     H34055   4.602   6.014  11.316  0.3797  0.8199  1.4384
  994MOL0     O34056   1.597   7.916   1.004  0.2221 -0.8425  0.7525
  994MOL0     C34057   1.718   7.947   1.003  0.7280 -0.1466  2.0593
  994MOL0     O34058   1.802   7.921   0.898 -0.4807 -0.2826  0.6991
  994MOL0     C34059   1.770   7.831   0.800 -0.5500  0.5775  0.0717
  994MOL0     C34060   1.842   7.711   0.779  0.0993 -1.1590  0.1066
  994MOL0     C34061   1.790   7.627   0.685 -0.3694  1.2485 -0.4665
  994MOL0     C34062   1.684   7.655   0.592  0.3046  0.3114 -0.5224
  994MOL0     O34063   1.654   7.576   0.482 -0.2671  0.3463  0.3789
  994MOL0     C34064   1.695   7.633   0.360 -0.0268  0.7206 -0.1367
  994MOL0     C34065   1.848   7.669   0.360 -0.4952  0.0965  1.1861
  994MOL0     C34066   1.881   7.706   0.219 -0.7143  0.0573 -0.4430
  994MOL0     C34067   2.025   7.761   0.214  0.5321 -0.6204  0.7996
  994MOL0     C34068   2.081   7.763   0.075 -0.1372  0.3447 -0.4835
  994MOL0     C34069   2.039   7.876  -0.007 -0.2260 -0.9588  0.5319
  994MOL0     C34070   2.072   7.845  -0.152 -0.3541  0.1662  0.1825
  994MOL0     C34071   2.058   7.972  -0.235  0.1045  0.6947 -0.7278
  994MOL0     N34072   2.106   7.961  -0.370 -0.0946  0.7470 -0.3643
  994MOL0     C34073   2.230   8.004  -0.424 -0.8916  0.7632 -0.3478
  994MOL0     C34074   2.227   7.976  -0.556 -0.4554  0.2392  0.1747
  994MOL0     C34075   2.328   8.010  -0.655 -0.3453  0.2338  0.7461
  994MOL0     C34076   2.269   8.081  -0.772 -0.1638 -0.3551  0.1349
  994MOL0     C34077   2.383   8.117  -0.869 -0.1621 -0.1338  0.8161
  994MOL0     C34078   2.330   8.206  -0.982  0.5239  0.6417 -0.6196
  994MOL0     O34079   2.391   8.178  -1.101 -0.7484  0.2225  0.1977
  994MOL0     C34080   2.367   8.245  -1.220  0.1651 -0.4367 -0.4621
  994MOL0     C34081   2.465   8.223  -1.315  0.0519  1.3452 -0.3805
  994MOL0     C34082   2.453   8.276  -1.445 -0.6018 -0.1522  0.3018
  994MOL0     C34083   2.543   8.217  -1.543 -0.2528 -0.6703  0.2969
  994MOL0     C34084   2.349   8.367  -1.476  0.8607  0.6946 -0.6229
  994MOL0     C34085   2.339   8.435  -1.609 -0.0722 -0.5428  0.4035
  994MOL0     O34086   2.227   8.514  -1.623  0.4014  0.2838  0.4928
  994MOL0     C34087   2.182   8.563  -1.741 -0.4041 -0.1044  0.1184
  994MOL0     C34088   2.066   8.518  -1.796 -0.1134  0.2736  0.3254
  994MOL0     C34089   2.021   8.575  -1.914 -0.0728  0.5405  0.0414
  994MOL0     C34090   2.092   8.681  -1.973 -0.0809 -0.3310  0.3479
  994MOL0     O34091   2.048   8.723  -2.093 -0.3735  0.7633 -0.2190
  994MOL0     C34092   2.044   8.630  -2.206 -0.1623 -0.2366 -0.0871
  994MOL0     C34093   2.183   8.665  -2.269  0.2163  0.4605 -0.5652
  994MOL0     C34094   2.218   8.603  -2.405  0.1113 -0.7532 -0.6643
  994MOL0     C34095   2.156   8.667  -2.525 -0.8855  0.7641 -1.0344
  994MOL0     C34096   2.207   8.636  -2.665  0.2090  0.6891  0.2957
  994MOL0     C34097   2.196   8.489  -2.719  0.7770  0.0061  0.7136
  994MOL0     C34098   2.258   8.493  -2.862 -0.0655 -0.7436 -0.4931
  994MOL0     C34099   2.258   8.359  -2.930  0.4795  0.1996  0.1116
  994MOL0    Cl34100   2.404   8.335  -3.035  0.0142 -0.2227 -0.1415
  994MOL0     C34101   2.204   8.733  -1.903 -0.0336  1.0784  0.4597
  994MOL0     C34102   2.251   8.674  -1.782  0.3842  0.7175 -0.6568
  994MOL0     O34103   2.433   8.439  -1.689  0.2830 -0.2316 -0.3319
  994MOL0     C34104   2.273   8.410  -1.365  0.5177 -0.3240  0.2496
  994MOL0     C34105   2.268   8.344  -1.249 -1.0562  0.1556  0.0677
  994MOL0     N34106   2.103   7.907  -0.576 -0.0432  0.9141 -0.7024
  994MOL0     N34107   2.033   7.910  -0.479 -0.4724 -0.5943 -1.1469
  994MOL0     C34108   1.617   7.777   0.612 -0.0062 -1.1033  0.1991
  994MOL0     C34109   1.660   7.863   0.712 -0.8910  1.2884  0.1744
  994MOL0     C34110   1.778   8.004   1.112  0.4214 -0.6271 -1.0941
  994MOL0     C34111   1.915   8.025   1.111  0.3725  0.0887  0.3236
  994MOL0     C34112   1.978   8.081   1.226 -0.1989 -1.2064 -0.1511
  994MOL0     C34113   1.899   8.147   1.326  0.9918  0.5054 -0.1777
  994MOL0     O34114   1.974   8.201   1.440  0.5216  0.7735 -0.0079
  994MOL0     C34115   1.931   8.301   1.527  0.6696 -0.0320  0.0849
  994MOL0     C34116   1.959   8.282   1.678  0.2977  1.0257 -0.3227
  994MOL0     C34117   1.897   8.388   1.759 -0.0703 -0.5665 -0.9694
  994MOL0     C34118   1.972   8.530   1.733 -1.4102  0.4657  0.3174
  994MOL0     C34119   2.025   8.573   1.858 -0.1636  0.0232 -0.0108
  994MOL0     C34120   2.076   8.621   1.952 -1.4632  0.1723 -0.0547
  994MOL0     C34121   1.757   8.135   1.326 -0.2697  0.9172 -0.4755
  994MOL0     C34122   1.703   8.052   1.220 -0.4681 -0.1024  0.8640
  994MOL0     H34123   1.920   7.674   0.844  0.7691 -0.7939 -0.4738
  994MOL0     H34124   1.834   7.529   0.666 -1.6115  0.1968  1.7299
  994MOL0     H34125   1.671   7.569   0.275 -0.7146  2.0407 -0.9791
  994MOL0     H34126   1.650   7.730   0.339  0.2505  0.2159 -3.5992
  994MOL0     H34127   1.865   7.757   0.422 -1.6634  0.7116  0.6588
  994MOL0     H34128   1.914   7.589   0.392 -2.6779 -0.8720  3.6487
  994MOL0     H34129   1.879   7.611   0.165 -0.9117 -0.3882  0.3359
  994MOL0     H34130   1.810   7.773   0.168  0.3990  0.6566 -1.2504
  994MOL0     H34131   2.039   7.859   0.260 -2.5336 -0.2651  1.1987
  994MOL0     H34132   2.091   7.691   0.267  0.9256 -2.4322 -1.8635
  994MOL0     H34133   2.189   7.774   0.089  0.5663 -2.3718 -2.9415
  994MOL0     H34134   2.050   7.673   0.023  1.4706 -0.3540 -0.3041
  994MOL0     H34135   1.930   7.874   0.001 -0.2378  1.0967  2.0006
  994MOL0     H34136   2.063   7.977   0.030 -2.6025  0.0444 -0.4453
  994MOL0     H34137   2.178   7.819  -0.165 -0.3564 -0.2042  0.8448
  994MOL0     H34138   2.018   7.758  -0.191  1.9193 -0.9894 -0.6216
  994MOL0     H34139   2.116   8.053  -0.188 -0.9202  3.4680 -3.8329
  994MOL0     H34140   1.951   7.994  -0.235  0.2875  2.0408  1.6663
  994MOL0     H34141   2.313   8.046  -0.368  0.0941 -1.0974 -0.3114
  994MOL0     H34142   2.405   8.065  -0.599 -1.3156  2.6584 -0.1641
  994MOL0     H34143   2.379   7.920  -0.691  1.7527 -0.0254  3.8997
  994MOL0     H34144   2.218   8.161  -0.718  2.1291  0.5672  1.0314
  994MOL0     H34145   2.191   8.031  -0.831 -3.2832  1.8951  2.0158
  994MOL0     H34146   2.428   8.024  -0.905  0.1845 -0.9928  3.2906
  994MOL0     H34147   2.466   8.171  -0.822  1.2656  1.3431 -2.9594
  994MOL0     H34148   2.336   8.310  -0.948  0.7254  0.2932  0.4289
  994MOL0     H34149   2.221   8.198  -0.992 -0.0212  2.7195  2.4449
  994MOL0     H34150   2.555   8.168  -1.293 -1.4464 -1.3990 -0.6115
  994MOL0     H34151   2.635   8.274  -1.561 -1.2739  1.2003  0.7089
  994MOL0     H34152   2.577   8.120  -1.508  0.5878  0.0300  1.4953
  994MOL0     H34153   2.494   8.209  -1.640  0.5019 -3.2634  0.0576
  994MOL0     H34154   2.010   8.430  -1.766 -0.3404 -0.2056 -1.4094
  994MOL0     H34155   1.947   8.518  -1.969  2.1495  0.2372 -2.8636
  994MOL0     H34156   2.024   8.530  -2.164  0.5890 -0.4879 -0.3140
  994MOL0     H34157   1.965   8.667  -2.272 -0.8846 -0.3362  0.6966
  994MOL0     H34158   2.191   8.774  -2.277 -0.2779  0.4972 -0.5609
  994MOL0     H34159   2.251   8.639  -2.188 -0.1838  2.9083  0.6550
  994MOL0     H34160   2.192   8.497  -2.403  0.2162 -0.8295 -2.0757
  994MOL0     H34161   2.324   8.620  -2.422  0.5623 -3.3407 -0.7798
  994MOL0     H34162   2.054   8.628  -2.530 -0.5700 -0.6930  1.6922
  994MOL0     H34163   2.139   8.772  -2.501 -2.3749  0.5872 -1.2306
  994MOL0     H34164   2.310   8.670  -2.671 -0.3502  2.3005 -0.6985
  994MOL0     H34165   2.159   8.711  -2.729 -0.2428  2.4147  2.4950
  994MOL0     H34166   2.259   8.423  -2.658 -0.3173 -2.7845 -1.0144
  994MOL0     H34167   2.093   8.451  -2.717  2.2145 -4.5167 -0.3047
  994MOL0     H34168   2.362   8.521  -2.841 -1.1401  2.5058  1.0511
  994MOL0     H34169   2.211   8.566  -2.927 -2.4821  0.5266  2.4729
  994MOL0     H34170   2.165   8.344  -2.987  0.2587  1.4382  0.1099
  994MOL0     H34171   2.277   8.290  -2.847  1.0849  0.9529  0.6148
  994MOL0     H34172   2.263   8.815  -1.941 -0.8471  0.1803 -3.1254
  994MOL0     H34173   2.341   8.708  -1.733  0.3584  1.3232 -1.0317
  994MOL0     H34174   2.209   8.496  -1.381  2.2895  0.5638 -2.8187
  994MOL0     H34175   2.200   8.371  -1.169 -0.7872  3.3709 -0.6741
  994MOL0     H34176   1.543   7.810   0.540  1.7063  2.1727 -0.2481
  994MOL0     H34177   1.630   7.964   0.737  0.5932  1.1320  2.9659
  994MOL0     H34178   1.969   7.996   1.021  0.8270 -0.6133  0.8083
  994MOL0     H34179   2.085   8.075   1.244 -0.2428  3.0398  3.2399
  994MOL0     H34180   1.974   8.393   1.485 -0.4072 -0.5168 -2.2469
  994MOL0     H34181   1.827   8.333   1.519  0.4130  0.6963  3.9982
  994MOL0     H34182   2.066   8.274   1.697 -0.2028 -0.0378  2.6455
  994MOL0     H34183   1.911   8.190   1.712 -1.8166  2.3159  0.4257
  994MOL0     H34184   1.904   8.357   1.864  2.9542 -1.8558 -1.4415
  994MOL0     H34185   1.790   8.401   1.739 -0.8221  1.5529  3.1873
  994MOL0     H34186   1.900   8.600   1.690 -0.5289  0.1586 -1.7399
  994MOL0     H34187   2.057   8.521   1.665 -0.5694  1.8249  1.1556
  994MOL0     H34188   2.135   8.658   2.033 -1.3807  1.0394 -0.4982
  994MOL0     H34189   1.696   8.178   1.404 -4.4634  0.9808 -3.4334
  994MOL0     H34190   1.599   8.022   1.227 -0.8431  0.2560 -2.1434
  995MOL0     O34191  10.429   0.940   9.345 -0.4507  0.6686 -0.0943
  995MOL0     C34192  10.383   0.956   9.460 -0.3316  0.4091 -0.0701
  995MOL0     O34193  10.332   1.070   9.509  0.0851  0.4116 -0.2991
  995MOL0     C34194  10.357   1.195   9.457  0.6760 -0.6146 -0.4467
  995MOL0     C34195  10.287   1.296   9.517  0.5704 -0.6733  0.1191
  995MOL0     C34196  10.310   1.430   9.481 -0.3732  0.0929 -0.0292
  995MOL0     C34197  10.400   1.462   9.371 -0.5432 -0.1235  0.2714
  995MOL0     O34198  10.427   1.587   9.336 -0.2846 -0.4193 -0.0816
  995MOL0     C34199  10.322   1.685   9.347 -0.8406 -0.6990  0.2431
  995MOL0     C34200  10.371   1.811   9.264  0.0332  0.1775  0.1257
  995MOL0     C34201  10.264   1.897   9.219  0.1570  0.4594 -0.5082
  995MOL0     C34202  10.189   1.848   9.101 -0.4988  0.0512  0.1943
  995MOL0     C34203  10.056   1.924   9.088  0.6244  0.1816  0.0639
  995MOL0     C34204   9.983   1.883   8.956 -0.0233  0.2756 -0.2034
  995MOL0     C34205   9.835   1.930   8.961 -0.5582  0.5157 -0.1435
  995MOL0     C34206   9.754   1.856   8.846 -0.6806 -0.1119 -0.1596
  995MOL0     N34207   9.810   1.893   8.712 -0.3995 -0.5512 -0.2721
  995MOL0     C34208   9.794   1.828   8.597  1.5175  0.8317 -0.2237
  995MOL0     C34209   9.815   1.913   8.497 -1.1776 -0.4529  1.4269
  995MOL0     C34210   9.775   1.894   8.352 -0.7831 -0.1068 -0.2652
  995MOL0     C34211   9.703   1.769   8.306 -0.7014 -0.2418 -0.1226
  995MOL0     C34212   9.702   1.783   8.151 -0.5727 -0.4939 -0.2268
  995MOL0     C34213   9.612   1.675   8.095  0.1021  0.4024  0.2767
  995MOL0     O34214   9.644   1.659   7.951  0.2818 -0.3297 -0.0304
  995MOL0     C34215   9.593   1.547   7.896 -0.4015  0.9264  0.0291
  995MOL0     C34216   9.477   1.480   7.945  0.4126 -0.2760 -0.5423
  995MOL0     C34217   9.425   1.368   7.887  0.1251 -0.7206 -0.1426
  995MOL0     C34218   9.289   1.306   7.937 -0.2469 -0.6150  0.6913
  995MOL0     C34219   9.499   1.301   7.782 -0.9370  0.3720 -0.1392
  995MOL0     C34220   9.484   1.164   7.739 -0.4645  0.0600 -0.4733
  995MOL0     O34221   9.551   1.128   7.618 -0.4233  0.6064  0.4194
  995MOL0     C34222   9.579   0.990   7.576  0.2128  0.7285 -0.6916
  995MOL0     C34223   9.512   0.873   7.607  0.2517 -0.0377 -0.4841
  995MOL0     C34224   9.551   0.748   7.552  0.2141 -1.1730 -0.1372
  995MOL0     C34225   9.646   0.743   7.452 -0.5366  0.0995 -0.3770
  995MOL0     O34226   9.682   0.618   7.418  0.0628 -0.9468 -0.0054
  995MOL0     C34227   9.824   0.588   7.414 -0.8098  0.3311  0.1424
  995MOL0     C34228   9.867   0.441   7.399  0.8077 -0.3471  0.0271
  995MOL0     C34229   9.878   0.397   7.251 -0.3505  0.1351 -0.4867
  995MOL0     C34230   9.972   0.280   7.241  0.5243  0.6608 -0.4509
  995MOL0     C34231   9.895   0.160   7.291  0.3540  0.2826 -0.3921
  995MOL0     C34232  10.008   0.059   7.343 -0.4119 -0.1177  0.1259
  995MOL0     C34233   9.923  -0.071   7.366  0.1908  0.0523 -0.3323
  995MOL0     C34234   9.995  -0.194   7.430 -0.6703 -0.1275  0.3769
  995MOL0    Cl34235  10.161  -0.214   7.355 -0.0040  0.1789 -0.3215
  995MOL0     C34236   9.722   0.859   7.437  0.2611 -0.5490  0.5746
  995MOL0     C34237   9.687   0.980   7.499 -0.6343 -0.4500 -0.3298
  995MOL0     O34238   9.435   1.083   7.824  0.9192  0.3322  0.2092
  995MOL0     C34239   9.613   1.368   7.734  0.6057  0.5579  0.3064
  995MOL0     C34240   9.654   1.488   7.782 -0.3309 -0.3836  1.4612
  995MOL0     N34241   9.856   2.033   8.557  0.2151  1.2048  0.3124
  995MOL0     N34242   9.867   2.017   8.685  0.9005 -0.0031 -0.4983
  995MOL0     C34243  10.464   1.363   9.313 -0.3192 -0.9421 -0.5117
  995MOL0     C34244  10.443   1.234   9.356  0.0767 -0.4098 -0.5928
  995MOL0     C34245  10.357   0.830   9.526 -0.1697  0.2940 -1.0847
  995MOL0     C34246  10.276   0.818   9.648 -0.1777 -0.1454  0.5993
  995MOL0     C34247  10.268   0.700   9.710  0.2050 -0.5022 -0.2866
  995MOL0     C34248  10.320   0.579   9.663  0.3390 -0.6586 -0.2907
  995MOL0     O34249  10.285   0.460   9.717 -1.1100 -0.1062  0.1718
  995MOL0     C34250  10.234   0.455   9.851 -0.8561 -1.3599 -0.0116
  995MOL0     C34251  10.246   0.311   9.893 -0.1965 -0.2967 -0.3765
  995MOL0     C34252  10.389   0.260   9.894 -0.7758  0.0330  0.0834
  995MOL0     C34253  10.395   0.109   9.892 -0.8560 -0.9068 -0.2572
  995MOL0     C34254  10.320   0.030   9.798 -0.2727 -0.6916  0.6505
  995MOL0     C34255  10.272  -0.032   9.711  0.7475 -0.6288  0.1100
  995MOL0     C34256  10.394   0.585   9.547  0.4289  0.4446 -0.1238
  995MOL0     C34257  10.407   0.706   9.479 -0.0300  0.0538  0.4196
  995MOL0     H34258  10.216   1.268   9.594  1.0423 -2.2315  0.0227
  995MOL0     H34259  10.273   1.505   9.550  2.9775 -0.0645  2.1950
  995MOL0     H34260  10.229   1.647   9.303 -1.7480  0.5021  1.0640
  995MOL0     H34261  10.293   1.712   9.449 -0.0601 -1.3075  0.6354
  995MOL0     H34262  10.442   1.863   9.329 -0.9137  1.1360  0.4219
  995MOL0     H34263  10.423   1.777   9.174  0.1400  2.3088 -0.6531
  995MOL0     H34264  10.197   1.939   9.294 -2.4623  0.6405 -2.7772
  995MOL0     H34265  10.324   1.984   9.192 -1.7228  2.1358  0.4395
  995MOL0     H34266  10.253   1.883   9.019  0.0706  0.8557  0.9660
  995MOL0     H34267  10.169   1.740   9.095 -0.7719  0.1561 -1.5089
  995MOL0     H34268   9.988   1.910   9.172  3.6748 -2.9120  2.3371
  995MOL0     H34269  10.066   2.032   9.093  0.8630  0.1091  1.6637
  995MOL0     H34270  10.033   1.936   8.875 -2.5941  2.1943 -0.6452
  995MOL0     H34271   9.996   1.775   8.942  2.3362  0.3638  0.7160
  995MOL0     H34272   9.786   1.904   9.055 -0.0687  1.4994  0.3927
  995MOL0     H34273   9.835   2.039   8.960  2.0557  0.5744  0.1167
  995MOL0     H34274   9.648   1.879   8.845 -0.6301  0.2645  1.2359
  995MOL0     H34275   9.757   1.747   8.859 -2.7433  0.0531  2.2494
  995MOL0     H34276   9.750   1.730   8.581  2.6716  0.2130  0.3147
  995MOL0     H34277   9.719   1.984   8.327 -0.1386 -0.1405 -2.0378
  995MOL0     H34278   9.864   1.898   8.289 -2.5374  0.8205 -2.8619
  995MOL0     H34279   9.601   1.763   8.346  0.0283 -1.5577  1.6637
  995MOL0     H34280   9.740   1.676   8.348 -0.1193  0.7754  1.7553
  995MOL0     H34281   9.801   1.767   8.106 -0.9127  1.3168 -1.7407
  995MOL0     H34282   9.655   1.877   8.122  0.2375 -0.6242 -2.0723
  995MOL0     H34283   9.507   1.690   8.122  1.0927  1.6017  4.1006
  995MOL0     H34284   9.638   1.585   8.151 -0.8796  0.9497  1.6705
  995MOL0     H34285   9.423   1.523   8.029  1.6685  0.0523  0.1275
  995MOL0     H34286   9.218   1.390   7.936  0.3962 -0.0091 -2.0648
  995MOL0     H34287   9.241   1.231   7.874 -1.7513  1.8184 -1.2683
  995MOL0     H34288   9.293   1.268   8.039  1.5032  0.0075  0.8893
  995MOL0     H34289   9.429   0.884   7.677  0.9150  0.2265  0.2770
  995MOL0     H34290   9.503   0.653   7.575 -1.4079 -1.3954 -3.7591
  995MOL0     H34291   9.879   0.646   7.339  2.1560 -0.0315  1.9079
  995MOL0     H34292   9.866   0.614   7.512 -1.3238 -4.1355  1.7759
  995MOL0     H34293   9.968   0.446   7.441  1.4925  0.5685 -1.5911
  995MOL0     H34294   9.805   0.376   7.461 -1.3973  1.1501 -0.5038
  995MOL0     H34295   9.927   0.480   7.200 -0.0329 -1.9214 -3.7733
  995MOL0     H34296   9.783   0.389   7.196 -2.0056 -2.1966  2.3866
  995MOL0     H34297  10.007   0.263   7.139  1.9741  2.2093 -0.2517
  995MOL0     H34298  10.056   0.291   7.310 -2.2257  0.4454  3.2322
  995MOL0     H34299   9.836   0.106   7.217 -0.8887  0.6034  0.3351
  995MOL0     H34300   9.819   0.176   7.368 -1.9321 -3.5550 -1.5407
  995MOL0     H34301  10.082   0.046   7.263 -0.1559  2.7164 -0.2075
  995MOL0     H34302  10.056   0.095   7.434 -1.0003 -0.7676  0.7145
  995MOL0     H34303   9.876  -0.090   7.269 -0.5195  1.2538 -0.2406
  995MOL0     H34304   9.838  -0.061   7.433 -0.2607  0.3967 -0.9529
  995MOL0     H34305   9.922  -0.275   7.416 -0.4298 -0.3683  0.5176
  995MOL0     H34306  10.007  -0.181   7.538  2.4414 -0.7759  0.2100
  995MOL0     H34307   9.806   0.864   7.369 -1.1691 -0.2846 -1.2536
  995MOL0     H34308   9.749   1.068   7.484  1.2563 -0.5239  4.9834
  995MOL0     H34309   9.678   1.327   7.658  0.7144  0.8663  0.2301
  995MOL0     H34310   9.745   1.539   7.749 -0.9241  0.3391  0.9169
  995MOL0     H34311  10.545   1.373   9.241  0.4006 -2.3735  0.0559
  995MOL0     H34312  10.506   1.167   9.298 -1.5165  0.2981 -3.3402
  995MOL0     H34313  10.221   0.898   9.696 -0.7602  0.6248 -1.2255
  995MOL0     H34314  10.210   0.701   9.802 -0.7252 -0.0353 -0.8613
  995MOL0     H34315  10.283   0.514   9.928 -0.7948 -1.2593 -0.1274
  995MOL0     H34316  10.136   0.505   9.847  0.5817  1.7041  0.5578
  995MOL0     H34317  10.188   0.247   9.825 -2.3618  1.2733 -0.1087
  995MOL0     H34318  10.210   0.303   9.996 -0.6506  0.7861 -0.4416
  995MOL0     H34319  10.439   0.296   9.984  0.6487 -0.5198 -0.4509
  995MOL0     H34320  10.445   0.305   9.812  3.5426 -2.6785  1.2023
  995MOL0     H34321  10.372   0.080   9.995 -0.7693 -0.8322 -0.2170
  995MOL0     H34322  10.502   0.089   9.892  0.3308  4.0572 -1.3267
  995MOL0     H34323  10.244  -0.096   9.629  0.0456 -1.2312  0.7964
  995MOL0     H34324  10.425   0.494   9.498 -0.8529 -0.4581  0.6995
  995MOL0     H34325  10.465   0.714   9.388  0.2567  2.3808  0.7453
  996MOL0     O34326   7.425   0.397   3.834 -0.7377 -0.4305 -0.0644
  996MOL0     C34327   7.424   0.520   3.802  0.2538 -0.8072  0.1094
  996MOL0     O34328   7.418   0.564   3.668 -0.3290  1.2775  0.6545
  996MOL0     C34329   7.427   0.463   3.572 -0.1914 -0.1274  1.0028
  996MOL0     C34330   7.543   0.383   3.546 -0.0773 -0.3229  0.6272
  996MOL0     C34331   7.561   0.298   3.438  0.5403 -0.0413 -0.1909
  996MOL0     C34332   7.450   0.266   3.365  0.7700 -0.8109  0.5955
  996MOL0     O34333   7.461   0.158   3.280  0.3157  0.7381 -0.0170
  996MOL0     C34334   7.467   0.197   3.138  0.0838  1.1668  0.4503
  996MOL0     C34335   7.606   0.234   3.097 -0.6712  0.5310  0.2242
  996MOL0     C34336   7.705   0.110   3.064 -0.2375 -0.1967  0.7211
  996MOL0     C34337   7.666   0.019   2.948 -0.0905 -0.8354  0.2737
  996MOL0     C34338   7.681  -0.125   2.990 -0.2708 -0.5826  0.1407
  996MOL0     C34339   7.608  -0.206   2.882 -1.0870  0.4560 -0.4783
  996MOL0     C34340   7.556  -0.342   2.926  0.4646  0.0182 -0.2065
  996MOL0     C34341   7.656  -0.446   2.949  0.0426  1.1360  0.0460
  996MOL0     N34342   7.729  -0.467   2.816  0.2251  0.0704 -0.1994
  996MOL0     C34343   7.843  -0.414   2.787 -0.4879  0.3914 -0.0245
  996MOL0     C34344   7.881  -0.489   2.681  0.3960 -1.1997 -0.0524
  996MOL0     C34345   7.982  -0.453   2.581  0.0644  0.0424  0.2049
  996MOL0     C34346   8.046  -0.585   2.529 -0.0761  0.0673  0.2799
  996MOL0     C34347   8.166  -0.559   2.450 -0.6271 -0.9023  0.3866
  996MOL0     C34348   8.260  -0.678   2.420 -0.1122  0.0257 -0.9446
  996MOL0     O34349   8.380  -0.631   2.356 -0.4263  0.1706 -0.0222
  996MOL0     C34350   8.493  -0.709   2.336 -1.1618 -0.1124 -0.5094
  996MOL0     C34351   8.606  -0.640   2.288 -0.2668  0.1913  0.1065
  996MOL0     C34352   8.737  -0.693   2.285  0.3337  0.4547 -0.3279
  996MOL0     C34353   8.841  -0.597   2.230 -0.6147 -0.2449 -0.2691
  996MOL0     C34354   8.755  -0.831   2.307 -0.5690  0.2796 -0.5686
  996MOL0     C34355   8.884  -0.893   2.294  0.7820 -0.8647 -0.0082
  996MOL0     O34356   8.892  -1.016   2.248  0.7274  0.2128  0.8757
  996MOL0     C34357   9.015  -1.062   2.212  0.1164 -0.1461  0.1353
  996MOL0     C34358   9.086  -1.138   2.305  0.0831  0.0046  0.4812
  996MOL0     C34359   9.206  -1.185   2.274 -0.3056 -0.9135  0.6379
  996MOL0     C34360   9.261  -1.164   2.142 -0.2023 -0.1754 -0.6276
  996MOL0     O34361   9.381  -1.201   2.084 -0.4611 -0.5247 -0.4770
  996MOL0     C34362   9.470  -1.280   2.160 -0.6756 -0.0242 -0.1310
  996MOL0     C34363   9.595  -1.303   2.074  0.2665  0.2071 -0.2137
  996MOL0     C34364   9.689  -1.415   2.122  0.6185 -0.6837  0.2093
  996MOL0     C34365   9.773  -1.387   2.249 -1.3893 -0.5585 -0.0306
  996MOL0     C34366   9.827  -1.508   2.316 -0.0565  0.3857  0.1603
  996MOL0     C34367   9.904  -1.484   2.447 -0.6010  0.2175  0.0163
  996MOL0     C34368  10.001  -1.605   2.503 -0.8354  0.2243  0.3030
  996MOL0     C34369  10.005  -1.604   2.655 -0.0377 -0.0770  0.7522
  996MOL0    Cl34370  10.029  -1.448   2.733  0.2758  0.1462  0.2051
  996MOL0     C34371   9.180  -1.099   2.049 -0.0480  0.3444 -0.2164
  996MOL0     C34372   9.061  -1.032   2.087 -1.3953 -1.4103  0.4448
  996MOL0     O34373   8.975  -0.830   2.349 -0.3479  0.4550 -0.8792
  996MOL0     C34374   8.642  -0.900   2.340  0.0998 -0.3322  0.9584
  996MOL0     C34375   8.513  -0.844   2.355  0.0647  0.5031  0.3719
  996MOL0     N34376   7.788  -0.591   2.661  0.0821 -0.0814 -0.1728
  996MOL0     N34377   7.697  -0.583   2.748 -0.0157 -0.3722  0.0801
  996MOL0     C34378   7.329   0.342   3.390  0.0480  1.0725  0.7663
  996MOL0     C34379   7.319   0.438   3.495 -0.1200  0.5851  0.0350
  996MOL0     C34380   7.420   0.621   3.909  0.4499 -0.1035  0.3179
  996MOL0     C34381   7.402   0.763   3.889  0.2160  0.6441  0.2279
  996MOL0     C34382   7.384   0.848   4.001  0.3166 -0.4452  1.3320
  996MOL0     C34383   7.389   0.803   4.133 -0.1326  0.6269  0.0932
  996MOL0     O34384   7.388   0.879   4.250 -0.3628 -0.3989  0.3271
  996MOL0     C34385   7.350   1.016   4.229  0.7005  0.4327  0.1103
  996MOL0     C34386   7.407   1.086   4.350  0.4772 -0.2364  0.2362
  996MOL0     C34387   7.304   1.152   4.433 -0.1100 -0.2620 -0.1235
  996MOL0     C34388   7.355   1.238   4.543 -0.1237 -0.6037  0.0638
  996MOL0     C34389   7.259   1.271   4.646 -0.4297 -0.6848 -0.2721
  996MOL0     C34390   7.171   1.304   4.721 -0.9677  0.3162  0.4605
  996MOL0     C34391   7.417   0.668   4.149  0.4976 -0.1367  0.9128
  996MOL0     C34392   7.424   0.578   4.040  0.1053 -0.7958 -0.0433
  996MOL0     H34393   7.634   0.376   3.604  0.2252 -3.8882 -0.0368
  996MOL0     H34394   7.648   0.235   3.425  0.1145 -0.3736 -1.4883
  996MOL0     H34395   7.423   0.110   3.088 -0.0571  2.0918 -1.0889
  996MOL0     H34396   7.394   0.276   3.121 -2.4780 -0.9521  0.9471
  996MOL0     H34397   7.598   0.287   3.001 -0.7759 -3.1249 -1.9599
  996MOL0     H34398   7.646   0.295   3.178 -0.9745 -2.4258  2.7628
  996MOL0     H34399   7.809   0.138   3.044 -0.8590 -0.4195 -3.8020
  996MOL0     H34400   7.719   0.037   3.145 -0.6372 -2.8696 -1.4787
  996MOL0     H34401   7.562   0.041   2.923 -0.3932 -0.0679  2.0594
  996MOL0     H34402   7.719   0.043   2.856  1.5829  1.4529  1.7369
  996MOL0     H34403   7.785  -0.153   3.011 -0.6884 -2.5770 -0.2539
  996MOL0     H34404   7.630  -0.147   3.084 -5.5210  1.7905 -1.7655
  996MOL0     H34405   7.532  -0.143   2.836  0.4962  2.7154 -0.1499
  996MOL0     H34406   7.677  -0.217   2.798 -1.2647  0.2292 -0.5975
  996MOL0     H34407   7.494  -0.328   3.014 -0.3465 -0.1956 -0.7273
  996MOL0     H34408   7.490  -0.383   2.848 -0.1266 -2.5799  1.5245
  996MOL0     H34409   7.606  -0.541   2.969 -0.2688  1.1157 -0.7894
  996MOL0     H34410   7.721  -0.419   3.033 -0.4622 -1.7116  1.4643
  996MOL0     H34411   7.887  -0.321   2.821  0.9432 -0.0920 -0.4881
  996MOL0     H34412   7.929  -0.392   2.507 -3.1267 -1.5366  0.9776
  996MOL0     H34413   8.062  -0.392   2.623 -0.2698 -0.1993  1.2214
  996MOL0     H34414   7.976  -0.643   2.468 -0.1989 -0.9314  1.3284
  996MOL0     H34415   8.074  -0.643   2.618 -1.6790 -0.6308  0.3700
  996MOL0     H34416   8.232  -0.478   2.484 -1.5674  1.1198 -2.2484
  996MOL0     H34417   8.132  -0.508   2.359  1.9160 -2.2946 -1.4748
  996MOL0     H34418   8.201  -0.751   2.364 -2.3280  0.1520  1.0735
  996MOL0     H34419   8.281  -0.731   2.513  1.5965  0.4705 -1.0400
  996MOL0     H34420   8.588  -0.537   2.261  3.0839  0.2543 -2.5855
  996MOL0     H34421   8.894  -0.638   2.143  1.4064  1.2917  0.1784
  996MOL0     H34422   8.801  -0.499   2.202 -0.8513  0.0031  0.8855
  996MOL0     H34423   8.917  -0.581   2.306 -2.9989  1.4630  1.9044
  996MOL0     H34424   9.035  -1.155   2.399 -2.6084 -1.7751 -1.1450
  996MOL0     H34425   9.269  -1.218   2.356 -1.4904 -0.2286  1.8686
  996MOL0     H34426   9.496  -1.239   2.258  2.1718 -1.1435 -0.3205
  996MOL0     H34427   9.428  -1.378   2.187  0.4829  0.0740  2.2194
  996MOL0     H34428   9.572  -1.318   1.968  2.4250 -0.5817 -0.6110
  996MOL0     H34429   9.661  -1.219   2.097  1.7398 -1.2831  1.2728
  996MOL0     H34430   9.759  -1.445   2.044  1.9266  1.2587  0.5752
  996MOL0     H34431   9.623  -1.498   2.150 -0.6291  0.8002  1.9163
  996MOL0     H34432   9.856  -1.325   2.215 -0.1105 -3.1463 -2.0531
  996MOL0     H34433   9.708  -1.336   2.321 -0.4232 -2.2868  2.1805
  996MOL0     H34434   9.889  -1.555   2.238 -0.9435 -0.1244 -0.2464
  996MOL0     H34435   9.744  -1.575   2.339 -0.2191  0.9482  1.2328
  996MOL0     H34436   9.962  -1.391   2.440 -0.3824 -0.0168 -2.3073
  996MOL0     H34437   9.827  -1.473   2.523 -0.1279  0.4195  0.4741
  996MOL0     H34438  10.106  -1.604   2.472 -0.1175 -1.6219  2.3892
  996MOL0     H34439   9.959  -1.699   2.465  1.2104 -0.9370  0.7637
  996MOL0     H34440  10.075  -1.683   2.682 -0.7488 -1.5551 -1.4583
  996MOL0     H34441   9.906  -1.632   2.693  0.2634  0.6647  2.1549
  996MOL0     H34442   9.231  -1.078   1.956  1.8353  1.0725  0.9217
  996MOL0     H34443   9.017  -0.963   2.015  2.3529  1.4657  0.6232
  996MOL0     H34444   8.658  -1.003   2.369  0.5150 -0.2426  1.0586
  996MOL0     H34445   8.439  -0.917   2.385  0.6775 -0.9037 -1.3355
  996MOL0     H34446   7.238   0.322   3.334 -1.7658  0.7545  3.6592
  996MOL0     H34447   7.224   0.486   3.513 -0.7177  0.6618 -2.8105
  996MOL0     H34448   7.395   0.804   3.789  1.0261 -1.6318 -0.8280
  996MOL0     H34449   7.364   0.950   3.969 -0.3675 -0.7469  0.7448
  996MOL0     H34450   7.389   1.062   4.137 -1.0792 -0.8459 -1.3640
  996MOL0     H34451   7.244   1.026   4.208  0.8605  2.3838  0.0244
  996MOL0     H34452   7.487   1.151   4.314  1.3164 -1.8583 -0.9602
  996MOL0     H34453   7.461   1.012   4.411 -0.4234 -1.3274 -0.2489
  996MOL0     H34454   7.233   1.077   4.468  1.1524 -1.4877 -0.0576
  996MOL0     H34455   7.245   1.215   4.366  0.9921 -2.3107 -3.2313
  996MOL0     H34456   7.404   1.324   4.497  0.8415 -1.8837 -1.4184
  996MOL0     H34457   7.434   1.176   4.585  2.2829  1.2328 -1.4640
  996MOL0     H34458   7.098   1.337   4.792 -0.4817  1.5497  0.4164
  996MOL0     H34459   7.423   0.615   4.244 -0.5925 -0.2108  0.9504
  996MOL0     H34460   7.448   0.477   4.069  2.8674  0.3350  2.0246
  997MOL0     O34461   6.909   6.126   8.485 -0.1485  0.5345  1.0442
  997MOL0     C34462   6.993   6.050   8.441 -0.4658 -0.3454  0.5798
  997MOL0     O34463   7.068   5.963   8.517 -0.1345 -0.1894  0.6800
  997MOL0     C34464   7.049   5.983   8.653  0.3094  0.1144  0.2828
  997MOL0     C34465   7.135   6.068   8.719 -0.0228  0.0750 -0.0167
  997MOL0     C34466   7.126   6.087   8.858 -1.5172 -0.8290 -0.3244
  997MOL0     C34467   7.021   6.035   8.933 -0.8033  0.9189  0.3911
  997MOL0     O34468   7.002   6.052   9.064  0.6701 -0.3786  0.0637
  997MOL0     C34469   7.091   6.149   9.136  0.7673  0.4058  0.4508
  997MOL0     C34470   7.048   6.150   9.279 -0.4939 -0.3800  0.3411
  997MOL0     C34471   6.884   6.175   9.302 -1.1227 -0.2840  0.2790
  997MOL0     C34472   6.796   6.052   9.318  0.2091 -0.4763  0.4847
  997MOL0     C34473   6.655   6.080   9.373  0.9254  0.7754 -0.5440
  997MOL0     C34474   6.575   5.969   9.430 -0.1042  0.1234  0.5550
  997MOL0     C34475   6.418   5.986   9.412 -0.4533  0.2552 -0.7971
  997MOL0     C34476   6.329   5.875   9.479  0.0005 -0.5925  0.5474
  997MOL0     N34477   6.384   5.742   9.451 -0.2292  0.0021 -0.3270
  997MOL0     C34478   6.347   5.653   9.352 -0.1862  0.9152  0.1919
  997MOL0     C34479   6.414   5.543   9.363  0.2773 -0.5262 -0.3897
  997MOL0     C34480   6.396   5.412   9.284 -0.3949 -0.5992  0.1290
  997MOL0     C34481   6.395   5.289   9.368 -0.6594 -0.5423  0.0305
  997MOL0     C34482   6.542   5.241   9.382  0.1591 -0.1938 -0.0822
  997MOL0     C34483   6.557   5.098   9.433 -0.6858 -0.6352  0.6190
  997MOL0     O34484   6.469   5.001   9.380  0.4680  0.6782  0.3590
  997MOL0     C34485   6.493   4.869   9.401 -0.0327 -0.3957 -0.6460
  997MOL0     C34486   6.600   4.821   9.486  0.4993  0.7038  0.2166
  997MOL0     C34487   6.628   4.683   9.487 -1.0981  0.4012 -0.1044
  997MOL0     C34488   6.751   4.648   9.564 -0.7515  0.5679  0.2236
  997MOL0     C34489   6.548   4.596   9.405 -0.2523 -0.0571 -0.0535
  997MOL0     C34490   6.563   4.448   9.401  0.2257 -0.4448  0.5298
  997MOL0     O34491   6.454   4.377   9.431 -0.1617  0.5514 -0.7558
  997MOL0     C34492   6.461   4.243   9.442  0.2708 -0.9880 -0.4841
  997MOL0     C34493   6.482   4.179   9.319 -0.3597 -0.2887  0.8021
  997MOL0     C34494   6.498   4.040   9.327  0.2400  0.2688  0.0227
  997MOL0     C34495   6.485   3.966   9.447  0.0549  0.4449 -0.3418
  997MOL0     O34496   6.520   3.835   9.452 -0.5974  0.3467 -0.7886
  997MOL0     C34497   6.646   3.793   9.399  0.0846  0.2077  0.6467
  997MOL0     C34498   6.741   3.817   9.516  1.2667  0.0146  0.9103
  997MOL0     C34499   6.728   3.708   9.628  0.8055 -0.1771  0.0290
  997MOL0     C34500   6.858   3.649   9.683 -0.3984  0.5246 -0.5981
  997MOL0     C34501   6.828   3.550   9.803  0.1047  1.3110 -0.4675
  997MOL0     C34502   6.957   3.500   9.867  0.3060  0.3292  0.3327
  997MOL0     C34503   6.931   3.424   9.992 -0.3177  0.4511 -1.5801
  997MOL0     C34504   6.894   3.514  10.112 -0.7692 -0.3357 -0.0265
  997MOL0    Cl34505   6.949   3.412  10.244 -0.1570 -0.1122 -0.0783
  997MOL0     C34506   6.444   4.033   9.558  0.1479  0.3495  0.6149
  997MOL0     C34507   6.444   4.172   9.555 -0.1951  0.1754  0.2750
  997MOL0     O34508   6.677   4.407   9.365  0.2206  0.5881  0.0067
  997MOL0     C34509   6.437   4.647   9.334 -0.6140 -0.0596 -0.2676
  997MOL0     C34510   6.421   4.783   9.326  0.0161 -0.3127 -0.4727
  997MOL0     N34511   6.504   5.566   9.467 -0.3508 -0.8889  0.5804
  997MOL0     N34512   6.483   5.680   9.526  0.1844  0.8032  0.0268
  997MOL0     C34513   6.930   5.955   8.858 -0.5923  0.4870 -0.1144
  997MOL0     C34514   6.935   5.939   8.725  0.0353  0.3400  1.4287
  997MOL0     C34515   7.002   6.033   8.290 -0.6475 -0.3308 -0.4122
  997MOL0     C34516   7.066   5.918   8.237  0.3568 -0.7875 -0.7726
  997MOL0     C34517   7.069   5.906   8.101  0.6766 -0.5147  0.7076
  997MOL0     C34518   7.013   6.001   8.011  0.0023 -0.7270 -0.3393
  997MOL0     O34519   7.020   5.973   7.877  0.2581 -0.0270 -0.4341
  997MOL0     C34520   6.944   6.063   7.799  0.0450  0.2883  0.8075
  997MOL0     C34521   6.986   6.055   7.649 -0.1193  0.7538 -0.1034
  997MOL0     C34522   7.134   6.087   7.633  1.0661  1.7443  0.8268
  997MOL0     C34523   7.189   6.132   7.488  0.5761  0.0019 -0.0046
  997MOL0     C34524   7.115   6.233   7.419 -0.0744  0.1814  0.7692
  997MOL0     C34525   7.065   6.328   7.358 -0.9853  0.1029  0.6230
  997MOL0     C34526   6.958   6.110   8.071  0.7582 -0.0368  0.2847
  997MOL0     C34527   6.956   6.132   8.205  0.4039 -0.2465  0.3017
  997MOL0     H34528   7.219   6.107   8.663 -0.8557  0.6083 -0.9431
  997MOL0     H34529   7.199   6.154   8.902 -1.7293 -0.5028 -0.4696
  997MOL0     H34530   7.196   6.117   9.140  0.4528 -0.7761 -0.2093
  997MOL0     H34531   7.094   6.250   9.095  2.2641  1.5950  3.2153
  997MOL0     H34532   7.089   6.059   9.325  3.1937 -0.1636 -2.0899
  997MOL0     H34533   7.098   6.233   9.330 -1.6458  1.2767 -1.1504
  997MOL0     H34534   6.864   6.240   9.388  0.5313  0.5336  0.0794
  997MOL0     H34535   6.852   6.233   9.215  1.7789  0.5780 -0.3050
  997MOL0     H34536   6.783   5.994   9.226  0.7104 -1.7785  1.2042
  997MOL0     H34537   6.852   5.984   9.383  2.1755  0.4617 -0.1458
  997MOL0     H34538   6.663   6.152   9.455 -0.0598 -0.2596  0.5058
  997MOL0     H34539   6.597   6.122   9.290  2.1649  0.4590 -1.6128
  997MOL0     H34540   6.599   5.878   9.375 -2.5091 -0.7797  0.8592
  997MOL0     H34541   6.612   5.950   9.531  1.8148  3.5250  0.6421
  997MOL0     H34542   6.386   6.087   9.440  1.1314  0.7942 -0.8380
  997MOL0     H34543   6.395   5.972   9.306 -1.2473 -0.3583 -0.5614
  997MOL0     H34544   6.232   5.881   9.429 -0.1881  1.4851  1.0616
  997MOL0     H34545   6.323   5.874   9.588 -3.0074 -1.8090  0.4566
  997MOL0     H34546   6.263   5.667   9.284  1.7309 -1.0057 -2.8032
  997MOL0     H34547   6.294   5.413   9.242  0.0241  1.7641 -0.9817
  997MOL0     H34548   6.460   5.409   9.195  1.9727  0.4823  1.7236
  997MOL0     H34549   6.343   5.220   9.300 -0.1160  1.2534 -2.3204
  997MOL0     H34550   6.342   5.298   9.463 -1.5452  2.3312 -0.6420
  997MOL0     H34551   6.594   5.314   9.445 -0.9204  0.0329  0.5772
  997MOL0     H34552   6.599   5.243   9.289  3.1090  0.0242  1.6025
  997MOL0     H34553   6.547   5.089   9.541  1.4847  1.2698  1.0730
  997MOL0     H34554   6.664   5.079   9.420 -0.5397 -0.2629  1.2221
  997MOL0     H34555   6.650   4.883   9.561  1.8304  0.6428 -0.5946
  997MOL0     H34556   6.803   4.559   9.527  1.7041  2.0270 -0.0864
  997MOL0     H34557   6.833   4.721   9.564  0.6270 -0.9320 -0.3022
  997MOL0     H34558   6.743   4.632   9.672  1.1047  0.6271  0.4093
  997MOL0     H34559   6.486   4.236   9.226 -0.2468  0.7377  1.4215
  997MOL0     H34560   6.514   3.970   9.246 -0.8467 -0.2764  0.2554
  997MOL0     H34561   6.651   3.689   9.366 -0.5230 -0.0028  1.2003
  997MOL0     H34562   6.678   3.848   9.310 -0.0121 -1.5983 -0.5516
  997MOL0     H34563   6.843   3.814   9.475  0.4727  0.4997 -1.2628
  997MOL0     H34564   6.733   3.920   9.550  1.0227  0.3582 -0.1570
  997MOL0     H34565   6.679   3.627   9.574 -1.8564  2.5978 -2.0436
  997MOL0     H34566   6.666   3.759   9.702 -0.4479  1.2640 -1.9101
  997MOL0     H34567   6.925   3.603   9.610 -0.8434 -1.4237  0.1610
  997MOL0     H34568   6.914   3.731   9.730 -0.2680 -0.2653  0.6708
  997MOL0     H34569   6.764   3.462   9.789  1.5862  0.3660 -1.4813
  997MOL0     H34570   6.778   3.612   9.878 -0.3215  0.6209 -0.1655
  997MOL0     H34571   6.988   3.427   9.792 -2.3359  0.3676 -0.8870
  997MOL0     H34572   7.026   3.584   9.880 -1.1626  1.5012  0.8596
  997MOL0     H34573   7.026   3.377  10.016 -1.4014 -0.3139  1.6647
  997MOL0     H34574   6.858   3.343   9.986 -0.2193  0.1306  0.8421
  997MOL0     H34575   6.787   3.533  10.106 -0.9052 -0.9761  0.2628
  997MOL0     H34576   6.949   3.608  10.111 -0.5474 -0.3730  2.6077
  997MOL0     H34577   6.433   3.984   9.654 -1.9182  2.7867  1.7311
  997MOL0     H34578   6.439   4.223   9.651  0.2188  0.6336  0.0581
  997MOL0     H34579   6.374   4.584   9.272 -2.0252 -0.2327  1.2740
  997MOL0     H34580   6.347   4.836   9.267 -1.1462  0.4053  1.5215
  997MOL0     H34581   6.851   5.902   8.910 -1.0359  2.3042  1.1375
  997MOL0     H34582   6.869   5.871   8.673 -0.6530 -0.2004  2.9653
  997MOL0     H34583   7.117   5.842   8.295 -0.6742  1.1188  2.9352
  997MOL0     H34584   7.111   5.816   8.057  0.6899 -0.9258  1.5342
  997MOL0     H34585   6.838   6.048   7.821  0.3063  1.0244  2.7220
  997MOL0     H34586   6.954   6.169   7.824 -1.1145 -0.3406  4.4108
  997MOL0     H34587   6.918   6.120   7.593 -1.6546 -2.1538 -1.8456
  997MOL0     H34588   6.963   5.957   7.605  3.7672  0.9337 -3.0579
  997MOL0     H34589   7.195   6.000   7.660  1.1277  0.6482 -2.4157
  997MOL0     H34590   7.144   6.161   7.713 -1.7539 -0.0695  3.0884
  997MOL0     H34591   7.181   6.047   7.420  0.0661  0.8128 -0.9824
  997MOL0     H34592   7.292   6.165   7.502  0.0258  1.0056  2.0117
  997MOL0     H34593   7.014   6.415   7.324 -0.9858 -1.5284 -4.2954
  997MOL0     H34594   6.914   6.184   8.005 -2.0384 -1.0613  0.8712
  997MOL0     H34595   6.929   6.232   8.238 -0.0730 -0.9985  2.3315
  998MOL0     O34596  10.091   8.296   6.288  0.0621 -0.3963 -0.3718
  998MOL0     C34597   9.972   8.296   6.281  0.1345  0.6133 -0.6649
  998MOL0     O34598   9.878   8.402   6.296  0.3679  0.9961  0.0613
  998MOL0     C34599   9.910   8.534   6.294 -0.1891 -0.3738  0.2479
  998MOL0     C34600   9.815   8.626   6.344 -1.4721 -0.3848  0.3029
  998MOL0     C34601   9.835   8.763   6.348 -1.0706  0.5011 -0.6156
  998MOL0     C34602   9.952   8.812   6.296  0.1477  0.4766  0.0491
  998MOL0     O34603   9.952   8.948   6.292  0.3133 -0.1663 -0.0948
  998MOL0     C34604  10.072   9.008   6.232  0.3450 -0.9639  0.3738
  998MOL0     C34605  10.189   8.990   6.335 -0.2685 -0.4237 -0.8692
  998MOL0     C34606  10.173   9.070   6.460  0.0395 -0.6511  0.1680
  998MOL0     C34607  10.292   9.089   6.547  0.5032  0.4436  0.5151
  998MOL0     C34608  10.303   8.955   6.631 -1.4687 -1.2294  0.1111
  998MOL0     C34609  10.429   8.964   6.716  0.2717 -0.7428  0.0694
  998MOL0     C34610  10.411   9.049   6.841  0.2282  0.1133 -0.9044
  998MOL0     C34611  10.548   9.103   6.894 -0.1313  0.6558 -0.9619
  998MOL0     N34612  10.544   9.186   7.016 -0.6365  0.6635  0.0304
  998MOL0     C34613  10.545   9.152   7.148  0.0657  0.6791 -0.9322
  998MOL0     C34614  10.548   9.266   7.223  0.9010  0.2117 -0.0508
  998MOL0     C34615  10.579   9.283   7.364  0.4898 -0.6974 -0.3508
  998MOL0     C34616  10.458   9.248   7.459 -0.7882  0.3112  0.2830
  998MOL0     C34617  10.405   9.114   7.479 -0.5373  1.5758 -0.0967
  998MOL0     C34618  10.515   9.010   7.504  0.1849 -0.0763  0.3374
  998MOL0     O34619  10.573   9.030   7.637  0.5296 -0.6495 -0.8638
  998MOL0     C34620  10.516   8.956   7.740 -0.1470  0.6698 -0.4722
  998MOL0     C34621  10.386   8.896   7.737 -0.3380 -0.1170 -0.3395
  998MOL0     C34622  10.339   8.830   7.855  0.3394 -0.3981  0.0132
  998MOL0     C34623  10.204   8.769   7.841 -0.2771 -0.4284 -0.8637
  998MOL0     C34624  10.415   8.819   7.975 -0.2949  0.4319  0.0238
  998MOL0     C34625  10.365   8.754   8.091  0.4160 -0.6711 -0.4338
  998MOL0     O34626  10.453   8.669   8.157  0.2163 -0.0012  0.2021
  998MOL0     C34627  10.385   8.608   8.263  1.5770 -0.2748  0.8613
  998MOL0     C34628  10.435   8.635   8.385 -0.2937  0.7260 -0.1519
  998MOL0     C34629  10.399   8.551   8.486  0.7267 -0.2655  0.5225
  998MOL0     C34630  10.301   8.456   8.478 -0.4408  0.1283  1.3916
  998MOL0     O34631  10.269   8.390   8.594  0.4907 -0.8064 -0.0636
  998MOL0     C34632  10.232   8.255   8.572 -0.1332 -0.3146 -0.1322
  998MOL0     C34633  10.213   8.196   8.714  0.0336  0.7938 -0.1564
  998MOL0     C34634  10.183   8.046   8.699  0.5834  0.7684 -0.6805
  998MOL0     C34635  10.154   7.987   8.834  0.1085 -0.7630  0.0213
  998MOL0     C34636  10.067   7.866   8.838  0.4864  0.4450 -0.4400
  998MOL0     C34637  10.116   7.747   8.765 -0.2259  0.5698 -0.8036
  998MOL0     C34638  10.036   7.617   8.789  0.3126 -0.7023  0.1801
  998MOL0     C34639  10.090   7.494   8.722  0.0329 -0.6540 -0.1894
  998MOL0    Cl34640  10.108   7.524   8.547 -0.2091  0.3601 -0.0579
  998MOL0     C34641  10.248   8.429   8.346  0.3770  0.5820 -0.4624
  998MOL0     C34642  10.290   8.506   8.242 -0.8675 -0.3569  0.7964
  998MOL0     O34643  10.245   8.780   8.121  0.4647  0.8238  0.0770
  998MOL0     C34644  10.542   8.882   7.970  0.2109 -0.4725  0.3533
  998MOL0     C34645  10.594   8.941   7.856 -0.1499  0.4321  0.2118
  998MOL0     N34646  10.535   9.369   7.135 -0.6171  0.0369 -0.7836
  998MOL0     N34647  10.543   9.321   7.012 -0.6642  0.0269  0.5087
  998MOL0     C34648  10.053   8.727   6.253  0.4829  0.4134  0.4834
  998MOL0     C34649  10.026   8.587   6.245  0.1066 -0.3557 -1.2419
  998MOL0     C34650   9.911   8.164   6.256 -0.8201  0.0648  0.1782
  998MOL0     C34651   9.785   8.149   6.195 -0.9594 -0.2401 -0.4168
  998MOL0     C34652   9.745   8.019   6.149 -0.0495  0.6119  0.7615
  998MOL0     C34653   9.824   7.907   6.160  0.3877 -0.2367 -0.5157
  998MOL0     O34654   9.770   7.792   6.123  0.1715  1.0193  0.1164
  998MOL0     C34655   9.832   7.663   6.142  0.9094 -0.6848  0.4159
  998MOL0     C34656   9.748   7.552   6.093 -0.2794 -0.1049 -0.7764
  998MOL0     C34657   9.736   7.546   5.941  0.5664 -0.6677 -0.1064
  998MOL0     C34658   9.685   7.417   5.888  0.1312 -0.2601  0.0569
  998MOL0     C34659   9.792   7.315   5.884 -0.3537 -1.4432 -0.0508
  998MOL0     C34660   9.885   7.237   5.881 -0.4104  0.3244  0.1356
  998MOL0     C34661   9.942   7.921   6.226 -0.2465 -0.4963 -0.3293
  998MOL0     C34662   9.991   8.045   6.272 -0.1606  0.5709  0.1884
  998MOL0     H34663   9.724   8.578   6.378 -0.9108 -4.8978 -3.5430
  998MOL0     H34664   9.756   8.826   6.388 -1.1452 -0.9584  1.7108
  998MOL0     H34665  10.102   8.992   6.129 -2.9423  1.1099 -1.0886
  998MOL0     H34666  10.044   9.114   6.239 -0.7538 -1.1624 -0.7563
  998MOL0     H34667  10.201   8.883   6.353 -1.5617 -0.5294 -0.5408
  998MOL0     H34668  10.274   9.012   6.270 -0.8217  0.3832 -1.3328
  998MOL0     H34669  10.154   9.174   6.430  1.5673  0.2954  2.2814
  998MOL0     H34670  10.088   9.031   6.516 -0.2739  0.4264  0.4655
  998MOL0     H34671  10.382   9.119   6.493  0.9454 -0.5403  0.6964
  998MOL0     H34672  10.272   9.174   6.614  1.5145 -0.4958  2.1015
  998MOL0     H34673  10.216   8.939   6.695 -1.4600 -0.6867  0.2570
  998MOL0     H34674  10.325   8.877   6.558  1.8870  1.5551 -2.1560
  998MOL0     H34675  10.441   8.863   6.757  0.0294 -0.1044  1.8239
  998MOL0     H34676  10.520   8.991   6.663 -1.5922  2.2600 -1.9442
  998MOL0     H34677  10.345   9.133   6.817 -0.0368 -0.4154 -2.0643
  998MOL0     H34678  10.363   8.993   6.922 -0.2241 -0.1706 -1.3646
  998MOL0     H34679  10.583   9.175   6.820 -0.5531 -0.3974 -2.2371
  998MOL0     H34680  10.626   9.026   6.892  1.9019  2.5573  0.7143
  998MOL0     H34681  10.564   9.058   7.197  0.6680  1.1836 -0.1908
  998MOL0     H34682  10.672   9.232   7.390  0.2091 -0.9711  0.1325
  998MOL0     H34683  10.590   9.389   7.389  0.2089 -0.4882 -1.0735
  998MOL0     H34684  10.369   9.300   7.422 -1.3098 -0.5668  0.2680
  998MOL0     H34685  10.483   9.294   7.555  1.4911  0.6784 -0.4249
  998MOL0     H34686  10.332   9.091   7.401 -1.8718 -2.9245  2.1657
  998MOL0     H34687  10.336   9.114   7.564  0.2690  0.1212  0.5809
  998MOL0     H34688  10.590   9.031   7.426 -1.7904  1.3806 -1.2690
  998MOL0     H34689  10.493   8.904   7.489  1.4929 -0.2884 -0.2651
  998MOL0     H34690  10.319   8.909   7.653 -1.1356  0.5232  0.3844
  998MOL0     H34691  10.197   8.674   7.895  2.2260  1.4242  3.2203
  998MOL0     H34692  10.127   8.835   7.882  0.3553 -1.3844  2.1243
  998MOL0     H34693  10.188   8.755   7.734 -0.0885 -1.6724 -0.7492
  998MOL0     H34694  10.505   8.718   8.397  2.8172 -1.8788  1.0445
  998MOL0     H34695  10.431   8.564   8.588 -2.4188  0.2506  1.5441
  998MOL0     H34696  10.138   8.247   8.516 -0.3932 -0.8181  0.3622
  998MOL0     H34697  10.312   8.199   8.522 -0.5497 -0.7287 -0.3541
  998MOL0     H34698  10.310   8.196   8.764 -0.1340 -1.0755  0.2748
  998MOL0     H34699  10.131   8.243   8.768 -0.1992  1.3779 -0.9938
  998MOL0     H34700  10.266   7.990   8.655  1.1407 -0.9861  2.3750
  998MOL0     H34701  10.095   8.030   8.636 -0.9561 -1.5632  1.8643
  998MOL0     H34702  10.246   7.953   8.882 -0.6297 -2.3968  0.3484
  998MOL0     H34703  10.103   8.062   8.896  0.3235  0.6366 -1.4218
  998MOL0     H34704   9.971   7.891   8.791 -1.7982 -2.6699  2.0731
  998MOL0     H34705  10.052   7.859   8.946  1.5025  3.5293 -0.0058
  998MOL0     H34706  10.122   7.774   8.659  0.9059  1.1241 -0.6122
  998MOL0     H34707  10.222   7.733   8.791 -0.2303  3.2802  1.1566
  998MOL0     H34708   9.929   7.623   8.763  0.5338  0.0652 -0.5930
  998MOL0     H34709  10.022   7.591   8.895 -2.5150 -2.0999 -0.4355
  998MOL0     H34710  10.028   7.409   8.750 -0.1643 -0.0922  1.1485
  998MOL0     H34711  10.183   7.470   8.773  0.2934 -0.2494 -0.4634
  998MOL0     H34712  10.174   8.354   8.318 -0.0421  0.6408  0.4620
  998MOL0     H34713  10.256   8.480   8.142 -0.3541 -2.2427  1.0692
  998MOL0     H34714  10.598   8.891   8.063 -0.9825  0.2317  1.0226
  998MOL0     H34715  10.691   8.987   7.841 -0.8772  1.4253 -1.7377
  998MOL0     H34716  10.139   8.768   6.199 -0.7123  1.1374 -0.9420
  998MOL0     H34717  10.106   8.523   6.210  0.4135  0.0104 -1.2267
  998MOL0     H34718   9.724   8.238   6.182 -1.1754 -0.4071 -0.5590
  998MOL0     H34719   9.646   8.007   6.106  0.0236 -1.1600  1.0023
  998MOL0     H34720   9.916   7.667   6.072 -0.5176  2.9049 -1.3515
  998MOL0     H34721   9.859   7.659   6.248  1.7330 -0.4999  0.2207
  998MOL0     H34722   9.651   7.568   6.139  0.4626  0.5842  0.6229
  998MOL0     H34723   9.788   7.458   6.132 -0.3597  0.0365 -0.3415
  998MOL0     H34724   9.824   7.567   5.880 -0.4802 -0.3468 -1.5556
  998MOL0     H34725   9.670   7.627   5.908  2.2180  0.7228 -0.0758
  998MOL0     H34726   9.651   7.430   5.785 -0.4588 -1.8735  0.0224
  998MOL0     H34727   9.597   7.379   5.940  1.0400 -1.2030  0.9764
  998MOL0     H34728   9.959   7.160   5.891 -2.7545 -1.9938  0.6328
  998MOL0     H34729  10.008   7.836   6.240 -1.7354 -2.2286 -2.8760
  998MOL0     H34730  10.093   8.034   6.307 -0.4687 -4.1943  0.1428
  999MOL0     O34731  10.761   4.971   4.627  1.0950 -0.2814 -1.2741
  999MOL0     C34732  10.662   4.900   4.656  0.0535 -0.7193 -0.1765
  999MOL0     O34733  10.622   4.854   4.781  0.0652 -0.3241  0.3161
  999MOL0     C34734  10.687   4.897   4.889 -0.2083 -0.1181  0.2463
  999MOL0     C34735  10.631   4.995   4.968  1.5507 -0.0545 -0.3827
  999MOL0     C34736  10.702   5.055   5.076 -0.3854  0.2735 -0.5465
  999MOL0     C34737  10.836   5.012   5.109  0.2093  0.1461  0.1095
  999MOL0     O34738  10.892   5.072   5.215 -0.1886  0.4334  0.2237
  999MOL0     C34739  11.033   5.056   5.250 -0.6397 -0.2331 -0.1067
  999MOL0     C34740  11.042   5.133   5.380  0.3014  0.2816 -0.5369
  999MOL0     C34741  11.166   5.082   5.451 -0.9331  0.0661  0.2551
  999MOL0     C34742  11.201   5.175   5.564 -0.2614 -0.7614 -0.0871
  999MOL0     C34743  11.325   5.120   5.635 -0.4256 -1.7601 -0.7288
  999MOL0     C34744  11.387   5.224   5.742 -0.2145 -0.1352 -0.2106
  999MOL0     C34745  11.536   5.197   5.765 -0.8490  0.5521 -0.1179
  999MOL0     C34746  11.563   5.055   5.803 -0.6679  0.4783  0.1008
  999MOL0     N34747  11.702   5.030   5.846 -0.7364  0.1811 -0.5590
  999MOL0     C34748  11.757   4.909   5.881  0.6906 -0.3856  0.0504
  999MOL0     C34749  11.884   4.934   5.921  1.1221  0.1537 -0.7580
  999MOL0     C34750  11.991   4.830   5.948  0.2365  0.0914  0.2130
  999MOL0     C34751  11.987   4.760   6.086  0.5729 -1.3768  0.3927
  999MOL0     C34752  12.042   4.630   6.100 -0.7959 -0.1672 -0.1170
  999MOL0     C34753  11.994   4.586   6.244 -0.5711  0.8580  0.3475
  999MOL0     O34754  12.065   4.466   6.273  0.5924  0.2891  0.1421
  999MOL0     C34755  12.057   4.421   6.413 -0.1221  0.6462  1.1113
  999MOL0     C34756  12.127   4.310   6.447  0.6370  0.4322 -1.0953
  999MOL0     C34757  12.121   4.249   6.576  1.0537 -0.4341  0.6108
  999MOL0     C34758  12.210   4.137   6.620  1.0030  0.0579 -0.2731
  999MOL0     C34759  12.033   4.316   6.664  0.1028  0.7225  0.7251
  999MOL0     C34760  12.014   4.265   6.796 -0.0545  0.5195 -0.1310
  999MOL0     O34761  12.116   4.248   6.877 -0.3392  0.5275  0.7054
  999MOL0     C34762  12.113   4.169   6.987 -0.2041 -1.2434  0.0348
  999MOL0     C34763  12.206   4.186   7.093  0.1061  0.1427 -0.6175
  999MOL0     C34764  12.201   4.099   7.211  1.6274  0.3375  0.2498
  999MOL0     C34765  12.090   4.004   7.226  0.1893  0.8056  0.0409
  999MOL0     O34766  12.078   3.940   7.350 -0.4031 -0.0560  0.6070
  999MOL0     C34767  11.955   3.875   7.384  0.0325  1.1675  0.2861
  999MOL0     C34768  11.946   3.810   7.523  0.7265  0.4322 -0.8058
  999MOL0     C34769  11.982   3.653   7.507  0.0124  0.2617 -0.2677
  999MOL0     C34770  12.005   3.584   7.645  0.3360 -0.9020 -0.3799
  999MOL0     C34771  11.872   3.563   7.722  0.9558 -0.1649  0.3112
  999MOL0     C34772  11.880   3.589   7.869 -0.6259  1.0154  0.4014
  999MOL0     C34773  11.741   3.581   7.928  0.1884  0.4613 -0.1217
  999MOL0     C34774  11.741   3.631   8.073  0.6957 -0.8168  0.0900
  999MOL0    Cl34775  11.580   3.637   8.151 -0.3779 -0.3215 -0.1807
  999MOL0     C34776  11.997   3.994   7.123 -0.9462 -0.1945 -0.0297
  999MOL0     C34777  12.009   4.073   7.009 -0.2340  0.3044  0.2030
  999MOL0     O34778  11.898   4.255   6.825  0.2029 -0.4682 -1.2481
  999MOL0     C34779  11.969   4.434   6.636  0.2966 -0.2616  0.1349
  999MOL0     C34780  11.979   4.488   6.506 -0.2950  0.0134  0.1019
  999MOL0     N34781  11.904   5.069   5.928 -0.3682  0.7765  0.2527
  999MOL0     N34782  11.795   5.126   5.887 -0.5574  0.6737  0.1910
  999MOL0     C34783  10.890   4.912   5.025 -0.5049 -0.1585  0.7973
  999MOL0     C34784  10.821   4.861   4.919  0.7014  0.4860 -0.3693
  999MOL0     C34785  10.569   4.877   4.541  0.3346  0.1084 -0.9057
  999MOL0     C34786  10.604   4.912   4.408 -0.8951 -0.6674 -0.5694
  999MOL0     C34787  10.523   4.875   4.306  0.3700  0.7261  0.2953
  999MOL0     C34788  10.391   4.834   4.332 -0.1915 -0.4422  0.5176
  999MOL0     O34789  10.303   4.799   4.229 -0.1225  0.0392  0.2508
  999MOL0     C34790  10.352   4.738   4.107 -0.0561  1.1151 -0.2562
  999MOL0     C34791  10.444   4.611   4.136  0.5906  0.1244 -0.8690
  999MOL0     C34792  10.357   4.506   4.203  0.0017  0.7924  0.0077
  999MOL0     C34793  10.431   4.369   4.228  0.1496 -0.5432  0.4509
  999MOL0     C34794  10.411   4.274   4.115 -0.6691  0.2830 -1.0012
  999MOL0     C34795  10.424   4.195   4.025  0.8542  0.7734 -0.0531
  999MOL0     C34796  10.352   4.802   4.463  0.0866  0.5681 -0.8896
  999MOL0     C34797  10.447   4.818   4.564  0.6909  1.8125 -0.7208
  999MOL0     H34798  10.526   5.021   4.960  0.6980 -2.8238  0.7260
  999MOL0     H34799  10.655   5.132   5.136 -0.3053  0.8416 -1.1975
  999MOL0     H34800  11.062   4.953   5.273 -1.7476  0.1058  3.4678
  999MOL0     H34801  11.098   5.108   5.180  0.6570  0.4254  1.5096
  999MOL0     H34802  11.061   5.239   5.356  1.3852  0.5932  1.4741
  999MOL0     H34803  10.950   5.132   5.439 -0.0455  2.0893 -0.9596
  999MOL0     H34804  11.134   4.984   5.486 -1.9903  0.2051 -0.3050
  999MOL0     H34805  11.258   5.071   5.393 -1.2657  0.0745 -0.2777
  999MOL0     H34806  11.224   5.275   5.524  1.2403 -0.4810  1.3860
  999MOL0     H34807  11.114   5.185   5.629 -1.3090 -0.5630 -1.4842
  999MOL0     H34808  11.294   5.031   5.691  0.6406 -0.6712  1.7243
  999MOL0     H34809  11.399   5.107   5.556 -1.5917 -1.8608 -1.8386
  999MOL0     H34810  11.377   5.328   5.707  0.3158  0.5086  1.4368
  999MOL0     H34811  11.328   5.212   5.834  1.7873 -1.8417  0.9143
  999MOL0     H34812  11.578   5.219   5.667 -1.1133 -2.6649 -1.0530
  999MOL0     H34813  11.586   5.260   5.839 -0.9175 -0.4830  0.8536
  999MOL0     H34814  11.543   4.977   5.729  1.7480  0.9328 -1.1144
  999MOL0     H34815  11.493   5.044   5.886 -1.0441  0.9482 -0.1505
  999MOL0     H34816  11.708   4.813   5.864 -0.2114 -0.0567  0.7206
  999MOL0     H34817  11.996   4.754   5.869  0.5256 -0.0653  0.3793
  999MOL0     H34818  12.094   4.866   5.937  0.7242 -0.8507  1.3865
  999MOL0     H34819  11.881   4.754   6.110  0.3610 -1.2355 -0.4658
  999MOL0     H34820  12.030   4.819   6.168  1.0686 -1.9396  0.5423
  999MOL0     H34821  12.151   4.635   6.097 -0.8259  1.1685  0.5777
  999MOL0     H34822  12.000   4.551   6.036 -1.9720  1.8102 -1.9238
  999MOL0     H34823  11.890   4.552   6.243 -0.0061 -0.9236 -0.0696
  999MOL0     H34824  12.012   4.664   6.320 -4.3200  1.5950  0.6443
  999MOL0     H34825  12.184   4.273   6.362  0.1891  1.4185 -1.8414
  999MOL0     H34826  12.254   4.086   6.533 -3.0786 -0.4355 -2.2642
  999MOL0     H34827  12.288   4.174   6.687 -2.0655  0.9691  3.0972
  999MOL0     H34828  12.150   4.065   6.676 -0.5488  1.1205 -0.5006
  999MOL0     H34829  12.287   4.258   7.081  4.0522 -3.7805 -0.0260
  999MOL0     H34830  12.261   4.112   7.300 -0.7012  0.8793  1.8247
  999MOL0     H34831  11.879   3.952   7.400 -1.0216  0.3003 -0.3938
  999MOL0     H34832  11.930   3.796   7.312  2.4934 -0.8584  1.4784
  999MOL0     H34833  12.012   3.860   7.594  1.2233 -1.5037  0.1580
  999MOL0     H34834  11.847   3.822   7.567  1.7149  0.2548  1.6075
  999MOL0     H34835  12.078   3.644   7.457  0.5212 -2.1777  0.9978
  999MOL0     H34836  11.918   3.591   7.443  2.0949  0.7088 -2.9721
  999MOL0     H34837  12.061   3.490   7.642  0.0640 -1.3305  3.3661
  999MOL0     H34838  12.077   3.646   7.700 -1.5122 -0.8025  2.0628
  999MOL0     H34839  11.830   3.463   7.706  0.2234  0.2120 -0.2122
  999MOL0     H34840  11.797   3.630   7.678  0.9335 -1.9555 -2.6702
  999MOL0     H34841  11.950   3.513   7.904  1.2731  1.7351 -1.5878
  999MOL0     H34842  11.924   3.688   7.887 -0.4890  1.2060 -0.8947
  999MOL0     H34843  11.712   3.476   7.931 -1.3426  0.7779 -2.1105
  999MOL0     H34844  11.676   3.652   7.874  2.4664  1.8427 -1.1916
  999MOL0     H34845  11.789   3.729   8.079 -1.1961  0.1994 -0.5076
  999MOL0     H34846  11.806   3.570   8.137  1.3779  0.3270  0.5092
  999MOL0     H34847  11.907   3.933   7.118 -0.4078 -1.2546  2.0380
  999MOL0     H34848  11.945   4.048   6.924 -1.3925 -0.1266  1.1641
  999MOL0     H34849  11.907   4.478   6.713 -1.1496 -0.1238 -1.0759
  999MOL0     H34850  11.909   4.564   6.471  0.7927  1.2365  0.5199
  999MOL0     H34851  10.986   4.865   5.044 -0.4398  0.2299  1.4915
  999MOL0     H34852  10.864   4.780   4.860  0.4084  2.6128 -3.7963
  999MOL0     H34853  10.696   4.947   4.362 -0.7647 -2.8492 -2.0943
  999MOL0     H34854  10.565   4.892   4.207  0.2638  1.6904  0.4021
  999MOL0     H34855  10.271   4.717   4.036  1.1161 -2.1269 -0.7877
  999MOL0     H34856  10.417   4.814   4.063 -0.2322  0.6800 -1.2891
  999MOL0     H34857  10.532   4.642   4.193  0.4518  0.2705 -0.7316
  999MOL0     H34858  10.478   4.576   4.038 -0.7455 -1.7575 -0.7127
  999MOL0     H34859  10.257   4.487   4.163 -0.1993 -1.5604  1.4517
  999MOL0     H34860  10.335   4.545   4.303 -1.9066 -0.3563  0.0974
  999MOL0     H34861  10.380   4.330   4.317  0.7269  0.4936  1.2633
  999MOL0     H34862  10.534   4.388   4.261 -0.3753  2.0244  0.7944
  999MOL0     H34863  10.454   4.124   3.950 -0.9246 -2.2693  1.9278
  999MOL0     H34864  10.265   4.742   4.487 -0.0893  1.8601  2.0324
  999MOL0     H34865  10.419   4.776   4.660  1.6191  2.9921  0.0829
 1000MOL0     O34866   9.654   1.283   1.715 -0.5903  0.7210  0.4611
 1000MOL0     C34867   9.656   1.249   1.835 -0.5561  0.0923 -0.2299
 1000MOL0     O34868   9.649   1.128   1.887 -0.5429 -0.3018  0.4472
 1000MOL0     C34869   9.650   1.038   1.785 -1.0227  0.3696 -0.3894
 1000MOL0     C34870   9.747   0.939   1.779 -0.1122  0.0501 -0.8516
 1000MOL0     C34871   9.728   0.821   1.714  0.0168  0.3173  0.2471
 1000MOL0     C34872   9.625   0.796   1.617 -0.0239 -0.2700 -0.2579
 1000MOL0     O34873   9.636   0.676   1.545  0.5844  0.1409  0.3661
 1000MOL0     C34874   9.519   0.618   1.476  0.2131 -0.5608 -0.4850
 1000MOL0     C34875   9.465   0.493   1.555  0.0868 -0.9005 -0.4963
 1000MOL0     C34876   9.581   0.418   1.612  0.8227 -0.8862  0.2704
 1000MOL0     C34877   9.672   0.379   1.502  1.3079 -0.3948  0.1429
 1000MOL0     C34878   9.754   0.255   1.523  0.3507 -0.7272 -0.3535
 1000MOL0     C34879   9.798   0.215   1.661 -0.1892  0.6223 -0.3854
 1000MOL0     C34880   9.882   0.088   1.663  0.5038 -0.1989  0.2019
 1000MOL0     C34881   9.904   0.061   1.800  0.6822 -0.0900 -0.4540
 1000MOL0     N34882   9.985  -0.058   1.814 -0.3448  0.0968 -0.4088
 1000MOL0     C34883  10.115  -0.065   1.792  0.4036  0.8916  0.3977
 1000MOL0     C34884  10.153  -0.186   1.836  0.1193  0.6773 -0.3057
 1000MOL0     C34885  10.301  -0.233   1.855  0.5646 -1.0639 -1.2268
 1000MOL0     C34886  10.396  -0.203   1.738  0.3199  0.0068 -0.0295
 1000MOL0     C34887  10.544  -0.244   1.779 -0.5857 -0.1674 -0.0386
 1000MOL0     C34888  10.641  -0.252   1.659 -0.0231  0.2468  0.3268
 1000MOL0     O34889  10.671  -0.116   1.618  0.0509  0.4232  0.0006
 1000MOL0     C34890  10.647  -0.078   1.488  0.0781  0.0817 -0.0073
 1000MOL0     C34891  10.645   0.061   1.469 -0.4431 -0.5686  1.0661
 1000MOL0     C34892  10.623   0.119   1.346 -0.6238 -0.5091 -0.3109
 1000MOL0     C34893  10.608   0.271   1.333 -0.4987  0.1371  0.7672
 1000MOL0     C34894  10.587   0.038   1.240  0.2217  0.0492  0.2499
 1000MOL0     C34895  10.571   0.102   1.108  0.9737 -0.2031  0.1028
 1000MOL0     O34896  10.671   0.158   1.035 -0.5018 -0.1376  0.4224
 1000MOL0     C34897  10.637   0.232   0.922  0.3945  0.3525  0.6502
 1000MOL0     C34898  10.667   0.365   0.929 -0.1785  0.5432  0.8071
 1000MOL0     C34899  10.629   0.453   0.830 -0.4205 -1.2089  0.8995
 1000MOL0     C34900  10.574   0.407   0.707 -0.2691 -0.2476 -0.6078
 1000MOL0     O34901  10.540   0.493   0.601 -0.6567 -0.5985 -0.0492
 1000MOL0     C34902  10.579   0.633   0.604  0.0045 -0.0538 -0.5029
 1000MOL0     C34903  10.554   0.685   0.455 -0.0907  1.0576  0.2047
 1000MOL0     C34904  10.536   0.836   0.440  0.4927 -0.2191 -0.0059
 1000MOL0     C34905  10.517   0.873   0.300 -0.3263 -0.7562 -0.4656
 1000MOL0     C34906  10.490   1.026   0.290  0.4835  0.5179 -0.0544
 1000MOL0     C34907  10.514   1.084   0.158 -0.2266  0.1207 -0.7315
 1000MOL0     C34908  10.658   1.080   0.108  0.4391  0.0970  0.0993
 1000MOL0     C34909  10.670   1.156  -0.023  0.1921  0.4509 -0.5272
 1000MOL0    Cl34910  10.826   1.156  -0.107  0.2206  0.1219  0.1345
 1000MOL0     C34911  10.552   0.272   0.695  0.6315 -0.0430 -0.5191
 1000MOL0     C34912  10.590   0.186   0.798 -0.4998  0.3201 -0.2667
 1000MOL0     O34913  10.456   0.097   1.073  0.1515  0.4220  0.2617
 1000MOL0     C34914  10.589  -0.099   1.251 -0.8698  0.4739  0.3479
 1000MOL0     C34915  10.621  -0.162   1.373  0.1229  0.7646 -0.7052
 1000MOL0     N34916  10.040  -0.260   1.869 -0.0428 -0.2332  0.3357
 1000MOL0     N34917   9.947  -0.184   1.856 -0.4879  0.6205 -0.1528
 1000MOL0     C34918   9.522   0.893   1.621  0.2714 -0.3707  0.5794
 1000MOL0     C34919   9.535   1.009   1.703  1.0085  0.1801  0.0382
 1000MOL0     C34920   9.653   1.358   1.937 -0.5132 -0.6224 -0.7342
 1000MOL0     C34921   9.684   1.487   1.892 -0.2991  0.1020 -1.1905
 1000MOL0     C34922   9.686   1.593   1.980  0.0795 -0.4432  0.2631
 1000MOL0     C34923   9.666   1.575   2.119  0.5071  0.6046  0.2872
 1000MOL0     O34924   9.660   1.690   2.190  0.2991 -0.0560 -0.0001
 1000MOL0     C34925   9.612   1.688   2.317 -0.6116  0.3791 -0.7570
 1000MOL0     C34926   9.468   1.630   2.347 -0.2609 -0.2939  0.4180
 1000MOL0     C34927   9.450   1.613   2.498  0.2240  0.1647 -0.0509
 1000MOL0     C34928   9.382   1.722   2.582  0.2091  0.5914 -0.3705
 1000MOL0     C34929   9.468   1.834   2.593 -0.4236  0.6766 -0.0181
 1000MOL0     C34930   9.549   1.915   2.608  0.2863  0.7141 -0.0654
 1000MOL0     C34931   9.641   1.439   2.165  0.6800  0.2117  0.1522
 1000MOL0     C34932   9.631   1.336   2.072  0.7450 -0.4048 -0.2255
 1000MOL0     H34933   9.829   0.952   1.849 -1.7983 -0.3037  1.3027
 1000MOL0     H34934   9.813   0.758   1.738 -0.5433  0.2524  2.2516
 1000MOL0     H34935   9.443   0.696   1.467  1.4657  1.1960  2.7943
 1000MOL0     H34936   9.534   0.588   1.371  1.0338  1.8196 -1.1198
 1000MOL0     H34937   9.413   0.531   1.644 -1.7884  0.7717 -2.2166
 1000MOL0     H34938   9.389   0.437   1.501 -1.3453 -0.8317  1.3668
 1000MOL0     H34939   9.621   0.460   1.705 -3.7955 -0.4510  2.3933
 1000MOL0     H34940   9.533   0.325   1.643  1.0360 -1.3310 -0.7136
 1000MOL0     H34941   9.601   0.359   1.422  0.3304 -2.1095  1.3903
 1000MOL0     H34942   9.741   0.458   1.470 -0.9547  1.9281  0.6705
 1000MOL0     H34943   9.710   0.171   1.468 -1.9788  1.7345 -2.5704
 1000MOL0     H34944   9.852   0.274   1.478  0.7437  1.4525  1.2554
 1000MOL0     H34945   9.854   0.296   1.709 -0.4080 -0.6614  2.2065
 1000MOL0     H34946   9.708   0.195   1.720  0.5038 -0.0933  0.4516
 1000MOL0     H34947   9.831   0.004   1.617 -0.8622  1.8959 -2.4072
 1000MOL0     H34948   9.975   0.106   1.607 -1.4548  3.5269 -2.2835
 1000MOL0     H34949   9.809   0.056   1.854 -0.0813  3.1036 -1.2741
 1000MOL0     H34950   9.962   0.146   1.837 -1.6387  1.7592 -0.8270
 1000MOL0     H34951  10.185   0.010   1.756 -0.2879  0.7160 -1.4508
 1000MOL0     H34952  10.342  -0.183   1.944  0.8311 -3.3353 -0.0141
 1000MOL0     H34953  10.304  -0.340   1.877 -3.8211 -0.9418  1.0383
 1000MOL0     H34954  10.403  -0.094   1.731 -0.9023  0.0176 -1.5149
 1000MOL0     H34955  10.355  -0.243   1.646  0.1707 -1.2951  0.5834
 1000MOL0     H34956  10.537  -0.341   1.830 -2.3366  1.3639  2.9458
 1000MOL0     H34957  10.567  -0.175   1.860  0.7457 -1.6225  0.8930
 1000MOL0     H34958  10.605  -0.319   1.581  1.2169  0.3224 -0.3287
 1000MOL0     H34959  10.735  -0.287   1.703  0.2667  2.3893  1.5344
 1000MOL0     H34960  10.659   0.136   1.546 -0.8787  3.7118 -2.5977
 1000MOL0     H34961  10.689   0.318   1.389 -0.7233  2.2368 -0.5682
 1000MOL0     H34962  10.606   0.312   1.232 -0.9383  0.3117  0.8449
 1000MOL0     H34963  10.512   0.295   1.379 -1.0826  0.9109 -0.7843
 1000MOL0     H34964  10.731   0.403   1.008 -0.3098  3.4506 -0.3628
 1000MOL0     H34965  10.639   0.561   0.838 -0.7930 -1.1285  0.3065
 1000MOL0     H34966  10.517   0.696   0.670  0.3974  0.8104 -0.9447
 1000MOL0     H34967  10.687   0.644   0.615  0.2532  0.8119 -3.1856
 1000MOL0     H34968  10.643   0.652   0.400  0.5095  0.3825  1.5316
 1000MOL0     H34969  10.464   0.643   0.410 -0.2210  1.5775 -0.0237
 1000MOL0     H34970  10.629   0.882   0.476  2.0514 -0.5089 -3.3424
 1000MOL0     H34971  10.443   0.874   0.483 -1.4279 -3.0879 -1.3397
 1000MOL0     H34972  10.607   0.852   0.240 -0.1431 -4.3949  0.8691
 1000MOL0     H34973  10.439   0.813   0.254  1.3891 -2.8719 -0.7772
 1000MOL0     H34974  10.549   1.075   0.368 -2.1150 -0.4782  2.7431
 1000MOL0     H34975  10.383   1.030   0.312  0.0844  0.2696 -1.8239
 1000MOL0     H34976  10.447   1.048   0.079  0.1734 -0.3573 -0.8591
 1000MOL0     H34977  10.494   1.190   0.170  1.0976  0.1889  1.2235
 1000MOL0     H34978  10.683   0.975   0.091  0.5255  0.0617  0.4395
 1000MOL0     H34979  10.721   1.126   0.184  0.9674  0.1616 -0.3677
 1000MOL0     H34980  10.640   1.260  -0.006 -1.4007 -0.0046 -0.3181
 1000MOL0     H34981  10.615   1.107  -0.105  1.9415 -3.7667  0.5176
 1000MOL0     H34982  10.504   0.235   0.605 -1.8729 -0.7972  1.0454
 1000MOL0     H34983  10.576   0.081   0.771 -0.9377  1.0620 -3.2312
 1000MOL0     H34984  10.570  -0.159   1.163 -0.5038  2.8853 -1.4767
 1000MOL0     H34985  10.619  -0.269   1.389  0.9119  0.4931 -2.1482
 1000MOL0     H34986   9.432   0.883   1.562 -0.1922  4.2473  0.1662
 1000MOL0     H34987   9.451   1.076   1.710  2.0906  1.6801 -0.6348
 1000MOL0     H34988   9.686   1.510   1.786  1.8751 -2.7670 -1.9094
 1000MOL0     H34989   9.692   1.699   1.959  1.8189 -0.3319  1.1140
 1000MOL0     H34990   9.697   1.636   2.362 -0.0360  0.4231 -1.7654
 1000MOL0     H34991   9.610   1.783   2.370 -2.3305 -0.1493  0.2124
 1000MOL0     H34992   9.453   1.534   2.295 -0.8685 -0.1647  0.3474
 1000MOL0     H34993   9.385   1.693   2.313 -1.3701 -0.0997  3.2657
 1000MOL0     H34994   9.545   1.586   2.544  0.1779  1.1783  0.6784
 1000MOL0     H34995   9.392   1.520   2.500 -0.0192  0.3329  1.1857
 1000MOL0     H34996   9.358   1.679   2.680 -0.6411  1.5747 -0.1267
 1000MOL0     H34997   9.286   1.748   2.535  0.9987  4.0921 -0.3258
 1000MOL0     H34998   9.617   1.997   2.624 -2.5647  2.7899  2.7109
 1000MOL0     H34999   9.621   1.417   2.269 -1.7512  1.3495  0.0003
 1000MOL0     H35000   9.627   1.234   2.110  0.9478 -0.4635 -0.3633
 1001MOL0     O35001   3.172   9.488   4.267 -0.7413  0.1227 -0.2927
 1001MOL0     C35002   3.079   9.561   4.251  0.7755  0.3460 -0.1246
 1001MOL0     O35003   2.994   9.568   4.143  0.1245  0.0187 -0.1547
 1001MOL0     C35004   3.016   9.480   4.040 -0.4277  0.1796 -0.1888
 1001MOL0     C35005   2.896   9.425   3.989 -0.3154  0.2114  0.2315
 1001MOL0     C35006   2.903   9.338   3.880 -0.1450  0.2739  0.7067
 1001MOL0     C35007   3.026   9.301   3.821  0.0908 -0.5913 -0.8209
 1001MOL0     O35008   3.024   9.215   3.709  0.1113  0.3938  0.0348
 1001MOL0     C35009   3.144   9.207   3.629 -0.0154 -0.0969 -0.3727
 1001MOL0     C35010   3.110   9.199   3.481 -0.7984 -0.6927 -0.4277
 1001MOL0     C35011   3.215   9.120   3.406  0.5505 -0.7728 -0.2217
 1001MOL0     C35012   3.182   9.128   3.259 -0.6734 -0.3169  0.1609
 1001MOL0     C35013   3.283   9.030   3.191 -0.1146 -1.2038 -0.1228
 1001MOL0     C35014   3.327   9.107   3.063 -0.2156  0.3540  0.4297
 1001MOL0     C35015   3.413   9.009   2.981 -0.1937  0.8260  0.3036
 1001MOL0     C35016   3.547   9.056   2.921  0.1708 -0.1433  0.1054
 1001MOL0     N35017   3.632   8.945   2.883 -0.1364 -0.2173  1.0522
 1001MOL0     C35018   3.605   8.848   2.789  0.7870  0.2035  0.3197
 1001MOL0     C35019   3.690   8.752   2.810  1.1418 -0.1726 -0.5221
 1001MOL0     C35020   3.704   8.623   2.736 -0.6101 -0.2160 -0.0537
 1001MOL0     C35021   3.688   8.633   2.584  0.5838 -1.0642 -1.0126
 1001MOL0     C35022   3.785   8.533   2.517 -0.2792  0.1263 -0.8829
 1001MOL0     C35023   3.740   8.505   2.375 -0.0487 -0.5338 -0.2380
 1001MOL0     O35024   3.737   8.619   2.289 -0.5492  0.4603  0.5761
 1001MOL0     C35025   3.698   8.599   2.160  0.3126 -0.1352 -0.3366
 1001MOL0     C35026   3.568   8.633   2.126 -1.4313 -1.0124 -0.6939
 1001MOL0     C35027   3.523   8.604   1.996  0.4210  0.2059 -1.0467
 1001MOL0     C35028   3.381   8.636   1.952 -0.6088 -0.8625 -0.4704
 1001MOL0     C35029   3.619   8.547   1.910 -0.3392 -0.1995 -0.3901
 1001MOL0     C35030   3.588   8.508   1.772 -0.3304 -0.3211  0.6887
 1001MOL0     O35031   3.458   8.448   1.746 -0.4895 -0.3006  0.2012
 1001MOL0     C35032   3.421   8.436   1.611  0.0305  0.7889  0.2137
 1001MOL0     C35033   3.306   8.509   1.568 -0.0017 -0.3314  1.0222
 1001MOL0     C35034   3.242   8.466   1.449 -1.0131  0.6592 -0.8196
 1001MOL0     C35035   3.283   8.350   1.386  0.1779 -0.7530  0.7711
 1001MOL0     O35036   3.210   8.287   1.288 -0.6960 -0.4102  0.2528
 1001MOL0     C35037   3.105   8.358   1.218 -1.3108 -0.5045 -0.0569
 1001MOL0     C35038   2.974   8.351   1.305 -0.0612 -0.1368  0.3273
 1001MOL0     C35039   2.869   8.419   1.221  0.1538  0.4706 -0.5238
 1001MOL0     C35040   2.823   8.353   1.085  0.1486  0.6597  0.6053
 1001MOL0     C35041   2.731   8.457   1.010 -0.0832 -0.0061  0.4949
 1001MOL0     C35042   2.689   8.429   0.866 -0.0670 -0.0266  0.8954
 1001MOL0     C35043   2.812   8.413   0.772  0.5172  0.5106  1.1000
 1001MOL0     C35044   2.777   8.352   0.633 -0.7505  0.0415 -0.0168
 1001MOL0    Cl35045   2.927   8.365   0.526 -0.1816  0.1973 -0.3464
 1001MOL0     C35046   3.411   8.292   1.422 -0.0456 -1.3816 -0.6420
 1001MOL0     C35047   3.472   8.328   1.538 -0.2726  0.5418 -0.3838
 1001MOL0     O35048   3.680   8.521   1.686 -0.2241  0.3481  0.2321
 1001MOL0     C35049   3.746   8.512   1.960  0.5888  1.6853 -0.1203
 1001MOL0     C35050   3.784   8.531   2.084 -0.5318  0.6651 -0.1248
 1001MOL0     N35051   3.771   8.791   2.914 -0.4359  0.8023 -0.6092
 1001MOL0     N35052   3.736   8.909   2.966 -0.2985 -0.4412  0.6144
 1001MOL0     C35053   3.142   9.357   3.879 -0.0307  0.5990  0.3054
 1001MOL0     C35054   3.142   9.450   3.979  0.2641 -0.7846 -0.7469
 1001MOL0     C35055   3.048   9.658   4.361 -0.3285  0.7521 -0.7607
 1001MOL0     C35056   2.980   9.781   4.333 -0.6444  1.2231  0.9397
 1001MOL0     C35057   2.970   9.860   4.446 -0.0117 -0.0003  0.1580
 1001MOL0     C35058   2.999   9.832   4.577 -0.2888  0.3205 -0.2971
 1001MOL0     O35059   2.963   9.921   4.680 -0.4903 -0.1825  0.2842
 1001MOL0     C35060   2.984   9.898   4.815  0.2068 -0.2850 -0.0208
 1001MOL0     C35061   3.111   9.964   4.882 -0.4606  0.0147 -0.9196
 1001MOL0     C35062   3.109  10.118   4.877  0.1504 -0.1772  0.1453
 1001MOL0     C35063   3.218  10.194   4.956  0.1911 -0.0033 -0.0932
 1001MOL0     C35064   3.170  10.316   5.026  0.1153 -0.1044  0.5855
 1001MOL0     C35065   3.136  10.412   5.086 -0.4880  0.3071 -0.5692
 1001MOL0     C35066   3.064   9.705   4.600  0.5089  0.2325  0.1174
 1001MOL0     C35067   3.082   9.623   4.497  0.5197 -0.1425 -0.1657
 1001MOL0     H35068   2.797   9.457   4.021 -0.7251 -0.9363  0.1886
 1001MOL0     H35069   2.811   9.301   3.835  2.2933 -0.0659 -4.7718
 1001MOL0     H35070   3.213   9.291   3.638 -0.6008  0.3531 -0.0577
 1001MOL0     H35071   3.190   9.114   3.665  0.8743  0.5292  0.1527
 1001MOL0     H35072   3.013   9.153   3.461 -0.8473 -0.0713 -1.7368
 1001MOL0     H35073   3.121   9.303   3.446 -3.5368  0.6398  2.1941
 1001MOL0     H35074   3.318   9.149   3.427  0.3400 -0.8864  1.0814
 1001MOL0     H35075   3.207   9.016   3.439 -0.3549 -0.6424  0.0021
 1001MOL0     H35076   3.081   9.101   3.226  0.0675 -1.3495 -1.4144
 1001MOL0     H35077   3.202   9.232   3.233 -2.4357  0.7294  2.5708
 1001MOL0     H35078   3.365   9.012   3.261 -0.1223  1.9203  0.8212
 1001MOL0     H35079   3.231   8.937   3.165 -3.0707  0.5387 -0.8705
 1001MOL0     H35080   3.233   9.121   3.008 -0.6812  1.1891  1.4242
 1001MOL0     H35081   3.378   9.200   3.087  1.4871 -0.1981 -0.7825
 1001MOL0     H35082   3.436   8.924   3.047  2.5333  2.8671  2.2001
 1001MOL0     H35083   3.347   8.970   2.902  1.0443  0.1064 -0.4096
 1001MOL0     H35084   3.603   9.120   2.989  0.7238  1.3014 -1.6349
 1001MOL0     H35085   3.516   9.114   2.833  2.4460  1.1326  0.0690
 1001MOL0     H35086   3.517   8.850   2.725  1.8115  3.5678 -1.1906
 1001MOL0     H35087   3.809   8.598   2.752 -0.2854  1.1698  0.1254
 1001MOL0     H35088   3.640   8.540   2.768 -2.9646  0.9640 -1.4336
 1001MOL0     H35089   3.709   8.734   2.548  0.5437 -1.4310 -2.1157
 1001MOL0     H35090   3.587   8.617   2.544 -0.0552 -2.4610  0.9935
 1001MOL0     H35091   3.777   8.434   2.564 -3.6104  0.4018 -0.5938
 1001MOL0     H35092   3.885   8.577   2.512  0.2480 -1.1183 -4.4499
 1001MOL0     H35093   3.645   8.451   2.380 -1.0368  1.2313  1.1551
 1001MOL0     H35094   3.814   8.433   2.339 -1.0663 -0.8341 -1.8198
 1001MOL0     H35095   3.510   8.684   2.202  0.9922 -0.2685  0.7653
 1001MOL0     H35096   3.311   8.554   1.971 -1.0228 -0.0305  2.0449
 1001MOL0     H35097   3.346   8.721   2.012  1.2019 -1.5639  1.7123
 1001MOL0     H35098   3.367   8.656   1.845 -0.0164 -0.9760 -0.5699
 1001MOL0     H35099   3.260   8.589   1.627 -0.8979 -1.8917  2.5172
 1001MOL0     H35100   3.156   8.526   1.422 -1.2331  0.0373 -1.5509
 1001MOL0     H35101   3.139   8.459   1.195 -1.4156 -0.1227  1.3849
 1001MOL0     H35102   3.087   8.303   1.125 -1.1148 -1.4753  0.4566
 1001MOL0     H35103   2.938   8.249   1.317 -0.4688 -0.0711 -0.2836
 1001MOL0     H35104   2.996   8.395   1.403  0.2018  3.7485 -1.2615
 1001MOL0     H35105   2.900   8.521   1.196 -0.0364  0.5236 -0.5424
 1001MOL0     H35106   2.777   8.420   1.279  0.9799 -0.4603  0.8448
 1001MOL0     H35107   2.900   8.314   1.018  0.6130 -0.6572  1.8458
 1001MOL0     H35108   2.767   8.265   1.119 -1.6023  1.1420 -0.8949
 1001MOL0     H35109   2.774   8.557   1.016  2.0152 -0.9097  1.5346
 1001MOL0     H35110   2.642   8.463   1.074  0.1048 -1.1692  0.8944
 1001MOL0     H35111   2.622   8.343   0.853  0.7760 -0.5424 -0.1647
 1001MOL0     H35112   2.634   8.516   0.830 -1.8957 -1.7826 -0.8497
 1001MOL0     H35113   2.893   8.357   0.820  1.8624  2.7981  1.6041
 1001MOL0     H35114   2.851   8.514   0.759 -1.7245  1.2351 -0.7353
 1001MOL0     H35115   2.699   8.409   0.581 -0.4238 -0.9829 -1.7059
 1001MOL0     H35116   2.759   8.244   0.638  2.1731 -0.4858  1.0213
 1001MOL0     H35117   3.451   8.212   1.360 -0.4155 -0.3758 -2.2238
 1001MOL0     H35118   3.568   8.293   1.574  2.2163  3.6528 -3.3076
 1001MOL0     H35119   3.822   8.461   1.901  0.8596  1.6902  0.2157
 1001MOL0     H35120   3.888   8.509   2.105 -0.2940 -0.0667 -1.8772
 1001MOL0     H35121   3.240   9.332   3.840 -0.0373 -0.2014  0.7662
 1001MOL0     H35122   3.231   9.506   4.004 -1.7969  2.7102 -0.5385
 1001MOL0     H35123   2.951   9.814   4.234  0.2618  0.6993  0.4918
 1001MOL0     H35124   2.924   9.958   4.431  0.4872 -0.1598 -3.6321
 1001MOL0     H35125   2.896   9.949   4.857  0.2241  1.3648 -1.8704
 1001MOL0     H35126   2.977   9.790   4.829 -1.2441 -0.6127 -2.6376
 1001MOL0     H35127   3.191   9.930   4.816  1.2433 -0.4079  1.2640
 1001MOL0     H35128   3.124   9.929   4.985 -0.8593 -2.2695 -1.5991
 1001MOL0     H35129   3.015  10.149   4.923  1.4423  0.0390  2.8422
 1001MOL0     H35130   3.128  10.151   4.774  0.8930  1.6091  0.8018
 1001MOL0     H35131   3.303  10.224   4.894  1.2588 -0.4514  1.1106
 1001MOL0     H35132   3.253  10.118   5.027 -1.3432 -2.1470 -1.5191
 1001MOL0     H35133   3.101  10.493   5.146 -0.8292 -0.6638  0.5993
 1001MOL0     H35134   3.092   9.675   4.700 -1.6989  0.6995  0.9472
 1001MOL0     H35135   3.145   9.537   4.519  2.2029  0.5355 -2.0434
 1002MOL0     O35136   5.152   2.155   4.083  0.8305 -0.2327  0.0430
 1002MOL0     C35137   5.189   2.056   4.151  0.1675 -0.3696 -0.0522
 1002MOL0     O35138   5.125   1.932   4.158  0.3756  0.4324  0.2142
 1002MOL0     C35139   5.010   1.901   4.091 -0.1868  0.3113 -0.0611
 1002MOL0     C35140   4.900   1.992   4.084 -0.9351  0.9747  1.3771
 1002MOL0     C35141   4.780   1.946   4.038 -0.8005  0.1570  0.8860
 1002MOL0     C35142   4.755   1.816   3.996 -0.1348  0.3338  0.6811
 1002MOL0     O35143   4.629   1.779   3.959 -0.0836 -0.2407  0.4505
 1002MOL0     C35144   4.611   1.632   3.957  0.0891 -0.1916 -0.3353
 1002MOL0     C35145   4.459   1.619   3.923 -0.8505  0.0983 -0.2882
 1002MOL0     C35146   4.406   1.480   3.956 -0.2645 -0.3450  0.8222
 1002MOL0     C35147   4.396   1.444   4.104  0.3290  0.1815  0.5923
 1002MOL0     C35148   4.391   1.292   4.112  0.6920 -0.1261  0.7609
 1002MOL0     C35149   4.364   1.255   4.255  0.8942 -0.5268  0.3708
 1002MOL0     C35150   4.340   1.107   4.265 -0.0708 -0.8787  0.0080
 1002MOL0     C35151   4.197   1.061   4.211 -0.3670 -0.6990 -0.6350
 1002MOL0     N35152   4.107   1.084   4.316  0.1283 -0.7906 -0.4913
 1002MOL0     C35153   4.051   1.212   4.344 -0.3941  0.1063  0.7585
 1002MOL0     C35154   3.984   1.187   4.456 -0.0774  0.1526 -0.5450
 1002MOL0     C35155   3.879   1.287   4.504 -0.9586 -0.2023 -0.6591
 1002MOL0     C35156   3.742   1.266   4.442 -0.0688  0.1087 -0.1911
 1002MOL0     C35157   3.680   1.145   4.517  1.0197 -0.1380 -0.8440
 1002MOL0     C35158   3.538   1.119   4.471  0.6302 -0.4668 -0.1231
 1002MOL0     O35159   3.538   1.041   4.354 -0.1814  0.5534 -0.0428
 1002MOL0     C35160   3.427   0.972   4.315  0.9434  0.5593  0.4156
 1002MOL0     C35161   3.304   0.983   4.377 -0.5159  0.5542 -0.7208
 1002MOL0     C35162   3.201   0.888   4.341  1.3280 -0.7664 -0.4657
 1002MOL0     C35163   3.077   0.909   4.424  0.5754 -0.3649  0.2780
 1002MOL0     C35164   3.208   0.802   4.235  0.2066 -0.1220 -0.2326
 1002MOL0     C35165   3.102   0.705   4.197  1.2821 -0.6355  0.4998
 1002MOL0     O35166   3.133   0.611   4.101 -0.5897 -0.5043  0.0229
 1002MOL0     C35167   3.034   0.558   4.026  0.6331 -0.0352 -0.9604
 1002MOL0     C35168   2.941   0.456   4.060  0.0394 -0.3892 -0.8513
 1002MOL0     C35169   2.849   0.404   3.970  0.1540  0.3880 -1.0298
 1002MOL0     C35170   2.848   0.451   3.836  0.3781  1.2240  0.6174
 1002MOL0     O35171   2.747   0.403   3.755 -0.4896  0.0690  0.4926
 1002MOL0     C35172   2.783   0.398   3.616  1.3088  0.6141  0.5496
 1002MOL0     C35173   2.726   0.270   3.540 -0.4902  0.6718 -0.3416
 1002MOL0     C35174   2.729   0.303   3.390 -0.0668  0.1198  0.2464
 1002MOL0     C35175   2.866   0.301   3.336  0.2565  0.4246 -0.5238
 1002MOL0     C35176   2.872   0.267   3.188 -0.0624 -0.0085 -0.3046
 1002MOL0     C35177   2.883   0.110   3.155  0.8789 -0.2628  0.9817
 1002MOL0     C35178   2.908   0.092   3.004  0.4097  0.1718 -0.1599
 1002MOL0     C35179   2.899  -0.058   2.981 -0.0475 -0.5784  0.7923
 1002MOL0    Cl35180   2.937  -0.088   2.807 -0.3266  0.9315 -0.0686
 1002MOL0     C35181   2.933   0.550   3.807 -0.7097 -0.3239  1.1876
 1002MOL0     C35182   3.023   0.599   3.897 -0.3469 -0.0516  0.2985
 1002MOL0     O35183   2.982   0.718   4.241 -0.2733 -0.3158 -0.4299
 1002MOL0     C35184   3.329   0.803   4.168 -0.0897 -0.4390 -0.2488
 1002MOL0     C35185   3.436   0.878   4.208 -0.0763 -0.7797 -1.3185
 1002MOL0     N35186   4.005   1.053   4.508  0.0664  0.2040  0.9446
 1002MOL0     N35187   4.075   0.997   4.416  0.4935 -0.1935 -0.6093
 1002MOL0     C35188   4.865   1.731   3.993 -0.6856  0.1865  0.0085
 1002MOL0     C35189   4.982   1.768   4.061 -0.5422  0.4705  0.0174
 1002MOL0     C35190   5.314   2.066   4.227  0.5852 -0.2328  0.3469
 1002MOL0     C35191   5.395   1.963   4.263 -0.1028  0.2028  0.2844
 1002MOL0     C35192   5.520   1.976   4.322 -0.2445 -0.0424  0.6659
 1002MOL0     C35193   5.569   2.103   4.354  0.1437  0.9916 -0.2270
 1002MOL0     O35194   5.691   2.112   4.410  0.2389 -0.1575  0.5864
 1002MOL0     C35195   5.785   2.198   4.345  0.0901 -0.3215  0.4332
 1002MOL0     C35196   5.905   2.129   4.273  0.3087  0.1925 -0.8997
 1002MOL0     C35197   5.989   2.046   4.358 -0.0455 -0.5156  0.1916
 1002MOL0     C35198   6.127   2.008   4.301 -0.3762  0.0312 -0.0771
 1002MOL0     C35199   6.133   1.945   4.172 -0.3784 -0.7676 -0.3121
 1002MOL0     C35200   6.141   1.906   4.058  0.2797  0.0223 -0.0659
 1002MOL0     C35201   5.485   2.214   4.320 -0.5537  1.0884 -0.5315
 1002MOL0     C35202   5.362   2.195   4.260  0.2173 -0.2648  0.2271
 1002MOL0     H35203   4.910   2.094   4.120  1.0461  1.0048  0.8820
 1002MOL0     H35204   4.694   2.012   4.041 -1.8245 -0.9945 -1.0641
 1002MOL0     H35205   4.672   1.582   3.882  1.8601  0.6398  0.4785
 1002MOL0     H35206   4.628   1.603   4.062  0.0052  0.3849 -0.1582
 1002MOL0     H35207   4.393   1.685   3.981 -0.3588 -0.2227  0.6533
 1002MOL0     H35208   4.437   1.643   3.819 -1.1841 -1.5619 -0.6263
 1002MOL0     H35209   4.312   1.465   3.904 -1.7563  2.1065  2.5559
 1002MOL0     H35210   4.485   1.420   3.910  1.0149  0.8638  1.3483
 1002MOL0     H35211   4.473   1.475   4.175  1.4701  0.5197 -0.7341
 1002MOL0     H35212   4.299   1.485   4.130 -0.6744 -0.8726 -1.2463
 1002MOL0     H35213   4.305   1.267   4.048 -0.3461  1.5400  1.4400
 1002MOL0     H35214   4.485   1.246   4.078  1.2050 -1.9488  4.1838
 1002MOL0     H35215   4.460   1.273   4.305 -0.2165  0.4234  2.2489
 1002MOL0     H35216   4.291   1.309   4.315  0.4209 -0.7975  0.0453
 1002MOL0     H35217   4.422   1.062   4.207  2.3816  0.0722  2.5272
 1002MOL0     H35218   4.355   1.075   4.368 -0.0329  1.0751  0.6292
 1002MOL0     H35219   4.201   0.959   4.169 -1.3808 -0.4150 -1.4578
 1002MOL0     H35220   4.181   1.115   4.117  0.3881 -2.7849 -2.0367
 1002MOL0     H35221   4.060   1.306   4.292 -1.5131  0.3813  1.0311
 1002MOL0     H35222   3.891   1.300   4.611  0.7843 -0.4161 -0.8035
 1002MOL0     H35223   3.909   1.381   4.457 -1.1321 -0.7101 -1.8201
 1002MOL0     H35224   3.743   1.235   4.337  0.3132 -2.7297  0.5501
 1002MOL0     H35225   3.681   1.356   4.454  1.5115  1.7178 -3.0863
 1002MOL0     H35226   3.665   1.161   4.624 -1.7495  2.3444 -1.4736
 1002MOL0     H35227   3.743   1.056   4.512  2.9331  1.0423  0.6474
 1002MOL0     H35228   3.482   1.213   4.464  0.4160 -0.6297 -0.6535
 1002MOL0     H35229   3.495   1.059   4.552 -0.4810  1.8702  1.1449
 1002MOL0     H35230   3.282   1.060   4.450 -0.1926  1.8029 -1.8811
 1002MOL0     H35231   3.104   0.979   4.504  1.2168 -0.5779  0.2570
 1002MOL0     H35232   2.995   0.939   4.358  1.1284  0.9107  0.1290
 1002MOL0     H35233   3.043   0.813   4.462  2.2546 -2.3741 -2.8009
 1002MOL0     H35234   2.953   0.404   4.155  1.7949  1.5324  0.0820
 1002MOL0     H35235   2.771   0.335   3.999  1.0064 -1.1198 -2.1853
 1002MOL0     H35236   2.738   0.493   3.585 -2.7191 -1.4298 -0.6536
 1002MOL0     H35237   2.891   0.406   3.602  1.7565 -4.9958 -2.0481
 1002MOL0     H35238   2.782   0.181   3.572 -2.0730  0.3255  1.6406
 1002MOL0     H35239   2.625   0.249   3.574 -0.2767  0.0023 -0.1010
 1002MOL0     H35240   2.693   0.402   3.364  1.7189  0.9627  0.8322
 1002MOL0     H35241   2.660   0.232   3.343  2.0856 -2.7307  1.0549
 1002MOL0     H35242   2.918   0.393   3.363 -0.2732  0.3385  0.8677
 1002MOL0     H35243   2.924   0.231   3.396 -0.1944  0.8301  0.4151
 1002MOL0     H35244   2.967   0.311   3.159  2.5253 -3.3615  2.2184
 1002MOL0     H35245   2.799   0.326   3.133 -0.0913  3.5944  3.1434
 1002MOL0     H35246   2.958   0.057   3.214  1.6378 -1.2814 -0.8136
 1002MOL0     H35247   2.784   0.068   3.175  0.4491 -1.8240 -3.4442
 1002MOL0     H35248   3.002   0.132   2.965 -1.4377  0.6372 -4.7968
 1002MOL0     H35249   2.823   0.141   2.956 -1.2204 -1.7792  0.5871
 1002MOL0     H35250   2.797  -0.088   3.006 -0.0551  0.3451  1.9759
 1002MOL0     H35251   2.980  -0.106   3.038  2.3041  0.7261 -1.2534
 1002MOL0     H35252   2.950   0.603   3.713 -1.6285  0.0490  1.2285
 1002MOL0     H35253   3.098   0.675   3.878  0.3938 -0.0971  2.7070
 1002MOL0     H35254   3.341   0.738   4.081  0.4964 -0.9578  0.2043
 1002MOL0     H35255   3.535   0.853   4.172  1.5679  0.7094  1.6906
 1002MOL0     H35256   4.866   1.631   3.952  1.6481  0.1443  0.0785
 1002MOL0     H35257   5.059   1.692   4.069 -0.3435  0.4029 -2.0427
 1002MOL0     H35258   5.355   1.864   4.241 -0.0652  0.3423 -0.4426
 1002MOL0     H35259   5.582   1.890   4.344 -0.4558 -0.6609 -1.0639
 1002MOL0     H35260   5.738   2.256   4.265  1.3894  0.9504  0.5321
 1002MOL0     H35261   5.814   2.256   4.433 -4.9877 -0.4511  2.5399
 1002MOL0     H35262   5.968   2.205   4.224 -0.2387  0.3729 -1.3357
 1002MOL0     H35263   5.861   2.061   4.200 -2.0509 -1.0946  1.5842
 1002MOL0     H35264   5.942   1.952   4.389 -0.8199 -0.1564  0.1231
 1002MOL0     H35265   6.007   2.094   4.454 -0.5087 -1.7072  0.8992
 1002MOL0     H35266   6.172   1.938   4.372  1.1641  1.5520  0.5127
 1002MOL0     H35267   6.199   2.089   4.307 -0.3050 -0.1589  2.7810
 1002MOL0     H35268   6.133   1.860   3.961  2.3175 -1.8861  0.5698
 1002MOL0     H35269   5.525   2.312   4.343  0.7111  0.4214  0.2940
 1002MOL0     H35270   5.302   2.277   4.223  1.8064  0.3680 -1.0472
 1003MOL0     O35271   5.105   3.344   7.984  0.1340  0.2669 -0.3036
 1003MOL0     C35272   5.125   3.224   7.947  0.4488  0.4688 -0.3745
 1003MOL0     O35273   5.036   3.135   7.897 -0.2776  0.0832 -0.1826
 1003MOL0     C35274   4.906   3.162   7.861  0.3192 -0.0972  0.3191
 1003MOL0     C35275   4.829   3.270   7.900  0.2803 -0.0366  0.4877
 1003MOL0     C35276   4.700   3.293   7.863  0.3500  0.9614 -0.1130
 1003MOL0     C35277   4.636   3.193   7.786  0.5357  0.1629  0.5853
 1003MOL0     O35278   4.509   3.210   7.747  0.2505  0.0664 -0.3713
 1003MOL0     C35279   4.406   3.247   7.832  0.6712 -0.6940 -0.0771
 1003MOL0     C35280   4.267   3.277   7.763  0.0496  0.3918 -0.4655
 1003MOL0     C35281   4.211   3.153   7.693 -0.3403 -0.2452 -0.2865
 1003MOL0     C35282   4.114   3.198   7.588  0.2922 -0.0327 -0.7082
 1003MOL0     C35283   3.970   3.214   7.644  0.6456  1.3708 -0.3030
 1003MOL0     C35284   3.868   3.272   7.534 -0.3551  0.5357 -0.2735
 1003MOL0     C35285   3.868   3.427   7.557  0.7037  1.1507  0.9352
 1003MOL0     C35286   3.783   3.499   7.448 -0.6276  0.1598  0.4655
 1003MOL0     N35287   3.859   3.497   7.309 -1.0375 -1.0060 -0.2142
 1003MOL0     C35288   3.998   3.508   7.295  0.1536  0.0433 -0.6005
 1003MOL0     C35289   4.021   3.502   7.162 -0.3638  0.4479  0.3034
 1003MOL0     C35290   4.152   3.474   7.084  0.5438 -0.1654 -0.2098
 1003MOL0     C35291   4.179   3.569   6.977 -0.1871 -1.3783 -0.3227
 1003MOL0     C35292   4.303   3.543   6.898 -0.6622 -0.5252  0.4771
 1003MOL0     C35293   4.426   3.600   6.960 -0.0048 -0.1368 -0.1820
 1003MOL0     O35294   4.541   3.524   6.928 -0.6508  0.1524 -0.3920
 1003MOL0     C35295   4.662   3.589   6.958  0.6918 -0.3036 -0.9431
 1003MOL0     C35296   4.773   3.542   6.888 -0.1333  0.2061  0.4496
 1003MOL0     C35297   4.901   3.611   6.901  0.6570  0.1649  0.4670
 1003MOL0     C35298   5.014   3.560   6.817  0.9533  0.7360 -0.1684
 1003MOL0     C35299   4.914   3.726   6.990 -0.4594  0.9494 -0.1555
 1003MOL0     C35300   5.037   3.794   7.024 -0.5690  0.3300 -0.5226
 1003MOL0     O35301   5.112   3.823   6.914 -1.2139  0.4929 -0.2610
 1003MOL0     C35302   5.234   3.891   6.927 -0.4240  0.6738 -0.2578
 1003MOL0     C35303   5.239   4.019   6.897 -0.1117 -0.6683 -0.1242
 1003MOL0     C35304   5.350   4.092   6.926 -0.3027 -0.5405 -0.8017
 1003MOL0     C35305   5.459   4.036   7.001 -0.2049  0.6124  1.2573
 1003MOL0     O35306   5.560   4.116   7.039 -0.1185 -0.8599 -0.0352
 1003MOL0     C35307   5.574   4.127   7.182 -0.6627  0.2719  0.1616
 1003MOL0     C35308   5.513   4.259   7.245  1.1465  0.0658  0.3156
 1003MOL0     C35309   5.585   4.386   7.197  0.9375 -0.7882  0.3873
 1003MOL0     C35310   5.565   4.424   7.049 -0.1327  0.5948 -0.7097
 1003MOL0     C35311   5.585   4.575   7.026 -0.5409  0.3177 -0.4880
 1003MOL0     C35312   5.546   4.616   6.880  0.0342 -0.3707 -0.3945
 1003MOL0     C35313   5.640   4.553   6.779  0.0455  0.3700  0.2061
 1003MOL0     C35314   5.642   4.630   6.647  1.1943  1.0948  0.6957
 1003MOL0    Cl35315   5.473   4.662   6.580  0.0651  0.0077 -0.3278
 1003MOL0     C35316   5.443   3.904   7.040 -0.6777 -0.1276  0.2087
 1003MOL0     C35317   5.334   3.832   6.999  0.1023  0.0594 -0.1053
 1003MOL0     O35318   5.060   3.846   7.135 -0.4544 -0.4294 -0.2454
 1003MOL0     C35319   4.805   3.762   7.062  0.1342  0.9582  0.1258
 1003MOL0     C35320   4.676   3.700   7.050  0.5479  0.2872 -0.3221
 1003MOL0     N35321   3.903   3.486   7.099 -0.0497  0.1161  0.1421
 1003MOL0     N35322   3.807   3.476   7.187  0.8981 -0.9724 -0.1031
 1003MOL0     C35323   4.703   3.087   7.732 -0.3335  0.9563  0.2411
 1003MOL0     C35324   4.840   3.070   7.780  0.2494 -0.3428  0.3260
 1003MOL0     C35325   5.247   3.157   7.992 -0.1440  0.3097 -0.0923
 1003MOL0     C35326   5.346   3.222   8.064 -0.0831  0.0546 -0.0346
 1003MOL0     C35327   5.474   3.160   8.083 -0.0367  0.2403 -0.5921
 1003MOL0     C35328   5.511   3.051   8.016  0.9014 -0.6675  0.3728
 1003MOL0     O35329   5.630   2.992   8.036 -0.9048  0.1964  0.2931
 1003MOL0     C35330   5.708   2.983   7.904 -0.0446 -0.2244 -0.3445
 1003MOL0     C35331   5.813   3.094   7.910  0.2093  0.7749  0.0093
 1003MOL0     C35332   5.903   3.073   7.788  0.0667 -0.3277  0.6512
 1003MOL0     C35333   6.005   3.185   7.793 -0.1021 -0.2556  0.1045
 1003MOL0     C35334   6.111   3.180   7.689 -0.6466  0.0245  0.0427
 1003MOL0     C35335   6.215   3.182   7.624 -0.2169  1.0341  0.4346
 1003MOL0     C35336   5.410   2.984   7.942 -0.3572 -0.3357  0.0272
 1003MOL0     C35337   5.279   3.031   7.935 -0.3051 -0.9508  0.5643
 1003MOL0     H35338   4.879   3.346   7.957 -0.9534  1.6743 -0.6131
 1003MOL0     H35339   4.644   3.374   7.908 -0.7581  0.6170 -0.8432
 1003MOL0     H35340   4.382   3.176   7.911  0.3408  1.0335  1.4337
 1003MOL0     H35341   4.434   3.333   7.893 -1.7313  0.2326 -0.1551
 1003MOL0     H35342   4.187   3.317   7.827 -2.8974 -3.9176 -1.0626
 1003MOL0     H35343   4.300   3.355   7.694  0.0950  0.7617 -0.0357
 1003MOL0     H35344   4.289   3.107   7.632  0.0226  2.2211 -1.8073
 1003MOL0     H35345   4.165   3.091   7.771  2.5530  0.5385  2.2285
 1003MOL0     H35346   4.154   3.289   7.541 -1.7257  0.9396 -0.6580
 1003MOL0     H35347   4.112   3.120   7.512  0.5746  0.6832 -1.4644
 1003MOL0     H35348   3.931   3.116   7.673 -1.9576  3.0511  2.5150
 1003MOL0     H35349   3.974   3.279   7.733  1.0733 -0.1798  0.8480
 1003MOL0     H35350   3.889   3.238   7.432 -2.7351 -2.6066  0.1364
 1003MOL0     H35351   3.774   3.222   7.556 -0.4986 -0.2653 -2.4013
 1003MOL0     H35352   3.825   3.441   7.656 -1.8513 -1.2312  0.2804
 1003MOL0     H35353   3.971   3.465   7.551  1.0147  0.6389  2.5360
 1003MOL0     H35354   3.767   3.603   7.478 -1.2813 -0.0579  0.9045
 1003MOL0     H35355   3.685   3.451   7.439 -1.6991  2.1236  0.9231
 1003MOL0     H35356   4.083   3.517   7.362 -0.2864  1.0563 -0.1636
 1003MOL0     H35357   4.230   3.469   7.160  0.1881  2.5748  0.4335
 1003MOL0     H35358   4.140   3.373   7.044 -1.6214 -1.8090  3.9198
 1003MOL0     H35359   4.178   3.667   7.026 -1.3460 -1.2350 -0.6105
 1003MOL0     H35360   4.099   3.574   6.903 -1.0923  1.6480  0.6956
 1003MOL0     H35361   4.288   3.593   6.802  0.0942  2.3782  1.7388
 1003MOL0     H35362   4.302   3.436   6.877 -3.0250 -0.1304 -1.8989
 1003MOL0     H35363   4.406   3.623   7.065 -0.7566 -0.3499 -0.2682
 1003MOL0     H35364   4.442   3.700   6.917  1.9280 -1.1250 -1.9648
 1003MOL0     H35365   4.741   3.458   6.827 -1.2379  0.3836  0.7509
 1003MOL0     H35366   4.979   3.480   6.751  4.6815 -0.6887 -0.6413
 1003MOL0     H35367   5.051   3.638   6.750  0.3375  3.2805  2.2774
 1003MOL0     H35368   5.097   3.522   6.878  0.3078 -2.4346 -1.0653
 1003MOL0     H35369   5.159   4.079   6.855 -1.2351  0.7670  3.6523
 1003MOL0     H35370   5.352   4.190   6.880 -4.0157 -0.2897 -0.6893
 1003MOL0     H35371   5.525   4.046   7.237  0.0368 -1.4382 -1.6433
 1003MOL0     H35372   5.680   4.122   7.207 -0.9155 -2.2401  1.0772
 1003MOL0     H35373   5.407   4.268   7.223  1.3376  1.4771 -0.1151
 1003MOL0     H35374   5.524   4.256   7.354 -1.7239  0.0390  0.6580
 1003MOL0     H35375   5.689   4.380   7.231  1.2753  0.7696 -0.3152
 1003MOL0     H35376   5.536   4.459   7.262 -0.0845 -3.3363  2.6860
 1003MOL0     H35377   5.628   4.364   6.983  1.0022 -2.3775  2.7391
 1003MOL0     H35378   5.460   4.407   7.024 -0.0813  2.8971 -2.9476
 1003MOL0     H35379   5.692   4.585   7.048 -0.0013 -4.0508 -0.1374
 1003MOL0     H35380   5.535   4.639   7.098 -2.4970 -0.6880 -0.8851
 1003MOL0     H35381   5.444   4.583   6.862  0.4759 -0.7802 -2.3445
 1003MOL0     H35382   5.539   4.725   6.873 -6.5104 -0.4135 -0.2810
 1003MOL0     H35383   5.611   4.452   6.750  1.2395 -0.0832  0.5213
 1003MOL0     H35384   5.744   4.545   6.814 -0.2442 -4.1398  0.5519
 1003MOL0     H35385   5.694   4.574   6.568  0.6432 -1.2132  1.9102
 1003MOL0     H35386   5.690   4.728   6.656  2.8020  0.4215 -0.1488
 1003MOL0     H35387   5.505   3.838   7.101  0.0442 -1.3229 -1.7241
 1003MOL0     H35388   5.321   3.725   7.009 -3.4315  0.4456  0.9188
 1003MOL0     H35389   4.816   3.841   7.136 -0.8438 -0.0445  1.4040
 1003MOL0     H35390   4.608   3.736   7.126 -0.2724 -4.6381  1.6461
 1003MOL0     H35391   4.658   3.003   7.680 -0.2912  1.1055 -0.0382
 1003MOL0     H35392   4.903   2.986   7.750  2.5044  1.2432  0.3955
 1003MOL0     H35393   5.310   3.306   8.123 -1.2212 -0.0488 -0.5730
 1003MOL0     H35394   5.543   3.224   8.138  0.9150  0.0292 -1.5016
 1003MOL0     H35395   5.746   2.880   7.898  0.5037 -0.1801  1.6812
 1003MOL0     H35396   5.638   3.000   7.822 -0.5525 -2.3406 -0.4061
 1003MOL0     H35397   5.867   3.086   8.005 -1.6205  0.6503  1.0806
 1003MOL0     H35398   5.758   3.188   7.918  2.7183  2.1719  3.8398
 1003MOL0     H35399   5.836   3.087   7.703 -1.9903 -2.2256  1.8417
 1003MOL0     H35400   5.936   2.969   7.778  0.1976 -0.2039 -0.2449
 1003MOL0     H35401   6.046   3.198   7.893 -0.4559 -0.0691  0.2270
 1003MOL0     H35402   5.945   3.273   7.766  2.5938  1.8249  0.4056
 1003MOL0     H35403   6.314   3.177   7.581 -0.2878  0.1514  0.3456
 1003MOL0     H35404   5.434   2.888   7.897  3.1341 -0.9695  2.7959
 1003MOL0     H35405   5.216   2.974   7.867 -2.6324  1.2465  0.7272
 1004MOL0     O35406   1.602   9.928   5.569 -0.2717 -0.6541 -0.2779
 1004MOL0     C35407   1.689   9.946   5.649  0.1403  0.5376 -0.3498
 1004MOL0     O35408   1.824   9.934   5.633 -0.1345  0.4039 -0.0725
 1004MOL0     C35409   1.881   9.912   5.511  0.4183  0.5775 -0.8242
 1004MOL0     C35410   1.832   9.823   5.416  0.4195 -0.3023  0.0006
 1004MOL0     C35411   1.890   9.812   5.290 -0.4362  0.4415 -0.0055
 1004MOL0     C35412   1.996   9.894   5.256 -0.9562 -0.4732 -0.0700
 1004MOL0     O35413   2.057   9.883   5.133 -0.3562 -0.0523 -0.1940
 1004MOL0     C35414   2.175   9.952   5.091 -0.4431 -0.0401  0.5268
 1004MOL0     C35415   2.212   9.890   4.950 -0.2415  0.3431 -0.2197
 1004MOL0     C35416   2.353   9.927   4.899  0.1004 -0.1415  0.5088
 1004MOL0     C35417   2.457   9.831   4.942 -0.8564  0.9375 -0.0782
 1004MOL0     C35418   2.600   9.884   4.942 -0.6369  0.0385 -0.8277
 1004MOL0     C35419   2.702   9.787   5.010  0.0406 -0.1987  0.3454
 1004MOL0     C35420   2.725   9.664   4.911  0.2232 -1.0219  0.1016
 1004MOL0     C35421   2.795   9.548   4.990  0.2081 -0.5473 -1.4289
 1004MOL0     N35422   2.882   9.470   4.905  0.2221  0.0111 -0.3554
 1004MOL0     C35423   2.847   9.361   4.828 -0.5182 -0.4426 -0.2179
 1004MOL0     C35424   2.965   9.319   4.779  0.1614  0.6926 -0.1023
 1004MOL0     C35425   2.978   9.192   4.692  0.1696 -0.3764 -0.7452
 1004MOL0     C35426   3.109   9.171   4.609 -1.0416 -0.7835  0.1828
 1004MOL0     C35427   3.112   9.255   4.476 -1.1196 -0.2431  0.2046
 1004MOL0     C35428   3.071   9.179   4.350 -0.0027  0.1617  0.4039
 1004MOL0     O35429   3.160   9.081   4.311 -0.2622 -0.4900 -0.1447
 1004MOL0     C35430   3.137   9.021   4.190  0.6201 -0.6278  0.0619
 1004MOL0     C35431   3.246   8.943   4.148 -0.2461 -0.2517 -0.1256
 1004MOL0     C35432   3.249   8.885   4.019  0.6200 -0.1390 -0.6898
 1004MOL0     C35433   3.370   8.795   3.999  0.0001 -0.6867 -0.6567
 1004MOL0     C35434   3.135   8.909   3.926 -0.4803 -1.1300 -0.7483
 1004MOL0     C35435   3.120   8.865   3.788 -0.8905 -0.1084 -0.3156
 1004MOL0     O35436   2.995   8.854   3.745 -0.0811  0.6284 -0.3260
 1004MOL0     C35437   2.956   8.817   3.616  0.4827  0.1527 -1.4031
 1004MOL0     C35438   3.016   8.717   3.543 -0.3748  0.3536  0.7045
 1004MOL0     C35439   2.962   8.680   3.417  0.7799 -0.0969  0.3218
 1004MOL0     C35440   2.849   8.744   3.365 -0.6524 -0.1783 -0.2332
 1004MOL0     O35441   2.788   8.693   3.251  0.7351  0.2292  0.1883
 1004MOL0     C35442   2.652   8.660   3.265  0.4455 -0.3887 -0.4657
 1004MOL0     C35443   2.627   8.547   3.366  0.0264 -0.7504 -0.5009
 1004MOL0     C35444   2.715   8.416   3.351  0.0459  0.5555 -0.3453
 1004MOL0     C35445   2.666   8.333   3.235  0.0108  0.0658  1.1824
 1004MOL0     C35446   2.747   8.207   3.216 -0.2778  0.0694  0.5991
 1004MOL0     C35447   2.674   8.106   3.126 -0.7956  0.1422  0.9817
 1004MOL0     C35448   2.658   8.152   2.985  0.2802 -0.7520 -0.0892
 1004MOL0     C35449   2.645   8.034   2.883 -0.1422 -0.0627 -0.2368
 1004MOL0    Cl35450   2.628   8.083   2.724  0.0443  0.3912  0.5026
 1004MOL0     C35451   2.790   8.853   3.441  0.3828  1.0070  0.0809
 1004MOL0     C35452   2.842   8.880   3.567  0.1203  0.1531 -0.6217
 1004MOL0     O35453   3.217   8.852   3.712 -0.3661  0.3731 -0.1761
 1004MOL0     C35454   3.041   9.010   3.962 -0.8703  0.4326  0.1240
 1004MOL0     C35455   3.037   9.064   4.095  0.4557 -0.0655  0.4265
 1004MOL0     N35456   3.066   9.408   4.806  1.1735 -0.2537 -0.7394
 1004MOL0     N35457   3.020   9.498   4.895  0.0858 -0.1250  0.6885
 1004MOL0     C35458   2.054   9.985   5.356 -0.4658  0.6174  0.1883
 1004MOL0     C35459   1.994   9.983   5.481 -0.6050  0.1870  0.6046
 1004MOL0     C35460   1.656  10.010   5.777  0.3426 -0.1594  0.4149
 1004MOL0     C35461   1.522  10.024   5.813 -0.2883  0.1738 -0.4217
 1004MOL0     C35462   1.487  10.082   5.936 -0.6288 -0.0895 -0.0965
 1004MOL0     C35463   1.589  10.122   6.024 -0.5706  0.7936 -0.1690
 1004MOL0     O35464   1.546  10.171   6.139  0.7498  0.7148 -0.2291
 1004MOL0     C35465   1.636  10.189   6.250  0.0900 -0.5241 -0.1799
 1004MOL0     C35466   1.550  10.257   6.361  0.5905  0.2291  0.5416
 1004MOL0     C35467   1.610  10.264   6.496  0.3665  0.0749  0.1018
 1004MOL0     C35468   1.699  10.393   6.502  0.7982 -0.0510 -0.9599
 1004MOL0     C35469   1.622  10.509   6.537 -0.2399 -0.4463 -0.1079
 1004MOL0     C35470   1.564  10.609   6.573 -0.2036  0.1814  0.6360
 1004MOL0     C35471   1.722  10.110   5.989  0.1334  0.2610  0.6596
 1004MOL0     C35472   1.754  10.050   5.868  0.7637 -0.1908  0.2287
 1004MOL0     H35473   1.743   9.766   5.438 -1.1211  2.4576  1.5254
 1004MOL0     H35474   1.845   9.742   5.220 -0.7572  1.9551 -1.3836
 1004MOL0     H35475   2.153  10.059   5.080  2.3039  0.9721  3.3846
 1004MOL0     H35476   2.259   9.948   5.160  3.1515  1.8710 -3.2793
 1004MOL0     H35477   2.196   9.782   4.962  3.6927 -0.1292  2.7466
 1004MOL0     H35478   2.136   9.932   4.884  0.8940  1.0097 -1.1429
 1004MOL0     H35479   2.351   9.934   4.790 -1.6680  0.0068  0.5173
 1004MOL0     H35480   2.384  10.030   4.920 -2.7870  1.6019 -2.7353
 1004MOL0     H35481   2.426   9.784   5.035 -1.4815 -0.0383 -0.7635
 1004MOL0     H35482   2.449   9.744   4.877  0.7482 -2.1259  3.4833
 1004MOL0     H35483   2.636   9.914   4.843 -0.9418 -2.7611 -1.8742
 1004MOL0     H35484   2.593   9.973   5.006 -0.7304 -0.8567  0.4582
 1004MOL0     H35485   2.794   9.841   5.035 -0.2370  1.1233 -1.2708
 1004MOL0     H35486   2.658   9.751   5.103 -1.8517 -0.0868 -0.4641
 1004MOL0     H35487   2.630   9.627   4.872  0.1833 -0.4310 -0.3649
 1004MOL0     H35488   2.790   9.684   4.826  3.9512 -1.9917  2.4765
 1004MOL0     H35489   2.724   9.485   5.045  2.0725 -2.4343 -1.0633
 1004MOL0     H35490   2.866   9.584   5.064 -1.0136 -0.4506 -0.2531
 1004MOL0     H35491   2.749   9.317   4.819 -0.9102  0.2433  0.5953
 1004MOL0     H35492   2.988   9.108   4.760  0.7381  0.9062  0.8131
 1004MOL0     H35493   2.887   9.164   4.638  0.3470 -0.1333 -1.1763
 1004MOL0     H35494   3.117   9.071   4.567 -1.3376 -1.3075  1.3495
 1004MOL0     H35495   3.198   9.183   4.672 -1.3408 -1.6651  0.7718
 1004MOL0     H35496   3.208   9.308   4.475 -1.0304 -0.0798  3.5361
 1004MOL0     H35497   3.036   9.332   4.490 -1.6050 -0.9995  2.1096
 1004MOL0     H35498   3.054   9.257   4.276 -0.4891  1.2195  1.5931
 1004MOL0     H35499   2.970   9.136   4.355 -0.0740  0.1261 -1.0221
 1004MOL0     H35500   3.326   8.930   4.220  0.3009 -0.6788 -0.8016
 1004MOL0     H35501   3.465   8.847   3.984 -1.1063  0.7602 -3.3973
 1004MOL0     H35502   3.376   8.727   4.085 -1.9673  0.3181  0.3453
 1004MOL0     H35503   3.354   8.734   3.909  1.9529 -1.1025 -0.7651
 1004MOL0     H35504   3.095   8.664   3.596 -0.7556 -2.8038 -1.6039
 1004MOL0     H35505   2.989   8.580   3.385  0.4902 -0.0554 -0.0605
 1004MOL0     H35506   2.580   8.742   3.277 -1.2565 -1.7976 -0.6720
 1004MOL0     H35507   2.604   8.631   3.171 -1.0754  0.5589 -0.0222
 1004MOL0     H35508   2.647   8.584   3.468 -1.9113  0.7921 -0.6190
 1004MOL0     H35509   2.521   8.524   3.376 -0.5161  1.7272  0.0427
 1004MOL0     H35510   2.691   8.354   3.438  0.6531  1.2043  0.2935
 1004MOL0     H35511   2.821   8.441   3.346  0.2239  0.0728  0.6987
 1004MOL0     H35512   2.557   8.321   3.235 -0.2024  0.0930 -3.5135
 1004MOL0     H35513   2.687   8.391   3.145  1.4713 -2.2688 -0.0859
 1004MOL0     H35514   2.758   8.162   3.315 -0.9361 -1.1072  0.1612
 1004MOL0     H35515   2.843   8.241   3.175 -2.2282  2.4445 -2.4357
 1004MOL0     H35516   2.722   8.009   3.123 -1.7563 -0.3368  0.6281
 1004MOL0     H35517   2.574   8.079   3.161 -2.1453  1.3751 -1.6414
 1004MOL0     H35518   2.745   8.208   2.950 -1.0302 -0.2947 -2.9197
 1004MOL0     H35519   2.567   8.213   2.980 -0.5351 -1.9470 -0.3031
 1004MOL0     H35520   2.570   7.970   2.930  0.0379  0.8391  1.3562
 1004MOL0     H35521   2.740   7.980   2.887 -1.0465 -1.6430  0.9038
 1004MOL0     H35522   2.702   8.908   3.410  0.6194  1.7422  0.6920
 1004MOL0     H35523   2.780   8.938   3.635 -1.2751 -1.2425 -0.6462
 1004MOL0     H35524   2.970   9.041   3.887 -2.8155 -0.3523  1.5721
 1004MOL0     H35525   2.966   9.141   4.123  1.6044  1.1509  0.1107
 1004MOL0     H35526   2.134  10.052   5.324 -1.0775  0.2429 -2.3816
 1004MOL0     H35527   2.019  10.062   5.552 -4.3515  0.9626  1.2884
 1004MOL0     H35528   1.446   9.978   5.750 -0.9958  1.5463 -0.6254
 1004MOL0     H35529   1.386  10.099   5.972  0.0965  1.2093  1.4762
 1004MOL0     H35530   1.667  10.095   6.296  0.8148  0.3144  1.1198
 1004MOL0     H35531   1.720  10.258   6.232 -0.5774  0.2968 -0.2160
 1004MOL0     H35532   1.466  10.191   6.382  1.0500 -0.5498  0.0170
 1004MOL0     H35533   1.523  10.358   6.330 -1.3092 -0.2843  0.4543
 1004MOL0     H35534   1.665  10.173   6.521  0.1075 -0.6298 -1.7590
 1004MOL0     H35535   1.534  10.271   6.574  1.8248 -1.4735  1.7888
 1004MOL0     H35536   1.763  10.410   6.415  1.0293  2.3452 -0.3834
 1004MOL0     H35537   1.765  10.391   6.589 -0.6510 -0.4045  0.1680
 1004MOL0     H35538   1.500  10.689   6.605  1.2428  0.3165  3.5007
 1004MOL0     H35539   1.809  10.135   6.049  2.0650 -2.2189 -0.9341
 1004MOL0     H35540   1.856  10.039   5.833  0.6972  1.7418 -0.6948
 1005MOL0     O35541   9.403   3.600   6.200  0.4143 -0.1041 -0.1184
 1005MOL0     C35542   9.483   3.677   6.151 -0.6033 -1.0330 -0.0566
 1005MOL0     O35543   9.472   3.731   6.026  0.0355 -0.5656 -0.0895
 1005MOL0     C35544   9.371   3.691   5.938  0.0047  0.0721 -0.1938
 1005MOL0     C35545   9.231   3.708   5.945  0.0005  0.1614 -0.3017
 1005MOL0     C35546   9.140   3.655   5.857 -0.0410  0.5702 -0.3614
 1005MOL0     C35547   9.192   3.586   5.744  0.3321 -0.2325  0.3704
 1005MOL0     O35548   9.134   3.509   5.653  0.3091  0.4881  0.5171
 1005MOL0     C35549   8.988   3.497   5.643  0.2773 -0.4327  0.5819
 1005MOL0     C35550   8.975   3.413   5.522 -0.3597  0.0386  0.0382
 1005MOL0     C35551   8.831   3.380   5.501  0.2498  0.6845  0.5664
 1005MOL0     C35552   8.733   3.495   5.469  0.2906 -0.0797 -0.4816
 1005MOL0     C35553   8.625   3.461   5.365  0.3568 -0.4958 -0.1965
 1005MOL0     C35554   8.495   3.538   5.404  0.5781  0.4370  0.9218
 1005MOL0     C35555   8.373   3.509   5.313 -0.6926  0.6768 -0.3004
 1005MOL0     C35556   8.283   3.634   5.280  0.6162 -0.2137 -0.1437
 1005MOL0     N35557   8.152   3.638   5.350  0.4546 -1.4893 -0.4595
 1005MOL0     C35558   8.116   3.601   5.485 -0.4299 -0.3405  0.2693
 1005MOL0     C35559   7.993   3.640   5.504  0.4581 -0.4478  0.3598
 1005MOL0     C35560   7.909   3.635   5.630 -1.0290 -0.5594  0.3550
 1005MOL0     C35561   7.768   3.702   5.619 -0.3826 -0.1325 -0.3367
 1005MOL0     C35562   7.777   3.856   5.601 -0.4307 -0.0469 -0.1501
 1005MOL0     C35563   7.644   3.934   5.612  0.7296  0.0396  0.2620
 1005MOL0     O35564   7.555   3.892   5.504  0.4882  0.0288 -0.0135
 1005MOL0     C35565   7.421   3.932   5.507  0.6890  0.5639 -0.6260
 1005MOL0     C35566   7.347   3.897   5.397  1.2386  0.1798  0.9748
 1005MOL0     C35567   7.206   3.922   5.384 -0.1096  0.4145 -0.4298
 1005MOL0     C35568   7.140   3.886   5.244  0.3013  0.0665 -0.6961
 1005MOL0     C35569   7.139   3.982   5.492  0.3228  0.5422 -0.1112
 1005MOL0     C35570   6.991   4.032   5.479 -0.9901  0.2147 -0.2207
 1005MOL0     O35571   6.950   4.108   5.579  0.9834 -0.1039  0.2485
 1005MOL0     C35572   6.851   4.197   5.536 -0.4222 -0.0704  0.0208
 1005MOL0     C35573   6.728   4.155   5.513  0.4999  0.0781 -0.4580
 1005MOL0     C35574   6.636   4.242   5.452  0.4197  0.6299 -0.4295
 1005MOL0     C35575   6.673   4.379   5.429  0.3384  0.7881 -0.2877
 1005MOL0     O35576   6.596   4.476   5.374 -0.3971 -0.6290 -0.4639
 1005MOL0     C35577   6.483   4.430   5.302 -0.6962  0.0178  0.5335
 1005MOL0     C35578   6.389   4.540   5.233 -0.9529 -0.2111  0.2740
 1005MOL0     C35579   6.277   4.580   5.330 -1.1111 -0.4902  1.3590
 1005MOL0     C35580   6.252   4.734   5.325  0.0480  0.9021 -0.1802
 1005MOL0     C35581   6.133   4.768   5.419 -0.5574  0.2177  0.5164
 1005MOL0     C35582   6.104   4.914   5.446 -0.3946  0.2180 -0.3239
 1005MOL0     C35583   5.974   4.929   5.520 -0.5793  0.9686  0.7709
 1005MOL0     C35584   5.963   5.045   5.616 -0.8741 -0.2679 -0.0172
 1005MOL0    Cl35585   5.962   5.191   5.513  0.3938 -0.3316 -0.1469
 1005MOL0     C35586   6.802   4.421   5.472 -0.1191 -0.7715  0.3066
 1005MOL0     C35587   6.891   4.329   5.527 -0.3585 -0.8683  0.2630
 1005MOL0     O35588   6.926   3.993   5.385 -0.0229  0.5837 -0.1004
 1005MOL0     C35589   7.213   3.999   5.601 -0.5754 -1.1865 -0.3467
 1005MOL0     C35590   7.353   3.987   5.609 -0.3057 -0.2518  0.1263
 1005MOL0     N35591   7.950   3.699   5.386 -0.1059  0.6387  0.3584
 1005MOL0     N35592   8.041   3.697   5.294  0.8241  0.2087  0.3503
 1005MOL0     C35593   9.332   3.578   5.734 -0.9309  0.0203 -0.0482
 1005MOL0     C35594   9.419   3.625   5.830  0.0363  0.4470  1.2206
 1005MOL0     C35595   9.596   3.713   6.235 -0.4250 -0.1968 -0.4949
 1005MOL0     C35596   9.623   3.633   6.351  0.2094  0.3881 -0.1229
 1005MOL0     C35597   9.730   3.660   6.429 -0.1330  0.9022  0.3427
 1005MOL0     C35598   9.809   3.765   6.405  0.1342  0.2374  0.3179
 1005MOL0     O35599   9.929   3.795   6.468 -0.0330 -0.3035 -0.2399
 1005MOL0     C35600  10.005   3.689   6.543  0.3948  0.0845  0.4623
 1005MOL0     C35601  10.131   3.754   6.586 -0.0597  0.1424 -0.0146
 1005MOL0     C35602  10.186   3.851   6.487  0.2101 -0.3050  0.1834
 1005MOL0     C35603  10.327   3.898   6.521 -0.5003  0.0284  0.3988
 1005MOL0     C35604  10.365   4.001   6.425 -0.3363  0.3297 -0.4605
 1005MOL0     C35605  10.412   4.085   6.357  0.1909  0.3354 -0.8381
 1005MOL0     C35606   9.779   3.852   6.302  0.2631  0.3905  0.1757
 1005MOL0     C35607   9.678   3.827   6.212  0.2122 -0.8710  0.1312
 1005MOL0     H35608   9.192   3.758   6.033 -1.9623 -1.6992 -0.0302
 1005MOL0     H35609   9.034   3.672   5.873 -0.6161  0.6197 -3.6031
 1005MOL0     H35610   8.939   3.447   5.727 -1.7918 -0.3019 -0.4715
 1005MOL0     H35611   8.942   3.595   5.624 -1.1829 -1.0353  0.8934
 1005MOL0     H35612   9.023   3.457   5.434 -1.6415  0.3854 -0.5169
 1005MOL0     H35613   9.022   3.314   5.527 -0.5111 -0.1396 -1.6548
 1005MOL0     H35614   8.826   3.303   5.423  0.3740  0.7806  0.4624
 1005MOL0     H35615   8.788   3.332   5.589 -0.6505  2.1960  0.9927
 1005MOL0     H35616   8.686   3.512   5.567 -2.1265 -0.2196 -1.5460
 1005MOL0     H35617   8.785   3.587   5.439 -0.9374  0.2370 -1.7384
 1005MOL0     H35618   8.661   3.494   5.267  1.5266  2.8826  1.2030
 1005MOL0     H35619   8.609   3.353   5.361 -1.4690 -0.3557  1.5944
 1005MOL0     H35620   8.468   3.520   5.508 -1.8465  1.1509  0.4792
 1005MOL0     H35621   8.516   3.645   5.402 -0.2628  0.6370  2.1266
 1005MOL0     H35622   8.415   3.469   5.220 -0.3547  0.4294 -0.0438
 1005MOL0     H35623   8.321   3.422   5.354 -1.7490  1.8988  1.0602
 1005MOL0     H35624   8.275   3.635   5.171  0.7189 -2.3698 -0.2182
 1005MOL0     H35625   8.332   3.723   5.321 -1.1831 -0.2476  2.3031
 1005MOL0     H35626   8.171   3.556   5.567 -3.2705 -0.0495  2.4676
 1005MOL0     H35627   7.886   3.532   5.659 -3.2533 -1.6107 -4.2337
 1005MOL0     H35628   7.958   3.698   5.705 -2.0149  0.7304 -0.0393
 1005MOL0     H35629   7.720   3.671   5.712  0.5910 -1.9361 -0.3927
 1005MOL0     H35630   7.701   3.660   5.544 -3.2304  0.7227  1.5895
 1005MOL0     H35631   7.816   3.876   5.500  3.2774  0.2720  1.1807
 1005MOL0     H35632   7.855   3.891   5.668  0.5913  0.6669 -1.6423
 1005MOL0     H35633   7.668   4.039   5.594  0.7716 -0.1162 -0.6469
 1005MOL0     H35634   7.599   3.931   5.712  2.2659  0.3345  0.9911
 1005MOL0     H35635   7.405   3.866   5.311 -0.7461 -3.0668  0.6159
 1005MOL0     H35636   7.048   3.828   5.248  1.7336 -2.2591  1.1267
 1005MOL0     H35637   7.135   3.986   5.199 -2.3101  0.7794  0.9930
 1005MOL0     H35638   7.212   3.821   5.193  0.4866 -0.9471  0.7802
 1005MOL0     H35639   6.694   4.056   5.545  0.4704 -0.2199 -1.3861
 1005MOL0     H35640   6.546   4.190   5.423  1.3050 -1.9423  1.0698
 1005MOL0     H35641   6.530   4.363   5.230 -0.1735 -1.9183  2.5560
 1005MOL0     H35642   6.415   4.366   5.359 -0.9433 -0.8717 -0.7188
 1005MOL0     H35643   6.450   4.626   5.206 -0.1622 -0.5653  0.9084
 1005MOL0     H35644   6.354   4.505   5.135 -1.3707  0.2291  0.2604
 1005MOL0     H35645   6.314   4.570   5.432 -2.8561 -2.9387  1.8318
 1005MOL0     H35646   6.188   4.517   5.336 -0.2048 -1.8233  1.1953
 1005MOL0     H35647   6.343   4.788   5.349 -1.1982  2.7726  0.5669
 1005MOL0     H35648   6.234   4.771   5.223  0.8354  3.9782  0.7173
 1005MOL0     H35649   6.149   4.718   5.514 -0.7557 -1.4993 -0.3158
 1005MOL0     H35650   6.039   4.723   5.385  0.2837 -2.2526  1.2623
 1005MOL0     H35651   6.181   4.954   5.513  0.6327  0.1884 -1.4583
 1005MOL0     H35652   6.106   4.958   5.346  0.5715  1.3693  0.1772
 1005MOL0     H35653   5.964   4.845   5.590 -0.3893  1.4633  1.3997
 1005MOL0     H35654   5.897   4.941   5.443  1.0260  0.7635 -0.9664
 1005MOL0     H35655   6.054   5.041   5.675  0.8700 -1.2384 -2.6038
 1005MOL0     H35656   5.875   5.039   5.681 -0.8377  2.3873  0.4128
 1005MOL0     H35657   6.833   4.525   5.468 -1.1886 -0.4629 -0.7038
 1005MOL0     H35658   6.990   4.367   5.553 -0.4119 -0.0178 -0.7280
 1005MOL0     H35659   7.157   4.029   5.689 -0.2392  0.7031 -0.7318
 1005MOL0     H35660   7.405   4.019   5.698 -0.7560  1.0521 -0.0610
 1005MOL0     H35661   9.367   3.519   5.649  2.4507 -0.8299  1.7542
 1005MOL0     H35662   9.526   3.605   5.822  0.6526  3.4226  0.9654
 1005MOL0     H35663   9.564   3.545   6.374  1.9372 -0.2939  2.0799
 1005MOL0     H35664   9.762   3.608   6.519  1.6921  1.1925 -0.0999
 1005MOL0     H35665   9.954   3.654   6.633  1.7017 -0.7098  0.9175
 1005MOL0     H35666  10.015   3.598   6.483 -0.6363 -0.4590  1.0789
 1005MOL0     H35667  10.211   3.681   6.603  0.4289  1.1543  2.3128
 1005MOL0     H35668  10.111   3.796   6.684  0.8251  0.9816 -0.1786
 1005MOL0     H35669  10.117   3.936   6.479 -2.0719 -1.7152  2.9393
 1005MOL0     H35670  10.212   3.797   6.395  0.1685  0.6270 -0.3881
 1005MOL0     H35671  10.398   3.815   6.516 -0.4980  0.0737 -0.4934
 1005MOL0     H35672  10.354   3.938   6.620  0.4962 -1.5905  0.8188
 1005MOL0     H35673  10.481   4.136   6.292  0.8736 -2.5429 -2.5381
 1005MOL0     H35674   9.845   3.934   6.275  2.6391 -0.7515  2.1425
 1005MOL0     H35675   9.656   3.899   6.133 -0.1519 -1.5084 -0.3541
 1006MOL0     O35676   6.009   2.790   8.888  0.1131  0.6611 -0.1568
 1006MOL0     C35677   6.012   2.845   8.778 -0.5417  0.6055  0.1672
 1006MOL0     O35678   5.914   2.833   8.679  0.9666  0.3973 -0.3936
 1006MOL0     C35679   5.787   2.779   8.724 -0.2740  0.5152  0.7380
 1006MOL0     C35680   5.770   2.646   8.767 -0.8110  0.0049  0.4543
 1006MOL0     C35681   5.653   2.596   8.827  0.2864  1.0921 -0.4087
 1006MOL0     C35682   5.534   2.673   8.832 -0.1646  0.3797 -0.1984
 1006MOL0     O35683   5.424   2.623   8.895  0.3242 -0.5604 -0.8331
 1006MOL0     C35684   5.318   2.703   8.946 -0.1367 -0.9037  0.2321
 1006MOL0     C35685   5.316   2.689   9.100  0.4905 -0.7782  0.9771
 1006MOL0     C35686   5.288   2.538   9.132 -0.0435 -0.2947  0.9004
 1006MOL0     C35687   5.231   2.521   9.271  0.2888  0.3116 -0.4386
 1006MOL0     C35688   5.218   2.381   9.323 -0.0539  0.9670 -0.1065
 1006MOL0     C35689   5.110   2.296   9.261  0.9026  0.0349  0.3115
 1006MOL0     C35690   5.098   2.157   9.335  0.6069  1.6329  0.1458
 1006MOL0     C35691   5.207   2.058   9.330 -0.1229  0.0801 -0.6606
 1006MOL0     N35692   5.248   2.021   9.188 -0.2256  0.1072 -0.6836
 1006MOL0     C35693   5.301   2.097   9.084  0.3453  0.4861 -0.1134
 1006MOL0     C35694   5.347   2.006   8.990  0.9510  0.5348 -0.4695
 1006MOL0     C35695   5.412   2.026   8.850  0.7310 -0.6357  0.2579
 1006MOL0     C35696   5.563   2.021   8.849 -0.5368  0.4260 -0.2327
 1006MOL0     C35697   5.617   2.165   8.864 -0.3478 -0.6535  0.4530
 1006MOL0     C35698   5.771   2.167   8.859  0.2205  0.3815  0.4937
 1006MOL0     O35699   5.817   2.149   8.720  0.1470  0.2558  0.2089
 1006MOL0     C35700   5.907   2.244   8.675 -0.1871 -0.0001 -0.2395
 1006MOL0     C35701   6.008   2.309   8.747  0.2976  0.8738 -0.2751
 1006MOL0     C35702   6.083   2.410   8.685  0.3965  0.3241  0.1291
 1006MOL0     C35703   6.180   2.494   8.772  1.2996  0.3110 -0.3594
 1006MOL0     C35704   6.058   2.445   8.544 -1.1443  0.4924 -0.1360
 1006MOL0     C35705   6.138   2.546   8.465 -0.1328  0.2785  1.1306
 1006MOL0     O35706   6.261   2.564   8.513  0.7033 -0.3546 -1.4984
 1006MOL0     C35707   6.349   2.662   8.468  0.4660 -0.3536  0.4868
 1006MOL0     C35708   6.481   2.650   8.487 -0.8930  0.5333  0.4576
 1006MOL0     C35709   6.569   2.752   8.455  0.1461 -0.1543  0.6698
 1006MOL0     C35710   6.528   2.872   8.397 -1.1719  0.4122 -0.1963
 1006MOL0     O35711   6.633   2.962   8.372  0.2119  0.1127  1.0741
 1006MOL0     C35712   6.601   3.093   8.335  0.7445  0.7090  0.4868
 1006MOL0     C35713   6.725   3.182   8.303  0.0493  1.6142 -0.6830
 1006MOL0     C35714   6.697   3.320   8.235 -0.2609  0.4124 -0.6533
 1006MOL0     C35715   6.818   3.402   8.190  0.2401 -0.2662  0.0067
 1006MOL0     C35716   6.780   3.549   8.151 -0.2074  0.3526 -0.2715
 1006MOL0     C35717   6.775   3.645   8.276 -0.5133  0.5949  0.3090
 1006MOL0     C35718   6.905   3.634   8.362  0.0419 -0.2342  0.1684
 1006MOL0     C35719   6.894   3.744   8.468  0.7362 -0.3355  1.0994
 1006MOL0    Cl35720   6.941   3.899   8.398 -0.1964  0.1179  0.0640
 1006MOL0     C35721   6.400   2.881   8.366  1.0106  0.7921  0.0291
 1006MOL0     C35722   6.309   2.782   8.408 -0.6531  0.2419  0.1660
 1006MOL0     O35723   6.095   2.583   8.354  0.5371  0.0299  0.0673
 1006MOL0     C35724   5.960   2.375   8.477  0.8762 -0.4893  0.0618
 1006MOL0     C35725   5.881   2.273   8.541  0.2633 -0.6654 -0.0058
 1006MOL0     N35726   5.321   1.877   9.043  0.7523 -0.0604  0.4680
 1006MOL0     N35727   5.278   1.887   9.163 -0.1755 -0.1123 -0.0633
 1006MOL0     C35728   5.543   2.810   8.778 -0.3273 -0.1049 -0.1830
 1006MOL0     C35729   5.668   2.856   8.720 -0.4728  0.9060 -0.4512
 1006MOL0     C35730   6.117   2.936   8.745  0.9496  0.4706 -0.1055
 1006MOL0     C35731   6.091   3.045   8.660  0.0288  0.3642 -0.5304
 1006MOL0     C35732   6.199   3.135   8.630 -0.6603  0.6960 -0.2880
 1006MOL0     C35733   6.320   3.114   8.691 -0.1496  0.3566 -0.4175
 1006MOL0     O35734   6.423   3.202   8.656  0.6918  0.2856  0.4447
 1006MOL0     C35735   6.558   3.188   8.714 -0.7765  0.0484 -0.4202
 1006MOL0     C35736   6.663   3.290   8.663  0.5986  0.6775 -0.1851
 1006MOL0     C35737   6.631   3.437   8.693 -0.2729  0.2930  0.8111
 1006MOL0     C35738   6.529   3.507   8.615  0.0425  0.4377  0.0393
 1006MOL0     C35739   6.506   3.644   8.670  0.8911 -0.4909  0.6946
 1006MOL0     C35740   6.516   3.769   8.692 -0.3606  0.6264 -0.5857
 1006MOL0     C35741   6.339   2.999   8.776 -0.1830 -0.6833 -0.3438
 1006MOL0     C35742   6.235   2.916   8.812  0.6787 -0.4504  0.4351
 1006MOL0     H35743   5.859   2.584   8.759 -1.1566 -0.2955 -1.8731
 1006MOL0     H35744   5.673   2.495   8.863 -1.2544  0.3995 -1.4095
 1006MOL0     H35745   5.336   2.807   8.918  1.1617 -1.2438 -0.2704
 1006MOL0     H35746   5.221   2.683   8.899  0.1545 -0.2607 -0.6778
 1006MOL0     H35747   5.409   2.722   9.147 -1.2423  2.3796  2.4819
 1006MOL0     H35748   5.247   2.756   9.153 -0.4363  0.7586 -1.9559
 1006MOL0     H35749   5.217   2.511   9.053  2.5491 -0.5182 -1.4970
 1006MOL0     H35750   5.380   2.483   9.112 -0.3183  0.3386 -2.9370
 1006MOL0     H35751   5.297   2.571   9.343  1.7633  0.6441 -1.9386
 1006MOL0     H35752   5.130   2.563   9.270  0.5254  0.9062 -2.0005
 1006MOL0     H35753   5.315   2.333   9.311 -0.6386  0.0170 -1.2766
 1006MOL0     H35754   5.187   2.381   9.428 -2.8454 -3.0053 -0.6767
 1006MOL0     H35755   5.019   2.356   9.258  0.6017 -0.1627  3.1590
 1006MOL0     H35756   5.138   2.281   9.156 -1.0635  0.3516 -0.3049
 1006MOL0     H35757   5.064   2.175   9.438 -2.2913  0.8851 -0.5847
 1006MOL0     H35758   5.020   2.101   9.282  1.1063  0.9931  0.0841
 1006MOL0     H35759   5.169   1.968   9.380  4.7188 -2.0884 -0.3826
 1006MOL0     H35760   5.289   2.108   9.381 -0.2611 -0.2922 -0.0593
 1006MOL0     H35761   5.301   2.206   9.077  1.0568  0.6663  1.9574
 1006MOL0     H35762   5.363   1.946   8.793 -1.8139 -0.5554  2.1269
 1006MOL0     H35763   5.376   2.122   8.812  0.4875 -0.9485 -0.3083
 1006MOL0     H35764   5.580   1.981   8.749 -3.4815 -2.9084  0.4009
 1006MOL0     H35765   5.597   1.953   8.928 -1.5532 -3.0932 -2.5881
 1006MOL0     H35766   5.590   2.220   8.956 -0.1534  2.1664 -1.0518
 1006MOL0     H35767   5.575   2.226   8.783  0.2945 -0.0979  0.5290
 1006MOL0     H35768   5.813   2.087   8.922  2.1295  2.7684  2.4613
 1006MOL0     H35769   5.804   2.260   8.907  1.9036  2.1122 -3.5761
 1006MOL0     H35770   6.015   2.290   8.854 -0.0197  0.3313 -0.3445
 1006MOL0     H35771   6.169   2.601   8.750 -2.8680  0.0273 -0.3493
 1006MOL0     H35772   6.164   2.480   8.879  0.4123 -0.9777 -0.6455
 1006MOL0     H35773   6.286   2.471   8.760  1.5805  0.3491  1.7083
 1006MOL0     H35774   6.505   2.557   8.537 -1.4889  0.4489  0.6005
 1006MOL0     H35775   6.670   2.745   8.496  1.1324 -1.2193 -1.7899
 1006MOL0     H35776   6.529   3.095   8.254  0.6315 -0.4020  0.5366
 1006MOL0     H35777   6.553   3.136   8.424 -0.9805  0.6707 -0.3873
 1006MOL0     H35778   6.795   3.191   8.387  0.3195 -3.8042  0.0389
 1006MOL0     H35779   6.776   3.119   8.229  0.3081  0.1284  0.7152
 1006MOL0     H35780   6.649   3.386   8.308  0.0751  2.2853 -2.0261
 1006MOL0     H35781   6.625   3.299   8.155 -1.4905 -2.0710  0.9754
 1006MOL0     H35782   6.884   3.402   8.277 -0.0515  0.9002  0.2501
 1006MOL0     H35783   6.865   3.350   8.106  2.2211  0.7680  0.4213
 1006MOL0     H35784   6.678   3.545   8.111 -1.3815 -0.2711  2.5511
 1006MOL0     H35785   6.844   3.591   8.073  1.6018 -0.3313  0.7779
 1006MOL0     H35786   6.753   3.747   8.242 -3.3026 -0.6835 -2.1111
 1006MOL0     H35787   6.689   3.607   8.332 -1.3973 -1.0903 -2.0510
 1006MOL0     H35788   7.002   3.644   8.313 -0.1702  2.8370  0.1514
 1006MOL0     H35789   6.893   3.540   8.417 -2.3730  0.7851  1.5723
 1006MOL0     H35790   6.958   3.724   8.554  1.3787  3.4574  1.6658
 1006MOL0     H35791   6.790   3.759   8.500  1.1770  1.2683  1.9003
 1006MOL0     H35792   6.366   2.973   8.319 -3.1610 -0.0654  0.9809
 1006MOL0     H35793   6.204   2.795   8.384 -0.3802 -0.5778 -1.6440
 1006MOL0     H35794   5.945   2.393   8.371  2.3437  0.8482  0.0505
 1006MOL0     H35795   5.799   2.219   8.494 -0.0328 -0.4702  0.2804
 1006MOL0     H35796   5.461   2.880   8.777  0.5952  1.0294 -2.4687
 1006MOL0     H35797   5.678   2.961   8.696 -0.0541  1.6458  2.5546
 1006MOL0     H35798   5.992   3.056   8.619 -0.4397  1.2997  0.7864
 1006MOL0     H35799   6.178   3.206   8.550 -0.1260  1.3080  0.1023
 1006MOL0     H35800   6.552   3.192   8.824 -1.5057  4.6208 -0.4293
 1006MOL0     H35801   6.588   3.086   8.690  0.2248 -0.3575  2.2122
 1006MOL0     H35802   6.676   3.291   8.554 -2.0926  3.0658 -0.5888
 1006MOL0     H35803   6.756   3.260   8.712  0.3067 -1.3483 -0.7530
 1006MOL0     H35804   6.722   3.495   8.675 -1.8420  3.7799  3.0072
 1006MOL0     H35805   6.609   3.449   8.800 -3.1713 -1.1216  0.4938
 1006MOL0     H35806   6.433   3.456   8.626  1.0762 -1.2422  1.8841
 1006MOL0     H35807   6.552   3.511   8.508 -0.0049 -1.6570 -0.1057
 1006MOL0     H35808   6.541   3.869   8.721 -2.7446  1.1053 -0.0021
 1006MOL0     H35809   6.428   2.963   8.828  0.2619  0.5126 -0.2592
 1006MOL0     H35810   6.236   2.833   8.882 -3.6800 -0.9355  0.1729
 1007MOL0     O35811  10.692   5.681   6.121  0.2184 -0.1387 -0.4829
 1007MOL0     C35812  10.770   5.754   6.179 -0.3139 -0.7322  0.2495
 1007MOL0     O35813  10.753   5.889   6.205  1.3459  0.5978 -0.0543
 1007MOL0     C35814  10.630   5.940   6.174  0.4514 -0.0928  0.1567
 1007MOL0     C35815  10.511   5.902   6.240 -0.3057 -0.1448 -0.9229
 1007MOL0     C35816  10.381   5.966   6.219 -0.7889  0.1515 -0.7834
 1007MOL0     C35817  10.368   6.070   6.120  0.3306 -0.8106  0.4249
 1007MOL0     O35818  10.249   6.116   6.078  0.7405  0.5599 -0.7600
 1007MOL0     C35819  10.235   6.178   5.946 -1.0694  0.2020  0.3900
 1007MOL0     C35820  10.090   6.222   5.931  0.3901 -0.1859 -0.2768
 1007MOL0     C35821   9.994   6.102   5.893  0.4035  0.3618 -0.2227
 1007MOL0     C35822   9.845   6.136   5.871 -0.0855 -0.7213 -1.0774
 1007MOL0     C35823   9.769   6.016   5.819  0.0185 -0.2776 -0.2071
 1007MOL0     C35824   9.804   5.969   5.678  0.0258  0.9337 -0.4725
 1007MOL0     C35825   9.724   5.841   5.637  0.5345 -1.2986 -0.4598
 1007MOL0     C35826   9.772   5.781   5.505 -0.6909  1.0578 -0.3317
 1007MOL0     N35827   9.654   5.709   5.455 -0.1627 -0.6541  0.8500
 1007MOL0     C35828   9.596   5.598   5.532 -0.2285 -0.3999 -0.9538
 1007MOL0     C35829   9.489   5.558   5.463 -0.5364 -0.8039  0.3917
 1007MOL0     C35830   9.402   5.443   5.501  0.3809  0.2739  0.3489
 1007MOL0     C35831   9.430   5.313   5.428 -0.4097  1.2239  0.0978
 1007MOL0     C35832   9.311   5.265   5.342  0.7440  0.4667  0.0474
 1007MOL0     C35833   9.309   5.336   5.201 -0.1396 -0.8311  0.1536
 1007MOL0     O35834   9.248   5.251   5.100 -0.7728 -0.1234 -0.6592
 1007MOL0     C35835   9.240   5.287   4.963  0.6019 -0.9227 -1.5067
 1007MOL0     C35836   9.203   5.197   4.868  0.1946  0.1741 -0.2921
 1007MOL0     C35837   9.200   5.231   4.732  0.1627  0.4770 -0.5849
 1007MOL0     C35838   9.159   5.120   4.639 -0.0794  0.0032 -0.2689
 1007MOL0     C35839   9.217   5.369   4.697 -0.0899  0.1711 -0.0035
 1007MOL0     C35840   9.193   5.413   4.556  0.4770 -0.1824 -0.6667
 1007MOL0     O35841   9.277   5.502   4.501  0.2453 -0.0014  0.3243
 1007MOL0     C35842   9.250   5.533   4.368 -1.2440 -0.0082  0.4302
 1007MOL0     C35843   9.142   5.605   4.330 -0.5874 -0.5115 -0.1229
 1007MOL0     C35844   9.105   5.638   4.196  0.1261 -0.5092  0.3046
 1007MOL0     C35845   9.183   5.578   4.093  0.8569 -0.0434 -0.0682
 1007MOL0     O35846   9.151   5.599   3.963 -0.6557 -0.1580 -0.0722
 1007MOL0     C35847   9.019   5.560   3.924  0.6949 -0.4107  0.4942
 1007MOL0     C35848   9.010   5.578   3.770  0.3879 -0.0944  0.3271
 1007MOL0     C35849   8.914   5.692   3.738 -0.2579 -0.0063  0.0937
 1007MOL0     C35850   8.899   5.714   3.585  0.7941  0.3062  0.1561
 1007MOL0     C35851   8.773   5.792   3.538  0.1036  0.7907  0.1204
 1007MOL0     C35852   8.746   5.773   3.385 -0.0298 -0.1638 -0.9389
 1007MOL0     C35853   8.606   5.824   3.355  0.3432 -0.2741 -0.1129
 1007MOL0     C35854   8.562   5.832   3.208 -0.5194  0.0217 -0.1425
 1007MOL0    Cl35855   8.399   5.762   3.187 -0.0409  0.2389  0.3267
 1007MOL0     C35856   9.298   5.513   4.127  0.2784  0.7686  0.0299
 1007MOL0     C35857   9.337   5.494   4.262  0.3374 -0.1161 -0.5515
 1007MOL0     O35858   9.086   5.364   4.507  0.0637 -0.3757  0.3875
 1007MOL0     C35859   9.246   5.458   4.800 -0.0177 -0.0816  0.2804
 1007MOL0     C35860   9.262   5.424   4.935  1.2923 -0.0736 -0.0360
 1007MOL0     N35861   9.479   5.646   5.353 -0.1016 -0.3748  0.5413
 1007MOL0     N35862   9.579   5.725   5.346  0.3884 -0.1743  0.6662
 1007MOL0     C35863  10.485   6.096   6.047  0.7029 -0.8493  0.1701
 1007MOL0     C35864  10.609   6.041   6.075  0.3257 -0.8730 -0.8336
 1007MOL0     C35865  10.885   5.684   6.237 -0.3022 -0.4060 -0.4986
 1007MOL0     C35866  10.889   5.543   6.252  0.4150  0.3586 -1.6364
 1007MOL0     C35867  10.997   5.485   6.317 -0.0962  0.8778 -0.4479
 1007MOL0     C35868  11.107   5.555   6.358  0.2342  0.4182 -0.6127
 1007MOL0     O35869  11.199   5.488   6.431  0.0066  0.0016  0.3257
 1007MOL0     C35870  11.340   5.526   6.442 -0.0003  1.1732  0.1487
 1007MOL0     C35871  11.440   5.404   6.447  0.4661 -0.4562  0.5560
 1007MOL0     C35872  11.410   5.293   6.345  0.1731  0.3378 -0.0367
 1007MOL0     C35873  11.536   5.214   6.321  0.5224 -0.6707 -0.7501
 1007MOL0     C35874  11.562   5.107   6.413  0.2413  1.0423 -0.7701
 1007MOL0     C35875  11.595   5.018   6.484  0.3779  0.1783 -0.4040
 1007MOL0     C35876  11.103   5.697   6.351  0.2952  0.4547  0.0117
 1007MOL0     C35877  10.988   5.758   6.305  0.2953  1.3011  1.0420
 1007MOL0     H35878  10.520   5.819   6.308  0.7155 -0.7262 -1.7167
 1007MOL0     H35879  10.297   5.940   6.282  0.3795  1.4620  1.4527
 1007MOL0     H35880  10.301   6.266   5.950 -0.6952 -0.1050  2.3442
 1007MOL0     H35881  10.268   6.116   5.862 -2.1452  0.7960 -0.4844
 1007MOL0     H35882  10.047   6.269   6.021 -0.0842 -2.5382  0.7843
 1007MOL0     H35883  10.084   6.302   5.857 -1.6527 -1.7449 -1.8775
 1007MOL0     H35884  10.025   6.060   5.797 -2.8623 -2.0042 -0.4490
 1007MOL0     H35885   9.996   6.020   5.966 -0.1053  0.3542 -0.2147
 1007MOL0     H35886   9.801   6.174   5.964 -2.9267 -1.8360 -1.8490
 1007MOL0     H35887   9.835   6.222   5.804  2.5875  0.4005 -0.1599
 1007MOL0     H35888   9.780   5.942   5.899  0.6132 -3.7815 -3.2544
 1007MOL0     H35889   9.664   6.046   5.812 -0.4562 -1.4983  1.1529
 1007MOL0     H35890   9.789   6.042   5.598 -1.4804 -1.0212 -2.0845
 1007MOL0     H35891   9.911   5.945   5.669 -0.1804  0.5147 -2.2781
 1007MOL0     H35892   9.756   5.761   5.705  1.5678 -0.1211  0.4668
 1007MOL0     H35893   9.618   5.870   5.636  1.5757  3.2397 -2.9389
 1007MOL0     H35894   9.853   5.710   5.526  0.5226  2.2809 -0.7560
 1007MOL0     H35895   9.810   5.859   5.438 -2.0498  1.9837 -0.0572
 1007MOL0     H35896   9.622   5.570   5.633  1.4042  3.0618 -0.2866
 1007MOL0     H35897   9.416   5.430   5.609  2.4805 -1.9869 -0.0866
 1007MOL0     H35898   9.297   5.471   5.488  0.9749  1.6016 -2.1542
 1007MOL0     H35899   9.453   5.226   5.490 -2.4350 -0.4268 -1.3155
 1007MOL0     H35900   9.516   5.317   5.362 -0.9201 -0.8301 -0.7658
 1007MOL0     H35901   9.220   5.278   5.401 -1.1644  0.4024 -2.6876
 1007MOL0     H35902   9.328   5.158   5.328 -0.3480  0.1819  0.7501
 1007MOL0     H35903   9.406   5.368   5.163 -0.7249 -0.3859 -1.0335
 1007MOL0     H35904   9.258   5.428   5.232 -1.7056 -1.5559 -0.1623
 1007MOL0     H35905   9.181   5.097   4.905  2.6482 -0.5458 -0.5789
 1007MOL0     H35906   9.183   5.019   4.674  0.5608  0.7981  1.7505
 1007MOL0     H35907   9.051   5.125   4.626 -0.0796 -1.3401 -1.0259
 1007MOL0     H35908   9.211   5.139   4.545  0.9926 -3.3189 -0.4916
 1007MOL0     H35909   9.071   5.644   4.402  0.5000 -0.4556  0.9443
 1007MOL0     H35910   9.015   5.693   4.173 -0.9822 -2.8051 -1.1929
 1007MOL0     H35911   9.013   5.453   3.944 -0.0446 -0.1776  1.6316
 1007MOL0     H35912   8.936   5.606   3.979 -1.3124 -2.6255 -0.5102
 1007MOL0     H35913   9.104   5.594   3.716  0.1678 -0.2442 -0.0990
 1007MOL0     H35914   8.960   5.493   3.723 -1.5563  0.7034  0.8298
 1007MOL0     H35915   8.934   5.790   3.782 -3.3921  1.8724 -2.2267
 1007MOL0     H35916   8.814   5.660   3.771 -0.6993  2.8293  1.9017
 1007MOL0     H35917   8.997   5.753   3.555  1.5352 -1.2334  0.4660
 1007MOL0     H35918   8.890   5.617   3.537  2.9222 -0.2204  0.7286
 1007MOL0     H35919   8.778   5.900   3.557 -2.1629  0.6413  1.9933
 1007MOL0     H35920   8.684   5.753   3.587  1.4121 -3.6959 -0.6412
 1007MOL0     H35921   8.826   5.828   3.334 -0.2008 -0.6549 -1.7540
 1007MOL0     H35922   8.755   5.668   3.355  1.4049 -0.7175  1.2159
 1007MOL0     H35923   8.599   5.925   3.399 -3.0565 -0.5079  0.1411
 1007MOL0     H35924   8.530   5.765   3.407  1.4719 -0.7490  1.0742
 1007MOL0     H35925   8.624   5.762   3.150  1.1280  1.9406 -0.8115
 1007MOL0     H35926   8.580   5.930   3.162  0.5956  0.4227  1.1089
 1007MOL0     H35927   9.361   5.475   4.047  0.3996 -2.1491  1.3791
 1007MOL0     H35928   9.435   5.450   4.276  0.8781  1.3383  0.5918
 1007MOL0     H35929   9.244   5.565   4.781 -0.4558 -0.0470  0.5168
 1007MOL0     H35930   9.276   5.500   5.010 -0.3834 -2.2124  2.6576
 1007MOL0     H35931  10.499   6.160   5.960  4.0567 -2.5809 -0.7286
 1007MOL0     H35932  10.689   6.097   6.027  3.6869 -1.3180  3.5526
 1007MOL0     H35933  10.816   5.477   6.206  0.1666  0.9619 -2.1162
 1007MOL0     H35934  11.002   5.379   6.337 -0.6732  0.6273 -1.5731
 1007MOL0     H35935  11.365   5.590   6.357  1.2450  1.7301  0.9123
 1007MOL0     H35936  11.347   5.583   6.535 -0.0281  1.6169 -0.1182
 1007MOL0     H35937  11.417   5.359   6.544 -2.0915  0.4601  0.4540
 1007MOL0     H35938  11.542   5.440   6.437  0.5293 -1.3509 -4.1893
 1007MOL0     H35939  11.370   5.337   6.254 -2.0353 -1.4320 -0.0337
 1007MOL0     H35940  11.340   5.219   6.386 -0.3103  0.3223 -0.8701
 1007MOL0     H35941  11.624   5.276   6.304  0.5608 -0.4276  0.2783
 1007MOL0     H35942  11.527   5.169   6.222  1.3931 -1.0855 -0.6502
 1007MOL0     H35943  11.640   4.942   6.545  2.2957  0.4974 -1.3390
 1007MOL0     H35944  11.183   5.767   6.375 -1.0367  2.4663 -1.1424
 1007MOL0     H35945  10.988   5.866   6.312 -1.0173  1.3301  0.8868
 1008MOL0     O35946   0.886   8.815  10.253  0.3525  0.0177  0.0241
 1008MOL0     C35947   0.992   8.749  10.242 -0.4439 -0.6253 -0.2128
 1008MOL0     O35948   1.117   8.798  10.262 -0.3804 -0.0434 -0.1586
 1008MOL0     C35949   1.130   8.921  10.318 -0.4353 -0.4194 -0.6476
 1008MOL0     C35950   1.213   8.934  10.433 -0.6066  0.3274  0.2308
 1008MOL0     C35951   1.232   9.051  10.501 -0.0565  0.1406 -1.1535
 1008MOL0     C35952   1.169   9.169  10.463 -0.5210  0.0247 -0.8945
 1008MOL0     O35953   1.185   9.286  10.535  0.2526  0.8915  0.2902
 1008MOL0     C35954   1.315   9.327  10.596 -0.5891 -0.6143  0.5495
 1008MOL0     C35955   1.309   9.479  10.631  0.5264  0.3191 -0.1786
 1008MOL0     C35956   1.261   9.495  10.773 -0.1657 -0.2144  0.1758
 1008MOL0     C35957   1.251   9.636  10.819 -0.4668 -0.4980 -0.0303
 1008MOL0     C35958   1.170   9.651  10.955  0.0225  0.0334  0.6217
 1008MOL0     C35959   1.215   9.565  11.067 -0.6188 -0.4152 -0.2909
 1008MOL0     C35960   1.173   9.618  11.200  0.6688  0.3989 -0.4338
 1008MOL0     C35961   1.223   9.526  11.323  0.5748 -0.4690 -0.3961
 1008MOL0     N35962   1.174   9.385  11.318 -0.4824  1.1205 -0.0467
 1008MOL0     C35963   1.042   9.349  11.299  0.1501 -0.3669 -0.4884
 1008MOL0     C35964   1.043   9.207  11.302  1.0251  0.6588 -0.0071
 1008MOL0     C35965   0.930   9.130  11.274 -1.1167  0.3206 -0.1210
 1008MOL0     C35966   0.862   9.080  11.404  1.0151 -0.7485 -0.0217
 1008MOL0     C35967   0.725   9.137  11.431  0.0609 -0.4081  0.5692
 1008MOL0     C35968   0.711   9.284  11.430 -0.0480 -0.8097 -0.7730
 1008MOL0     O35969   0.786   9.334  11.538 -0.2616  0.0246 -0.1698
 1008MOL0     C35970   0.808   9.467  11.528  0.1309  0.4953  0.1660
 1008MOL0     C35971   0.762   9.558  11.431  0.6106 -0.0570  0.9221
 1008MOL0     C35972   0.808   9.693  11.432  0.1880 -0.4096 -0.5662
 1008MOL0     C35973   0.744   9.785  11.335  0.2595 -0.5402 -0.3561
 1008MOL0     C35974   0.910   9.738  11.522  0.3956 -0.4225 -0.4096
 1008MOL0     C35975   0.988   9.868  11.511  0.4839 -0.8860  0.4300
 1008MOL0     O35976   1.074   9.903  11.614  0.4774 -0.2774 -0.7141
 1008MOL0     C35977   1.134  10.031  11.631 -0.5287 -0.1673  0.1609
 1008MOL0     C35978   1.243  10.030  11.715  0.1745  0.5180  0.1239
 1008MOL0     C35979   1.321  10.148  11.735 -0.1298  0.4903 -0.1965
 1008MOL0     C35980   1.277  10.268  11.679  0.2550 -0.2350  0.1336
 1008MOL0     O35981   1.337  10.394  11.690  0.7241  0.1856  0.0002
 1008MOL0     C35982   1.445  10.402  11.783 -0.3759  1.3874  0.2636
 1008MOL0     C35983   1.505  10.540  11.775  0.2968 -1.0280 -0.0756
 1008MOL0     C35984   1.524  10.592  11.638 -0.7300  0.5368  1.0699
 1008MOL0     C35985   1.611  10.508  11.554 -0.4313  0.2263 -0.3517
 1008MOL0     C35986   1.631  10.555  11.404  0.2585 -0.0703 -0.4785
 1008MOL0     C35987   1.656  10.703  11.385  0.3936  1.2500 -0.2354
 1008MOL0     C35988   1.793  10.745  11.442 -0.6677 -0.5274 -0.0143
 1008MOL0     C35989   1.795  10.897  11.429 -0.1621  0.4017 -0.2448
 1008MOL0    Cl35990   1.696  10.992  11.555 -0.0639 -0.3711  0.4930
 1008MOL0     C35991   1.161  10.263  11.605  0.3700 -0.3941 -0.0968
 1008MOL0     C35992   1.090  10.149  11.581 -0.0224 -0.3874 -0.0431
 1008MOL0     O35993   0.977   9.927  11.401 -0.5849  0.5571 -0.1569
 1008MOL0     C35994   0.946   9.644  11.619 -1.1831 -0.3446  0.8276
 1008MOL0     C35995   0.901   9.513  11.618  1.6493 -0.5766 -0.3133
 1008MOL0     N35996   1.172   9.162  11.328 -0.0632 -0.7162  0.2787
 1008MOL0     N35997   1.250   9.271  11.331  0.4317 -0.0872  0.8005
 1008MOL0     C35998   1.077   9.162  10.354 -0.6565 -0.1988 -0.8326
 1008MOL0     C35999   1.066   9.042  10.287  0.1856  0.3394 -0.4482
 1008MOL0     C36000   0.989   8.618  10.179 -0.3491  0.2538 -0.5699
 1008MOL0     C36001   0.865   8.562  10.149  0.4576 -0.2232 -0.1898
 1008MOL0     C36002   0.860   8.437  10.071 -1.2819  0.3482 -0.3949
 1008MOL0     C36003   0.984   8.359  10.071  0.6478  0.2243 -0.1648
 1008MOL0     O36004   0.993   8.226  10.025  0.4858  0.2162  0.5365
 1008MOL0     C36005   0.878   8.150   9.977 -0.7022 -0.6958  0.2072
 1008MOL0     C36006   0.868   8.170   9.822  0.9791 -0.6542  0.9935
 1008MOL0     C36007   0.790   8.057   9.759 -0.0949 -0.4787  0.8605
 1008MOL0     C36008   0.876   7.931   9.757  0.8958  0.2432  0.3735
 1008MOL0     C36009   0.793   7.816   9.717 -0.9011 -0.1329  0.2708
 1008MOL0     C36010   0.743   7.706   9.718  0.0119 -0.4097 -0.4294
 1008MOL0     C36011   1.096   8.420  10.127  0.5397  1.1959  0.7181
 1008MOL0     C36012   1.102   8.542  10.171  0.2714  0.4082  0.1935
 1008MOL0     H36013   1.253   8.842  10.474 -0.8268 -0.6493 -1.6620
 1008MOL0     H36014   1.302   9.044  10.583 -2.5604 -0.1853  1.0675
 1008MOL0     H36015   1.334   9.263  10.683  1.5773 -0.0968  0.5065
 1008MOL0     H36016   1.391   9.311  10.519 -2.7981  2.6657 -2.6311
 1008MOL0     H36017   1.413   9.514  10.626  1.3596 -1.8260  0.8724
 1008MOL0     H36018   1.243   9.528  10.559  1.4573 -1.0007 -2.0263
 1008MOL0     H36019   1.169   9.439  10.791  1.0340 -2.3012  0.1452
 1008MOL0     H36020   1.337   9.448  10.837 -0.4539 -0.0413  0.6473
 1008MOL0     H36021   1.354   9.672  10.831 -1.2934  2.2867 -0.4814
 1008MOL0     H36022   1.201   9.701  10.747  0.2849  0.7234  0.5166
 1008MOL0     H36023   1.180   9.758  10.973 -1.1598  0.3002 -0.1916
 1008MOL0     H36024   1.063   9.633  10.941 -0.1307 -2.1081  3.6569
 1008MOL0     H36025   1.172   9.465  11.055  0.0614 -0.4877 -2.6628
 1008MOL0     H36026   1.323   9.552  11.066 -0.0826  2.9804 -2.4249
 1008MOL0     H36027   1.213   9.719  11.212  0.3319  0.5602 -0.6557
 1008MOL0     H36028   1.065   9.631  11.196  0.6355  0.0378 -0.7844
 1008MOL0     H36029   1.187   9.569  11.417  1.1435  0.1501 -0.4558
 1008MOL0     H36030   1.332   9.534  11.313  0.4138  4.2123 -0.6908
 1008MOL0     H36031   0.958   9.416  11.281  0.2431 -0.3350 -0.7937
 1008MOL0     H36032   0.856   9.182  11.213 -1.6387 -1.7570 -1.3613
 1008MOL0     H36033   0.965   9.042  11.219  1.0750  1.4236 -0.6097
 1008MOL0     H36034   0.922   9.107  11.491 -2.0484  2.3948  1.3284
 1008MOL0     H36035   0.857   8.971  11.401  0.2979 -0.7159 -2.3830
 1008MOL0     H36036   0.681   9.107  11.527 -3.9107 -0.0750 -0.9528
 1008MOL0     H36037   0.658   9.092  11.357 -1.3488  1.8493  0.3755
 1008MOL0     H36038   0.605   9.306  11.447  0.7473  1.8877  1.6290
 1008MOL0     H36039   0.733   9.324  11.330  3.2978 -1.2654 -0.3233
 1008MOL0     H36040   0.704   9.534  11.343 -1.2526  0.4332  1.9629
 1008MOL0     H36041   0.755   9.891  11.356 -0.4817 -0.0606 -2.1952
 1008MOL0     H36042   0.793   9.764  11.239  0.7697 -0.6637 -0.0724
 1008MOL0     H36043   0.639   9.756  11.336  0.2407 -0.4732  0.9974
 1008MOL0     H36044   1.273   9.938  11.763 -0.0215  0.5310  0.2739
 1008MOL0     H36045   1.408  10.148  11.799 -1.5882 -0.2057  1.9160
 1008MOL0     H36046   1.396  10.393  11.881 -0.5381 -1.6183  0.0247
 1008MOL0     H36047   1.525  10.330  11.763 -1.1960  0.0844  1.4711
 1008MOL0     H36048   1.440  10.614  11.823  2.1737 -1.8105  4.0767
 1008MOL0     H36049   1.603  10.542  11.823  1.7488  2.0507 -2.7859
 1008MOL0     H36050   1.576  10.689  11.633 -1.6888  1.0073 -0.2451
 1008MOL0     H36051   1.428  10.603  11.587 -0.8959 -0.3836  1.1820
 1008MOL0     H36052   1.714  10.492  11.587  1.4007  3.3421 -3.7975
 1008MOL0     H36053   1.555  10.415  11.541  2.2944 -1.3448 -1.7234
 1008MOL0     H36054   1.542  10.539  11.342  1.0592  0.7957 -1.8944
 1008MOL0     H36055   1.718  10.504  11.361 -0.0577  0.9437 -2.4481
 1008MOL0     H36056   1.665  10.729  11.279 -1.6171  1.7462 -0.3154
 1008MOL0     H36057   1.579  10.760  11.437 -1.1460 -0.5534 -0.4742
 1008MOL0     H36058   1.873  10.703  11.382  0.6020  2.8568 -0.9457
 1008MOL0     H36059   1.807  10.711  11.545  1.5420 -0.3348 -0.1997
 1008MOL0     H36060   1.775  10.917  11.323  3.2338  1.2633 -0.8662
 1008MOL0     H36061   1.896  10.939  11.439 -0.0544  0.5046 -1.5535
 1008MOL0     H36062   1.124  10.355  11.559 -0.6242  0.0589  1.5464
 1008MOL0     H36063   0.997  10.162  11.526 -0.7909 -1.2861  1.0076
 1008MOL0     H36064   1.028   9.663  11.687  1.1521  3.3502 -2.5481
 1008MOL0     H36065   0.949   9.442  11.685  2.5865 -1.6671 -2.0498
 1008MOL0     H36066   1.013   9.249  10.342 -0.0071  0.7662  1.9878
 1008MOL0     H36067   0.998   9.038  10.203  0.0060 -2.2609 -0.2676
 1008MOL0     H36068   0.776   8.624  10.150  0.8865  0.3937  0.0998
 1008MOL0     H36069   0.761   8.405  10.042 -2.7723  1.1010  3.2651
 1008MOL0     H36070   0.898   8.046  10.005 -0.0703 -0.3818  0.9474
 1008MOL0     H36071   0.782   8.179  10.020 -0.3906  0.7734 -0.0251
 1008MOL0     H36072   0.964   8.199   9.779 -0.4429  2.0013 -0.6930
 1008MOL0     H36073   0.803   8.258   9.811 -1.0946 -2.2377 -0.2750
 1008MOL0     H36074   0.768   8.086   9.656 -0.3117  1.8963  1.5086
 1008MOL0     H36075   0.703   8.051   9.825 -1.0539 -1.4681 -0.4408
 1008MOL0     H36076   0.915   7.912   9.857  0.3206  1.0855  0.7673
 1008MOL0     H36077   0.958   7.935   9.684  2.2193 -0.5438  1.7664
 1008MOL0     H36078   0.689   7.614   9.711 -1.4022  0.4780 -1.9617
 1008MOL0     H36079   1.179   8.351  10.129 -0.2151  0.1491 -1.3221
 1008MOL0     H36080   1.201   8.579  10.197  0.2033  3.9269 -3.5718
 1009MOL0     O36081   1.326   2.567   8.974 -0.3806 -0.9888 -0.3198
 1009MOL0     C36082   1.434   2.519   9.023 -0.2634 -0.2848  0.0870
 1009MOL0     O36083   1.452   2.486   9.151 -0.1380  0.5804  0.1059
 1009MOL0     C36084   1.343   2.507   9.231  0.1146  0.3974  0.5837
 1009MOL0     C36085   1.303   2.622   9.290  0.3086 -0.2128  0.4846
 1009MOL0     C36086   1.206   2.629   9.393 -0.1811  0.8051  0.4028
 1009MOL0     C36087   1.139   2.517   9.427 -0.6572  0.1008  0.5023
 1009MOL0     O36088   1.034   2.510   9.521  0.1297 -0.1233  0.2628
 1009MOL0     C36089   1.060   2.608   9.618  1.2491 -0.4022 -1.1528
 1009MOL0     C36090   0.990   2.564   9.738 -0.2639 -0.1466  0.9131
 1009MOL0     C36091   0.833   2.547   9.737 -0.3442  0.8578  0.8984
 1009MOL0     C36092   0.775   2.494   9.867 -0.4473 -0.3586  0.7002
 1009MOL0     C36093   0.625   2.465   9.851  0.5908  0.8058  0.2942
 1009MOL0     C36094   0.564   2.402   9.978 -0.1935 -0.8516  0.7502
 1009MOL0     C36095   0.426   2.381   9.950  0.5543  0.5703 -0.7828
 1009MOL0     C36096   0.343   2.317  10.056  0.4935  1.3128 -0.9458
 1009MOL0     N36097   0.203   2.337  10.019  0.3636  0.4558 -0.4107
 1009MOL0     C36098   0.136   2.448  10.032 -0.2565 -1.0534 -0.4613
 1009MOL0     C36099   0.009   2.420   9.995  0.4142 -0.6053  1.3849
 1009MOL0     C36100  -0.097   2.529   9.967  0.7280 -0.1927  0.3787
 1009MOL0     C36101  -0.119   2.610  10.091  0.3076  0.1722  0.0719
 1009MOL0     C36102  -0.189   2.529  10.208  1.8527 -0.2658  0.8601
 1009MOL0     C36103  -0.323   2.589  10.239  0.2192  0.2766  0.4167
 1009MOL0     O36104  -0.388   2.496  10.331  0.1228 -0.2183 -0.2736
 1009MOL0     C36105  -0.522   2.503  10.356 -0.4391  0.4283 -1.2749
 1009MOL0     C36106  -0.571   2.405  10.442  1.0047 -0.1055  0.5029
 1009MOL0     C36107  -0.705   2.391  10.478  0.2604 -0.3938  0.3915
 1009MOL0     C36108  -0.744   2.284  10.571  0.0351 -0.4297  0.0412
 1009MOL0     C36109  -0.796   2.492  10.425 -0.3008 -1.1232  0.2617
 1009MOL0     C36110  -0.941   2.499  10.474 -0.4553  0.8381 -0.3851
 1009MOL0     O36111  -1.000   2.384  10.514 -0.5494  0.1738  0.4751
 1009MOL0     C36112  -1.133   2.371  10.537  0.0085 -0.6804  0.0340
 1009MOL0     C36113  -1.230   2.440  10.468  0.1765 -0.3537 -1.0755
 1009MOL0     C36114  -1.371   2.425  10.481  0.7924  1.0304  0.0091
 1009MOL0     C36115  -1.409   2.321  10.574  0.4219 -0.1295  0.5529
 1009MOL0     O36116  -1.551   2.295  10.594 -0.6274 -0.1560 -0.1640
 1009MOL0     C36117  -1.626   2.406  10.646 -0.1412  0.3585 -0.4704
 1009MOL0     C36118  -1.768   2.419  10.585 -0.5239 -0.4142 -0.3312
 1009MOL0     C36119  -1.862   2.535  10.614  0.2151 -0.7407 -0.0983
 1009MOL0     C36120  -1.978   2.548  10.509 -0.3151 -0.4210 -0.6353
 1009MOL0     C36121  -1.929   2.623  10.386  0.0993 -0.8684 -0.8958
 1009MOL0     C36122  -2.050   2.678  10.308  0.1260 -0.0064  0.9752
 1009MOL0     C36123  -2.027   2.755  10.181 -0.8723 -0.4303  0.4241
 1009MOL0     C36124  -2.144   2.814  10.102 -0.3086  0.3841  0.3970
 1009MOL0    Cl36125  -2.187   2.980  10.173 -0.0333 -0.2982  0.2326
 1009MOL0     C36126  -1.316   2.252  10.651 -0.7935 -0.1518 -0.7154
 1009MOL0     C36127  -1.176   2.278  10.631  0.5672 -0.1983  0.5167
 1009MOL0     O36128  -0.986   2.611  10.475  0.5215  0.6212  0.4218
 1009MOL0     C36129  -0.746   2.591  10.341  0.3303  0.4649 -0.2240
 1009MOL0     C36130  -0.615   2.587  10.308  0.9371 -0.6345 -0.1983
 1009MOL0     N36131   0.003   2.293   9.948  0.6618  0.0036  0.9187
 1009MOL0     N36132   0.120   2.246   9.959 -0.5885 -0.8605 -0.2216
 1009MOL0     C36133   1.180   2.399   9.367 -0.0152 -0.3493 -0.1075
 1009MOL0     C36134   1.285   2.388   9.275 -0.0329 -0.0250 -0.0705
 1009MOL0     C36135   1.567   2.536   8.949  0.2182  0.7488  0.3934
 1009MOL0     C36136   1.573   2.547   8.807 -0.3517 -0.5727  0.6652
 1009MOL0     C36137   1.693   2.564   8.739  0.0642  0.1244 -0.4622
 1009MOL0     C36138   1.819   2.571   8.804  1.2503 -0.4729 -0.6110
 1009MOL0     O36139   1.946   2.601   8.746 -0.0530 -0.5218 -0.1097
 1009MOL0     C36140   1.953   2.624   8.609  0.1227  1.0039  0.5197
 1009MOL0     C36141   2.099   2.674   8.563  0.3258 -0.2754  0.5369
 1009MOL0     C36142   2.106   2.744   8.427 -0.8632  0.7114 -0.0488
 1009MOL0     C36143   2.103   2.642   8.308 -0.9669  0.1641 -1.0011
 1009MOL0     C36144   2.217   2.550   8.316  0.3801  0.3049 -0.1456
 1009MOL0     C36145   2.298   2.464   8.340  0.7975  0.2057 -0.4330
 1009MOL0     C36146   1.810   2.569   8.948 -0.2463 -0.0330 -0.1331
 1009MOL0     C36147   1.687   2.540   9.019 -0.6241 -0.6064  1.3441
 1009MOL0     H36148   1.338   2.719   9.255  0.9771 -1.4383 -2.5386
 1009MOL0     H36149   1.165   2.723   9.431  0.9284  1.0178  1.1306
 1009MOL0     H36150   1.160   2.626   9.658  0.2480  2.3314  0.3892
 1009MOL0     H36151   1.021   2.705   9.586  0.2272 -1.2861 -2.7141
 1009MOL0     H36152   1.029   2.463   9.751  0.2965 -0.0103  0.3382
 1009MOL0     H36153   1.023   2.611   9.831  5.3681 -3.0107  0.7733
 1009MOL0     H36154   0.800   2.645   9.700  0.6715  1.6759  2.0941
 1009MOL0     H36155   0.805   2.469   9.666  1.7512 -0.0586  0.9963
 1009MOL0     H36156   0.832   2.419   9.922 -0.9270 -2.4557 -1.4946
 1009MOL0     H36157   0.788   2.579   9.934  2.6690  0.5144 -0.8379
 1009MOL0     H36158   0.577   2.560   9.825 -2.5655 -1.0032 -1.1431
 1009MOL0     H36159   0.608   2.393   9.770 -0.7489  0.2491  1.0400
 1009MOL0     H36160   0.623   2.315  10.009 -0.5125  0.0993  4.6607
 1009MOL0     H36161   0.576   2.470  10.064 -1.8049 -1.4713  1.5058
 1009MOL0     H36162   0.375   2.473   9.918  0.9447  1.7925  1.7927
 1009MOL0     H36163   0.424   2.307   9.869  0.5893 -2.8553  2.0825
 1009MOL0     H36164   0.371   2.352  10.156 -0.8851 -1.8185  0.6989
 1009MOL0     H36165   0.362   2.209  10.057 -0.4332  1.1316 -1.1491
 1009MOL0     H36166   0.176   2.543  10.066 -5.3037  0.4992  2.2314
 1009MOL0     H36167  -0.054   2.593   9.890  1.3774  0.9660  1.6653
 1009MOL0     H36168  -0.197   2.492   9.939 -0.3167  1.5280  1.6343
 1009MOL0     H36169  -0.172   2.700  10.058  2.9500  0.6417 -3.5823
 1009MOL0     H36170  -0.029   2.652  10.135  0.1100 -1.6149  2.3830
 1009MOL0     H36171  -0.123   2.538  10.295  0.7489 -0.2148  1.7105
 1009MOL0     H36172  -0.203   2.422  10.188  1.1974  0.1908 -1.4812
 1009MOL0     H36173  -0.380   2.615  10.149  1.8062  3.2468  0.1338
 1009MOL0     H36174  -0.305   2.687  10.283  3.4460  0.6151 -1.3266
 1009MOL0     H36175  -0.501   2.329  10.477 -0.5830 -1.8953 -0.0777
 1009MOL0     H36176  -0.773   2.335  10.663 -0.3181  1.3748 -1.0204
 1009MOL0     H36177  -0.824   2.229  10.522  0.5587 -0.7839 -0.4319
 1009MOL0     H36178  -0.663   2.211  10.581 -0.5072 -1.4835 -2.6338
 1009MOL0     H36179  -1.206   2.523  10.402  1.2741  0.4158  0.2402
 1009MOL0     H36180  -1.446   2.471  10.417 -1.0736 -2.2040 -0.3444
 1009MOL0     H36181  -1.632   2.391  10.754 -1.5449 -3.7942 -0.9606
 1009MOL0     H36182  -1.574   2.499  10.621  0.8188 -0.0323  0.0509
 1009MOL0     H36183  -1.747   2.431  10.478 -0.4741  3.8088 -0.0229
 1009MOL0     H36184  -1.837   2.339  10.614 -1.1269  1.6215  4.9244
 1009MOL0     H36185  -1.809   2.631  10.616  0.0350 -0.6393  1.8116
 1009MOL0     H36186  -1.897   2.510  10.715 -0.8664 -1.1858 -0.5692
 1009MOL0     H36187  -2.019   2.448  10.493 -1.4466 -0.1947  0.6539
 1009MOL0     H36188  -2.063   2.604  10.550  1.4831  0.7076  1.8036
 1009MOL0     H36189  -1.872   2.559  10.318  2.7714  2.6037 -2.2119
 1009MOL0     H36190  -1.881   2.715  10.419 -5.9260  1.6773  2.3908
 1009MOL0     H36191  -2.119   2.595  10.288 -0.8622  0.9717  0.1661
 1009MOL0     H36192  -2.104   2.744  10.376 -0.1003 -0.9361  1.7233
 1009MOL0     H36193  -1.970   2.696  10.109 -1.5515  0.0571 -0.5263
 1009MOL0     H36194  -1.976   2.848  10.209  0.3839 -0.2556 -2.1838
 1009MOL0     H36195  -2.227   2.742  10.103 -0.8408  0.6226 -4.4048
 1009MOL0     H36196  -2.119   2.821   9.996  1.2429  1.6903  0.8055
 1009MOL0     H36197  -1.342   2.174  10.721  1.3635  1.0520  1.6075
 1009MOL0     H36198  -1.103   2.213  10.677  2.2680  0.1184 -1.5538
 1009MOL0     H36199  -0.814   2.668  10.303  0.6068 -0.5567 -3.0081
 1009MOL0     H36200  -0.580   2.675  10.254  0.8718  2.1362  3.8159
 1009MOL0     H36201   1.143   2.301   9.397 -1.0197  0.2345  0.6064
 1009MOL0     H36202   1.324   2.292   9.242 -0.6180 -0.8427  1.5036
 1009MOL0     H36203   1.474   2.556   8.763  0.0368  1.1800  0.0837
 1009MOL0     H36204   1.689   2.578   8.632  2.7311  0.3766 -0.6046
 1009MOL0     H36205   1.929   2.529   8.561  0.2922 -0.1062  2.4987
 1009MOL0     H36206   1.870   2.693   8.592 -1.2043  0.4181  3.7242
 1009MOL0     H36207   2.178   2.600   8.575 -1.3233 -2.1433  0.4522
 1009MOL0     H36208   2.126   2.746   8.641 -0.1721 -3.1495  3.6186
 1009MOL0     H36209   2.205   2.789   8.413 -1.3416  1.7152 -0.2555
 1009MOL0     H36210   2.020   2.810   8.413 -3.4179 -2.0693  1.3077
 1009MOL0     H36211   2.096   2.692   8.212  3.6647  0.2591 -1.5265
 1009MOL0     H36212   2.014   2.580   8.320 -1.6796  1.3784  0.2128
 1009MOL0     H36213   2.364   2.379   8.338  0.9082  0.3008 -1.8397
 1009MOL0     H36214   1.903   2.579   9.003  1.3583  1.2590 -2.8459
 1009MOL0     H36215   1.686   2.543   9.128  1.6615  1.1656  1.4056
 1010MOL0     O36216  10.108   8.466  10.309 -0.7140 -0.1849  0.0983
 1010MOL0     C36217  10.120   8.570  10.369 -0.6414 -0.5558 -0.3564
 1010MOL0     O36218  10.070   8.695  10.340  0.2966 -0.2342  0.0772
 1010MOL0     C36219  10.040   8.732  10.214  0.8539 -0.3256 -0.5277
 1010MOL0     C36220  10.084   8.674  10.093  0.7244 -0.3895  0.2469
 1010MOL0     C36221  10.037   8.725   9.969  0.2186  0.9918  0.1703
 1010MOL0     C36222   9.935   8.818   9.957 -0.1630  0.9753 -0.0313
 1010MOL0     O36223   9.882   8.851   9.832  0.0130 -0.1091  0.3427
 1010MOL0     C36224   9.829   8.985   9.820  0.8084 -0.3893  0.5250
 1010MOL0     C36225   9.844   9.032   9.676 -0.6457 -0.0951 -0.4036
 1010MOL0     C36226   9.763   8.951   9.573  0.4016  0.1290  0.0793
 1010MOL0     C36227   9.774   8.981   9.426 -0.0443 -0.5973 -0.1500
 1010MOL0     C36228   9.694   8.886   9.331  0.5843  0.0779  0.0430
 1010MOL0     C36229   9.767   8.752   9.312  0.0763 -0.7637  0.3851
 1010MOL0     C36230   9.694   8.666   9.208 -0.8679 -0.2062 -0.1717
 1010MOL0     C36231   9.748   8.529   9.209 -0.1279  0.9120 -0.7631
 1010MOL0     N36232   9.695   8.449   9.320 -0.3834 -0.6933 -0.0885
 1010MOL0     C36233   9.561   8.409   9.328  0.3785  0.3208 -0.3649
 1010MOL0     C36234   9.552   8.358   9.456 -0.4305  0.3921  0.1031
 1010MOL0     C36235   9.416   8.307   9.492  1.2885  0.2343 -0.9132
 1010MOL0     C36236   9.399   8.238   9.634  0.2383 -0.2461 -0.4442
 1010MOL0     C36237   9.257   8.220   9.677  0.7213  0.2783  0.1071
 1010MOL0     C36238   9.142   8.254   9.579  0.7053 -0.2281 -0.0857
 1010MOL0     O36239   9.026   8.175   9.610  0.7233 -1.3281  0.1959
 1010MOL0     C36240   8.958   8.202   9.733  0.9824  0.3250  0.3449
 1010MOL0     C36241   8.907   8.088   9.804 -0.5799 -1.0469 -0.5396
 1010MOL0     C36242   8.815   8.104   9.916 -0.2165  0.1165 -0.2529
 1010MOL0     C36243   8.758   7.968   9.966  0.0674  0.0972  0.5166
 1010MOL0     C36244   8.771   8.236   9.953 -0.8097  0.2552 -0.3344
 1010MOL0     C36245   8.676   8.256  10.056  0.9596  0.1677 -0.2047
 1010MOL0     O36246   8.637   8.386  10.092  0.0777 -0.0835 -0.0716
 1010MOL0     C36247   8.564   8.408  10.211 -0.6070  0.1897 -0.4054
 1010MOL0     C36248   8.422   8.397  10.226 -0.3046 -0.4017 -0.5062
 1010MOL0     C36249   8.362   8.431  10.353  0.8762 -0.0266  0.1224
 1010MOL0     C36250   8.438   8.476  10.464  0.0488 -0.0005 -0.2184
 1010MOL0     O36251   8.366   8.494  10.578  0.1910 -0.5402 -0.9823
 1010MOL0     C36252   8.443   8.530  10.694  0.5645 -0.4006  0.8254
 1010MOL0     C36253   8.362   8.600  10.794  0.3846 -0.5561  0.7319
 1010MOL0     C36254   8.273   8.496  10.862  0.7477  0.8657  0.8296
 1010MOL0     C36255   8.332   8.423  10.985  0.3152  0.1551  0.5364
 1010MOL0     C36256   8.243   8.388  11.091 -0.1018 -0.9246 -0.6209
 1010MOL0     C36257   8.198   8.507  11.173  0.0805  0.1654 -0.0562
 1010MOL0     C36258   8.101   8.466  11.279  1.0164  0.2293  0.2027
 1010MOL0     C36259   8.058   8.584  11.363 -0.5920 -0.1231  0.0078
 1010MOL0    Cl36260   7.913   8.563  11.448  0.0420 -0.3461  0.1059
 1010MOL0     C36261   8.580   8.484  10.440  0.3367 -0.3496  0.6098
 1010MOL0     C36262   8.636   8.451  10.322 -0.1725 -0.8793  0.0619
 1010MOL0     O36263   8.647   8.159  10.122 -0.0727  0.2154  0.6851
 1010MOL0     C36264   8.825   8.346   9.880  0.1465 -1.0495 -0.0160
 1010MOL0     C36265   8.921   8.333   9.777  0.5000  0.2693  0.0968
 1010MOL0     N36266   9.673   8.353   9.517  0.1358 -0.2185 -0.2089
 1010MOL0     N36267   9.755   8.410   9.439  0.0345 -0.8060 -0.2784
 1010MOL0     C36268   9.884   8.865  10.074 -0.6186  0.4618 -0.8977
 1010MOL0     C36269   9.931   8.827  10.204  0.1011 -0.2558 -0.6284
 1010MOL0     C36270  10.220   8.567  10.473  0.1759 -0.1699 -0.0242
 1010MOL0     C36271  10.335   8.485  10.462  0.0646 -0.8930  0.3244
 1010MOL0     C36272  10.435   8.493  10.560  0.7009 -0.2900  0.0294
 1010MOL0     C36273  10.408   8.567  10.677 -0.0246 -0.9685  0.2149
 1010MOL0     O36274  10.488   8.584  10.784 -0.0975  0.2351  0.2084
 1010MOL0     C36275  10.634   8.579  10.767 -0.5711 -0.0306 -0.5018
 1010MOL0     C36276  10.686   8.491  10.877  0.3174  0.4314 -0.8435
 1010MOL0     C36277  10.689   8.337  10.832 -0.0002  0.9535 -0.6305
 1010MOL0     C36278  10.722   8.243  10.956  0.5754 -0.7797  0.3830
 1010MOL0     C36279  10.854   8.262  11.008 -0.0279  0.2290 -0.5262
 1010MOL0     C36280  10.963   8.281  11.054 -0.1311 -0.2439  0.1549
 1010MOL0     C36281  10.294   8.647  10.694  0.2319  0.1266  0.6835
 1010MOL0     C36282  10.202   8.647  10.588  0.8566 -0.7852 -1.5184
 1010MOL0     H36283  10.151   8.589  10.087 -1.2004 -1.9848  0.2377
 1010MOL0     H36284  10.094   8.691   9.883  0.9421  0.2101  0.9362
 1010MOL0     H36285   9.725   8.991   9.853  0.2676 -0.1114 -1.1538
 1010MOL0     H36286   9.887   9.048   9.888  0.9645 -1.5094  1.4630
 1010MOL0     H36287   9.812   9.135   9.664 -4.8148 -1.0456  1.1089
 1010MOL0     H36288   9.951   9.024   9.653 -0.2123  1.0510  1.0476
 1010MOL0     H36289   9.797   8.847   9.581  0.4085  0.2226  1.3815
 1010MOL0     H36290   9.657   8.950   9.598  0.0152  0.1022 -1.4266
 1010MOL0     H36291   9.744   9.086   9.412 -0.1759 -0.7709 -1.1992
 1010MOL0     H36292   9.881   8.974   9.408 -0.1899 -1.0938 -0.8281
 1010MOL0     H36293   9.592   8.873   9.366  0.2874  2.2481  0.0934
 1010MOL0     H36294   9.677   8.935   9.235 -4.4854  1.3131  1.2616
 1010MOL0     H36295   9.869   8.767   9.274 -0.2468  2.4540  0.5020
 1010MOL0     H36296   9.778   8.699   9.407  2.6922  1.5073  1.4874
 1010MOL0     H36297   9.587   8.669   9.230 -0.9419 -0.4920 -0.4827
 1010MOL0     H36298   9.706   8.699   9.105  1.2081 -1.7954 -0.5163
 1010MOL0     H36299   9.854   8.529   9.236 -0.6508  0.3229  1.5650
 1010MOL0     H36300   9.731   8.478   9.114 -2.9176  0.8590 -0.3159
 1010MOL0     H36301   9.473   8.418   9.265  1.5037 -2.2398 -2.5235
 1010MOL0     H36302   9.351   8.395   9.495 -1.4396 -1.6875  0.9224
 1010MOL0     H36303   9.389   8.234   9.415 -1.3281  2.4917 -2.3267
 1010MOL0     H36304   9.442   8.300   9.713  0.8140 -0.2242 -0.7681
 1010MOL0     H36305   9.450   8.141   9.633  2.6303  0.9230 -1.2820
 1010MOL0     H36306   9.232   8.277   9.767 -0.9310 -0.4770  0.1748
 1010MOL0     H36307   9.257   8.115   9.709  0.2832  0.3289  0.2792
 1010MOL0     H36308   9.175   8.220   9.480 -1.3462  0.3945 -1.0419
 1010MOL0     H36309   9.121   8.360   9.568  1.1620 -0.0194  0.9616
 1010MOL0     H36310   8.929   7.991   9.762 -3.5308 -1.3657 -1.5592
 1010MOL0     H36311   8.785   7.965  10.072  0.9875 -0.3730  0.2801
 1010MOL0     H36312   8.648   7.971   9.961  0.1213  1.4604 -0.2721
 1010MOL0     H36313   8.787   7.871   9.925 -3.1124 -1.3953  1.4634
 1010MOL0     H36314   8.356   8.362  10.147 -1.1740  2.1528 -1.0232
 1010MOL0     H36315   8.254   8.422  10.364  0.9898 -2.7319 -0.4742
 1010MOL0     H36316   8.492   8.442  10.737  0.4259 -0.3250  1.1439
 1010MOL0     H36317   8.523   8.598  10.664  0.0638  0.1646  0.7467
 1010MOL0     H36318   8.422   8.659  10.864  1.9440  1.7528 -2.2999
 1010MOL0     H36319   8.301   8.675  10.742  0.0204 -0.1166  1.7673
 1010MOL0     H36320   8.244   8.423  10.785  0.6157  3.2983 -1.6004
 1010MOL0     H36321   8.175   8.542  10.883 -0.2280 -0.1767 -1.1365
 1010MOL0     H36322   8.381   8.332  10.948 -0.5150  0.0942 -0.4527
 1010MOL0     H36323   8.400   8.496  11.031  0.1821 -0.0352  1.0360
 1010MOL0     H36324   8.296   8.315  11.153  1.1306  0.4463 -0.0092
 1010MOL0     H36325   8.156   8.342  11.042 -0.5119 -1.6355  0.7073
 1010MOL0     H36326   8.282   8.552  11.227 -0.3984 -1.3247  2.0871
 1010MOL0     H36327   8.148   8.577  11.106 -1.8665  2.1339  3.2039
 1010MOL0     H36328   8.138   8.381  11.337 -2.5868 -3.0103 -1.7073
 1010MOL0     H36329   8.014   8.431  11.222  1.2913 -0.5241  0.2394
 1010MOL0     H36330   8.052   8.671  11.297  2.7055  0.2402  0.0029
 1010MOL0     H36331   8.138   8.621  11.428 -1.7395  1.2230  0.7278
 1010MOL0     H36332   8.642   8.510  10.524  0.3091 -0.2201  0.5895
 1010MOL0     H36333   8.744   8.453  10.313 -0.1554  0.2885  0.3798
 1010MOL0     H36334   8.793   8.444   9.915  0.0230 -0.9843 -0.3097
 1010MOL0     H36335   8.973   8.420   9.738  0.3418  0.4032  0.1823
 1010MOL0     H36336   9.802   8.935  10.080 -1.3333 -0.4714  1.7211
 1010MOL0     H36337   9.896   8.872  10.296 -0.4579 -1.7188 -0.0955
 1010MOL0     H36338  10.354   8.422  10.375  2.3120 -0.4177  0.4294
 1010MOL0     H36339  10.521   8.427  10.555  1.6552  0.9425 -0.5528
 1010MOL0     H36340  10.665   8.543  10.669  1.7109 -1.4953  0.6760
 1010MOL0     H36341  10.675   8.680  10.771 -2.7155  0.8777  0.1581
 1010MOL0     H36342  10.624   8.497  10.967  0.3712 -1.7889 -0.6128
 1010MOL0     H36343  10.785   8.526  10.909 -0.7143  1.3413  1.5920
 1010MOL0     H36344  10.775   8.339  10.765  1.4157 -0.2268  1.0458
 1010MOL0     H36345  10.598   8.308  10.780 -0.6676  0.5504  0.6994
 1010MOL0     H36346  10.713   8.138  10.927  1.5209 -1.3808  2.1282
 1010MOL0     H36347  10.647   8.255  11.034  1.7261 -4.9260  2.4239
 1010MOL0     H36348  11.058   8.313  11.092 -0.4166 -1.1064  1.6800
 1010MOL0     H36349  10.274   8.714  10.777 -1.7306 -0.8992  1.0878
 1010MOL0     H36350  10.112   8.708  10.600 -0.3857 -2.3003 -2.6040
 1011MOL0     O36351   0.099  11.226   8.353 -0.1512 -0.8397 -0.5367
 1011MOL0     C36352   0.219  11.212   8.326  0.6702 -0.1992  0.2477
 1011MOL0     O36353   0.280  11.094   8.327 -0.1590 -0.8244  0.9237
 1011MOL0     C36354   0.241  10.987   8.394  0.0426  0.2852 -0.4428
 1011MOL0     C36355   0.161  10.996   8.510  0.2277 -0.7668 -0.0863
 1011MOL0     C36356   0.131  10.892   8.589 -0.4261  0.2596 -0.6392
 1011MOL0     C36357   0.185  10.764   8.558  0.1570 -0.8358 -0.4242
 1011MOL0     O36358   0.154  10.672   8.654 -0.3439  0.2124  0.2151
 1011MOL0     C36359   0.250  10.578   8.692 -0.2703  0.4730 -0.2704
 1011MOL0     C36360   0.170  10.464   8.762 -0.1890 -0.9769  0.0006
 1011MOL0     C36361   0.111  10.497   8.902 -0.0774  0.9562  0.8108
 1011MOL0     C36362   0.044  10.374   8.961 -0.0083 -0.0178 -0.2797
 1011MOL0     C36363   0.020  10.395   9.111 -0.1014  0.4174 -1.0651
 1011MOL0     C36364  -0.027  10.266   9.182 -0.3143 -0.3576 -0.2362
 1011MOL0     C36365  -0.059  10.308   9.328 -0.1541  0.7322 -0.5440
 1011MOL0     C36366  -0.077  10.183   9.413 -0.4951 -0.0784 -0.9257
 1011MOL0     N36367  -0.192  10.107   9.359  0.4462  0.2929  0.6748
 1011MOL0     C36368  -0.188   9.964   9.350  0.1569  0.4796  0.0586
 1011MOL0     C36369  -0.318   9.925   9.327 -0.1252  0.1892 -0.2034
 1011MOL0     C36370  -0.374   9.794   9.337  0.1449  0.2253  0.6077
 1011MOL0     C36371  -0.316   9.679   9.252 -0.4577  0.2692  0.7551
 1011MOL0     C36372  -0.340   9.704   9.107 -0.0338 -0.7480 -0.5631
 1011MOL0     C36373  -0.353   9.561   9.030  0.3968  0.4850 -0.0491
 1011MOL0     O36374  -0.225   9.495   9.025  0.6699  0.6580 -0.2653
 1011MOL0     C36375  -0.213   9.357   9.029 -0.9133  0.2300  1.0798
 1011MOL0     C36376  -0.094   9.299   9.007  0.2322  0.0292 -0.0632
 1011MOL0     C36377  -0.073   9.156   9.009 -0.3663  0.4726  0.1759
 1011MOL0     C36378   0.072   9.106   8.988  0.0376  0.2902  0.0308
 1011MOL0     C36379  -0.187   9.076   9.034 -0.0789 -0.5250 -0.6096
 1011MOL0     C36380  -0.196   8.932   9.046 -1.3068  0.7448 -0.4003
 1011MOL0     O36381  -0.286   8.877   9.132  0.3329 -1.2546  0.1404
 1011MOL0     C36382  -0.319   8.745   9.121  0.2015 -0.1183 -0.7820
 1011MOL0     C36383  -0.287   8.658   9.224  0.4021  0.8803  0.2084
 1011MOL0     C36384  -0.322   8.516   9.212 -0.6391  0.6243 -0.0804
 1011MOL0     C36385  -0.399   8.472   9.099 -0.4502 -1.0953 -0.5339
 1011MOL0     O36386  -0.455   8.348   9.099 -1.1286  0.0839  0.4523
 1011MOL0     C36387  -0.410   8.248   9.004  0.6999  0.3485  0.8515
 1011MOL0     C36388  -0.412   8.110   9.074 -0.4138  0.2163  0.4932
 1011MOL0     C36389  -0.383   8.008   8.961  0.1090 -0.3727  0.2576
 1011MOL0     C36390  -0.412   7.863   9.017  0.5939  0.0098 -0.8000
 1011MOL0     C36391  -0.323   7.808   9.131  0.4054  0.0745  0.0036
 1011MOL0     C36392  -0.379   7.681   9.199  1.2676  0.6962 -0.1971
 1011MOL0     C36393  -0.284   7.609   9.294 -0.3660  0.8398 -0.3458
 1011MOL0     C36394  -0.225   7.703   9.403 -0.7157  0.2414  0.9024
 1011MOL0    Cl36395  -0.356   7.787   9.506 -0.3730  0.0418  0.3506
 1011MOL0     C36396  -0.438   8.569   9.004 -0.0311  0.0771  0.2602
 1011MOL0     C36397  -0.388   8.703   9.011 -1.2583  0.2719  0.7426
 1011MOL0     O36398  -0.130   8.866   8.964 -0.0471 -0.3004  0.0356
 1011MOL0     C36399  -0.306   9.137   9.061 -0.1955 -0.4810 -0.6123
 1011MOL0     C36400  -0.312   9.270   9.063  0.7238 -0.0400  0.2108
 1011MOL0     N36401  -0.391  10.045   9.311 -0.0108  0.6742 -0.1713
 1011MOL0     N36402  -0.322  10.147   9.339  0.1007 -0.1937 -0.5872
 1011MOL0     C36403   0.273  10.754   8.444 -0.0435  0.2024  0.1495
 1011MOL0     C36404   0.295  10.868   8.364 -0.2177  0.3023  0.1965
 1011MOL0     C36405   0.293  11.332   8.265  0.2619  0.8653 -0.5264
 1011MOL0     C36406   0.256  11.463   8.299  0.8065 -0.8049  1.0373
 1011MOL0     C36407   0.335  11.559   8.241  1.0564  0.3531  0.2596
 1011MOL0     C36408   0.424  11.547   8.139  0.6368  0.5635  0.1669
 1011MOL0     O36409   0.476  11.651   8.062 -0.0381  0.8589 -0.8294
 1011MOL0     C36410   0.397  11.771   8.074  0.0908 -0.1610  0.8253
 1011MOL0     C36411   0.410  11.843   7.941 -0.4432  0.3216  0.5422
 1011MOL0     C36412   0.390  11.758   7.814  1.0993  1.1091  0.9950
 1011MOL0     C36413   0.413  11.831   7.690 -0.0103 -0.4910 -0.8600
 1011MOL0     C36414   0.370  11.736   7.580  0.2052 -0.6487  0.1355
 1011MOL0     C36415   0.330  11.662   7.495  0.0665 -0.2471  0.6117
 1011MOL0     C36416   0.455  11.417   8.112 -0.4207  0.3813  0.2425
 1011MOL0     C36417   0.396  11.307   8.166 -0.0183  0.1723  0.8288
 1011MOL0     H36418   0.119  11.094   8.530 -0.1295 -0.4697 -2.0397
 1011MOL0     H36419   0.071  10.903   8.678  0.0201  2.3416 -0.5485
 1011MOL0     H36420   0.301  10.528   8.610 -1.7883 -1.9914  0.2030
 1011MOL0     H36421   0.323  10.631   8.755  1.4972 -2.7443  0.5944
 1011MOL0     H36422   0.094  10.435   8.689 -0.1069  0.4025 -0.6502
 1011MOL0     H36423   0.254  10.394   8.768  0.5577 -0.3272 -2.0471
 1011MOL0     H36424   0.192  10.535   8.965  3.7565 -1.7858 -2.0344
 1011MOL0     H36425   0.029  10.569   8.900 -2.2414 -1.3724 -1.3371
 1011MOL0     H36426  -0.047  10.372   8.900  0.1594 -2.6295 -0.5517
 1011MOL0     H36427   0.104  10.285   8.945  0.3087  0.2877 -0.8265
 1011MOL0     H36428   0.116  10.423   9.158 -1.3211  1.6059  0.8928
 1011MOL0     H36429  -0.043  10.481   9.137  0.7066  0.5741  0.5274
 1011MOL0     H36430  -0.114  10.218   9.135 -0.1476 -0.9128  0.0187
 1011MOL0     H36431   0.051  10.190   9.177  1.1752  1.1270 -0.5115
 1011MOL0     H36432   0.018  10.373   9.370 -0.0520 -1.5264  3.2104
 1011MOL0     H36433  -0.155  10.359   9.336 -1.2938 -1.4719  0.6040
 1011MOL0     H36434  -0.117  10.200   9.513 -0.7272 -0.2177 -0.9949
 1011MOL0     H36435   0.015  10.123   9.413 -0.6677 -0.3644 -2.1250
 1011MOL0     H36436  -0.110   9.890   9.357 -2.1831 -2.0775  0.8804
 1011MOL0     H36437  -0.354   9.769   9.442 -1.3433 -1.1399  0.5982
 1011MOL0     H36438  -0.483   9.799   9.332 -0.0474 -3.1020 -1.6617
 1011MOL0     H36439  -0.375   9.589   9.273 -0.7481 -0.1459 -1.5686
 1011MOL0     H36440  -0.211   9.666   9.278 -0.4785  1.5484  1.5087
 1011MOL0     H36441  -0.268   9.768   9.055  0.2114 -0.4491  0.1298
 1011MOL0     H36442  -0.435   9.757   9.117  1.7001  2.2326  1.9226
 1011MOL0     H36443  -0.388   9.582   8.929  1.6591  0.5124 -0.4918
 1011MOL0     H36444  -0.428   9.502   9.084  0.2055  0.4039 -0.4036
 1011MOL0     H36445  -0.011   9.361   8.976  1.0985 -0.8959  0.3302
 1011MOL0     H36446   0.139   9.190   9.007 -1.1730  1.1568  0.6241
 1011MOL0     H36447   0.088   9.017   9.049  1.2689  0.4711 -0.0150
 1011MOL0     H36448   0.078   9.079   8.882  1.4984  4.7734 -1.2243
 1011MOL0     H36449  -0.225   8.696   9.305  1.3386  3.5220 -1.6241
 1011MOL0     H36450  -0.293   8.445   9.289 -1.2752  0.3371 -0.0951
 1011MOL0     H36451  -0.485   8.245   8.925 -0.7533  0.7188  2.1493
 1011MOL0     H36452  -0.319   8.271   8.948  2.9576 -3.5989  2.5034
 1011MOL0     H36453  -0.331   8.106   9.147 -0.6674  0.4458  0.7887
 1011MOL0     H36454  -0.505   8.078   9.121  0.4467  0.0242  2.1436
 1011MOL0     H36455  -0.283   8.014   8.918 -0.6299  1.5460 -1.3010
 1011MOL0     H36456  -0.453   8.027   8.879 -0.6827 -1.1961  0.7182
 1011MOL0     H36457  -0.517   7.855   9.044  0.8891 -0.0562  0.3652
 1011MOL0     H36458  -0.400   7.791   8.934 -1.5227 -1.4194  0.0604
 1011MOL0     H36459  -0.326   7.871   9.220 -1.8133 -1.2899  0.9981
 1011MOL0     H36460  -0.226   7.802   9.080  0.9103  3.0108  0.4160
 1011MOL0     H36461  -0.467   7.702   9.261  0.7627 -0.8999 -0.3200
 1011MOL0     H36462  -0.413   7.616   9.118 -0.3292 -0.1753  1.1276
 1011MOL0     H36463  -0.201   7.568   9.235 -1.7686 -1.4998 -0.8239
 1011MOL0     H36464  -0.334   7.516   9.322  3.3079 -1.5099 -0.8910
 1011MOL0     H36465  -0.175   7.782   9.347  0.5491  0.1226  1.8176
 1011MOL0     H36466  -0.159   7.648   9.471 -2.4962 -1.8854  1.0268
 1011MOL0     H36467  -0.511   8.532   8.933  0.7410 -1.2970  0.1371
 1011MOL0     H36468  -0.415   8.776   8.936  1.0346  0.5082  0.0621
 1011MOL0     H36469  -0.388   9.070   9.087  0.5716 -2.0914 -2.1203
 1011MOL0     H36470  -0.415   9.300   9.079 -0.4869 -1.9742 -3.0118
 1011MOL0     H36471   0.326  10.659   8.436 -2.9956 -1.6064  0.1344
 1011MOL0     H36472   0.359  10.862   8.276  1.1966 -0.5663  1.2386
 1011MOL0     H36473   0.185  11.494   8.374  0.7847  4.4632 -0.7572
 1011MOL0     H36474   0.323  11.654   8.293  1.5663  0.0615  0.9226
 1011MOL0     H36475   0.293  11.756   8.102 -0.6132  1.0060 -0.9857
 1011MOL0     H36476   0.435  11.837   8.152 -1.3370  0.4171  1.0468
 1011MOL0     H36477   0.510  11.886   7.931 -0.3175  0.0065  0.4285
 1011MOL0     H36478   0.344  11.930   7.937 -0.8158  0.0207 -0.0679
 1011MOL0     H36479   0.287  11.722   7.820  1.5581 -0.1552  1.6809
 1011MOL0     H36480   0.459  11.674   7.805  0.1156  0.5051 -4.2218
 1011MOL0     H36481   0.517  11.864   7.689 -0.3693  0.8887  1.1710
 1011MOL0     H36482   0.344  11.915   7.696  1.0633  0.3759 -0.4093
 1011MOL0     H36483   0.290  11.592   7.424  1.8913 -0.8564  0.1145
 1011MOL0     H36484   0.539  11.401   8.045  0.7489 -2.0271  2.1568
 1011MOL0     H36485   0.424  11.211   8.125  1.5505  1.5433 -1.5252
 1012MOL0     O36486   6.487   1.985   3.201  0.2273 -1.0011  0.4272
 1012MOL0     C36487   6.457   1.951   3.090 -0.2253 -0.3447 -0.6708
 1012MOL0     O36488   6.332   1.917   3.050  0.4972 -0.1980 -0.7060
 1012MOL0     C36489   6.221   1.958   3.119 -0.2642 -0.0656  0.1959
 1012MOL0     C36490   6.123   2.035   3.052 -0.2242 -0.7649  0.0626
 1012MOL0     C36491   6.003   2.085   3.117 -0.3759  0.0661 -0.2699
 1012MOL0     C36492   5.981   2.059   3.253  0.0734  0.8674 -0.5293
 1012MOL0     O36493   5.869   2.094   3.329  0.3982 -0.2336  0.1331
 1012MOL0     C36494   5.761   2.162   3.264 -0.0392 -0.5976 -0.7155
 1012MOL0     C36495   5.669   2.064   3.193  0.4158 -0.7312  0.5954
 1012MOL0     C36496   5.568   1.969   3.274 -0.3824  0.0266 -0.3190
 1012MOL0     C36497   5.455   1.943   3.173  0.5619  0.0560 -0.0790
 1012MOL0     C36498   5.374   1.824   3.232  0.2132 -0.1601  0.5465
 1012MOL0     C36499   5.245   1.786   3.152 -0.4520 -0.9044 -0.7028
 1012MOL0     C36500   5.169   1.679   3.233  0.1959 -0.1223  0.3109
 1012MOL0     C36501   5.060   1.602   3.163 -0.8279  0.0540  0.1198
 1012MOL0     N36502   5.034   1.477   3.227  0.8943 -0.7242 -0.7282
 1012MOL0     C36503   5.089   1.357   3.190 -0.0340 -0.0949 -0.4034
 1012MOL0     C36504   5.019   1.274   3.263  0.5084  0.3900  0.1208
 1012MOL0     C36505   5.049   1.120   3.259  0.4669 -0.9810  0.7824
 1012MOL0     C36506   5.170   1.099   3.343  0.4521 -0.6549 -0.0750
 1012MOL0     C36507   5.206   0.951   3.374  0.0037 -0.1895  0.5814
 1012MOL0     C36508   5.210   0.858   3.250 -0.3442 -0.6187  0.9197
 1012MOL0     O36509   5.246   0.726   3.292 -0.3544  0.1382 -0.0565
 1012MOL0     C36510   5.228   0.631   3.194  1.1776  0.0142  0.3223
 1012MOL0     C36511   5.188   0.498   3.232  0.4238 -0.3982  0.5116
 1012MOL0     C36512   5.169   0.389   3.148  0.5414  0.3456 -0.4149
 1012MOL0     C36513   5.107   0.268   3.205 -0.0696  0.0795 -0.5638
 1012MOL0     C36514   5.193   0.409   3.009  0.5781 -0.6528 -0.1680
 1012MOL0     C36515   5.207   0.295   2.918  0.1241 -0.5614 -0.2829
 1012MOL0     O36516   5.169   0.312   2.793 -0.8643 -0.0759 -0.1616
 1012MOL0     C36517   5.205   0.219   2.701 -0.7436  1.1271  0.3126
 1012MOL0     C36518   5.339   0.206   2.662 -0.1042  0.8073 -0.6600
 1012MOL0     C36519   5.371   0.105   2.568 -0.4421 -0.1184 -0.8593
 1012MOL0     C36520   5.281   0.023   2.507  0.5281 -0.0997  0.0352
 1012MOL0     O36521   5.302  -0.072   2.401 -0.5312 -0.4672 -0.0493
 1012MOL0     C36522   5.438  -0.108   2.369 -0.3872  0.1298  0.1507
 1012MOL0     C36523   5.439  -0.237   2.284  0.0712  0.7371 -0.5947
 1012MOL0     C36524   5.560  -0.326   2.308  0.0763  0.0054  0.4254
 1012MOL0     C36525   5.564  -0.407   2.437  0.0011  0.0931  0.0510
 1012MOL0     C36526   5.698  -0.493   2.441  0.6385 -0.7976  0.7401
 1012MOL0     C36527   5.680  -0.631   2.493  0.3676  0.1359 -0.1858
 1012MOL0     C36528   5.602  -0.645   2.618 -0.2634 -0.7241  0.5277
 1012MOL0     C36529   5.445  -0.665   2.613  0.5116 -0.5653 -0.1697
 1012MOL0    Cl36530   5.393  -0.802   2.507 -0.0497 -0.0812 -0.1224
 1012MOL0     C36531   5.149   0.037   2.552  0.1308  0.8207 -1.1051
 1012MOL0     C36532   5.112   0.130   2.653  0.4973 -0.6806  0.4006
 1012MOL0     O36533   5.264   0.199   2.964 -0.3554  0.7276  0.3795
 1012MOL0     C36534   5.218   0.538   2.963  1.1991 -0.1809  0.7560
 1012MOL0     C36535   5.237   0.648   3.051  0.5041  0.5811  0.5645
 1012MOL0     N36536   4.917   1.329   3.338 -0.1260 -0.6889  0.1576
 1012MOL0     N36537   4.924   1.453   3.307  0.3970  0.4379 -0.0648
 1012MOL0     C36538   6.075   1.972   3.319 -0.1899  0.5106  0.7055
 1012MOL0     C36539   6.191   1.914   3.246 -0.1748  0.1695  0.2675
 1012MOL0     C36540   6.566   1.934   2.997 -0.3659  0.1810  1.0168
 1012MOL0     C36541   6.532   1.887   2.863 -0.5175 -1.2635 -0.3659
 1012MOL0     C36542   6.636   1.882   2.766 -0.0588 -0.5980  0.2721
 1012MOL0     C36543   6.753   1.940   2.791 -0.3151 -0.4612  0.1302
 1012MOL0     O36544   6.844   1.929   2.687 -0.1678 -0.1570  0.1504
 1012MOL0     C36545   6.913   2.047   2.638 -1.0056  0.6162 -0.3572
 1012MOL0     C36546   7.069   2.030   2.647 -0.3207  0.4219  0.0630
 1012MOL0     C36547   7.130   2.003   2.792  0.6535  0.2246  0.1708
 1012MOL0     C36548   7.282   2.029   2.790 -0.0743  0.3499 -0.2469
 1012MOL0     C36549   7.350   1.936   2.693  0.4064  0.3579 -0.2485
 1012MOL0     C36550   7.385   1.848   2.623  0.8432 -0.3880  0.9355
 1012MOL0     C36551   6.776   2.009   2.905 -0.8100  1.1813  0.2514
 1012MOL0     C36552   6.689   2.001   3.016 -0.0483  0.7193  1.0134
 1012MOL0     H36553   6.132   2.062   2.947 -1.0625 -0.0271  0.1679
 1012MOL0     H36554   5.937   2.140   3.050 -1.0457  1.0811  1.1678
 1012MOL0     H36555   5.702   2.204   3.345 -0.6352 -0.6771 -1.1062
 1012MOL0     H36556   5.809   2.239   3.202 -0.4499 -0.3226 -0.6919
 1012MOL0     H36557   5.602   2.124   3.131  0.7606 -0.3058  0.6327
 1012MOL0     H36558   5.735   2.003   3.130  1.3815 -2.0277  2.7284
 1012MOL0     H36559   5.620   1.878   3.304  1.1985  1.9816  3.5101
 1012MOL0     H36560   5.539   2.006   3.373 -0.1812 -4.7205  1.7786
 1012MOL0     H36561   5.385   2.026   3.166  1.0381  0.3974 -0.9638
 1012MOL0     H36562   5.487   1.923   3.070  0.0248 -0.0974 -0.2225
 1012MOL0     H36563   5.448   1.744   3.245  3.2225  2.4764  0.9759
 1012MOL0     H36564   5.341   1.860   3.330 -1.2704  4.0244 -1.2950
 1012MOL0     H36565   5.174   1.869   3.144  1.1010  0.8478  2.0707
 1012MOL0     H36566   5.271   1.754   3.051  2.3180  2.5115 -1.2538
 1012MOL0     H36567   5.252   1.611   3.255 -0.1107  0.0142  1.9761
 1012MOL0     H36568   5.131   1.725   3.324 -3.1172 -0.5146 -0.7352
 1012MOL0     H36569   5.087   1.578   3.060 -1.3476  2.4986 -0.6489
 1012MOL0     H36570   4.969   1.662   3.159  0.2131  1.9629  2.6767
 1012MOL0     H36571   5.161   1.336   3.111 -1.0440 -0.8300 -1.1808
 1012MOL0     H36572   4.954   1.074   3.290  0.0128  0.1900  1.1923
 1012MOL0     H36573   5.064   1.086   3.156 -1.9510 -1.5391  0.5549
 1012MOL0     H36574   5.166   1.151   3.439  0.9738 -1.4485  0.3898
 1012MOL0     H36575   5.255   1.145   3.291 -0.5850 -0.3341 -1.5367
 1012MOL0     H36576   5.121   0.906   3.425 -1.2051 -1.5061 -2.3756
 1012MOL0     H36577   5.300   0.948   3.430 -0.3163  1.8829  1.3307
 1012MOL0     H36578   5.285   0.896   3.179 -0.5257 -1.0806  0.4758
 1012MOL0     H36579   5.112   0.861   3.202 -0.1462  3.6594  0.3644
 1012MOL0     H36580   5.170   0.480   3.337 -1.3782 -2.6146 -0.0919
 1012MOL0     H36581   5.024   0.298   3.269 -0.6068  1.4789 -1.8407
 1012MOL0     H36582   5.064   0.202   3.128  0.0182 -2.4552  1.4469
 1012MOL0     H36583   5.181   0.206   3.256 -2.6117 -4.7388 -2.0841
 1012MOL0     H36584   5.413   0.272   2.706  0.1270 -0.7453  1.3775
 1012MOL0     H36585   5.478   0.092   2.553 -0.3744  0.0898 -0.5665
 1012MOL0     H36586   5.488  -0.026   2.317  1.4571 -1.7824 -1.2876
 1012MOL0     H36587   5.494  -0.132   2.460  0.3506 -0.0401 -0.3360
 1012MOL0     H36588   5.346  -0.290   2.305  0.3743  1.0276  1.6558
 1012MOL0     H36589   5.424  -0.206   2.180 -0.9015 -0.2960 -0.7790
 1012MOL0     H36590   5.643  -0.256   2.292 -1.5651  1.2979 -3.5331
 1012MOL0     H36591   5.573  -0.389   2.220  1.0181  0.1395  0.4514
 1012MOL0     H36592   5.550  -0.349   2.528  3.1661 -1.0255  1.3671
 1012MOL0     H36593   5.478  -0.475   2.425 -1.6313  2.1660 -0.6664
 1012MOL0     H36594   5.779  -0.448   2.499 -0.1705 -0.5336  1.6805
 1012MOL0     H36595   5.745  -0.497   2.342  0.8626  0.9622  0.7449
 1012MOL0     H36596   5.642  -0.691   2.410 -0.4153  0.5390 -0.1304
 1012MOL0     H36597   5.772  -0.687   2.512 -2.1959 -4.4495  0.0743
 1012MOL0     H36598   5.628  -0.565   2.688 -1.6161  0.6420 -0.4779
 1012MOL0     H36599   5.635  -0.739   2.663  0.4965  0.1032  1.7719
 1012MOL0     H36600   5.388  -0.575   2.588  2.0957  0.2970 -0.8118
 1012MOL0     H36601   5.419  -0.687   2.717  0.2459  0.9956  0.1142
 1012MOL0     H36602   5.068  -0.023   2.513 -3.5352  3.3627  1.8072
 1012MOL0     H36603   5.012   0.120   2.691  1.1388 -2.0299  1.8168
 1012MOL0     H36604   5.242   0.546   2.858  3.3277 -1.8019  1.0366
 1012MOL0     H36605   5.278   0.737   3.005 -0.8540  0.7770 -0.3113
 1012MOL0     H36606   6.047   1.946   3.420 -2.2512  1.2287  0.3698
 1012MOL0     H36607   6.259   1.839   3.286  0.7135  0.7126 -0.1858
 1012MOL0     H36608   6.438   1.843   2.833 -1.3767 -0.9844  1.7582
 1012MOL0     H36609   6.619   1.855   2.662 -0.1270  0.8121 -0.1041
 1012MOL0     H36610   6.885   2.060   2.533 -2.1596  1.6836  0.0533
 1012MOL0     H36611   6.880   2.134   2.695 -0.2911  0.1685  0.7750
 1012MOL0     H36612   7.119   2.110   2.592  0.2364  1.7612  2.3541
 1012MOL0     H36613   7.089   1.937   2.594 -6.5197 -0.3668 -1.6705
 1012MOL0     H36614   7.109   1.905   2.835  2.9655 -0.7710 -0.8117
 1012MOL0     H36615   7.076   2.074   2.856  1.2175 -1.1759  2.2930
 1012MOL0     H36616   7.322   2.015   2.891 -1.5833  0.4330  0.3980
 1012MOL0     H36617   7.302   2.135   2.775  0.3286  0.4986  1.1960
 1012MOL0     H36618   7.410   1.762   2.564  1.8672 -1.6110  3.0729
 1012MOL0     H36619   6.877   2.048   2.914 -0.2660 -0.1078 -0.1541
 1012MOL0     H36620   6.723   2.040   3.111  1.8054  1.4597  0.1107
 1013MOL0     O36621   0.655   6.935   5.402 -0.8730 -0.3281  0.2610
 1013MOL0     C36622   0.553   6.973   5.455 -0.4100  0.6220 -0.7890
 1013MOL0     O36623   0.445   6.902   5.483 -0.4852  0.2624 -0.1118
 1013MOL0     C36624   0.438   6.768   5.481 -0.3727  1.0963  0.2845
 1013MOL0     C36625   0.546   6.677   5.461 -0.1707  0.4940  0.1938
 1013MOL0     C36626   0.527   6.538   5.481  0.1343 -0.0861  0.6981
 1013MOL0     C36627   0.399   6.485   5.503 -0.7598  0.9668 -0.4702
 1013MOL0     O36628   0.380   6.350   5.499  0.9476 -0.2380  0.4669
 1013MOL0     C36629   0.488   6.257   5.468  0.9747 -0.2287  0.1853
 1013MOL0     C36630   0.543   6.264   5.333  0.2572 -0.0687  0.3590
 1013MOL0     C36631   0.431   6.229   5.230  0.2301 -0.6069  0.7037
 1013MOL0     C36632   0.382   6.087   5.231 -0.0916  0.0252  0.4645
 1013MOL0     C36633   0.267   6.063   5.137 -0.5632 -0.0114 -0.2132
 1013MOL0     C36634   0.226   5.925   5.103 -1.2688  0.1094 -0.4787
 1013MOL0     C36635   0.123   5.913   4.994 -0.5523  0.0863  0.8412
 1013MOL0     C36636   0.108   5.767   4.942  0.7255 -0.1780  0.5114
 1013MOL0     N36637  -0.017   5.749   4.858 -0.3998 -0.3363 -0.5014
 1013MOL0     C36638  -0.023   5.783   4.728 -0.1298  0.2801 -0.3901
 1013MOL0     C36639  -0.147   5.739   4.696 -0.4655 -0.3206 -0.3847
 1013MOL0     C36640  -0.204   5.745   4.551  0.3667 -0.7033 -0.1211
 1013MOL0     C36641  -0.315   5.852   4.545 -0.0326 -0.5166  0.0172
 1013MOL0     C36642  -0.268   5.990   4.563  0.1807 -0.0650  0.9573
 1013MOL0     C36643  -0.380   6.086   4.561  0.8030 -0.1553  0.5573
 1013MOL0     O36644  -0.425   6.109   4.424 -0.8902  0.7428  0.5004
 1013MOL0     C36645  -0.360   6.197   4.348 -0.4422 -0.9930  0.7785
 1013MOL0     C36646  -0.435   6.236   4.237 -0.0076 -0.1364 -0.5006
 1013MOL0     C36647  -0.405   6.341   4.158 -0.1287 -0.4216  0.6204
 1013MOL0     C36648  -0.501   6.380   4.052 -0.3616  0.4791  0.3012
 1013MOL0     C36649  -0.291   6.429   4.187  0.0081 -0.2129 -0.3933
 1013MOL0     C36650  -0.251   6.550   4.109  1.2266  0.7399 -0.5741
 1013MOL0     O36651  -0.190   6.649   4.181  0.6705  0.2736  0.1472
 1013MOL0     C36652  -0.162   6.763   4.106  0.3495  0.0219 -0.4032
 1013MOL0     C36653  -0.259   6.845   4.048  0.6706  0.2260 -0.3439
 1013MOL0     C36654  -0.216   6.961   3.984  0.6843  0.0855 -0.4086
 1013MOL0     C36655  -0.081   7.004   3.979  1.1969  0.8923  0.5704
 1013MOL0     O36656  -0.053   7.126   3.916  0.7270 -1.0419  0.7352
 1013MOL0     C36657   0.077   7.177   3.916 -0.5287 -0.9537  1.2379
 1013MOL0     C36658   0.094   7.299   3.825 -0.6691  0.1896 -0.7340
 1013MOL0     C36659   0.026   7.426   3.882  0.0149 -0.0327 -0.0331
 1013MOL0     C36660  -0.119   7.451   3.838 -1.1468 -0.2906  1.1655
 1013MOL0     C36661  -0.172   7.589   3.905 -0.7960  0.6570  0.1452
 1013MOL0     C36662  -0.318   7.605   3.857 -0.2299 -0.0069 -0.5540
 1013MOL0     C36663  -0.384   7.738   3.908  0.8043 -0.2712 -0.4243
 1013MOL0     C36664  -0.396   7.738   4.058  0.0449  0.2287 -0.6972
 1013MOL0    Cl36665  -0.506   7.612   4.086 -0.0932  0.3948  0.1461
 1013MOL0     C36666   0.013   6.910   4.035 -0.1502 -1.3443  0.2841
 1013MOL0     C36667  -0.031   6.797   4.096  0.6278 -0.5972  0.4065
 1013MOL0     O36668  -0.283   6.552   3.988 -0.7811 -0.7756 -0.2203
 1013MOL0     C36669  -0.220   6.399   4.296 -0.6391  0.2979  0.3483
 1013MOL0     C36670  -0.253   6.287   4.373  0.1093 -0.1925 -0.7914
 1013MOL0     N36671  -0.223   5.691   4.807 -0.2993  0.1531  0.0198
 1013MOL0     N36672  -0.135   5.683   4.894 -0.0491 -0.9639 -0.3386
 1013MOL0     C36673   0.291   6.567   5.503 -0.9760 -0.2168 -0.2143
 1013MOL0     C36674   0.304   6.711   5.494 -0.7833 -0.4901  0.3659
 1013MOL0     C36675   0.546   7.110   5.511 -0.9006  0.2756 -0.3768
 1013MOL0     C36676   0.655   7.204   5.509  0.0867  0.2447  0.7787
 1013MOL0     C36677   0.649   7.332   5.583 -0.0683  0.0974  0.2494
 1013MOL0     C36678   0.525   7.370   5.632  0.0804 -0.2286 -0.7091
 1013MOL0     O36679   0.494   7.486   5.697 -0.5241  0.7195  0.2633
 1013MOL0     C36680   0.558   7.614   5.677  0.7211  0.2867  0.4878
 1013MOL0     C36681   0.503   7.685   5.547 -0.7824  0.8049 -0.9764
 1013MOL0     C36682   0.348   7.687   5.547 -1.2631  0.6834  0.1740
 1013MOL0     C36683   0.274   7.729   5.677 -0.2968 -0.8451 -0.0851
 1013MOL0     C36684   0.312   7.878   5.689  0.7493 -0.0767 -0.6770
 1013MOL0     C36685   0.324   8.006   5.703 -0.3597 -0.8776  0.6590
 1013MOL0     C36686   0.417   7.274   5.629 -0.0587 -0.2298 -1.1413
 1013MOL0     C36687   0.430   7.147   5.573  0.0249  0.8485 -0.6045
 1013MOL0     H36688   0.651   6.700   5.446 -0.2659  0.4337 -0.5945
 1013MOL0     H36689   0.622   6.485   5.475 -0.4327 -1.1080  0.5408
 1013MOL0     H36690   0.572   6.281   5.534  0.6173 -1.2814  1.0501
 1013MOL0     H36691   0.462   6.157   5.503  0.6625  0.8317  3.2806
 1013MOL0     H36692   0.587   6.363   5.316  1.1318 -0.6479 -0.8717
 1013MOL0     H36693   0.630   6.200   5.316  1.1785  1.1261  0.4244
 1013MOL0     H36694   0.345   6.287   5.265  0.7526  0.1705  0.7354
 1013MOL0     H36695   0.448   6.265   5.129  0.2895  0.0538  0.9410
 1013MOL0     H36696   0.456   6.007   5.217 -1.4436 -1.5509  1.7804
 1013MOL0     H36697   0.354   6.072   5.336  0.4879  1.4820  0.8462
 1013MOL0     H36698   0.187   6.114   5.190  1.2700  2.2579  0.5742
 1013MOL0     H36699   0.281   6.111   5.039  0.8931  1.3544  0.6253
 1013MOL0     H36700   0.315   5.874   5.063 -0.7801  0.0823  0.6073
 1013MOL0     H36701   0.196   5.869   5.191 -0.1874  1.8722  1.0978
 1013MOL0     H36702   0.026   5.947   5.031 -0.5300 -0.4793  1.4462
 1013MOL0     H36703   0.151   5.979   4.912 -3.9360 -0.1754 -0.7262
 1013MOL0     H36704   0.117   5.697   5.026  2.8254 -2.9174 -1.7623
 1013MOL0     H36705   0.194   5.756   4.874 -0.8334  1.3493 -1.8525
 1013MOL0     H36706   0.044   5.820   4.651  1.2518 -1.3489 -0.0259
 1013MOL0     H36707  -0.142   5.769   4.464 -0.9797  1.9872 -0.4378
 1013MOL0     H36708  -0.247   5.648   4.525  1.4427 -1.0821 -0.5374
 1013MOL0     H36709  -0.395   5.836   4.617 -3.1089 -0.5119 -3.1072
 1013MOL0     H36710  -0.362   5.841   4.447 -0.5527 -2.6463  0.4419
 1013MOL0     H36711  -0.186   6.008   4.493  0.2397 -4.6126 -0.4850
 1013MOL0     H36712  -0.240   5.991   4.668  2.8662 -1.1827  0.3283
 1013MOL0     H36713  -0.346   6.181   4.605 -0.7958  0.9688 -0.5165
 1013MOL0     H36714  -0.468   6.051   4.615 -1.2339  1.9330 -1.2004
 1013MOL0     H36715  -0.523   6.182   4.205  0.0813 -0.5159 -0.1176
 1013MOL0     H36716  -0.603   6.350   4.081 -0.9298  1.4976 -0.5751
 1013MOL0     H36717  -0.510   6.487   4.035 -3.3250  0.2224 -0.3921
 1013MOL0     H36718  -0.480   6.324   3.961 -2.5146 -1.2933  0.7797
 1013MOL0     H36719  -0.367   6.837   4.045  0.6266  1.0447 -1.1237
 1013MOL0     H36720  -0.298   7.027   3.957 -1.3249 -2.1311 -0.0502
 1013MOL0     H36721   0.094   7.217   4.016  2.8015  0.5277  0.2426
 1013MOL0     H36722   0.159   7.111   3.885 -2.7133 -1.9624 -3.3172
 1013MOL0     H36723   0.201   7.319   3.812 -1.0396  2.6221 -0.4851
 1013MOL0     H36724   0.052   7.277   3.726 -2.6701 -0.3784  0.1943
 1013MOL0     H36725   0.088   7.507   3.842 -1.4582  0.1347 -2.1008
 1013MOL0     H36726   0.031   7.426   3.992  1.4244 -0.3164 -0.0770
 1013MOL0     H36727  -0.117   7.470   3.730  0.8494  4.1506  1.7584
 1013MOL0     H36728  -0.186   7.373   3.875  0.1706 -1.4807  1.1379
 1013MOL0     H36729  -0.112   7.673   3.868  1.0563 -0.9195 -0.6312
 1013MOL0     H36730  -0.166   7.586   4.014 -0.8846 -1.5152  0.1371
 1013MOL0     H36731  -0.319   7.600   3.748  0.2872  1.2780 -0.6282
 1013MOL0     H36732  -0.369   7.519   3.901  0.7213 -0.1220  0.3460
 1013MOL0     H36733  -0.480   7.757   3.860  1.0407 -2.8738 -2.1316
 1013MOL0     H36734  -0.321   7.823   3.878 -0.4450  2.6531  4.1691
 1013MOL0     H36735  -0.424   7.835   4.099  1.0305  0.2139  0.0383
 1013MOL0     H36736  -0.297   7.713   4.098  0.4162  1.0463 -1.0876
 1013MOL0     H36737   0.120   6.924   4.027 -0.0238 -1.0120  2.1988
 1013MOL0     H36738   0.040   6.719   4.123  1.2312  0.3585  1.6699
 1013MOL0     H36739  -0.145   6.463   4.341  0.2230 -1.7456  2.0088
 1013MOL0     H36740  -0.209   6.295   4.472 -0.5969  0.9477 -0.5515
 1013MOL0     H36741   0.192   6.522   5.504 -1.2342  0.3350 -0.5885
 1013MOL0     H36742   0.215   6.770   5.511  1.1611  2.0209  2.6645
 1013MOL0     H36743   0.745   7.168   5.461 -1.0287 -0.0918 -1.1441
 1013MOL0     H36744   0.727   7.408   5.578 -3.3624  3.7165 -1.1574
 1013MOL0     H36745   0.524   7.676   5.761  0.0555 -0.4703  0.7887
 1013MOL0     H36746   0.665   7.602   5.695  1.2945  3.7199  0.0144
 1013MOL0     H36747   0.556   7.642   5.461  2.3982  0.6835  0.8669
 1013MOL0     H36748   0.530   7.791   5.547  0.7363  0.4460 -0.6773
 1013MOL0     H36749   0.320   7.586   5.516 -3.0335  0.8484  1.1371
 1013MOL0     H36750   0.312   7.742   5.460 -0.6141 -0.0515 -0.5861
 1013MOL0     H36751   0.308   7.673   5.765  1.8251 -2.0544 -1.5944
 1013MOL0     H36752   0.165   7.727   5.667 -0.4150 -0.8011  1.0969
 1013MOL0     H36753   0.342   8.110   5.722 -0.5571 -0.9206  1.0843
 1013MOL0     H36754   0.331   7.307   5.687  3.2511 -0.1244  4.4588
 1013MOL0     H36755   0.339   7.088   5.580  1.1746 -1.1885 -1.9476
 1014MOL0     O36756   3.350   4.176   8.917 -0.7949  0.8763  0.1958
 1014MOL0     C36757   3.258   4.096   8.913 -0.2358  0.5312  0.9300
 1014MOL0     O36758   3.140   4.138   8.868  0.3980  0.6773  0.0713
 1014MOL0     C36759   3.122   4.269   8.856  0.0646  0.2442 -0.4487
 1014MOL0     C36760   3.061   4.325   8.967  0.2738 -0.1926  0.6947
 1014MOL0     C36761   3.024   4.454   8.965 -0.3874  1.3502  0.3878
 1014MOL0     C36762   3.044   4.531   8.846 -1.5198 -0.0414  0.0418
 1014MOL0     O36763   2.985   4.652   8.833  0.3326  0.2387  0.7019
 1014MOL0     C36764   2.981   4.726   8.955  0.1982 -0.3556  0.7371
 1014MOL0     C36765   2.937   4.872   8.924  0.1022  0.1416  0.4033
 1014MOL0     C36766   2.941   4.952   9.057 -0.2298 -0.4689  0.2184
 1014MOL0     C36767   2.953   5.098   9.020 -0.0410 -0.1015 -0.5240
 1014MOL0     C36768   2.805   5.139   8.983 -0.8321 -1.2846  0.1905
 1014MOL0     C36769   2.798   5.281   8.940  0.0660 -1.0519  0.4616
 1014MOL0     C36770   2.654   5.337   8.975 -0.5679 -0.4138  0.2191
 1014MOL0     C36771   2.616   5.449   8.881 -0.6076 -0.0494  0.4547
 1014MOL0     N36772   2.722   5.556   8.867  0.4242 -0.1415 -0.1714
 1014MOL0     C36773   2.734   5.653   8.773  0.5632 -0.1759  0.4622
 1014MOL0     C36774   2.819   5.746   8.820 -0.4939  0.0519  0.5656
 1014MOL0     C36775   2.895   5.860   8.762  0.9400  0.8357  0.0926
 1014MOL0     C36776   2.866   5.862   8.608  0.5058 -0.1204  0.5739
 1014MOL0     C36777   2.938   5.981   8.536  0.4587 -0.4128 -0.4894
 1014MOL0     C36778   2.871   6.026   8.407 -0.5863 -0.3743  0.1155
 1014MOL0     O36779   2.845   5.915   8.322  0.1466  0.2678  0.3737
 1014MOL0     C36780   2.853   5.941   8.193 -0.3895  0.3818 -0.2759
 1014MOL0     C36781   2.833   6.062   8.122 -0.7525 -0.4787 -0.3740
 1014MOL0     C36782   2.848   6.082   7.982 -0.4969 -0.1883  0.5197
 1014MOL0     C36783   2.836   6.225   7.937  0.2908  0.1785 -0.2032
 1014MOL0     C36784   2.874   5.965   7.902  0.6397  0.3593  0.6547
 1014MOL0     C36785   2.865   5.975   7.749 -0.4814 -0.3057 -0.7880
 1014MOL0     O36786   2.884   6.093   7.688  0.6098  0.6558  0.2681
 1014MOL0     C36787   2.852   6.100   7.553 -0.3598 -0.6228  0.5197
 1014MOL0     C36788   2.718   6.079   7.498  1.5854 -0.8295  0.2195
 1014MOL0     C36789   2.696   6.080   7.358 -0.6141 -0.2210 -0.5936
 1014MOL0     C36790   2.793   6.127   7.280  0.5160  0.0785  0.6364
 1014MOL0     O36791   2.784   6.148   7.145 -0.1443  0.3179 -0.3787
 1014MOL0     C36792   2.693   6.097   7.041 -0.7342 -0.7955 -0.7733
 1014MOL0     C36793   2.688   5.937   7.049  0.0506 -0.9389  1.0691
 1014MOL0     C36794   2.571   5.887   6.957 -0.3840 -0.3391  0.2980
 1014MOL0     C36795   2.580   5.954   6.827  0.4167  0.3209 -0.7637
 1014MOL0     C36796   2.521   5.865   6.711  0.6396 -0.0926  0.6914
 1014MOL0     C36797   2.547   5.946   6.590 -1.3798 -0.2637 -0.7030
 1014MOL0     C36798   2.633   5.876   6.484  0.5112  1.0500  0.3715
 1014MOL0     C36799   2.593   5.904   6.334  0.4284  0.0610 -0.5987
 1014MOL0    Cl36800   2.428   5.843   6.296 -0.1677 -0.2044  0.4284
 1014MOL0     C36801   2.916   6.159   7.336 -0.7429  1.0274  0.6236
 1014MOL0     C36802   2.945   6.153   7.469 -0.2725  0.4905 -0.1755
 1014MOL0     O36803   2.847   5.869   7.692 -0.1934  0.4499 -0.8118
 1014MOL0     C36804   2.875   5.846   7.972  0.4423 -0.2010  0.6328
 1014MOL0     C36805   2.859   5.829   8.113  0.3170 -0.1945 -0.1918
 1014MOL0     N36806   2.862   5.703   8.948  0.3870  0.4376  0.2693
 1014MOL0     N36807   2.804   5.586   8.973  0.3389  0.0343  0.2313
 1014MOL0     C36808   3.110   4.466   8.732 -0.0823 -0.2903  0.4616
 1014MOL0     C36809   3.150   4.335   8.739  0.3914 -0.2394  0.2012
 1014MOL0     C36810   3.283   3.948   8.939  0.0313 -0.4308 -0.9340
 1014MOL0     C36811   3.419   3.911   8.959 -0.0580 -0.7293 -0.4647
 1014MOL0     C36812   3.433   3.779   9.007  0.6590  0.6163 -0.7664
 1014MOL0     C36813   3.326   3.681   9.030 -0.1973  0.2912 -0.0480
 1014MOL0     O36814   3.363   3.555   9.078 -0.1781  0.6735  0.1101
 1014MOL0     C36815   3.255   3.462   9.096  1.0875 -0.2110 -0.5212
 1014MOL0     C36816   3.317   3.323   9.072  0.3722 -0.0205  0.8040
 1014MOL0     C36817   3.426   3.292   9.178 -0.1069  1.4450  0.6276
 1014MOL0     C36818   3.495   3.157   9.140 -0.4130  0.1726  0.9248
 1014MOL0     C36819   3.604   3.125   9.228 -0.9268  0.5893 -0.0674
 1014MOL0     C36820   3.697   3.101   9.305 -0.3201 -0.0337  0.3105
 1014MOL0     C36821   3.196   3.732   8.989  0.2193  0.7549 -0.3653
 1014MOL0     C36822   3.171   3.862   8.954 -0.9549 -0.6403  0.5402
 1014MOL0     H36823   3.030   4.269   9.054  0.1480  1.2784  1.6301
 1014MOL0     H36824   2.965   4.487   9.050 -0.5861 -1.4195  1.4233
 1014MOL0     H36825   2.899   4.682   9.012 -0.6700  1.0914  0.6339
 1014MOL0     H36826   3.078   4.738   9.005  0.2884  1.2784  0.2379
 1014MOL0     H36827   3.012   4.917   8.859 -0.8646 -2.2286 -2.6073
 1014MOL0     H36828   2.848   4.873   8.860  1.6170  0.4152 -1.7940
 1014MOL0     H36829   2.845   4.935   9.107 -1.1861 -0.1439 -1.4502
 1014MOL0     H36830   3.029   4.922   9.115  2.1110 -0.0051 -2.8083
 1014MOL0     H36831   2.965   5.150   9.116 -1.0352  0.4226 -0.6615
 1014MOL0     H36832   3.029   5.122   8.946 -0.7341  0.1405 -1.1691
 1014MOL0     H36833   2.760   5.081   8.902  0.9288 -0.9384 -1.0935
 1014MOL0     H36834   2.739   5.128   9.070  1.1938 -0.6682  1.8916
 1014MOL0     H36835   2.873   5.351   8.979 -1.3160  1.2358 -0.7112
 1014MOL0     H36836   2.809   5.279   8.831  3.7999  0.6610  0.6682
 1014MOL0     H36837   2.579   5.258   8.972 -0.2265 -0.9252  2.7059
 1014MOL0     H36838   2.655   5.372   9.079 -0.0210  2.9441 -0.7997
 1014MOL0     H36839   2.524   5.496   8.914 -1.2290 -0.1994 -1.0250
 1014MOL0     H36840   2.603   5.417   8.777  2.6845  1.3090 -0.5101
 1014MOL0     H36841   2.677   5.640   8.682 -0.3237 -2.2220  1.2352
 1014MOL0     H36842   2.866   5.951   8.816  0.1928  0.5799  0.1303
 1014MOL0     H36843   3.003   5.843   8.774  0.5077 -4.4431 -1.1463
 1014MOL0     H36844   2.760   5.857   8.582  1.3451 -1.5439 -3.2575
 1014MOL0     H36845   2.896   5.769   8.559  1.3892 -0.7602  2.2698
 1014MOL0     H36846   3.041   5.949   8.515  0.2639 -1.3848 -0.0057
 1014MOL0     H36847   2.946   6.068   8.601  0.8822  0.2261 -1.3792
 1014MOL0     H36848   2.941   6.096   8.362 -1.2697 -0.2150 -0.7269
 1014MOL0     H36849   2.782   6.080   8.439  0.6909  1.6348  0.4062
 1014MOL0     H36850   2.829   6.152   8.183  0.3064 -1.3144  0.9633
 1014MOL0     H36851   2.924   6.274   7.894 -0.5499  0.1867 -1.9842
 1014MOL0     H36852   2.754   6.219   7.865  0.8006 -0.9349 -0.7150
 1014MOL0     H36853   2.814   6.282   8.028 -1.0074 -3.1401  1.7264
 1014MOL0     H36854   2.631   6.052   7.557  1.1998  1.5262  0.8290
 1014MOL0     H36855   2.599   6.057   7.315 -1.4482  3.1126 -0.7931
 1014MOL0     H36856   2.593   6.137   7.060 -0.6474 -0.9264 -0.0017
 1014MOL0     H36857   2.727   6.131   6.943 -2.0652  0.5230 -0.8154
 1014MOL0     H36858   2.780   5.897   7.004  0.7189 -0.2201  1.7586
 1014MOL0     H36859   2.684   5.907   7.154 -0.2442  2.6180  2.1951
 1014MOL0     H36860   2.473   5.891   7.005  0.1812 -0.1576  1.4667
 1014MOL0     H36861   2.585   5.780   6.935  1.1998  0.2175 -1.7175
 1014MOL0     H36862   2.521   6.046   6.838 -1.6437 -1.1432  1.3657
 1014MOL0     H36863   2.683   5.979   6.800  0.9021 -0.7619  0.0112
 1014MOL0     H36864   2.416   5.849   6.737  0.2265  3.8093  2.0757
 1014MOL0     H36865   2.580   5.773   6.712 -1.3366 -1.4500  2.7120
 1014MOL0     H36866   2.455   5.968   6.535 -1.8698 -1.8428 -0.5662
 1014MOL0     H36867   2.585   6.045   6.616 -4.0832  0.5480  0.4876
 1014MOL0     H36868   2.627   5.767   6.497 -2.0565  1.0276 -0.5922
 1014MOL0     H36869   2.729   5.917   6.516 -0.8569  2.4747  2.9378
 1014MOL0     H36870   2.671   5.866   6.268  2.1033  0.4859  1.0418
 1014MOL0     H36871   2.600   6.012   6.318  1.7340 -0.2644 -2.6898
 1014MOL0     H36872   3.000   6.179   7.271 -1.0268 -2.0824 -0.8732
 1014MOL0     H36873   3.050   6.164   7.495 -0.5872  1.1493  0.8426
 1014MOL0     H36874   2.892   5.752   7.919 -0.5274 -0.0960  0.1080
 1014MOL0     H36875   2.866   5.729   8.153  0.2991 -0.8241 -1.7036
 1014MOL0     H36876   3.127   4.526   8.643 -1.3247  1.3472  1.2756
 1014MOL0     H36877   3.192   4.285   8.652  0.5591 -1.2199  0.8348
 1014MOL0     H36878   3.506   3.975   8.947 -0.1181 -0.5244  0.1659
 1014MOL0     H36879   3.537   3.750   9.017  0.3952 -0.0964  0.1193
 1014MOL0     H36880   3.202   3.451   9.191  1.5088 -0.7340 -0.3374
 1014MOL0     H36881   3.173   3.476   9.026 -0.0833  0.3974  0.9342
 1014MOL0     H36882   3.350   3.322   8.967  1.1507  0.7266  1.0217
 1014MOL0     H36883   3.242   3.245   9.086  0.2927  0.1353  1.2523
 1014MOL0     H36884   3.377   3.291   9.276 -0.8891  2.1916  0.2685
 1014MOL0     H36885   3.502   3.371   9.169 -0.9524  2.0773 -1.9397
 1014MOL0     H36886   3.543   3.167   9.042 -0.6445 -2.9240  0.4017
 1014MOL0     H36887   3.421   3.076   9.137 -0.8083  0.4871  1.7803
 1014MOL0     H36888   3.781   3.065   9.360  0.3514  3.7601  2.0910
 1014MOL0     H36889   3.111   3.668   9.006  0.7236  0.6007  1.8468
 1014MOL0     H36890   3.072   3.887   8.917 -1.5201 -2.1423  0.9507
 1015MOL0     O36891   9.469   6.561   0.306 -1.0291  0.1460  0.5942
 1015MOL0     C36892   9.480   6.676   0.348 -0.0758 -0.0055 -0.8467
 1015MOL0     O36893   9.587   6.724   0.424  0.0500  0.1068  0.6904
 1015MOL0     C36894   9.687   6.633   0.446  1.5619  0.5407 -0.1507
 1015MOL0     C36895   9.786   6.617   0.349 -0.6588  0.1055  0.1202
 1015MOL0     C36896   9.875   6.517   0.370 -0.1353  0.8385 -0.5330
 1015MOL0     C36897   9.871   6.434   0.486 -0.6213 -0.1298  0.7327
 1015MOL0     O36898   9.972   6.342   0.492  0.8258 -0.1092 -0.2937
 1015MOL0     C36899   9.935   6.205   0.469  0.3285 -0.1479  0.2174
 1015MOL0     C36900  10.039   6.113   0.417  0.2036 -0.6966 -0.5701
 1015MOL0     C36901  10.081   6.154   0.278  0.3674 -0.3382  0.6403
 1015MOL0     C36902  10.223   6.101   0.236  0.0172  0.5923 -0.0863
 1015MOL0     C36903  10.279   6.133   0.090 -0.2944  0.0351 -0.1935
 1015MOL0     C36904  10.287   6.285   0.069  0.3203 -0.0299  0.3078
 1015MOL0     C36905  10.379   6.366   0.155 -0.7532 -0.3133 -0.0402
 1015MOL0     C36906  10.534   6.338   0.152 -0.4588 -0.0257  0.5545
 1015MOL0     N36907  10.584   6.342   0.012 -0.2913 -0.2676 -0.0729
 1015MOL0     C36908  10.579   6.447  -0.075  0.5035 -0.4778 -0.2318
 1015MOL0     C36909  10.622   6.402  -0.192 -0.5367 -0.5047  0.0506
 1015MOL0     C36910  10.635   6.480  -0.322 -0.5633 -0.3620 -0.3481
 1015MOL0     C36911  10.517   6.476  -0.405  0.3626 -0.7368  0.4988
 1015MOL0     C36912  10.542   6.549  -0.542  0.5218 -0.1700 -0.7584
 1015MOL0     C36913  10.661   6.492  -0.625 -0.5532  0.4082  0.2508
 1015MOL0     O36914  10.657   6.357  -0.644 -0.3599  0.3987 -0.4201
 1015MOL0     C36915  10.575   6.288  -0.726  0.8479 -0.4750 -0.0735
 1015MOL0     C36916  10.580   6.150  -0.713  0.2825  0.6780  1.1940
 1015MOL0     C36917  10.496   6.068  -0.794 -0.6775 -0.5118 -0.8112
 1015MOL0     C36918  10.496   5.922  -0.778 -0.1307  0.2071  0.4932
 1015MOL0     C36919  10.414   6.137  -0.891  0.0842  0.0354 -0.2626
 1015MOL0     C36920  10.337   6.064  -0.996 -0.6193  0.4934  0.3614
 1015MOL0     O36921  10.309   5.925  -0.982  0.4732  0.2465  0.3511
 1015MOL0     C36922  10.227   5.867  -1.075 -0.0770  0.1708  0.0967
 1015MOL0     C36923  10.241   5.731  -1.106 -0.2271 -0.0819 -0.1822
 1015MOL0     C36924  10.139   5.668  -1.177 -1.1829  0.0849 -0.1021
 1015MOL0     C36925  10.024   5.726  -1.226  0.2323 -0.2764  0.1985
 1015MOL0     O36926   9.924   5.676  -1.293  0.0105  0.0790  0.1071
 1015MOL0     C36927   9.958   5.563  -1.370  0.7286  0.4711  0.4699
 1015MOL0     C36928   9.833   5.506  -1.445  0.5919 -1.0749 -0.0700
 1015MOL0     C36929   9.859   5.375  -1.518 -0.4249  0.1637 -0.4768
 1015MOL0     C36930   9.765   5.338  -1.623 -0.3483  0.0444 -0.3471
 1015MOL0     C36931   9.812   5.226  -1.708 -0.0645 -0.3083  0.3639
 1015MOL0     C36932   9.893   5.124  -1.635  0.6664  0.2079  0.2001
 1015MOL0     C36933   9.926   5.005  -1.731 -0.0043  0.3425 -0.2360
 1015MOL0     C36934  10.008   4.909  -1.653 -0.5168 -1.4536 -0.7044
 1015MOL0    Cl36935  10.079   4.781  -1.748  0.2992 -0.1859 -0.0085
 1015MOL0     C36936  10.014   5.868  -1.207  0.1927 -0.9168 -0.0816
 1015MOL0     C36937  10.101   5.932  -1.115  0.6617 -0.0217 -0.7527
 1015MOL0     O36938  10.311   6.140  -1.089 -0.1635  0.8442  0.6081
 1015MOL0     C36939  10.416   6.282  -0.895 -0.9493 -0.3666 -0.2935
 1015MOL0     C36940  10.488   6.351  -0.806 -0.4941 -0.4281  0.3405
 1015MOL0     N36941  10.645   6.267  -0.177  0.0698  0.3850 -0.1473
 1015MOL0     N36942  10.629   6.234  -0.055 -0.4185 -0.8136 -0.2157
 1015MOL0     C36943   9.774   6.456   0.587 -0.9665 -1.3377 -1.2333
 1015MOL0     C36944   9.673   6.550   0.563 -0.4097  0.2508 -0.7957
 1015MOL0     C36945   9.362   6.769   0.336 -0.7573 -0.8880 -0.3088
 1015MOL0     C36946   9.325   6.802   0.201 -1.1368  0.0588 -0.2253
 1015MOL0     C36947   9.211   6.886   0.179  0.8629  0.3668  0.1272
 1015MOL0     C36948   9.129   6.933   0.286  0.2142 -0.9104  0.7244
 1015MOL0     O36949   9.016   7.013   0.265 -0.1030 -0.5117  1.1011
 1015MOL0     C36950   8.987   7.047   0.125  0.1278 -0.3733 -0.2775
 1015MOL0     C36951   9.070   7.158   0.054  0.7436 -0.1331 -0.0376
 1015MOL0     C36952   9.018   7.189  -0.089  0.2892  1.2698  0.8314
 1015MOL0     C36953   9.018   7.077  -0.199  0.1470 -0.3558 -0.2027
 1015MOL0     C36954   9.152   7.037  -0.240 -0.1438 -1.5057 -0.9663
 1015MOL0     C36955   9.260   7.002  -0.271  0.1339 -0.4448 -0.1855
 1015MOL0     C36956   9.175   6.911   0.416  0.1551 -0.2754 -0.0273
 1015MOL0     C36957   9.292   6.831   0.440 -0.8585 -0.1847  0.9589
 1015MOL0     H36958   9.791   6.669   0.254 -1.3224 -2.6700 -1.5614
 1015MOL0     H36959   9.936   6.486   0.286 -1.2903  1.3873 -1.6038
 1015MOL0     H36960   9.903   6.169   0.566 -2.5022  1.3708 -0.0499
 1015MOL0     H36961   9.849   6.207   0.401 -0.3798  1.4194  1.0992
 1015MOL0     H36962  10.122   6.102   0.487 -1.5445 -2.5985  1.3491
 1015MOL0     H36963   9.987   6.017   0.420  3.4169 -2.5987 -0.7433
 1015MOL0     H36964  10.006   6.110   0.213  1.4251 -1.7835  0.3323
 1015MOL0     H36965  10.087   6.262   0.265 -1.7872 -0.4259 -1.5380
 1015MOL0     H36966  10.293   6.121   0.317 -1.2462  1.6046  0.7967
 1015MOL0     H36967  10.206   5.993   0.239 -1.9342  0.8675  0.5704
 1015MOL0     H36968  10.383   6.098   0.087 -0.7990 -1.6468  0.6963
 1015MOL0     H36969  10.222   6.088   0.009  0.5813  1.6271 -1.7726
 1015MOL0     H36970  10.316   6.301  -0.035 -0.5556  2.2619  0.3647
 1015MOL0     H36971  10.187   6.329   0.066  0.7360  0.8728 -0.5027
 1015MOL0     H36972  10.374   6.470   0.122 -0.5729  0.8306  3.1108
 1015MOL0     H36973  10.350   6.356   0.261 -0.5218  0.4326  0.0950
 1015MOL0     H36974  10.560   6.245   0.203  0.0535 -0.2593 -0.1026
 1015MOL0     H36975  10.578   6.409   0.222 -1.6931  0.0241  1.2968
 1015MOL0     H36976  10.545   6.548  -0.053  2.2457  0.5611 -2.0244
 1015MOL0     H36977  10.653   6.585  -0.300  2.2454 -0.4859 -1.5783
 1015MOL0     H36978  10.719   6.437  -0.379 -1.7651 -1.8538 -1.0551
 1015MOL0     H36979  10.425   6.520  -0.366 -0.4687 -2.6227  0.7659
 1015MOL0     H36980  10.492   6.373  -0.430  2.1785 -1.0626 -0.1033
 1015MOL0     H36981  10.558   6.655  -0.520 -0.9876  0.8500 -4.0142
 1015MOL0     H36982  10.454   6.537  -0.605  1.8717 -0.3668 -2.6874
 1015MOL0     H36983  10.760   6.527  -0.596  0.3272 -1.6077 -0.1682
 1015MOL0     H36984  10.657   6.542  -0.723  0.9932  0.3880  0.1561
 1015MOL0     H36985  10.637   6.121  -0.626  1.2634  0.1632  0.3928
 1015MOL0     H36986  10.563   5.898  -0.695  0.2473  2.9312  1.0473
 1015MOL0     H36987  10.393   5.892  -0.758  0.5090 -0.8854  2.3927
 1015MOL0     H36988  10.528   5.862  -0.864 -2.6663  0.7357 -0.9131
 1015MOL0     H36989  10.335   5.688  -1.074  0.2510  0.4496 -0.8468
 1015MOL0     H36990  10.143   5.561  -1.191 -4.0391  0.0389 -1.2371
 1015MOL0     H36991  10.038   5.575  -1.444 -0.5651 -1.4137 -1.3553
 1015MOL0     H36992   9.989   5.482  -1.303 -2.5889 -0.8674  0.5651
 1015MOL0     H36993   9.750   5.490  -1.376  1.0447  3.1138  1.7001
 1015MOL0     H36994   9.814   5.596  -1.504 -2.0419 -0.1536  1.9639
 1015MOL0     H36995   9.874   5.289  -1.452  1.7530  0.2021 -0.8350
 1015MOL0     H36996   9.949   5.399  -1.576 -0.9974  0.4968 -1.2595
 1015MOL0     H36997   9.687   5.293  -1.561  1.2770 -1.6253  0.5734
 1015MOL0     H36998   9.728   5.427  -1.676  0.2380  1.2383  1.1531
 1015MOL0     H36999   9.881   5.267  -1.782  1.8703  0.4099  2.4405
 1015MOL0     H37000   9.722   5.182  -1.752 -1.7478  2.5676  0.6660
 1015MOL0     H37001   9.985   5.178  -1.610  1.0762  0.5167 -1.8363
 1015MOL0     H37002   9.840   5.075  -1.552  0.0795  2.9751  1.5745
 1015MOL0     H37003   9.981   5.041  -1.818  0.8988 -3.3478 -1.3697
 1015MOL0     H37004   9.834   4.956  -1.763  0.0278 -0.7681  1.2308
 1015MOL0     H37005   9.941   4.866  -1.577 -1.3892  1.3491  0.2431
 1015MOL0     H37006  10.091   4.956  -1.599 -1.6273 -0.8513  0.5554
 1015MOL0     H37007   9.932   5.922  -1.252  0.5295 -1.3974 -1.3264
 1015MOL0     H37008  10.077   6.035  -1.092  0.7618 -0.2312  0.3485
 1015MOL0     H37009  10.352   6.331  -0.968  0.3007 -0.0444 -1.2080
 1015MOL0     H37010  10.483   6.459  -0.801 -2.5749 -0.5036  1.1223
 1015MOL0     H37011   9.784   6.409   0.685  1.2268  2.5337  0.6379
 1015MOL0     H37012   9.602   6.573   0.641 -1.3758 -1.5374 -1.0828
 1015MOL0     H37013   9.371   6.768   0.109 -0.4200  1.3026 -0.3583
 1015MOL0     H37014   9.197   6.915   0.075 -0.6795 -2.0206 -0.4200
 1015MOL0     H37015   8.981   6.956   0.065 -1.4073 -2.0156  2.1581
 1015MOL0     H37016   8.885   7.086   0.117  0.0609 -0.2713  0.9265
 1015MOL0     H37017   9.171   7.124   0.028  0.5754 -0.3549 -0.4147
 1015MOL0     H37018   9.066   7.252   0.110  5.0592  0.0314  0.3509
 1015MOL0     H37019   9.065   7.274  -0.139  0.0105  1.7486  1.3684
 1015MOL0     H37020   8.916   7.224  -0.072 -1.4555 -0.6921 -3.9888
 1015MOL0     H37021   8.970   7.122  -0.286 -0.1311  2.6538  1.3913
 1015MOL0     H37022   8.955   6.998  -0.158  0.5467  2.0741  6.2229
 1015MOL0     H37023   9.362   6.970  -0.278 -0.7336 -4.0518  1.4612
 1015MOL0     H37024   9.118   6.950   0.500 -1.4420 -0.7379 -0.8684
 1015MOL0     H37025   9.326   6.808   0.540  1.0023 -1.1097  0.1415
 1016MOL0     O37026   4.126   8.287   6.131  0.7885 -0.0770  0.2290
 1016MOL0     C37027   4.013   8.326   6.162  0.5866 -0.2324  1.5426
 1016MOL0     O37028   3.976   8.353   6.295  0.4996 -0.7039 -0.2020
 1016MOL0     C37029   4.057   8.324   6.400 -0.5208  1.2537 -0.6505
 1016MOL0     C37030   4.099   8.189   6.433 -0.2894  0.4081  0.1580
 1016MOL0     C37031   4.176   8.167   6.545 -0.0428  0.2675  0.1861
 1016MOL0     C37032   4.221   8.273   6.625  0.5287 -0.0407  0.4973
 1016MOL0     O37033   4.303   8.243   6.732  0.6037 -0.3460  0.4941
 1016MOL0     C37034   4.272   8.291   6.867  0.2496  0.4806  1.1484
 1016MOL0     C37035   4.145   8.234   6.924  0.7066 -0.6205 -0.4533
 1016MOL0     C37036   4.037   8.336   6.949 -0.1116 -0.8411 -0.5653
 1016MOL0     C37037   3.900   8.273   6.959 -0.3968 -0.0266  0.0016
 1016MOL0     C37038   3.878   8.180   7.074  0.5276  0.5825  0.4794
 1016MOL0     C37039   3.733   8.134   7.079 -0.8432 -0.1607 -0.3885
 1016MOL0     C37040   3.727   8.015   7.171 -0.3081 -0.6136 -0.0487
 1016MOL0     C37041   3.640   8.037   7.302  0.1627  0.1762  0.4826
 1016MOL0     N37042   3.696   8.152   7.381 -0.2709  1.1536  0.0408
 1016MOL0     C37043   3.804   8.140   7.472  0.6169 -0.3874 -0.8003
 1016MOL0     C37044   3.807   8.265   7.519  0.3132 -0.3338 -0.0823
 1016MOL0     C37045   3.911   8.316   7.607 -0.4691 -0.6024  0.7213
 1016MOL0     C37046   3.865   8.350   7.746 -0.3834  0.0614  0.9290
 1016MOL0     C37047   3.968   8.361   7.861  0.3926 -0.8081  0.0440
 1016MOL0     C37048   3.909   8.409   7.998  0.1666  0.0852  0.6462
 1016MOL0     O37049   3.866   8.544   7.989  0.0617  0.7460 -0.3732
 1016MOL0     C37050   3.802   8.599   8.094 -0.4882  0.6387  0.7867
 1016MOL0     C37051   3.707   8.693   8.050  0.0999  0.7451  0.4431
 1016MOL0     C37052   3.637   8.764   8.148  0.5278  0.7361  0.5175
 1016MOL0     C37053   3.527   8.855   8.105 -0.8567  0.3980 -0.1254
 1016MOL0     C37054   3.657   8.748   8.281 -0.3352 -0.7263 -0.2550
 1016MOL0     C37055   3.594   8.825   8.384  1.1847 -0.3422  0.1261
 1016MOL0     O37056   3.552   8.951   8.369 -0.5982  0.2142 -0.2943
 1016MOL0     C37057   3.508   9.039   8.464 -0.8051 -0.3157  0.0812
 1016MOL0     C37058   3.463   9.009   8.596 -0.3371  0.1524 -0.1099
 1016MOL0     C37059   3.436   9.119   8.685 -0.2006  0.6938 -0.0357
 1016MOL0     C37060   3.455   9.253   8.646  0.0224  0.1794 -0.2932
 1016MOL0     O37061   3.438   9.353   8.739  0.4011 -0.7877  0.0077
 1016MOL0     C37062   3.445   9.490   8.703 -0.0466 -0.2188  0.4518
 1016MOL0     C37063   3.469   9.580   8.821 -0.5499  0.8420 -0.5983
 1016MOL0     C37064   3.449   9.721   8.774 -0.2648 -0.0814 -0.4707
 1016MOL0     C37065   3.518   9.818   8.875 -0.3523 -0.1258 -0.1363
 1016MOL0     C37066   3.485   9.958   8.851  1.3728 -0.3698 -0.8709
 1016MOL0     C37067   3.589  10.062   8.906  0.8588 -0.0672 -0.6978
 1016MOL0     C37068   3.534  10.200   8.948  0.4904  0.4275 -0.4091
 1016MOL0     C37069   3.455  10.273   8.844  0.2490 -0.5054 -0.6948
 1016MOL0    Cl37070   3.575  10.324   8.706  0.2883  0.1205  0.0155
 1016MOL0     C37071   3.486   9.280   8.513 -0.0841 -0.2104 -0.0894
 1016MOL0     C37072   3.519   9.178   8.428  0.7220  0.1090  0.3459
 1016MOL0     O37073   3.562   8.755   8.481  0.2826 -0.0842 -0.0748
 1016MOL0     C37074   3.748   8.648   8.320 -0.2926  0.2826 -0.4773
 1016MOL0     C37075   3.808   8.564   8.225 -0.6379 -0.9055 -0.1993
 1016MOL0     N37076   3.703   8.346   7.469 -0.5617  0.0236  0.1981
 1016MOL0     N37077   3.637   8.276   7.390  0.4818 -0.1116 -0.5337
 1016MOL0     C37078   4.170   8.404   6.597  0.7951  0.2048 -1.0984
 1016MOL0     C37079   4.097   8.422   6.488  1.0245  0.8401 -0.9273
 1016MOL0     C37080   3.908   8.345   6.052  0.8201  0.2651  0.3498
 1016MOL0     C37081   3.930   8.301   5.921  0.5703 -0.2042 -0.4639
 1016MOL0     C37082   3.829   8.309   5.830  0.0809  0.0085  0.0962
 1016MOL0     C37083   3.714   8.379   5.840 -1.1093 -0.1936 -0.2711
 1016MOL0     O37084   3.613   8.387   5.752 -0.4631  0.2079  0.7913
 1016MOL0     C37085   3.635   8.362   5.618  0.1080  0.4540  0.9259
 1016MOL0     C37086   3.500   8.387   5.558 -1.2138  0.0728 -0.6033
 1016MOL0     C37087   3.484   8.545   5.539  0.3647 -0.0600  0.0403
 1016MOL0     C37088   3.407   8.620   5.653 -0.3487  0.1031 -1.2470
 1016MOL0     C37089   3.388   8.762   5.619 -1.1507 -0.7976  0.4130
 1016MOL0     C37090   3.385   8.881   5.589 -0.4939  0.0228 -0.0683
 1016MOL0     C37091   3.697   8.442   5.964 -0.6555  0.2514 -0.2111
 1016MOL0     C37092   3.790   8.430   6.070 -0.1914 -0.3614 -0.3427
 1016MOL0     H37093   4.084   8.111   6.360  0.2697 -1.0143  1.5245
 1016MOL0     H37094   4.207   8.066   6.571 -0.0264  0.4708  0.9888
 1016MOL0     H37095   4.351   8.255   6.933  0.4542 -1.9230 -0.2610
 1016MOL0     H37096   4.277   8.400   6.874 -0.6835  0.4936  1.7781
 1016MOL0     H37097   4.100   8.173   6.845  0.4326  1.6821 -2.1949
 1016MOL0     H37098   4.164   8.178   7.015 -0.4376  2.9937  2.2483
 1016MOL0     H37099   4.058   8.377   7.048 -0.2807  1.1545 -1.3016
 1016MOL0     H37100   4.034   8.415   6.873  1.2180  0.4300  0.6219
 1016MOL0     H37101   3.824   8.350   6.970 -0.4185 -0.1739  0.9711
 1016MOL0     H37102   3.870   8.233   6.862 -2.9539  0.9035  0.3494
 1016MOL0     H37103   3.949   8.097   7.067  0.0085  0.1645  0.0776
 1016MOL0     H37104   3.901   8.238   7.164 -0.4082  0.8012  0.5794
 1016MOL0     H37105   3.671   8.215   7.119 -0.0301 -0.5070  1.6403
 1016MOL0     H37106   3.701   8.100   6.979  0.2756  1.1087 -1.2055
 1016MOL0     H37107   3.668   7.934   7.127 -0.5860 -1.5109  1.8679
 1016MOL0     H37108   3.824   7.964   7.183  0.1114  0.2774  0.4617
 1016MOL0     H37109   3.649   7.939   7.350  1.7906  1.3881  2.8599
 1016MOL0     H37110   3.532   8.052   7.287 -0.6308 -2.5839  2.5367
 1016MOL0     H37111   3.877   8.064   7.496  0.4222  0.1578  1.8426
 1016MOL0     H37112   3.999   8.253   7.627  1.9310  2.8350  1.7793
 1016MOL0     H37113   3.953   8.405   7.560 -0.8825 -1.5319 -1.5075
 1016MOL0     H37114   3.811   8.256   7.764  0.3066 -0.9915 -1.9329
 1016MOL0     H37115   3.794   8.432   7.731  0.3730  0.3452 -1.5682
 1016MOL0     H37116   4.048   8.429   7.829 -1.4255  1.9066  0.9769
 1016MOL0     H37117   3.997   8.256   7.873 -3.1563 -1.6272  2.8835
 1016MOL0     H37118   3.988   8.385   8.070  1.0004 -1.3071 -0.6723
 1016MOL0     H37119   3.826   8.345   8.028 -2.6864  1.5777 -3.2597
 1016MOL0     H37120   3.707   8.710   7.942  1.5123 -2.2635 -0.1339
 1016MOL0     H37121   3.508   8.857   7.998 -3.2941  2.0737  0.2506
 1016MOL0     H37122   3.431   8.833   8.153 -2.2911 -0.2185 -3.0710
 1016MOL0     H37123   3.562   8.958   8.120 -0.0635  0.0531  0.4687
 1016MOL0     H37124   3.453   8.908   8.635 -1.0877  1.1918  2.6463
 1016MOL0     H37125   3.408   9.098   8.788  0.0655 -1.4070 -0.3468
 1016MOL0     H37126   3.522   9.512   8.627  0.8537 -3.7816  0.1445
 1016MOL0     H37127   3.358   9.530   8.650  1.2032  1.1795 -0.6698
 1016MOL0     H37128   3.402   9.548   8.901 -1.2307  0.3405 -1.3576
 1016MOL0     H37129   3.566   9.567   8.870 -1.9088  6.0595  4.5062
 1016MOL0     H37130   3.343   9.742   8.758 -0.3536 -1.3335 -1.7636
 1016MOL0     H37131   3.509   9.743   8.685  0.1807  0.7244  0.0173
 1016MOL0     H37132   3.483   9.793   8.975 -3.6707  0.0778 -1.1027
 1016MOL0     H37133   3.625   9.801   8.865 -1.0101 -3.5759 -3.8920
 1016MOL0     H37134   3.389   9.981   8.898  2.1162 -1.5231  1.3530
 1016MOL0     H37135   3.466   9.991   8.749 -0.8009  2.6153  0.3621
 1016MOL0     H37136   3.633  10.012   8.993 -0.1121  0.1001 -0.0898
 1016MOL0     H37137   3.665  10.079   8.829  0.7049  0.2602 -0.7792
 1016MOL0     H37138   3.615  10.262   8.987 -0.4279  0.9444  0.7386
 1016MOL0     H37139   3.469  10.183   9.034 -0.8786  3.2868 -0.7636
 1016MOL0     H37140   3.414  10.362   8.894  0.3012 -1.5244  1.2492
 1016MOL0     H37141   3.378  10.214   8.795  2.5214 -4.7985  0.4102
 1016MOL0     H37142   3.491   9.383   8.480  0.5930 -0.0673  0.4269
 1016MOL0     H37143   3.556   9.212   8.331  1.6555 -0.4089  0.5083
 1016MOL0     H37144   3.762   8.628   8.425  1.1453  1.6862 -0.3747
 1016MOL0     H37145   3.884   8.491   8.253  3.4826  3.0427  0.2370
 1016MOL0     H37146   4.211   8.481   6.662  0.7385  1.5253 -2.5632
 1016MOL0     H37147   4.069   8.522   6.457 -2.7507  0.6010  1.0057
 1016MOL0     H37148   4.015   8.238   5.898  2.5367  2.2968 -0.5316
 1016MOL0     H37149   3.834   8.234   5.753 -1.1568 -1.4971  1.4275
 1016MOL0     H37150   3.717   8.421   5.576  0.3824  0.8115  1.9253
 1016MOL0     H37151   3.646   8.254   5.608 -3.6412 -0.3874  3.6021
 1016MOL0     H37152   3.423   8.340   5.620 -2.0986  0.2602 -1.5436
 1016MOL0     H37153   3.488   8.332   5.465 -0.2495  0.0361 -0.7229
 1016MOL0     H37154   3.418   8.575   5.457 -3.3993  0.6282  2.9906
 1016MOL0     H37155   3.578   8.595   5.515  0.8499 -0.3832  1.1901
 1016MOL0     H37156   3.457   8.612   5.750 -0.8695 -1.3159 -1.0748
 1016MOL0     H37157   3.308   8.576   5.666 -1.3946  1.9517 -2.4139
 1016MOL0     H37158   3.382   8.986   5.564 -1.4914  0.3681  1.3870
 1016MOL0     H37159   3.606   8.500   5.971 -1.9762 -1.5047 -1.7197
 1016MOL0     H37160   3.781   8.477   6.167  1.5834 -1.4553  0.4165
 1017MOL0     O37161   0.988   1.499   5.276 -0.3085  0.6245  0.6678
 1017MOL0     C37162   1.100   1.536   5.306 -0.4271 -0.5788 -0.2480
 1017MOL0     O37163   1.157   1.663   5.271  0.1675  0.5394 -0.4185
 1017MOL0     C37164   1.069   1.757   5.215  0.9105  0.0100  0.2757
 1017MOL0     C37165   1.044   1.880   5.274  0.2144  0.6169 -0.0842
 1017MOL0     C37166   0.970   1.983   5.219  0.1276  0.1261  0.1149
 1017MOL0     C37167   0.897   1.961   5.100 -0.0992 -0.4196 -0.4066
 1017MOL0     O37168   0.813   2.047   5.042  0.0287  0.3376 -0.2988
 1017MOL0     C37169   0.801   2.175   5.113 -0.3596  0.1768  0.4883
 1017MOL0     C37170   0.728   2.274   5.017 -0.0393  1.1490  0.2433
 1017MOL0     C37171   0.811   2.320   4.899  0.7134 -0.1032 -1.0213
 1017MOL0     C37172   0.740   2.394   4.786 -0.6569  0.7666  0.1700
 1017MOL0     C37173   0.721   2.543   4.825  0.8267 -0.2339 -0.6214
 1017MOL0     C37174   0.656   2.618   4.703  0.6842  0.0110  0.1879
 1017MOL0     C37175   0.624   2.763   4.730 -0.0870 -0.7558 -0.0727
 1017MOL0     C37176   0.604   2.847   4.601 -0.3157 -0.6183 -0.9203
 1017MOL0     N37177   0.474   2.840   4.529 -0.8627  0.0799  0.8228
 1017MOL0     C37178   0.456   2.751   4.419  0.3311 -0.3194  0.2301
 1017MOL0     C37179   0.319   2.748   4.409  0.4189 -0.2538 -0.5054
 1017MOL0     C37180   0.251   2.669   4.298  0.1566  0.1514 -0.3531
 1017MOL0     C37181   0.268   2.519   4.337  0.1250  0.0143 -0.3139
 1017MOL0     C37182   0.190   2.472   4.465  0.3083 -0.8042  0.0201
 1017MOL0     C37183   0.224   2.336   4.514  0.9976  0.2946  0.2497
 1017MOL0     O37184   0.351   2.332   4.579  0.0227 -0.0795  0.0841
 1017MOL0     C37185   0.424   2.232   4.527  0.8713 -0.0644  0.2066
 1017MOL0     C37186   0.497   2.162   4.625  0.4970 -0.5197 -0.2246
 1017MOL0     C37187   0.576   2.048   4.601  0.4217 -0.3679 -0.7450
 1017MOL0     C37188   0.645   1.991   4.719 -0.3319 -0.7312  1.0093
 1017MOL0     C37189   0.598   2.013   4.462  0.9838 -0.5352 -0.2138
 1017MOL0     C37190   0.683   1.893   4.425 -0.8899 -0.3615  0.2647
 1017MOL0     O37191   0.675   1.860   4.296 -0.3203  0.1277  0.3289
 1017MOL0     C37192   0.737   1.750   4.243  0.3575 -0.2035 -0.1733
 1017MOL0     C37193   0.738   1.623   4.306  0.7859  1.2773  0.4430
 1017MOL0     C37194   0.826   1.523   4.254  0.1549  0.2984  1.2252
 1017MOL0     C37195   0.903   1.545   4.132  0.8885 -0.1768  0.3121
 1017MOL0     O37196   0.980   1.443   4.087  0.2756 -0.6243 -0.2873
 1017MOL0     C37197   1.010   1.454   3.946 -0.0250  1.0704  0.4299
 1017MOL0     C37198   1.073   1.318   3.913  0.1831  0.1408  0.2333
 1017MOL0     C37199   1.079   1.287   3.766  0.3969  1.1415  0.5724
 1017MOL0     C37200   1.109   1.406   3.670  0.5700  0.7787  0.4111
 1017MOL0     C37201   1.125   1.356   3.521  0.8846 -0.1871 -0.2129
 1017MOL0     C37202   0.985   1.335   3.454 -0.1044 -0.3357  1.0486
 1017MOL0     C37203   0.995   1.357   3.300  0.6458  0.0115 -1.0840
 1017MOL0     C37204   0.863   1.384   3.247  0.5595  0.4093  0.0021
 1017MOL0    Cl37205   0.770   1.245   3.259 -0.0478  0.0017  0.1521
 1017MOL0     C37206   0.879   1.669   4.066 -0.9463  0.0876 -0.4683
 1017MOL0     C37207   0.805   1.775   4.122 -0.0372  0.0283  0.4521
 1017MOL0     O37208   0.757   1.837   4.508  0.7307  0.4181  0.4602
 1017MOL0     C37209   0.532   2.086   4.360 -0.1182  0.4882  0.0171
 1017MOL0     C37210   0.437   2.186   4.392  0.2289  0.3557 -0.7926
 1017MOL0     N37211   0.261   2.841   4.495  0.9662 -0.1385 -0.8607
 1017MOL0     N37212   0.355   2.892   4.564 -0.9068 -0.4916  0.7618
 1017MOL0     C37213   0.909   1.836   5.048  0.0135  0.4648  0.8374
 1017MOL0     C37214   0.993   1.731   5.092  0.4227  0.2556  0.8251
 1017MOL0     C37215   1.175   1.419   5.348 -0.4291 -0.0148  1.2574
 1017MOL0     C37216   1.122   1.310   5.408  0.2034  0.4806 -0.1398
 1017MOL0     C37217   1.203   1.197   5.424 -0.3026  0.1960  0.4348
 1017MOL0     C37218   1.333   1.186   5.385  0.0850 -0.3337 -0.2463
 1017MOL0     O37219   1.394   1.072   5.421  0.0507  0.5447  0.2878
 1017MOL0     C37220   1.540   1.071   5.436 -0.4059 -0.2428  1.4030
 1017MOL0     C37221   1.584   1.159   5.543  0.5006 -0.5529  0.3923
 1017MOL0     C37222   1.538   1.111   5.674  0.2749  0.3720  0.2936
 1017MOL0     C37223   1.578   1.188   5.799 -1.0233  0.0162 -0.4959
 1017MOL0     C37224   1.483   1.147   5.910  0.4753  0.1246  0.3008
 1017MOL0     C37225   1.416   1.106   6.006  0.1608 -0.1829  0.3961
 1017MOL0     C37226   1.381   1.285   5.309  0.7741 -1.0493  0.7479
 1017MOL0     C37227   1.308   1.405   5.288  0.6687  0.2267  0.4979
 1017MOL0     H37228   1.102   1.905   5.362 -0.4963  0.7803  0.3420
 1017MOL0     H37229   0.970   2.078   5.273  1.2034 -0.4217  1.1451
 1017MOL0     H37230   0.761   2.163   5.214  0.0386 -0.4004  0.5860
 1017MOL0     H37231   0.903   2.212   5.125 -0.6304  1.1206  0.0029
 1017MOL0     H37232   0.647   2.226   4.961  3.1099 -0.7065 -3.1350
 1017MOL0     H37233   0.699   2.366   5.069  1.8662  0.6046  2.4637
 1017MOL0     H37234   0.890   2.383   4.941  0.4705 -1.0996  1.0706
 1017MOL0     H37235   0.869   2.238   4.857  3.5079  0.2949  1.7370
 1017MOL0     H37236   0.796   2.369   4.695 -2.0512 -0.4888 -0.3949
 1017MOL0     H37237   0.641   2.356   4.757  0.1541  1.1439 -3.5068
 1017MOL0     H37238   0.646   2.535   4.903  0.1286  1.0678 -1.1239
 1017MOL0     H37239   0.815   2.591   4.853  1.2500 -3.0478  3.5647
 1017MOL0     H37240   0.721   2.605   4.616 -1.2018 -2.6910 -0.9696
 1017MOL0     H37241   0.558   2.578   4.677  1.1878 -2.7904  2.1774
 1017MOL0     H37242   0.542   2.776   4.802  0.0325 -0.7932  0.0703
 1017MOL0     H37243   0.719   2.803   4.766 -0.7629  1.4860 -0.5976
 1017MOL0     H37244   0.694   2.837   4.540  1.0388 -2.9159  1.2836
 1017MOL0     H37245   0.615   2.949   4.638  0.1193 -1.2638  0.8462
 1017MOL0     H37246   0.526   2.697   4.356 -1.7428 -0.3719 -2.1716
 1017MOL0     H37247   0.151   2.703   4.269  0.5459 -0.3424 -2.4485
 1017MOL0     H37248   0.306   2.677   4.204 -2.8102 -0.9788 -2.3405
 1017MOL0     H37249   0.374   2.505   4.360 -0.4060 -0.4528  2.0445
 1017MOL0     H37250   0.230   2.466   4.249  0.5600 -0.3932 -0.2604
 1017MOL0     H37251   0.083   2.464   4.442 -0.0837  3.0806 -0.1252
 1017MOL0     H37252   0.204   2.540   4.549 -2.1484 -2.4743  1.9231
 1017MOL0     H37253   0.207   2.265   4.433 -1.1226 -0.8525  1.5944
 1017MOL0     H37254   0.149   2.313   4.590  0.3548  3.4762  0.7068
 1017MOL0     H37255   0.482   2.194   4.727 -2.9113 -2.4512  0.0361
 1017MOL0     H37256   0.752   1.999   4.697 -0.5953 -0.8433 -0.3693
 1017MOL0     H37257   0.639   2.032   4.821 -0.8493  0.0026  0.6858
 1017MOL0     H37258   0.603   1.893   4.743 -1.5814  0.3358  3.5544
 1017MOL0     H37259   0.665   1.600   4.383  0.6488 -0.3688 -0.1390
 1017MOL0     H37260   0.827   1.423   4.295 -0.9371  0.2536  1.1596
 1017MOL0     H37261   0.921   1.468   3.884  1.7192 -1.1140 -2.8404
 1017MOL0     H37262   1.094   1.522   3.929  0.5219  0.9725  2.4244
 1017MOL0     H37263   1.175   1.305   3.951  1.1505  1.7878 -1.5718
 1017MOL0     H37264   1.032   1.237   3.974  1.6042 -0.6532  0.1866
 1017MOL0     H37265   0.992   1.227   3.737  3.6400 -3.6074 -0.3486
 1017MOL0     H37266   1.165   1.221   3.754  1.1854  2.1095  0.7886
 1017MOL0     H37267   1.037   1.488   3.680 -0.6375 -0.2290  0.3475
 1017MOL0     H37268   1.204   1.453   3.695  0.9850  0.7951 -1.1557
 1017MOL0     H37269   1.183   1.263   3.519 -1.2113 -1.6419  1.6026
 1017MOL0     H37270   1.179   1.419   3.450 -0.2828 -2.3682 -3.3091
 1017MOL0     H37271   0.943   1.236   3.476  0.3184 -0.3640  1.7708
 1017MOL0     H37272   0.909   1.410   3.478 -0.9462 -1.1456  0.9588
 1017MOL0     H37273   1.039   1.263   3.264  0.2134 -1.1506  1.2772
 1017MOL0     H37274   1.054   1.441   3.261  2.3343 -1.1148 -1.0833
 1017MOL0     H37275   0.868   1.414   3.142  0.0155 -0.4538 -0.2737
 1017MOL0     H37276   0.813   1.468   3.295 -0.0856 -0.6149  1.1660
 1017MOL0     H37277   0.932   1.692   3.974  0.2818  4.4776  1.0914
 1017MOL0     H37278   0.821   1.876   4.086  2.2947 -0.7947 -1.0384
 1017MOL0     H37279   0.551   2.060   4.256  2.2828  0.1329  0.4867
 1017MOL0     H37280   0.373   2.217   4.309 -1.1708 -1.7914 -0.5921
 1017MOL0     H37281   0.841   1.820   4.965  2.2551  2.6295 -1.5831
 1017MOL0     H37282   1.014   1.639   5.038  1.0462 -0.4724  2.2527
 1017MOL0     H37283   1.023   1.317   5.452  1.0688  2.7999  1.6532
 1017MOL0     H37284   1.143   1.121   5.474 -1.2637  1.0555  0.6320
 1017MOL0     H37285   1.565   0.966   5.454 -0.1154 -0.3872  0.2536
 1017MOL0     H37286   1.593   1.085   5.341 -0.1525 -2.0494  1.2373
 1017MOL0     H37287   1.561   1.264   5.523  0.1162 -0.2892  2.0520
 1017MOL0     H37288   1.693   1.149   5.540  0.4263 -1.2085 -0.6625
 1017MOL0     H37289   1.568   1.006   5.672 -0.5227  0.0477 -3.7334
 1017MOL0     H37290   1.429   1.109   5.674  0.2686 -2.0579 -0.1113
 1017MOL0     H37291   1.582   1.294   5.773  5.4819 -0.2462 -2.4499
 1017MOL0     H37292   1.678   1.163   5.836 -1.3256  1.0476  1.1078
 1017MOL0     H37293   1.372   1.083   6.101 -3.1966 -2.6261 -1.5525
 1017MOL0     H37294   1.478   1.273   5.263  0.5393 -2.1914  0.5229
 1017MOL0     H37295   1.342   1.480   5.217  2.5343 -0.4688  0.6079
 1018MOL0     O37296   0.829   6.478   7.543 -0.2992 -0.3808 -0.2012
 1018MOL0     C37297   0.827   6.599   7.507 -0.0498  0.0261  0.4016
 1018MOL0     O37298   0.713   6.686   7.501 -0.4759 -0.7965 -0.1317
 1018MOL0     C37299   0.592   6.660   7.554 -0.1418  0.9056  0.8805
 1018MOL0     C37300   0.589   6.612   7.683  0.1290 -0.5691 -0.3355
 1018MOL0     C37301   0.466   6.594   7.754  0.7950  1.2802 -0.1773
 1018MOL0     C37302   0.341   6.618   7.688 -0.1195 -0.6621  0.6032
 1018MOL0     O37303   0.226   6.599   7.764  0.0101  0.0454  0.5339
 1018MOL0     C37304   0.102   6.624   7.712  0.5133  0.0740  0.1820
 1018MOL0     C37305   0.005   6.624   7.831  0.4960  0.1596  0.3808
 1018MOL0     C37306   0.028   6.507   7.932 -0.2510 -1.3786  0.0102
 1018MOL0     C37307  -0.076   6.520   8.054 -0.2988 -0.4573  0.6408
 1018MOL0     C37308  -0.047   6.638   8.151 -0.0449  0.3354  0.3403
 1018MOL0     C37309  -0.178   6.673   8.214 -0.1328 -0.8968 -0.6690
 1018MOL0     C37310  -0.168   6.745   8.351  1.3093 -0.0509 -0.2922
 1018MOL0     C37311  -0.306   6.750   8.420 -0.6779 -0.6985  0.8101
 1018MOL0     N37312  -0.302   6.800   8.557  0.8628  0.0519  0.0564
 1018MOL0     C37313  -0.263   6.924   8.604  0.8968  0.4567  0.8784
 1018MOL0     C37314  -0.299   6.931   8.730 -0.8212  0.5709 -0.0596
 1018MOL0     C37315  -0.266   7.057   8.812  0.5564 -0.1891  0.0264
 1018MOL0     C37316  -0.243   7.003   8.955 -0.7265  0.4908  0.1440
 1018MOL0     C37317  -0.208   7.120   9.051 -0.0691 -0.2431  0.1150
 1018MOL0     C37318  -0.193   7.078   9.194 -1.5960  0.2328 -0.1994
 1018MOL0     O37319  -0.159   7.185   9.282  0.3248  0.5374 -0.0501
 1018MOL0     C37320  -0.040   7.224   9.321  0.3989  0.0631  0.9272
 1018MOL0     C37321   0.081   7.178   9.264 -0.8072  0.6669 -0.2296
 1018MOL0     C37322   0.206   7.215   9.312  0.3674  0.6505 -0.8408
 1018MOL0     C37323   0.321   7.156   9.243  0.1526 -0.0173  0.5599
 1018MOL0     C37324   0.219   7.318   9.418 -0.1262  0.9565  0.4638
 1018MOL0     C37325   0.343   7.374   9.470 -1.2528  0.0062  0.0068
 1018MOL0     O37326   0.456   7.293   9.455 -0.3324 -0.4754  0.2217
 1018MOL0     C37327   0.568   7.323   9.513  0.0796  0.9703 -0.1085
 1018MOL0     C37328   0.608   7.246   9.620 -0.2948  0.7291  0.1754
 1018MOL0     C37329   0.738   7.260   9.670  0.4061 -0.7366 -0.2499
 1018MOL0     C37330   0.817   7.373   9.633  0.0038 -0.3299 -0.3713
 1018MOL0     O37331   0.947   7.400   9.672 -0.2772  0.2934 -0.3816
 1018MOL0     C37332   0.974   7.316   9.784 -0.0703 -0.2200 -0.6660
 1018MOL0     C37333   1.107   7.370   9.854  0.9249  0.8006  0.3648
 1018MOL0     C37334   1.088   7.504   9.929 -0.0824 -0.1699  0.0507
 1018MOL0     C37335   1.233   7.541   9.984  0.2313 -0.4348  0.4292
 1018MOL0     C37336   1.263   7.468  10.107  0.2858  0.7291  0.4391
 1018MOL0     C37337   1.399   7.505  10.174 -0.5059 -0.9036  0.5776
 1018MOL0     C37338   1.415   7.656  10.214 -0.1445  0.0042 -0.3350
 1018MOL0     C37339   1.543   7.675  10.293  0.4343 -0.4453 -0.1195
 1018MOL0    Cl37340   1.499   7.624  10.457  0.1762 -0.1494 -0.2070
 1018MOL0     C37341   0.772   7.446   9.526 -0.5195  0.7206 -0.1873
 1018MOL0     C37342   0.658   7.421   9.459 -0.8261 -0.1589  0.1935
 1018MOL0     O37343   0.360   7.487   9.513 -0.7936 -0.1199 -0.4302
 1018MOL0     C37344   0.097   7.369   9.465 -0.2815  0.2501  0.4228
 1018MOL0     C37345  -0.028   7.328   9.418  0.5513 -0.6047  0.5678
 1018MOL0     N37346  -0.351   6.807   8.765  0.5718  0.5405 -0.0460
 1018MOL0     N37347  -0.344   6.726   8.664  0.1226  0.2568 -0.1945
 1018MOL0     C37348   0.340   6.659   7.551 -1.0043 -0.2606  0.5212
 1018MOL0     C37349   0.468   6.686   7.485  0.7072  0.3508  0.1090
 1018MOL0     C37350   0.956   6.660   7.474 -0.2702  0.5164  0.3713
 1018MOL0     C37351   0.986   6.799   7.504 -0.0209  0.6220 -0.8715
 1018MOL0     C37352   1.112   6.854   7.472 -0.2891  0.2841  0.1771
 1018MOL0     C37353   1.211   6.773   7.417  0.2404  0.4263 -0.6043
 1018MOL0     O37354   1.329   6.819   7.385  0.0475  0.0131 -0.1851
 1018MOL0     C37355   1.414   6.853   7.499 -0.1676 -0.1300  0.4179
 1018MOL0     C37356   1.561   6.852   7.457  0.8906 -0.1118  0.0977
 1018MOL0     C37357   1.599   6.942   7.338 -0.5457  0.3012  0.7852
 1018MOL0     C37358   1.600   7.091   7.358  0.5738 -0.2332  0.4178
 1018MOL0     C37359   1.726   7.138   7.427 -0.0764 -0.4100 -0.4234
 1018MOL0     C37360   1.831   7.163   7.473 -0.1409 -0.7313 -0.4728
 1018MOL0     C37361   1.190   6.638   7.382  0.1182  0.4250  0.3143
 1018MOL0     C37362   1.058   6.582   7.414 -0.6856 -0.0758  0.9875
 1018MOL0     H37363   0.681   6.599   7.740 -1.2096 -1.6205  1.6943
 1018MOL0     H37364   0.465   6.557   7.856  3.0814 -2.2663 -1.2467
 1018MOL0     H37365   0.099   6.725   7.670  1.8410  0.5413  1.1244
 1018MOL0     H37366   0.076   6.539   7.648  2.8735  0.8486 -1.9424
 1018MOL0     H37367   0.008   6.722   7.879  1.2090  0.0327  0.6082
 1018MOL0     H37368  -0.099   6.618   7.797  0.1544  0.1905  1.4042
 1018MOL0     H37369   0.006   6.422   7.868 -2.3169 -0.9499  0.0777
 1018MOL0     H37370   0.133   6.502   7.963 -0.3609  0.0731  0.7055
 1018MOL0     H37371  -0.172   6.532   8.002  0.4512 -1.6888 -1.1428
 1018MOL0     H37372  -0.061   6.424   8.104  1.3356 -0.0206  1.0598
 1018MOL0     H37373   0.024   6.610   8.230  1.9335 -0.3555 -1.5741
 1018MOL0     H37374   0.000   6.728   8.110 -0.2352  0.9274  1.3722
 1018MOL0     H37375  -0.236   6.743   8.153  1.6707  1.6208  0.3055
 1018MOL0     H37376  -0.244   6.587   8.222 -2.4523  0.6267 -2.1437
 1018MOL0     H37377  -0.106   6.686   8.419 -0.9527 -0.7682  1.3015
 1018MOL0     H37378  -0.124   6.844   8.335  3.1305 -1.1204 -2.2499
 1018MOL0     H37379  -0.349   6.649   8.422 -3.5025  0.3497 -1.2236
 1018MOL0     H37380  -0.366   6.818   8.360  3.0917  2.0019 -0.2989
 1018MOL0     H37381  -0.213   7.000   8.545  0.9384 -0.5910 -0.4663
 1018MOL0     H37382  -0.178   7.107   8.769  0.6325  0.6995  1.1816
 1018MOL0     H37383  -0.346   7.130   8.806 -0.1648 -1.0529 -1.5445
 1018MOL0     H37384  -0.166   6.926   8.947 -1.6332 -0.3981 -0.2725
 1018MOL0     H37385  -0.337   6.961   8.991  0.3396 -0.2401  2.2293
 1018MOL0     H37386  -0.294   7.187   9.060 -0.2678 -0.5079  0.2299
 1018MOL0     H37387  -0.114   7.167   9.021  0.6267  0.1805  2.7208
 1018MOL0     H37388  -0.121   6.995   9.198 -3.4677 -1.4118  2.0295
 1018MOL0     H37389  -0.288   7.041   9.233 -1.2415 -0.9629 -0.4327
 1018MOL0     H37390   0.063   7.089   9.205 -0.2737 -0.9425  1.9011
 1018MOL0     H37391   0.403   7.120   9.306 -0.8675 -1.4212  1.1567
 1018MOL0     H37392   0.292   7.067   9.188  1.9677  1.1415 -2.4796
 1018MOL0     H37393   0.351   7.230   9.169 -0.3881  0.3792  0.7281
 1018MOL0     H37394   0.537   7.169   9.648 -0.1721  0.4645 -0.2411
 1018MOL0     H37395   0.773   7.191   9.746 -3.3813  0.0356  2.4962
 1018MOL0     H37396   0.888   7.311   9.852 -2.9382 -1.4229 -4.0474
 1018MOL0     H37397   1.001   7.216   9.749 -0.7245  0.5825 -3.8674
 1018MOL0     H37398   1.132   7.291   9.927  0.5580 -0.5484 -0.9120
 1018MOL0     H37399   1.189   7.372   9.781 -0.5974  1.8164 -1.3970
 1018MOL0     H37400   1.009   7.485  10.002 -2.4437  1.2532 -1.9815
 1018MOL0     H37401   1.048   7.581   9.862 -0.2586  0.1696  0.5380
 1018MOL0     H37402   1.323   7.544   9.922 -0.6811  2.3420 -0.9500
 1018MOL0     H37403   1.230   7.646  10.013 -0.4135 -1.0187  2.6533
 1018MOL0     H37404   1.288   7.362  10.096  2.2710  0.6975  3.9075
 1018MOL0     H37405   1.184   7.486  10.180  2.2407  1.0629  2.5723
 1018MOL0     H37406   1.415   7.436  10.257  0.4061 -0.2839  0.9304
 1018MOL0     H37407   1.460   7.479  10.086  0.7575 -0.0116  1.1637
 1018MOL0     H37408   1.333   7.680  10.283 -0.9072 -4.1201  0.4922
 1018MOL0     H37409   1.411   7.722  10.128  0.8187  0.9213  0.2965
 1018MOL0     H37410   1.561   7.783  10.297 -0.2004 -0.3051 -0.8688
 1018MOL0     H37411   1.629   7.616  10.260 -1.6209 -3.3429 -0.6986
 1018MOL0     H37412   0.843   7.517   9.485  0.6395 -0.7096 -0.7738
 1018MOL0     H37413   0.627   7.485   9.378  0.1950 -0.8218 -0.7498
 1018MOL0     H37414   0.103   7.460   9.524  0.4754  1.3954 -1.3546
 1018MOL0     H37415  -0.119   7.381   9.446  1.2146  0.6933  0.3086
 1018MOL0     H37416   0.249   6.674   7.495 -1.9556  0.1563  2.1265
 1018MOL0     H37417   0.463   6.738   7.390  0.8243 -0.7787 -0.5381
 1018MOL0     H37418   0.916   6.861   7.559  2.7753  0.8452  2.7795
 1018MOL0     H37419   1.132   6.961   7.468  1.8284 -0.0568 -3.9858
 1018MOL0     H37420   1.399   6.958   7.526  1.1165  0.6683 -1.6855
 1018MOL0     H37421   1.405   6.789   7.586 -0.1490 -1.9962 -0.8969
 1018MOL0     H37422   1.576   6.747   7.429 -0.3629  0.4022 -2.9061
 1018MOL0     H37423   1.624   6.874   7.544  0.8304  0.7021 -0.0559
 1018MOL0     H37424   1.535   6.910   7.255  0.0942  0.9971  0.0003
 1018MOL0     H37425   1.705   6.921   7.318 -0.9539 -1.2121  0.0153
 1018MOL0     H37426   1.505   7.109   7.409  0.5807 -3.9039  2.0429
 1018MOL0     H37427   1.598   7.139   7.260 -0.0706  2.5777  1.6989
 1018MOL0     H37428   1.914   7.214   7.518 -1.6386  0.3520  1.2111
 1018MOL0     H37429   1.271   6.576   7.345 -1.1963 -0.4589 -1.2120
 1018MOL0     H37430   1.050   6.474   7.401 -0.7765 -0.1165  1.3725
 1019MOL0     O37431   1.377   2.058  11.280  0.4430  0.1252 -0.7073
 1019MOL0     C37432   1.324   1.970  11.213  1.1924  0.5884 -0.2021
 1019MOL0     O37433   1.219   1.992  11.130  0.6673  0.0499  0.1614
 1019MOL0     C37434   1.200   2.122  11.086  0.2855  0.4814  0.5988
 1019MOL0     C37435   1.091   2.188  11.119  0.1319  0.0586  0.4298
 1019MOL0     C37436   1.076   2.318  11.087 -1.4231 -0.8735 -0.7984
 1019MOL0     C37437   1.171   2.390  11.012  0.8529  0.2705 -0.7283
 1019MOL0     O37438   1.162   2.525  10.972  0.0604  0.2401  1.1810
 1019MOL0     C37439   1.035   2.563  10.899  0.4278  0.3433 -0.6560
 1019MOL0     C37440   1.042   2.715  10.882 -0.3698 -1.2875  0.1999
 1019MOL0     C37441   1.136   2.770  10.769  0.6266 -1.1743  0.1693
 1019MOL0     C37442   1.276   2.713  10.745 -0.1266  0.1322  0.1896
 1019MOL0     C37443   1.330   2.772  10.618 -0.7452 -0.1990  0.6411
 1019MOL0     C37444   1.322   2.918  10.611  0.3382  0.0291 -0.9718
 1019MOL0     C37445   1.435   2.965  10.528  0.5184 -0.2033  0.3847
 1019MOL0     C37446   1.412   2.938  10.376  0.4689  0.1033  0.0202
 1019MOL0     N37447   1.479   3.051  10.300 -0.0867 -0.2328  0.1181
 1019MOL0     C37448   1.611   3.083  10.302  0.4751  0.5655 -0.2175
 1019MOL0     C37449   1.614   3.198  10.234 -1.6926 -1.5510 -0.3370
 1019MOL0     C37450   1.737   3.287  10.207 -1.0729  0.5861  0.3458
 1019MOL0     C37451   1.829   3.265  10.097 -0.2722  0.3504 -0.7092
 1019MOL0     C37452   1.753   3.261   9.969  0.4890 -0.0840  0.6074
 1019MOL0     C37453   1.827   3.222   9.846  0.0592  0.6479  0.6341
 1019MOL0     O37454   1.921   3.318   9.806  0.0440  0.9430  0.2766
 1019MOL0     C37455   2.013   3.305   9.702 -0.1908  0.7275 -0.7342
 1019MOL0     C37456   2.129   3.242   9.720  0.1335  0.4155 -0.0976
 1019MOL0     C37457   2.228   3.236   9.614  0.2213 -0.8048  0.4977
 1019MOL0     C37458   2.347   3.157   9.648  0.0586  0.2993  0.1286
 1019MOL0     C37459   2.198   3.300   9.487  0.8843  0.0245  0.2272
 1019MOL0     C37460   2.275   3.287   9.372 -0.0008 -0.9545  0.4698
 1019MOL0     O37461   2.200   3.305   9.254 -0.0747  1.3303 -0.3943
 1019MOL0     C37462   2.250   3.399   9.168 -0.3129  0.3762  0.0551
 1019MOL0     C37463   2.367   3.373   9.092 -0.2199 -0.1487 -0.1107
 1019MOL0     C37464   2.405   3.453   8.992 -0.0396  0.0884 -0.1945
 1019MOL0     C37465   2.337   3.569   8.954  0.7371  0.1202 -0.0135
 1019MOL0     O37466   2.369   3.663   8.853  0.1056 -0.1054 -0.8348
 1019MOL0     C37467   2.470   3.625   8.759  0.6175 -0.8685  0.3164
 1019MOL0     C37468   2.516   3.734   8.663 -0.5731 -0.6095  0.4971
 1019MOL0     C37469   2.651   3.683   8.610  0.2747  0.2809  0.0748
 1019MOL0     C37470   2.679   3.751   8.470  0.4979  0.2760 -0.2139
 1019MOL0     C37471   2.686   3.906   8.471  0.5918 -0.4130  0.7247
 1019MOL0     C37472   2.801   3.963   8.558 -0.8058 -1.0207 -0.8500
 1019MOL0     C37473   2.836   4.112   8.530 -0.8383  1.2032  0.3891
 1019MOL0     C37474   2.756   4.220   8.618 -0.7425 -0.9910  0.5504
 1019MOL0    Cl37475   2.579   4.197   8.595 -0.2516  0.0833 -0.0415
 1019MOL0     C37476   2.233   3.604   9.045 -0.2136  0.5172 -0.0318
 1019MOL0     C37477   2.180   3.518   9.152  0.3115  0.4846 -1.4955
 1019MOL0     O37478   2.393   3.296   9.381  0.5678  0.3477  0.2328
 1019MOL0     C37479   2.069   3.357   9.473 -0.0024  1.2053  0.5469
 1019MOL0     C37480   1.984   3.357   9.580  0.5600 -1.4998 -0.3231
 1019MOL0     N37481   1.490   3.214  10.168 -0.1756  0.0030  0.5772
 1019MOL0     N37482   1.408   3.121  10.209 -0.3781 -0.1485  0.0102
 1019MOL0     C37483   1.291   2.333  10.984  0.7820  0.2334 -0.0800
 1019MOL0     C37484   1.300   2.189  11.011  0.6481  0.3270 -0.0364
 1019MOL0     C37485   1.362   1.828  11.241 -0.3871  0.8250  1.1018
 1019MOL0     C37486   1.296   1.712  11.190  0.4870 -0.6219  0.8977
 1019MOL0     C37487   1.326   1.584  11.241 -0.0975 -0.2945 -0.4562
 1019MOL0     C37488   1.425   1.563  11.342 -0.0905 -0.4385 -0.5687
 1019MOL0     O37489   1.464   1.435  11.385  0.7182  0.1959 -0.1549
 1019MOL0     C37490   1.402   1.329  11.321  0.5447  0.7965 -0.0359
 1019MOL0     C37491   1.263   1.305  11.389 -0.5355 -0.7906 -0.1918
 1019MOL0     C37492   1.198   1.182  11.331  0.0888  0.1605 -0.2855
 1019MOL0     C37493   1.105   1.111  11.418  0.3895  0.5244 -0.2154
 1019MOL0     C37494   0.974   1.185  11.430  0.7832 -0.3846 -0.2429
 1019MOL0     C37495   0.874   1.250  11.460 -0.0523 -0.0550 -0.0288
 1019MOL0     C37496   1.484   1.675  11.399 -0.0674  0.4353  0.0516
 1019MOL0     C37497   1.452   1.801  11.351  0.9041 -0.1206 -0.3373
 1019MOL0     H37498   1.022   2.143  11.189  0.9790 -4.6540 -1.4426
 1019MOL0     H37499   0.988   2.364  11.131  0.9829  4.1938 -0.5747
 1019MOL0     H37500   1.018   2.532  10.796 -2.8228  1.1564 -0.4876
 1019MOL0     H37501   0.946   2.548  10.962 -1.0894  2.8011 -2.0391
 1019MOL0     H37502   0.945   2.762  10.866  0.3388  0.4472  0.7736
 1019MOL0     H37503   1.083   2.755  10.975  1.2319  0.7901 -1.3205
 1019MOL0     H37504   1.082   2.762  10.675 -0.4101 -3.4531  0.8684
 1019MOL0     H37505   1.151   2.873  10.803  1.3146 -0.2063 -2.8478
 1019MOL0     H37506   1.345   2.739  10.826  0.8291 -1.9128  0.0937
 1019MOL0     H37507   1.278   2.604  10.739  1.3151  0.1513  0.0734
 1019MOL0     H37508   1.434   2.738  10.624  0.8996  4.1406  0.3713
 1019MOL0     H37509   1.292   2.724  10.527  1.2443 -0.0247 -0.3579
 1019MOL0     H37510   1.224   2.943  10.570 -0.1077  1.2728  0.7598
 1019MOL0     H37511   1.328   2.953  10.715 -3.2226 -1.5835 -0.0668
 1019MOL0     H37512   1.435   3.074  10.537  0.7661  0.4208 -4.4139
 1019MOL0     H37513   1.527   2.926  10.570  1.7359  1.2042 -0.8392
 1019MOL0     H37514   1.306   2.954  10.354  0.3857 -0.1070  0.2674
 1019MOL0     H37515   1.445   2.839  10.343  0.8247 -1.6787  4.9356
 1019MOL0     H37516   1.686   3.028  10.358  0.7569  1.0947 -0.0639
 1019MOL0     H37517   1.698   3.390  10.200  1.1957  1.6894  2.3749
 1019MOL0     H37518   1.801   3.284  10.295  0.5765 -0.4585 -0.8281
 1019MOL0     H37519   1.871   3.165  10.112 -1.2980  0.0093 -0.0312
 1019MOL0     H37520   1.909   3.339  10.091  0.9554 -0.9481 -0.9678
 1019MOL0     H37521   1.708   3.359   9.947 -2.3977 -1.0490  1.7720
 1019MOL0     H37522   1.674   3.186   9.976  0.0313  0.0268 -2.0918
 1019MOL0     H37523   1.754   3.195   9.769 -0.8394 -0.8130  1.9314
 1019MOL0     H37524   1.881   3.128   9.862 -0.7466 -0.4019 -2.2325
 1019MOL0     H37525   2.149   3.190   9.814  0.3231 -0.1874 -0.4648
 1019MOL0     H37526   2.438   3.201   9.606  0.1179 -0.7548 -0.9088
 1019MOL0     H37527   2.365   3.142   9.755 -0.0499 -0.9111 -0.0120
 1019MOL0     H37528   2.329   3.059   9.603  2.5052  0.9588 -2.5879
 1019MOL0     H37529   2.428   3.287   9.119  0.3437 -0.0306 -0.9526
 1019MOL0     H37530   2.502   3.428   8.950 -0.8787  1.0020 -2.7982
 1019MOL0     H37531   2.567   3.596   8.802  1.1301  2.2528  1.5498
 1019MOL0     H37532   2.421   3.540   8.713  1.4880 -2.1512  1.6446
 1019MOL0     H37533   2.441   3.742   8.584 -0.9375 -2.3609  0.6105
 1019MOL0     H37534   2.522   3.828   8.718 -1.0741 -0.9059  1.0664
 1019MOL0     H37535   2.640   3.582   8.571  1.1199  0.4531 -0.6292
 1019MOL0     H37536   2.732   3.689   8.684 -0.5406 -1.3794  1.1718
 1019MOL0     H37537   2.762   3.703   8.417  2.0192  1.2841  1.1368
 1019MOL0     H37538   2.596   3.742   8.400  1.9925  0.9295 -2.1524
 1019MOL0     H37539   2.589   3.951   8.494  1.5220  2.8919 -1.2065
 1019MOL0     H37540   2.706   3.924   8.365 -2.0405 -4.6862 -0.7384
 1019MOL0     H37541   2.767   3.952   8.661 -3.9772 -0.5427 -1.7209
 1019MOL0     H37542   2.897   3.913   8.543 -0.7843 -0.3715 -3.3894
 1019MOL0     H37543   2.821   4.132   8.424  0.0043 -0.1252  0.0059
 1019MOL0     H37544   2.941   4.133   8.551  0.2576 -1.4292 -1.9938
 1019MOL0     H37545   2.786   4.323   8.595 -1.8361 -0.2251  2.3276
 1019MOL0     H37546   2.784   4.209   8.723 -0.5420 -1.8429  0.4157
 1019MOL0     H37547   2.182   3.700   9.038 -1.3270  0.1290  2.2243
 1019MOL0     H37548   2.099   3.537   9.221  5.1631  1.3101  4.8902
 1019MOL0     H37549   2.034   3.391   9.377 -0.4255 -0.3348  0.1185
 1019MOL0     H37550   1.885   3.398   9.563  0.5733 -1.6069 -0.6775
 1019MOL0     H37551   1.360   2.402  10.937  1.4919  0.6675  1.5280
 1019MOL0     H37552   1.395   2.140  10.993 -0.6234 -2.2970 -0.1256
 1019MOL0     H37553   1.205   1.745  11.141  2.3352  1.1045 -1.6392
 1019MOL0     H37554   1.273   1.504  11.190 -1.2669 -1.4645  2.3880
 1019MOL0     H37555   1.407   1.343  11.212 -1.1038 -0.6927 -0.3438
 1019MOL0     H37556   1.457   1.236  11.337  0.4300  0.6259 -0.5976
 1019MOL0     H37557   1.203   1.393  11.367 -2.3342 -1.8545  0.2316
 1019MOL0     H37558   1.269   1.299  11.498  0.9073 -0.4904 -0.2385
 1019MOL0     H37559   1.275   1.110  11.303 -0.6805 -0.4431 -0.8837
 1019MOL0     H37560   1.153   1.217  11.237  0.5067  0.9970 -0.1871
 1019MOL0     H37561   1.148   1.100  11.518 -2.8683 -1.6656  1.1052
 1019MOL0     H37562   1.065   1.018  11.376 -2.8803  1.8106 -0.2736
 1019MOL0     H37563   0.782   1.303  11.478 -0.2161  0.8510 -2.9997
 1019MOL0     H37564   1.558   1.671  11.478  2.5653 -0.1622 -2.2775
 1019MOL0     H37565   1.507   1.884  11.393 -2.6434  1.5967  1.3424
 1020MOL0     O37566   5.074  10.653   2.618 -0.4047 -0.4013  0.5222
 1020MOL0     C37567   5.039  10.538   2.647 -0.3585  1.0438  0.0575
 1020MOL0     O37568   5.110  10.444   2.701 -0.1608 -0.6765 -0.8540
 1020MOL0     C37569   5.227  10.480   2.775 -0.1559  0.5479 -0.6439
 1020MOL0     C37570   5.234  10.589   2.864  0.0336  0.0564 -0.2712
 1020MOL0     C37571   5.348  10.608   2.940 -0.8285  0.5049 -0.3481
 1020MOL0     C37572   5.452  10.508   2.940 -0.7368 -0.3492 -0.1860
 1020MOL0     O37573   5.566  10.523   3.011  0.3757  0.9078  0.4490
 1020MOL0     C37574   5.595  10.636   3.094 -0.2533  0.4126  0.3606
 1020MOL0     C37575   5.645  10.755   3.018  0.5470  0.4833 -0.3362
 1020MOL0     C37576   5.721  10.857   3.090 -0.5033  0.6626 -1.4143
 1020MOL0     C37577   5.671  10.916   3.222 -0.8781  0.3885 -0.3020
 1020MOL0     C37578   5.751  11.037   3.263 -0.1950 -0.2795 -0.2860
 1020MOL0     C37579   5.692  11.111   3.385  1.1238  0.2429 -0.5963
 1020MOL0     C37580   5.552  11.167   3.353 -0.2363 -0.0539 -0.6363
 1020MOL0     C37581   5.435  11.081   3.412 -0.8788 -0.5037 -1.0451
 1020MOL0     N37582   5.312  11.120   3.343 -0.3177 -0.1625 -0.0715
 1020MOL0     C37583   5.216  11.040   3.282 -0.2817 -0.3513 -0.5766
 1020MOL0     C37584   5.122  11.129   3.236 -1.1423  0.0971 -0.2197
 1020MOL0     C37585   4.998  11.097   3.160  0.4431  0.7102 -0.3721
 1020MOL0     C37586   4.947  11.225   3.093 -0.2669 -0.0579 -0.0161
 1020MOL0     C37587   4.843  11.303   3.177  0.1076 -1.0018  0.5193
 1020MOL0     C37588   4.894  11.351   3.312 -0.3061 -0.0721  0.3732
 1020MOL0     O37589   4.800  11.450   3.363 -0.2026  0.7277  0.5410
 1020MOL0     C37590   4.824  11.481   3.501  0.0083  0.2617 -0.5604
 1020MOL0     C37591   4.718  11.551   3.552 -1.4317  0.3511 -0.8536
 1020MOL0     C37592   4.725  11.594   3.684 -0.1677  0.6847  0.2014
 1020MOL0     C37593   4.620  11.691   3.726 -0.5373  0.5841 -0.1857
 1020MOL0     C37594   4.828  11.546   3.766 -1.6112  0.6412 -0.5463
 1020MOL0     C37595   4.836  11.572   3.919 -0.2348 -0.6644  0.5508
 1020MOL0     O37596   4.732  11.629   3.968 -0.6257 -0.6898 -0.2940
 1020MOL0     C37597   4.734  11.654   4.107  0.4605 -0.3248  0.1452
 1020MOL0     C37598   4.695  11.783   4.152 -0.3922  0.1193 -0.6523
 1020MOL0     C37599   4.703  11.822   4.287  0.4021 -0.7246 -0.0995
 1020MOL0     C37600   4.750  11.733   4.385  0.2429 -0.1256 -0.1329
 1020MOL0     O37601   4.776  11.767   4.519  0.1619  0.6623  0.4114
 1020MOL0     C37602   4.742  11.894   4.560 -0.0029 -0.7509 -0.4589
 1020MOL0     C37603   4.773  11.928   4.708  0.5180 -0.4768 -0.9257
 1020MOL0     C37604   4.712  12.066   4.732  0.5131  0.1173 -0.4269
 1020MOL0     C37605   4.738  12.115   4.879 -0.5541 -0.6874 -0.5743
 1020MOL0     C37606   4.692  12.266   4.901 -0.2726  0.5643 -0.3575
 1020MOL0     C37607   4.546  12.285   4.903  0.3080  0.0100  0.2306
 1020MOL0     C37608   4.503  12.430   4.914  0.0183 -0.2556 -0.2671
 1020MOL0     C37609   4.346  12.424   4.907 -0.1793  0.1259  0.4721
 1020MOL0    Cl37610   4.294  12.365   5.070  0.2709 -0.6236 -0.0010
 1020MOL0     C37611   4.775  11.603   4.349 -1.8428  0.0852 -0.4345
 1020MOL0     C37612   4.769  11.561   4.214  0.0746 -0.6728  0.1542
 1020MOL0     O37613   4.937  11.552   3.983 -0.4537  0.8357 -0.3275
 1020MOL0     C37614   4.933  11.474   3.710  0.2230 -0.5590 -0.0138
 1020MOL0     C37615   4.929  11.445   3.575  0.7499  0.2361 -0.4511
 1020MOL0     N37616   5.174  11.255   3.251  0.0214  0.2049  0.1340
 1020MOL0     N37617   5.281  11.250   3.311  0.6782  0.1253 -0.3505
 1020MOL0     C37618   5.442  10.392   2.855 -0.1176 -1.0813 -0.4411
 1020MOL0     C37619   5.343  10.391   2.768  1.1720 -0.0112  0.0692
 1020MOL0     C37620   4.890  10.506   2.632 -1.0013  0.3936  0.2655
 1020MOL0     C37621   4.794  10.603   2.613 -0.2352 -0.6031 -0.0474
 1020MOL0     C37622   4.656  10.572   2.611 -1.1597  0.2676 -0.5790
 1020MOL0     C37623   4.615  10.437   2.638 -0.2607  0.5873  0.2317
 1020MOL0     O37624   4.484  10.425   2.652  0.5373 -0.2017  0.5087
 1020MOL0     C37625   4.434  10.311   2.722  0.6960 -0.3017  0.6851
 1020MOL0     C37626   4.289  10.335   2.770 -0.1871 -0.2565  0.0329
 1020MOL0     C37627   4.265  10.465   2.855 -0.2994 -0.4378 -0.2256
 1020MOL0     C37628   4.350  10.461   2.979 -0.1711 -0.8250 -0.0674
 1020MOL0     C37629   4.313  10.565   3.073  0.0657 -0.0411 -0.3454
 1020MOL0     C37630   4.293  10.637   3.169  0.1968  0.5733  0.8608
 1020MOL0     C37631   4.713  10.337   2.651  0.1111 -0.6303 -0.7704
 1020MOL0     C37632   4.846  10.377   2.652  0.5600  0.3980 -0.7854
 1020MOL0     H37633   5.146  10.652   2.871  0.3664  1.0266 -3.3291
 1020MOL0     H37634   5.366  10.694   3.005  0.2475  0.8497 -1.0675
 1020MOL0     H37635   5.508  10.667   3.153 -2.2694  2.7320 -3.4477
 1020MOL0     H37636   5.679  10.604   3.158  2.4498  1.2125 -2.5558
 1020MOL0     H37637   5.702  10.722   2.930  3.0326  0.9603  0.9766
 1020MOL0     H37638   5.559  10.807   2.975  0.1139  1.1607  1.2780
 1020MOL0     H37639   5.815  10.801   3.099 -1.5187 -1.0243 -1.0767
 1020MOL0     H37640   5.750  10.936   3.019  5.0349  0.4827  0.1446
 1020MOL0     H37641   5.564  10.934   3.220 -1.1648  0.0790  3.5476
 1020MOL0     H37642   5.672  10.836   3.298  2.3564 -0.7950 -1.3795
 1020MOL0     H37643   5.850  11.000   3.293 -0.2729 -0.5037 -0.3033
 1020MOL0     H37644   5.772  11.103   3.179  1.2254  0.1764  0.3851
 1020MOL0     H37645   5.688  11.046   3.473 -2.1752  0.5604 -0.3710
 1020MOL0     H37646   5.762  11.193   3.405  1.2852 -0.0449  0.0585
 1020MOL0     H37647   5.556  11.262   3.406  3.8485 -0.8638  0.8775
 1020MOL0     H37648   5.538  11.182   3.246  0.5928 -0.7916 -0.8666
 1020MOL0     H37649   5.428  11.083   3.521  1.6740 -2.7801 -0.7200
 1020MOL0     H37650   5.452  10.974   3.399 -0.3197 -0.7963  1.4836
 1020MOL0     H37651   5.214  10.931   3.276  1.0934 -0.3815 -0.8616
 1020MOL0     H37652   5.022  11.015   3.091 -0.4130  1.1943 -1.2802
 1020MOL0     H37653   4.917  11.057   3.221  2.0962 -2.6866 -0.1467
 1020MOL0     H37654   4.888  11.190   3.008  0.0167 -1.3230  0.2826
 1020MOL0     H37655   5.019  11.295   3.050 -0.6022  1.3545  1.6038
 1020MOL0     H37656   4.755  11.241   3.192 -2.2679  1.5254 -1.8426
 1020MOL0     H37657   4.811  11.387   3.115  1.9092 -1.3082 -0.9178
 1020MOL0     H37658   4.997  11.389   3.312  1.3531 -3.9818  1.5316
 1020MOL0     H37659   4.894  11.262   3.376 -0.5452 -0.4190 -0.1008
 1020MOL0     H37660   4.623  11.571   3.504 -3.0427  1.6674  2.5750
 1020MOL0     H37661   4.590  11.738   3.632 -0.2094 -1.4635 -1.3762
 1020MOL0     H37662   4.544  11.637   3.783  0.5115  1.4508  2.2134
 1020MOL0     H37663   4.661  11.765   3.797 -1.6595  3.6407 -2.5006
 1020MOL0     H37664   4.662  11.849   4.073 -0.2779 -0.1634 -0.9392
 1020MOL0     H37665   4.680  11.927   4.305 -0.5894 -0.9069 -0.2401
 1020MOL0     H37666   4.786  11.980   4.508 -0.8079  0.7124  1.1763
 1020MOL0     H37667   4.636  11.914   4.542 -1.5928 -5.0374  2.5523
 1020MOL0     H37668   4.728  11.850   4.770  2.1098 -0.3205  0.5079
 1020MOL0     H37669   4.882  11.916   4.714  0.4361 -0.8792 -0.1495
 1020MOL0     H37670   4.603  12.058   4.722  0.5683  0.3965 -1.2805
 1020MOL0     H37671   4.757  12.130   4.656  3.4273 -1.0248  0.1977
 1020MOL0     H37672   4.673  12.054   4.943 -2.7217  0.7137 -1.3280
 1020MOL0     H37673   4.844  12.102   4.902  0.5951  2.8556 -3.0465
 1020MOL0     H37674   4.741  12.328   4.825  0.4522 -1.3882 -1.5405
 1020MOL0     H37675   4.726  12.295   5.001 -2.4102  3.7836 -0.4064
 1020MOL0     H37676   4.504  12.240   4.812  1.1020  1.8249 -1.0982
 1020MOL0     H37677   4.507  12.221   4.983  0.3140  0.4514  0.5833
 1020MOL0     H37678   4.552  12.492   4.837 -2.1063  0.2529 -1.2786
 1020MOL0     H37679   4.540  12.468   5.009  2.6028 -1.9489 -0.5003
 1020MOL0     H37680   4.324  12.351   4.829  2.3620  1.3188 -1.5292
 1020MOL0     H37681   4.302  12.519   4.876 -2.2498 -1.1305 -0.6208
 1020MOL0     H37682   4.798  11.540   4.434 -1.1814  3.1823  1.8512
 1020MOL0     H37683   4.793  11.464   4.173  1.5477 -0.6860  0.9934
 1020MOL0     H37684   5.021  11.454   3.771  2.1447 -0.8813 -2.6869
 1020MOL0     H37685   5.008  11.404   3.511 -0.2324 -1.6285 -0.5564
 1020MOL0     H37686   5.522  10.319   2.860  0.4189 -0.4128  2.2314
 1020MOL0     H37687   5.325  10.314   2.693 -1.5848  1.1719 -0.6018
 1020MOL0     H37688   4.830  10.705   2.599 -0.7038  0.0557  2.8951
 1020MOL0     H37689   4.589  10.656   2.598 -1.0126  0.4010 -0.4618
 1020MOL0     H37690   4.442  10.230   2.648  2.0190  0.7435 -0.3748
 1020MOL0     H37691   4.490  10.288   2.812 -2.0786 -1.5559  2.2027
 1020MOL0     H37692   4.272  10.253   2.840 -1.7678 -1.0010 -1.1513
 1020MOL0     H37693   4.210  10.328   2.694 -1.9027 -2.9209  1.8597
 1020MOL0     H37694   4.161  10.474   2.888  0.3231 -2.2170  2.6436
 1020MOL0     H37695   4.302  10.547   2.793 -0.3860 -1.9066 -2.3050
 1020MOL0     H37696   4.457  10.478   2.963 -0.8240  3.9120 -0.7509
 1020MOL0     H37697   4.343  10.362   3.026  0.9025 -1.4107 -1.0700
 1020MOL0     H37698   4.268  10.703   3.250  0.4995  1.4408  0.2588
 1020MOL0     H37699   4.682  10.234   2.666 -0.9522  0.0937  3.0066
 1020MOL0     H37700   4.922  10.303   2.674  0.1567  0.7664  2.2808
 1021MOL0     O37701  10.295   7.032   8.985  1.0089  0.0049  0.7599
 1021MOL0     C37702  10.276   6.995   8.869  0.2349  0.6206  0.5136
 1021MOL0     O37703  10.320   7.061   8.758 -0.6531 -0.7641 -0.5451
 1021MOL0     C37704  10.393   7.180   8.770 -0.0880 -0.3660 -0.6529
 1021MOL0     C37705  10.490   7.197   8.874 -0.8556  1.0720 -0.1255
 1021MOL0     C37706  10.561   7.321   8.881 -0.3705  0.3505  0.4644
 1021MOL0     C37707  10.528   7.432   8.801 -0.1188  0.2657  0.3904
 1021MOL0     O37708  10.588   7.556   8.807  0.3859 -0.0763 -0.1959
 1021MOL0     C37709  10.659   7.598   8.927  0.2166  0.3979  0.1248
 1021MOL0     C37710  10.697   7.753   8.930  0.4194  0.6984 -0.4302
 1021MOL0     C37711  10.575   7.834   8.860  0.5665  0.2854 -0.1653
 1021MOL0     C37712  10.591   7.981   8.858  0.2335 -0.6881  0.8009
 1021MOL0     C37713  10.633   8.037   8.724 -0.3798  0.4703 -0.2127
 1021MOL0     C37714  10.638   8.197   8.739  0.5747 -0.0934 -0.0991
 1021MOL0     C37715  10.679   8.270   8.615  0.0368 -0.1531  0.4373
 1021MOL0     C37716  10.605   8.245   8.483 -0.0020  0.7622  0.8150
 1021MOL0     N37717  10.685   8.278   8.368 -0.1374 -0.3618 -0.1383
 1021MOL0     C37718  10.713   8.406   8.316 -0.7247  0.5747  0.3469
 1021MOL0     C37719  10.782   8.377   8.201 -0.3146  0.4497 -0.5751
 1021MOL0     C37720  10.851   8.478   8.103 -0.0485  0.0275  0.3544
 1021MOL0     C37721  10.769   8.603   8.078  0.3880 -0.0885  0.0916
 1021MOL0     C37722  10.823   8.671   7.948 -0.7380 -0.4356  0.8777
 1021MOL0     C37723  10.938   8.768   7.974  0.5586  0.0827  0.1644
 1021MOL0     O37724  10.975   8.842   7.850  1.0919 -0.0878 -0.3275
 1021MOL0     C37725  11.104   8.870   7.828 -0.5405 -0.6290  0.8930
 1021MOL0     C37726  11.192   8.891   7.931  0.0775 -0.5772  0.4340
 1021MOL0     C37727  11.329   8.922   7.896  0.9119  0.6259 -0.8436
 1021MOL0     C37728  11.424   8.923   8.019  0.0792  0.8635 -0.2492
 1021MOL0     C37729  11.372   8.953   7.761  0.6636  0.1262  0.3995
 1021MOL0     C37730  11.511   8.996   7.721  1.1175  0.6801  0.8502
 1021MOL0     O37731  11.605   8.898   7.717  0.3164 -0.0973  0.0791
 1021MOL0     C37732  11.743   8.927   7.701  0.2356 -0.1706 -0.7028
 1021MOL0     C37733  11.783   9.028   7.611  0.4441  0.0653  0.7319
 1021MOL0     C37734  11.913   9.052   7.571 -0.9151 -1.1663 -0.5225
 1021MOL0     C37735  12.016   8.984   7.642  0.0393 -0.6616  0.0719
 1021MOL0     O37736  12.149   9.006   7.611  0.0343 -0.2260 -0.2637
 1021MOL0     C37737  12.215   8.896   7.549 -0.1090  0.5863 -0.5298
 1021MOL0     C37738  12.291   8.929   7.421 -0.8194  0.8805 -0.1923
 1021MOL0     C37739  12.202   8.968   7.299  0.0067 -0.2193 -0.4101
 1021MOL0     C37740  12.239   9.104   7.232  0.7630 -0.4225  0.2061
 1021MOL0     C37741  12.229   9.218   7.326 -0.6004 -0.2375  0.6449
 1021MOL0     C37742  12.240   9.354   7.258 -0.6420  0.4386 -0.3138
 1021MOL0     C37743  12.242   9.450   7.371  0.4774 -0.4385  0.7421
 1021MOL0     C37744  12.271   9.589   7.308 -0.6132  0.1681 -0.5089
 1021MOL0    Cl37745  12.116   9.667   7.272 -0.2678  0.1526 -0.0751
 1021MOL0     C37746  11.977   8.887   7.735 -0.4368  0.1263 -0.4687
 1021MOL0     C37747  11.849   8.859   7.770  0.0085  0.5036  0.2806
 1021MOL0     O37748  11.533   9.118   7.711  0.1024  0.3874 -0.4216
 1021MOL0     C37749  11.271   8.940   7.666  0.7560 -0.5144  0.6667
 1021MOL0     C37750  11.148   8.893   7.693  0.0966 -0.1752 -0.1223
 1021MOL0     N37751  10.804   8.241   8.197 -0.3216  0.7384 -0.2272
 1021MOL0     N37752  10.747   8.178   8.294 -0.3621  0.0797 -0.0740
 1021MOL0     C37753  10.435   7.404   8.704 -0.1151 -0.3763  0.0711
 1021MOL0     C37754  10.363   7.282   8.687 -0.5082 -0.2325  0.3209
 1021MOL0     C37755  10.184   6.892   8.835  0.8674 -0.4712 -0.1423
 1021MOL0     C37756  10.202   6.818   8.723 -0.1519 -0.7018  0.8429
 1021MOL0     C37757  10.121   6.706   8.697  1.2783  0.8772 -0.1334
 1021MOL0     C37758  10.013   6.680   8.782  0.1706  1.1833  0.1111
 1021MOL0     O37759   9.945   6.561   8.762  0.7706 -0.1042 -0.1736
 1021MOL0     C37760   9.802   6.561   8.793 -0.6116  0.0557 -0.4124
 1021MOL0     C37761   9.729   6.437   8.754 -0.8546 -0.5167  0.0926
 1021MOL0     C37762   9.789   6.362   8.629 -0.0116  0.5327  0.0473
 1021MOL0     C37763   9.693   6.276   8.548 -0.6159  0.1526 -0.0735
 1021MOL0     C37764   9.592   6.348   8.476  0.7199 -0.2777 -0.6122
 1021MOL0     C37765   9.492   6.406   8.420  0.7749 -0.4895 -0.0592
 1021MOL0     C37766   9.988   6.761   8.888  0.6599  0.1620 -0.0103
 1021MOL0     C37767  10.075   6.867   8.917 -0.0725  0.6548 -0.6493
 1021MOL0     H37768  10.515   7.130   8.955 -1.3965  3.5368  2.2035
 1021MOL0     H37769  10.636   7.326   8.960  0.3648  0.8109 -0.2506
 1021MOL0     H37770  10.601   7.583   9.018  0.8239  0.6288  0.5547
 1021MOL0     H37771  10.748   7.534   8.930 -0.3309 -0.3625  0.3855
 1021MOL0     H37772  10.715   7.786   9.033  3.0471 -0.0178 -0.5886
 1021MOL0     H37773  10.784   7.773   8.868 -1.0143 -0.0359 -2.7980
 1021MOL0     H37774  10.541   7.804   8.761 -1.3412 -0.1058  0.5633
 1021MOL0     H37775  10.486   7.812   8.920  0.1393  2.9319  0.3354
 1021MOL0     H37776  10.494   8.024   8.886  0.6845  2.2865 -1.6767
 1021MOL0     H37777  10.660   8.008   8.938 -0.7307  0.5870  1.2420
 1021MOL0     H37778  10.727   8.000   8.684 -0.8925 -2.2654  0.8678
 1021MOL0     H37779  10.553   8.002   8.658  1.0848 -3.0818 -0.2909
 1021MOL0     H37780  10.537   8.225   8.769  0.4314 -1.6300  0.9582
 1021MOL0     H37781  10.714   8.223   8.813 -0.4718  1.2833  0.5241
 1021MOL0     H37782  10.692   8.376   8.639  0.4887 -0.1601  0.2285
 1021MOL0     H37783  10.783   8.237   8.606 -0.1310 -0.3295 -1.3349
 1021MOL0     H37784  10.509   8.298   8.485 -1.8856 -2.1433 -1.8206
 1021MOL0     H37785  10.587   8.138   8.468  0.0670  0.9396 -0.7285
 1021MOL0     H37786  10.686   8.506   8.348  1.9165  1.8778 -1.1885
 1021MOL0     H37787  10.952   8.510   8.131 -0.6077  1.1684  1.1366
 1021MOL0     H37788  10.861   8.427   8.007 -0.3398  1.4615 -0.4574
 1021MOL0     H37789  10.767   8.674   8.161  0.4108 -1.1861  1.0647
 1021MOL0     H37790  10.669   8.562   8.064  1.3953 -2.8392  0.1524
 1021MOL0     H37791  10.745   8.728   7.897  1.4580  2.2469  0.2690
 1021MOL0     H37792  10.856   8.603   7.868  0.5955  0.4545  0.6386
 1021MOL0     H37793  11.018   8.709   8.019  1.6562  3.2028  2.6372
 1021MOL0     H37794  10.905   8.844   8.046 -0.6737 -0.5187  0.2439
 1021MOL0     H37795  11.155   8.884   8.033 -1.6137 -0.5640 -0.1504
 1021MOL0     H37796  11.498   9.000   7.995  2.8714 -1.7995 -0.7277
 1021MOL0     H37797  11.362   8.964   8.100 -0.0832  1.3301 -0.6027
 1021MOL0     H37798  11.470   8.828   8.046 -1.3750 -0.2642 -1.5385
 1021MOL0     H37799  11.707   9.083   7.556 -2.4106 -1.2920  3.0468
 1021MOL0     H37800  11.937   9.133   7.502  1.6687  0.1982  1.7601
 1021MOL0     H37801  12.296   8.860   7.614  3.3412  1.0631 -4.1694
 1021MOL0     H37802  12.153   8.812   7.515  1.5585 -0.8623 -0.1650
 1021MOL0     H37803  12.354   9.015   7.447  2.4094 -0.0815 -3.8234
 1021MOL0     H37804  12.363   8.853   7.391 -0.6958  1.8191 -2.5480
 1021MOL0     H37805  12.100   8.983   7.337  1.0387  1.7758  1.8731
 1021MOL0     H37806  12.216   8.890   7.224  3.1941  2.0683 -2.4263
 1021MOL0     H37807  12.347   9.112   7.213  0.9321 -0.3137  1.1636
 1021MOL0     H37808  12.172   9.114   7.146 -0.4943  1.6885  1.3658
 1021MOL0     H37809  12.296   9.202   7.410  2.2717 -0.5647 -1.5266
 1021MOL0     H37810  12.132   9.219   7.375 -1.5510 -1.0392 -1.1403
 1021MOL0     H37811  12.327   9.353   7.191 -2.4167 -2.7224 -2.8418
 1021MOL0     H37812  12.147   9.360   7.200  1.7147 -1.1317 -4.7932
 1021MOL0     H37813  12.322   9.416   7.437 -0.5259 -2.8989  0.8201
 1021MOL0     H37814  12.153   9.461   7.433 -1.2891 -3.7820 -0.9013
 1021MOL0     H37815  12.328   9.580   7.216  0.3208 -0.4881  0.1176
 1021MOL0     H37816  12.335   9.653   7.370 -1.7623  0.6772  0.1818
 1021MOL0     H37817  12.055   8.832   7.785  0.8925  1.7839 -0.6439
 1021MOL0     H37818  11.825   8.781   7.841 -1.2817 -0.4117 -1.0995
 1021MOL0     H37819  11.307   8.967   7.567 -0.7763 -0.6486  0.0586
 1021MOL0     H37820  11.075   8.885   7.614 -2.7014  0.7212  2.2125
 1021MOL0     H37821  10.410   7.491   8.643 -0.0932  0.4440  1.2007
 1021MOL0     H37822  10.280   7.256   8.623 -2.5574  1.3882  2.1250
 1021MOL0     H37823  10.292   6.840   8.666  0.1729  0.5014  1.7651
 1021MOL0     H37824  10.137   6.639   8.613 -1.1733 -2.2482  1.6744
 1021MOL0     H37825   9.794   6.561   8.902  0.1244  2.1937 -0.2971
 1021MOL0     H37826   9.754   6.644   8.740  0.3417 -0.1624 -1.6684
 1021MOL0     H37827   9.630   6.476   8.728  0.7825  2.8758 -1.6883
 1021MOL0     H37828   9.738   6.364   8.835 -4.6678 -1.6672 -0.3140
 1021MOL0     H37829   9.863   6.291   8.666 -2.4020 -1.8557  0.5695
 1021MOL0     H37830   9.837   6.427   8.556  1.5353  1.2244  1.6040
 1021MOL0     H37831   9.647   6.195   8.605 -2.5375 -1.1684 -3.2719
 1021MOL0     H37832   9.742   6.220   8.468 -1.2116 -1.0207  0.3641
 1021MOL0     H37833   9.399   6.435   8.378  0.0491  0.2419  1.9254
 1021MOL0     H37834   9.898   6.738   8.946 -0.3464 -1.0091 -1.9191
 1021MOL0     H37835  10.055   6.928   9.004  0.2979 -0.5563  0.3332
 1022MOL0     O37836   2.604   5.501   7.526 -0.5332 -0.3033  0.2382
 1022MOL0     C37837   2.717   5.556   7.525  0.4185 -0.0553  2.0414
 1022MOL0     O37838   2.792   5.591   7.634  0.3311 -0.5020  0.4585
 1022MOL0     C37839   2.740   5.549   7.755 -0.0265  1.2384 -0.4467
 1022MOL0     C37840   2.650   5.629   7.818  0.4618 -1.5588  0.1377
 1022MOL0     C37841   2.597   5.608   7.947 -0.4210  0.5398  0.3530
 1022MOL0     C37842   2.644   5.493   8.022 -0.7714 -0.3645 -0.4402
 1022MOL0     O37843   2.586   5.459   8.144 -0.8596  0.6354  0.0899
 1022MOL0     C37844   2.607   5.557   8.252 -0.1634  0.3253 -0.1141
 1022MOL0     C37845   2.714   5.490   8.343  0.5488 -0.2323 -0.0219
 1022MOL0     C37846   2.647   5.393   8.438  0.2112 -0.1022  0.1935
 1022MOL0     C37847   2.748   5.323   8.521 -1.2592  0.2302 -0.1137
 1022MOL0     C37848   2.791   5.193   8.465  0.6668  0.6866  0.2840
 1022MOL0     C37849   2.904   5.126   8.548  0.0259  0.3338  0.7600
 1022MOL0     C37850   2.951   4.990   8.498 -0.2412 -0.1062 -0.7709
 1022MOL0     C37851   2.838   4.884   8.515 -0.0724  1.1071  0.7500
 1022MOL0     N37852   2.872   4.751   8.451 -0.5201 -0.1880  0.5064
 1022MOL0     C37853   2.987   4.679   8.459 -0.0760 -0.4572 -0.0442
 1022MOL0     C37854   2.963   4.570   8.387 -0.3048 -0.1333 -0.1310
 1022MOL0     C37855   3.059   4.455   8.349  1.0121  0.0433 -1.4238
 1022MOL0     C37856   3.050   4.402   8.203 -0.3885  0.6302 -0.8724
 1022MOL0     C37857   3.098   4.502   8.098  0.9491  0.9500 -0.3471
 1022MOL0     C37858   2.989   4.504   7.997 -0.2094  0.2793  0.7329
 1022MOL0     O37859   3.001   4.399   7.907  0.0218  0.3503  0.3250
 1022MOL0     C37860   3.048   4.414   7.782 -0.0345 -0.6762  0.6155
 1022MOL0     C37861   3.135   4.518   7.736  0.8122 -0.4499 -0.3707
 1022MOL0     C37862   3.191   4.514   7.607  0.2642 -0.8539  0.1455
 1022MOL0     C37863   3.296   4.625   7.578  0.5517  0.5499 -0.4000
 1022MOL0     C37864   3.156   4.404   7.520  0.8204 -0.7629  0.4164
 1022MOL0     C37865   3.213   4.406   7.387 -0.7491  0.2351  0.6463
 1022MOL0     O37866   3.264   4.292   7.328  0.3114  0.1501 -0.4363
 1022MOL0     C37867   3.321   4.290   7.205 -0.0574  0.0097  0.9078
 1022MOL0     C37868   3.439   4.356   7.180 -0.1126 -0.0925  0.3751
 1022MOL0     C37869   3.492   4.362   7.051  0.6468  0.1272 -0.1003
 1022MOL0     C37870   3.437   4.284   6.949 -0.2912 -1.1710  0.4801
 1022MOL0     O37871   3.476   4.295   6.819  0.2437  0.1013 -0.0641
 1022MOL0     C37872   3.597   4.371   6.797 -0.4675 -0.1100  1.0476
 1022MOL0     C37873   3.645   4.333   6.655  0.5528 -0.5883 -0.6167
 1022MOL0     C37874   3.778   4.384   6.616 -0.2482  0.4978 -0.1912
 1022MOL0     C37875   3.904   4.371   6.703 -0.0545  0.6195 -0.0118
 1022MOL0     C37876   4.027   4.431   6.635 -0.1854  0.0974  0.0046
 1022MOL0     C37877   4.062   4.390   6.500 -0.2844  0.1743  0.6010
 1022MOL0     C37878   4.200   4.446   6.470  0.0928  0.3734  0.5375
 1022MOL0     C37879   4.248   4.417   6.324 -0.3861  0.3603  0.5992
 1022MOL0    Cl37880   4.356   4.547   6.278 -0.1593 -0.0782 -0.0284
 1022MOL0     C37881   3.321   4.204   6.981  0.3224  0.3740 -0.0482
 1022MOL0     C37882   3.259   4.210   7.107 -0.1489  0.5237  0.2632
 1022MOL0     O37883   3.207   4.512   7.327  0.2768 -0.5276 -0.9146
 1022MOL0     C37884   3.067   4.305   7.571 -1.0485 -0.5553  0.2584
 1022MOL0     C37885   3.014   4.312   7.697 -0.5081  0.3177 -0.0742
 1022MOL0     N37886   2.830   4.569   8.341  0.1317 -0.4778 -0.4336
 1022MOL0     N37887   2.783   4.679   8.381  0.2333 -0.3743  0.3101
 1022MOL0     C37888   2.736   5.406   7.964  0.0232  0.5479 -0.2789
 1022MOL0     C37889   2.787   5.436   7.832 -0.3306  0.4199 -0.2780
 1022MOL0     C37890   2.773   5.602   7.401  0.0056 -0.0624  0.6452
 1022MOL0     C37891   2.776   5.521   7.292 -0.7583  0.9815  1.6475
 1022MOL0     C37892   2.839   5.564   7.173 -0.7001 -0.4790 -1.0899
 1022MOL0     C37893   2.895   5.693   7.171 -0.0463  0.4266 -1.0574
 1022MOL0     O37894   2.961   5.728   7.051  0.2064 -0.7356  0.1247
 1022MOL0     C37895   3.072   5.818   7.068 -0.3938 -0.1847  0.1681
 1022MOL0     C37896   3.174   5.815   6.952  0.8628 -0.8091 -0.1617
 1022MOL0     C37897   3.109   5.847   6.814  0.2548 -0.0006  0.6800
 1022MOL0     C37898   3.071   5.998   6.809  0.5263 -0.2197 -0.0973
 1022MOL0     C37899   3.041   6.030   6.669 -0.4239  0.1135  0.5624
 1022MOL0     C37900   3.018   6.054   6.550 -1.2064  0.7983  0.0692
 1022MOL0     C37901   2.889   5.779   7.289 -1.0493 -1.0454 -0.1871
 1022MOL0     C37902   2.825   5.733   7.398 -0.2743  0.2563 -0.4208
 1022MOL0     H37903   2.620   5.711   7.754  1.7902 -1.8101 -0.8329
 1022MOL0     H37904   2.522   5.679   7.982  0.8224  1.5411  1.0556
 1022MOL0     H37905   2.663   5.645   8.221  1.4417 -0.3483  0.7864
 1022MOL0     H37906   2.524   5.601   8.308  1.1483 -0.2510  2.4523
 1022MOL0     H37907   2.788   5.442   8.278  1.5850  0.1255  0.8622
 1022MOL0     H37908   2.756   5.568   8.407 -0.4568 -0.5177  1.0179
 1022MOL0     H37909   2.594   5.455   8.510  1.0616  1.7085 -0.6743
 1022MOL0     H37910   2.578   5.328   8.383 -1.4593  0.9425  0.9981
 1022MOL0     H37911   2.831   5.394   8.534 -1.1674  1.3258 -4.6577
 1022MOL0     H37912   2.705   5.308   8.620  1.7985  0.8731  1.4205
 1022MOL0     H37913   2.708   5.124   8.454  1.1186 -0.0052  1.1249
 1022MOL0     H37914   2.819   5.205   8.360  1.0316  0.1615  0.3194
 1022MOL0     H37915   2.988   5.195   8.556  0.2088  0.4945 -1.7745
 1022MOL0     H37916   2.880   5.117   8.654 -2.7336 -0.7872  0.1190
 1022MOL0     H37917   2.974   5.007   8.392 -2.1046  2.0440 -0.9076
 1022MOL0     H37918   3.039   4.965   8.558  0.5076  1.2669 -1.2422
 1022MOL0     H37919   2.750   4.925   8.465  0.9235  0.4376 -1.7276
 1022MOL0     H37920   2.815   4.854   8.618 -0.6449 -1.6494 -0.0814
 1022MOL0     H37921   3.078   4.704   8.512  0.2364 -0.7185 -0.4453
 1022MOL0     H37922   3.160   4.489   8.371 -0.1582  1.9355  1.6877
 1022MOL0     H37923   3.041   4.373   8.419  0.8040 -0.7356 -2.3625
 1022MOL0     H37924   2.945   4.370   8.202  0.0370 -1.2949  2.0683
 1022MOL0     H37925   3.107   4.309   8.191  0.7948  1.4309 -1.6852
 1022MOL0     H37926   3.192   4.477   8.049 -0.3340 -1.2770 -1.8521
 1022MOL0     H37927   3.107   4.603   8.140  2.6291 -0.2371  2.3770
 1022MOL0     H37928   3.002   4.600   7.947  1.0906 -0.1218  0.2447
 1022MOL0     H37929   2.892   4.486   8.043 -1.1499 -2.0780 -1.9163
 1022MOL0     H37930   3.152   4.604   7.799  2.0343 -1.7583  1.1478
 1022MOL0     H37931   3.314   4.663   7.679  2.3877 -4.2656  1.3431
 1022MOL0     H37932   3.385   4.589   7.526  0.7151  0.4732 -0.0654
 1022MOL0     H37933   3.254   4.701   7.511 -3.2378 -1.5862 -0.7530
 1022MOL0     H37934   3.487   4.412   7.260 -1.5309  1.1818  0.3780
 1022MOL0     H37935   3.584   4.420   7.057  0.2700  0.5953  1.6670
 1022MOL0     H37936   3.574   4.478   6.797 -1.1710 -0.1374 -2.4595
 1022MOL0     H37937   3.678   4.343   6.865  2.0823 -0.2615 -1.7970
 1022MOL0     H37938   3.646   4.224   6.640  2.7930 -0.8956  1.1916
 1022MOL0     H37939   3.569   4.386   6.597  3.0099  2.5641 -1.1979
 1022MOL0     H37940   3.771   4.493   6.623 -2.0961  0.3716  0.5028
 1022MOL0     H37941   3.803   4.359   6.513  0.6861 -0.4747  0.2549
 1022MOL0     H37942   3.887   4.418   6.801  2.0554  0.7920  0.3328
 1022MOL0     H37943   3.927   4.265   6.718  0.6529  0.7382 -0.2223
 1022MOL0     H37944   4.108   4.402   6.703  1.6011  5.2905  0.5290
 1022MOL0     H37945   4.024   4.540   6.645  2.2868  0.0455  2.5507
 1022MOL0     H37946   4.073   4.281   6.499 -2.0710 -0.0477  1.0090
 1022MOL0     H37947   3.991   4.419   6.422  0.4097 -1.5645 -0.7530
 1022MOL0     H37948   4.278   4.409   6.537  1.9801  2.0216 -0.6454
 1022MOL0     H37949   4.200   4.554   6.482  1.3703  0.6632 -1.5371
 1022MOL0     H37950   4.167   4.419   6.250 -0.7958  2.0286  1.0287
 1022MOL0     H37951   4.315   4.331   6.316  0.2369  0.9808 -2.4205
 1022MOL0     H37952   3.284   4.133   6.907  0.9609 -1.2001  1.0993
 1022MOL0     H37953   3.177   4.143   7.132  1.9681 -2.0255  0.7441
 1022MOL0     H37954   3.043   4.222   7.505  0.5127 -1.4585  0.7719
 1022MOL0     H37955   2.947   4.241   7.744  0.5882 -1.9786 -1.7724
 1022MOL0     H37956   2.778   5.321   8.016 -2.8818 -1.1765 -0.5626
 1022MOL0     H37957   2.874   5.379   7.801 -1.3295 -2.1338  1.3176
 1022MOL0     H37958   2.726   5.425   7.285 -0.1501  0.7373  0.1516
 1022MOL0     H37959   2.845   5.497   7.088  1.8716 -1.9656  0.1599
 1022MOL0     H37960   3.037   5.920   7.085 -2.6810 -0.9644  0.4705
 1022MOL0     H37961   3.127   5.778   7.153 -1.2663  1.6220  1.6391
 1022MOL0     H37962   3.222   5.717   6.952  0.5811 -0.9858 -2.0018
 1022MOL0     H37963   3.250   5.891   6.971 -0.7475  1.9268 -3.4680
 1022MOL0     H37964   3.021   5.784   6.795 -1.3503  1.9604  1.2898
 1022MOL0     H37965   3.175   5.826   6.730 -2.7159 -2.1048 -1.3478
 1022MOL0     H37966   3.141   6.073   6.847 -0.4197  0.3621  0.5512
 1022MOL0     H37967   2.979   6.009   6.867  1.1870 -0.4891  1.0416
 1022MOL0     H37968   2.992   6.060   6.447 -1.0866  0.4847  0.0201
 1022MOL0     H37969   2.944   5.873   7.291 -2.3387 -0.2673  1.9794
 1022MOL0     H37970   2.814   5.798   7.484  0.6095  1.3447 -1.1038
 1023MOL0     O37971   0.336   3.731   0.699  0.3792  0.7657  0.9352
 1023MOL0     C37972   0.446   3.781   0.685 -0.2863  1.0372  0.3953
 1023MOL0     O37973   0.517   3.842   0.776 -0.3573  0.6478  0.1285
 1023MOL0     C37974   0.466   3.858   0.909 -0.0681 -0.2470  0.1570
 1023MOL0     C37975   0.335   3.893   0.955  0.5826 -0.1238 -0.3792
 1023MOL0     C37976   0.304   3.901   1.093  0.3477 -0.4905 -1.0562
 1023MOL0     C37977   0.400   3.866   1.185  0.0416  0.4806 -0.7619
 1023MOL0     O37978   0.363   3.854   1.320  0.0447 -0.0144  0.3354
 1023MOL0     C37979   0.408   3.741   1.397  0.4601 -1.0001  0.4422
 1023MOL0     C37980   0.288   3.670   1.457 -0.1497 -0.4228 -1.1940
 1023MOL0     C37981   0.326   3.554   1.542 -0.1229 -0.3343  0.7102
 1023MOL0     C37982   0.445   3.479   1.498 -0.1119  0.9081  0.8407
 1023MOL0     C37983   0.485   3.353   1.585 -0.2189 -0.1101  0.5921
 1023MOL0     C37984   0.569   3.250   1.507  0.6718  0.8652 -0.3277
 1023MOL0     C37985   0.711   3.287   1.469 -0.1723  0.4600  0.2567
 1023MOL0     C37986   0.808   3.335   1.578 -0.3076  0.0031 -0.1527
 1023MOL0     N37987   0.821   3.234   1.678  1.0676  0.3699  0.0242
 1023MOL0     C37988   0.756   3.227   1.794  0.0545 -0.3044 -0.5136
 1023MOL0     C37989   0.772   3.105   1.847 -0.3654  0.3876  0.8616
 1023MOL0     C37990   0.732   3.054   1.977  0.4963 -0.2694 -0.7781
 1023MOL0     C37991   0.601   2.982   1.981  0.9361 -0.3034  0.4790
 1023MOL0     C37992   0.593   2.857   1.893  0.5278 -0.0080  0.1499
 1023MOL0     C37993   0.447   2.797   1.899 -0.2503  0.9437  0.4304
 1023MOL0     O37994   0.432   2.672   1.836 -0.1426  0.3231 -0.2628
 1023MOL0     C37995   0.312   2.615   1.850 -0.0335 -0.9825 -0.1330
 1023MOL0     C37996   0.313   2.480   1.886  0.1852  0.0939 -0.6043
 1023MOL0     C37997   0.197   2.404   1.895 -0.4133  0.5490 -0.7139
 1023MOL0     C37998   0.203   2.254   1.924 -0.0078 -0.7397  0.3200
 1023MOL0     C37999   0.072   2.470   1.867 -0.1865 -0.3387  0.7194
 1023MOL0     C38000  -0.067   2.413   1.866 -0.4094  0.1460  0.4222
 1023MOL0     O38001  -0.084   2.290   1.931 -0.3193 -0.1526 -0.7431
 1023MOL0     C38002  -0.216   2.258   1.955  0.2248 -0.2389  0.0605
 1023MOL0     C38003  -0.270   2.130   1.926  0.1334  1.0240 -0.4064
 1023MOL0     C38004  -0.389   2.082   1.987  0.8044 -0.7240  0.8439
 1023MOL0     C38005  -0.476   2.174   2.050 -0.7378  1.1128 -0.1400
 1023MOL0     O38006  -0.607   2.143   2.096 -0.4080  0.0747 -0.5068
 1023MOL0     C38007  -0.621   2.071   2.214 -0.2403 -0.3034  0.3382
 1023MOL0     C38008  -0.646   2.165   2.329  0.2282 -0.1883  0.0888
 1023MOL0     C38009  -0.713   2.100   2.457 -0.2077 -0.1801 -0.1179
 1023MOL0     C38010  -0.792   2.203   2.529  0.7002  0.0592 -0.1857
 1023MOL0     C38011  -0.859   2.157   2.654 -0.2094 -0.2646  0.3022
 1023MOL0     C38012  -0.984   2.087   2.622  0.3518  0.7903  0.3360
 1023MOL0     C38013  -1.068   2.090   2.755 -0.2479  0.1592  0.2140
 1023MOL0     C38014  -1.205   2.029   2.735  0.5185 -0.6724  0.9359
 1023MOL0    Cl38015  -1.193   1.876   2.663 -0.2235 -0.3481  0.3582
 1023MOL0     C38016  -0.430   2.305   2.064  0.4169  0.0978 -0.5560
 1023MOL0     C38017  -0.297   2.342   2.034 -0.0884  0.4283 -0.3189
 1023MOL0     O38018  -0.157   2.473   1.807  0.4248  0.0659 -0.3592
 1023MOL0     C38019   0.085   2.597   1.803 -1.5148 -0.5080  0.3457
 1023MOL0     C38020   0.194   2.672   1.802 -0.5147 -0.3132 -0.0725
 1023MOL0     N38021   0.844   3.032   1.748 -0.0953 -0.3751 -0.1393
 1023MOL0     N38022   0.882   3.112   1.658  0.2845 -0.3469 -0.5994
 1023MOL0     C38023   0.531   3.845   1.141 -0.9035 -0.6136  0.1875
 1023MOL0     C38024   0.562   3.841   1.006 -0.0759  0.9057 -0.5140
 1023MOL0     C38025   0.511   3.751   0.552 -0.4378 -0.2598  0.2298
 1023MOL0     C38026   0.639   3.790   0.521  0.7596  0.3493 -0.5429
 1023MOL0     C38027   0.694   3.783   0.395 -0.0167  0.2245  0.9006
 1023MOL0     C38028   0.608   3.741   0.293  1.2024  0.4626  0.8005
 1023MOL0     O38029   0.639   3.755   0.160  0.0039  0.6572  0.3477
 1023MOL0     C38030   0.542   3.840   0.089  0.9902 -0.3515 -0.2531
 1023MOL0     C38031   0.620   3.948   0.010 -0.2898  0.6329  0.1638
 1023MOL0     C38032   0.691   4.037   0.098 -0.4741 -1.1917 -0.2305
 1023MOL0     C38033   0.732   4.168   0.024  0.3408 -0.3375  0.2590
 1023MOL0     C38034   0.867   4.160  -0.035  0.2030 -0.8342  0.9167
 1023MOL0     C38035   0.980   4.147  -0.079 -0.2773  0.1085  0.7870
 1023MOL0     C38036   0.483   3.683   0.323  0.7038  0.3987 -0.6204
 1023MOL0     C38037   0.434   3.689   0.455  0.6159 -0.0685  0.5392
 1023MOL0     H38038   0.253   3.912   0.886  0.5358  1.5837  0.1120
 1023MOL0     H38039   0.204   3.921   1.129  1.1786  2.2584  0.0366
 1023MOL0     H38040   0.475   3.675   1.342  1.7079  0.9355 -0.4663
 1023MOL0     H38041   0.472   3.779   1.476  1.7354  1.6173 -1.6603
 1023MOL0     H38042   0.237   3.743   1.521  0.2327  0.1015 -1.4764
 1023MOL0     H38043   0.223   3.641   1.375 -0.3282 -0.6572 -0.9703
 1023MOL0     H38044   0.355   3.594   1.640 -1.2554 -1.4341  1.5332
 1023MOL0     H38045   0.240   3.489   1.563  0.0426 -0.1697  2.0059
 1023MOL0     H38046   0.433   3.437   1.398 -0.5680  0.1434  1.2117
 1023MOL0     H38047   0.525   3.553   1.508 -0.5431  1.0827  4.3796
 1023MOL0     H38048   0.534   3.391   1.675 -2.9603  0.1908  2.0405
 1023MOL0     H38049   0.403   3.295   1.626  1.9695 -4.8328 -0.9044
 1023MOL0     H38050   0.570   3.158   1.567  3.8182  0.8541 -0.2208
 1023MOL0     H38051   0.514   3.229   1.415  0.4357  1.5480 -0.3522
 1023MOL0     H38052   0.763   3.200   1.428 -2.4329 -0.5821 -0.5228
 1023MOL0     H38053   0.707   3.360   1.387  0.5877 -0.7178 -0.8623
 1023MOL0     H38054   0.775   3.423   1.634 -0.4314  0.2202 -0.5604
 1023MOL0     H38055   0.906   3.350   1.531 -1.0963  1.7582 -1.3800
 1023MOL0     H38056   0.693   3.306   1.835 -0.4319  1.0555 -3.6014
 1023MOL0     H38057   0.810   2.989   2.016 -1.0780 -3.1318 -2.0628
 1023MOL0     H38058   0.716   3.142   2.039 -1.3536 -0.6785 -0.6201
 1023MOL0     H38059   0.509   3.039   1.962  0.4001 -1.5628 -0.8867
 1023MOL0     H38060   0.582   2.952   2.084 -0.8122  0.8449  0.5364
 1023MOL0     H38061   0.668   2.790   1.936  1.8118  2.6610  2.4108
 1023MOL0     H38062   0.610   2.887   1.789 -0.9538  0.8365  0.1321
 1023MOL0     H38063   0.388   2.866   1.838 -2.7981 -2.1567 -0.9637
 1023MOL0     H38064   0.417   2.783   2.004 -1.0329 -1.4205 -0.0389
 1023MOL0     H38065   0.409   2.430   1.894 -0.7595 -2.2774 -2.5842
 1023MOL0     H38066   0.145   2.230   2.014 -2.2791 -0.3732 -0.9976
 1023MOL0     H38067   0.166   2.185   1.848  1.4779 -2.7121  1.2597
 1023MOL0     H38068   0.311   2.239   1.932  0.8927  2.9838 -2.4397
 1023MOL0     H38069  -0.193   2.068   1.879 -0.2555  0.0427  0.2268
 1023MOL0     H38070  -0.408   1.975   1.987  1.2964 -0.8120  0.6296
 1023MOL0     H38071  -0.690   1.991   2.186  1.9294 -0.9353 -4.1329
 1023MOL0     H38072  -0.525   2.023   2.236  0.8808  1.6054 -0.2005
 1023MOL0     H38073  -0.552   2.217   2.349 -0.5768  0.5055  2.4132
 1023MOL0     H38074  -0.726   2.232   2.296 -0.3177  0.4307  2.4642
 1023MOL0     H38075  -0.647   2.059   2.534 -0.4583  1.1613  0.8595
 1023MOL0     H38076  -0.786   2.026   2.423  0.3530 -1.1184  0.6817
 1023MOL0     H38077  -0.718   2.275   2.565  0.1141  0.3700  0.4243
 1023MOL0     H38078  -0.863   2.251   2.461 -0.3368 -0.8717  0.1893
 1023MOL0     H38079  -0.900   2.246   2.703 -0.7499  0.0486 -0.6845
 1023MOL0     H38080  -0.786   2.103   2.715 -0.9874 -1.8173 -0.0938
 1023MOL0     H38081  -1.025   2.146   2.540  1.2444  0.2688 -0.5020
 1023MOL0     H38082  -0.973   1.982   2.593  0.0856  1.3708 -2.1218
 1023MOL0     H38083  -1.087   2.194   2.784 -4.8641 -0.1741 -0.8125
 1023MOL0     H38084  -1.024   2.031   2.835 -0.5460 -0.5023 -0.1032
 1023MOL0     H38085  -1.262   2.097   2.671  1.6413  0.3188  0.9646
 1023MOL0     H38086  -1.257   2.031   2.832  1.3514 -1.1502  1.4082
 1023MOL0     H38087  -0.482   2.376   2.127  0.7119 -0.7730  0.7009
 1023MOL0     H38088  -0.261   2.443   2.048  1.4647 -0.1156 -0.1535
 1023MOL0     H38089  -0.003   2.639   1.755  0.4343  0.1023 -3.0073
 1023MOL0     H38090   0.195   2.762   1.742  1.9162  0.6047  1.2334
 1023MOL0     H38091   0.615   3.832   1.208 -0.7095  0.9037  0.2825
 1023MOL0     H38092   0.660   3.805   0.975 -0.6488 -3.0000  1.5258
 1023MOL0     H38093   0.699   3.830   0.603 -0.6718 -0.9640  1.2347
 1023MOL0     H38094   0.794   3.809   0.360 -0.4088 -0.7768 -1.1215
 1023MOL0     H38095   0.482   3.785   0.016  2.5974  0.5958 -2.4094
 1023MOL0     H38096   0.480   3.901   0.156 -0.0676 -0.4447 -1.1207
 1023MOL0     H38097   0.547   3.996  -0.056  0.0180 -1.6892 -2.0262
 1023MOL0     H38098   0.701   3.899  -0.045 -1.1781 -1.1001  0.3186
 1023MOL0     H38099   0.783   3.996   0.140  0.8027  3.2056  1.9074
 1023MOL0     H38100   0.625   4.067   0.181 -2.2675 -1.2100 -1.5843
 1023MOL0     H38101   0.754   4.245   0.098 -0.0168 -1.7908  1.9476
 1023MOL0     H38102   0.652   4.191  -0.047  1.5603 -0.8994 -1.3471
 1023MOL0     H38103   1.078   4.133  -0.122 -0.7168 -0.5465 -0.0291
 1023MOL0     H38104   0.427   3.649   0.236  0.4717  3.3115 -1.7341
 1023MOL0     H38105   0.329   3.663   0.468  0.5953 -1.5717 -1.9254
 1024MOL0     O38106   5.230   4.126   3.466  0.3198 -0.1396 -0.6834
 1024MOL0     C38107   5.203   4.069   3.361  0.2230  0.2405  1.8049
 1024MOL0     O38108   5.112   3.962   3.353 -0.4883 -0.4579  0.7084
 1024MOL0     C38109   5.051   3.912   3.473  0.2068 -0.3477  0.5527
 1024MOL0     C38110   4.977   4.000   3.559 -0.0444  0.3079  1.0397
 1024MOL0     C38111   4.910   3.949   3.669  0.0817 -0.2316 -0.4737
 1024MOL0     C38112   4.914   3.816   3.701  0.4228  1.4110  0.1773
 1024MOL0     O38113   4.839   3.783   3.813  0.2133  0.8010 -0.1950
 1024MOL0     C38114   4.796   3.644   3.841  0.1523 -0.2137  0.7124
 1024MOL0     C38115   4.699   3.601   3.727  0.1046 -0.3888  0.0643
 1024MOL0     C38116   4.561   3.671   3.742 -1.6363  0.2972  0.3475
 1024MOL0     C38117   4.510   3.739   3.617  0.0408 -0.2019  0.0409
 1024MOL0     C38118   4.479   3.638   3.506  0.4536 -0.1585  1.1834
 1024MOL0     C38119   4.357   3.689   3.427 -0.2411  0.2320  0.2405
 1024MOL0     C38120   4.315   3.605   3.307  0.0476  0.0634 -0.0362
 1024MOL0     C38121   4.297   3.452   3.330  0.3588 -0.3393 -0.1989
 1024MOL0     N38122   4.309   3.374   3.207 -0.1636 -0.3986 -0.2480
 1024MOL0     C38123   4.405   3.395   3.113  0.4450 -0.1562 -0.0256
 1024MOL0     C38124   4.356   3.319   3.006 -0.0154  0.0494  0.1369
 1024MOL0     C38125   4.431   3.290   2.874  0.3365 -1.1587  0.9482
 1024MOL0     C38126   4.512   3.165   2.869  0.5497  0.7555 -0.1184
 1024MOL0     C38127   4.592   3.132   2.739 -0.4184  0.6428 -0.0325
 1024MOL0     C38128   4.658   2.995   2.761 -0.4765  0.6349  0.4431
 1024MOL0     O38129   4.707   2.936   2.636 -0.2900 -0.7474 -0.3543
 1024MOL0     C38130   4.845   2.964   2.603  1.1364 -0.0954  0.2746
 1024MOL0     C38131   4.916   3.075   2.652  0.6260  0.0575  0.1119
 1024MOL0     C38132   5.049   3.099   2.618 -0.2647 -0.2865 -1.0829
 1024MOL0     C38133   5.116   3.203   2.700 -0.1663  0.3155 -0.0349
 1024MOL0     C38134   5.123   3.004   2.542 -0.1214 -0.0861  0.1333
 1024MOL0     C38135   5.263   3.009   2.501  0.2044  0.9632  0.3459
 1024MOL0     O38136   5.329   3.115   2.539 -0.6282  0.3068 -0.0902
 1024MOL0     C38137   5.462   3.120   2.507 -0.3539  0.5135  0.6008
 1024MOL0     C38138   5.548   3.083   2.606  0.9157  0.0783  0.5199
 1024MOL0     C38139   5.680   3.108   2.604 -0.6391 -0.2043  0.4408
 1024MOL0     C38140   5.732   3.186   2.489  0.3418  0.6656  0.8700
 1024MOL0     O38141   5.860   3.237   2.478 -0.0721  0.4212  0.4201
 1024MOL0     C38142   5.969   3.187   2.559  0.9947  0.4118 -0.0874
 1024MOL0     C38143   6.094   3.274   2.545 -0.2545 -0.4292  0.3837
 1024MOL0     C38144   6.190   3.236   2.654  0.7350  0.4250  0.8409
 1024MOL0     C38145   6.320   3.304   2.641  0.7053  0.1833 -0.4426
 1024MOL0     C38146   6.408   3.254   2.755  0.8637  0.7725  0.5084
 1024MOL0     C38147   6.551   3.293   2.729 -0.1156  0.0970  0.1114
 1024MOL0     C38148   6.645   3.237   2.837 -0.4729  0.3715  0.5616
 1024MOL0     C38149   6.775   3.291   2.844 -0.2007 -0.4788  0.1047
 1024MOL0    Cl38150   6.873   3.160   2.932 -0.0437 -0.5615  0.0564
 1024MOL0     C38151   5.647   3.208   2.383 -0.5163  0.6269  0.4963
 1024MOL0     C38152   5.509   3.183   2.392  0.5043  0.3124  0.2662
 1024MOL0     O38153   5.313   2.899   2.461 -0.6441 -0.2243 -0.2038
 1024MOL0     C38154   5.046   2.898   2.492  0.1709 -1.2613  0.7867
 1024MOL0     C38155   4.912   2.877   2.518  0.0358  0.5888  0.6386
 1024MOL0     N38156   4.258   3.228   3.047 -0.5554 -0.2682 -0.4185
 1024MOL0     N38157   4.221   3.273   3.164 -0.4271 -0.5959 -0.8873
 1024MOL0     C38158   4.990   3.728   3.620 -0.0647  0.2848 -1.0920
 1024MOL0     C38159   5.048   3.771   3.508 -0.9102 -0.3152 -0.0967
 1024MOL0     C38160   5.260   4.130   3.238  0.1095 -0.1840 -0.6162
 1024MOL0     C38161   5.384   4.204   3.244 -1.0878 -0.1612  0.4160
 1024MOL0     C38162   5.449   4.247   3.128 -0.3943  0.0035 -1.3553
 1024MOL0     C38163   5.400   4.216   3.006  1.1957 -0.8845  0.0176
 1024MOL0     O38164   5.461   4.274   2.892  0.9072  0.1146  0.3081
 1024MOL0     C38165   5.484   4.196   2.782 -0.3656 -1.3509  0.6339
 1024MOL0     C38166   5.569   4.271   2.674  0.9356 -1.0655  0.7151
 1024MOL0     C38167   5.703   4.313   2.720 -1.2174  0.3815  0.1733
 1024MOL0     C38168   5.713   4.438   2.813  0.2950  1.0911  0.3797
 1024MOL0     C38169   5.658   4.551   2.739 -0.6591  0.9784 -0.8741
 1024MOL0     C38170   5.597   4.635   2.681 -0.0802  0.0342 -0.8516
 1024MOL0     C38171   5.286   4.132   3.001  0.5896 -1.1140 -0.3377
 1024MOL0     C38172   5.216   4.096   3.109  0.5801 -0.7671  0.4182
 1024MOL0     H38173   4.976   4.106   3.533 -0.4474 -0.1746 -1.1470
 1024MOL0     H38174   4.847   4.016   3.728 -1.7024 -0.6996 -1.7400
 1024MOL0     H38175   4.880   3.574   3.844  0.7674 -0.3848 -5.9104
 1024MOL0     H38176   4.734   3.643   3.931  0.9329  0.5141  1.2735
 1024MOL0     H38177   4.743   3.628   3.630 -4.0180  0.0856 -1.9126
 1024MOL0     H38178   4.686   3.492   3.729 -1.7112 -0.2099  2.6371
 1024MOL0     H38179   4.496   3.601   3.795 -0.3184 -1.8955 -0.7897
 1024MOL0     H38180   4.581   3.753   3.812  0.2148  0.3839 -0.2248
 1024MOL0     H38181   4.420   3.793   3.648 -0.0280  0.2458 -0.8902
 1024MOL0     H38182   4.577   3.813   3.572  0.8836 -1.2360 -0.4307
 1024MOL0     H38183   4.571   3.623   3.449 -0.3407 -4.7678  0.7602
 1024MOL0     H38184   4.446   3.541   3.543 -0.7585 -1.3203 -2.5060
 1024MOL0     H38185   4.268   3.684   3.490 -1.0884 -1.2688 -1.0144
 1024MOL0     H38186   4.384   3.790   3.394 -1.2620  0.4256 -0.0322
 1024MOL0     H38187   4.216   3.640   3.278  0.5399  0.9786 -0.6800
 1024MOL0     H38188   4.382   3.613   3.221 -1.2421 -1.6569 -1.2537
 1024MOL0     H38189   4.198   3.439   3.374  0.1015 -2.4851 -1.2935
 1024MOL0     H38190   4.376   3.424   3.399 -1.1807  0.3769  1.9640
 1024MOL0     H38191   4.481   3.471   3.128 -1.2464  1.6509 -0.1660
 1024MOL0     H38192   4.365   3.293   2.787 -0.1196 -3.3847  1.1508
 1024MOL0     H38193   4.499   3.375   2.869  1.1182 -1.6059  3.0817
 1024MOL0     H38194   4.437   3.087   2.890  1.7912 -0.2172  0.8196
 1024MOL0     H38195   4.584   3.174   2.951 -1.1371  3.6582  1.2310
 1024MOL0     H38196   4.658   3.213   2.707  0.6913 -0.6361 -1.0771
 1024MOL0     H38197   4.511   3.127   2.665 -2.1572  0.0423  1.8050
 1024MOL0     H38198   4.577   2.935   2.803  0.0104 -1.6743 -1.7444
 1024MOL0     H38199   4.744   3.015   2.826  0.4444  2.5422 -1.2402
 1024MOL0     H38200   4.870   3.138   2.728 -1.8954 -1.7583  0.2343
 1024MOL0     H38201   5.050   3.280   2.741  2.8714  2.4006  1.3165
 1024MOL0     H38202   5.186   3.154   2.769  0.2040  0.3423 -0.3866
 1024MOL0     H38203   5.179   3.264   2.634  0.9139 -0.1562  0.5277
 1024MOL0     H38204   5.510   3.052   2.703 -0.0549  1.5280  0.6382
 1024MOL0     H38205   5.758   3.110   2.680  1.3080 -1.9384 -1.3717
 1024MOL0     H38206   5.934   3.196   2.662  0.5963 -0.6067 -0.1180
 1024MOL0     H38207   5.985   3.083   2.530 -0.7102  0.5306 -1.6821
 1024MOL0     H38208   6.134   3.272   2.443  2.4238  1.4798  1.2800
 1024MOL0     H38209   6.065   3.379   2.559 -1.9822 -1.2407  4.3474
 1024MOL0     H38210   6.193   3.127   2.643 -0.1993  0.5097 -0.5648
 1024MOL0     H38211   6.151   3.261   2.753  0.8550  0.7242  0.8132
 1024MOL0     H38212   6.364   3.264   2.549  4.1105 -0.7176  1.3910
 1024MOL0     H38213   6.320   3.414   2.637 -0.0141  0.3501  2.4539
 1024MOL0     H38214   6.404   3.145   2.756 -1.4971  0.8110 -0.0522
 1024MOL0     H38215   6.371   3.286   2.853 -0.4163  2.6566 -0.5367
 1024MOL0     H38216   6.585   3.247   2.635  4.4330 -1.1306  2.0874
 1024MOL0     H38217   6.552   3.402   2.723  0.3502  0.1672  1.1756
 1024MOL0     H38218   6.646   3.131   2.812  0.3817  0.4773  0.1022
 1024MOL0     H38219   6.593   3.245   2.933 -0.3327 -2.0885  0.8992
 1024MOL0     H38220   6.762   3.393   2.883  0.3289  0.2945 -1.6499
 1024MOL0     H38221   6.817   3.295   2.744 -0.1879 -1.1412  0.0800
 1024MOL0     H38222   5.697   3.257   2.300  3.4158 -1.9822  1.0369
 1024MOL0     H38223   5.423   3.209   2.331  1.0145  0.6783 -0.3137
 1024MOL0     H38224   5.095   2.822   2.432 -0.5558 -2.8180  2.1034
 1024MOL0     H38225   4.850   2.793   2.489 -0.2923  1.3827 -1.1015
 1024MOL0     H38226   5.006   3.625   3.652 -0.1378  0.5047 -0.3357
 1024MOL0     H38227   5.101   3.700   3.446  1.1051  1.8686 -1.0496
 1024MOL0     H38228   5.440   4.235   3.332  1.7974  2.2245 -2.0473
 1024MOL0     H38229   5.535   4.312   3.139  1.0002 -1.6571 -1.8866
 1024MOL0     H38230   5.537   4.108   2.820 -1.8864 -2.1382  1.0132
 1024MOL0     H38231   5.386   4.164   2.744 -0.9225  0.2553  0.6473
 1024MOL0     H38232   5.516   4.355   2.628 -0.3217 -2.3431 -0.2509
 1024MOL0     H38233   5.580   4.205   2.587  0.6309  3.2354 -2.9341
 1024MOL0     H38234   5.774   4.315   2.637 -0.1373 -4.1850  0.7410
 1024MOL0     H38235   5.750   4.233   2.778 -0.9012 -0.6713 -1.4606
 1024MOL0     H38236   5.815   4.455   2.849  0.5234  1.6382 -0.5083
 1024MOL0     H38237   5.659   4.411   2.905  1.5627  0.9649  1.1095
 1024MOL0     H38238   5.546   4.715   2.631  3.9578  3.1111 -0.5556
 1024MOL0     H38239   5.236   4.097   2.911 -0.3472 -1.8291  0.4413
 1024MOL0     H38240   5.122   4.042   3.113 -0.7338  1.4721  1.5571
  11.44367  11.44367  11.44367
